Title
19927
    1ASP      N    1   5.307   1.326   4.874 -0.1602  0.2731 -0.2474
    1ASP    HT1    2   5.369   1.402   4.910 -0.5498  2.1062 -3.0993
    1ASP    HT2    3   5.227   1.322   4.941  0.0927  3.1785  0.3625
    1ASP    HT3    4   5.277   1.344   4.776 -1.2777  0.3046  0.0861
    1ASP     CA    5   5.378   1.194   4.857 -0.3263 -0.2031  1.0717
    1ASP     HA    6   5.313   1.141   4.789 -1.2003  1.4274  0.5680
    1ASP     CB    7   5.522   1.205   4.791  0.3858  0.1541 -0.3294
    1ASP    HB1    8   5.596   1.229   4.870  0.0278  0.8931 -0.2143
    1ASP    HB2    9   5.528   1.278   4.707 -0.0594  1.7423  0.9822
    1ASP     CG   10   5.578   1.068   4.734  0.1001 -0.0094  0.3247
    1ASP    OD1   11   5.517   0.961   4.742 -0.2351 -0.5292 -0.6845
    1ASP    OD2   12   5.694   1.081   4.682 -0.0030  0.2832 -0.1532
    1ASP      C   13   5.377   1.119   4.994 -0.5609  0.1215  0.0262
    1ASP      O   14   5.323   1.169   5.086 -0.1879 -0.3580 -0.1126
    2ALA      N   15   5.445   1.004   5.009  0.2288 -0.1882  0.0214
    2ALA     HN   16   5.500   0.969   4.933  0.4119 -0.3933  0.2479
    2ALA     CA   17   5.456   0.928   5.130  0.7029  0.4362 -0.8391
    2ALA     HA   18   5.484   0.827   5.105 -3.0882 -0.8168 -0.6254
    2ALA     CB   19   5.565   1.000   5.206 -0.0423  0.3377 -0.1950
    2ALA    HB1   20   5.598   0.938   5.292  0.7517  1.3253  0.2331
    2ALA    HB2   21   5.522   1.095   5.244 -2.1052 -0.6842  0.1698
    2ALA    HB3   22   5.655   1.012   5.142  1.0711 -0.2269  1.2278
    2ALA      C   23   5.326   0.910   5.216 -0.1230 -0.0450 -0.5254
    2ALA      O   24   5.207   0.880   5.174 -0.6086  0.4422  0.3054
    3ASP      N   25   5.343   0.928   5.349  0.1668 -0.6691 -0.4518
    3ASP     HN   26   5.438   0.945   5.374 -0.5198  1.5946  0.9114
    3ASP     CA   27   5.237   0.932   5.452  0.0439 -0.3609  0.3413
    3ASP     HA   28   5.144   0.893   5.413 -0.5214  0.8114  0.4636
    3ASP     CB   29   5.279   0.867   5.586 -0.2321 -0.7475  0.1070
    3ASP    HB1   30   5.206   0.902   5.661 -0.7139 -1.3100 -0.0864
    3ASP    HB2   31   5.386   0.892   5.598  0.4286 -2.1027 -2.2094
    3ASP     CG   32   5.277   0.713   5.587  0.4516  0.2347  0.0925
    3ASP    OD1   33   5.330   0.646   5.681 -0.0429 -0.1696 -0.1942
    3ASP    OD2   34   5.204   0.666   5.492 -0.2658 -0.0178 -0.6165
    3ASP      C   35   5.194   1.075   5.468 -0.2724  0.1235 -0.9092
    3ASP      O   36   5.093   1.107   5.530 -0.2549  0.5905 -0.0524
    4GLY      N   37   5.259   1.173   5.400  0.0433  0.1657 -0.0059
    4GLY     HN   38   5.326   1.136   5.337  2.0458 -0.6569  2.4401
    4GLY     CA   39   5.221   1.313   5.384  0.2902 -0.4976  0.1026
    4GLY    HA1   40   5.294   1.362   5.322  0.3793 -1.0252 -0.2127
    4GLY    HA2   41   5.212   1.362   5.480  2.3317  0.3763 -0.1058
    4GLY      C   42   5.091   1.339   5.311 -0.3311  0.8096 -0.4301
    4GLY      O   43   5.031   1.236   5.269  0.0323  0.3536  0.3336
    5PRO      N   44   5.037   1.458   5.286  0.0212  0.4574 -0.1296
    5PRO     CD   45   5.100   1.583   5.328 -0.0590  0.1822 -0.2123
    5PRO    HD1   46   5.201   1.589   5.281  0.7369  0.8431  1.5128
    5PRO    HD2   47   5.116   1.591   5.437  2.0680  1.2376 -0.5426
    5PRO     CA   48   4.934   1.476   5.183 -0.4217  0.4154 -0.3575
    5PRO     HA   49   4.840   1.449   5.229 -0.0947  1.2136  0.8403
    5PRO     CB   50   4.937   1.628   5.151 -0.3440  0.4631  0.3845
    5PRO    HB1   51   4.836   1.660   5.115 -0.7301 -0.3823  0.6899
    5PRO    HB2   52   5.011   1.643   5.069 -0.1348 -1.6177  0.1219
    5PRO     CG   53   4.998   1.688   5.278 -0.6078 -0.0765 -0.4712
    5PRO    HG1   54   5.047   1.784   5.251  3.3096 -1.4835  0.8914
    5PRO    HG2   55   4.922   1.703   5.358  0.5941  3.7488  0.1694
    5PRO      C   56   4.946   1.396   5.048  0.4798 -0.2942 -0.1771
    5PRO      O   57   5.050   1.377   4.988 -0.1934 -0.1469 -0.6593
    6GLY      N   58   4.831   1.362   4.990  0.0947  0.3396  0.3940
    6GLY     HN   59   4.744   1.393   5.026 -0.0506  1.2380 -0.6962
    6GLY     CA   60   4.826   1.313   4.851  0.0690  0.0585 -0.2739
    6GLY    HA1   61   4.732   1.266   4.829 -0.7217  1.3156  0.3314
    6GLY    HA2   62   4.893   1.229   4.838 -0.3507 -0.5934  1.5452
    6GLY      C   63   4.868   1.414   4.739  0.0220  0.1514  0.2256
    6GLY      O   64   4.854   1.536   4.748  1.3602  0.1919  0.8557
    7ASP      N   65   4.927   1.359   4.634 -0.5525 -0.5133  0.0225
    7ASP     HN   66   4.939   1.260   4.628 -0.4674 -0.4170 -2.2965
    7ASP     CA   67   4.983   1.437   4.531 -0.1925 -0.2331  0.1714
    7ASP     HA   68   5.031   1.527   4.568  2.2859 -0.5435 -1.9928
    7ASP     CB   69   5.090   1.350   4.452  0.5029 -0.4829 -0.6079
    7ASP    HB1   70   5.114   1.407   4.359  0.5068  1.1392  0.3537
    7ASP    HB2   71   5.058   1.246   4.427 -0.7198  0.1030 -1.6382
    7ASP     CG   72   5.223   1.335   4.528  0.3971 -0.1339 -0.0490
    7ASP    OD1   73   5.242   1.396   4.636  0.7376  0.2541  0.5646
    7ASP    OD2   74   5.308   1.264   4.469  0.2505  0.0248  0.2914
    7ASP      C   75   4.870   1.490   4.440  0.0537  0.3210 -0.1973
    7ASP      O   76   4.757   1.443   4.453 -0.1901 -0.1769  0.4804
    8PRO      N   77   4.885   1.578   4.346  0.5523  0.3110  0.1312
    8PRO     CD   78   4.990   1.682   4.345 -0.3107 -0.4413  0.3007
    8PRO    HD1   79   5.087   1.629   4.338  1.1469  1.9993  0.8080
    8PRO    HD2   80   4.997   1.749   4.434  3.9600  1.4393 -1.2195
    8PRO     CA   81   4.793   1.587   4.230 -0.4210 -0.2293 -0.8292
    8PRO     HA   82   4.710   1.639   4.275  0.8170  0.2229  1.0186
    8PRO     CB   83   4.866   1.680   4.136 -0.5107 -0.1718 -0.4047
    8PRO    HB1   84   4.799   1.741   4.073 -0.7265 -0.0416 -0.0514
    8PRO    HB2   85   4.931   1.617   4.073 -2.8703 -2.4345 -0.7389
    8PRO     CG   86   4.963   1.767   4.223 -0.0486 -0.4375  0.3294
    8PRO    HG1   87   5.055   1.808   4.174  0.2330 -2.6340 -1.0841
    8PRO    HG2   88   4.908   1.852   4.269  1.3890 -0.0084  1.3619
    8PRO      C   89   4.735   1.459   4.165 -0.6451  0.2777 -0.5358
    8PRO      O   90   4.796   1.353   4.168 -0.1429 -0.6402  0.3361
    9ASP      N   91   4.618   1.476   4.110 -0.1108 -0.3964  0.0582
    9ASP     HN   92   4.562   1.554   4.135 -1.2813 -1.2515  0.1813
    9ASP     CA   93   4.552   1.377   4.026 -0.1687  0.5450 -0.0536
    9ASP     HA   94   4.540   1.291   4.090  3.0332  0.5073  0.6729
    9ASP     CB   95   4.404   1.410   3.987  0.6799  0.2863  0.8867
    9ASP    HB1   96   4.355   1.323   3.939 -0.2939  1.7481 -0.9013
    9ASP    HB2   97   4.415   1.486   3.906  1.4303 -0.1973  0.5271
    9ASP     CG   98   4.313   1.466   4.096  0.9133 -0.4197 -0.0414
    9ASP    OD1   99   4.266   1.585   4.076 -0.3353 -0.1041 -0.0427
    9ASP    OD2  100   4.276   1.392   4.186  0.3018  0.2807 -0.8014
    9ASP      C  101   4.632   1.327   3.902  0.1356 -0.1143 -0.1312
    9ASP      O  102   4.725   1.391   3.847  0.8878  0.2049 -0.1996
   10ALA      N  103   4.599   1.203   3.851 -0.1468 -0.1098 -0.0196
   10ALA     HN  104   4.518   1.155   3.885  1.1550 -0.2758  3.2466
   10ALA     CA  105   4.671   1.158   3.726  0.0745  0.3029 -0.0908
   10ALA     HA  106   4.776   1.162   3.752 -0.2129  2.2063  0.9013
   10ALA     CB  107   4.627   1.014   3.691  0.2707  0.8345  0.4826
   10ALA    HB1  108   4.686   0.971   3.608  0.4742  1.6018  0.2171
   10ALA    HB2  109   4.523   0.990   3.662  0.6425 -0.7304  0.3692
   10ALA    HB3  110   4.656   0.953   3.779  0.1948  1.4308  0.9264
   10ALA      C  111   4.645   1.242   3.603  0.4131 -1.2679  0.1108
   10ALA      O  112   4.525   1.276   3.572 -0.6197  0.3209  0.3134
   11GLY      N  113   4.752   1.277   3.534  0.2094 -0.0435  0.4666
   11GLY     HN  114   4.842   1.251   3.570  1.5984  5.2803  1.7231
   11GLY     CA  115   4.756   1.331   3.403  0.5067 -0.7651 -0.0352
   11GLY    HA1  116   4.830   1.409   3.402  0.9447 -1.1286  1.7798
   11GLY    HA2  117   4.654   1.361   3.381  0.1632 -0.8453  1.3609
   11GLY      C  118   4.789   1.224   3.295  0.0397  0.1282  0.2311
   11GLY    OT1  119   4.842   1.260   3.189  0.4740 -0.5720  0.4441
   11GLY    OT2  120   4.759   1.103   3.306  0.3539  0.1447 -0.1640
   12SOD    SOD  121   3.094   0.726   3.744 -0.3071  0.3071 -0.1505
   13SOD    SOD  122   5.341   2.905   4.692 -0.5166  0.3148 -0.2590
   14SOD    SOD  123   2.664   2.309   0.021  0.2144  0.0125  0.6090
   15SOD    SOD  124   3.277   1.106   3.353 -0.2901  0.0490  0.4530
   16SOD    SOD  125   4.064   0.595   4.825  0.6655 -0.0335  0.3606
   17SOD    SOD  126   6.058   3.356   0.465  0.0880  0.2676  0.3931
   18SOD    SOD  127   5.462   4.104   1.190  0.3161  0.2476  0.3190
   19SOD    SOD  128   5.571   3.264   1.494 -0.1603 -0.5290 -0.0963
   20SOD    SOD  129   5.103   4.382   3.933 -0.1645  0.0369  0.2283
   21SOD    SOD  130   3.287   5.537   0.091  0.3489  0.7228 -0.2057
   22SOD    SOD  131   0.886   4.987   2.789 -0.1325 -0.3858 -0.1403
   23SOD    SOD  132   1.166   1.713   1.505 -0.3139 -0.2853 -0.0421
   24SOD    SOD  133   1.299   2.054   4.377  0.4043  0.5176 -0.2340
   25SOD    SOD  134   3.549   1.191   0.638 -0.0726  0.0555  0.2341
   26SOD    SOD  135   1.352   5.377   1.097  0.0019  0.2632  0.1254
   27SOD    SOD  136   1.952   1.927   1.148  0.4695 -0.4843 -0.9056
   28SOD    SOD  137   0.270   2.846   0.441  0.5972 -0.2380 -0.0866
   29SOD    SOD  138   0.801   3.815   2.998  0.1440  0.1475 -0.0393
   30SOD    SOD  139   4.572   1.100   2.901  0.1902  0.4956 -0.5192
   31SOD    SOD  140   2.238   4.086   1.843  0.1892 -0.6661  0.0232
   32SOD    SOD  141   4.556   0.705   1.255  0.2940 -0.3458  0.2876
   33SOD    SOD  142   5.442   1.346   3.610 -0.6390  0.4853  0.3101
   34CLA    CLA  143   3.539   2.179   4.224 -0.1865 -0.2822 -0.0027
   35CLA    CLA  144   0.362   4.421   1.996 -0.2704  0.1977 -0.1580
   36CLA    CLA  145   5.448   4.709   0.218  0.1125 -0.1869  0.0838
   37CLA    CLA  146   4.062   1.217   1.005  0.0584 -0.0888  0.0034
   38CLA    CLA  147   2.029   2.867   0.805 -0.1929  0.3508 -0.0956
   39CLA    CLA  148   1.562   5.859   3.195  0.1437  0.0642  0.2251
   40CLA    CLA  149   0.246   3.561   3.725  0.4787  0.3745  0.2476
   41CLA    CLA  150   3.474   1.086   2.747  0.0834  0.0857  0.2233
   42CLA    CLA  151   3.724   2.017   0.752  0.0867 -0.4923 -0.1324
   43CLA    CLA  152   2.219   5.150   1.926 -0.0053 -0.0271  0.2766
   44CLA    CLA  153   4.960   5.167   4.198  0.1810  0.1665 -0.2015
   45CLA    CLA  154   2.282   2.275   0.562  0.4756 -0.5863  0.0615
   46CLA    CLA  155   5.697   1.679   1.640 -0.3472  0.3083  0.2182
   47CLA    CLA  156   2.395   4.972   0.844  0.3769 -0.2765 -0.2966
   48CLA    CLA  157   4.353   0.017   1.718  0.0321  0.1474 -0.0364
   49CLA    CLA  158   5.089   4.234   1.008 -0.3146  0.5063  0.1739
   50CLA    CLA  159   2.829   0.890   0.122  0.0591  0.1110  0.4038
   51CLA    CLA  160   0.636   3.401   2.721 -0.1316  0.2725  0.1378
   52TIP3   OH2  161   5.722   0.752   0.538 -0.3933  0.1759 -0.3684
   52TIP3    H1  162   5.668   0.819   0.496 -1.6538 -1.2962 -1.1880
   52TIP3    H2  163   5.804   0.752   0.488  0.7905  2.9512  1.3480
   53TIP3   OH2  164   3.053   5.871   3.230 -0.1992  0.9232 -0.1088
   53TIP3    H1  165   3.121   5.934   3.205  1.1168 -0.0864  0.7723
   53TIP3    H2  166   3.015   5.844   3.147  1.2297  0.7299 -0.7372
   54TIP3   OH2  167   5.960   1.003   1.895 -0.8735 -0.2980 -0.2411
   54TIP3    H1  168   5.943   1.065   1.825 -1.6956 -0.8915 -0.5792
   54TIP3    H2  169   5.926   1.046   1.974  1.7393  1.1940  0.1781
   55TIP3   OH2  170   5.653   1.795   3.546 -0.4004 -0.1726  0.3379
   55TIP3    H1  171   5.733   1.748   3.523 -0.4776 -0.6526  1.0386
   55TIP3    H2  172   5.683   1.878   3.583 -0.2719  0.7356 -1.6688
   56TIP3   OH2  173   0.306   3.578   0.276  0.7338  0.2246  0.3654
   56TIP3    H1  174   0.339   3.596   0.188  1.5062  1.9163  0.9585
   56TIP3    H2  175   0.383   3.585   0.332  0.0985  0.0751  1.2795
   57TIP3   OH2  176   4.437   3.499   4.900 -0.1884 -0.0069  0.1969
   57TIP3    H1  177   4.405   3.526   4.815 -0.7087 -0.6176  0.1951
   57TIP3    H2  178   4.492   3.572   4.929 -1.1939  0.8483 -0.0064
   58TIP3   OH2  179   1.886   0.565   3.350 -0.5010  0.2158  0.3007
   58TIP3    H1  180   1.871   0.656   3.377 -0.7065  1.0380 -2.2719
   58TIP3    H2  181   1.964   0.538   3.398 -1.4667  1.0780  2.5076
   59TIP3   OH2  182   4.111   4.214   1.077  0.1471  0.0967  0.0086
   59TIP3    H1  183   4.069   4.300   1.075  0.5962  0.3197 -0.0826
   59TIP3    H2  184   4.182   4.221   1.014 -1.3713 -1.1830 -1.9746
   60TIP3   OH2  185   0.707   2.772   2.768  0.2776 -0.1166 -0.0200
   60TIP3    H1  186   0.639   2.839   2.761 -0.4344 -0.9744 -2.0946
   60TIP3    H2  187   0.665   2.692   2.737  2.1066 -0.7734 -0.9260
   61TIP3   OH2  188   1.067   5.543   0.046 -0.8007 -0.1700  0.0299
   61TIP3    H1  189   1.081   5.478   0.114 -1.8790 -0.3846  0.0555
   61TIP3    H2  190   1.003   5.603   0.083 -0.3505  0.5081 -0.2704
   62TIP3   OH2  191   4.666   5.717   1.754  0.0272  0.3170  0.2233
   62TIP3    H1  192   4.601   5.768   1.803 -0.8161 -0.6852  0.2003
   62TIP3    H2  193   4.715   5.782   1.704 -0.5437  1.1596  0.7310
   63TIP3   OH2  194   3.789   2.586   4.866  0.1789 -0.1112  0.2873
   63TIP3    H1  195   3.701   2.613   4.837  0.0268 -0.1783  0.6869
   63TIP3    H2  196   3.841   2.586   4.786  0.0429  0.8159  0.1931
   64TIP3   OH2  197   3.176   2.448   0.436  0.0703  0.1666  0.5763
   64TIP3    H1  198   3.271   2.446   0.423  0.1937  0.3677  1.4127
   64TIP3    H2  199   3.164   2.446   0.531 -0.7659  0.1303  0.4812
   65TIP3   OH2  200   0.429   1.629   3.807 -0.1375 -0.4061 -0.5694
   65TIP3    H1  201   0.346   1.610   3.764 -0.3266 -1.1881  0.1147
   65TIP3    H2  202   0.459   1.544   3.840  1.3731 -0.2840 -1.5694
   66TIP3   OH2  203   1.246   4.004   5.171 -0.2504  0.0635 -0.0564
   66TIP3    H1  204   1.268   3.929   5.116 -0.2999 -0.8469  1.1167
   66TIP3    H2  205   1.329   4.027   5.214 -0.8710 -1.5017  2.1340
   67TIP3   OH2  206   1.699   5.817   4.730  0.2454  0.0957  0.3592
   67TIP3    H1  207   1.643   5.740   4.737 -1.0851  1.1212  1.7379
   67TIP3    H2  208   1.712   5.828   4.636 -2.2419  0.0129 -0.0749
   68TIP3   OH2  209   3.163   0.257   0.285 -0.5703  0.5440  0.3245
   68TIP3    H1  210   3.243   0.270   0.335 -0.9011 -0.4932  1.1748
   68TIP3    H2  211   3.132   0.170   0.312 -1.7902  0.7783 -0.2431
   69TIP3   OH2  212   0.984   5.645   4.555 -0.4949 -0.1494  0.6432
   69TIP3    H1  213   1.074   5.627   4.526 -0.2391  0.3996  1.0872
   69TIP3    H2  214   0.933   5.646   4.474 -0.1926 -0.9621  0.4285
   70TIP3   OH2  215   5.772   3.085   0.139  0.3931 -0.1919  0.2560
   70TIP3    H1  216   5.760   3.140   0.062  0.6923 -0.7610 -0.2077
   70TIP3    H2  217   5.705   3.017   0.131 -0.4951  0.5376  1.2352
   71TIP3   OH2  218   1.984   0.521   1.741 -0.2173  0.0966 -0.1192
   71TIP3    H1  219   1.978   0.615   1.728  0.1586  0.0618 -0.6043
   71TIP3    H2  220   2.058   0.509   1.800 -1.5855  0.2208  1.7048
   72TIP3   OH2  221   5.399   1.109   3.676  0.3238 -0.9568 -0.1913
   72TIP3    H1  222   5.364   1.104   3.765  1.7372 -1.7122  0.3591
   72TIP3    H2  223   5.357   1.036   3.629 -1.3688  0.1907 -0.5332
   73TIP3   OH2  224   0.305   5.205   0.436  1.1215  0.2711  0.4871
   73TIP3    H1  225   0.316   5.187   0.343  1.1482  0.3001  0.4846
   73TIP3    H2  226   0.391   5.186   0.474  1.8630  2.6317  0.1438
   74TIP3   OH2  227   2.180   5.764   4.240  0.1520  0.3784 -0.5510
   74TIP3    H1  228   2.245   5.773   4.170  0.6369 -0.7930 -0.2845
   74TIP3    H2  229   2.132   5.847   4.239 -1.8909 -0.6447 -4.2396
   75TIP3   OH2  230   1.008   3.386   2.012  0.4315 -0.0139 -0.2479
   75TIP3    H1  231   1.055   3.464   1.981  1.7749 -0.6786  0.0623
   75TIP3    H2  232   0.976   3.410   2.099  0.7773  0.2248 -0.1843
   76TIP3   OH2  233   3.582   3.064   0.539  0.4567  0.1822 -0.0423
   76TIP3    H1  234   3.578   3.042   0.446 -1.5475  0.4765 -0.0765
   76TIP3    H2  235   3.516   3.009   0.580  1.0564  0.3231  1.1623
   77TIP3   OH2  236   6.154   4.160   3.377  0.0354 -0.2107  0.8450
   77TIP3    H1  237   6.157   4.255   3.387  0.2908 -0.2290  0.9405
   77TIP3    H2  238   6.146   4.126   3.466 -0.1391 -0.2779  0.8060
   78TIP3   OH2  239   5.107   5.352   2.856 -0.2229  0.5176  0.2144
   78TIP3    H1  240   5.116   5.288   2.927 -1.9792  0.8247  0.7566
   78TIP3    H2  241   5.065   5.304   2.785  1.6812  0.1651 -0.7585
   79TIP3   OH2  242   4.010   2.587   2.946 -0.2604 -0.0894 -0.1645
   79TIP3    H1  243   3.995   2.681   2.937  0.0304  0.3813  3.0352
   79TIP3    H2  244   4.105   2.577   2.942 -0.0674  0.2287  2.1830
   80TIP3   OH2  245   0.575   0.011   4.811  0.0686 -0.5718 -0.1437
   80TIP3    H1  246   0.611  -0.002   4.898  0.9087 -1.4594 -0.5995
   80TIP3    H2  247   0.482   0.030   4.825 -0.0223 -1.6907  0.8908
   81TIP3   OH2  248   4.673   1.135   0.317 -0.9422 -0.4586 -0.5195
   81TIP3    H1  249   4.652   1.217   0.275 -0.2640  0.2057  0.3791
   81TIP3    H2  250   4.595   1.113   0.369 -2.0860 -1.6841 -2.6383
   82TIP3   OH2  251   4.274   2.827   4.590  0.5504 -0.2333 -0.1983
   82TIP3    H1  252   4.251   2.906   4.640  0.5769  0.5068 -1.3094
   82TIP3    H2  253   4.198   2.811   4.534  0.2034 -1.5116  0.6075
   83TIP3   OH2  254   1.213   3.328   0.247 -0.2337  0.2587 -0.5390
   83TIP3    H1  255   1.186   3.253   0.194 -1.9865  0.4334  0.0704
   83TIP3    H2  256   1.183   3.404   0.198 -2.2251  0.4142  0.8094
   84TIP3   OH2  257   0.104   2.717   2.627 -0.3466 -0.4798 -0.2880
   84TIP3    H1  258   0.172   2.771   2.585  0.3950 -0.4190  0.9274
   84TIP3    H2  259   0.051   2.780   2.676 -1.1375 -0.5602 -1.0193
   85TIP3   OH2  260   1.649   1.182   0.908  0.3256  0.3978  0.1583
   85TIP3    H1  261   1.683   1.098   0.938 -0.9470  0.3161  1.5224
   85TIP3    H2  262   1.652   1.238   0.986  0.5150  1.4119 -0.5587
   86TIP3   OH2  263   3.310   4.988   4.514 -0.2577 -0.4804  0.5998
   86TIP3    H1  264   3.230   5.001   4.463 -0.6342 -0.0836  1.2873
   86TIP3    H2  265   3.362   5.067   4.498  0.3124 -1.0281 -0.3846
   87TIP3   OH2  266   4.127   0.071   5.146 -0.2683  0.0326  0.2586
   87TIP3    H1  267   4.143   0.163   5.125  1.3387 -0.1387  0.6595
   87TIP3    H2  268   4.093   0.034   5.064 -0.9434  0.9616  0.0942
   88TIP3   OH2  269   4.827   2.959   4.492  0.4421 -1.4492  0.4284
   88TIP3    H1  270   4.777   2.877   4.500 -0.5048 -1.0558 -0.9817
   88TIP3    H2  271   4.790   3.015   4.560  0.0573 -1.7021  0.4362
   89TIP3   OH2  272   5.031   5.519   4.752 -0.0774 -0.6467  0.0349
   89TIP3    H1  273   5.038   5.609   4.783 -1.2175 -1.0937  1.7224
   89TIP3    H2  274   5.011   5.527   4.659 -0.6281  0.8455  0.2554
   90TIP3   OH2  275   2.513   0.324   3.883 -0.0763 -0.0941 -0.7433
   90TIP3    H1  276   2.487   0.403   3.835 -1.1177 -0.2694 -0.4912
   90TIP3    H2  277   2.459   0.326   3.962 -0.7749 -1.5405 -1.1688
   91TIP3   OH2  278   0.173   5.054   2.832 -0.2354  0.0575 -0.4292
   91TIP3    H1  279   0.214   5.135   2.862 -1.9800  1.0266 -0.5135
   91TIP3    H2  280   0.093   5.083   2.787  0.0348 -1.5990 -2.1296
   92TIP3   OH2  281   1.282   1.546   0.550  0.0791  0.1161  0.0731
   92TIP3    H1  282   1.361   1.492   0.541  0.5137  0.7833 -0.2535
   92TIP3    H2  283   1.302   1.625   0.500 -1.5495 -0.4920 -1.6578
   93TIP3   OH2  284   2.893   4.248   3.980  0.5819 -0.0293  0.1560
   93TIP3    H1  285   2.847   4.164   3.981  1.7411 -0.6889  0.6416
   93TIP3    H2  286   2.895   4.276   4.072  1.3545 -0.1430  0.1833
   94TIP3   OH2  287   0.228   0.110   1.463 -0.1260 -0.2767  0.1819
   94TIP3    H1  288   0.133   0.100   1.470 -0.0819 -0.9039 -0.0193
   94TIP3    H2  289   0.244   0.121   1.369  0.0401 -0.7246  0.1521
   95TIP3   OH2  290   2.572   2.122   4.492  0.1929  0.3031 -0.2058
   95TIP3    H1  291   2.645   2.180   4.514  0.3523  0.5053 -1.2318
   95TIP3    H2  292   2.607   2.063   4.425  0.2315 -1.4384  1.2482
   96TIP3   OH2  293   2.659   2.658   1.869 -0.3394 -0.4939  0.3729
   96TIP3    H1  294   2.754   2.667   1.863 -0.2395  0.0188  2.1397
   96TIP3    H2  295   2.642   2.647   1.962 -2.0551 -0.1566  0.1316
   97TIP3   OH2  296   1.915   0.071   3.578 -0.3548  0.2294 -0.2900
   97TIP3    H1  297   1.919   0.142   3.514 -0.6197  0.5043 -0.0018
   97TIP3    H2  298   2.006   0.057   3.603 -0.2584  0.1814 -0.6594
   98TIP3   OH2  299   1.338   5.280   0.882 -0.0567 -1.0367  0.1648
   98TIP3    H1  300   1.389   5.226   0.822 -0.3860 -0.0149 -1.0764
   98TIP3    H2  301   1.262   5.308   0.831  0.6996  1.5803  0.3186
   99TIP3   OH2  302   1.201   3.263   2.974 -0.0743  0.6072 -0.5057
   99TIP3    H1  303   1.253   3.198   3.021  0.2382  1.7299  0.8022
   99TIP3    H2  304   1.264   3.330   2.948 -0.7807  1.9308  0.9961
  100TIP3   OH2  305   0.064   5.135   5.009 -0.4716  0.4405 -0.2596
  100TIP3    H1  306  -0.016   5.099   5.046  0.9891 -2.5259  0.3203
  100TIP3    H2  307   0.105   5.182   5.081  0.4499 -1.9841  0.9167
  101TIP3   OH2  308   3.783   2.134   2.566  0.0650  0.2313  0.1007
  101TIP3    H1  309   3.865   2.092   2.592  0.4534  1.7074  1.4756
  101TIP3    H2  310   3.716   2.068   2.582  0.8346 -0.5246  0.3037
  102TIP3   OH2  311   5.094   0.960   1.474  0.4743  1.0538  0.0499
  102TIP3    H1  312   5.030   0.900   1.514  0.6457 -0.3800 -1.7061
  102TIP3    H2  313   5.179   0.930   1.507  0.4735  1.0131  0.0147
  103TIP3   OH2  314   1.952   5.037   2.072 -0.2590  0.7114 -0.4372
  103TIP3    H1  315   2.028   5.094   2.055 -2.0386  3.1311 -0.8510
  103TIP3    H2  316   1.984   4.949   2.056  2.1632  1.7238 -1.7250
  104TIP3   OH2  317   1.662   3.869   0.817 -0.6645  0.4420 -0.1999
  104TIP3    H1  318   1.682   3.848   0.909 -1.2890  0.8383  0.0316
  104TIP3    H2  319   1.614   3.793   0.785  0.5101 -0.1905 -0.5422
  105TIP3   OH2  320   4.323   4.219   0.794 -0.4076  0.0384 -0.5579
  105TIP3    H1  321   4.232   4.239   0.814 -1.3976 -2.8086 -1.6642
  105TIP3    H2  322   4.346   4.278   0.722 -1.0125  1.4939  0.4220
  106TIP3   OH2  323   1.914   1.098   4.245  0.0203 -0.3427  0.0970
  106TIP3    H1  324   1.872   1.123   4.162  0.2257  1.0255  0.3781
  106TIP3    H2  325   1.954   1.013   4.227  0.5353  0.1793 -1.3929
  107TIP3   OH2  326   3.512   1.824   2.855  0.1858  0.2852 -0.1431
  107TIP3    H1  327   3.469   1.758   2.799  1.7265 -1.4247  0.5910
  107TIP3    H2  328   3.440   1.864   2.904 -1.0769  1.0211 -2.4425
  108TIP3   OH2  329   0.261   5.220   3.966  0.3308  0.0754  0.3061
  108TIP3    H1  330   0.290   5.132   3.990 -2.1995 -0.9975 -0.2889
  108TIP3    H2  331   0.297   5.234   3.878  0.2281 -0.6521  0.1390
  109TIP3   OH2  332   4.508   0.496   0.213  0.3236  0.0240 -0.0031
  109TIP3    H1  333   4.533   0.506   0.121 -0.3348  2.2940  0.0144
  109TIP3    H2  334   4.554   0.566   0.258 -0.6644 -0.0281  1.1203
  110TIP3   OH2  335   4.907   3.522   0.514 -0.5411  0.2082 -0.1930
  110TIP3    H1  336   4.974   3.589   0.523 -0.5101  0.3184 -1.1536
  110TIP3    H2  337   4.919   3.465   0.590  2.2052 -1.1307 -1.4937
  111TIP3   OH2  338   0.498   5.455   0.211  0.5631  0.3802 -0.5838
  111TIP3    H1  339   0.567   5.471   0.147  0.4323 -2.1894 -1.4912
  111TIP3    H2  340   0.544   5.447   0.294  0.9632  1.8326 -0.6488
  112TIP3   OH2  341   1.918   1.485   3.795  0.3150  0.7162 -0.4832
  112TIP3    H1  342   2.003   1.520   3.767  1.0354  0.9930  1.8060
  112TIP3    H2  343   1.854   1.547   3.760  1.2175  1.6021 -0.6169
  113TIP3   OH2  344   1.067   1.129   2.237  0.2259 -0.5278 -0.4048
  113TIP3    H1  345   0.991   1.176   2.272  1.3369  0.3989  0.8713
  113TIP3    H2  346   1.048   1.117   2.144 -1.2576  0.1196 -0.2021
  114TIP3   OH2  347   2.429   5.738   2.130  0.3144 -0.1874  0.3917
  114TIP3    H1  348   2.343   5.700   2.109  0.0473  0.2434  0.7128
  114TIP3    H2  349   2.455   5.694   2.211  1.1140 -1.4719 -0.5238
  115TIP3   OH2  350   2.837   1.423   4.316  0.6494 -0.1553  0.3565
  115TIP3    H1  351   2.929   1.416   4.292  0.7495  1.1386  0.2654
  115TIP3    H2  352   2.790   1.382   4.244  1.1042  0.3358 -0.2240
  116TIP3   OH2  353   2.310   0.632   4.238 -0.1595  0.1255  0.0108
  116TIP3    H1  354   2.276   0.670   4.157 -1.9051 -2.2578 -0.5061
  116TIP3    H2  355   2.341   0.706   4.289 -0.2603  1.8358 -2.2612
  117TIP3   OH2  356   6.044   4.358   2.637 -0.4584  0.7910  0.0514
  117TIP3    H1  357   6.090   4.350   2.721  0.5710  1.2481 -0.4577
  117TIP3    H2  358   5.954   4.330   2.657 -0.3526  1.3134  1.4039
  118TIP3   OH2  359   2.571   1.098   4.237  0.3569  1.0875 -0.4739
  118TIP3    H1  360   2.643   1.111   4.175  0.7247 -1.1117 -0.5879
  118TIP3    H2  361   2.517   1.030   4.197 -1.5054  2.2898 -0.1084
  119TIP3   OH2  362   0.460   4.022   2.220 -0.3989 -0.0861 -0.4437
  119TIP3    H1  363   0.553   4.001   2.233 -0.2094 -0.3170 -1.9728
  119TIP3    H2  364   0.456   4.117   2.228  0.1244  0.0068 -1.1965
  120TIP3   OH2  365   3.800   5.473   2.941  0.0493 -0.1297 -0.0256
  120TIP3    H1  366   3.799   5.384   2.908 -0.7625 -0.3042  0.4458
  120TIP3    H2  367   3.893   5.491   2.959  0.1356 -1.1637  0.6463
  121TIP3   OH2  368   1.985   1.502   3.179  0.2087 -0.3070  0.8057
  121TIP3    H1  369   1.927   1.524   3.107 -1.2332 -1.7076  1.4809
  121TIP3    H2  370   1.959   1.560   3.250  3.1116  2.7044 -0.2915
  122TIP3   OH2  371   5.131   3.987   0.767 -0.1969  0.0377 -0.0185
  122TIP3    H1  372   5.111   4.037   0.846  1.3256 -0.3325  0.6371
  122TIP3    H2  373   5.092   4.038   0.696 -0.1584  1.2508  0.7998
  123TIP3   OH2  374   5.323   0.128   4.979 -0.6725  0.0017  0.0885
  123TIP3    H1  375   5.241   0.163   4.944 -1.7187 -1.5457  0.8779
  123TIP3    H2  376   5.350   0.063   4.914 -1.6364 -1.5491  1.1859
  124TIP3   OH2  377   2.268   4.786   2.259  0.5552  0.5845 -0.0900
  124TIP3    H1  378   2.256   4.742   2.343  0.7041 -0.0305 -0.3820
  124TIP3    H2  379   2.343   4.741   2.219  0.4426  0.8242 -0.5770
  125TIP3   OH2  380   3.166   3.956   0.466 -0.2915  0.1327  0.4717
  125TIP3    H1  381   3.166   4.006   0.384  3.6593  0.2703  0.3835
  125TIP3    H2  382   3.126   3.872   0.442  1.1193  0.0117 -1.7728
  126TIP3   OH2  383   4.241   4.734   2.663 -0.1022  0.0115  0.0936
  126TIP3    H1  384   4.271   4.762   2.576  0.9435  0.0603  0.4643
  126TIP3    H2  385   4.294   4.784   2.724 -0.3001 -0.5868  0.7640
  127TIP3   OH2  386   5.861   1.044   4.905  0.1208  0.1604 -0.4822
  127TIP3    H1  387   5.808   1.061   4.827 -0.6752  0.8440  0.1847
  127TIP3    H2  388   5.825   0.962   4.941 -0.0654  0.2830 -0.3854
  128TIP3   OH2  389   1.638   0.251   2.742  0.2826 -0.1509 -0.3301
  128TIP3    H1  390   1.710   0.216   2.691  0.1692  1.2241 -1.4955
  128TIP3    H2  391   1.561   0.241   2.686 -0.0318  0.4397 -0.0143
  129TIP3   OH2  392   2.926   2.069   1.504 -0.3194  0.0489  0.6230
  129TIP3    H1  393   3.016   2.063   1.536  0.1246  1.4379 -0.2490
  129TIP3    H2  394   2.899   1.979   1.491  0.4586 -0.4449  2.1759
  130TIP3   OH2  395   4.767   2.573   3.543 -0.9563 -0.2985  0.2008
  130TIP3    H1  396   4.714   2.652   3.546 -0.4512  0.0129  1.2737
  130TIP3    H2  397   4.779   2.556   3.450 -0.8280  1.0450 -0.0378
  131TIP3   OH2  398   4.597   4.669   2.454  0.0055 -0.1003 -0.8404
  131TIP3    H1  399   4.588   4.756   2.416 -1.2917  0.3741  0.4767
  131TIP3    H2  400   4.525   4.619   2.415  0.4354 -0.4544 -1.1970
  132TIP3   OH2  401   3.322   0.791   1.362 -0.3839 -0.0596 -0.5435
  132TIP3    H1  402   3.305   0.809   1.269  0.6207  1.2515 -0.4949
  132TIP3    H2  403   3.265   0.851   1.409 -1.5089 -1.2979 -0.2663
  133TIP3   OH2  404   5.699   3.152   2.164 -0.2913 -0.1595  0.2645
  133TIP3    H1  405   5.672   3.172   2.253 -0.3994 -1.7144  0.6082
  133TIP3    H2  406   5.727   3.061   2.167 -0.1460 -0.1969 -1.2552
  134TIP3   OH2  407   6.312   2.701   1.728  0.1243 -0.4957  0.0364
  134TIP3    H1  408   6.229   2.715   1.683  0.3306 -1.6830 -0.7454
  134TIP3    H2  409   6.287   2.682   1.819 -0.3267  1.1539  0.2984
  135TIP3   OH2  410   3.275   1.518   3.765 -0.2086  0.4392  0.5355
  135TIP3    H1  411   3.342   1.584   3.784 -1.4595  1.9130  0.0599
  135TIP3    H2  412   3.242   1.544   3.679  1.7817 -3.0080 -1.5002
  136TIP3   OH2  413   5.027   5.840   2.036  0.5154 -0.1745  0.1667
  136TIP3    H1  414   5.115   5.877   2.043  0.6978 -0.5752  0.0765
  136TIP3    H2  415   4.973   5.910   2.001  1.0746 -0.3141 -1.0342
  137TIP3   OH2  416   1.206   3.578   0.149 -0.3232 -0.2018  0.3105
  137TIP3    H1  417   1.130   3.623   0.186 -1.0115 -0.7690 -0.3898
  137TIP3    H2  418   1.187   3.571   0.055  0.1561 -1.2026  0.2754
  138TIP3   OH2  419   0.605   1.582   1.722 -0.3134 -0.2044  0.3349
  138TIP3    H1  420   0.596   1.517   1.791 -0.0307 -0.6857 -0.0683
  138TIP3    H2  421   0.670   1.544   1.662  0.3105  0.7233  0.4075
  139TIP3   OH2  422   5.946   0.834   2.562  0.3212 -0.3013 -0.0941
  139TIP3    H1  423   5.882   0.772   2.529  1.1114 -1.2624  0.1151
  139TIP3    H2  424   5.897   0.890   2.622 -0.4203 -0.6859 -0.3259
  140TIP3   OH2  425   1.779   5.426   3.644  0.0971  0.1154 -0.7030
  140TIP3    H1  426   1.806   5.480   3.569  1.8136  2.4145  1.3773
  140TIP3    H2  427   1.846   5.358   3.650 -0.0246 -0.0546 -1.2034
  141TIP3   OH2  428   3.330   1.069   0.882  0.1402 -0.7114  0.3187
  141TIP3    H1  429   3.341   1.003   0.814  1.1049 -2.1998  1.8205
  141TIP3    H2  430   3.239   1.059   0.910 -0.2900 -0.0224 -0.7850
  142TIP3   OH2  431   0.214   2.399   3.813  0.2966  0.1539  0.1476
  142TIP3    H1  432   0.297   2.427   3.774  0.0081  1.7971  0.6160
  142TIP3    H2  433   0.207   2.451   3.893 -1.0582 -0.1655  0.2630
  143TIP3   OH2  434   0.686   5.029   1.443  0.3198  0.1919  0.1859
  143TIP3    H1  435   0.724   5.099   1.391  0.1893 -0.6925 -1.1429
  143TIP3    H2  436   0.592   5.043   1.439  0.2089 -0.7698 -1.1784
  144TIP3   OH2  437   5.620   4.525   1.360 -0.2007  0.2679  0.0840
  144TIP3    H1  438   5.630   4.509   1.454 -1.0718  2.3104  0.5864
  144TIP3    H2  439   5.696   4.577   1.336 -0.1100 -0.0354 -0.3000
  145TIP3   OH2  440   2.576   1.528   3.384  0.1194  0.1948 -0.1971
  145TIP3    H1  441   2.667   1.531   3.354 -0.1157  0.9026 -0.8727
  145TIP3    H2  442   2.558   1.617   3.414 -1.2167  0.8895 -2.7742
  146TIP3   OH2  443   0.889   5.081   3.853  0.3624 -0.1678  0.0283
  146TIP3    H1  444   0.979   5.094   3.882  0.8914  0.6587 -1.8238
  146TIP3    H2  445   0.838   5.148   3.898  0.8990  0.1801  0.1197
  147TIP3   OH2  446   1.278   5.292   2.504 -0.1949  0.0451  0.3197
  147TIP3    H1  447   1.328   5.214   2.529  0.2345  0.4143  0.6147
  147TIP3    H2  448   1.253   5.333   2.586 -0.9035 -0.0725  0.1754
  148TIP3   OH2  449   3.977   4.524   3.036 -0.2797 -0.4492 -0.2248
  148TIP3    H1  450   3.930   4.455   3.084 -2.6775  2.1644  1.5254
  148TIP3    H2  451   4.045   4.553   3.097  0.1694 -0.6803 -0.6114
  149TIP3   OH2  452   1.902   0.156   2.644 -0.8012 -0.1806  0.7888
  149TIP3    H1  453   1.917   0.065   2.671  0.1825 -0.3600 -0.2590
  149TIP3    H2  454   1.985   0.200   2.663  0.5492 -0.6617 -3.1034
  150TIP3   OH2  455   5.385   1.438   1.290  0.2271  0.0823 -0.4169
  150TIP3    H1  456   5.478   1.459   1.284 -0.2635  2.4693 -0.7570
  150TIP3    H2  457   5.360   1.418   1.200  0.3218 -0.0612 -0.4108
  151TIP3   OH2  458   4.221   1.979   2.078 -0.0603 -0.4987  0.0607
  151TIP3    H1  459   4.217   2.058   2.024  2.1992  1.1485  2.0705
  151TIP3    H2  460   4.259   1.913   2.021 -2.0911 -0.2549 -1.7030
  152TIP3   OH2  461   5.123   3.500   2.160  0.1740 -0.1794  0.3280
  152TIP3    H1  462   5.037   3.516   2.200  1.1624  0.4960  2.3316
  152TIP3    H2  463   5.136   3.406   2.168  0.3563 -0.0651  1.7463
  153TIP3   OH2  464   1.550   4.871   4.557 -0.0233 -0.5229  0.5395
  153TIP3    H1  465   1.607   4.822   4.497  0.1518 -0.6169  0.7798
  153TIP3    H2  466   1.484   4.808   4.584  0.6017 -0.8335  1.3864
  154TIP3   OH2  467   0.770   0.875   1.842  0.4576  0.4499 -0.1939
  154TIP3    H1  468   0.828   0.813   1.798  0.9251 -0.4362  1.5554
  154TIP3    H2  469   0.777   0.852   1.935 -1.1288  1.6703  0.2712
  155TIP3   OH2  470   2.124   0.344   4.193  0.6444 -0.1858 -0.0695
  155TIP3    H1  471   2.131   0.381   4.281  0.0507  0.3147 -0.2281
  155TIP3    H2  472   2.215   0.333   4.165  0.8902  2.3277 -0.4967
  156TIP3   OH2  473   2.112  -0.007   1.176 -0.1262  0.0030  0.0360
  156TIP3    H1  474   2.087  -0.033   1.265 -2.9878 -0.5509 -0.8116
  156TIP3    H2  475   2.124   0.088   1.180  0.5402 -0.1165  1.1434
  157TIP3   OH2  476   2.088   3.456   0.209 -0.1100  0.5434 -0.8164
  157TIP3    H1  477   1.998   3.449   0.179 -0.5378  0.7690  0.3668
  157TIP3    H2  478   2.134   3.500   0.137 -0.9950  0.6720 -1.3171
  158TIP3   OH2  479   5.617   4.374   1.630 -0.2132  0.4322 -0.1078
  158TIP3    H1  480   5.706   4.409   1.641 -1.0779  2.2646  1.6943
  158TIP3    H2  481   5.571   4.400   1.710 -2.2313 -0.9847 -0.7353
  159TIP3   OH2  482   3.671   2.620   2.831  0.3902 -0.5162  0.1627
  159TIP3    H1  483   3.637   2.532   2.847 -0.6373 -0.2332 -0.3853
  159TIP3    H2  484   3.688   2.622   2.736  0.9520 -0.3119  0.2665
  160TIP3   OH2  485   1.722   5.052   4.670 -0.1660  0.4966 -0.2863
  160TIP3    H1  486   1.659   4.980   4.670 -0.4461  0.7328 -1.0754
  160TIP3    H2  487   1.734   5.074   4.577  1.0167  0.5050 -0.1555
  161TIP3   OH2  488   3.926   4.308   2.427 -0.1178 -0.2377 -0.4300
  161TIP3    H1  489   3.987   4.239   2.449  1.7184  0.8216 -1.9190
  161TIP3    H2  490   3.841   4.275   2.456  0.7152 -2.9541 -0.7986
  162TIP3   OH2  491   3.588   0.137   0.229  0.1135 -0.1495  0.4312
  162TIP3    H1  492   3.608   0.164   0.139 -2.1486 -0.7858 -0.3257
  162TIP3    H2  493   3.616   0.211   0.283  1.8738  0.0907 -0.7169
  163TIP3   OH2  494   4.103   0.199   4.637 -0.6101  0.0189 -0.2764
  163TIP3    H1  495   4.028   0.213   4.579 -0.1807 -2.0692 -1.4540
  163TIP3    H2  496   4.077   0.126   4.693 -0.1934  0.5958  0.6843
  164TIP3   OH2  497   4.392   1.254   2.875  0.2888 -0.0698 -0.4524
  164TIP3    H1  498   4.318   1.266   2.935  1.0504  1.8348  0.1620
  164TIP3    H2  499   4.353   1.212   2.798 -0.7786 -2.2510  1.1631
  165TIP3   OH2  500   2.039   5.405   0.149  0.1552 -0.3138  0.8261
  165TIP3    H1  501   2.024   5.423   0.056  2.8598 -1.5689  0.0744
  165TIP3    H2  502   2.008   5.315   0.161 -0.1673 -0.1612  1.1676
  166TIP3   OH2  503   1.596   3.610   4.639  0.2346  0.0549 -0.2787
  166TIP3    H1  504   1.609   3.671   4.711  0.6096  0.3241 -0.5679
  166TIP3    H2  505   1.670   3.549   4.645 -0.5070 -0.8011  0.4234
  167TIP3   OH2  506   3.939   2.329   0.664 -0.2978  0.0719 -0.4551
  167TIP3    H1  507   3.885   2.367   0.594 -1.6358  1.3138  1.1859
  167TIP3    H2  508   3.878   2.274   0.714  0.6521 -0.8273 -0.2561
  168TIP3   OH2  509   4.084   0.519   2.362  0.0931 -0.1006  0.4906
  168TIP3    H1  510   4.055   0.445   2.308  0.6670  0.9055 -1.2675
  168TIP3    H2  511   4.179   0.522   2.351  0.1294  0.6071  0.9321
  169TIP3   OH2  512   3.448   0.450   2.210 -0.8480 -0.1808 -0.3733
  169TIP3    H1  513   3.355   0.471   2.218 -0.9555 -0.9910  0.7479
  169TIP3    H2  514   3.494   0.529   2.237 -1.2306 -0.2763  0.5945
  170TIP3   OH2  515   2.602   1.917   2.284  0.3744 -0.5724  0.3075
  170TIP3    H1  516   2.641   1.955   2.205 -2.6588  0.4340 -0.8672
  170TIP3    H2  517   2.596   1.990   2.345  1.2769 -0.9766  0.8884
  171TIP3   OH2  518   3.850   5.526   4.267 -0.0094  0.0059 -0.1697
  171TIP3    H1  519   3.945   5.526   4.279  0.2075 -0.0743 -1.6337
  171TIP3    H2  520   3.826   5.619   4.262 -0.4125  0.1284  2.6883
  172TIP3   OH2  521   4.580   3.789   3.774  0.1397  1.0524  0.3716
  172TIP3    H1  522   4.526   3.709   3.776  0.7067  0.6415 -0.2942
  172TIP3    H2  523   4.599   3.802   3.681  1.7210  0.8186  0.6356
  173TIP3   OH2  524   1.094   5.936   4.546 -0.2570 -0.1140 -0.2652
  173TIP3    H1  525   1.106   5.860   4.602  1.9840  0.1211 -0.3311
  173TIP3    H2  526   1.080   6.009   4.606 -0.3464 -0.2443 -0.1267
  174TIP3   OH2  527   4.128   5.586   3.941  0.2119  0.3874 -0.2102
  174TIP3    H1  528   4.154   5.627   3.859 -1.2663  2.8597  0.4690
  174TIP3    H2  529   4.037   5.559   3.928 -0.0729  0.9033  0.6322
  175TIP3   OH2  530   6.221   0.390   3.971 -0.0497 -0.2737  0.1463
  175TIP3    H1  531   6.296   0.408   4.028 -1.0603 -0.5937  1.6493
  175TIP3    H2  532   6.260   0.373   3.885  1.4935  0.8523  0.5644
  176TIP3   OH2  533   3.866   2.740   1.495  0.5899  0.3631  0.3193
  176TIP3    H1  534   3.930   2.765   1.428  2.6909 -1.6251  1.4188
  176TIP3    H2  535   3.782   2.741   1.449  2.0418 -2.1977 -2.8604
  177TIP3   OH2  536   2.610   2.588   2.998 -0.3944  0.0527 -0.1189
  177TIP3    H1  537   2.584   2.675   3.028  2.9847  1.5814 -1.1173
  177TIP3    H2  538   2.705   2.585   3.012 -0.2511 -3.1694 -0.9579
  178TIP3   OH2  539   3.008   0.962   4.006  0.4847  0.3071  0.2229
  178TIP3    H1  540   2.980   0.897   3.942  4.1777  0.2723 -1.6508
  178TIP3    H2  541   3.025   0.911   4.086 -0.5711 -0.2848  0.0878
  179TIP3   OH2  542   6.214   0.998   4.683  0.0681 -0.1467 -0.3400
  179TIP3    H1  543   6.164   0.928   4.725  0.4138 -0.8540 -1.0864
  179TIP3    H2  544   6.177   1.004   4.595  0.4475  0.1908 -0.4761
  180TIP3   OH2  545   1.160   2.709   3.340 -0.1967 -0.5398 -0.3853
  180TIP3    H1  546   1.124   2.742   3.258  1.0528  0.0743 -0.7089
  180TIP3    H2  547   1.095   2.732   3.406 -0.1754  1.0114 -0.8714
  181TIP3   OH2  548   6.127   1.892   0.616  0.7701  0.2095 -0.7148
  181TIP3    H1  549   6.202   1.943   0.646 -0.4892  1.7723 -0.0480
  181TIP3    H2  550   6.112   1.921   0.526 -0.7288  2.1441  0.0598
  182TIP3   OH2  551   3.146   4.545   2.330 -0.2443  0.3809  0.2569
  182TIP3    H1  552   3.238   4.518   2.329 -0.5432 -0.7772  1.3407
  182TIP3    H2  553   3.098   4.468   2.298 -0.9111  0.6480  0.5918
  183TIP3   OH2  554   0.638   3.273   0.071 -0.4723  0.3059 -0.1883
  183TIP3    H1  555   0.700   3.250   0.140 -0.1552  2.1291  0.1985
  183TIP3    H2  556   0.640   3.199   0.010 -0.9436 -1.4704  1.8503
  184TIP3   OH2  557   1.510   3.105   1.381 -0.7419  0.0520 -0.3419
  184TIP3    H1  558   1.500   3.200   1.372  0.1996  0.1684 -0.2672
  184TIP3    H2  559   1.435   3.068   1.334 -2.2085  0.8552  1.2612
  185TIP3   OH2  560   3.414   3.193   4.494 -0.0698  0.5874 -0.0344
  185TIP3    H1  561   3.408   3.112   4.443  1.6001  0.6329 -0.3669
  185TIP3    H2  562   3.331   3.238   4.478 -0.2723 -0.1932 -1.3598
  186TIP3   OH2  563   2.988   2.921   2.944 -0.0650 -0.3369 -0.1602
  186TIP3    H1  564   3.001   2.981   2.871 -1.1634  1.5124  1.0738
  186TIP3    H2  565   2.996   2.833   2.906 -0.2051  0.5721 -2.3856
  187TIP3   OH2  566   5.384   1.739   0.284 -0.1657  0.3615 -0.5112
  187TIP3    H1  567   5.323   1.744   0.210 -0.7537  0.3966 -0.0318
  187TIP3    H2  568   5.327   1.737   0.361  0.3747 -1.6083 -0.1267
  188TIP3   OH2  569   6.181   2.079   2.665 -0.0155 -0.5511 -0.8453
  188TIP3    H1  570   6.260   2.084   2.611  0.4106 -0.6246 -0.2312
  188TIP3    H2  571   6.132   2.158   2.641  0.8596  0.1937 -0.2740
  189TIP3   OH2  572   3.006   1.775   0.493  0.2168 -0.2105  0.4279
  189TIP3    H1  573   3.001   1.680   0.479  0.3534 -0.3227  1.1081
  189TIP3    H2  574   2.919   1.807   0.472  0.8196 -0.1175 -2.3335
  190TIP3   OH2  575   3.881   2.855   4.587  0.0456  0.5680 -0.1647
  190TIP3    H1  576   3.836   2.920   4.533 -0.1410  1.3898  0.9420
  190TIP3    H2  577   3.925   2.907   4.655  1.7681 -0.2984 -0.5745
  191TIP3   OH2  578   3.470   5.453   0.201  0.3807  0.0793  0.1058
  191TIP3    H1  579   3.544   5.414   0.155  0.5604  1.5169 -0.9111
  191TIP3    H2  580   3.484   5.430   0.293  1.1702 -1.0676 -0.2780
  192TIP3   OH2  581   0.369   0.727   2.811  0.2789  0.0746 -0.2144
  192TIP3    H1  582   0.375   0.642   2.853  2.2935 -0.0563 -0.6984
  192TIP3    H2  583   0.276   0.751   2.819  0.0295 -1.3014  1.5550
  193TIP3   OH2  584   2.880   4.505   1.484 -0.2621  0.0876  0.4136
  193TIP3    H1  585   2.922   4.520   1.399 -0.7193 -1.1504 -0.0481
  193TIP3    H2  586   2.804   4.564   1.483 -0.5763 -0.3083 -0.2765
  194TIP3   OH2  587   5.306   0.846   1.592  0.1184  0.0781 -0.0796
  194TIP3    H1  588   5.334   0.778   1.530 -2.2720 -0.6124 -0.4968
  194TIP3    H2  589   5.387   0.873   1.636  1.4149 -1.6670 -1.2495
  195TIP3   OH2  590   1.760   4.031   2.350  0.3719  0.4326  0.1079
  195TIP3    H1  591   1.739   4.063   2.438  0.5406  1.3997 -0.1849
  195TIP3    H2  592   1.853   4.006   2.356  0.4692  0.7859  0.1344
  196TIP3   OH2  593   5.883   1.953   4.092  0.1310  0.3683  0.5765
  196TIP3    H1  594   5.817   1.971   4.158  0.2172 -0.2411  0.8391
  196TIP3    H2  595   5.946   1.895   4.136 -1.3233 -2.5040 -0.8192
  197TIP3   OH2  596   3.288   5.495   2.172  0.3678  0.1209  0.1125
  197TIP3    H1  597   3.294   5.531   2.084  0.9732  2.0193  0.8719
  197TIP3    H2  598   3.378   5.492   2.203  0.4364 -2.7879 -0.1164
  198TIP3   OH2  599   4.628   1.810   1.131  0.0612  0.6349  0.2625
  198TIP3    H1  600   4.631   1.875   1.200 -1.4015  0.1734  0.7969
  198TIP3    H2  601   4.628   1.860   1.049  0.1805  1.2417  0.6347
  199TIP3   OH2  602   0.889   4.300   1.285 -0.2211 -0.3075 -0.1854
  199TIP3    H1  603   0.813   4.254   1.248 -0.3508  0.7588 -1.3381
  199TIP3    H2  604   0.851   4.378   1.327  0.1462 -0.3140  0.1572
  200TIP3   OH2  605   5.939   3.710   1.719 -0.5132 -0.4250  0.0550
  200TIP3    H1  606   5.867   3.660   1.757  0.5823 -0.2084  2.6516
  200TIP3    H2  607   5.921   3.800   1.745 -0.9487  0.1656 -2.1019
  201TIP3   OH2  608   0.441   1.832   4.840 -0.2206  0.1631  0.2793
  201TIP3    H1  609   0.501   1.907   4.830 -1.0406  1.0529  1.6210
  201TIP3    H2  610   0.455   1.803   4.930 -2.8552  1.4014  1.1929
  202TIP3   OH2  611   3.110   0.230   3.536 -0.0434  0.4899  0.0925
  202TIP3    H1  612   3.127   0.137   3.521  1.8410  0.5586  1.3991
  202TIP3    H2  613   3.056   0.233   3.614  1.0038  0.5019  0.8350
  203TIP3   OH2  614   5.403   2.151   4.923 -0.0139 -0.2475 -0.0550
  203TIP3    H1  615   5.351   2.088   4.974  0.7291 -1.1650 -0.4011
  203TIP3    H2  616   5.372   2.236   4.952 -0.0313 -0.7494  1.4974
  204TIP3   OH2  617   5.238   3.027   0.514  0.5193  0.0473  0.1631
  204TIP3    H1  618   5.199   2.945   0.544 -0.4831  0.5986  0.3969
  204TIP3    H2  619   5.266   3.008   0.424 -1.4825 -0.0027 -0.4931
  205TIP3   OH2  620   5.732   0.904   3.242  0.4944  0.1404  0.5345
  205TIP3    H1  621   5.705   0.865   3.325  2.0172 -1.5325  0.3065
  205TIP3    H2  622   5.734   0.998   3.259 -2.5079  0.1648  1.3637
  206TIP3   OH2  623   4.053   2.148   1.542 -0.1461  0.3785 -0.0708
  206TIP3    H1  624   4.018   2.161   1.454  0.3837  0.4046 -0.2831
  206TIP3    H2  625   4.086   2.058   1.542 -0.4529  0.2659  0.2106
  207TIP3   OH2  626   0.113   0.305   4.343 -0.5317  0.3873  0.1308
  207TIP3    H1  627   0.031   0.350   4.361 -0.7744 -0.7463  2.1335
  207TIP3    H2  628   0.153   0.294   4.429  0.1540 -1.9995 -0.4354
  208TIP3   OH2  629   6.299   4.825   4.786  0.1800  0.2590  0.3354
  208TIP3    H1  630   6.367   4.885   4.818  1.1465 -0.9925  0.6742
  208TIP3    H2  631   6.324   4.806   4.696 -0.8445  1.3369 -0.2129
  209TIP3   OH2  632   2.988   0.863   3.524  0.3210 -0.1872 -0.5860
  209TIP3    H1  633   2.935   0.934   3.560 -1.1430 -1.8672  0.7364
  209TIP3    H2  634   3.030   0.902   3.447 -1.3267  1.7817 -0.5955
  210TIP3   OH2  635   5.462   1.446   3.814 -0.0022 -0.2230 -0.2546
  210TIP3    H1  636   5.510   1.434   3.896 -0.2596  0.4908  0.0075
  210TIP3    H2  637   5.439   1.539   3.813 -0.0459 -0.2387 -1.1142
  211TIP3   OH2  638   0.794   3.302   0.304 -0.3905 -0.0857  0.3087
  211TIP3    H1  639   0.811   3.211   0.280 -0.0187  0.1990 -0.5436
  211TIP3    H2  640   0.860   3.323   0.370 -2.0189 -1.1753  2.4051
  212TIP3   OH2  641   1.279   3.717   3.616 -0.0685  0.5201 -0.1430
  212TIP3    H1  642   1.315   3.730   3.528 -0.9801  2.7919 -0.2309
  212TIP3    H2  643   1.193   3.677   3.601  1.1409 -2.4015 -0.0417
  213TIP3   OH2  644   4.258   0.706   0.958  0.4956  0.5806  0.6788
  213TIP3    H1  645   4.175   0.676   0.923  1.1584 -0.6824  0.1485
  213TIP3    H2  646   4.259   0.800   0.938 -1.5686  1.0173  2.3039
  214TIP3   OH2  647   2.830   2.106   0.982  0.3899 -0.0212  0.2290
  214TIP3    H1  648   2.751   2.140   1.023  1.0730 -0.2373  1.7953
  214TIP3    H2  649   2.839   2.017   1.017  0.1768 -0.8162 -1.6071
  215TIP3   OH2  650   3.094   3.214   2.315  0.0182 -0.3096  0.7821
  215TIP3    H1  651   3.142   3.175   2.388  0.0220 -0.1812  0.8494
  215TIP3    H2  652   3.080   3.142   2.253 -0.7156 -0.6105  1.2846
  216TIP3   OH2  653   4.863   1.473   0.882 -0.4652 -0.3829  0.1254
  216TIP3    H1  654   4.787   1.502   0.932 -0.3544 -1.1875  0.7772
  216TIP3    H2  655   4.877   1.383   0.909  1.4679  0.1143  0.9341
  217TIP3   OH2  656   1.925   2.023   0.279 -0.6426 -0.3162 -0.3053
  217TIP3    H1  657   1.860   1.970   0.324  1.6969 -2.5915  0.6617
  217TIP3    H2  658   1.942   2.097   0.337  0.1812 -1.6374  1.2019
  218TIP3   OH2  659   5.028   4.878   0.874 -0.0196  0.2725  0.0310
  218TIP3    H1  660   5.098   4.841   0.928 -0.0705  0.7153  0.4060
  218TIP3    H2  661   5.008   4.962   0.915 -0.0441  0.6278 -0.6953
  219TIP3   OH2  662   6.122   1.600   0.684 -0.1536  0.0763  0.7811
  219TIP3    H1  663   6.107   1.689   0.652 -1.1084 -0.3593 -0.0369
  219TIP3    H2  664   6.037   1.557   0.677  0.7438 -1.5688 -1.0586
  220TIP3   OH2  665   1.862   1.830   3.755  0.4029 -0.4224 -0.4180
  220TIP3    H1  666   1.954   1.803   3.764  0.7917  0.9118 -0.1621
  220TIP3    H2  667   1.848   1.893   3.826  0.6737  2.9268 -3.0323
  221TIP3   OH2  668   5.418   5.393   2.883  0.0993 -0.6404 -0.2505
  221TIP3    H1  669   5.390   5.440   2.805  1.5265 -1.7327 -1.4886
  221TIP3    H2  670   5.426   5.302   2.855  0.9734 -1.0025  1.0678
  222TIP3   OH2  671   2.639   4.272   2.842 -0.1003  0.0390 -0.2875
  222TIP3    H1  672   2.685   4.262   2.759 -0.1160 -0.2122 -0.2659
  222TIP3    H2  673   2.707   4.259   2.909 -0.2226 -0.4485 -0.2543
  223TIP3   OH2  674   5.637   1.648   2.959  0.6664 -0.1341  0.4330
  223TIP3    H1  675   5.660   1.655   2.866  1.6939 -0.2662  0.6688
  223TIP3    H2  676   5.617   1.555   2.971  0.1832 -0.0579  0.2809
  224TIP3   OH2  677   5.449   0.083   0.331  0.1339 -0.7140 -0.4488
  224TIP3    H1  678   5.527   0.038   0.366 -0.9921 -2.0086  0.4830
  224TIP3    H2  679   5.485   0.144   0.266  2.0805 -0.1117  1.0791
  225TIP3   OH2  680   2.167   5.008   3.174  0.3288  0.3180  0.9408
  225TIP3    H1  681   2.147   4.944   3.106 -0.4123  0.7556  0.7288
  225TIP3    H2  682   2.229   4.964   3.232  0.2630 -0.3829  0.4861
  226TIP3   OH2  683   5.390   0.802   2.866  0.8175 -0.3509  0.0927
  226TIP3    H1  684   5.398   0.757   2.949 -1.2089 -1.9393 -0.4853
  226TIP3    H2  685   5.350   0.886   2.888  1.8583 -0.0467  0.8737
  227TIP3   OH2  686   1.459   4.925   3.682 -0.4091  0.0281 -0.3423
  227TIP3    H1  687   1.540   4.969   3.709  0.6280 -1.1889 -1.3767
  227TIP3    H2  688   1.421   4.984   3.617  1.5256 -0.9992 -2.5237
  228TIP3   OH2  689   0.947   0.761   2.509  0.1507 -0.8019 -0.6951
  228TIP3    H1  690   1.015   0.736   2.572 -0.2721 -1.7612 -0.6033
  228TIP3    H2  691   0.996   0.791   2.432  0.6738 -0.8226 -0.3771
  229TIP3   OH2  692   3.494   4.976   3.160 -0.3523 -0.2329  0.0012
  229TIP3    H1  693   3.430   5.031   3.114  0.4841  0.8361  0.0919
  229TIP3    H2  694   3.444   4.938   3.233 -0.9911  0.2592 -0.1671
  230TIP3   OH2  695   4.030   2.102   4.692  0.2085  0.2483  0.6110
  230TIP3    H1  696   4.119   2.113   4.661  0.2753 -1.4126  0.1559
  230TIP3    H2  697   3.998   2.023   4.649 -0.3535 -1.0749  3.2594
  231TIP3   OH2  698   1.012   3.066   1.497 -0.0296 -0.0311  0.2352
  231TIP3    H1  699   0.977   2.977   1.505  1.2271 -0.4778  1.0475
  231TIP3    H2  700   1.107   3.055   1.497  0.1759  1.3794  1.3390
  232TIP3   OH2  701   1.291   1.062   0.618 -0.2575  0.5546  0.1040
  232TIP3    H1  702   1.241   1.064   0.700 -0.5587  1.5187 -0.0954
  232TIP3    H2  703   1.331   1.148   0.612  0.4963  0.1810 -0.3238
  233TIP3   OH2  704   1.166   1.331   0.354 -0.4693  0.1958 -0.0343
  233TIP3    H1  705   1.118   1.403   0.313 -2.7519 -0.2135  1.6921
  233TIP3    H2  706   1.212   1.371   0.427 -1.1729  0.0352  0.5053
  234TIP3   OH2  707   2.224   3.292   2.443 -0.2460  0.5590  0.5662
  234TIP3    H1  708   2.171   3.213   2.454  1.1998 -0.7928 -1.4460
  234TIP3    H2  709   2.297   3.279   2.503 -0.1940  0.5358  0.4978
  235TIP3   OH2  710   1.459   3.721   2.205  0.1275  0.1515 -0.5043
  235TIP3    H1  711   1.441   3.682   2.119 -0.5195  0.1206 -0.3628
  235TIP3    H2  712   1.473   3.814   2.186 -0.0632  0.1542 -0.6379
  236TIP3   OH2  713   5.454   0.699   4.776  1.2303 -0.4466 -0.3610
  236TIP3    H1  714   5.454   0.665   4.687  0.6269 -0.1537 -0.4828
  236TIP3    H2  715   5.484   0.790   4.768 -1.2387  0.4343 -0.6553
  237TIP3   OH2  716   1.561   3.384   1.721  0.4248 -0.0975  0.1563
  237TIP3    H1  717   1.628   3.391   1.789  1.1639 -1.1981 -0.4358
  237TIP3    H2  718   1.602   3.423   1.643  0.5316 -1.1124 -0.3058
  238TIP3   OH2  719   4.219   3.957   1.270 -0.1307  0.1894  0.1760
  238TIP3    H1  720   4.300   3.918   1.238  0.4788  0.2377  1.5880
  238TIP3    H2  721   4.241   4.049   1.284 -0.2839  0.1126  0.9771
  239TIP3   OH2  722   2.607   3.694   2.054  0.0802  0.3708  0.1068
  239TIP3    H1  723   2.621   3.725   1.964  0.5645  3.5939  1.1672
  239TIP3    H2  724   2.518   3.660   2.054  0.2857 -0.3046 -1.6993
  240TIP3   OH2  725   5.536   3.467   1.352 -0.6074 -0.4228 -0.1466
  240TIP3    H1  726   5.512   3.540   1.408  2.2622  0.3721  0.2037
  240TIP3    H2  727   5.484   3.479   1.273 -0.0194  2.1484 -0.2017
  241TIP3   OH2  728   4.367   5.280   2.345  0.3891  0.4225  0.6175
  241TIP3    H1  729   4.435   5.319   2.401  1.0222 -0.7021  0.6682
  241TIP3    H2  730   4.285   5.311   2.383  0.8446  0.9736  1.1927
  242TIP3   OH2  731   0.128   5.402   3.089  0.2487  0.1771  0.2170
  242TIP3    H1  732   0.201   5.463   3.079 -0.2741  0.8373  0.3501
  242TIP3    H2  733   0.153   5.347   3.164 -0.0171  1.3292  1.1886
  243TIP3   OH2  734   5.939   0.045   4.326  0.5010  0.2326 -0.3250
  243TIP3    H1  735   5.962   0.031   4.418  0.5051 -2.7940 -0.6861
  243TIP3    H2  736   6.015   0.091   4.290  1.9029 -1.2527  0.5719
  244TIP3   OH2  737   1.872   5.520   1.878 -0.1275  0.1371  0.2855
  244TIP3    H1  738   1.966   5.510   1.893  0.2921  1.3601 -1.2536
  244TIP3    H2  739   1.866   5.588   1.810 -2.1495  0.4782  0.7582
  245TIP3   OH2  740   2.998   1.984   2.792 -0.4151  0.7475 -0.2115
  245TIP3    H1  741   3.090   1.994   2.767 -0.3522  0.3776 -0.1353
  245TIP3    H2  742   3.000   1.969   2.886 -0.5210  0.3421 -0.2698
  246TIP3   OH2  743   3.685   0.132   4.672  1.1636  0.1849 -0.2682
  246TIP3    H1  744   3.728   0.055   4.710  1.2614 -0.1369 -1.0183
  246TIP3    H2  745   3.734   0.150   4.592  0.1390  0.0392 -0.9444
  247TIP3   OH2  746   3.724   5.621   3.969  0.2970  0.1955 -0.4680
  247TIP3    H1  747   3.635   5.636   3.937  0.4243  0.7169 -0.5823
  247TIP3    H2  748   3.727   5.666   4.054  0.2360 -0.4246 -0.1288
  248TIP3   OH2  749   1.519   3.122   0.617 -0.1612  0.3562  0.0081
  248TIP3    H1  750   1.529   3.203   0.567  2.4980 -0.5634 -1.1144
  248TIP3    H2  751   1.604   3.108   0.658 -1.1489 -0.8932  1.7981
  249TIP3   OH2  752   1.844   3.839   3.038 -0.0735 -0.2115  0.0577
  249TIP3    H1  753   1.926   3.796   3.014 -1.4325 -1.1146 -3.4985
  249TIP3    H2  754   1.833   3.909   2.974 -2.6828 -0.9528 -0.4170
  250TIP3   OH2  755   0.272   1.821   2.619  0.4833 -0.7830  0.7188
  250TIP3    H1  756   0.201   1.781   2.668  0.0858 -0.5074  0.3730
  250TIP3    H2  757   0.241   1.824   2.529  0.8526 -0.4873  0.5975
  251TIP3   OH2  758   5.425   5.889   5.017  0.0516 -0.5269  0.0155
  251TIP3    H1  759   5.341   5.930   5.035  0.2026  0.1933 -0.8641
  251TIP3    H2  760   5.411   5.796   5.037 -0.1437 -0.0192  2.4901
  252TIP3   OH2  761   4.911   1.449   1.920  0.0688 -0.2395  0.4120
  252TIP3    H1  762   4.871   1.465   2.006  1.7010 -0.5021  1.2822
  252TIP3    H2  763   4.992   1.402   1.941 -1.1962 -3.5788 -1.5178
  253TIP3   OH2  764   4.938   4.416   1.764 -0.1471  0.3293  0.4305
  253TIP3    H1  765   4.889   4.405   1.682  1.0974  1.4392 -0.5176
  253TIP3    H2  766   4.888   4.481   1.813 -1.0293 -0.5180  0.6713
  254TIP3   OH2  767   3.616   0.704   0.670 -0.0942  0.9939  0.2531
  254TIP3    H1  768   3.705   0.669   0.666 -0.1015  1.0538 -1.4019
  254TIP3    H2  769   3.585   0.682   0.758  1.5000  0.8663  0.8160
  255TIP3   OH2  770   1.790   1.071   1.744 -0.1504  0.3316  0.0556
  255TIP3    H1  771   1.790   1.057   1.839  0.0921  3.3901  0.6205
  255TIP3    H2  772   1.881   1.094   1.724 -0.1767 -0.4135 -0.9812
  256TIP3   OH2  773   5.077   0.815   4.521 -0.0599 -0.9751 -0.2470
  256TIP3    H1  774   4.990   0.855   4.512  1.0670  1.3342 -2.3107
  256TIP3    H2  775   5.128   0.880   4.568  0.6585 -2.1866  0.6872
  257TIP3   OH2  776   0.308   4.414   2.968  1.0963  0.1888  0.1071
  257TIP3    H1  777   0.253   4.368   3.031 -1.6791  0.5029 -1.9131
  257TIP3    H2  778   0.313   4.356   2.893  0.9738  1.4170 -0.8958
  258TIP3   OH2  779   3.389   1.136   3.919 -0.2964  0.6080 -0.0715
  258TIP3    H1  780   3.452   1.165   3.853  0.5865 -0.8301  0.0996
  258TIP3    H2  781   3.431   1.061   3.961 -0.3466  2.1577  2.9628
  259TIP3   OH2  782   3.884   4.964   4.403  0.3162 -0.3634  0.3792
  259TIP3    H1  783   3.894   4.952   4.309  1.4739  1.5898  0.2008
  259TIP3    H2  784   3.798   5.005   4.413  0.2346 -0.4805  0.1521
  260TIP3   OH2  785   1.682   2.208   0.091  0.2566  0.4745 -0.4072
  260TIP3    H1  786   1.696   2.118   0.061  0.7927  0.2585  0.4499
  260TIP3    H2  787   1.613   2.200   0.158  2.5291  0.1675  2.0715
  261TIP3   OH2  788   4.624   0.386   4.184  0.5118  1.0472  0.3744
  261TIP3    H1  789   4.629   0.347   4.271 -1.0305 -3.0002 -1.1303
  261TIP3    H2  790   4.531   0.381   4.161  0.8883  1.9248 -1.5591
  262TIP3   OH2  791   3.963   1.418   2.123  0.2351 -0.3937  0.3013
  262TIP3    H1  792   3.971   1.510   2.097  1.6510 -0.6950 -0.4342
  262TIP3    H2  793   3.937   1.422   2.215 -0.8861  0.7234 -0.0415
  263TIP3   OH2  794   6.065   0.741   2.014 -0.0393 -0.1727  0.9641
  263TIP3    H1  795   6.056   0.828   1.976 -0.0055  0.3835  2.2145
  263TIP3    H2  796   6.072   0.683   1.937 -0.2242  0.8851  0.1189
  264TIP3   OH2  797   4.529   5.092   4.780  0.0311  0.0906  0.1460
  264TIP3    H1  798   4.450   5.080   4.727  0.3014  0.8152 -0.4400
  264TIP3    H2  799   4.601   5.093   4.717  0.3240  1.2973  0.4640
  265TIP3   OH2  800   4.976   3.749   1.899 -0.0770 -0.2001  0.0102
  265TIP3    H1  801   5.039   3.771   1.967 -0.1064  0.0568 -0.0476
  265TIP3    H2  802   4.933   3.831   1.878 -1.1034 -0.5417  0.7258
  266TIP3   OH2  803   1.249   1.090   1.067 -0.1557  0.1157  0.1199
  266TIP3    H1  804   1.239   1.067   0.975 -0.4219 -0.6769  0.3416
  266TIP3    H2  805   1.182   1.040   1.112  0.0279  0.4304  0.7593
  267TIP3   OH2  806   2.100   4.036   4.893 -0.1612 -0.1935  0.2268
  267TIP3    H1  807   2.069   4.060   4.806 -0.1413 -1.3536 -0.1199
  267TIP3    H2  808   2.085   3.942   4.899  1.9149 -0.5540  0.5959
  268TIP3   OH2  809   4.638   5.635   1.111 -0.6179 -0.2235  0.2634
  268TIP3    H1  810   4.558   5.626   1.060  0.0378 -0.6169 -0.7165
  268TIP3    H2  811   4.684   5.552   1.099 -0.1961 -0.1191  1.0688
  269TIP3   OH2  812   5.551   5.458   0.767 -0.3231  0.1406 -0.5363
  269TIP3    H1  813   5.463   5.421   0.776 -0.5474  0.5496 -1.0160
  269TIP3    H2  814   5.609   5.382   0.775 -0.8241 -0.5423 -2.6754
  270TIP3   OH2  815   5.301   2.896   3.078  0.2931  0.1433  0.2687
  270TIP3    H1  816   5.240   2.962   3.110 -0.5259 -0.7859  0.6999
  270TIP3    H2  817   5.383   2.914   3.124 -0.0868  0.5063  0.8128
  271TIP3   OH2  818   5.584   2.644   4.254 -0.3632 -0.4214  0.1672
  271TIP3    H1  819   5.508   2.620   4.201  1.3213 -0.6136 -2.3408
  271TIP3    H2  820   5.608   2.563   4.299 -1.3432 -0.4758  0.6149
  272TIP3   OH2  821   5.337   3.283   1.459 -0.0405 -0.1204  0.3672
  272TIP3    H1  822   5.258   3.238   1.491 -0.2680 -0.1852 -0.2746
  272TIP3    H2  823   5.304   3.364   1.420  0.0936 -0.6187 -0.8201
  273TIP3   OH2  824   3.072   5.168   1.292  0.0111  0.1289  0.4521
  273TIP3    H1  825   3.024   5.219   1.227  1.1612  0.6988  0.0037
  273TIP3    H2  826   3.008   5.109   1.329 -1.0364  0.9144 -0.0588
  274TIP3   OH2  827   0.630   1.893   2.943 -0.4052  0.3501  0.2487
  274TIP3    H1  828   0.539   1.892   2.913 -0.7904 -0.2630  1.3395
  274TIP3    H2  829   0.682   1.912   2.865 -1.4243  0.0009 -0.5330
  275TIP3   OH2  830   5.724   2.348   3.986 -0.0155  0.0271  0.3882
  275TIP3    H1  831   5.792   2.286   3.960  0.1418 -0.2028  1.3051
  275TIP3    H2  832   5.643   2.297   3.986 -0.1130  0.1730 -0.1984
  276TIP3   OH2  833   3.688   2.745   3.612 -0.2824  0.8838  0.2299
  276TIP3    H1  834   3.604   2.780   3.584 -2.0418 -2.1418  1.2702
  276TIP3    H2  835   3.695   2.770   3.704 -0.7523  0.0108  0.5180
  277TIP3   OH2  836   5.557   3.375   4.973  0.2769  0.1507 -0.4996
  277TIP3    H1  837   5.508   3.313   5.026 -1.7346  1.9024 -0.1605
  277TIP3    H2  838   5.502   3.454   4.971  2.5858  1.8753 -1.0597
  278TIP3   OH2  839   0.930   2.395   4.387  0.1748  0.4249  0.3277
  278TIP3    H1  840   0.905   2.460   4.322  0.6256  1.7823  1.4532
  278TIP3    H2  841   0.998   2.437   4.439  1.5855 -1.5104  0.1762
  279TIP3   OH2  842   2.470   1.763   4.498 -0.2408  0.0645 -0.6300
  279TIP3    H1  843   2.523   1.772   4.577 -1.9712 -0.0730  0.5880
  279TIP3    H2  844   2.535   1.751   4.428  1.3722  1.0464  0.6091
  280TIP3   OH2  845   3.694   5.333   0.089 -0.0878 -0.1164 -0.1696
  280TIP3    H1  846   3.771   5.363   0.138 -2.0276  1.6891  2.0332
  280TIP3    H2  847   3.712   5.356  -0.002  2.0837 -0.0508  0.2385
  281TIP3   OH2  848   5.617   0.821   4.526  0.0574  0.3353  0.1079
  281TIP3    H1  849   5.544   0.851   4.471  0.2050  0.1221 -0.2076
  281TIP3    H2  850   5.618   0.882   4.600  0.7079  1.4939 -0.8034
  282TIP3   OH2  851   4.892   3.962   4.186  0.4491 -0.2070  0.2430
  282TIP3    H1  852   4.930   3.966   4.098  1.3795  2.5503  0.6553
  282TIP3    H2  853   4.803   3.993   4.175  1.1867  2.1825  0.4730
  283TIP3   OH2  854   3.275   2.457   1.586 -0.1086  0.5737 -0.4887
  283TIP3    H1  855   3.183   2.482   1.575  0.0156  0.9672 -0.6328
  283TIP3    H2  856   3.311   2.526   1.643 -0.1249 -0.0655  0.3214
  284TIP3   OH2  857   0.418   3.278   3.038 -0.0317 -0.2151  0.0415
  284TIP3    H1  858   0.508   3.309   3.043  0.7425 -2.2810 -0.4360
  284TIP3    H2  859   0.384   3.319   2.958  0.0079  1.5927  0.8883
  285TIP3   OH2  860   0.299   2.101   2.291 -0.0517  0.2516  0.2554
  285TIP3    H1  861   0.280   2.191   2.317 -0.7553 -0.1245  1.0643
  285TIP3    H2  862   0.250   2.088   2.210 -1.7623 -0.1005  1.3158
  286TIP3   OH2  863  -0.004   5.023   1.902 -0.5374  0.4387 -0.0737
  286TIP3    H1  864   0.009   5.070   1.984 -1.0150  2.7116 -1.2149
  286TIP3    H2  865   0.068   5.052   1.846 -1.7751  1.1572 -1.3527
  287TIP3   OH2  866   1.540   4.852   2.693 -0.3660 -0.1202 -0.3154
  287TIP3    H1  867   1.631   4.841   2.719 -0.7641  0.4098  1.4212
  287TIP3    H2  868   1.512   4.934   2.734 -1.9719 -0.8990  0.2636
  288TIP3   OH2  869   3.483   3.893   3.325 -0.4519 -0.0609  0.0616
  288TIP3    H1  870   3.473   3.860   3.414  1.7632 -0.6087  0.1740
  288TIP3    H2  871   3.564   3.852   3.293  0.3984  2.3527 -1.1484
  289TIP3   OH2  872   5.816   2.781   1.171  0.4546 -0.2761 -0.4227
  289TIP3    H1  873   5.821   2.864   1.218  1.3620  0.7651 -2.2298
  289TIP3    H2  874   5.737   2.788   1.117  1.4714  0.1970 -1.9037
  290TIP3   OH2  875   0.406   3.785   4.550 -0.1447 -0.1316 -0.4486
  290TIP3    H1  876   0.413   3.829   4.634 -2.6593  0.0972 -0.2819
  290TIP3    H2  877   0.436   3.850   4.486  0.7007  0.0940  0.1694
  291TIP3   OH2  878   5.399   5.141   2.852  0.1454  0.3743  0.4258
  291TIP3    H1  879   5.323   5.123   2.907 -1.6979  1.8655 -1.4526
  291TIP3    H2  880   5.439   5.056   2.836 -1.3408 -0.4914  1.1740
  292TIP3   OH2  881   3.327   2.689   1.707 -0.0134  0.3800 -0.0164
  292TIP3    H1  882   3.264   2.760   1.720 -0.6488 -0.3481  0.9053
  292TIP3    H2  883   3.373   2.682   1.790 -1.1762 -1.4587  0.5152
  293TIP3   OH2  884   2.163   2.920   5.059  0.3440 -0.8109 -0.5786
  293TIP3    H1  885   2.104   2.950   4.990  0.4298 -1.8686 -1.1298
  293TIP3    H2  886   2.242   2.890   5.012  0.2773 -1.8412 -0.0660
  294TIP3   OH2  887   2.305   1.498   1.908 -0.0698  0.2604  0.0515
  294TIP3    H1  888   2.304   1.402   1.911 -0.5568  0.1996 -1.5715
  294TIP3    H2  889   2.350   1.523   1.989 -0.1675 -1.3193  0.6347
  295TIP3   OH2  890   5.932   5.562   1.753  0.3552 -0.6168 -0.0452
  295TIP3    H1  891   5.907   5.480   1.711 -0.5186 -0.2552 -0.2628
  295TIP3    H2  892   5.951   5.621   1.680  1.6956 -0.8209  0.1160
  296TIP3   OH2  893   1.026   0.369   0.443  0.1282 -0.2857 -0.1128
  296TIP3    H1  894   1.044   0.301   0.508  1.1579  0.0536 -0.0169
  296TIP3    H2  895   1.095   0.434   0.457  0.0688  0.0336 -1.2150
  297TIP3   OH2  896   5.214   5.409   2.314  0.0474 -0.1319  0.1646
  297TIP3    H1  897   5.189   5.333   2.260  2.6485  0.2656 -1.7790
  297TIP3    H2  898   5.167   5.482   2.274 -2.9107 -0.6434  2.3820
  298TIP3   OH2  899   1.075   1.535   3.849 -0.2486  0.0793  0.1654
  298TIP3    H1  900   1.027   1.483   3.785 -1.3004  0.1697  0.8600
  298TIP3    H2  901   1.075   1.481   3.928 -0.1123  0.5313  0.4784
  299TIP3   OH2  902   2.991   1.670   2.350  0.4397  0.0489 -0.0807
  299TIP3    H1  903   3.066   1.719   2.383  0.4791 -1.0026  1.5244
  299TIP3    H2  904   3.024   1.581   2.338 -0.1345 -0.0520 -1.0176
  300TIP3   OH2  905   1.580   3.388   3.452 -0.4848 -0.1675  0.2682
  300TIP3    H1  906   1.634   3.350   3.383 -1.5344 -0.7117 -0.2955
  300TIP3    H2  907   1.490   3.382   3.417 -0.8154  1.6658  0.7086
  301TIP3   OH2  908   6.017   2.865   4.438  0.1604  0.7650 -0.1473
  301TIP3    H1  909   6.079   2.830   4.502 -1.7257  0.0518  1.3871
  301TIP3    H2  910   5.997   2.790   4.382  0.2258  0.8436 -0.2762
  302TIP3   OH2  911   2.524   5.190   4.865  0.1486 -0.9602  0.6030
  302TIP3    H1  912   2.618   5.188   4.848  0.5259 -0.1498  2.3704
  302TIP3    H2  913   2.515   5.154   4.953 -0.9114  1.1710  1.4415
  303TIP3   OH2  914   0.174   5.340   1.585 -0.6344 -0.0532 -0.3737
  303TIP3    H1  915   0.130   5.261   1.554 -3.2118  0.7955  0.8367
  303TIP3    H2  916   0.109   5.409   1.574  0.6720  1.4569  0.8703
  304TIP3   OH2  917   1.382   1.967   0.054 -0.2606  0.4965  0.1985
  304TIP3    H1  918   1.313   1.929   0.000 -0.8547 -0.2367  1.4359
  304TIP3    H2  919   1.446   1.896   0.066  1.1063  1.3484 -1.4792
  305TIP3   OH2  920   4.460   5.053   1.762  0.7132  0.4097 -0.3076
  305TIP3    H1  921   4.409   5.091   1.833  0.5465  0.6951 -0.5771
  305TIP3    H2  922   4.540   5.106   1.758  0.2813  1.0321 -0.9777
  306TIP3   OH2  923   1.097   1.124   1.961 -0.7313  0.0978  0.5799
  306TIP3    H1  924   1.160   1.082   1.902 -1.4939  0.6933 -0.7071
  306TIP3    H2  925   1.049   1.185   1.905 -1.1337  1.0747  1.9453
  307TIP3   OH2  926   0.605   5.728   2.349 -0.4675  0.0525  0.2564
  307TIP3    H1  927   0.602   5.736   2.254 -0.7357 -0.3181  0.2327
  307TIP3    H2  928   0.537   5.664   2.370  0.1021 -0.4380  0.6347
  308TIP3   OH2  929   1.891   3.032   3.515  0.5296  0.3787 -0.0078
  308TIP3    H1  930   1.936   3.089   3.577  1.2252  0.4802 -0.6003
  308TIP3    H2  931   1.842   2.971   3.570  1.2081  0.4074  0.6417
  309TIP3   OH2  932   1.127   2.031   4.182  0.9292 -0.6366 -0.2160
  309TIP3    H1  933   1.128   2.028   4.087 -2.3652 -4.6366 -0.4171
  309TIP3    H2  934   1.147   1.942   4.209  0.8800  0.1541  2.8170
  310TIP3   OH2  935   2.553   3.539   4.054  0.2893 -0.7744  0.5539
  310TIP3    H1  936   2.554   3.474   4.123  0.4803 -1.2385  0.1212
  310TIP3    H2  937   2.482   3.511   3.996  0.3234 -0.5528  0.4024
  311TIP3   OH2  938   2.154   2.540   1.646 -0.0660  0.8433 -0.7487
  311TIP3    H1  939   2.083   2.604   1.659  0.0773  0.8504  0.0301
  311TIP3    H2  940   2.110   2.463   1.610 -0.4681  0.8724 -0.3377
  312TIP3   OH2  941   4.645   3.318   4.534  0.1906  0.4277 -0.1555
  312TIP3    H1  942   4.686   3.262   4.599 -2.1850 -0.5220  0.6320
  312TIP3    H2  943   4.669   3.407   4.560  3.1899 -0.0582 -0.8521
  313TIP3   OH2  944   4.290   0.062   1.308  0.7165 -0.2849 -0.0265
  313TIP3    H1  945   4.228   0.076   1.380  0.8699  0.9072 -0.1094
  313TIP3    H2  946   4.314  -0.030   1.315 -1.2668 -0.8684 -0.1521
  314TIP3   OH2  947   3.940   4.564   3.729 -0.2558 -0.3779 -0.1401
  314TIP3    H1  948   3.971   4.639   3.779  0.3870 -0.2907 -0.6680
  314TIP3    H2  949   3.896   4.509   3.794 -0.1074  0.1055  0.3782
  315TIP3   OH2  950   3.896   3.744   4.436 -0.2078  0.1588  0.5090
  315TIP3    H1  951   3.933   3.826   4.467 -0.3340 -0.2952  1.9209
  315TIP3    H2  952   3.844   3.712   4.510 -0.8916 -0.7459 -0.3396
  316TIP3   OH2  953   2.556   1.603   4.749  0.4039 -0.3045 -0.0272
  316TIP3    H1  954   2.582   1.663   4.820  2.1520 -1.3448  0.2752
  316TIP3    H2  955   2.638   1.583   4.704 -0.4706 -0.8443 -1.4277
  317TIP3   OH2  956   1.998   4.880   3.630  0.2118 -0.6002 -0.3416
  317TIP3    H1  957   2.083   4.908   3.664  0.5880 -1.1875 -0.7609
  317TIP3    H2  958   1.970   4.951   3.572  0.5690 -0.5431 -0.4459
  318TIP3   OH2  959   0.486   0.343   4.578 -0.1301  0.1907 -0.2158
  318TIP3    H1  960   0.511   0.368   4.667 -0.7690 -0.1818  0.0750
  318TIP3    H2  961   0.391   0.343   4.579 -0.1504  0.8701 -1.1050
  319TIP3   OH2  962   4.780   2.333   1.834  0.2185 -0.2085  0.7899
  319TIP3    H1  963   4.864   2.315   1.792 -0.2424 -0.3556 -0.0898
  319TIP3    H2  964   4.761   2.424   1.813 -2.0041 -1.3518 -3.0297
  320TIP3   OH2  965   1.147   4.713   1.893 -0.2429  0.0185 -0.1247
  320TIP3    H1  966   1.186   4.643   1.841  0.6164  0.6259 -0.3154
  320TIP3    H2  967   1.221   4.771   1.915 -0.7729  0.3541  0.8369
  321TIP3   OH2  968   2.685   4.299   0.125  0.5632 -0.5021  0.6876
  321TIP3    H1  969   2.704   4.219   0.175 -0.3907 -0.4854  1.1042
  321TIP3    H2  970   2.590   4.298   0.116  0.4939  0.8630  1.1518
  322TIP3   OH2  971   0.357   0.521   0.788  0.2117  0.8019  0.3913
  322TIP3    H1  972   0.314   0.602   0.814 -2.5634  0.0834 -1.5529
  322TIP3    H2  973   0.308   0.452   0.834  1.8643  0.0979  1.2000
  323TIP3   OH2  974   3.499   5.175   4.435 -0.1078  0.3974  0.4879
  323TIP3    H1  975   3.477   5.142   4.348 -0.0422  0.5990  0.3949
  323TIP3    H2  976   3.580   5.224   4.422  0.1980 -0.0244  0.7609
  324TIP3   OH2  977   3.454   3.117   1.004 -0.2164  0.4427  0.1844
  324TIP3    H1  978   3.390   3.140   1.071 -0.4748  1.3407 -0.3525
  324TIP3    H2  979   3.506   3.196   0.991  0.2050  0.0997 -0.2629
  325TIP3   OH2  980   0.959   3.954   5.184  0.6115  0.4120  0.4826
  325TIP3    H1  981   0.929   3.995   5.103  0.1548 -0.0555  0.4088
  325TIP3    H2  982   1.031   4.010   5.214  0.5154  0.8185 -0.0262
  326TIP3   OH2  983   4.646   4.113   1.763 -0.2581  0.0122 -0.3324
  326TIP3    H1  984   4.679   4.116   1.673  0.0081 -2.2300 -0.3709
  326TIP3    H2  985   4.580   4.182   1.766 -2.0128 -1.3361 -3.0209
  327TIP3   OH2  986   0.113   1.905   1.092  0.8664  0.0157 -0.6979
  327TIP3    H1  987   0.142   1.934   1.006 -1.3258 -0.5396 -1.7089
  327TIP3    H2  988   0.075   1.983   1.133  0.2352 -0.1140 -1.0211
  328TIP3   OH2  989   5.895   5.928   0.481 -0.2151  0.0978  0.7353
  328TIP3    H1  990   5.823   5.987   0.506 -0.5959 -0.6725  1.4889
  328TIP3    H2  991   5.970   5.959   0.532 -0.1314  0.5881  0.3254
  329TIP3   OH2  992   0.556   2.455   1.297  0.0158  0.4316  0.2579
  329TIP3    H1  993   0.473   2.497   1.320 -2.1132 -0.8364 -4.1521
  329TIP3    H2  994   0.595   2.512   1.232  1.1777 -0.4388  0.1513
  330TIP3   OH2  995   5.061   4.368   0.732 -0.0167 -0.5267 -0.3650
  330TIP3    H1  996   5.045   4.329   0.818  0.5945 -0.9864 -0.4448
  330TIP3    H2  997   5.074   4.292   0.674 -0.7915 -0.2306 -0.9393
  331TIP3   OH2  998   2.975   5.619   1.724  0.0463 -0.4286  0.3191
  331TIP3    H1  999   2.880   5.610   1.727  0.1406 -1.5511  0.3488
  331TIP3    H2 1000   2.999   5.599   1.634  0.2316  0.1096  0.2482
  332TIP3   OH2 1001   4.330   1.186   2.074  0.1850  0.0419  0.2200
  332TIP3    H1 1002   4.277   1.169   2.152  0.6279 -0.6472  0.3756
  332TIP3    H2 1003   4.322   1.280   2.060  0.4333  0.2363  1.3349
  333TIP3   OH2 1004   6.136   1.169   0.141 -0.0644 -0.2390  0.3513
  333TIP3    H1 1005   6.151   1.083   0.101  0.5234 -1.6241  3.2405
  333TIP3    H2 1006   6.055   1.157   0.192 -0.2408  1.0877  0.4062
  334TIP3   OH2 1007   3.316   3.793   0.242 -0.3390 -0.0438 -0.4886
  334TIP3    H1 1008   3.398   3.773   0.198 -1.4039 -1.4656 -1.9348
  334TIP3    H2 1009   3.327   3.758   0.330  0.3963 -0.7806 -0.8576
  335TIP3   OH2 1010   4.929   1.030   3.509  0.5130  0.2381  0.0944
  335TIP3    H1 1011   4.860   1.035   3.442  1.1445  1.3898 -0.5050
  335TIP3    H2 1012   4.898   0.964   3.571 -1.3910  1.1099  0.1274
  336TIP3   OH2 1013   6.227   0.483   4.355 -0.3227 -0.3416 -0.5529
  336TIP3    H1 1014   6.202   0.539   4.282 -0.1552  1.3294  0.6071
  336TIP3    H2 1015   6.145   0.466   4.402 -0.2188 -0.1718 -0.3078
  337TIP3   OH2 1016   0.866   3.407   4.885  0.1708  0.0661  0.1113
  337TIP3    H1 1017   0.927   3.397   4.813  0.4752  2.3437 -0.0302
  337TIP3    H2 1018   0.793   3.457   4.848  0.1643  0.9659  1.2812
  338TIP3   OH2 1019   5.854   0.171   1.496 -0.3811 -0.0631 -0.4431
  338TIP3    H1 1020   5.837   0.085   1.534  1.8339 -0.3142  0.1349
  338TIP3    H2 1021   5.916   0.154   1.425  2.3000  1.2312  1.3978
  339TIP3   OH2 1022   2.272   0.202   1.734  0.7311  0.6546  0.2912
  339TIP3    H1 1023   2.307   0.291   1.742  3.9393 -0.2938 -1.3439
  339TIP3    H2 1024   2.220   0.203   1.654  0.5177  1.1030  0.4329
  340TIP3   OH2 1025   1.876   0.044   0.646  0.1212 -0.0263  0.1360
  340TIP3    H1 1026   1.909   0.113   0.703 -0.2870 -0.3530  0.7914
  340TIP3    H2 1027   1.940   0.037   0.575 -0.1309  1.4105 -0.2482
  341TIP3   OH2 1028   0.887   5.471   3.721 -0.4367  0.2538  0.3616
  341TIP3    H1 1029   0.898   5.452   3.814  0.6321 -0.0572  0.1918
  341TIP3    H2 1030   0.959   5.424   3.679 -1.9076 -0.9880 -0.8185
  342TIP3   OH2 1031   3.622   5.972   2.891  0.1965 -0.1810 -0.1678
  342TIP3    H1 1032   3.694   6.034   2.877  0.3009  0.4745  2.6169
  342TIP3    H2 1033   3.666   5.887   2.902  0.2834 -0.2770 -1.1575
  343TIP3   OH2 1034   2.133   5.854   3.851 -0.2052  0.4432 -0.3091
  343TIP3    H1 1035   2.176   5.864   3.766 -1.3281 -0.9053 -1.0800
  343TIP3    H2 1036   2.069   5.784   3.838 -1.3565  1.1178  1.2826
  344TIP3   OH2 1037   1.830   5.842   0.604  0.2513  0.1034 -0.2221
  344TIP3    H1 1038   1.888   5.859   0.530  0.3341  0.9839  0.0340
  344TIP3    H2 1039   1.742   5.844   0.566  0.1681  2.3909 -0.0152
  345TIP3   OH2 1040   3.557   1.686   4.335 -0.6606 -0.6603  0.1957
  345TIP3    H1 1041   3.519   1.774   4.333  0.4935 -0.0620  1.8165
  345TIP3    H2 1042   3.488   1.629   4.302 -1.1169  0.9350 -1.8050
  346TIP3   OH2 1043   4.112   2.281   2.748  0.4565  0.1793 -0.0557
  346TIP3    H1 1044   4.031   2.331   2.759  0.4330  0.5483 -1.6726
  346TIP3    H2 1045   4.165   2.335   2.689  1.5575 -0.4403  0.3499
  347TIP3   OH2 1046   1.618   2.765   0.444 -0.0731  0.1847  0.3654
  347TIP3    H1 1047   1.548   2.820   0.480 -1.2356 -1.4895  0.7567
  347TIP3    H2 1048   1.691   2.777   0.506  0.8193  3.5159 -1.1198
  348TIP3   OH2 1049   3.171   2.854   4.984  0.1191  0.9035 -0.0791
  348TIP3    H1 1050   3.219   2.878   5.063 -0.4321  1.1438  0.1923
  348TIP3    H2 1051   3.150   2.761   4.996 -2.4507  1.5709  1.4477
  349TIP3   OH2 1052   0.374   4.642   0.363  0.4199  0.2709 -0.3319
  349TIP3    H1 1053   0.339   4.554   0.372 -0.9388  0.7955 -0.2995
  349TIP3    H2 1054   0.319   4.683   0.297 -2.0757  2.5545  2.8154
  350TIP3   OH2 1055   3.384   2.981   4.333  0.3501  0.5071  0.2527
  350TIP3    H1 1056   3.334   3.026   4.265 -0.4814  0.1463  0.6115
  350TIP3    H2 1057   3.443   2.923   4.285  0.0053  0.4993 -0.1684
  351TIP3   OH2 1058   2.030   3.756   2.542 -0.0721  0.2404 -0.3384
  351TIP3    H1 1059   2.039   3.693   2.470 -0.4645 -0.3478  0.1075
  351TIP3    H2 1060   1.967   3.714   2.601 -1.9808  1.9829 -1.0320
  352TIP3   OH2 1061   5.009   5.413   0.669 -0.3890  0.4874  0.8736
  352TIP3    H1 1062   4.950   5.481   0.637  0.0886 -0.6350 -2.7594
  352TIP3    H2 1063   4.957   5.333   0.665  0.4926 -0.0736  0.4202
  353TIP3   OH2 1064   6.297   1.837   5.073  0.0353  0.5086  0.1650
  353TIP3    H1 1065   6.251   1.843   4.989 -0.1103  0.4613  0.2413
  353TIP3    H2 1066   6.383   1.804   5.051  0.7901  2.5872 -0.2491
  354TIP3   OH2 1067   3.561   1.256   2.359  0.1472 -0.1703 -0.0875
  354TIP3    H1 1068   3.469   1.246   2.382  0.4618 -0.1536  1.2731
  354TIP3    H2 1069   3.608   1.239   2.441  1.2072  2.7975  0.0488
  355TIP3   OH2 1070   0.218   0.061   0.942  0.5157  0.7989  0.3378
  355TIP3    H1 1071   0.295   0.019   0.903  1.1202  1.4487  0.8170
  355TIP3    H2 1072   0.205   0.015   1.025  1.5342  1.9009  1.1439
  356TIP3   OH2 1073   5.844   1.527   0.261  0.2719  0.1189  0.3674
  356TIP3    H1 1074   5.765   1.582   0.259  0.1798  0.0416  1.3818
  356TIP3    H2 1075   5.811   1.438   0.274  0.2163 -0.6934 -3.8955
  357TIP3   OH2 1076   6.077   4.318   0.986  0.4110 -0.5638 -0.3278
  357TIP3    H1 1077   6.042   4.330   1.074 -0.4507 -1.5664 -0.5144
  357TIP3    H2 1078   6.145   4.251   0.996  1.4913  0.5172 -0.1691
  358TIP3   OH2 1079   5.111   3.105   3.170 -0.3144  0.0740  0.6179
  358TIP3    H1 1080   5.184   3.167   3.179  1.2199 -1.0829 -2.4538
  358TIP3    H2 1081   5.106   3.062   3.256  2.2324  0.6458  1.1628
  359TIP3   OH2 1082   0.442   1.222   4.481 -0.1102 -0.6228  0.0789
  359TIP3    H1 1083   0.354   1.216   4.519  0.0363 -1.7902  0.2898
  359TIP3    H2 1084   0.485   1.293   4.529 -0.5570 -0.8319  0.8010
  360TIP3   OH2 1085   0.771   1.022   0.797 -0.2465  0.3590 -0.2645
  360TIP3    H1 1086   0.709   1.095   0.808  0.7336  0.8091  4.2777
  360TIP3    H2 1087   0.849   1.063   0.759 -0.2696  1.4316  0.7534
  361TIP3   OH2 1088   3.042   5.473   3.800 -0.2139  0.5848  0.2501
  361TIP3    H1 1089   3.037   5.566   3.823 -0.6587  0.2911  1.4169
  361TIP3    H2 1090   3.043   5.472   3.704  4.3843  2.0234  0.0598
  362TIP3   OH2 1091   1.135   1.011   0.820  0.3880  0.0263 -0.1838
  362TIP3    H1 1092   1.089   0.928   0.809  1.3377 -0.5656  0.2112
  362TIP3    H2 1093   1.076   1.076   0.782 -0.5870 -0.7574 -0.0610
  363TIP3   OH2 1094   2.630   1.986   1.810 -0.1609  0.7690 -0.3494
  363TIP3    H1 1095   2.565   1.969   1.879 -0.5082  0.3539 -0.7766
  363TIP3    H2 1096   2.578   1.998   1.731  0.3243 -0.6386 -0.9135
  364TIP3   OH2 1097   2.634   1.324   2.032  0.6565  0.4040 -0.2026
  364TIP3    H1 1098   2.606   1.241   1.992  0.8953 -0.1797  0.7980
  364TIP3    H2 1099   2.716   1.346   1.987 -1.0898  1.9309 -2.8944
  365TIP3   OH2 1100   4.284   2.504   2.991 -0.7355  0.2274 -0.1136
  365TIP3    H1 1101   4.328   2.453   2.924 -0.1910  1.3796 -0.6659
  365TIP3    H2 1102   4.324   2.591   2.986 -0.0895  0.1579  2.2373
  366TIP3   OH2 1103   2.286   5.647   4.470 -0.3312 -0.3775  0.5570
  366TIP3    H1 1104   2.362   5.665   4.414 -1.0183 -0.6794 -0.5072
  366TIP3    H2 1105   2.212   5.643   4.409 -0.8001 -2.8836  1.1800
  367TIP3   OH2 1106   6.383   4.411   0.189  0.7464 -0.0411 -0.4703
  367TIP3    H1 1107   6.348   4.459   0.114  0.7653 -0.7902 -0.9691
  367TIP3    H2 1108   6.323   4.337   0.200  0.6531  0.1550  0.3544
  368TIP3   OH2 1109   1.076   5.683   1.089 -0.1005  0.3549 -0.5323
  368TIP3    H1 1110   1.057   5.772   1.059 -1.2986  0.6761  1.0276
  368TIP3    H2 1111   1.055   5.684   1.183  1.2939 -1.1835 -0.1503
  369TIP3   OH2 1112   2.291   2.101   0.300  0.4922 -0.6944  0.0494
  369TIP3    H1 1113   2.293   2.165   0.371 -0.7151 -1.2731  0.6241
  369TIP3    H2 1114   2.235   2.031   0.333 -1.3329 -0.3118 -2.0204
  370TIP3   OH2 1115   3.769   1.347   1.953  0.7037 -0.1072 -0.5694
  370TIP3    H1 1116   3.826   1.371   2.026 -0.2693 -0.9352  0.5073
  370TIP3    H2 1117   3.716   1.275   1.988 -0.4818  0.1628 -1.7723
  371TIP3   OH2 1118   5.139   1.562   1.151  0.0261  0.2946  0.5032
  371TIP3    H1 1119   5.052   1.532   1.178 -0.5328  0.4992 -0.9276
  371TIP3    H2 1120   5.171   1.614   1.225 -1.6696  1.3578  0.5617
  372TIP3   OH2 1121   4.866   3.415   2.760 -0.1675  0.0363  0.1056
  372TIP3    H1 1122   4.915   3.377   2.833 -1.5506 -2.8257 -0.2836
  372TIP3    H2 1123   4.930   3.421   2.689  0.5282  0.1801  0.7249
  373TIP3   OH2 1124   1.641   3.575   0.794  0.3835 -0.1181 -0.0200
  373TIP3    H1 1125   1.722   3.532   0.765  0.6229  0.5251 -0.3324
  373TIP3    H2 1126   1.610   3.621   0.716  0.1528  0.3034  0.3166
  374TIP3   OH2 1127   5.086   0.355   2.737 -0.3889  0.2347 -0.3800
  374TIP3    H1 1128   5.135   0.410   2.799 -1.1118 -0.5326  0.9404
  374TIP3    H2 1129   5.081   0.270   2.781 -1.4529 -0.1662 -1.2376
  375TIP3   OH2 1130   5.742   5.147   0.477 -0.1360  0.0380  0.1851
  375TIP3    H1 1131   5.831   5.112   0.472 -0.2363 -0.0762 -1.0437
  375TIP3    H2 1132   5.719   5.169   0.387 -1.4648 -0.2189  0.4330
  376TIP3   OH2 1133   5.877   4.446   1.596  0.0835 -0.4420  0.2064
  376TIP3    H1 1134   5.927   4.382   1.545 -1.1239 -1.1209 -0.1678
  376TIP3    H2 1135   5.931   4.463   1.673  1.8600  0.4404 -1.1602
  377TIP3   OH2 1136   2.746   2.642   0.276 -1.0225  0.0826  0.7919
  377TIP3    H1 1137   2.694   2.710   0.319 -1.1536  1.0158 -0.7802
  377TIP3    H2 1138   2.798   2.689   0.211  0.3529 -1.0931  0.9837
  378TIP3   OH2 1139   5.441   4.087   0.964 -0.5533 -0.1262  0.5910
  378TIP3    H1 1140   5.509   4.096   0.897 -1.1300 -2.4123 -0.4146
  378TIP3    H2 1141   5.362   4.123   0.923 -0.3231  1.0617  1.1534
  379TIP3   OH2 1142   2.182   4.981   0.136 -0.0237  0.3080  0.0665
  379TIP3    H1 1143   2.201   4.893   0.167  3.0066  0.8335 -0.0317
  379TIP3    H2 1144   2.148   4.968   0.047  2.1882 -0.7413 -0.6865
  380TIP3   OH2 1145   0.835   5.268   3.245 -0.4765 -0.4660  0.1865
  380TIP3    H1 1146   0.900   5.201   3.264 -1.0283 -1.4202 -1.1735
  380TIP3    H2 1147   0.824   5.315   3.328  0.0756 -1.9105  1.1026
  381TIP3   OH2 1148   2.917   1.758   3.560 -0.9434  0.3248 -0.1576
  381TIP3    H1 1149   2.993   1.816   3.561  0.1646 -0.7548  4.9980
  381TIP3    H2 1150   2.859   1.793   3.628 -1.5682 -2.8287  1.0923
  382TIP3   OH2 1151   0.587   2.681   2.042  0.0515 -0.3757 -0.1466
  382TIP3    H1 1152   0.656   2.686   2.109 -0.8380  0.0728  0.7553
  382TIP3    H2 1153   0.545   2.597   2.057  1.7617 -1.6687 -2.1088
  383TIP3   OH2 1154   6.336   4.562   1.397 -0.3279 -0.2955  0.8077
  383TIP3    H1 1155   6.276   4.585   1.326  0.5215  1.9490  0.7412
  383TIP3    H2 1156   6.365   4.473   1.376 -1.2065 -0.2248 -0.8642
  384TIP3   OH2 1157   6.121   1.326   3.202 -0.5200 -0.0713 -0.5342
  384TIP3    H1 1158   6.127   1.416   3.234 -0.0787  0.6211 -2.4052
  384TIP3    H2 1159   6.212   1.300   3.189 -0.6780 -0.3849 -1.0187
  385TIP3   OH2 1160   2.895   0.569   1.836  0.5232 -0.3661  0.1246
  385TIP3    H1 1161   2.931   0.483   1.813 -0.1281 -0.5802 -0.1234
  385TIP3    H2 1162   2.818   0.549   1.888  0.4739  0.0738  0.2208
  386TIP3   OH2 1163   1.287   4.876   2.183  0.0549 -0.5883  0.2728
  386TIP3    H1 1164   1.380   4.873   2.204  0.3383 -1.4638 -0.9992
  386TIP3    H2 1165   1.284   4.905   2.092 -0.9394 -0.2093  0.4175
  387TIP3   OH2 1166   4.533   4.451   4.434  0.2532  0.0054 -0.1647
  387TIP3    H1 1167   4.511   4.509   4.507 -1.6627  1.2157 -1.5955
  387TIP3    H2 1168   4.591   4.503   4.379  0.5027 -0.3585 -0.2512
  388TIP3   OH2 1169   2.947   1.583   2.071 -0.1415 -0.0871  0.1832
  388TIP3    H1 1170   2.864   1.597   2.117  0.1603  1.3677  0.3460
  388TIP3    H2 1171   3.008   1.645   2.113  0.1603  1.2489 -2.0933
  389TIP3   OH2 1172   2.415   2.963   3.319 -0.5430  0.4678  0.3568
  389TIP3    H1 1173   2.330   2.945   3.358 -1.0285  2.2352  0.1634
  389TIP3    H2 1174   2.396   2.980   3.227 -0.2514  2.6824  0.6632
  390TIP3   OH2 1175   2.621   1.967   3.406  0.8444 -0.0073 -0.6494
  390TIP3    H1 1176   2.537   1.956   3.362  1.1006  1.4366 -1.5639
  390TIP3    H2 1177   2.642   1.879   3.439 -1.7134 -0.1276  0.9582
  391TIP3   OH2 1178   3.398   2.305   3.007 -0.2807 -0.1622  0.4353
  391TIP3    H1 1179   3.412   2.387   2.961 -0.4918 -0.1855  0.3296
  391TIP3    H2 1180   3.462   2.306   3.079 -0.0717 -0.0476  0.2488
  392TIP3   OH2 1181   5.500   4.483   3.831 -0.2401 -0.5366  0.5859
  392TIP3    H1 1182   5.592   4.457   3.831  0.1901  0.8379 -0.5860
  392TIP3    H2 1183   5.497   4.562   3.884 -0.5650 -0.0913 -0.0732
  393TIP3   OH2 1184   5.761   0.259   1.956 -0.3956 -0.0527  0.1797
  393TIP3    H1 1185   5.741   0.276   1.864  3.1160 -1.0428 -0.9347
  393TIP3    H2 1186   5.743   0.343   2.000  0.8048  1.4878 -2.0453
  394TIP3   OH2 1187   4.482   2.733   3.840 -0.4310 -0.2713  0.2059
  394TIP3    H1 1188   4.439   2.818   3.824  1.7268  0.9736  0.6172
  394TIP3    H2 1189   4.570   2.756   3.871  1.0884 -2.6336 -1.9266
  395TIP3   OH2 1190   6.341   0.500   5.098  0.6050 -0.5454  0.1774
  395TIP3    H1 1191   6.322   0.463   5.012 -0.5365  0.7351 -0.1427
  395TIP3    H2 1192   6.267   0.557   5.117  1.2402 -0.1661  1.6461
  396TIP3   OH2 1193   2.990   2.958   1.009  0.1958 -0.1164 -0.5363
  396TIP3    H1 1194   3.049   2.938   1.082  0.7619 -2.1861 -1.5123
  396TIP3    H2 1195   2.910   2.909   1.028  0.6654 -1.3808 -1.7057
  397TIP3   OH2 1196   4.215   4.868   4.815 -0.2102 -0.0727  0.7506
  397TIP3    H1 1197   4.132   4.883   4.772  0.3025  0.0101 -0.2322
  397TIP3    H2 1198   4.281   4.888   4.749  0.5965 -0.0775  1.5268
  398TIP3   OH2 1199   2.215   4.918   4.110 -0.0417  0.3924  0.2518
  398TIP3    H1 1200   2.297   4.888   4.070 -1.1646 -1.4965 -0.8003
  398TIP3    H2 1201   2.217   4.883   4.199 -0.2765 -0.8865 -0.2159
  399TIP3   OH2 1202   5.634   1.705   0.230 -0.4672 -0.6606  0.4683
  399TIP3    H1 1203   5.655   1.795   0.206  1.0811 -0.5576  1.9528
  399TIP3    H2 1204   5.540   1.704   0.243 -0.6140  0.5342 -0.3733
  400TIP3   OH2 1205   2.161   1.834   0.392 -0.3096  0.0665 -0.3320
  400TIP3    H1 1206   2.068   1.858   0.389 -0.2834  0.1154 -0.7048
  400TIP3    H2 1207   2.180   1.830   0.486 -0.4899  0.8492 -0.2478
  401TIP3   OH2 1208   3.162   1.220   3.195 -0.1862  0.1495  0.1469
  401TIP3    H1 1209   3.193   1.217   3.105 -1.5272  1.0775 -0.3766
  401TIP3    H2 1210   3.080   1.170   3.193  1.0068 -1.9827  1.4158
  402TIP3   OH2 1211   3.564   0.135   4.254  0.1215 -0.3577  0.9191
  402TIP3    H1 1212   3.565   0.136   4.158  0.4406 -2.8544  0.8328
  402TIP3    H2 1213   3.471   0.129   4.276  0.0295  0.4620  0.8096
  403TIP3   OH2 1214   3.739   5.332   4.058  0.3619  0.2177 -0.0900
  403TIP3    H1 1215   3.656   5.378   4.064 -0.0638 -0.7020  1.6504
  403TIP3    H2 1216   3.793   5.370   4.127  1.3611  0.7100 -1.1135
  404TIP3   OH2 1217   3.239   4.875   1.650  0.5993 -0.9861 -0.2139
  404TIP3    H1 1218   3.178   4.801   1.643 -0.6793 -0.0273  0.4817
  404TIP3    H2 1219   3.236   4.901   1.742  0.1445  0.6524 -0.6619
  405TIP3   OH2 1220   2.763   1.124   4.008  0.0496 -0.1937 -0.0888
  405TIP3    H1 1221   2.773   1.150   3.917 -0.8620 -1.6981 -0.6568
  405TIP3    H2 1222   2.830   1.056   4.021 -0.5594 -0.7799  0.0228
  406TIP3   OH2 1223   2.384   3.311   4.452 -0.9363  0.3088 -0.3583
  406TIP3    H1 1224   2.378   3.268   4.538 -1.1957 -1.1606 -1.0754
  406TIP3    H2 1225   2.392   3.404   4.473 -0.3516 -0.0601  1.2761
  407TIP3   OH2 1226   2.783   2.851   0.481 -0.9636 -0.4026 -0.3471
  407TIP3    H1 1227   2.695   2.841   0.517 -0.9876  0.5831 -0.0990
  407TIP3    H2 1228   2.779   2.931   0.428 -0.1042 -0.0682  0.0576
  408TIP3   OH2 1229   2.592   2.942   4.094  0.0572  0.5578  0.0732
  408TIP3    H1 1230   2.659   2.971   4.032  0.7762  0.9749  1.0261
  408TIP3    H2 1231   2.641   2.917   4.173 -0.8706  0.4459  0.6284
  409TIP3   OH2 1232   3.810   4.575   3.347  0.2745 -0.1207 -0.0992
  409TIP3    H1 1233   3.891   4.524   3.347 -0.2056 -0.9066 -1.0244
  409TIP3    H2 1234   3.773   4.561   3.434  2.2845  2.1976  1.2629
  410TIP3   OH2 1235   3.069   0.022   3.213 -0.0903  0.1430  0.6095
  410TIP3    H1 1236   3.143   0.067   3.254  1.0882 -0.0985 -1.1534
  410TIP3    H2 1237   3.025  -0.021   3.286  1.0614  0.8969  1.8113
  411TIP3   OH2 1238   6.256   0.293   1.851  0.0232 -0.8463 -0.6315
  411TIP3    H1 1239   6.305   0.369   1.881  1.9639 -1.9509 -0.8686
  411TIP3    H2 1240   6.210   0.323   1.772  1.4724 -0.1521 -1.2319
  412TIP3   OH2 1241   1.494   1.735   2.022 -0.1871  0.4062 -0.6219
  412TIP3    H1 1242   1.463   1.803   1.962 -2.0885  1.3535  1.2847
  412TIP3    H2 1243   1.479   1.653   1.975 -0.3441  1.1819 -1.9601
  413TIP3   OH2 1244   5.273   2.486   4.775  0.0957  0.5108  0.2038
  413TIP3    H1 1245   5.217   2.415   4.745 -0.0832  0.5413  0.4647
  413TIP3    H2 1246   5.349   2.483   4.716  1.2993 -1.4926  1.7373
  414TIP3   OH2 1247   4.794   1.243   1.595  0.4139 -0.3809 -0.0037
  414TIP3    H1 1248   4.836   1.329   1.596  0.0304 -0.1731 -0.8180
  414TIP3    H2 1249   4.817   1.206   1.510 -0.5042 -0.5364 -0.1963
  415TIP3   OH2 1250   3.734   1.029   4.560  0.0083  0.4539  0.1532
  415TIP3    H1 1251   3.655   1.080   4.540  0.8257  0.9825 -2.1079
  415TIP3    H2 1252   3.806   1.085   4.531  1.0336 -1.2015 -0.6349
  416TIP3   OH2 1253   2.423   0.212   2.144  0.7437  0.5978  0.1947
  416TIP3    H1 1254   2.479   0.162   2.204  0.7907  0.8203  0.3403
  416TIP3    H2 1255   2.479   0.228   2.068  0.1252 -1.1760 -0.6637
  417TIP3   OH2 1256   0.708   5.564   3.182 -0.3808 -0.2977  0.0814
  417TIP3    H1 1257   0.704   5.469   3.174  0.1539 -0.3114 -0.1106
  417TIP3    H2 1258   0.702   5.596   3.092  3.3167 -0.3454 -0.3542
  418TIP3   OH2 1259   1.523   3.862   1.436  0.1727  0.6224  0.8554
  418TIP3    H1 1260   1.456   3.909   1.485 -1.0017  0.1678 -0.2652
  418TIP3    H2 1261   1.483   3.844   1.351  1.5332 -0.1245  0.3364
  419TIP3   OH2 1262   1.424   4.983   1.459 -0.2974  0.1887  0.4157
  419TIP3    H1 1263   1.385   4.903   1.424  0.1038 -0.0703  0.5395
  419TIP3    H2 1264   1.505   4.993   1.409  0.1134  0.0003  1.0239
  420TIP3   OH2 1265   2.243   4.368   1.224  0.3584 -0.8638 -0.1219
  420TIP3    H1 1266   2.280   4.452   1.196  0.2326 -1.0012 -0.7086
  420TIP3    H2 1267   2.277   4.356   1.312  1.1982 -0.6816 -0.4128
  421TIP3   OH2 1268   5.802   1.287   1.134 -0.3079  0.6836  0.1785
  421TIP3    H1 1269   5.742   1.336   1.191 -1.3027  0.5814 -0.7688
  421TIP3    H2 1270   5.788   1.195   1.158 -0.2951  0.6776  0.1635
  422TIP3   OH2 1271   0.693   0.581   2.639 -0.0331 -0.6326  0.1677
  422TIP3    H1 1272   0.623   0.644   2.625  0.9677  0.0190 -2.7106
  422TIP3    H2 1273   0.659   0.499   2.603  1.0279  0.0122 -2.5688
  423TIP3   OH2 1274   0.464   3.326   3.809  0.4707  0.2186  0.0045
  423TIP3    H1 1275   0.461   3.383   3.885 -0.1934  2.0397 -1.3103
  423TIP3    H2 1276   0.395   3.360   3.751  1.2313 -0.8254 -1.5823
  424TIP3   OH2 1277   4.396   4.736   3.695  0.2794  0.1975  0.3714
  424TIP3    H1 1278   4.429   4.650   3.668  1.9992  0.9920 -0.1769
  424TIP3    H2 1279   4.435   4.751   3.781 -1.1569 -0.1318  1.1293
  425TIP3   OH2 1280   5.503   1.458   5.066  0.2988  0.0256  0.5968
  425TIP3    H1 1281   5.582   1.423   5.107  0.9078  1.7616  0.9787
  425TIP3    H2 1282   5.513   1.553   5.071 -0.4042  0.3292 -2.0112
  426TIP3   OH2 1283   5.826   4.638   3.597 -0.1763 -0.1271  0.9688
  426TIP3    H1 1284   5.885   4.710   3.618 -0.5147 -0.1510  2.0587
  426TIP3    H2 1285   5.851   4.568   3.658 -1.4633 -0.0600  1.6046
  427TIP3   OH2 1286   1.623   1.640   1.696 -0.0942  0.5272 -0.6595
  427TIP3    H1 1287   1.699   1.583   1.709  0.5372  1.6068  0.5948
  427TIP3    H2 1288   1.655   1.728   1.716 -1.0687  1.3511 -2.4613
  428TIP3   OH2 1289   4.949   1.446   1.653 -0.0513 -0.0399  0.5179
  428TIP3    H1 1290   5.042   1.447   1.674  0.5023 -2.3774 -1.4330
  428TIP3    H2 1291   4.906   1.424   1.736  1.0602  1.2483  1.4876
  429TIP3   OH2 1292   3.098   5.243   2.543 -0.1502  0.3622 -0.5033
  429TIP3    H1 1293   3.081   5.303   2.616  0.7093  0.4482 -0.3654
  429TIP3    H2 1294   3.182   5.203   2.564 -0.0143  0.1992 -1.3256
  430TIP3   OH2 1295   6.239   5.910   1.447  0.1614 -0.7361  0.1159
  430TIP3    H1 1296   6.193   5.842   1.397  1.6808  0.4118 -3.1599
  430TIP3    H2 1297   6.191   5.916   1.529 -2.8423 -2.5656 -1.3062
  431TIP3   OH2 1298   4.044   4.954   2.797 -0.1794  0.4219  0.0194
  431TIP3    H1 1299   4.096   4.878   2.770 -0.9153  0.4058 -1.4510
  431TIP3    H2 1300   4.100   5.029   2.779 -0.4824  0.3806 -1.1704
  432TIP3   OH2 1301   5.440   0.071   1.507 -0.0227 -0.3470 -0.0915
  432TIP3    H1 1302   5.358   0.027   1.483  1.1494 -2.1431 -1.0675
  432TIP3    H2 1303   5.504   0.038   1.444  1.7247  0.0818  1.3767
  433TIP3   OH2 1304   2.282   1.924   4.917 -0.1111  0.7955  0.0207
  433TIP3    H1 1305   2.254   1.832   4.923 -2.1407  1.3336 -0.2493
  433TIP3    H2 1306   2.300   1.938   4.824  1.5108  0.3492  0.2476
  434TIP3   OH2 1307   0.403   5.112   2.220  0.4128 -0.1204  0.5873
  434TIP3    H1 1308   0.386   5.200   2.186 -0.2563 -0.3385  0.3376
  434TIP3    H2 1309   0.366   5.053   2.154 -0.2141 -0.5630  1.3212
  435TIP3   OH2 1310   2.764   1.630   2.932 -0.2125 -0.3899 -0.1113
  435TIP3    H1 1311   2.731   1.604   2.846 -1.0277 -0.9791  0.3638
  435TIP3    H2 1312   2.687   1.665   2.977  0.3417  0.5245  0.1612
  436TIP3   OH2 1313   4.262   5.069   5.013 -0.6356  0.4322  0.2452
  436TIP3    H1 1314   4.210   5.028   4.944 -0.2740  0.0648  0.1870
  436TIP3    H2 1315   4.228   5.032   5.094  1.0132 -1.5875  0.1101
  437TIP3   OH2 1316   3.556   3.537   4.466  0.2157  0.3485 -0.7618
  437TIP3    H1 1317   3.547   3.511   4.558  0.6920 -0.7283 -1.0055
  437TIP3    H2 1318   3.589   3.627   4.470  3.7185 -0.8230  0.2025
  438TIP3   OH2 1319   2.659   3.240   3.986  0.6180 -0.2612 -0.4121
  438TIP3    H1 1320   2.752   3.258   3.998  0.2222  0.7398  1.6729
  438TIP3    H2 1321   2.622   3.248   4.074 -1.6716  0.7928 -1.3882
  439TIP3   OH2 1322   0.359   4.499   0.810  0.2117 -0.1349  0.6757
  439TIP3    H1 1323   0.273   4.459   0.825  0.0561  0.7611  2.5583
  439TIP3    H2 1324   0.342   4.568   0.746 -0.1460 -0.9504 -0.1323
  440TIP3   OH2 1325   1.196   3.693   3.230  0.1835  0.6058 -0.0326
  440TIP3    H1 1326   1.271   3.667   3.282  0.9535  3.1860  0.2959
  440TIP3    H2 1327   1.231   3.754   3.165 -1.2586 -0.0682 -1.5364
  441TIP3   OH2 1328   6.139   5.541   1.534  0.0471  0.0364 -0.0179
  441TIP3    H1 1329   6.215   5.581   1.575 -0.1452 -0.3871  0.7764
  441TIP3    H2 1330   6.124   5.592   1.454 -0.1284  1.4757  0.9014
  442TIP3   OH2 1331   4.966   4.189   2.450 -0.3829 -0.1130 -0.0724
  442TIP3    H1 1332   4.969   4.224   2.538  0.1008  0.2888 -0.2462
  442TIP3    H2 1333   5.052   4.148   2.437 -0.9000 -1.2885  0.0918
  443TIP3   OH2 1334   4.476   5.151   3.004 -0.7748  0.1935 -0.6447
  443TIP3    H1 1335   4.533   5.075   3.001 -1.2428 -0.1333 -1.6746
  443TIP3    H2 1336   4.532   5.225   2.982 -0.0422  0.3492  1.5515
  444TIP3   OH2 1337   2.453   1.597   2.992  0.3507  0.7363 -0.0523
  444TIP3    H1 1338   2.411   1.615   2.908 -1.5161  0.2600  0.7193
  444TIP3    H2 1339   2.453   1.502   2.999  1.8498  0.7170 -0.1408
  445TIP3   OH2 1340   4.219   1.916   4.486 -0.1219  0.5510 -0.2670
  445TIP3    H1 1341   4.240   1.863   4.409 -0.2165  0.4248 -0.2061
  445TIP3    H2 1342   4.125   1.902   4.500  0.0267  0.0700  0.2538
  446TIP3   OH2 1343   2.715   5.621   1.765 -0.1366 -0.3393 -0.2062
  446TIP3    H1 1344   2.678   5.687   1.824 -0.5538 -0.7880  0.0371
  446TIP3    H2 1345   2.657   5.546   1.773 -1.1133  0.1047 -2.3570
  447TIP3   OH2 1346   0.547   5.316   1.134  0.2484  0.0506  0.1599
  447TIP3    H1 1347   0.492   5.379   1.085 -1.2906 -2.7570 -2.0428
  447TIP3    H2 1348   0.496   5.297   1.213 -1.3842 -1.4473 -1.1763
  448TIP3   OH2 1349   1.840   2.039   1.567 -0.5125  0.3326 -0.1435
  448TIP3    H1 1350   1.882   2.121   1.592 -0.0068 -0.3872  1.5722
  448TIP3    H2 1351   1.768   2.064   1.510  0.5677  1.8245 -0.9214
  449TIP3   OH2 1352   3.209   4.141   4.126 -0.1381 -0.4565 -0.2603
  449TIP3    H1 1353   3.252   4.103   4.203  1.5066  0.3466 -0.7374
  449TIP3    H2 1354   3.176   4.065   4.078  4.0550 -1.6030 -1.7884
  450TIP3   OH2 1355   3.500   4.673   3.503 -0.9160 -0.2127  0.7850
  450TIP3    H1 1356   3.565   4.611   3.535  0.1208  0.1004 -0.5538
  450TIP3    H2 1357   3.433   4.677   3.571  1.7336  1.4250  3.5631
  451TIP3   OH2 1358   2.371   4.136   2.363  0.3377  0.2995 -0.2957
  451TIP3    H1 1359   2.400   4.045   2.375 -1.3175 -0.0778  1.3317
  451TIP3    H2 1360   2.452   4.186   2.356  1.3133 -1.1411  0.2163
  452TIP3   OH2 1361   0.794   5.658   2.595 -0.2443 -0.3822  0.2348
  452TIP3    H1 1362   0.714   5.650   2.543  0.0670  0.6802 -0.4376
  452TIP3    H2 1363   0.865   5.663   2.531  0.3861 -1.2964  0.8203
  453TIP3   OH2 1364   5.013   1.687   1.526  0.5095 -0.2306  0.7012
  453TIP3    H1 1365   5.058   1.640   1.456  2.5599 -0.3471  2.0053
  453TIP3    H2 1366   4.969   1.619   1.577 -0.6602 -0.1852 -0.2314
  454TIP3   OH2 1367   0.160   2.573   2.216 -0.5353  0.5134  0.1791
  454TIP3    H1 1368   0.086   2.533   2.263 -1.3684  1.4506 -0.2921
  454TIP3    H2 1369   0.125   2.655   2.183 -0.3822 -0.5848 -3.0795
  455TIP3   OH2 1370   4.379   2.255   2.327  0.0522 -0.0096 -0.5308
  455TIP3    H1 1371   4.474   2.251   2.314 -0.3362 -2.4610 -4.3180
  455TIP3    H2 1372   4.343   2.259   2.239 -3.4215 -0.4232  0.7062
  456TIP3   OH2 1373   2.633   0.808   3.682 -0.5904  0.2200 -0.2043
  456TIP3    H1 1374   2.630   0.851   3.597 -0.3669  1.5104  0.4054
  456TIP3    H2 1375   2.570   0.857   3.736  1.0753  1.0921  1.0551
  457TIP3   OH2 1376   3.259   5.034   0.552  0.0627 -0.2464  0.3252
  457TIP3    H1 1377   3.228   5.120   0.577 -0.9460 -0.3258 -0.5926
  457TIP3    H2 1378   3.292   4.996   0.634 -2.0959 -0.0872  1.3436
  458TIP3   OH2 1379   0.358   1.924   3.609 -0.1546 -0.4369 -0.0337
  458TIP3    H1 1380   0.320   1.841   3.581  0.3387 -0.6848  0.0104
  458TIP3    H2 1381   0.419   1.947   3.538  0.1931 -0.4510  0.2548
  459TIP3   OH2 1382   5.927   3.635   2.141  0.0469  0.8374 -0.1524
  459TIP3    H1 1383   5.893   3.699   2.078 -0.1479  0.8482 -0.0355
  459TIP3    H2 1384   5.850   3.604   2.188 -0.4380 -2.1496 -2.5856
  460TIP3   OH2 1385   3.123   2.722   0.205 -0.7634  0.2232 -0.2210
  460TIP3    H1 1386   3.090   2.639   0.171 -1.6062  0.6476 -0.4683
  460TIP3    H2 1387   3.108   2.717   0.300 -2.1374  0.6505 -0.3924
  461TIP3   OH2 1388   5.648   0.034   4.528 -0.2271  0.3880  0.2083
  461TIP3    H1 1389   5.649   0.029   4.624 -0.3175  1.4972  0.2803
  461TIP3    H2 1390   5.668   0.126   4.509 -2.6750  0.7819 -0.7802
  462TIP3   OH2 1391   0.600   5.400   0.842  0.7030  0.4834 -0.3433
  462TIP3    H1 1392   0.527   5.367   0.894  0.6345 -0.5644 -1.0718
  462TIP3    H2 1393   0.594   5.495   0.850 -0.9624  0.4382 -0.6764
  463TIP3   OH2 1394   0.456   2.840   0.577 -0.3841 -0.0174 -0.1248
  463TIP3    H1 1395   0.455   2.912   0.639 -3.0442 -0.1513  0.1007
  463TIP3    H2 1396   0.472   2.762   0.630  1.4274  0.2200 -0.2343
  464TIP3   OH2 1397   0.289   1.084   0.303 -0.0917 -1.0080 -0.0585
  464TIP3    H1 1398   0.226   1.146   0.267  0.0461 -0.4470  0.6472
  464TIP3    H2 1399   0.375   1.119   0.280  0.0658  0.2127  2.0514
  465TIP3   OH2 1400   2.274   2.294   3.821  0.2789  0.1608  0.1408
  465TIP3    H1 1401   2.339   2.355   3.856  0.6008  0.1598 -0.4361
  465TIP3    H2 1402   2.279   2.306   3.726 -1.5514  1.1782  0.1265
  466TIP3   OH2 1403   0.655   2.391   1.951  0.3362 -0.5493 -0.2855
  466TIP3    H1 1404   0.690   2.303   1.968 -1.9701 -1.3748  0.6084
  466TIP3    H2 1405   0.711   2.450   2.001  1.9246 -1.4800 -0.8897
  467TIP3   OH2 1406   1.285   3.659   2.649  0.0852  0.0967 -0.2196
  467TIP3    H1 1407   1.249   3.612   2.574  0.0887 -2.5728  1.3063
  467TIP3    H2 1408   1.227   3.734   2.661 -0.5033  0.0208 -2.2494
  468TIP3   OH2 1409   1.566   4.441   2.385  0.0617  0.7742  0.0520
  468TIP3    H1 1410   1.549   4.534   2.376 -1.1453  0.4909 -0.8509
  468TIP3    H2 1411   1.661   4.435   2.398  0.7513  1.9334 -3.4069
  469TIP3   OH2 1412   4.659   0.059   4.607 -0.4299 -0.3464  0.2835
  469TIP3    H1 1413   4.628   0.079   4.695 -2.3442 -2.9176  0.3003
  469TIP3    H2 1414   4.718  -0.016   4.618  0.3755  0.1482 -0.5069
  470TIP3   OH2 1415   2.025   4.983   2.376 -0.7137  0.0045  0.1378
  470TIP3    H1 1416   1.973   4.963   2.299 -0.3488 -0.5430  0.0275
  470TIP3    H2 1417   2.067   5.067   2.355  0.1744 -0.6271 -0.6837
  471TIP3   OH2 1418   4.805   2.112   1.041 -0.1424  0.1936 -0.0662
  471TIP3    H1 1419   4.799   2.034   0.986 -0.8100  0.0145  0.2470
  471TIP3    H2 1420   4.816   2.077   1.130 -0.2695  0.4554  0.0542
  472TIP3   OH2 1421   1.787   3.227   3.333 -0.3938 -0.1604 -0.5861
  472TIP3    H1 1422   1.822   3.158   3.389  0.2279  0.6284  0.0451
  472TIP3    H2 1423   1.814   3.203   3.245  1.0396 -0.0221 -0.2104
  473TIP3   OH2 1424   1.322   1.718   4.711  0.1118  0.1341  0.0361
  473TIP3    H1 1425   1.268   1.639   4.718  0.2089  0.0691  0.0391
  473TIP3    H2 1426   1.259   1.790   4.721  0.2019  0.0544  1.4253
  474TIP3   OH2 1427   2.799   1.542   4.574  0.0190  0.1850 -0.2833
  474TIP3    H1 1428   2.813   1.496   4.492 -0.1234  0.6998 -0.5996
  474TIP3    H2 1429   2.886   1.543   4.616  0.4665  1.3626 -1.1884
  475TIP3   OH2 1430   1.752   5.323   3.183 -0.0181 -0.4905  0.0398
  475TIP3    H1 1431   1.705   5.388   3.234 -0.8692 -1.3755  0.4248
  475TIP3    H2 1432   1.829   5.369   3.149 -0.2182  0.4976  0.8974
  476TIP3   OH2 1433   1.872   5.845   3.631 -0.2999  0.0961 -0.0824
  476TIP3    H1 1434   1.879   5.761   3.585 -0.5948 -0.1003  0.2217
  476TIP3    H2 1435   1.804   5.829   3.697  0.8438  0.0571  1.1018
  477TIP3   OH2 1436   1.594   1.754   4.240 -0.0005 -0.2737  0.3589
  477TIP3    H1 1437   1.593   1.669   4.194  1.6598  0.0052 -0.2908
  477TIP3    H2 1438   1.620   1.732   4.329  2.2653 -0.3611 -0.2390
  478TIP3   OH2 1439   4.540   1.428   0.294  0.4436 -0.0723  0.0519
  478TIP3    H1 1440   4.574   1.518   0.290  0.1143  0.0482 -0.0871
  478TIP3    H2 1441   4.577   1.392   0.374  0.2235  0.3328  0.3358
  479TIP3   OH2 1442   3.476   0.588   1.426  0.1036  0.1728 -0.3306
  479TIP3    H1 1443   3.433   0.672   1.409 -0.6441 -0.0089  0.5388
  479TIP3    H2 1444   3.559   0.593   1.379 -0.8950  0.5137 -2.1206
  480TIP3   OH2 1445   4.993   3.528   1.183 -0.5066 -0.1493  0.7867
  480TIP3    H1 1446   5.014   3.576   1.103  0.3490  0.0226  1.0997
  480TIP3    H2 1447   4.965   3.596   1.245 -0.2351 -0.1550  0.9223
  481TIP3   OH2 1448   4.626   0.445   2.735  1.1706 -0.5306 -0.1699
  481TIP3    H1 1449   4.700   0.457   2.795  2.1195 -1.6826 -1.0606
  481TIP3    H2 1450   4.595   0.533   2.718  0.7387 -0.1598  2.1414
  482TIP3   OH2 1451   1.289   4.483   1.071 -0.0878  0.0418  0.3556
  482TIP3    H1 1452   1.271   4.562   1.122 -0.4738  0.9567 -1.1326
  482TIP3    H2 1453   1.203   4.449   1.047  0.0813  0.1013 -0.3687
  483TIP3   OH2 1454   5.084   0.698   1.746 -0.1037  0.1959 -0.5142
  483TIP3    H1 1455   5.161   0.724   1.695 -0.2589 -0.3304 -1.0364
  483TIP3    H2 1456   5.118   0.681   1.834 -0.0907  2.6508  0.0069
  484TIP3   OH2 1457   1.793   3.907   1.468 -0.2682 -0.1138 -0.8542
  484TIP3    H1 1458   1.700   3.882   1.471 -0.2174 -0.2484  1.2370
  484TIP3    H2 1459   1.791   4.003   1.464 -0.6638  0.2676  3.6299
  485TIP3   OH2 1460   6.072   4.802   5.044 -0.4599  0.0968  0.4431
  485TIP3    H1 1461   6.029   4.726   5.084  0.7755 -1.8663 -1.6704
  485TIP3    H2 1462   6.001   4.850   5.001 -0.9900 -1.3704 -0.3954
  486TIP3   OH2 1463   0.045   1.974   3.463 -0.7420  0.1572 -0.0431
  486TIP3    H1 1464  -0.005   1.937   3.390 -1.0434  0.6446 -0.0883
  486TIP3    H2 1465  -0.022   2.008   3.523 -0.4677  1.2078 -0.3094
  487TIP3   OH2 1466   2.603   3.751   3.824 -0.0186 -0.0313 -0.2642
  487TIP3    H1 1467   2.522   3.803   3.824 -0.1745 -0.2727 -0.1485
  487TIP3    H2 1468   2.603   3.706   3.908 -0.1117 -0.5701 -0.5489
  488TIP3   OH2 1469   0.671   3.069   4.429 -0.0725  0.0802  0.5382
  488TIP3    H1 1470   0.745   3.011   4.448  0.6551  0.7784 -0.0996
  488TIP3    H2 1471   0.685   3.144   4.487  0.7164  1.0235 -0.8156
  489TIP3   OH2 1472   2.096   1.729   2.189 -0.1493  0.5266  0.0874
  489TIP3    H1 1473   2.166   1.792   2.168  0.7896  0.0588  1.6323
  489TIP3    H2 1474   2.068   1.754   2.278 -2.3135  0.9895 -0.6618
  490TIP3   OH2 1475   4.473   5.660   3.481  0.2159  0.1495 -0.2565
  490TIP3    H1 1476   4.458   5.577   3.435 -0.2320  1.0735 -1.8606
  490TIP3    H2 1477   4.548   5.643   3.537 -0.7095 -1.7399  0.5189
  491TIP3   OH2 1478   2.398   1.980   2.653  0.1722  0.2647 -0.0285
  491TIP3    H1 1479   2.303   1.977   2.641  0.2080  0.2069 -0.3088
  491TIP3    H2 1480   2.411   2.031   2.733 -0.0756  0.6639 -0.2440
  492TIP3   OH2 1481   2.470   4.599   0.214 -0.1828  0.0166 -0.2520
  492TIP3    H1 1482   2.393   4.655   0.218  0.4579  1.0974 -2.0042
  492TIP3    H2 1483   2.531   4.637   0.278 -0.4797  0.1417 -0.0445
  493TIP3   OH2 1484   5.360   4.068   4.636  0.0289 -0.3720  0.2610
  493TIP3    H1 1485   5.300   4.116   4.694 -0.5119 -0.7431  0.0174
  493TIP3    H2 1486   5.382   3.989   4.685 -1.8236 -1.5649 -0.7012
  494TIP3   OH2 1487   0.081   4.411   0.835  0.5129  0.2612 -0.0446
  494TIP3    H1 1488   0.035   4.338   0.875  1.7565 -1.4376 -1.5429
  494TIP3    H2 1489   0.057   4.407   0.742 -0.7277  2.8560  0.0525
  495TIP3   OH2 1490   3.221   5.300   3.661  0.1745 -0.4681  0.3807
  495TIP3    H1 1491   3.160   5.340   3.723 -0.2197 -1.0354  0.3685
  495TIP3    H2 1492   3.308   5.312   3.700  0.0197  0.0541  0.5580
  496TIP3   OH2 1493   1.933   0.536   4.298 -0.5768 -0.1065 -0.3207
  496TIP3    H1 1494   1.967   0.463   4.246  0.0537 -1.4366  1.8395
  496TIP3    H2 1495   1.844   0.510   4.320 -1.2380  0.9617 -1.5548
  497TIP3   OH2 1496   6.280   2.618   4.875  0.0190  0.0702 -0.1851
  497TIP3    H1 1497   6.319   2.694   4.918 -1.1933  0.3593  0.4379
  497TIP3    H2 1498   6.327   2.611   4.792  2.5911 -0.6609  1.2379
  498TIP3   OH2 1499   4.583   2.197   1.527  0.3855 -0.4849  0.2975
  498TIP3    H1 1500   4.499   2.163   1.559  0.8540  0.1361  2.3201
  498TIP3    H2 1501   4.582   2.289   1.553  0.7426  0.1503 -1.7447
  499TIP3   OH2 1502   1.878   5.402   2.498  0.3860  0.0903  0.4111
  499TIP3    H1 1503   1.884   5.400   2.403  2.0917 -1.0589  0.5202
  499TIP3    H2 1504   1.965   5.378   2.529 -0.7191 -1.8602  2.2635
  500TIP3   OH2 1505   3.484   3.857   5.092  0.2738  0.6280  0.1388
  500TIP3    H1 1506   3.459   3.838   5.183  0.8647 -1.8679 -0.1530
  500TIP3    H2 1507   3.459   3.779   5.043  1.3299  1.3112 -1.5858
  501TIP3   OH2 1508   3.311   1.929   1.916  0.0921 -0.1864  0.4359
  501TIP3    H1 1509   3.372   1.998   1.942  0.9020 -0.9174  0.5077
  501TIP3    H2 1510   3.356   1.880   1.848 -0.4451 -0.6841  0.4259
  502TIP3   OH2 1511   3.229   0.231   1.617 -0.3327  0.1672  0.1791
  502TIP3    H1 1512   3.211   0.310   1.568 -0.3673 -1.4545 -2.6137
  502TIP3    H2 1513   3.317   0.205   1.590 -0.7201 -1.2909  0.2350
  503TIP3   OH2 1514   5.139   0.608   4.042 -0.0447 -0.9944  0.0775
  503TIP3    H1 1515   5.057   0.599   4.089  0.0346 -0.3726  0.3433
  503TIP3    H2 1516   5.201   0.639   4.108  0.3070 -1.0742 -0.2119
  504TIP3   OH2 1517   3.858   1.672   1.353 -0.7303 -0.3815 -0.0666
  504TIP3    H1 1518   3.893   1.608   1.292  1.1219 -1.1698  1.6919
  504TIP3    H2 1519   3.869   1.632   1.439 -1.3568  1.4868  0.9464
  505TIP3   OH2 1520   5.607   1.906   3.983 -0.3009  0.0755 -0.1508
  505TIP3    H1 1521   5.610   1.999   4.002  2.0029 -0.0323  0.3621
  505TIP3    H2 1522   5.568   1.866   4.060 -1.2843  0.5996 -0.3693
  506TIP3   OH2 1523   2.336   3.136   1.456  0.0934  0.4448 -0.2825
  506TIP3    H1 1524   2.389   3.127   1.535  0.7917 -1.8442 -0.9188
  506TIP3    H2 1525   2.389   3.094   1.387 -1.4410  0.4071 -1.4875
  507TIP3   OH2 1526   5.118   2.046   4.487  0.0241  0.2506 -0.4135
  507TIP3    H1 1527   5.053   2.084   4.428 -0.6824  0.1260  0.2694
  507TIP3    H2 1528   5.102   2.089   4.571 -0.8575 -1.5459  0.4185
  508TIP3   OH2 1529   0.912   5.356   0.236  0.7198  0.1487 -0.0883
  508TIP3    H1 1530   0.975   5.294   0.200  1.1479  1.2304 -1.2818
  508TIP3    H2 1531   0.960   5.404   0.303  0.4391 -0.6511  0.7103
  509TIP3   OH2 1532   3.093   2.665   2.038  0.0364 -0.6892 -0.1997
  509TIP3    H1 1533   3.097   2.573   2.014  1.8554 -1.4693  2.6477
  509TIP3    H2 1534   3.184   2.690   2.055 -0.5134  1.3406  0.1007
  510TIP3   OH2 1535   6.039   3.108   3.873  0.0807  0.1702  0.0614
  510TIP3    H1 1536   5.976   3.036   3.871  0.1853  0.0838 -0.2120
  510TIP3    H2 1537   6.114   3.073   3.922 -0.9965  1.0438  2.4814
  511TIP3   OH2 1538   3.216   5.763   5.078  0.2238 -0.3250  0.3159
  511TIP3    H1 1539   3.156   5.702   5.035 -1.8778  1.7701  0.1086
  511TIP3    H2 1540   3.296   5.759   5.025 -0.5902 -1.3475 -0.8996
  512TIP3   OH2 1541   0.029   1.269   3.104  0.2863 -0.0865  0.2173
  512TIP3    H1 1542   0.021   1.205   3.033  0.6109  1.5601 -1.3701
  512TIP3    H2 1543   0.104   1.323   3.080 -0.4542  1.3868  1.0873
  513TIP3   OH2 1544   3.471   4.250   4.109  0.4255 -0.5138 -0.1132
  513TIP3    H1 1545   3.471   4.235   4.204  0.8105 -1.1653 -0.2092
  513TIP3    H2 1546   3.382   4.279   4.090  0.8331  1.4245  0.7119
  514TIP3   OH2 1547   3.197   3.232   2.567  0.2066 -0.4332  0.1325
  514TIP3    H1 1548   3.132   3.199   2.628 -0.8628 -0.0203 -0.7326
  514TIP3    H2 1549   3.252   3.157   2.545 -0.8694 -1.1448 -0.1951
  515TIP3   OH2 1550   0.820   1.379   0.261  0.0339  0.1993 -0.3496
  515TIP3    H1 1551   0.902   1.414   0.225  0.0922  0.6712  0.2318
  515TIP3    H2 1552   0.777   1.338   0.186  2.2001 -2.7954 -0.1753
  516TIP3   OH2 1553   3.698   2.365   5.089 -0.0490  0.1519  0.6789
  516TIP3    H1 1554   3.654   2.293   5.044 -0.4715 -0.5953  2.1934
  516TIP3    H2 1555   3.754   2.405   5.023  0.6902 -1.9713 -0.0619
  517TIP3   OH2 1556   3.337   1.624   4.181 -0.2905 -0.1027 -0.1090
  517TIP3    H1 1557   3.268   1.627   4.114 -1.0416  0.9509  0.6671
  517TIP3    H2 1558   3.317   1.698   4.239  1.4328  0.1413  0.2215
  518TIP3   OH2 1559   2.515   0.859   1.516 -0.2491  0.4588  0.5277
  518TIP3    H1 1560   2.458   0.835   1.443 -0.3923  0.1787  0.7294
  518TIP3    H2 1561   2.560   0.778   1.539 -0.0533  0.5927  0.6198
  519TIP3   OH2 1562   2.645   2.183   3.072  0.2501  0.0340  0.1391
  519TIP3    H1 1563   2.674   2.092   3.069  1.6940  0.4918 -0.9686
  519TIP3    H2 1564   2.647   2.205   3.165  0.8397 -0.7932  0.3386
  520TIP3   OH2 1565   4.419   2.999   3.451 -0.5634  0.8027 -0.5110
  520TIP3    H1 1566   4.362   2.935   3.409 -1.8107  0.5122  1.4891
  520TIP3    H2 1567   4.384   3.084   3.426 -0.9665  0.6458 -0.4744
  521TIP3   OH2 1568   5.749   0.358   0.942 -0.4442 -0.4238  0.8969
  521TIP3    H1 1569   5.826   0.358   0.885 -1.5905  0.2544 -0.7414
  521TIP3    H2 1570   5.780   0.398   1.024  0.8224  0.3409  0.0870
  522TIP3   OH2 1571   0.905   4.940   1.324  0.0152 -0.0592 -0.5426
  522TIP3    H1 1572   0.964   4.986   1.385 -0.0439 -0.0488 -0.4932
  522TIP3    H2 1573   0.842   4.896   1.380  0.6150 -0.9519 -0.5578
  523TIP3   OH2 1574   1.334   3.942   4.379  0.1993  0.6131  0.1674
  523TIP3    H1 1575   1.345   4.003   4.306 -0.9114 -0.3151 -0.8209
  523TIP3    H2 1576   1.346   3.856   4.339  0.4501  0.1288  1.2739
  524TIP3   OH2 1577   4.455   2.559   2.246 -0.3145  0.3832 -0.5694
  524TIP3    H1 1578   4.508   2.480   2.261  1.3790  1.3915 -0.9287
  524TIP3    H2 1579   4.422   2.583   2.332  0.1691 -0.0383 -0.2626
  525TIP3   OH2 1580   2.690   1.386   4.073  0.3511 -0.5828 -0.1076
  525TIP3    H1 1581   2.715   1.297   4.045  0.3773 -0.3340 -0.9076
  525TIP3    H2 1582   2.615   1.408   4.017  0.8670  0.2178 -0.4972
  526TIP3   OH2 1583   0.413   1.695   1.363 -0.2267 -0.3704  0.1098
  526TIP3    H1 1584   0.495   1.742   1.348  0.0165 -1.3928 -2.2233
  526TIP3    H2 1585   0.371   1.743   1.434  1.2424  1.7157 -0.3322
  527TIP3   OH2 1586   1.625   0.944   0.446 -0.0434 -0.4081 -0.9085
  527TIP3    H1 1587   1.606   1.011   0.511  0.4007 -0.8868 -0.2714
  527TIP3    H2 1588   1.580   0.865   0.477 -0.3885 -0.4710 -1.5389
  528TIP3   OH2 1589   0.634   0.797  -0.014  0.5156  0.5786 -0.2307
  528TIP3    H1 1590   0.539   0.794  -0.013  0.5475 -0.4293 -0.0054
  528TIP3    H2 1591   0.658   0.840   0.068  0.2568  0.7853 -0.2632
  529TIP3   OH2 1592   5.846   0.241   4.015  0.2703  0.3178  0.1966
  529TIP3    H1 1593   5.923   0.189   4.041 -1.3175 -2.2047  0.2143
  529TIP3    H2 1594   5.810   0.273   4.098  0.0584 -0.4272  0.4029
  530TIP3   OH2 1595   3.771   1.044   5.170  0.5508 -0.2039 -0.1217
  530TIP3    H1 1596   3.800   0.958   5.199 -1.1425 -0.6157  0.4551
  530TIP3    H2 1597   3.822   1.061   5.090  1.4184 -1.4037  0.1550
  531TIP3   OH2 1598   3.724   3.682   4.690  0.4949 -0.3778  0.0305
  531TIP3    H1 1599   3.804   3.636   4.715  1.0957  0.1908 -0.7856
  531TIP3    H2 1600   3.732   3.768   4.731 -0.6048 -0.9634  1.5204
  532TIP3   OH2 1601   2.259   3.705   1.004 -0.1520 -0.0595 -0.1352
  532TIP3    H1 1602   2.167   3.680   1.002 -0.1425 -0.0785 -1.1948
  532TIP3    H2 1603   2.274   3.737   1.093 -1.3418  0.5786 -0.1459
  533TIP3   OH2 1604   0.706   4.390   3.173 -0.3285 -0.7509 -0.0686
  533TIP3    H1 1605   0.681   4.366   3.262  0.9107 -1.8977 -0.0035
  533TIP3    H2 1606   0.783   4.336   3.153 -0.7059 -0.6907 -1.9254
  534TIP3   OH2 1607   4.913   3.186   3.674  0.4948  0.2985  0.0328
  534TIP3    H1 1608   4.949   3.233   3.749  0.6833  1.1798 -0.5877
  534TIP3    H2 1609   4.886   3.255   3.614 -2.6898 -0.3001  0.6363
  535TIP3   OH2 1610   2.240   3.485   0.644  0.3921 -0.0166  0.2163
  535TIP3    H1 1611   2.271   3.476   0.554  3.7486 -1.8703  1.3833
  535TIP3    H2 1612   2.188   3.406   0.660  1.2946 -0.5936  0.3799
  536TIP3   OH2 1613   6.256   3.168   4.786  0.5011 -0.2600  0.5988
  536TIP3    H1 1614   6.301   3.247   4.756 -0.4932 -0.4267 -1.4890
  536TIP3    H2 1615   6.219   3.192   4.871 -1.1122  2.0782 -0.6556
  537TIP3   OH2 1616   5.246   5.020   0.661  0.4161  0.1163 -0.0088
  537TIP3    H1 1617   5.315   4.986   0.604  0.4677  1.4035 -0.7467
  537TIP3    H2 1618   5.164   4.986   0.624  0.5035  0.3233 -0.3895
  538TIP3   OH2 1619   4.449   4.130   0.210 -0.0479  0.0640  0.2254
  538TIP3    H1 1620   4.442   4.225   0.216 -0.2200  0.0292  0.6057
  538TIP3    H2 1621   4.359   4.098   0.223  0.0747 -0.1684  0.5310
  539TIP3   OH2 1622   4.510   3.970   4.740 -0.2331 -0.3726 -0.4021
  539TIP3    H1 1623   4.419   3.973   4.709 -0.0904 -1.2794 -0.9501
  539TIP3    H2 1624   4.558   3.930   4.667  0.5640 -0.1194 -0.0176
  540TIP3   OH2 1625   0.831   2.838   4.515  0.1822 -0.2402 -0.4876
  540TIP3    H1 1626   0.808   2.750   4.485  0.7199 -0.3961 -0.4495
  540TIP3    H2 1627   0.820   2.833   4.611 -3.3796  0.7853 -0.6959
  541TIP3   OH2 1628   6.225   1.037   2.675 -0.2662  0.1939 -0.0451
  541TIP3    H1 1629   6.238   1.129   2.650 -1.1800  0.8074  1.6088
  541TIP3    H2 1630   6.133   1.032   2.702  0.3137 -0.7018  1.8945
  542TIP3   OH2 1631   0.714   3.585   3.564 -0.0139  0.6039 -0.3455
  542TIP3    H1 1632   0.706   3.492   3.584  1.4079  0.2290 -1.3474
  542TIP3    H2 1633   0.659   3.628   3.629 -0.3680 -0.9100  0.4087
  543TIP3   OH2 1634   2.572   3.339   4.238  0.1782 -0.4138 -0.3555
  543TIP3    H1 1635   2.647   3.315   4.292  0.1773 -1.6368 -0.8559
  543TIP3    H2 1636   2.499   3.345   4.300  0.3691 -0.8624 -0.0769
  544TIP3   OH2 1637   5.854   2.734   3.450  0.0571 -0.6257  0.0891
  544TIP3    H1 1638   5.857   2.791   3.527  0.1577  2.5803 -2.1072
  544TIP3    H2 1639   5.938   2.688   3.452  0.8773  0.8140  0.9459
  545TIP3   OH2 1640   4.078   2.029  -0.022 -0.0660  0.3130 -0.8888
  545TIP3    H1 1641   4.114   2.031   0.067  1.9531  0.0632 -1.6593
  545TIP3    H2 1642   4.065   1.937  -0.041 -1.2557  0.4017 -0.5986
  546TIP3   OH2 1643   5.954   0.828   3.051  0.4629  0.5295 -0.2084
  546TIP3    H1 1644   5.873   0.837   3.101 -1.0455 -1.1278 -2.1888
  546TIP3    H2 1645   6.012   0.778   3.108 -0.2697  0.8367  0.8286
  547TIP3   OH2 1646   6.020   4.808   0.702  0.3905 -0.5086  0.0254
  547TIP3    H1 1647   6.106   4.796   0.741  0.3074  1.3132  0.8775
  547TIP3    H2 1648   6.035   4.871   0.631 -0.1414 -0.6668 -0.2319
  548TIP3   OH2 1649   4.652   1.600   1.510 -0.2461  0.4454 -0.4915
  548TIP3    H1 1650   4.710   1.608   1.585 -0.4049  0.8128 -0.4058
  548TIP3    H2 1651   4.609   1.515   1.522  2.0826 -1.0431 -1.8520
  549TIP3   OH2 1652   0.469   2.893   1.479 -0.0557  0.0480  0.2987
  549TIP3    H1 1653   0.421   2.870   1.400  0.7443  0.1795 -0.2381
  549TIP3    H2 1654   0.405   2.883   1.550 -0.8971  0.3258 -0.4001
  550TIP3   OH2 1655   0.492   2.570   3.857 -0.5335  0.2617 -0.1219
  550TIP3    H1 1656   0.481   2.490   3.806 -0.4634  0.2478 -0.1155
  550TIP3    H2 1657   0.540   2.630   3.799 -0.9535  0.4475 -0.2777
  551TIP3   OH2 1658   2.229   1.325   1.463 -0.0691 -0.2993 -0.5148
  551TIP3    H1 1659   2.235   1.230   1.449  1.1172 -0.0363 -2.0639
  551TIP3    H2 1660   2.291   1.343   1.533 -1.0665 -0.7716  0.5291
  552TIP3   OH2 1661   5.812   2.804   0.624  0.0982 -0.0559  0.4706
  552TIP3    H1 1662   5.744   2.758   0.673  1.5337 -3.9787 -0.8276
  552TIP3    H2 1663   5.892   2.790   0.676  0.8593 -0.5282 -0.7836
  553TIP3   OH2 1664   3.895   2.529   4.161  0.1322 -0.5940  0.1717
  553TIP3    H1 1665   3.871   2.599   4.222  0.6193  1.0003 -1.3796
  553TIP3    H2 1666   3.822   2.525   4.099  1.0225  0.0166 -0.9619
  554TIP3   OH2 1667   2.912   1.283   2.480  0.0942  0.3950  0.0124
  554TIP3    H1 1668   2.923   1.199   2.524 -0.4109  0.8846  1.1157
  554TIP3    H2 1669   2.865   1.263   2.399  1.1061 -0.5355 -0.3586
  555TIP3   OH2 1670   0.489   2.080   4.357 -0.1151  0.3782  0.1573
  555TIP3    H1 1671   0.534   2.158   4.326  1.4010 -0.5341 -0.0199
  555TIP3    H2 1672   0.514   2.074   4.450  0.3154 -0.2537  0.0019
  556TIP3   OH2 1673   2.657   0.653   0.294 -0.1706 -0.8397  0.4039
  556TIP3    H1 1674   2.599   0.709   0.346  1.0471  1.1759 -0.2895
  556TIP3    H2 1675   2.723   0.713   0.260  3.1038 -3.1645  2.1679
  557TIP3   OH2 1676   4.967   5.770   4.191 -0.7055 -0.1687 -0.2240
  557TIP3    H1 1677   5.061   5.764   4.206 -0.8679  1.0413  1.6115
  557TIP3    H2 1678   4.935   5.828   4.260 -2.7819 -0.4018 -0.9071
  558TIP3   OH2 1679   1.676   1.911   0.071 -0.2657 -0.3624 -0.7379
  558TIP3    H1 1680   1.707   1.921   0.162 -0.2036 -0.0123 -0.7935
  558TIP3    H2 1681   1.688   1.819   0.051  2.1618  0.0010 -1.2559
  559TIP3   OH2 1682   6.307   5.730   4.576  0.5992 -0.3838  0.6681
  559TIP3    H1 1683   6.304   5.731   4.671  0.6295  0.6579  0.6702
  559TIP3    H2 1684   6.267   5.647   4.551 -3.1607  0.9888  1.4840
  560TIP3   OH2 1685   1.804   1.821   1.775  0.3260  0.7017 -0.6253
  560TIP3    H1 1686   1.836   1.904   1.741  0.2007  1.5700  1.2442
  560TIP3    H2 1687   1.819   1.826   1.870  2.3563 -2.2978 -0.6220
  561TIP3   OH2 1688   6.034   1.123   1.233 -0.1692 -0.0186 -0.2247
  561TIP3    H1 1689   5.986   1.069   1.170  1.5343  1.8268 -3.3766
  561TIP3    H2 1690   5.969   1.144   1.300 -2.2054 -1.9526 -1.4275
  562TIP3   OH2 1691   3.052   5.692   2.644  0.5282  0.0002 -0.3443
  562TIP3    H1 1692   3.111   5.753   2.599 -2.0590  2.1812 -1.1000
  562TIP3    H2 1693   3.101   5.663   2.721  2.8952  0.9045 -1.4069
  563TIP3   OH2 1694   5.924   4.191   4.408  0.6055 -0.7995 -0.2613
  563TIP3    H1 1695   5.921   4.245   4.329  0.6010 -0.0642  0.2348
  563TIP3    H2 1696   5.964   4.109   4.380  0.9826 -0.3891 -0.9339
  564TIP3   OH2 1697   1.786   2.911   0.627  0.3864  0.7604  0.0685
  564TIP3    H1 1698   1.857   2.876   0.681 -0.4625 -0.0742  0.6934
  564TIP3    H2 1699   1.755   2.988   0.675  2.0450  2.2649 -1.1446
  565TIP3   OH2 1700   3.332   3.247   4.974  0.4398  0.3170 -0.3680
  565TIP3    H1 1701   3.413   3.298   4.982  1.5074 -1.4161  0.7385
  565TIP3    H2 1702   3.352   3.180   4.909 -0.1517 -0.0431 -0.1865
  566TIP3   OH2 1703   5.806   5.720   2.735  0.0845  0.4094 -0.1076
  566TIP3    H1 1704   5.824   5.626   2.745 -1.5349  0.2335  1.5805
  566TIP3    H2 1705   5.724   5.724   2.687 -1.8294  0.7543  2.9089
  567TIP3   OH2 1706   0.684   0.768   0.815  0.8799  0.8064  0.0327
  567TIP3    H1 1707   0.689   0.726   0.729  0.5066  0.8605 -0.0132
  567TIP3    H2 1708   0.733   0.849   0.805  1.2279  0.5981 -0.0003
  568TIP3   OH2 1709   1.711   3.126   2.094  0.2301  0.5379  0.0906
  568TIP3    H1 1710   1.698   3.111   2.000 -0.0249  1.0135  0.0479
  568TIP3    H2 1711   1.636   3.085   2.136  1.0780 -0.9583  0.2039
  569TIP3   OH2 1712   4.709   2.258   0.200 -0.7839  0.1097  0.1380
  569TIP3    H1 1713   4.797   2.223   0.213 -0.7000 -0.0063 -0.7098
  569TIP3    H2 1714   4.700   2.326   0.267 -0.5402 -0.7709  1.0959
  570TIP3   OH2 1715   0.103   3.267   3.715 -0.2940 -0.0020 -0.0873
  570TIP3    H1 1716   0.154   3.348   3.713 -2.1156  1.2008 -0.4948
  570TIP3    H2 1717   0.072   3.261   3.805 -0.7693  0.1523 -0.2405
  571TIP3   OH2 1718   5.921   3.966   1.794 -0.2659 -0.3316  0.2577
  571TIP3    H1 1719   5.976   4.039   1.823 -0.9048  0.0314  0.5870
  571TIP3    H2 1720   5.846   3.968   1.853 -1.5969  0.4007 -1.3782
  572TIP3   OH2 1721   3.328   3.177   3.011 -0.6336  0.2699  0.7394
  572TIP3    H1 1722   3.284   3.139   3.087 -1.8590 -1.0684 -0.5904
  572TIP3    H2 1723   3.270   3.247   2.982 -0.0179  0.9819  1.1939
  573TIP3   OH2 1724   4.828   5.322   0.221 -0.0742 -0.0272  0.1206
  573TIP3    H1 1725   4.899   5.316   0.285  0.6070 -2.1352 -0.7485
  573TIP3    H2 1726   4.835   5.411   0.186  1.4710  0.1537  0.8088
  574TIP3   OH2 1727   5.996   3.786   0.033  0.1444  0.5809 -0.1151
  574TIP3    H1 1728   6.082   3.792   0.073  0.5889  0.4787 -1.0479
  574TIP3    H2 1729   5.970   3.695   0.046 -0.5695  0.9974  1.6516
  575TIP3   OH2 1730   2.308   1.806   0.094 -0.3174  0.3699  0.3467
  575TIP3    H1 1731   2.221   1.844   0.111 -0.7916  1.4962 -3.5187
  575TIP3    H2 1732   2.369   1.865   0.137 -1.3414  1.6311  0.1206
  576TIP3   OH2 1733   2.133   0.701   0.687 -0.1042 -0.5918  0.4177
  576TIP3    H1 1734   2.138   0.610   0.657 -3.4112 -1.3498  1.6575
  576TIP3    H2 1735   2.073   0.743   0.625  1.6497  0.9264 -0.3461
  577TIP3   OH2 1736   2.728   3.720   0.488  0.1126 -0.1310 -0.0476
  577TIP3    H1 1737   2.708   3.674   0.406  1.0996 -1.3421  0.3473
  577TIP3    H2 1738   2.713   3.654   0.556 -0.6036  0.8323  0.7521
  578TIP3   OH2 1739   5.333   1.898   4.492  0.0053 -0.1029 -0.0319
  578TIP3    H1 1740   5.245   1.934   4.499 -0.0385  0.1218 -1.4275
  578TIP3    H2 1741   5.328   1.813   4.536 -0.5451  0.4639  1.0443
  579TIP3   OH2 1742   0.786   5.288   1.293 -0.0237  0.7560  0.0675
  579TIP3    H1 1743   0.730   5.278   1.215  0.2592 -0.4976 -0.0002
  579TIP3    H2 1744   0.856   5.224   1.280  0.5650  1.2187  0.8979
  580TIP3   OH2 1745   2.890   3.866   1.074  0.0217 -0.5214 -0.3062
  580TIP3    H1 1746   2.805   3.859   1.119 -1.1610  0.2876 -2.2787
  580TIP3    H2 1747   2.909   3.960   1.073  0.2046 -0.5647 -1.1583
  581TIP3   OH2 1748   5.928   4.943   1.219  0.8502 -0.0933  0.2655
  581TIP3    H1 1749   6.024   4.942   1.221  0.8556  0.2857  0.1845
  581TIP3    H2 1750   5.906   4.966   1.129  0.6739 -1.3425 -0.0271
  582TIP3   OH2 1751   5.535   2.776   4.680 -0.1033 -0.1782 -0.1699
  582TIP3    H1 1752   5.541   2.681   4.687  0.4771 -0.0667  1.4756
  582TIP3    H2 1753   5.620   2.807   4.710 -0.2417  0.8661 -0.8135
  583TIP3   OH2 1754   0.403   3.721   1.304 -0.2032  0.1184 -0.5739
  583TIP3    H1 1755   0.439   3.802   1.269 -0.0662 -0.0525 -0.8303
  583TIP3    H2 1756   0.351   3.748   1.380 -0.1521  0.4436 -0.6559
  584TIP3   OH2 1757   5.778   5.913   3.419  0.0430 -0.6444  0.2341
  584TIP3    H1 1758   5.737   5.833   3.453 -2.2088  0.4999  0.3802
  584TIP3    H2 1759   5.737   5.984   3.469 -1.7899  0.9637 -3.2650
  585TIP3   OH2 1760   1.033   2.359   5.216 -0.0501  0.7369 -0.9386
  585TIP3    H1 1761   1.081   2.307   5.151 -0.4742  0.1013 -0.7569
  585TIP3    H2 1762   0.947   2.372   5.176 -0.0215  1.0947 -0.8786
  586TIP3   OH2 1763   4.148   5.595   0.187  0.4404 -0.1089 -0.2816
  586TIP3    H1 1764   4.224   5.544   0.158 -0.1442 -2.1687  1.5479
  586TIP3    H2 1765   4.108   5.626   0.105  1.9139 -0.9885 -1.3869
  587TIP3   OH2 1766   3.628   1.498   3.547 -0.3790  0.0381  0.0474
  587TIP3    H1 1767   3.665   1.541   3.623  1.3316  0.6717 -1.0809
  587TIP3    H2 1768   3.581   1.422   3.582 -0.6813  0.9998  1.7932
  588TIP3   OH2 1769   5.350   4.426   3.437  0.3106  0.0002 -0.0322
  588TIP3    H1 1770   5.337   4.339   3.400  1.8637 -0.6401  0.8257
  588TIP3    H2 1771   5.443   4.429   3.458  0.3126  1.9324 -0.1675
  589TIP3   OH2 1772   0.466   1.394   3.216 -0.2143 -0.4515  0.2444
  589TIP3    H1 1773   0.473   1.338   3.293  0.0974  0.2891  0.7679
  589TIP3    H2 1774   0.547   1.446   3.217 -1.3065  1.3051  0.8093
  590TIP3   OH2 1775   0.211   1.048   2.206 -0.1533  0.1464 -0.1708
  590TIP3    H1 1776   0.240   1.139   2.201  0.6876  0.0632  1.9853
  590TIP3    H2 1777   0.119   1.054   2.231 -0.0568  0.4232  0.1333
  591TIP3   OH2 1778   5.618   3.561   2.934  0.0256  0.8310  0.3267
  591TIP3    H1 1779   5.649   3.479   2.974 -0.6085  0.2897 -0.2637
  591TIP3    H2 1780   5.696   3.597   2.892  0.3470  0.6044  0.7185
  592TIP3   OH2 1781   4.486   0.621   2.593  0.0167 -0.2843 -0.2883
  592TIP3    H1 1782   4.500   0.691   2.529  1.5844 -0.2287  0.0767
  592TIP3    H2 1783   4.443   0.663   2.666  0.4158  0.1861 -0.3180
  593TIP3   OH2 1784   1.976   1.953   0.910 -0.2249 -0.3726  0.4382
  593TIP3    H1 1785   1.904   1.964   0.848 -0.5360 -3.1279  0.1503
  593TIP3    H2 1786   2.035   2.026   0.892 -2.3117  1.2628 -0.1816
  594TIP3   OH2 1787   1.659   0.341   3.538  0.1910 -0.0224 -0.0929
  594TIP3    H1 1788   1.715   0.377   3.606  0.5096 -2.4129  1.0274
  594TIP3    H2 1789   1.574   0.383   3.552  0.6477  0.6325  0.8044
  595TIP3   OH2 1790   2.526   1.257   0.760  0.1545 -0.0551  0.0498
  595TIP3    H1 1791   2.555   1.167   0.743  2.4430  0.6102  0.0691
  595TIP3    H2 1792   2.464   1.276   0.689  0.8161 -1.1415 -0.8601
  596TIP3   OH2 1793   4.636   0.062   5.115 -0.4657 -0.0064 -0.3799
  596TIP3    H1 1794   4.638   0.137   5.175  1.2981  0.8894 -1.4769
  596TIP3    H2 1795   4.551   0.067   5.073  0.1737  2.3875 -1.5789
  597TIP3   OH2 1796   3.035   4.273   4.720 -0.3099 -0.1224  0.6524
  597TIP3    H1 1797   3.096   4.205   4.693 -0.9910  0.0155 -1.4589
  597TIP3    H2 1798   3.079   4.319   4.791  0.0524 -2.8810  2.3733
  598TIP3   OH2 1799   4.422   1.833   2.581  0.6327  0.0944 -0.6918
  598TIP3    H1 1800   4.461   1.838   2.493  2.0161  1.3194 -0.0514
  598TIP3    H2 1801   4.389   1.921   2.597 -0.9881 -0.5145 -0.5518
  599TIP3   OH2 1802   5.058   2.866   1.903 -0.2751 -0.6877  0.2054
  599TIP3    H1 1803   5.079   2.830   1.816 -0.8076 -1.4610  0.3901
  599TIP3    H2 1804   5.125   2.933   1.918  0.6918 -1.5454 -0.1858
  600TIP3   OH2 1805   0.206   1.661   1.152  0.3400 -0.1967  0.2707
  600TIP3    H1 1806   0.175   1.749   1.130  1.5430 -0.0710 -1.1204
  600TIP3    H2 1807   0.264   1.674   1.227  2.6102  0.6627 -1.5244
  601TIP3   OH2 1808   1.245   5.791   3.145 -0.1142 -0.5090  0.6706
  601TIP3    H1 1809   1.326   5.830   3.177  0.0167 -0.7483  0.6281
  601TIP3    H2 1810   1.269   5.748   3.063  0.0058 -1.7347  1.3329
  602TIP3   OH2 1811   5.552   1.952   0.455  0.1868  0.1092  0.5051
  602TIP3    H1 1812   5.562   1.863   0.489  0.5743  0.0698  0.2940
  602TIP3    H2 1813   5.486   1.943   0.386  0.1961 -0.0084  0.5109
  603TIP3   OH2 1814   4.318   0.326   5.094  0.0528  0.1087 -0.2428
  603TIP3    H1 1815   4.361   0.283   5.021 -0.0614  0.4409 -0.5114
  603TIP3    H2 1816   4.364   0.410   5.103  0.9911 -0.5055  0.9707
  604TIP3   OH2 1817  -0.004   0.668   0.965 -0.4372  0.3033  0.4367
  604TIP3    H1 1818   0.085   0.671   1.002  0.1393  0.6079 -0.9212
  604TIP3    H2 1819  -0.021   0.757   0.937  0.0822 -0.3233 -2.0963
  605TIP3   OH2 1820   3.311   0.131   5.010  0.0627 -0.1472  0.0020
  605TIP3    H1 1821   3.326   0.136   4.916 -1.0097 -0.8976 -0.2383
  605TIP3    H2 1822   3.388   0.171   5.049  1.7392 -2.0724 -1.1306
  606TIP3   OH2 1823   3.215   2.659   3.939  0.1340  0.4487 -0.4305
  606TIP3    H1 1824   3.134   2.639   3.891  0.1980  1.9049 -1.1850
  606TIP3    H2 1825   3.192   2.732   3.995  0.9046  0.8364 -0.6121
  607TIP3   OH2 1826   4.793   2.037   1.653  0.3597  0.0155  0.4141
  607TIP3    H1 1827   4.727   2.089   1.607  1.9759  0.0602 -2.0071
  607TIP3    H2 1828   4.808   1.961   1.597  1.2994 -0.7558  1.6559
  608TIP3   OH2 1829   2.174   4.308   5.009  0.2582 -0.4048 -0.1479
  608TIP3    H1 1830   2.134   4.239   4.955  0.5307 -1.5144  1.0409
  608TIP3    H2 1831   2.215   4.367   4.945 -2.6841  0.4591 -1.3990
  609TIP3   OH2 1832   3.963   5.142   2.006  0.3867 -0.0649 -0.1319
  609TIP3    H1 1833   3.908   5.105   2.074  0.9164 -2.2916 -0.8226
  609TIP3    H2 1834   3.956   5.237   2.017 -0.6803 -0.3544  2.0565
  610TIP3   OH2 1835   2.472   0.605   3.793 -0.3508  0.1564  0.4904
  610TIP3    H1 1836   2.398   0.655   3.758  0.6723  1.1792 -0.2670
  610TIP3    H2 1837   2.549   0.644   3.753  0.5410 -1.7119  0.2842
  611TIP3   OH2 1838   3.031   4.950   0.385  0.0535 -0.0977 -0.3250
  611TIP3    H1 1839   3.096   4.974   0.451  1.3303 -1.4467 -1.0354
  611TIP3    H2 1840   2.959   5.012   0.398  1.0068  0.7355  1.2031
  612TIP3   OH2 1841   1.999   3.443   3.187  0.5145  0.1342  0.4405
  612TIP3    H1 1842   1.947   3.446   3.107 -0.4016  1.5146  1.0544
  612TIP3    H2 1843   2.062   3.515   3.178 -0.6904  1.4101  1.6274
  613TIP3   OH2 1844   1.484   2.248   3.801  0.0632  0.2073  0.3004
  613TIP3    H1 1845   1.478   2.175   3.739  0.0828  0.9573 -0.6040
  613TIP3    H2 1846   1.566   2.234   3.847  0.6437  0.2875 -0.6900
  614TIP3   OH2 1847   4.727   3.533   2.500  0.4368 -0.5944 -0.1071
  614TIP3    H1 1848   4.751   3.533   2.593  3.2061  2.0654 -0.6404
  614TIP3    H2 1849   4.694   3.622   2.485 -0.0025 -0.9977 -1.6580
  615TIP3   OH2 1850   5.839   1.757   1.174  0.1631  0.3099  0.1898
  615TIP3    H1 1851   5.846   1.743   1.268 -2.2301 -0.4830  0.3103
  615TIP3    H2 1852   5.775   1.827   1.164  1.7675  1.7037 -0.8488
  616TIP3   OH2 1853   5.619   2.573   5.125  0.1641  0.0374  0.4485
  616TIP3    H1 1854   5.603   2.652   5.178  1.9757  0.3103  0.6362
  616TIP3    H2 1855   5.585   2.596   5.038  0.5134  0.9771  0.5465
  617TIP3   OH2 1856   2.639   4.083   1.429  0.4639  0.5747 -0.5357
  617TIP3    H1 1857   2.714   4.046   1.382  1.0092  1.4369 -0.3561
  617TIP3    H2 1858   2.677   4.127   1.505 -0.2503  0.7704 -0.2824
  618TIP3   OH2 1859   6.308   3.275   3.030  0.6753 -0.5409 -0.0447
  618TIP3    H1 1860   6.229   3.264   3.083 -0.2050 -0.7099 -1.3301
  618TIP3    H2 1861   6.339   3.363   3.052  0.0399 -0.4080  0.3657
  619TIP3   OH2 1862   0.276   1.343   0.775  0.0090  0.1766 -0.3407
  619TIP3    H1 1863   0.300   1.391   0.695 -1.3092  0.1332 -0.7791
  619TIP3    H2 1864   0.196   1.295   0.752  0.0894 -0.5325  0.7494
  620TIP3   OH2 1865   0.212   4.147   0.217 -0.3480  0.3678 -0.2582
  620TIP3    H1 1866   0.273   4.076   0.200 -0.5425 -0.0288  0.6613
  620TIP3    H2 1867   0.221   4.205   0.141 -0.2104 -0.6409 -1.0342
  621TIP3   OH2 1868   3.171   2.192   2.269 -0.9604  0.0873 -0.1946
  621TIP3    H1 1869   3.141   2.178   2.359  1.2636 -0.1339  0.5924
  621TIP3    H2 1870   3.094   2.220   2.221 -2.0685  0.9148  1.9612
  622TIP3   OH2 1871   0.811   5.054   0.550 -0.1482 -0.2795 -0.1021
  622TIP3    H1 1872   0.816   5.144   0.581 -2.2983 -0.4007  0.7623
  622TIP3    H2 1873   0.902   5.024   0.549  0.4284  1.2302  1.6278
  623TIP3   OH2 1874   2.338   2.921   0.843 -0.0419  0.1881  0.3943
  623TIP3    H1 1875   2.353   2.954   0.755  0.0112 -0.1384  0.2801
  623TIP3    H2 1876   2.243   2.914   0.850 -0.0469  0.2343  0.3705
  624TIP3   OH2 1877   1.528   3.570   3.831 -0.3856 -0.6382 -0.0606
  624TIP3    H1 1878   1.468   3.556   3.758 -1.2487  0.7180  0.3703
  624TIP3    H2 1879   1.598   3.506   3.816 -0.8369 -0.7916 -1.7432
  625TIP3   OH2 1880   4.743   4.034   3.327 -0.1867  0.1537 -0.1515
  625TIP3    H1 1881   4.692   4.073   3.256  0.1809 -0.0131 -0.5092
  625TIP3    H2 1882   4.807   3.978   3.283 -2.3935 -3.0750  0.3653
  626TIP3   OH2 1883   6.010   5.298   3.956 -0.4918 -0.6481  0.3962
  626TIP3    H1 1884   5.977   5.294   3.866 -0.3060 -3.1785  0.3742
  626TIP3    H2 1885   5.984   5.385   3.987  0.1302  0.6186 -2.3307
  627TIP3   OH2 1886   5.316   0.998   4.585  0.2295  0.2006 -0.2382
  627TIP3    H1 1887   5.324   1.087   4.553  0.6262  0.3824  0.3532
  627TIP3    H2 1888   5.391   0.986   4.644  1.1071 -1.0591 -1.5303
  628TIP3   OH2 1889   3.269   4.532   4.709 -0.1504  0.3575  0.0804
  628TIP3    H1 1890   3.214   4.461   4.676  0.6535  0.9625 -2.7791
  628TIP3    H2 1891   3.347   4.487   4.742 -1.0171 -0.2658  1.4004
  629TIP3   OH2 1892   2.624   5.450   3.709 -0.5909  0.3432  0.0048
  629TIP3    H1 1893   2.622   5.406   3.624  0.4507  2.0453 -0.9564
  629TIP3    H2 1894   2.657   5.383   3.770 -0.0601 -0.5080 -1.1789
  630TIP3   OH2 1895   2.154   5.498   1.697  0.2588 -0.2084  0.1730
  630TIP3    H1 1896   2.229   5.531   1.748 -0.1459  0.8443  0.1244
  630TIP3    H2 1897   2.187   5.419   1.654  2.2435  1.6509 -2.0045
  631TIP3   OH2 1898   0.773   2.453   0.326  0.0911  0.6144  0.3663
  631TIP3    H1 1899   0.778   2.501   0.409  0.5590  0.1650  0.6115
  631TIP3    H2 1900   0.800   2.364   0.350  0.1055  0.4539 -0.2476
  632TIP3   OH2 1901   1.313   4.613   2.266 -0.2768  0.1568 -0.2131
  632TIP3    H1 1902   1.384   4.638   2.326  0.0156  0.6109 -0.7414
  632TIP3    H2 1903   1.261   4.693   2.257 -0.7587 -0.1292  0.0343
  633TIP3   OH2 1904   2.916   1.085   3.185  0.2646 -0.1799  0.2234
  633TIP3    H1 1905   2.833   1.090   3.232 -0.1117 -1.5275 -0.2591
  633TIP3    H2 1906   2.913   1.001   3.140  1.6132  0.0512 -0.3386
  634TIP3   OH2 1907   0.250   2.133   1.633 -0.1232 -0.2898 -0.5625
  634TIP3    H1 1908   0.187   2.158   1.701 -0.6953 -0.6521 -0.9558
  634TIP3    H2 1909   0.328   2.186   1.653  0.8120 -2.4312  2.1115
  635TIP3   OH2 1910   6.284   1.977   4.802  0.1262 -0.2271 -0.5322
  635TIP3    H1 1911   6.228   1.925   4.746 -0.9500  0.0940  0.2090
  635TIP3    H2 1912   6.372   1.945   4.785 -0.1307  0.0057 -2.5478
  636TIP3   OH2 1913   1.798   2.683   3.554  0.3512  0.4345 -0.2393
  636TIP3    H1 1914   1.724   2.684   3.493  0.7028 -0.5668 -0.7114
  636TIP3    H2 1915   1.850   2.608   3.526  0.7491  0.2198  1.0482
  637TIP3   OH2 1916   0.488   5.050   3.963 -0.0497  0.2051  0.2970
  637TIP3    H1 1917   0.518   5.126   4.013  1.2418 -1.3665  2.0304
  637TIP3    H2 1918   0.566   4.997   3.951 -0.8289 -0.6390 -1.3434
  638TIP3   OH2 1919   1.952   5.701   4.756 -0.3147 -0.7155 -0.4446
  638TIP3    H1 1920   1.862   5.733   4.757 -0.3119 -0.7098  0.0639
  638TIP3    H2 1921   1.954   5.634   4.688 -0.9341 -1.3740  0.1734
  639TIP3   OH2 1922   2.908   0.818   1.749  0.7646 -0.4516 -0.1863
  639TIP3    H1 1923   2.913   0.735   1.796  0.1577 -1.4912 -1.8434
  639TIP3    H2 1924   2.968   0.806   1.675 -0.2906  0.0676 -1.1630
  640TIP3   OH2 1925   1.116   4.167   3.851  0.2459 -0.0499  0.1899
  640TIP3    H1 1926   1.164   4.093   3.815 -0.9578 -0.7510 -0.0498
  640TIP3    H2 1927   1.107   4.229   3.779  0.6946  0.0490  0.2150
  641TIP3   OH2 1928   2.426   3.782   5.171  0.0550  0.0992 -0.0593
  641TIP3    H1 1929   2.363   3.789   5.243 -0.5792  0.1601 -0.6099
  641TIP3    H2 1930   2.416   3.692   5.140 -0.0122  0.2160 -0.3763
  642TIP3   OH2 1931   3.330   3.649   0.515 -0.1750  0.2224 -0.2368
  642TIP3    H1 1932   3.363   3.559   0.506  1.9779  0.9731 -0.5839
  642TIP3    H2 1933   3.314   3.660   0.608 -3.4356 -1.4169 -0.4802
  643TIP3   OH2 1934   3.077   2.137   4.530  0.3331  0.2725  0.1974
  643TIP3    H1 1935   3.163   2.179   4.531  0.6168 -0.2926  0.8010
  643TIP3    H2 1936   3.058   2.125   4.437  0.1369  1.9016  0.0062
  644TIP3   OH2 1937   2.800   2.883   4.256 -0.5170 -0.1416  0.1034
  644TIP3    H1 1938   2.779   2.876   4.349  0.6040 -0.6243  0.3320
  644TIP3    H2 1939   2.809   2.792   4.226  0.9903  0.0241 -0.0187
  645TIP3   OH2 1940   2.401   5.774   1.607  0.0702 -0.0610  0.3814
  645TIP3    H1 1941   2.388   5.708   1.675 -0.1768 -2.2468 -1.6669
  645TIP3    H2 1942   2.347   5.848   1.635 -0.5910 -1.1683  2.1792
  646TIP3   OH2 1943   5.096   1.220   3.136 -0.0367  0.5257  0.3663
  646TIP3    H1 1944   5.092   1.212   3.040 -0.0153 -0.7484  0.4476
  646TIP3    H2 1945   5.006   1.242   3.162  0.6063  4.4834 -0.1533
  647TIP3   OH2 1946   2.529   4.540   1.545  0.0336  0.1563  0.0996
  647TIP3    H1 1947   2.570   4.474   1.489 -0.2615 -0.1543  0.2386
  647TIP3    H2 1948   2.446   4.560   1.500  0.1682  0.5034  0.0080
  648TIP3   OH2 1949   2.894   4.028   1.366  0.1517  0.0333 -0.2866
  648TIP3    H1 1950   2.865   3.957   1.424  0.4471 -1.5346 -1.9477
  648TIP3    H2 1951   2.988   4.034   1.383 -0.1130  1.1615  0.9741
  649TIP3   OH2 1952   1.849   5.080   3.422 -0.4151 -0.1611  0.2606
  649TIP3    H1 1953   1.837   5.058   3.329 -0.1026  0.0544  0.1678
  649TIP3    H2 1954   1.771   5.131   3.445 -1.4968 -1.8734  0.6522
  650TIP3   OH2 1955   1.316   1.768   0.791 -0.3568 -0.6296 -0.1607
  650TIP3    H1 1956   1.253   1.838   0.776  0.3501 -0.1456 -1.0289
  650TIP3    H2 1957   1.321   1.722   0.707  0.1732 -0.8705 -0.0037
  651TIP3   OH2 1958   1.797   4.856   1.099 -0.1673  0.0215  0.0130
  651TIP3    H1 1959   1.854   4.866   1.023  0.3851 -0.5185  0.3454
  651TIP3    H2 1960   1.856   4.856   1.174 -0.6728  0.1967  0.4204
  652TIP3   OH2 1961   3.709   3.727   3.310 -0.1075  0.1501  0.0069
  652TIP3    H1 1962   3.776   3.755   3.247 -0.4795  2.5179  0.5442
  652TIP3    H2 1963   3.756   3.720   3.393 -0.2369  0.2854  0.0911
  653TIP3   OH2 1964   1.907   0.230   4.882 -0.0207 -0.1081  0.0033
  653TIP3    H1 1965   1.924   0.221   4.976 -0.7466  1.1672  0.2839
  653TIP3    H2 1966   1.833   0.172   4.865  0.3704 -0.6452  0.1432
  654TIP3   OH2 1967   3.437   1.957   2.366 -0.4505  0.1756  0.3809
  654TIP3    H1 1968   3.517   1.962   2.314 -0.9911  0.5565 -0.4535
  654TIP3    H2 1969   3.462   1.989   2.453  0.3135  0.2119  0.1527
  655TIP3   OH2 1970   4.002   4.035   4.424  0.5292  0.2813  0.2877
  655TIP3    H1 1971   4.050   4.058   4.344  1.1761  1.3927  0.9617
  655TIP3    H2 1972   4.040   4.092   4.491  0.3525 -0.9785  1.5044
  656TIP3   OH2 1973   2.385   1.172   1.008 -0.7531 -0.1359  0.1601
  656TIP3    H1 1974   2.452   1.220   0.959 -0.6188 -0.5125 -0.0289
  656TIP3    H2 1975   2.434   1.101   1.051 -1.0422 -0.4574 -0.0410
  657TIP3   OH2 1976   3.713   4.718   0.301 -0.5840  0.2671  0.4959
  657TIP3    H1 1977   3.778   4.783   0.328  1.1314 -0.7383 -0.9720
  657TIP3    H2 1978   3.667   4.759   0.228  2.1749 -0.8890 -2.1150
  658TIP3   OH2 1979   4.171   0.286   1.695 -0.0268  1.3429  0.2576
  658TIP3    H1 1980   4.241   0.228   1.725  0.3947  1.2753 -0.8368
  658TIP3    H2 1981   4.130   0.239   1.622 -2.4680  0.5061  2.0236
  659TIP3   OH2 1982   5.290   2.773   1.164 -0.2530  0.1533  0.5162
  659TIP3    H1 1983   5.382   2.765   1.187 -0.3840  0.2264  1.0725
  659TIP3    H2 1984   5.291   2.818   1.079  0.1893  1.1461  1.0278
  660TIP3   OH2 1985   2.821   1.805   1.552  0.1580  0.4415 -0.3421
  660TIP3    H1 1986   2.847   1.722   1.592  1.2640  1.4040  1.0804
  660TIP3    H2 1987   2.762   1.845   1.617 -1.0780  0.4105 -1.4018
  661TIP3   OH2 1988   2.459   1.904   0.401 -0.4459 -0.3461 -0.2000
  661TIP3    H1 1989   2.373   1.870   0.423 -0.6586 -0.4400 -1.1504
  661TIP3    H2 1990   2.444   1.995   0.377  0.1655  0.6013  2.6714
  662TIP3   OH2 1991   5.398   3.595   5.004  0.7188 -0.4855  0.4743
  662TIP3    H1 1992   5.378   3.676   4.957  0.5445 -1.5386 -1.3775
  662TIP3    H2 1993   5.397   3.620   5.096  0.0227  1.4687 -0.0041
  663TIP3   OH2 1994   4.943   5.127   2.320 -0.4476  0.3291 -0.0254
  663TIP3    H1 1995   5.036   5.129   2.300 -0.2566  0.9067  0.8836
  663TIP3    H2 1996   4.901   5.105   2.237  0.4940  0.0368 -0.4360
  664TIP3   OH2 1997   3.821   4.151   3.332 -0.1522  0.3850 -0.2161
  664TIP3    H1 1998   3.726   4.159   3.330 -0.2445  0.3684  1.7147
  664TIP3    H2 1999   3.846   4.189   3.416  1.6651  1.2933 -1.1160
  665TIP3   OH2 2000   5.324   3.770   1.017 -0.4726  0.0496 -1.1040
  665TIP3    H1 2001   5.334   3.842   1.079 -1.4013 -1.6726  1.2164
  665TIP3    H2 2002   5.353   3.806   0.933  3.2903  1.8490  0.7141
  666TIP3   OH2 2003   2.985   4.561   2.660 -0.2537  0.2482  0.2001
  666TIP3    H1 2004   3.005   4.572   2.753 -0.6851 -1.7909  0.5773
  666TIP3    H2 2005   2.929   4.636   2.638 -0.3958  0.5943  1.6596
  667TIP3   OH2 2006   1.571   4.076   1.228 -0.0581 -0.9626  0.4329
  667TIP3    H1 2007   1.504   4.137   1.257  0.7116  0.9641 -1.5379
  667TIP3    H2 2008   1.524   3.995   1.210 -1.5327 -0.2281  0.8606
  668TIP3   OH2 2009   1.855   5.653   4.053  0.4322  0.3388 -0.2673
  668TIP3    H1 2010   1.887   5.731   4.097  1.2544  0.0904 -0.4020
  668TIP3    H2 2011   1.885   5.663   3.962  0.1833  0.0620 -0.3829
  669TIP3   OH2 2012   2.011   4.356   3.604 -0.0539 -0.2204 -0.0325
  669TIP3    H1 2013   2.098   4.376   3.639 -0.2800 -0.4290  0.6740
  669TIP3    H2 2014   1.972   4.441   3.584  1.6230 -0.1431 -3.7857
  670TIP3   OH2 2015   0.841   5.928   1.781  0.0204 -0.0275 -0.1841
  670TIP3    H1 2016   0.921   5.886   1.747 -0.2690 -0.6758 -0.0784
  670TIP3    H2 2017   0.773   5.904   1.718 -0.2127  0.0313  0.0452
  671TIP3   OH2 2018   2.554   0.667   2.722  0.3956  0.7576  0.2841
  671TIP3    H1 2019   2.647   0.650   2.702  0.5579  0.5442  1.1602
  671TIP3    H2 2020   2.554   0.689   2.815 -0.3462  1.5136  0.1084
  672TIP3   OH2 2021   1.272   2.730   5.161 -0.5484 -0.3674  0.1865
  672TIP3    H1 2022   1.342   2.747   5.224  1.1971 -1.1147 -1.4441
  672TIP3    H2 2023   1.235   2.816   5.142  0.7498  0.2190  0.2088
  673TIP3   OH2 2024   5.137   5.603   2.130  0.8916  0.0230  0.9948
  673TIP3    H1 2025   5.175   5.612   2.043  0.4542 -0.2982  0.7668
  673TIP3    H2 2026   5.076   5.677   2.137  1.1885  0.2568  1.1732
  674TIP3   OH2 2027   2.068   2.412   1.195  0.8524 -0.1766  0.0590
  674TIP3    H1 2028   2.129   2.404   1.122  1.9569  1.8955  0.6655
  674TIP3    H2 2029   2.016   2.490   1.175 -0.6679 -1.1011  0.2408
  675TIP3   OH2 2030   1.148   2.260   2.239 -0.0159 -0.2651 -0.0790
  675TIP3    H1 2031   1.162   2.346   2.199  0.0009 -0.0623  0.3548
  675TIP3    H2 2032   1.236   2.226   2.253 -0.0140 -0.1968  0.0781
  676TIP3   OH2 2033   5.188   5.767   4.491  0.3472  0.2215  0.1480
  676TIP3    H1 2034   5.231   5.684   4.510  2.4464  1.3933  0.8467
  676TIP3    H2 2035   5.095   5.750   4.506  0.8008 -1.7797  1.0272
  677TIP3   OH2 2036   5.771   4.444   3.930  0.2799  0.0185 -0.5472
  677TIP3    H1 2037   5.754   4.449   4.024  0.6378 -1.2901 -0.4016
  677TIP3    H2 2038   5.780   4.351   3.911 -1.9286  0.0630 -2.2750
  678TIP3   OH2 2039   2.442   5.281   0.910  0.3181 -0.5197  0.1006
  678TIP3    H1 2040   2.473   5.333   0.836  2.8400 -0.7113  0.9321
  678TIP3    H2 2041   2.420   5.196   0.872  0.2119 -0.1732 -0.6309
  679TIP3   OH2 2042   5.614   4.839   2.377  0.4406 -0.6802  0.1518
  679TIP3    H1 2043   5.608   4.923   2.331  1.6224 -1.2388 -1.0852
  679TIP3    H2 2044   5.525   4.803   2.373 -0.5415  1.2707  2.2960
  680TIP3   OH2 2045   3.999   1.511   4.027  0.4264  0.0338  0.4994
  680TIP3    H1 2046   3.990   1.600   3.994 -1.9988  0.2638  1.5441
  680TIP3    H2 2047   4.093   1.496   4.030  0.8829  2.2793 -0.4224
  681TIP3   OH2 2048   4.963   1.387   0.358 -0.3365  0.1513  0.0304
  681TIP3    H1 2049   4.929   1.465   0.315 -0.5009 -0.1348 -0.3676
  681TIP3    H2 2050   4.974   1.323   0.287 -0.0672 -0.1381  0.3284
  682TIP3   OH2 2051   0.751   5.941   1.083  0.0714  0.3917  0.2512
  682TIP3    H1 2052   0.669   5.959   1.037 -0.4941  1.9768  1.7794
  682TIP3    H2 2053   0.735   5.858   1.129  0.5111 -1.0097 -1.9502
  683TIP3   OH2 2054   1.490   1.771   2.312  0.3205  0.4894  0.2897
  683TIP3    H1 2055   1.555   1.840   2.294  0.0773  0.3882 -1.0132
  683TIP3    H2 2056   1.438   1.765   2.232 -0.6614 -0.1412  0.9567
  684TIP3   OH2 2057   1.350   4.261   4.670  0.5266 -0.4132  0.1140
  684TIP3    H1 2058   1.314   4.318   4.603  1.1596 -1.9688 -1.6557
  684TIP3    H2 2059   1.421   4.311   4.709 -1.4793  1.5088  1.5123
  685TIP3   OH2 2060  -0.009   4.176   2.031 -0.3184 -0.1944 -0.2984
  685TIP3    H1 2061  -0.015   4.087   2.068 -3.7377 -0.2748 -0.7509
  685TIP3    H2 2062   0.029   4.228   2.102 -1.1519 -1.4509  1.1294
  686TIP3   OH2 2063   0.807   1.891   4.072 -0.4598 -0.1433 -0.1982
  686TIP3    H1 2064   0.762   1.812   4.042  1.0017 -0.6846 -1.1050
  686TIP3    H2 2065   0.828   1.938   3.992  1.0186 -0.1826  0.1350
  687TIP3   OH2 2066   6.285   2.191   4.981 -0.1322 -0.6623  0.6747
  687TIP3    H1 2067   6.287   2.116   4.922  0.0484 -0.1110 -0.0229
  687TIP3    H2 2068   6.367   2.185   5.030  0.2929 -0.4317  0.0039
  688TIP3   OH2 2069   1.987   3.069   1.996  0.5310  0.5438  0.1282
  688TIP3    H1 2070   1.985   3.043   2.088  0.7784 -0.7074 -0.2110
  688TIP3    H2 2071   1.895   3.088   1.975  0.2714 -0.5241  0.2616
  689TIP3   OH2 2072   5.123   4.867   3.765  0.0588  0.0661  0.8530
  689TIP3    H1 2073   5.204   4.918   3.766  0.2907 -0.2255 -0.6046
  689TIP3    H2 2074   5.060   4.922   3.718  0.3070 -0.9203 -0.7157
  690TIP3   OH2 2075   0.170   2.982   0.600  0.0593  0.3753  1.0642
  690TIP3    H1 2076   0.077   2.989   0.621  0.6623  1.7032  3.7528
  690TIP3    H2 2077   0.207   3.066   0.627  1.8123  0.6439 -1.6982
  691TIP3   OH2 2078   6.130   4.433   3.348 -0.0794 -0.6794 -0.3544
  691TIP3    H1 2079   6.166   4.521   3.355 -1.3473 -0.0785 -1.1536
  691TIP3    H2 2080   6.056   4.441   3.288 -0.2146 -2.2927 -0.4603
  692TIP3   OH2 2081   5.902   4.255   4.693  0.0894  0.2069  0.0235
  692TIP3    H1 2082   5.948   4.203   4.628 -0.4402 -1.5042  0.9639
  692TIP3    H2 2083   5.812   4.225   4.690  0.2157 -0.5816  2.1132
  693TIP3   OH2 2084   2.500   1.899   5.058  0.4831 -0.0501  0.1982
  693TIP3    H1 2085   2.421   1.920   5.008  0.7678 -0.4549 -0.4305
  693TIP3    H2 2086   2.469   1.843   5.129  0.3508 -1.2118 -0.7405
  694TIP3   OH2 2087   0.064   5.955   0.909  0.1243 -0.1310 -0.2763
  694TIP3    H1 2088   0.115   6.036   0.904  2.3036 -1.5088 -2.7652
  694TIP3    H2 2089   0.038   5.950   1.001 -0.4443  3.5109 -0.0558
  695TIP3   OH2 2090   4.447   4.427   0.324  0.0091  0.4118  0.4821
  695TIP3    H1 2091   4.369   4.476   0.297  0.7207  0.7698 -1.0318
  695TIP3    H2 2092   4.520   4.482   0.295  0.8781 -2.0202 -2.4756
  696TIP3   OH2 2093   1.640   4.989   1.903 -0.0378 -0.4130 -0.0907
  696TIP3    H1 2094   1.725   4.955   1.875  0.6711  0.2490  1.1406
  696TIP3    H2 2095   1.604   5.032   1.825  0.4606 -1.2455 -0.7950
  697TIP3   OH2 2096   2.116   5.658   3.572 -0.2072  0.5471  0.0667
  697TIP3    H1 2097   2.161   5.575   3.557 -0.2484  0.1390  1.9469
  697TIP3    H2 2098   2.184   5.724   3.561  0.0293  0.2039 -0.5710
  698TIP3   OH2 2099   3.251   3.568   4.609 -0.2756  0.1024 -0.2925
  698TIP3    H1 2100   3.337   3.563   4.653 -0.7821 -3.0684  0.6401
  698TIP3    H2 2101   3.189   3.585   4.680 -0.6716 -0.4901 -0.4878
  699TIP3   OH2 2102   2.278   5.238   4.749 -0.0222 -0.3982 -0.5831
  699TIP3    H1 2103   2.278   5.235   4.654  1.1093 -0.9273 -0.5872
  699TIP3    H2 2104   2.371   5.238   4.773 -0.2856  0.1716  0.5066
  700TIP3   OH2 2105   2.078   1.749   3.882 -0.6622  0.4571 -0.1897
  700TIP3    H1 2106   2.114   1.693   3.951 -1.6815  0.6896  0.5514
  700TIP3    H2 2107   2.031   1.818   3.929  1.1002  2.3463 -1.0441
  701TIP3   OH2 2108   2.258   3.599   3.100  0.2926 -0.0627  0.9886
  701TIP3    H1 2109   2.188   3.626   3.040  1.3237  0.1665 -0.1457
  701TIP3    H2 2110   2.284   3.680   3.144  0.1768 -0.0620  1.0566
  702TIP3   OH2 2111   2.166   2.456   0.025 -0.2257 -0.2329  0.3817
  702TIP3    H1 2112   2.192   2.435  -0.065  2.3254 -1.1315  1.2433
  702TIP3    H2 2113   2.104   2.387   0.048 -0.2733 -0.4679 -0.4191
  703TIP3   OH2 2114   0.206   2.486   3.234  0.2257  0.7261  0.7974
  703TIP3    H1 2115   0.146   2.430   3.185  1.1701 -0.1618  0.6106
  703TIP3    H2 2116   0.255   2.426   3.290  2.7171  0.9888 -0.8758
  704TIP3   OH2 2117   6.005   0.824   1.578 -0.5717 -0.0927  0.5843
  704TIP3    H1 2118   5.924   0.872   1.595 -0.5067  0.0636  0.4555
  704TIP3    H2 2119   6.075   0.888   1.593 -0.4376 -0.3970  1.3234
  705TIP3   OH2 2120   3.775   5.721   1.781  0.4926  0.4827  0.2604
  705TIP3    H1 2121   3.747   5.636   1.815  0.1669  0.4759 -0.0218
  705TIP3    H2 2122   3.863   5.733   1.817  0.2444  0.3723  0.9154
  706TIP3   OH2 2123   3.716   1.671   3.738  0.0842  0.1167  0.2336
  706TIP3    H1 2124   3.632   1.717   3.730 -0.8407 -1.6094 -0.4041
  706TIP3    H2 2125   3.738   1.678   3.831 -0.2218  1.4899  0.2196
  707TIP3   OH2 2126   0.227   0.236   4.589 -0.2840  0.1839 -0.4103
  707TIP3    H1 2127   0.237   0.142   4.577 -2.8841  0.1487 -3.6559
  707TIP3    H2 2128   0.186   0.246   4.675  1.5090 -1.4434  0.6990
  708TIP3   OH2 2129   5.208   1.078   1.190 -0.1259  0.0896 -0.0993
  708TIP3    H1 2130   5.301   1.057   1.179 -0.3511 -0.4354 -1.1344
  708TIP3    H2 2131   5.207   1.146   1.258  1.0372  0.3150 -0.2769
  709TIP3   OH2 2132   0.984   2.861   3.986 -0.1013 -0.2981 -0.6525
  709TIP3    H1 2133   0.948   2.930   4.040 -0.0150 -0.5775 -0.2344
  709TIP3    H2 2134   1.076   2.854   4.013 -0.5089 -1.6903  0.4857
  710TIP3   OH2 2135   1.248   3.599   1.551 -0.4120  0.2587 -0.0224
  710TIP3    H1 2136   1.308   3.664   1.585 -0.0631 -0.4036  0.6766
  710TIP3    H2 2137   1.304   3.532   1.512 -0.8019  0.8718 -1.7015
  711TIP3   OH2 2138   5.205   4.389   4.386  0.0990  0.2684 -0.5272
  711TIP3    H1 2139   5.143   4.319   4.365 -1.2197  1.0704  0.5269
  711TIP3    H2 2140   5.291   4.351   4.367 -0.6904 -0.8614 -2.0683
  712TIP3   OH2 2141   6.011   5.052   2.840  0.3317 -0.1925  0.4888
  712TIP3    H1 2142   6.056   5.135   2.858  2.3980 -1.4096  1.3499
  712TIP3    H2 2143   6.077   4.985   2.858 -1.6588 -2.1081  1.1351
  713TIP3   OH2 2144   0.294   2.490   0.965 -0.3185  0.1442  0.2423
  713TIP3    H1 2145   0.258   2.408   0.996  0.0565 -0.6699 -1.3605
  713TIP3    H2 2146   0.251   2.505   0.881  0.6605  0.8411 -0.1558
  714TIP3   OH2 2147   1.648   3.200   4.518 -0.6359  0.0692  0.3960
  714TIP3    H1 2148   1.612   3.133   4.459 -2.4940  1.6063 -0.3400
  714TIP3    H2 2149   1.735   3.167   4.542 -0.2429 -1.1755 -2.3158
  715TIP3   OH2 2150   6.250   1.759   1.358 -0.1824  0.4081  0.4568
  715TIP3    H1 2151   6.219   1.850   1.354  0.6972  0.7766  1.3943
  715TIP3    H2 2152   6.330   1.759   1.306  1.3740  0.8962  2.6963
  716TIP3   OH2 2153   0.406   0.039   4.390  0.3054  0.1065 -0.4747
  716TIP3    H1 2154   0.470   0.035   4.462  0.4013 -0.2603 -0.5813
  716TIP3    H2 2155   0.460   0.040   4.311  0.2997  2.4702 -0.5280
  717TIP3   OH2 2156   2.684   0.271   1.581  0.0615  0.8005 -0.1879
  717TIP3    H1 2157   2.759   0.218   1.552 -0.4312  0.0173 -0.0620
  717TIP3    H2 2158   2.710   0.304   1.666  0.3979  0.8067 -0.2901
  718TIP3   OH2 2159   5.575   5.305   1.260  0.5694  0.1975 -0.1180
  718TIP3    H1 2160   5.490   5.304   1.216  0.1516  0.8463  0.6539
  718TIP3    H2 2161   5.632   5.354   1.200  0.3227  0.0143 -0.5045
  719TIP3   OH2 2162   0.081   0.568   3.613  0.0179 -0.2087 -0.3485
  719TIP3    H1 2163   0.149   0.624   3.650  0.3612  0.6978 -2.1972
  719TIP3    H2 2164   0.066   0.501   3.679 -0.4435  2.0686  2.0304
  720TIP3   OH2 2165   2.740   1.840   3.763  0.4517 -0.0728  0.6821
  720TIP3    H1 2166   2.701   1.811   3.845  0.6809 -0.2593  0.7287
  720TIP3    H2 2167   2.771   1.929   3.781  1.0653 -0.3451  0.9927
  721TIP3   OH2 2168   0.287   2.495   4.371 -0.1901  0.5722 -0.2149
  721TIP3    H1 2169   0.319   2.518   4.284 -0.5099  0.6985 -0.3010
  721TIP3    H2 2170   0.245   2.575   4.404 -0.0204  0.5423  0.0783
  722TIP3   OH2 2171   2.601   3.029   2.566  0.2662  0.4263  0.0745
  722TIP3    H1 2172   2.670   3.094   2.572  2.7103 -1.8661 -1.3588
  722TIP3    H2 2173   2.625   2.962   2.631 -1.4902  0.2959  0.6441
  723TIP3   OH2 2174   5.591   2.714   2.257  0.2137 -0.1116 -0.3955
  723TIP3    H1 2175   5.561   2.719   2.348  0.9855  2.6771 -0.1987
  723TIP3    H2 2176   5.670   2.660   2.261  0.0702 -0.2802  0.5193
  724TIP3   OH2 2177   1.425   3.647   1.943  0.4618  0.0081 -0.1370
  724TIP3    H1 2178   1.516   3.646   1.910  0.2793 -0.1872 -0.6522
  724TIP3    H2 2179   1.390   3.562   1.916 -0.6794  1.0867 -2.2396
  725TIP3   OH2 2180   1.837   5.866   1.283 -0.8766 -0.2546 -0.4704
  725TIP3    H1 2181   1.848   5.864   1.188  0.6011  0.2565 -0.3264
  725TIP3    H2 2182   1.840   5.959   1.306 -1.1439 -0.3776  0.0947
  726TIP3   OH2 2183   5.548   5.865   2.135 -0.4083 -0.1637 -0.0161
  726TIP3    H1 2184   5.602   5.793   2.167 -0.8703 -0.6995 -0.4219
  726TIP3    H2 2185   5.569   5.939   2.193 -2.2936 -1.4747  2.5646
  727TIP3   OH2 2186   0.406   2.557   1.638  0.1680  0.6364 -0.0009
  727TIP3    H1 2187   0.330   2.538   1.692 -0.9526  1.7627 -1.1005
  727TIP3    H2 2188   0.448   2.632   1.680 -1.0803  1.9414 -0.9756
  728TIP3   OH2 2189   4.972   1.017   5.133 -0.8977  0.1287 -0.4293
  728TIP3    H1 2190   5.054   0.970   5.151 -0.6691 -0.0184 -1.7190
  728TIP3    H2 2191   4.981   1.100   5.181 -1.5911 -1.3240  2.4394
  729TIP3   OH2 2192   4.444   0.861   0.169  0.3110 -0.7071 -0.1391
  729TIP3    H1 2193   4.506   0.793   0.195  0.6923  0.3557  1.9972
  729TIP3    H2 2194   4.361   0.834   0.210 -0.0291 -0.8519 -0.9054
  730TIP3   OH2 2195   1.749   3.468   1.217  0.4475 -0.1798 -0.0583
  730TIP3    H1 2196   1.667   3.423   1.238  0.5756 -1.2808 -1.7070
  730TIP3    H2 2197   1.723   3.551   1.179  0.1364  0.0165  0.5740
  731TIP3   OH2 2198   0.104   0.052   0.578 -0.1397 -0.3824  0.0757
  731TIP3    H1 2199   0.189   0.096   0.582 -0.0251 -0.6243  0.2864
  731TIP3    H2 2200   0.115  -0.016   0.512 -0.5622  0.4233 -0.8585
  732TIP3   OH2 2201   4.836   5.359   1.891  0.2288  0.0462 -0.5758
  732TIP3    H1 2202   4.865   5.278   1.849 -1.1158 -1.9562  2.0200
  732TIP3    H2 2203   4.889   5.365   1.970 -0.8199  0.7873  0.1016
  733TIP3   OH2 2204   5.801   0.121   1.128 -0.1535 -0.3239 -0.1826
  733TIP3    H1 2205   5.812   0.211   1.161  1.0565 -0.6766  0.4309
  733TIP3    H2 2206   5.889   0.083   1.134 -0.3892 -1.1502 -1.6423
  734TIP3   OH2 2207   1.837   1.668   0.165  0.3697 -0.1113 -0.1530
  734TIP3    H1 2208   1.900   1.713   0.221 -1.7158  2.4887  0.3313
  734TIP3    H2 2209   1.791   1.608   0.224  0.3578  0.2566  0.2216
  735TIP3   OH2 2210   0.919   5.749   3.983 -0.4117 -0.4755 -0.2947
  735TIP3    H1 2211   0.974   5.824   4.007 -0.4947 -0.9212  1.4647
  735TIP3    H2 2212   0.981   5.684   3.949 -0.2625  0.1430 -1.2322
  736TIP3   OH2 2213   3.839   3.378   3.294  0.0740 -0.1553 -0.0085
  736TIP3    H1 2214   3.747   3.369   3.270  0.2039 -0.5144 -0.3751
  736TIP3    H2 2215   3.839   3.371   3.390 -0.3537  0.5080  0.0468
  737TIP3   OH2 2216   5.394   3.078   3.701  0.1723 -0.7088 -0.2111
  737TIP3    H1 2217   5.472   3.057   3.650  0.7668  0.4168  0.2167
  737TIP3    H2 2218   5.428   3.123   3.779 -1.0172  1.8360 -1.0660
  738TIP3   OH2 2219   1.617   1.761   3.080  0.4505  0.3292  0.2245
  738TIP3    H1 2220   1.672   1.687   3.053  0.7056  0.8394 -0.7438
  738TIP3    H2 2221   1.680   1.828   3.109  0.4403  1.1681 -1.5192
  739TIP3   OH2 2222   6.184   1.920   3.269 -0.1892  0.0084 -0.8712
  739TIP3    H1 2223   6.165   1.830   3.242 -0.4542 -0.4033  0.6145
  739TIP3    H2 2224   6.107   1.946   3.320  0.4313  0.6476 -0.2589
  740TIP3   OH2 2225   3.275   5.075   3.030  0.3209  0.4409 -0.0327
  740TIP3    H1 2226   3.190   5.061   2.988 -0.0458  0.1226  0.7977
  740TIP3    H2 2227   3.297   5.166   3.010 -0.1299  0.4645 -0.4117
  741TIP3   OH2 2228   0.119   3.195   1.091 -0.0554  0.4348  0.3036
  741TIP3    H1 2229   0.195   3.153   1.050  1.5578  2.0255  1.5040
  741TIP3    H2 2230   0.051   3.190   1.024  1.6515  0.5683 -1.5742
  742TIP3   OH2 2231   4.281   1.599   4.888  0.8717 -0.5504 -0.1269
  742TIP3    H1 2232   4.213   1.584   4.954  2.3803 -0.1539  1.5970
  742TIP3    H2 2233   4.315   1.686   4.907  1.9075 -0.7648 -0.8933
  743TIP3   OH2 2234   5.153   4.677   1.005  0.4061  0.3654 -0.0170
  743TIP3    H1 2235   5.209   4.651   0.932  0.7798 -1.9528  0.9901
  743TIP3    H2 2236   5.091   4.605   1.015 -0.0956  0.9564  1.4837
  744TIP3   OH2 2237   1.328   2.262   1.095 -0.1934  0.4571  0.1971
  744TIP3    H1 2238   1.335   2.168   1.110  2.5968  0.5461 -0.1519
  744TIP3    H2 2239   1.326   2.271   1.000 -1.8333  0.7419  0.2198
  745TIP3   OH2 2240   3.833   4.004   2.675  0.8434  0.7757  0.2890
  745TIP3    H1 2241   3.911   4.022   2.622 -0.1954  1.6072 -1.0445
  745TIP3    H2 2242   3.830   3.908   2.681  1.2430  0.6750 -0.8181
  746TIP3   OH2 2243   5.565   2.502   4.758 -0.2331 -0.3250 -0.1054
  746TIP3    H1 2244   5.644   2.537   4.798 -0.9999  2.8786 -1.1339
  746TIP3    H2 2245   5.597   2.442   4.690  1.2794  0.2488  0.0722
  747TIP3   OH2 2246   4.396   2.300   2.048 -0.1063 -0.1892  0.0049
  747TIP3    H1 2247   4.482   2.257   2.053  0.7446  1.5463  1.9477
  747TIP3    H2 2248   4.404   2.360   1.975  0.4517  0.1452  0.3298
  748TIP3   OH2 2249   2.403   5.031   5.084  0.0221 -0.0407 -0.4155
  748TIP3    H1 2250   2.310   5.027   5.107 -0.4464 -1.9783 -2.3535
  748TIP3    H2 2251   2.432   4.940   5.083  1.8900  0.4998 -0.1551
  749TIP3   OH2 2252   0.783   1.715   3.116 -0.1205 -0.1938 -0.2669
  749TIP3    H1 2253   0.796   1.676   3.030  1.5846  1.2760 -0.7415
  749TIP3    H2 2254   0.712   1.778   3.103 -0.4809 -0.6113 -0.3545
  750TIP3   OH2 2255   5.411   4.726   3.260  0.3914  0.6052  0.3377
  750TIP3    H1 2256   5.357   4.732   3.339 -0.7936 -1.7311 -0.1990
  750TIP3    H2 2257   5.349   4.709   3.189  1.6823 -1.3981 -0.4233
  751TIP3   OH2 2258   4.371   0.324   2.877 -0.1602  0.5421  0.1745
  751TIP3    H1 2259   4.428   0.252   2.903 -0.9957 -0.3697 -0.4338
  751TIP3    H2 2260   4.386   0.332   2.783 -0.2253  1.0254  0.2074
  752TIP3   OH2 2261   4.500   0.427   0.556 -0.4659 -0.2996 -0.1328
  752TIP3    H1 2262   4.444   0.355   0.585 -2.3040 -0.4027 -3.4146
  752TIP3    H2 2263   4.470   0.502   0.607 -2.4151 -0.7556 -0.4988
  753TIP3   OH2 2264   4.569   1.899   0.019 -0.9408  0.0555  0.4338
  753TIP3    H1 2265   4.517   1.852   0.084 -1.2692  0.7449  0.6708
  753TIP3    H2 2266   4.578   1.836  -0.053 -1.5366 -0.3080  0.6653
  754TIP3   OH2 2267   4.435   4.986   1.172 -0.2045  0.5234 -0.4293
  754TIP3    H1 2268   4.407   4.900   1.203  0.0821  1.1200  1.6416
  754TIP3    H2 2269   4.522   4.998   1.210 -0.1248  1.6198 -0.9192
  755TIP3   OH2 2270   5.887   3.099   4.509 -0.2540  0.6859  0.4460
  755TIP3    H1 2271   5.905   3.092   4.603 -3.5371 -0.7440  1.1217
  755TIP3    H2 2272   5.916   3.014   4.474  2.5676  1.8332 -0.2968
  756TIP3   OH2 2273   3.543   3.179   1.567 -0.0409 -1.0663  0.0487
  756TIP3    H1 2274   3.630   3.140   1.563  1.6568  2.1027  2.0153
  756TIP3    H2 2275   3.509   3.154   1.653  0.5693  0.6118  0.8286
  757TIP3   OH2 2276   5.222   4.058   2.461  0.2176 -0.0874  0.8662
  757TIP3    H1 2277   5.279   4.061   2.538  0.0106  1.8691  0.9958
  757TIP3    H2 2278   5.274   4.098   2.391  0.5968 -2.3195 -0.2059
  758TIP3   OH2 2279   2.329   4.692   4.359 -0.1087 -0.1338 -0.1044
  758TIP3    H1 2280   2.408   4.663   4.404  0.4073  0.7227 -0.4231
  758TIP3    H2 2281   2.258   4.678   4.422  0.2821 -0.9710  0.1621
  759TIP3   OH2 2282   1.544   3.592   2.658 -0.0937 -0.1957 -0.2612
  759TIP3    H1 2283   1.547   3.632   2.572  0.4081  1.0445  0.3020
  759TIP3    H2 2284   1.459   3.619   2.694  0.1512  0.2118  0.0314
  760TIP3   OH2 2285   5.510   2.961   3.263 -0.2557  0.7576  0.2761
  760TIP3    H1 2286   5.520   2.988   3.354  0.0269 -0.2353  0.5506
  760TIP3    H2 2287   5.585   2.998   3.218 -0.1436  0.8513  0.5417
  761TIP3   OH2 2288   4.375   1.366   3.242  0.0403 -0.3917  0.3265
  761TIP3    H1 2289   4.453   1.393   3.194  1.8418 -1.9156  2.1955
  761TIP3    H2 2290   4.383   1.411   3.326 -0.8214 -0.9680  0.7240
  762TIP3   OH2 2291   2.752   5.614   0.740  0.1779 -0.1316 -0.0126
  762TIP3    H1 2292   2.816   5.573   0.799  0.7396  1.1100  0.2827
  762TIP3    H2 2293   2.711   5.682   0.793  2.1187  2.4101 -1.4937
  763TIP3   OH2 2294   1.079   5.031   3.650  0.2524 -0.0850  0.1711
  763TIP3    H1 2295   0.990   5.050   3.678 -0.1285  1.4656 -1.8126
  763TIP3    H2 2296   1.135   5.064   3.720 -0.6938  0.9360  0.4580
  764TIP3   OH2 2297   2.930   1.585   0.131  0.4162 -0.0053  0.1381
  764TIP3    H1 2298   2.850   1.544   0.100 -1.2926  0.7087  3.2309
  764TIP3    H2 2299   2.919   1.593   0.226  2.0235  4.4550  0.2145
  765TIP3   OH2 2300   4.196   1.394   1.706 -0.4728  0.8045 -0.3542
  765TIP3    H1 2301   4.115   1.417   1.751 -1.2711 -0.1639 -1.2360
  765TIP3    H2 2302   4.198   1.298   1.708  1.0367  0.8245  0.2932
  766TIP3   OH2 2303   2.584   4.234   4.948  0.0864 -0.3531 -0.4942
  766TIP3    H1 2304   2.607   4.306   4.890  1.7326 -0.3297  0.1230
  766TIP3    H2 2305   2.516   4.186   4.901  0.4796  0.3792 -1.8696
  767TIP3   OH2 2306   6.191   2.988   1.432 -0.4943 -0.3489 -0.3267
  767TIP3    H1 2307   6.202   3.062   1.373 -1.3203 -1.7903 -2.3793
  767TIP3    H2 2308   6.273   2.939   1.425  1.1139  1.5007  2.9248
  768TIP3   OH2 2309   4.202   1.626   1.048  0.0352 -0.1441 -0.2408
  768TIP3    H1 2310   4.248   1.543   1.058  0.4810  0.2469  1.0834
  768TIP3    H2 2311   4.120   1.615   1.095  0.1712  0.2182  0.0867
  769TIP3   OH2 2312   1.996   2.769   1.721  0.0540 -0.0856 -0.6626
  769TIP3    H1 2313   2.054   2.813   1.659  0.9574 -0.1706  0.1015
  769TIP3    H2 2314   1.920   2.826   1.727 -0.6983 -0.7597 -2.8939
  770TIP3   OH2 2315   0.755   4.512   0.886  0.8316 -0.1380  0.5894
  770TIP3    H1 2316   0.776   4.599   0.852  0.7241 -0.6052 -0.7258
  770TIP3    H2 2317   0.697   4.529   0.960  0.9925  0.9132  0.4996
  771TIP3   OH2 2318   2.676   5.099   1.017 -0.6537 -0.6806 -0.0272
  771TIP3    H1 2319   2.587   5.132   1.002  0.7048  3.1175 -0.7888
  771TIP3    H2 2320   2.686   5.029   0.952 -2.4746  0.0830 -1.2208
  772TIP3   OH2 2321   5.932   5.316   1.353 -0.1177 -0.3664  0.4710
  772TIP3    H1 2322   5.994   5.356   1.413 -0.0935 -0.6699  0.6476
  772TIP3    H2 2323   5.846   5.336   1.389 -0.1060 -0.4481  0.5455
  773TIP3   OH2 2324   1.790   5.276   3.909 -0.2876 -0.0881  0.2673
  773TIP3    H1 2325   1.841   5.196   3.918 -1.1876 -0.9700 -1.6818
  773TIP3    H2 2326   1.852   5.342   3.878  0.2259 -0.3491  0.7447
  774TIP3   OH2 2327   1.582   4.028   0.620 -0.4632  0.8104  0.7053
  774TIP3    H1 2328   1.521   4.072   0.680 -1.1703 -0.9183  1.3028
  774TIP3    H2 2329   1.614   3.952   0.668 -0.6682 -0.3513 -0.9095
  775TIP3   OH2 2330   3.461   5.666   0.937  0.0769  0.5044 -0.6864
  775TIP3    H1 2331   3.508   5.721   1.000 -0.3784  0.1695 -0.0487
  775TIP3    H2 2332   3.369   5.679   0.958 -0.0336 -0.7979 -0.2641
  776TIP3   OH2 2333   5.877   2.145   3.888  0.0162 -0.1357 -0.2544
  776TIP3    H1 2334   5.970   2.166   3.900 -0.2834  1.5500 -0.5606
  776TIP3    H2 2335   5.860   2.074   3.949  1.1252  0.6541  1.0239
  777TIP3   OH2 2336   4.300   4.138   5.100 -0.1850  0.7929  0.0910
  777TIP3    H1 2337   4.349   4.161   5.021 -0.7926  1.6833 -0.0323
  777TIP3    H2 2338   4.363   4.090   5.153  0.7956  1.8136 -0.1162
  778TIP3   OH2 2339   1.042   1.445   0.638 -0.5816  0.6091  0.1967
  778TIP3    H1 2340   1.124   1.488   0.615  1.2303 -1.4698  2.2216
  778TIP3    H2 2341   0.991   1.445   0.557  2.7434 -0.8162 -2.1441
  779TIP3   OH2 2342   2.769   4.178   1.150  0.1210 -1.0044 -0.3044
  779TIP3    H1 2343   2.851   4.229   1.148 -0.3753 -0.1335  0.5090
  779TIP3    H2 2344   2.789   4.104   1.207  0.5553 -1.1991 -0.6990
  780TIP3   OH2 2345   4.290   2.322   4.874  0.0965  0.4162 -0.7925
  780TIP3    H1 2346   4.273   2.399   4.821 -0.5728  0.5462 -0.4043
  780TIP3    H2 2347   4.365   2.280   4.832  0.0111  0.8843 -1.4310
  781TIP3   OH2 2348   0.758   5.496   5.112 -0.2499  0.2061 -0.3718
  781TIP3    H1 2349   0.800   5.410   5.106 -0.6008 -0.0082  0.0969
  781TIP3    H2 2350   0.664   5.477   5.108 -0.3278  0.5719 -0.3335
  782TIP3   OH2 2351   4.247   0.052   3.595 -0.0492 -0.4148 -0.6225
  782TIP3    H1 2352   4.289   0.060   3.681 -0.4071  0.8669 -0.5430
  782TIP3    H2 2353   4.173  -0.007   3.610 -1.1234  1.1076  0.3851
  783TIP3   OH2 2354   2.748   1.828   0.397  0.1442  0.0276 -0.4343
  783TIP3    H1 2355   2.655   1.850   0.389  0.0840 -0.3803 -0.9728
  783TIP3    H2 2356   2.752   1.735   0.373  0.4660 -0.4134  1.2437
  784TIP3   OH2 2357   0.724   5.783   0.697 -0.3160 -0.5798  0.6063
  784TIP3    H1 2358   0.662   5.776   0.624  1.2283 -0.9896 -0.7375
  784TIP3    H2 2359   0.687   5.727   0.765 -1.8997 -0.0425  0.2457
  785TIP3   OH2 2360   5.365   1.819   0.785  0.1544  0.1082 -0.3192
  785TIP3    H1 2361   5.326   1.858   0.707  1.7266 -0.8638 -1.6563
  785TIP3    H2 2362   5.303   1.751   0.811 -0.8844  1.1076 -0.0510
  786TIP3   OH2 2363   1.864   2.290   0.904 -0.2156 -0.0518 -0.1490
  786TIP3    H1 2364   1.819   2.231   0.842 -0.2317  0.5250 -0.6908
  786TIP3    H2 2365   1.939   2.322   0.855  0.9977 -1.2508  0.8601
  787TIP3   OH2 2366   1.715   5.271   1.819  0.0306  0.5214 -0.3646
  787TIP3    H1 2367   1.666   5.255   1.899  0.3839 -1.5707 -0.5104
  787TIP3    H2 2368   1.757   5.356   1.833 -1.2115  0.9455  0.9742
  788TIP3   OH2 2369   5.776   4.451   2.729  0.4872  0.2589 -0.2501
  788TIP3    H1 2370   5.703   4.452   2.668  0.9486 -0.8475 -0.8571
  788TIP3    H2 2371   5.839   4.513   2.693  0.5221  0.0178 -0.6116
  789TIP3   OH2 2372   4.767   5.153   3.123 -0.6312 -0.3503  0.3027
  789TIP3    H1 2373   4.740   5.062   3.114 -0.2609 -0.4675  0.3673
  789TIP3    H2 2374   4.770   5.168   3.218  0.6841 -0.6901  0.3268
  790TIP3   OH2 2375   2.840   2.738   0.717 -0.5523 -0.2869 -0.3280
  790TIP3    H1 2376   2.837   2.644   0.697 -0.5616 -0.6004  1.0334
  790TIP3    H2 2377   2.783   2.778   0.651  0.7354 -1.0160 -1.9565
  791TIP3   OH2 2378   3.006   4.298   0.610  0.3744 -0.2090  0.0535
  791TIP3    H1 2379   2.941   4.230   0.595  1.0729 -0.6807 -0.9158
  791TIP3    H2 2380   3.090   4.256   0.594  1.1019 -0.0652  2.8599
  792TIP3   OH2 2381   5.831   5.098   2.272 -0.4111  0.0182 -0.8895
  792TIP3    H1 2382   5.840   5.062   2.183 -0.9440 -0.2609 -0.8364
  792TIP3    H2 2383   5.837   5.022   2.329  0.4505  0.2613 -0.6500
  793TIP3   OH2 2384   0.932   4.658   1.130 -0.1589  0.3038  0.1070
  793TIP3    H1 2385   0.867   4.592   1.156 -1.5088  1.4600 -0.2338
  793TIP3    H2 2386   0.881   4.730   1.096  1.3605  0.9809 -0.8470
  794TIP3   OH2 2387   4.306   2.395   2.546 -0.5168 -0.4263  0.1852
  794TIP3    H1 2388   4.330   2.370   2.457  0.5812  0.8201  0.0904
  794TIP3    H2 2389   4.389   2.417   2.587 -1.2601  2.3507  0.4186
  795TIP3   OH2 2390   5.287   3.965   1.839  0.2249 -0.1297 -0.0734
  795TIP3    H1 2391   5.295   3.879   1.880  1.1259  0.3039  0.7034
  795TIP3    H2 2392   5.210   4.004   1.880  0.5226 -0.0989  0.4633
  796TIP3   OH2 2393   0.237   1.762   0.011 -0.3522  0.0960 -0.0886
  796TIP3    H1 2394   0.257   1.777   0.103  1.0026  1.0677 -0.5192
  796TIP3    H2 2395   0.272   1.675  -0.008  0.4763  0.3997  0.0179
  797TIP3   OH2 2396   1.530   0.539   3.333 -0.0657 -0.0537 -0.7752
  797TIP3    H1 2397   1.593   0.510   3.399 -0.2847  0.7310 -0.2056
  797TIP3    H2 2398   1.558   0.495   3.253  1.7544  0.9236 -0.7439
  798TIP3   OH2 2399   2.176   4.166   1.644  0.2773  0.0281  0.3988
  798TIP3    H1 2400   2.108   4.229   1.666 -2.5271 -2.8462  0.6658
  798TIP3    H2 2401   2.214   4.199   1.562  0.5909  3.1157  1.6488
  799TIP3   OH2 2402   0.414   0.682   2.075 -0.4547 -0.0133  0.2506
  799TIP3    H1 2403   0.322   0.675   2.050 -0.3692  0.9214 -0.3773
  799TIP3    H2 2404   0.419   0.764   2.125  0.2795  0.6717 -0.9180
  800TIP3   OH2 2405   0.196   2.160   2.052 -0.2382  0.1533  0.2514
  800TIP3    H1 2406   0.283   2.179   2.015 -0.7299 -0.2799 -1.1677
  800TIP3    H2 2407   0.135   2.193   1.987 -1.1534  0.5245  1.2843
  801TIP3   OH2 2408   3.525   5.823   0.217 -0.0238  0.7899 -0.0241
  801TIP3    H1 2409   3.619   5.808   0.226 -0.0380 -0.2782 -1.3053
  801TIP3    H2 2410   3.489   5.809   0.305  0.9225  0.4993  0.3253
  802TIP3   OH2 2411   0.895   0.176   2.541 -0.4361 -0.0268 -0.4794
  802TIP3    H1 2412   0.855   0.195   2.626 -0.2495 -0.3262 -0.3213
  802TIP3    H2 2413   0.922   0.261   2.507 -0.0181  0.0410  0.0121
  803TIP3   OH2 2414   1.629   5.098   0.671  0.0268 -0.8442 -0.4479
  803TIP3    H1 2415   1.573   5.173   0.652  0.5207  0.2447  2.1063
  803TIP3    H2 2416   1.687   5.091   0.595 -0.4653  0.9234 -1.0182
  804TIP3   OH2 2417   1.787   1.640   4.758  0.4592 -0.1774 -0.4176
  804TIP3    H1 2418   1.807   1.573   4.693  1.6781  0.8500 -1.1556
  804TIP3    H2 2419   1.720   1.600   4.814  2.2752 -2.6421  0.1956
  805TIP3   OH2 2420   4.789   5.031   2.087 -0.2889  0.1020 -0.0940
  805TIP3    H1 2421   4.716   5.048   2.028  0.4358  0.5113 -0.9069
  805TIP3    H2 2422   4.821   4.944   2.062  0.3656  0.5023 -0.7178
  806TIP3   OH2 2423   0.080   1.368   2.778 -0.1122 -0.4948  0.2434
  806TIP3    H1 2424   0.102   1.333   2.692 -1.6622 -1.4949  0.2154
  806TIP3    H2 2425   0.149   1.335   2.836 -0.1106 -1.4032 -0.2688
  807TIP3   OH2 2426   5.319   4.372   2.423 -0.7732  0.0338  0.3383
  807TIP3    H1 2427   5.237   4.385   2.471 -1.5342 -1.2408 -0.5459
  807TIP3    H2 2428   5.317   4.438   2.353 -0.9120  0.1855  0.4850
  808TIP3   OH2 2429   0.417   4.940   0.271  0.0224  0.2811  0.2117
  808TIP3    H1 2430   0.442   5.024   0.234 -0.4579  0.1040 -0.5440
  808TIP3    H2 2431   0.490   4.916   0.328  1.0071  0.3513 -0.9740
  809TIP3   OH2 2432   1.099   5.234   2.009  0.2827 -0.1041 -0.4304
  809TIP3    H1 2433   1.147   5.293   1.951  0.2829 -0.0707 -0.3970
  809TIP3    H2 2434   1.009   5.266   2.006  0.4064  0.3201  0.1101
  810TIP3   OH2 2435   2.860   2.442   5.092  0.4634 -0.0299 -0.3155
  810TIP3    H1 2436   2.773   2.477   5.113  0.3832  0.3440 -1.2395
  810TIP3    H2 2437   2.889   2.400   5.173 -0.9992 -1.0484 -0.2759
  811TIP3   OH2 2438   1.513   0.307   2.456 -0.2558 -0.9815 -0.7247
  811TIP3    H1 2439   1.584   0.244   2.436 -0.1315 -0.9644 -0.3514
  811TIP3    H2 2440   1.549   0.392   2.430 -1.0867 -1.2449 -2.9142
  812TIP3   OH2 2441   4.475   2.646   3.374 -0.2522  0.0594  0.0384
  812TIP3    H1 2442   4.471   2.588   3.451  0.6440  1.0304  0.8477
  812TIP3    H2 2443   4.516   2.592   3.306  0.3128 -0.3647  0.6962
  813TIP3   OH2 2444   1.711   4.048   3.682 -0.4150  0.4963  0.0028
  813TIP3    H1 2445   1.638   4.024   3.626 -0.2938 -0.7198  0.3397
  813TIP3    H2 2446   1.787   4.049   3.624 -0.6246  1.3251 -0.2600
  814TIP3   OH2 2447   4.911   5.486   2.430  0.2506  0.6522  0.2655
  814TIP3    H1 2448   4.949   5.563   2.473  0.6053 -0.1464  1.4282
  814TIP3    H2 2449   4.817   5.495   2.445  0.4299 -0.0359  1.9867
  815TIP3   OH2 2450   0.121   2.237   4.668 -0.0781  0.3728 -0.0727
  815TIP3    H1 2451   0.128   2.160   4.611  0.2096  0.4742 -0.1775
  815TIP3    H2 2452   0.184   2.220   4.738 -1.3027 -0.3271  0.9055
  816TIP3   OH2 2453   2.427   5.561   0.397 -0.0076  0.1734 -0.0839
  816TIP3    H1 2454   2.385   5.532   0.478  1.3289 -1.8313 -0.0250
  816TIP3    H2 2455   2.461   5.648   0.417  1.8927 -0.9566  2.2029
  817TIP3   OH2 2456   4.416   3.342   1.211 -0.6907 -0.0029 -0.1917
  817TIP3    H1 2457   4.473   3.371   1.140  1.3374 -0.5879  1.1032
  817TIP3    H2 2458   4.351   3.412   1.220  0.4017  1.1798 -1.1061
  818TIP3   OH2 2459   0.273   1.305   2.947 -0.2868  0.2634 -0.1155
  818TIP3    H1 2460   0.348   1.365   2.950 -0.7068  0.7480  1.2839
  818TIP3    H2 2461   0.301   1.228   2.996 -0.4665  0.1596 -0.1738
  819TIP3   OH2 2462   0.067   2.710   4.048  0.1587 -0.6577  0.1582
  819TIP3    H1 2463   0.127   2.725   3.974  1.7746 -0.9171  1.3579
  819TIP3    H2 2464   0.089   2.623   4.079 -0.6200 -0.6105  0.8498
  820TIP3   OH2 2465   6.185   3.566   4.374  0.0793 -0.0618 -0.1675
  820TIP3    H1 2466   6.253   3.506   4.404  0.4202 -0.0448 -0.8966
  820TIP3    H2 2467   6.164   3.618   4.451  1.6110  0.6167 -0.1854
  821TIP3   OH2 2468   0.088   0.701   2.096  0.1865 -1.2054  0.0371
  821TIP3    H1 2469   0.064   0.771   2.035  1.1177 -0.1473  0.8427
  821TIP3    H2 2470   0.029   0.711   2.170  3.3296  1.9634  2.4308
  822TIP3   OH2 2471   4.155   4.116   2.797  0.5316 -0.1807 -0.7420
  822TIP3    H1 2472   4.123   4.205   2.780  0.1185 -0.2924 -0.5723
  822TIP3    H2 2473   4.091   4.079   2.858  0.5727 -0.6710 -0.9877
  823TIP3   OH2 2474   1.473   0.245   1.524 -0.2952 -0.3349  0.0789
  823TIP3    H1 2475   1.549   0.275   1.474 -0.7453  1.0240  0.1594
  823TIP3    H2 2476   1.425   0.325   1.544 -2.1882 -1.2238 -0.6733
  824TIP3   OH2 2477   1.868   2.039   3.001 -0.0920 -0.4861  0.2021
  824TIP3    H1 2478   1.807   2.109   2.979 -0.2765 -0.3377  1.1837
  824TIP3    H2 2479   1.821   1.984   3.063  0.2510 -1.1868 -0.1441
  825TIP3   OH2 2480   1.570   2.727   3.404 -0.0058 -0.4513  0.0890
  825TIP3    H1 2481   1.529   2.740   3.490 -0.9979  2.7078 -0.7371
  825TIP3    H2 2482   1.505   2.676   3.355 -0.6039 -0.0421  0.4318
  826TIP3   OH2 2483   5.427   3.071   4.831 -0.5615 -0.0165  0.1528
  826TIP3    H1 2484   5.521   3.086   4.817 -0.6067 -0.0767 -0.2083
  826TIP3    H2 2485   5.413   3.097   4.922 -0.3718  0.8784 -0.0607
  827TIP3   OH2 2486   1.327   4.379   3.494  0.1454 -0.1563  0.1617
  827TIP3    H1 2487   1.404   4.323   3.504  0.3419  0.0527 -0.1906
  827TIP3    H2 2488   1.284   4.376   3.580  1.6018  1.2934  0.9917
  828TIP3   OH2 2489   0.031   3.541   3.117 -0.1954  0.2759 -0.1153
  828TIP3    H1 2490   0.099   3.597   3.154 -1.2841  2.4464 -1.1947
  828TIP3    H2 2491  -0.026   3.520   3.190 -0.2281  1.3075  0.1672
  829TIP3   OH2 2492   4.918   2.855   4.932  0.1424 -0.2541  0.2482
  829TIP3    H1 2493   4.846   2.795   4.913 -1.2079  1.9012 -2.3821
  829TIP3    H2 2494   4.882   2.915   4.997 -0.9913  1.4150 -1.7666
  830TIP3   OH2 2495   4.105   3.643   2.543 -0.1388  0.1938  0.5240
  830TIP3    H1 2496   4.129   3.733   2.524 -0.2601  0.4271  1.4324
  830TIP3    H2 2497   4.160   3.590   2.484  1.1438  0.7848  1.1556
  831TIP3   OH2 2498   1.794   5.735   1.577  0.1281 -0.0854  0.0429
  831TIP3    H1 2499   1.887   5.750   1.561 -0.3257  1.3767 -1.5834
  831TIP3    H2 2500   1.771   5.660   1.522 -0.0550  0.8373 -1.1714
  832TIP3   OH2 2501   0.830   0.977   0.477  0.1331  0.1343  0.2203
  832TIP3    H1 2502   0.892   0.910   0.506 -0.2697  0.6365  2.4134
  832TIP3    H2 2503   0.768   0.985   0.549 -1.2925  1.1199 -1.0488
  833TIP3   OH2 2504   1.324   4.779   1.326  0.1117 -0.4596 -0.2096
  833TIP3    H1 2505   1.388   4.769   1.256  0.3649 -0.1334 -0.0243
  833TIP3    H2 2506   1.244   4.806   1.281  0.7360  1.5477 -0.2173
  834TIP3   OH2 2507   0.106   5.676   0.972  0.3872 -0.2465 -0.5163
  834TIP3    H1 2508   0.121   5.615   0.899 -1.4804 -1.5914  0.1404
  834TIP3    H2 2509   0.074   5.756   0.930 -1.7709 -1.3807 -1.2049
  835TIP3   OH2 2510   2.683   3.905   3.182  0.1016  0.0129  0.2477
  835TIP3    H1 2511   2.611   3.968   3.194  1.4381  1.2648  2.4227
  835TIP3    H2 2512   2.762   3.956   3.201  1.3678 -1.9305  0.4365
  836TIP3   OH2 2513   1.404   5.807   4.477  0.2530 -0.0767 -0.0505
  836TIP3    H1 2514   1.496   5.785   4.461  0.1971 -0.3841  0.0285
  836TIP3    H2 2515   1.368   5.830   4.392  0.7312  1.3436  0.1034
  837TIP3   OH2 2516   1.962   3.435   2.544  0.5513  0.2419  0.4210
  837TIP3    H1 2517   2.025   3.395   2.604  0.5728  0.4286  0.5251
  837TIP3    H2 2518   1.951   3.371   2.474  0.8765  0.2184  0.3892
  838TIP3   OH2 2519   2.602   2.732   3.923  0.2128  0.0145  0.0239
  838TIP3    H1 2520   2.590   2.763   3.834 -1.7580 -0.2450  0.1689
  838TIP3    H2 2521   2.555   2.794   3.978  0.2629 -0.5768  0.7630
  839TIP3   OH2 2522   1.911   0.262   3.366  0.2053  0.1227 -0.2058
  839TIP3    H1 2523   1.876   0.338   3.412 -0.0681 -0.0682 -0.0901
  839TIP3    H2 2524   1.944   0.297   3.283 -0.1556  0.3290 -0.2653
  840TIP3   OH2 2525   3.201   0.931   3.754  0.1741 -0.1588  0.2934
  840TIP3    H1 2526   3.221   0.992   3.825 -0.1913 -0.0062  0.2677
  840TIP3    H2 2527   3.224   0.978   3.674  0.6466 -0.3547  0.3116
  841TIP3   OH2 2528   2.126   0.270   2.740  0.0151  0.5831 -0.0648
  841TIP3    H1 2529   2.153   0.235   2.825 -1.5499  0.0832  0.2652
  841TIP3    H2 2530   2.138   0.365   2.748  1.2115  0.4217  0.1924
  842TIP3   OH2 2531   2.888   5.375   4.397 -0.8663 -0.6108  0.2367
  842TIP3    H1 2532   2.825   5.364   4.326  0.3922 -1.5668 -0.7934
  842TIP3    H2 2533   2.904   5.469   4.402  0.9454 -0.6476 -2.5926
  843TIP3   OH2 2534   1.972   3.911   5.189  0.3902  0.3131  0.2110
  843TIP3    H1 2535   1.968   3.916   5.093 -0.3009  2.4458  0.2822
  843TIP3    H2 2536   1.959   3.819   5.209  0.6368 -0.1970 -1.7535
  844TIP3   OH2 2537   1.200   2.160   0.650 -0.3174 -0.3746  0.1208
  844TIP3    H1 2538   1.186   2.222   0.579  0.3037 -0.9452 -0.5125
  844TIP3    H2 2539   1.281   2.189   0.692 -0.8337  0.1336  0.8007
  845TIP3   OH2 2540   2.650   2.133   4.965  0.0828  0.4847  0.9006
  845TIP3    H1 2541   2.646   2.066   4.897 -2.3537  0.3236  1.1112
  845TIP3    H2 2542   2.627   2.087   5.046  1.5034  0.9690  1.6161
  846TIP3   OH2 2543   1.974   2.958   4.851  0.0323 -0.0634  0.1015
  846TIP3    H1 2544   1.910   2.889   4.835 -0.1250  0.3578 -1.1969
  846TIP3    H2 2545   2.058   2.920   4.823  0.2851 -0.4098  1.2592
  847TIP3   OH2 2546   5.312   3.497   3.849  0.0329  0.0011 -0.1051
  847TIP3    H1 2547   5.232   3.521   3.800 -0.5440  0.1856  0.9048
  847TIP3    H2 2548   5.380   3.553   3.812 -0.8165  1.5922  0.6575
  848TIP3   OH2 2549   5.524   1.535   4.761  0.1197 -0.3702  0.6334
  848TIP3    H1 2550   5.447   1.581   4.729  0.1337 -0.3826  0.5818
  848TIP3    H2 2551   5.584   1.531   4.686  0.0117 -0.7021  0.5618
  849TIP3   OH2 2552   5.059   3.621   4.790  0.4151 -0.2382  0.0257
  849TIP3    H1 2553   5.055   3.682   4.863  0.3499 -0.2262  0.0119
  849TIP3    H2 2554   5.059   3.535   4.831 -1.9211 -0.3216 -0.0101
  850TIP3   OH2 2555   1.482   4.346   0.114 -0.4526  0.2749  0.5309
  850TIP3    H1 2556   1.457   4.281   0.180  0.6051  0.7939  1.4645
  850TIP3    H2 2557   1.524   4.295   0.045  0.4150 -0.0376  1.2804
  851TIP3   OH2 2558   4.068   5.874   0.289 -0.0852 -0.3801  0.1641
  851TIP3    H1 2559   4.117   5.838   0.215 -0.0359  0.5325 -0.2760
  851TIP3    H2 2560   4.104   5.962   0.300 -0.3315 -0.3866  1.0605
  852TIP3   OH2 2561   1.052   2.210   2.784 -0.7160  0.2962 -0.0165
  852TIP3    H1 2562   1.079   2.296   2.815  0.2715  0.2892 -0.8050
  852TIP3    H2 2563   0.968   2.226   2.741 -0.9512  0.7089  0.5894
  853TIP3   OH2 2564   5.536   3.806   0.502  0.2676  0.3439  0.0520
  853TIP3    H1 2565   5.571   3.855   0.427  0.4095 -0.5859 -0.5013
  853TIP3    H2 2566   5.456   3.853   0.526  0.1743  0.5997 -0.7369
  854TIP3   OH2 2567   1.355   3.526   0.437 -0.1435  0.0456  0.2557
  854TIP3    H1 2568   1.276   3.574   0.462 -0.9792 -1.7793  1.2550
  854TIP3    H2 2569   1.331   3.478   0.358  0.1217 -0.1441  0.2880
  855TIP3   OH2 2570   2.942   3.169   0.815  0.3814  0.5439 -0.2982
  855TIP3    H1 2571   2.980   3.248   0.852  1.0619  0.5818 -1.0438
  855TIP3    H2 2572   2.950   3.104   0.885  0.0992  1.0516  0.2101
  856TIP3   OH2 2573   1.995   1.917   1.383  0.3159  0.2982 -0.5454
  856TIP3    H1 2574   1.925   1.935   1.445  0.7678  0.7042 -0.1379
  856TIP3    H2 2575   2.073   1.957   1.423  0.6874  0.2374 -1.1917
  857TIP3   OH2 2576   4.213   3.756   4.365 -0.5419 -0.6599  0.1206
  857TIP3    H1 2577   4.194   3.703   4.288 -0.5068 -0.7975  0.2062
  857TIP3    H2 2578   4.156   3.832   4.356  0.7563  0.2363 -0.9813
  858TIP3   OH2 2579   4.361   0.843   1.974  0.4921  0.0502  0.2472
  858TIP3    H1 2580   4.314   0.822   1.893  1.8969  1.0000 -0.8711
  858TIP3    H2 2581   4.292   0.850   2.040 -0.5181 -2.7033 -0.3919
  859TIP3   OH2 2582   5.315   0.442   0.600 -0.1367  0.2859 -0.1840
  859TIP3    H1 2583   5.367   0.406   0.672  0.4067 -0.1732 -0.7924
  859TIP3    H2 2584   5.284   0.365   0.552 -0.1949  0.5927 -0.6445
  860TIP3   OH2 2585   1.137   4.283   1.346 -0.0055 -0.2492  0.5176
  860TIP3    H1 2586   1.052   4.273   1.304  0.4175 -1.2118 -0.1548
  860TIP3    H2 2587   1.148   4.378   1.356 -0.2028  0.0282 -1.4522
  861TIP3   OH2 2588   5.532   1.860   2.155  0.3626  0.0736 -0.5382
  861TIP3    H1 2589   5.600   1.925   2.174  0.6319 -0.8401  1.9726
  861TIP3    H2 2590   5.573   1.801   2.091  1.2812  0.5193 -0.3870
  862TIP3   OH2 2591   1.139   4.694   0.290 -0.6513 -0.5329 -0.0947
  862TIP3    H1 2592   1.219   4.660   0.250 -0.4014 -1.2157  0.9424
  862TIP3    H2 2593   1.143   4.789   0.274  1.4110 -0.2313  1.6489
  863TIP3   OH2 2594   6.214   3.407   5.013  0.5241  0.1361 -0.0073
  863TIP3    H1 2595   6.267   3.456   4.950  0.6763 -0.3458 -0.2565
  863TIP3    H2 2596   6.133   3.458   5.021 -0.0102 -0.4136 -1.5146
  864TIP3   OH2 2597   3.900   3.584   4.970  0.4405  0.5197 -0.4519
  864TIP3    H1 2598   3.986   3.553   5.001  0.6617  0.8587 -0.7252
  864TIP3    H2 2599   3.845   3.505   4.970  0.4367  0.4995  0.7892
  865TIP3   OH2 2600   2.695   1.074   1.492  0.2804  0.0293  0.2820
  865TIP3    H1 2601   2.652   1.144   1.443 -0.1540  0.7657  1.6302
  865TIP3    H2 2602   2.625   1.011   1.510  0.7840 -1.0390 -1.3715
  866TIP3   OH2 2603   3.394  -0.006   1.825 -0.1877 -0.1850  0.1240
  866TIP3    H1 2604   3.414   0.071   1.772 -0.2722 -0.0188  0.3296
  866TIP3    H2 2605   3.430   0.015   1.912  0.7767 -0.8395 -0.1055
  867TIP3   OH2 2606   0.856   0.602   0.395  0.1545  0.2000 -0.1038
  867TIP3    H1 2607   0.833   0.618   0.304  1.7713  3.6725 -0.0640
  867TIP3    H2 2608   0.919   0.530   0.391  2.0442  1.8335 -2.0877
  868TIP3   OH2 2609   2.895   5.770   0.242 -0.2782 -0.3134  0.0030
  868TIP3    H1 2610   2.864   5.748   0.330  0.0706  2.3992  0.9258
  868TIP3    H2 2611   2.989   5.785   0.253  0.0473 -1.3705 -1.1801
  869TIP3   OH2 2612   0.470   1.835   4.218 -0.3572  0.5983  0.2097
  869TIP3    H1 2613   0.463   1.831   4.122  1.8885 -0.2215  0.0229
  869TIP3    H2 2614   0.481   1.928   4.237 -2.6574  0.9815 -0.1231
  870TIP3   OH2 2615   0.958   5.740   3.683 -0.1842 -0.0733  0.5835
  870TIP3    H1 2616   0.895   5.798   3.726  0.2729  0.7848  0.1374
  870TIP3    H2 2617   0.940   5.654   3.719 -1.6953  0.1232  0.3870
  871TIP3   OH2 2618   0.334   4.196   2.766 -0.6833  0.2895 -0.0874
  871TIP3    H1 2619   0.240   4.198   2.749 -0.8082  4.0246  0.1170
  871TIP3    H2 2620   0.374   4.189   2.680 -1.1352  0.0267 -0.2798
  872TIP3   OH2 2621   1.635   5.065   2.370  0.3456 -0.3159 -0.3954
  872TIP3    H1 2622   1.683   5.058   2.453 -0.3862 -0.0257  0.0601
  872TIP3    H2 2623   1.664   4.989   2.319  0.2209 -0.9217  0.4276
  873TIP3   OH2 2624   0.855   4.789   0.815 -0.0662 -0.0423  0.1101
  873TIP3    H1 2625   0.948   4.771   0.804 -0.0749 -1.0919  1.4467
  873TIP3    H2 2626   0.847   4.823   0.904 -0.9344  0.3044 -0.0849
  874TIP3   OH2 2627   4.227   4.722   5.079  0.0389  0.2404  0.8422
  874TIP3    H1 2628   4.310   4.740   5.123 -0.7456  2.7981  1.4265
  874TIP3    H2 2629   4.244   4.739   4.987  0.5899 -1.0660  0.6702
  875TIP3   OH2 2630   1.274   2.855   1.877 -0.0429  0.0791  0.0726
  875TIP3    H1 2631   1.347   2.802   1.909  1.4145  1.4676 -0.7708
  875TIP3    H2 2632   1.231   2.887   1.956 -0.6978 -1.9499  0.5867
  876TIP3   OH2 2633   4.255   4.545   3.120  0.4464  0.2395  0.5019
  876TIP3    H1 2634   4.269   4.466   3.171  0.7084  0.1282  0.2622
  876TIP3    H2 2635   4.322   4.542   3.052 -0.0214  0.2884  0.0331
  877TIP3   OH2 2636   6.177   0.432   3.114  0.0480 -0.3909 -0.0306
  877TIP3    H1 2637   6.224   0.515   3.108 -0.7048  0.2464  2.0210
  877TIP3    H2 2638   6.117   0.444   3.188 -0.3060 -2.6508  0.1150
  878TIP3   OH2 2639   4.109   0.787   3.485 -0.1363 -0.3068  0.1854
  878TIP3    H1 2640   4.183   0.758   3.432 -0.1976 -0.2735  0.0813
  878TIP3    H2 2641   4.032   0.770   3.430 -0.2097 -0.3861  0.3115
  879TIP3   OH2 2642   0.644   2.318   3.439  0.1213 -0.4509 -0.4717
  879TIP3    H1 2643   0.701   2.246   3.411  0.9538  0.6143 -1.6085
  879TIP3    H2 2644   0.665   2.390   3.379 -1.2160  0.5131  0.1735
  880TIP3   OH2 2645   2.622   5.057   2.259 -0.2395  0.0629  0.8933
  880TIP3    H1 2646   2.652   4.967   2.256 -0.8713 -0.1337 -1.1530
  880TIP3    H2 2647   2.701   5.110   2.247 -0.1313 -0.3108 -0.1240
  881TIP3   OH2 2648   4.482   1.559   4.453  0.3265 -0.1207  0.2383
  881TIP3    H1 2649   4.572   1.552   4.419  0.4027 -0.1282  0.4391
  881TIP3    H2 2650   4.435   1.608   4.385 -0.0342 -1.8750 -0.8595
  882TIP3   OH2 2651   3.658   5.599   0.603 -0.3441  0.4054  0.0166
  882TIP3    H1 2652   3.701   5.669   0.652  0.0719  1.4997 -1.8396
  882TIP3    H2 2653   3.728   5.537   0.581 -0.5224 -0.0605  0.7252
  883TIP3   OH2 2654   0.257   4.190   4.983 -0.0326 -0.5558 -0.9390
  883TIP3    H1 2655   0.308   4.267   5.007 -0.0211 -0.9397  0.3328
  883TIP3    H2 2656   0.273   4.127   5.053  0.0460 -1.7776 -2.0000
  884TIP3   OH2 2657   4.843   0.872   2.345  0.3339  0.5145 -0.0097
  884TIP3    H1 2658   4.813   0.955   2.309  0.4928  0.1072 -1.1101
  884TIP3    H2 2659   4.820   0.807   2.278  0.8274 -0.2314  0.5290
  885TIP3   OH2 2660   1.139   3.438   4.092 -0.1289  0.3266  0.1915
  885TIP3    H1 2661   1.130   3.357   4.041 -0.1359  0.9328 -0.8017
  885TIP3    H2 2662   1.122   3.508   4.029  1.4215  1.1720  0.6484
  886TIP3   OH2 2663   6.207   2.347   2.495 -0.1588  0.3339 -0.0781
  886TIP3    H1 2664   6.249   2.431   2.477 -1.3087  1.0560  0.4793
  886TIP3    H2 2665   6.280   2.284   2.498  0.8229  1.4507  0.3705
  887TIP3   OH2 2666   0.737   3.038   3.805  0.4136 -0.5939  0.1267
  887TIP3    H1 2667   0.793   2.964   3.781  1.7624  0.6778 -0.8199
  887TIP3    H2 2668   0.742   3.097   3.730 -0.4238  0.5740  0.9585
  888TIP3   OH2 2669   2.887   1.949   2.379 -0.0340 -0.7311 -0.0503
  888TIP3    H1 2670   2.976   1.926   2.349  0.1003  0.5146 -0.6822
  888TIP3    H2 2671   2.899   1.974   2.470  0.2616 -0.5891 -0.1247
  889TIP3   OH2 2672   3.777   4.932   2.780  0.0895 -0.3865  0.8142
  889TIP3    H1 2673   3.873   4.937   2.776  0.3426 -1.1404  3.6049
  889TIP3    H2 2674   3.754   4.865   2.716  1.3959 -0.0015 -0.0914
  890TIP3   OH2 2675   1.730   3.763   4.418  0.3444 -0.0993  0.1285
  890TIP3    H1 2676   1.697   3.717   4.495  0.8319 -0.4807  0.1123
  890TIP3    H2 2677   1.729   3.697   4.348 -0.6065  0.3882 -0.3326
  891TIP3   OH2 2678   2.416   5.420   2.063 -0.1745 -0.0731 -0.3920
  891TIP3    H1 2679   2.408   5.329   2.092  0.4595 -0.2360 -0.6949
  891TIP3    H2 2680   2.430   5.470   2.144 -1.5298 -0.0990 -0.1208
  892TIP3   OH2 2681   4.469   5.817   1.511 -0.5297  0.2288  0.1494
  892TIP3    H1 2682   4.421   5.808   1.593  0.5445  0.3788  0.8171
  892TIP3    H2 2683   4.475   5.912   1.497 -0.8261  0.2000 -0.1717
  893TIP3   OH2 2684   1.385   1.470   2.408 -0.1197  0.1286 -0.1129
  893TIP3    H1 2685   1.462   1.429   2.447  0.4754  1.8433  0.6395
  893TIP3    H2 2686   1.417   1.557   2.381 -1.1043 -0.1358 -2.3230
  894TIP3   OH2 2687   4.209   4.876   0.872 -0.0269 -0.3655  0.3255
  894TIP3    H1 2688   4.297   4.894   0.841  0.0397  0.9890  1.2273
  894TIP3    H2 2689   4.153   4.891   0.795  0.4092  0.0848  0.0898
  895TIP3   OH2 2690   1.844   0.145   1.680 -0.5659 -0.2268  0.4516
  895TIP3    H1 2691   1.784   0.079   1.716 -1.0196 -0.0222  0.0757
  895TIP3    H2 2692   1.898   0.171   1.755 -0.8561 -0.5078  0.7642
  896TIP3   OH2 2693   4.128   1.541   3.509 -0.4073  0.2858 -0.3642
  896TIP3    H1 2694   4.215   1.549   3.472 -0.0059 -0.7715  0.3267
  896TIP3    H2 2695   4.139   1.486   3.587 -2.0890 -2.0792 -1.6902
  897TIP3   OH2 2696   4.517   3.372   1.492 -0.1149 -0.0909 -0.5270
  897TIP3    H1 2697   4.457   3.394   1.420  0.0701 -2.3797 -1.4698
  897TIP3    H2 2698   4.604   3.394   1.458 -0.2194  1.5287  0.1543
  898TIP3   OH2 2699   2.888   4.530   3.158 -0.1098  0.1572 -0.0396
  898TIP3    H1 2700   2.938   4.519   3.239 -1.1574  0.5154  0.6816
  898TIP3    H2 2701   2.946   4.499   3.089  0.5759 -0.7579  0.9137
  899TIP3   OH2 2702   6.149   1.220   1.490 -0.3532 -0.5141 -0.0769
  899TIP3    H1 2703   6.121   1.190   1.404 -0.5368  1.2850 -0.6731
  899TIP3    H2 2704   6.162   1.314   1.480 -1.2969 -0.0931  2.0825
  900TIP3   OH2 2705   0.612   0.906   1.276 -0.5217 -0.3646  0.8279
  900TIP3    H1 2706   0.569   0.845   1.216  1.0305  0.2002 -0.9662
  900TIP3    H2 2707   0.569   0.990   1.260  0.6592  0.0353 -0.4042
  901TIP3   OH2 2708   0.534   1.384   4.668  0.8712 -0.1007  0.3861
  901TIP3    H1 2709   0.603   1.449   4.682  1.3671 -0.1394 -1.5749
  901TIP3    H2 2710   0.456   1.424   4.706  1.6897  0.4985  1.5106
  902TIP3   OH2 2711   5.672   2.690   0.869  0.5873 -0.0691  0.5554
  902TIP3    H1 2712   5.577   2.685   0.876  0.3415  1.0698 -1.2739
  902TIP3    H2 2713   5.699   2.607   0.830  0.2284 -0.0601  0.2856
  903TIP3   OH2 2714   4.193   5.082   1.084 -0.2536 -0.2480  0.3507
  903TIP3    H1 2715   4.269   5.057   1.136  0.5266  1.1400 -0.0733
  903TIP3    H2 2716   4.176   5.006   1.029  0.8632 -0.5598  0.4124
  904TIP3   OH2 2717   3.132   2.892   1.678  1.3094  0.5330 -0.5110
  904TIP3    H1 2718   3.111   2.985   1.671 -0.7169  0.1922  0.2691
  904TIP3    H2 2719   3.128   2.859   1.589  0.9638  0.9908 -0.6676
  905TIP3   OH2 2720   4.164   5.944   2.112  0.2759 -0.1345  0.3704
  905TIP3    H1 2721   4.145   6.038   2.118  0.5350 -0.1844  3.2848
  905TIP3    H2 2722   4.257   5.937   2.134  1.0436 -0.9030 -2.6734
  906TIP3   OH2 2723   0.811   0.333   0.077 -0.3329 -0.2340  0.2469
  906TIP3    H1 2724   0.817   0.247   0.118 -0.6745  0.3533  1.5700
  906TIP3    H2 2725   0.732   0.328   0.023  0.5881 -1.2881 -1.0636
  907TIP3   OH2 2726   5.939   1.979   3.067 -0.1600 -0.0006 -0.6882
  907TIP3    H1 2727   5.936   2.054   3.126  0.1225 -1.4200  1.2280
  907TIP3    H2 2728   5.872   1.919   3.101  1.5579 -1.8471 -0.3377
  908TIP3   OH2 2729   1.525   5.480   3.720  0.0987 -0.1902  0.1882
  908TIP3    H1 2730   1.474   5.513   3.645 -0.4231  0.4624  0.8180
  908TIP3    H2 2731   1.608   5.454   3.682 -0.2001  0.0247 -0.6473
  909TIP3   OH2 2732   4.973   3.170   4.891 -0.8644  0.2691 -0.5988
  909TIP3    H1 2733   5.020   3.235   4.943 -1.7209 -0.4305  1.1472
  909TIP3    H2 2734   4.910   3.131   4.952 -1.0613 -1.5005 -1.8307
  910TIP3   OH2 2735   0.504   1.928   2.281 -0.2193 -0.1410 -0.0007
  910TIP3    H1 2736   0.434   1.992   2.297  0.7329  1.1105 -0.6442
  910TIP3    H2 2737   0.512   1.924   2.186  1.5050  0.8452  0.0448
  911TIP3   OH2 2738   2.831   3.409   3.765  0.1344  0.4043 -0.0233
  911TIP3    H1 2739   2.738   3.414   3.784 -0.3038 -0.8195 -1.6113
  911TIP3    H2 2740   2.841   3.328   3.715  2.3099 -0.3628  1.4546
  912TIP3   OH2 2741   1.226   3.400   1.297 -0.9996 -0.0222  0.0323
  912TIP3    H1 2742   1.232   3.482   1.247  0.9195 -0.2801 -0.2272
  912TIP3    H2 2743   1.158   3.416   1.362 -0.8208  1.6937 -0.1676
  913TIP3   OH2 2744   2.691   5.146   3.740  0.4473 -0.2284  0.1978
  913TIP3    H1 2745   2.679   5.116   3.830  0.7972 -0.2232  0.2461
  913TIP3    H2 2746   2.766   5.097   3.708  1.8802  1.5310  0.7062
  914TIP3   OH2 2747   2.395   4.985   2.449  0.6398  0.0072 -0.2215
  914TIP3    H1 2748   2.354   5.044   2.386  0.1343 -1.3748 -1.2166
  914TIP3    H2 2749   2.428   4.913   2.397  3.3570  0.4837  0.6744
  915TIP3   OH2 2750   6.076   4.994   4.449 -0.0270  0.0771  0.1550
  915TIP3    H1 2751   6.069   4.931   4.520 -0.0004  1.1454  1.1333
  915TIP3    H2 2752   6.017   4.961   4.382 -1.5619  0.0602  1.4573
  916TIP3   OH2 2753   6.137   2.704   4.070 -0.0701 -0.3012  0.5412
  916TIP3    H1 2754   6.074   2.657   4.124  0.3325 -0.5924  0.7673
  916TIP3    H2 2755   6.220   2.659   4.085 -0.2686 -1.5611 -1.7245
  917TIP3   OH2 2756   3.762   2.123   3.679 -1.3898  0.4989  0.6450
  917TIP3    H1 2757   3.716   2.154   3.758 -1.6492  1.9731 -0.0444
  917TIP3    H2 2758   3.820   2.054   3.711 -1.7142  0.8425  2.0810
  918TIP3   OH2 2759   4.535   0.010   4.309 -0.5721 -0.5179  0.5682
  918TIP3    H1 2760   4.493  -0.038   4.238  0.3670 -0.0147 -0.3657
  918TIP3    H2 2761   4.467   0.067   4.345 -1.0592 -0.7846  0.0666
  919TIP3   OH2 2762   5.637   4.797   3.374 -0.0116  0.1731 -0.0594
  919TIP3    H1 2763   5.562   4.757   3.329 -0.0750 -0.5971  0.7142
  919TIP3    H2 2764   5.713   4.770   3.322 -0.1015 -0.5651  0.1875
  920TIP3   OH2 2765   0.646   1.304   1.320  0.5582 -0.8519  0.0898
  920TIP3    H1 2766   0.558   1.336   1.298  0.6322  0.2281  1.2758
  920TIP3    H2 2767   0.633   1.248   1.396  0.9469 -0.1660  0.6823
  921TIP3   OH2 2768   6.023   1.954   4.937  0.7672  0.2317 -0.2096
  921TIP3    H1 2769   6.005   2.037   4.894  2.6429  0.8366  0.0822
  921TIP3    H2 2770   6.102   1.921   4.895 -1.2114 -2.6778 -2.0051
  922TIP3   OH2 2771   2.498   2.280   1.992  0.2604 -0.1436 -0.4343
  922TIP3    H1 2772   2.443   2.358   1.978 -1.1769 -0.6697  1.8824
  922TIP3    H2 2773   2.438   2.206   1.982  1.8141 -1.1526 -3.6909
  923TIP3   OH2 2774   3.017   2.109   0.766 -0.1514  0.0266  0.7809
  923TIP3    H1 2775   2.953   2.077   0.830 -1.1040 -0.0469 -0.1705
  923TIP3    H2 2776   2.985   2.196   0.742 -0.5341 -0.4558 -0.5246
  924TIP3   OH2 2777   6.152   1.834   4.060  0.2905  0.2432 -0.4499
  924TIP3    H1 2778   6.178   1.871   4.145  0.2529  1.7459 -1.0676
  924TIP3    H2 2779   6.174   1.741   4.067 -1.0532  0.0203  1.7287
  925TIP3   OH2 2780   2.950   3.105   4.287  0.2618 -0.4007  0.6140
  925TIP3    H1 2781   2.903   3.022   4.292 -1.8855  0.7010 -0.1343
  925TIP3    H2 2782   2.888   3.170   4.322  1.7758  0.9312  0.9275
  926TIP3   OH2 2783   1.107   4.851   0.551 -0.3205 -0.0601  0.6283
  926TIP3    H1 2784   1.055   4.773   0.537  1.3205 -1.0586 -0.2483
  926TIP3    H2 2785   1.196   4.819   0.565  0.6608  1.6609 -1.0957
  927TIP3   OH2 2786   6.281   0.823   3.728  0.0553 -0.4970 -0.1779
  927TIP3    H1 2787   6.220   0.878   3.678  2.0118 -0.6009 -2.8596
  927TIP3    H2 2788   6.243   0.735   3.723  0.5622 -0.6521 -2.2513
  928TIP3   OH2 2789   3.597   0.849   0.283  0.2074  0.1539 -0.4424
  928TIP3    H1 2790   3.589   0.853   0.187  1.1781 -2.3182 -0.7085
  928TIP3    H2 2791   3.651   0.772   0.299 -0.8620 -0.1553  2.1516
  929TIP3   OH2 2792   0.983   3.242   0.865 -0.5265  0.5295 -0.4534
  929TIP3    H1 2793   0.957   3.282   0.948 -1.0228  1.0308 -0.8428
  929TIP3    H2 2794   1.056   3.296   0.835  0.5627 -0.4717  0.3092
  930TIP3   OH2 2795   3.393   2.732   0.579 -0.2003  0.2829 -0.5891
  930TIP3    H1 2796   3.394   2.752   0.673 -0.6159 -0.0308 -0.5189
  930TIP3    H2 2797   3.365   2.814   0.538 -0.3434  0.3227 -0.4136
  931TIP3   OH2 2798   4.857   2.667   4.372 -0.0885  0.2956  0.0445
  931TIP3    H1 2799   4.766   2.696   4.361  0.2221  1.0254 -0.7191
  931TIP3    H2 2800   4.867   2.653   4.466 -0.9015  0.5262  0.1702
  932TIP3   OH2 2801   4.826   1.964   0.064 -0.3307 -0.3963 -0.0988
  932TIP3    H1 2802   4.859   1.899   0.127 -0.3440  0.5956  0.9586
  932TIP3    H2 2803   4.737   1.933   0.043  0.0944 -1.3602 -0.5355
  933TIP3   OH2 2804   5.573   3.063   0.806 -0.4398  0.5961 -0.5987
  933TIP3    H1 2805   5.544   3.136   0.751 -0.6211 -0.8213 -2.5026
  933TIP3    H2 2806   5.658   3.090   0.839 -0.3997  1.5917 -1.4424
  934TIP3   OH2 2807   4.659   3.772   3.497 -0.3777  0.7476 -0.1447
  934TIP3    H1 2808   4.743   3.731   3.480 -0.8198 -0.6898  0.9241
  934TIP3    H2 2809   4.618   3.780   3.411 -0.7142 -2.0917 -0.3500
  935TIP3   OH2 2810   3.894   5.444   3.831  0.0935  0.0748 -0.3097
  935TIP3    H1 2811   3.905   5.356   3.868  1.5491  0.1334 -0.5354
  935TIP3    H2 2812   3.838   5.490   3.894  0.0950 -0.7169  0.2905
  936TIP3   OH2 2813   0.838   5.380   4.418 -0.3058  0.1806  0.2738
  936TIP3    H1 2814   0.831   5.298   4.369 -2.2028 -0.4176  1.4457
  936TIP3    H2 2815   0.889   5.357   4.495  1.2787  0.7430 -0.5498
  937TIP3   OH2 2816   4.877   0.824   1.597  0.4784  0.1576 -0.5180
  937TIP3    H1 2817   4.923   0.776   1.666 -0.2395 -1.9242 -1.4207
  937TIP3    H2 2818   4.835   0.897   1.643  2.5822  0.6891  0.7089
  938TIP3   OH2 2819   0.090   5.489   2.567 -0.6544  0.0326  0.6167
  938TIP3    H1 2820   0.100   5.545   2.645 -2.3518 -0.6083  1.3422
  938TIP3    H2 2821   0.025   5.535   2.514 -1.8199 -1.0298  1.0648
  939TIP3   OH2 2822   0.514   4.013   4.020 -0.3089 -0.0818 -0.3410
  939TIP3    H1 2823   0.534   3.924   3.990  0.8683 -0.5479  1.5891
  939TIP3    H2 2824   0.486   4.060   3.942  0.3376 -1.7930 -1.6574
  940TIP3   OH2 2825   1.033   4.866   4.807  0.5140 -0.4232  0.3792
  940TIP3    H1 2826   1.054   4.783   4.851  0.0153 -0.9851 -0.4302
  940TIP3    H2 2827   0.949   4.892   4.844  0.2521 -0.7270 -0.0031
  941TIP3   OH2 2828   1.523   2.412   4.509  0.2207  0.5275 -0.1893
  941TIP3    H1 2829   1.567   2.497   4.500  1.3951 -0.1627 -1.2172
  941TIP3    H2 2830   1.583   2.360   4.562  0.2951 -0.1810 -0.9558
  942TIP3   OH2 2831   0.595   3.661   4.253 -0.3880 -0.1895 -0.5698
  942TIP3    H1 2832   0.518   3.718   4.251 -0.5205 -0.3265  0.2753
  942TIP3    H2 2833   0.625   3.665   4.344  1.3784  0.8854 -1.1583
  943TIP3   OH2 2834   2.931   1.521   3.729  0.0720 -0.1152  0.5680
  943TIP3    H1 2835   2.957   1.576   3.655 -0.5983  0.1210  0.5006
  943TIP3    H2 2836   2.836   1.526   3.731 -0.0762 -2.0250 -0.0091
  944TIP3   OH2 2837   0.505   5.326   3.256  0.4030 -0.2987 -0.2498
  944TIP3    H1 2838   0.532   5.379   3.181  1.5397  0.1327  0.4478
  944TIP3    H2 2839   0.578   5.330   3.317 -0.0091 -1.6311  0.3836
  945TIP3   OH2 2840   0.543   3.384   3.334  0.3670 -0.7067 -0.0394
  945TIP3    H1 2841   0.571   3.450   3.398  1.5415 -0.7838 -0.4602
  945TIP3    H2 2842   0.578   3.302   3.367  1.1983 -0.7130 -0.8864
  946TIP3   OH2 2843   5.197   4.733   0.465  0.5173  0.3362 -0.9246
  946TIP3    H1 2844   5.138   4.660   0.486  0.3628 -0.2504 -3.1548
  946TIP3    H2 2845   5.284   4.693   0.464  0.8127  0.8543  0.7282
  947TIP3   OH2 2846   0.948   5.073   0.860 -0.5563 -0.4187  0.3207
  947TIP3    H1 2847   0.920   5.036   0.777  1.2062 -0.2928 -0.3757
  947TIP3    H2 2848   1.036   5.037   0.874 -0.6799 -0.1508  1.9468
  948TIP3   OH2 2849   5.744   0.373   3.578 -0.4383 -0.1264  0.0874
  948TIP3    H1 2850   5.765   0.309   3.646  1.1389 -1.6063 -1.6823
  948TIP3    H2 2851   5.777   0.456   3.612  0.1777 -0.8041  1.1865
  949TIP3   OH2 2852   2.789   3.179   1.780  0.2528  0.7326 -0.2481
  949TIP3    H1 2853   2.767   3.193   1.688  0.1951  1.4466 -0.1359
  949TIP3    H2 2854   2.883   3.164   1.780  0.2006  0.3983 -0.4572
  950TIP3   OH2 2855   5.215   2.034   1.270 -0.9058  0.4415  0.1739
  950TIP3    H1 2856   5.146   2.003   1.329  0.2258 -0.8263  0.8748
  950TIP3    H2 2857   5.204   1.982   1.190  0.8322 -1.7154  1.2557
  951TIP3   OH2 2858   1.124   3.152   2.702 -0.4494 -0.5324 -0.2215
  951TIP3    H1 2859   1.152   3.221   2.763 -0.0641  0.2381 -1.2380
  951TIP3    H2 2860   1.091   3.082   2.758  0.2014  0.0178  0.8792
  952TIP3   OH2 2861   1.920   4.001   3.394 -0.7850  0.1722  0.2576
  952TIP3    H1 2862   1.937   4.044   3.310 -0.2070 -0.7026 -0.0812
  952TIP3    H2 2863   1.928   3.908   3.376  0.4227 -0.0015  1.5020
  953TIP3   OH2 2864   0.983   4.587   2.077 -0.4031  0.0122 -0.5195
  953TIP3    H1 2865   0.945   4.524   2.015  2.2845 -1.4844 -0.8118
  953TIP3    H2 2866   1.043   4.639   2.025 -1.3806  1.7998  0.0566
  954TIP3   OH2 2867   3.911   0.944   0.380 -0.0208  0.8112 -0.0590
  954TIP3    H1 2868   3.906   1.001   0.304  3.0564 -0.3869 -1.3253
  954TIP3    H2 2869   3.866   0.864   0.353 -0.5851  1.0650  0.1151
  955TIP3   OH2 2870   1.022   3.388   0.434  0.8079  0.2642 -0.2841
  955TIP3    H1 2871   1.076   3.391   0.354  0.4332  2.1357 -0.5084
  955TIP3    H2 2872   1.031   3.475   0.472  0.2692 -0.3280  1.2788
  956TIP3   OH2 2873   3.415   1.899   3.631  0.6449 -0.3000  0.5619
  956TIP3    H1 2874   3.367   1.833   3.580  0.1231 -0.6431  1.4689
  956TIP3    H2 2875   3.478   1.936   3.569 -2.1261  1.6512 -1.3496
  957TIP3   OH2 2876   3.580   5.832   1.913  0.3873  0.2988  0.2712
  957TIP3    H1 2877   3.511   5.869   1.857 -0.8383 -1.4522  0.5298
  957TIP3    H2 2878   3.645   5.799   1.852  0.0094  0.1679 -0.0681
  958TIP3   OH2 2879   6.038   4.664   1.505 -0.6184  0.0750 -0.5240
  958TIP3    H1 2880   6.100   4.591   1.497  3.1234  2.6315  1.6381
  958TIP3    H2 2881   5.973   4.635   1.568 -0.0306 -1.8192 -0.7416
  959TIP3   OH2 2882   4.495   5.007   0.870 -0.1812 -0.1737  0.2753
  959TIP3    H1 2883   4.493   4.989   0.964  1.2773 -1.2489  0.1418
  959TIP3    H2 2884   4.544   5.089   0.862 -0.6177  0.1090  0.4639
  960TIP3   OH2 2885   0.725   3.784   4.012  0.1054  0.0119  0.8111
  960TIP3    H1 2886   0.681   3.765   4.095  1.0875  1.6791  1.7631
  960TIP3    H2 2887   0.814   3.807   4.037 -0.0157  2.1776 -0.5108
  961TIP3   OH2 2888   3.636   0.769   4.307  0.0294  0.6087 -0.0295
  961TIP3    H1 2889   3.653   0.861   4.287 -0.5547  0.3586 -1.7455
  961TIP3    H2 2890   3.543   0.757   4.292 -0.2129  0.0537  1.6342
  962TIP3   OH2 2891   3.431   0.363   1.818 -0.2233  0.0175 -0.2324
  962TIP3    H1 2892   3.366   0.432   1.826  1.0735  1.0966  1.9688
  962TIP3    H2 2893   3.494   0.396   1.754 -0.4850  0.1147 -0.4400
  963TIP3   OH2 2894   5.438   4.044   3.209  0.0981 -0.2652 -0.2991
  963TIP3    H1 2895   5.490   4.098   3.150 -0.1269 -0.9365 -1.1266
  963TIP3    H2 2896   5.374   4.105   3.247  0.3792  0.2086 -0.5747
  964TIP3   OH2 2897   0.338   3.662   2.317 -0.2401  0.1180 -0.2055
  964TIP3    H1 2898   0.389   3.663   2.237 -0.2022  0.7488 -0.1745
  964TIP3    H2 2899   0.376   3.591   2.369 -0.4436 -0.4743 -0.8529
  965TIP3   OH2 2900   3.905   5.396   4.655 -0.4483 -0.9164  0.0558
  965TIP3    H1 2901   3.947   5.376   4.738  0.7592 -0.7908 -0.5037
  965TIP3    H2 2902   3.881   5.488   4.661  1.5613 -0.3067 -0.4998
  966TIP3   OH2 2903   4.908   4.923   1.237  0.0243 -0.6888  0.0453
  966TIP3    H1 2904   4.915   4.886   1.325 -0.1398  0.6054  0.6270
  966TIP3    H2 2905   4.997   4.915   1.200  0.7375  0.9412  1.2659
  967TIP3   OH2 2906   5.936   0.187   2.827  0.5431  0.0156  0.1021
  967TIP3    H1 2907   6.012   0.242   2.846  0.4055 -0.6327  2.8431
  967TIP3    H2 2908   5.925   0.195   2.732  2.3642  2.2657 -0.0232
  968TIP3   OH2 2909   6.059   1.013   5.111 -0.0081 -0.1730  0.2714
  968TIP3    H1 2910   6.008   1.027   5.031 -0.7106 -0.5912  0.6372
  968TIP3    H2 2911   6.009   0.948   5.161 -1.2610  2.2606  2.4831
  969TIP3   OH2 2912   6.191   1.569   4.117 -0.2186 -0.4882  0.5534
  969TIP3    H1 2913   6.236   1.500   4.067  2.2740  1.6176 -0.3485
  969TIP3    H2 2914   6.233   1.567   4.203 -2.5819 -2.2671  1.7854
  970TIP3   OH2 2915   4.951   5.496   4.491 -0.0938 -0.2719 -1.0513
  970TIP3    H1 2916   5.023   5.440   4.463  0.9300  0.5292 -0.1132
  970TIP3    H2 2917   4.872   5.450   4.462  0.7096 -2.1140 -0.4345
  971TIP3   OH2 2918   4.225   1.839   1.837 -0.4715 -0.4973  0.1524
  971TIP3    H1 2919   4.161   1.873   1.774  0.7424  2.1437  0.2039
  971TIP3    H2 2920   4.305   1.828   1.786  0.5860  1.8669  1.1289
  972TIP3   OH2 2921   0.867   0.240   1.673  0.1515  0.1655  0.5263
  972TIP3    H1 2922   0.903   0.152   1.671  0.6015  0.3203  1.2812
  972TIP3    H2 2923   0.776   0.230   1.647  0.6539 -0.2694 -1.1882
  973TIP3   OH2 2924   3.932   1.970   3.876 -0.0249 -0.4911  0.1472
  973TIP3    H1 2925   3.947   1.877   3.894  1.8228 -0.2986 -0.1412
  973TIP3    H2 2926   3.878   2.000   3.949 -0.3813 -1.7126  0.4148
  974TIP3   OH2 2927   5.328   5.964   4.614 -0.3193  0.0224 -0.0984
  974TIP3    H1 2928   5.286   5.885   4.581 -2.1446  0.8538  0.0978
  974TIP3    H2 2929   5.417   5.960   4.580  0.2156 -2.9514  1.3370
  975TIP3   OH2 2930   5.894   5.534   0.261 -0.0439 -0.1665  0.1704
  975TIP3    H1 2931   5.860   5.570   0.343 -1.9031 -0.0068 -0.6133
  975TIP3    H2 2932   5.906   5.610   0.204 -0.1059 -0.4008 -0.1596
  976TIP3   OH2 2933   2.410   5.977   0.285 -0.0685  0.1681  0.2371
  976TIP3    H1 2934   2.333   5.990   0.340 -0.1191  0.6567  0.0578
  976TIP3    H2 2935   2.461   5.909   0.329 -0.3507  0.2063  0.6211
  977TIP3   OH2 2936   2.056   5.676   5.065  0.5777 -0.2583  0.1222
  977TIP3    H1 2937   1.974   5.725   5.070 -1.1076 -2.9833  1.9196
  977TIP3    H2 2938   2.049   5.624   4.985  0.2991 -0.8494  0.5231
  978TIP3   OH2 2939   5.562   5.424   2.534 -0.0253  0.5325  0.1719
  978TIP3    H1 2940   5.517   5.366   2.596 -0.4069  1.5530  0.8832
  978TIP3    H2 2941   5.565   5.509   2.579  1.2489  0.8716 -0.5044
  979TIP3   OH2 2942   0.558   3.971   1.273 -0.1180  0.4665  0.3730
  979TIP3    H1 2943   0.586   3.964   1.182  0.2416  0.1449  0.5038
  979TIP3    H2 2944   0.638   3.963   1.324 -0.4698 -0.8515  0.7678
  980TIP3   OH2 2945   4.832   0.633   2.675 -0.2652 -0.1315 -0.1202
  980TIP3    H1 2946   4.841   0.607   2.767 -0.2211 -1.2429 -0.4320
  980TIP3    H2 2947   4.919   0.618   2.638  0.8768  3.8190  0.4669
  981TIP3   OH2 2948   5.424   1.936   3.366  0.0405  0.2085 -0.4333
  981TIP3    H1 2949   5.417   1.887   3.284  0.5835 -2.6192  1.0689
  981TIP3    H2 2950   5.495   1.893   3.413  0.8847  2.8383  0.8602
  982TIP3   OH2 2951   1.813   0.950   3.777  0.1584 -0.4928  0.1012
  982TIP3    H1 2952   1.770   0.928   3.694  1.2727 -1.7018 -0.1853
  982TIP3    H2 2953   1.860   1.031   3.759  1.5171 -1.4573 -0.8998
  983TIP3   OH2 2954   5.751   2.640   3.963  0.0617  0.3513  0.4976
  983TIP3    H1 2955   5.757   2.544   3.965  0.5869  0.3432 -0.8706
  983TIP3    H2 2956   5.659   2.658   3.945 -0.2139  0.1377  1.6031
  984TIP3   OH2 2957   2.429   0.586   1.152 -0.5483  0.5112  0.0943
  984TIP3    H1 2958   2.369   0.570   1.079  0.4205 -2.0757 -0.2020
  984TIP3    H2 2959   2.372   0.584   1.230 -1.0777 -0.4750 -0.2975
  985TIP3   OH2 2960   3.527   4.160   3.347  0.5040 -0.2484  0.1910
  985TIP3    H1 2961   3.508   4.066   3.351 -3.3748  0.3140 -0.7492
  985TIP3    H2 2962   3.476   4.198   3.418  0.9633  1.2783 -0.2553
  986TIP3   OH2 2963   5.757   4.614   0.252  0.2954  0.2874 -0.4058
  986TIP3    H1 2964   5.784   4.581   0.337 -0.3432  0.4985 -0.1182
  986TIP3    H2 2965   5.665   4.640   0.264 -0.0080 -0.3078 -1.3257
  987TIP3   OH2 2966   4.650   4.629   0.197 -0.0777  0.4103  0.0588
  987TIP3    H1 2967   4.568   4.674   0.175 -1.6497 -2.6362 -0.9405
  987TIP3    H2 2968   4.701   4.632   0.116 -0.0243  0.7200  0.1052
  988TIP3   OH2 2969   1.023   1.054   4.515  0.0379 -0.2898 -0.3536
  988TIP3    H1 2970   1.059   1.090   4.596  1.7784 -2.3699 -0.1162
  988TIP3    H2 2971   1.074   1.095   4.446 -1.1304  1.1250 -0.4329
  989TIP3   OH2 2972   2.481   1.254   3.875 -0.1558 -0.2384  0.0815
  989TIP3    H1 2973   2.469   1.281   3.785 -0.1916  0.3617  0.2646
  989TIP3    H2 2974   2.503   1.161   3.870 -0.2443 -0.2240 -0.5351
  990TIP3   OH2 2975   5.372   4.606   1.276  0.3202 -0.5108 -0.4657
  990TIP3    H1 2976   5.461   4.582   1.302  0.1053  0.3903  1.2509
  990TIP3    H2 2977   5.382   4.689   1.230  0.4558 -0.9229 -1.1972
  991TIP3   OH2 2978   1.688   0.222   2.037  0.5434  0.1547  0.1986
  991TIP3    H1 2979   1.749   0.212   2.110 -0.9816 -0.2543  1.4775
  991TIP3    H2 2980   1.685   0.136   1.996  1.6549  0.4708 -0.5973
  992TIP3   OH2 2981   0.051   1.610   3.386 -0.2710 -0.4828 -0.4130
  992TIP3    H1 2982   0.087   1.591   3.299 -0.4184  1.0754 -0.8474
  992TIP3    H2 2983  -0.042   1.625   3.370 -0.4339 -0.9052  0.1316
  993TIP3   OH2 2984   3.921   3.031   4.058 -0.0278  0.5957  0.0587
  993TIP3    H1 2985   3.978   2.994   3.991 -1.7943 -2.5259  0.0477
  993TIP3    H2 2986   3.910   2.959   4.121 -0.8485  2.4076  2.0924
  994TIP3   OH2 2987   0.666   3.397   3.017  0.4926 -0.1597 -0.0398
  994TIP3    H1 2988   0.714   3.467   3.060  0.3434 -0.0873  0.0113
  994TIP3    H2 2989   0.664   3.423   2.924 -2.1526  1.4972  0.3428
  995TIP3   OH2 2990   3.250   4.173   0.625  0.4769 -0.5715  0.3777
  995TIP3    H1 2991   3.264   4.103   0.562 -0.3660  0.4187 -0.9757
  995TIP3    H2 2992   3.338   4.192   0.659  0.9974 -1.0031 -0.6629
  996TIP3   OH2 2993   0.983   5.426   2.636  0.1563  0.7687  0.3471
  996TIP3    H1 2994   1.053   5.430   2.701 -0.5908 -0.1361  1.2362
  996TIP3    H2 2995   0.960   5.517   2.619  0.6373  1.0253  1.0446
  997TIP3   OH2 2996   5.989   0.969   0.693 -0.1385  0.3172 -0.2398
  997TIP3    H1 2997   5.925   0.915   0.739  0.8275  1.0729  2.1402
  997TIP3    H2 2998   5.953   1.057   0.697 -0.2125  0.3455 -1.3159
  998TIP3   OH2 2999   1.290   0.141   1.095 -0.2539  0.1009 -0.3045
  998TIP3    H1 3000   1.367   0.103   1.138 -0.7701 -2.1002 -1.1825
  998TIP3    H2 3001   1.260   0.209   1.156  0.2728 -1.4593  1.8455
  999TIP3   OH2 3002   3.382   4.431   0.514  0.1055 -0.3161 -0.3336
  999TIP3    H1 3003   3.437   4.396   0.584  0.3080 -0.9960 -0.8213
  999TIP3    H2 3004   3.409   4.523   0.506 -0.4943 -0.0169  1.0197
 1000TIP3   OH2 3005   1.972   1.210   0.077  0.3002 -0.0341 -0.1374
 1000TIP3    H1 3006   1.985   1.304   0.083 -0.2027  0.2874 -2.9056
 1000TIP3    H2 3007   2.030   1.182   0.006  2.4243 -2.3213  2.2821
 1001TIP3   OH2 3008   3.712   3.279   0.866 -0.1852 -0.7596 -0.7848
 1001TIP3    H1 3009   3.734   3.370   0.846  2.1239 -1.7519 -3.3678
 1001TIP3    H2 3010   3.645   3.256   0.801 -0.5697 -1.0145 -0.3066
 1002TIP3   OH2 3011   3.666   5.698   2.920 -0.1444 -0.4942  0.3683
 1002TIP3    H1 3012   3.707   5.617   2.891 -0.6021  0.0338 -1.9389
 1002TIP3    H2 3013   3.576   5.673   2.940 -0.9319 -0.2654 -2.4653
 1003TIP3   OH2 3014   3.359   0.750   4.203  0.1781  0.2195  0.0972
 1003TIP3    H1 3015   3.281   0.792   4.239  0.0999  0.1986 -0.0437
 1003TIP3    H2 3016   3.394   0.814   4.141  0.1730  0.1581  0.0305
 1004TIP3   OH2 3017   5.134   5.969   1.696 -0.4625 -0.4155  0.1487
 1004TIP3    H1 3018   5.097   5.888   1.662 -1.4683 -0.6058  1.5711
 1004TIP3    H2 3019   5.181   5.943   1.775 -2.0455  0.5073  1.4706
 1005TIP3   OH2 3020   0.050   4.460   0.555  0.2943  0.4604  0.0689
 1005TIP3    H1 3021   0.055   4.554   0.535  0.2126  0.8053  1.5608
 1005TIP3    H2 3022  -0.033   4.432   0.515  1.2165  0.5598 -2.0448
 1006TIP3   OH2 3023   5.555   2.188   3.715  0.4467 -0.2544 -0.6597
 1006TIP3    H1 3024   5.464   2.195   3.685  0.8379 -1.5906 -2.3686
 1006TIP3    H2 3025   5.549   2.180   3.810 -1.2974 -1.1519 -0.8143
 1007TIP3   OH2 3026   4.100   3.447   3.203 -0.0702  0.0666 -0.6141
 1007TIP3    H1 3027   4.110   3.433   3.109  0.5967  1.1300 -0.7160
 1007TIP3    H2 3028   4.021   3.398   3.226  0.3437 -1.0634 -1.5249
 1008TIP3   OH2 3029   1.101   4.050   0.665 -0.5556  0.0552  0.1054
 1008TIP3    H1 3030   1.103   4.092   0.751  1.4993 -0.0381  0.1452
 1008TIP3    H2 3031   1.154   3.971   0.675  0.1149  0.2853 -1.3533
 1009TIP3   OH2 3032   3.867   1.160   2.307  0.7082 -0.4289  0.1803
 1009TIP3    H1 3033   3.814   1.136   2.231  1.3752  0.4946 -0.6184
 1009TIP3    H2 3034   3.843   1.251   2.325  1.2278 -0.3463  0.4839
 1010TIP3   OH2 3035   3.081   1.862   2.071  0.1413 -0.4088 -0.5895
 1010TIP3    H1 3036   2.998   1.878   2.027  0.5942 -0.6877 -1.5766
 1010TIP3    H2 3037   3.146   1.909   2.019  0.5864 -0.0400  0.2756
 1011TIP3   OH2 3038   3.167   0.902   3.292 -0.1125  0.0005 -0.2942
 1011TIP3    H1 3039   3.140   0.886   3.201  0.9570 -0.5800 -0.5330
 1011TIP3    H2 3040   3.194   0.816   3.324  1.8988  0.5929 -0.2606
 1012TIP3   OH2 3041   0.526   0.211   3.966 -0.0528 -0.2379 -0.3516
 1012TIP3    H1 3042   0.539   0.300   3.935 -1.5458  0.3170  0.5380
 1012TIP3    H2 3043   0.433   0.195   3.955 -0.0113 -1.2545  0.6278
 1013TIP3   OH2 3044   5.698   2.203   1.809  0.3450  0.0633 -0.5581
 1013TIP3    H1 3045   5.716   2.143   1.736 -0.9164 -0.6745 -0.3058
 1013TIP3    H2 3046   5.761   2.178   1.877 -0.6675 -1.5447 -0.1676
 1014TIP3   OH2 3047   2.097   0.990   2.801  0.5393 -0.3887 -0.4398
 1014TIP3    H1 3048   2.068   1.050   2.732  0.4744  0.8872  0.6529
 1014TIP3    H2 3049   2.074   1.034   2.883 -0.7183 -2.5013  0.4370
 1015TIP3   OH2 3050   0.574   0.054   4.193  0.3480 -0.2681  0.5281
 1015TIP3    H1 3051   0.599   0.098   4.112  1.0271  2.1384  1.9389
 1015TIP3    H2 3052   0.656   0.019   4.228  0.6593  1.5111  1.7000
 1016TIP3   OH2 3053   2.008   3.608   1.539  0.1875 -0.0220 -0.4357
 1016TIP3    H1 3054   2.082   3.573   1.590  1.7818  0.6074 -2.1816
 1016TIP3    H2 3055   1.970   3.532   1.496  0.2551 -0.2721 -0.0615
 1017TIP3   OH2 3056   2.082   5.440   0.503 -0.9736 -0.1320  0.2499
 1017TIP3    H1 3057   2.025   5.509   0.538 -0.6738 -0.1510  0.7912
 1017TIP3    H2 3058   2.164   5.450   0.552  0.9724  2.4078 -3.0817
 1018TIP3   OH2 3059   5.818   3.908   2.200  0.0961  0.4431 -0.2588
 1018TIP3    H1 3060   5.773   3.959   2.268  0.0530  0.7257 -0.4973
 1018TIP3    H2 3061   5.897   3.958   2.181  0.5172 -0.0572  0.1620
 1019TIP3   OH2 3062   1.814   3.486   2.979  0.4149  0.0823 -0.1101
 1019TIP3    H1 3063   1.796   3.555   2.915 -0.9175 -0.7323 -0.6476
 1019TIP3    H2 3064   1.826   3.407   2.926  1.1452 -0.2671  0.5533
 1020TIP3   OH2 3065   3.165   5.258   0.687  0.4064  0.1096  0.1426
 1020TIP3    H1 3066   3.135   5.289   0.773 -1.9670  1.0538 -0.9493
 1020TIP3    H2 3067   3.217   5.330   0.652 -2.0402  1.5518 -0.8351
 1021TIP3   OH2 3068   4.846   3.496   2.029  0.0833 -0.0210  0.4761
 1021TIP3    H1 3069   4.922   3.439   2.018 -1.2501 -2.1112  1.4721
 1021TIP3    H2 3070   4.862   3.569   1.969  2.0641 -1.2297 -0.5718
 1022TIP3   OH2 3071   4.120   5.981   3.848  0.0379  0.0786  0.1969
 1022TIP3    H1 3072   4.159   5.899   3.818 -2.5907 -1.3955  0.5231
 1022TIP3    H2 3073   4.038   5.988   3.800 -0.1960  2.1251  0.7873
 1023TIP3   OH2 3074   1.554   2.030   2.475 -1.1915 -0.2247  0.1480
 1023TIP3    H1 3075   1.581   1.951   2.521 -0.1107 -0.0942 -0.2278
 1023TIP3    H2 3076   1.470   2.054   2.515 -0.1813  0.0521  2.2773
 1024TIP3   OH2 3077   5.463   3.798   4.754 -0.2986  0.0957  0.8093
 1024TIP3    H1 3078   5.514   3.726   4.717 -1.5011 -0.8282  0.9026
 1024TIP3    H2 3079   5.518   3.834   4.823  1.4402  1.0043 -0.9383
 1025TIP3   OH2 3080   4.365   5.285   3.914 -0.1527 -0.4260  0.6363
 1025TIP3    H1 3081   4.299   5.298   3.846  0.3444 -0.6249  0.1107
 1025TIP3    H2 3082   4.421   5.362   3.908 -0.4156 -0.1875  1.1804
 1026TIP3   OH2 3083   3.774   1.722   3.991  0.4779 -0.0160 -0.0794
 1026TIP3    H1 3084   3.716   1.650   4.016  0.6396  0.8487  3.1152
 1026TIP3    H2 3085   3.722   1.801   4.006  1.8455  0.7026  1.0754
 1027TIP3   OH2 3086   5.076   4.313   1.370  0.1706  0.3775  0.1578
 1027TIP3    H1 3087   5.110   4.400   1.352  3.1836 -0.7627 -0.2883
 1027TIP3    H2 3088   5.097   4.262   1.291  0.6355 -1.2642  1.2709
 1028TIP3   OH2 3089   5.887   3.797   0.710 -0.0462 -0.6803  0.2590
 1028TIP3    H1 3090   5.948   3.724   0.722  1.0338  0.0237 -0.7474
 1028TIP3    H2 3091   5.830   3.768   0.639  0.3243 -0.5887 -0.0785
 1029TIP3   OH2 3092   2.161   4.202   2.525 -0.4739 -0.0013 -0.0199
 1029TIP3    H1 3093   2.089   4.177   2.466 -1.2943 -0.3986  1.1107
 1029TIP3    H2 3094   2.240   4.179   2.477 -1.0559  1.1202 -1.6052
 1030TIP3   OH2 3095   2.509   0.439   0.387 -0.1564 -0.0795  0.2865
 1030TIP3    H1 3096   2.435   0.499   0.376 -0.1157 -0.1972 -0.6690
 1030TIP3    H2 3097   2.582   0.495   0.414  0.2298  0.5332 -1.8472
 1031TIP3   OH2 3098   1.365   3.004   4.916  0.0494  0.2271 -0.4289
 1031TIP3    H1 3099   1.394   2.988   5.005  0.3714  2.6935 -0.0184
 1031TIP3    H2 3100   1.406   2.934   4.864  0.3524 -0.8725  1.2338
 1032TIP3   OH2 3101   0.120   4.837   2.666 -0.2707 -0.3015 -0.0467
 1032TIP3    H1 3102   0.203   4.790   2.662 -0.1272  0.0017 -1.0341
 1032TIP3    H2 3103   0.140   4.917   2.715 -0.0007 -0.2937 -0.1662
 1033TIP3   OH2 3104   1.555   1.000   1.623 -0.0946 -0.3316 -0.1620
 1033TIP3    H1 3105   1.498   1.028   1.694  1.5651  1.8131  0.4460
 1033TIP3    H2 3106   1.644   1.015   1.657  0.8067 -1.7283 -1.7450
 1034TIP3   OH2 3107   6.091   5.168   3.628 -0.0699  0.7937 -0.0869
 1034TIP3    H1 3108   6.015   5.226   3.627  0.2270  1.2219 -1.7204
 1034TIP3    H2 3109   6.083   5.118   3.709 -2.7528 -0.0428 -0.7503
 1035TIP3   OH2 3110   5.018   5.123   1.012 -0.0222 -0.1605  0.0136
 1035TIP3    H1 3111   4.986   5.138   1.101 -0.8287  1.2135 -0.4782
 1035TIP3    H2 3112   5.114   5.129   1.020 -0.1026  0.3352  0.7225
 1036TIP3   OH2 3113   4.724   5.888   0.010  0.1417  0.1924  1.0330
 1036TIP3    H1 3114   4.739   5.948   0.083  2.2164 -1.8589  2.4560
 1036TIP3    H2 3115   4.807   5.840   0.002 -0.4508 -0.5083 -1.9072
 1037TIP3   OH2 3116   2.824   2.118   2.167 -0.2311  0.0620 -0.4712
 1037TIP3    H1 3117   2.848   2.056   2.099  2.6365  1.3651 -0.8290
 1037TIP3    H2 3118   2.825   2.067   2.248 -1.7221 -1.0926 -1.1493
 1038TIP3   OH2 3119   4.984   1.851   0.255 -0.5122  0.3102 -0.6290
 1038TIP3    H1 3120   5.066   1.818   0.219 -1.2433 -2.2061 -0.1741
 1038TIP3    H2 3121   4.971   1.800   0.335 -2.1070  1.2721 -0.2311
 1039TIP3   OH2 3122   5.522   3.814   3.013 -0.2830  0.9984 -0.1021
 1039TIP3    H1 3123   5.593   3.870   3.045 -0.6297  2.9816 -2.5079
 1039TIP3    H2 3124   5.566   3.739   2.973  0.2440  0.2060  1.8474
 1040TIP3   OH2 3125   5.379   4.734   1.934 -0.1841  0.0445 -0.3140
 1040TIP3    H1 3126   5.452   4.763   1.988 -1.0174 -1.4792  1.7722
 1040TIP3    H2 3127   5.301   4.766   1.980 -0.9493 -2.0178 -0.0278
 1041TIP3   OH2 3128   1.664   5.459   4.110 -0.1579 -0.3617  0.0914
 1041TIP3    H1 3129   1.741   5.513   4.091  0.2448 -0.6366  0.8943
 1041TIP3    H2 3130   1.677   5.380   4.057 -0.5862  0.1655 -0.8332
 1042TIP3   OH2 3131   3.665   0.060   2.608 -0.1622  0.1513 -0.2028
 1042TIP3    H1 3132   3.714  -0.020   2.589 -0.9763 -0.7542  1.3078
 1042TIP3    H2 3133   3.594   0.062   2.544 -2.5677 -2.5792  2.0730
 1043TIP3   OH2 3134   6.034   4.623   2.206 -1.0311 -0.4846  0.4283
 1043TIP3    H1 3135   6.020   4.716   2.221 -1.9982 -0.9403  2.7588
 1043TIP3    H2 3136   6.129   4.615   2.194 -0.8507  0.7042  0.9219
 1044TIP3   OH2 3137   1.285   1.442   2.934  0.2814  0.1652 -0.2476
 1044TIP3    H1 3138   1.209   1.476   2.982  0.5343 -0.4920  0.6474
 1044TIP3    H2 3139   1.247   1.386   2.867 -0.0276 -0.6072  0.5473
 1045TIP3   OH2 3140   4.824   2.210   4.960 -0.5140 -0.1497  0.3402
 1045TIP3    H1 3141   4.812   2.116   4.948 -2.7900 -0.1800  2.2789
 1045TIP3    H2 3142   4.902   2.218   5.014 -0.5558 -0.9387  0.5202
 1046TIP3   OH2 3143   5.384   2.675   2.059  0.2174  0.8144 -0.0730
 1046TIP3    H1 3144   5.447   2.702   2.126 -0.3094 -0.3713  0.9282
 1046TIP3    H2 3145   5.299   2.676   2.104 -0.5820  2.6436 -1.4613
 1047TIP3   OH2 3146   0.354   2.578   4.099  0.6649 -0.3511 -0.0620
 1047TIP3    H1 3147   0.330   2.670   4.103 -0.9573 -0.7467 -0.2371
 1047TIP3    H2 3148   0.419   2.574   4.028  0.9354  0.6776  0.1080
 1048TIP3   OH2 3149   4.318   3.300   3.670 -0.4296 -0.5432 -0.3918
 1048TIP3    H1 3150   4.374   3.353   3.726  0.3988 -1.6476 -0.1308
 1048TIP3    H2 3151   4.248   3.270   3.728 -1.6370  1.2569 -0.8374
 1049TIP3   OH2 3152   4.540   5.955   2.851  0.0509 -0.2211 -0.3581
 1049TIP3    H1 3153   4.521   6.036   2.898  1.9245  1.3798 -2.1337
 1049TIP3    H2 3154   4.545   5.888   2.919 -2.9780  0.8018  1.0283
 1050TIP3   OH2 3155   6.093   0.636   4.981  0.2992  0.1254 -0.0513
 1050TIP3    H1 3156   6.004   0.613   5.010 -0.7024  0.4075 -2.6623
 1050TIP3    H2 3157   6.081   0.674   4.894  3.2165 -2.8151 -1.9865
 1051TIP3   OH2 3158   3.698   5.009   3.883  0.1835  0.0309  0.2088
 1051TIP3    H1 3159   3.765   5.067   3.846 -0.8156  0.6086 -0.7622
 1051TIP3    H2 3160   3.671   4.954   3.809 -2.0351  1.3726 -0.0843
 1052TIP3   OH2 3161   1.030   1.008   1.211  0.2682  0.8213  0.0056
 1052TIP3    H1 3162   0.986   1.092   1.200  0.3102  0.7917 -0.4110
 1052TIP3    H2 3163   0.965   0.943   1.184  1.3765  0.8849 -3.2921
 1053TIP3   OH2 3164   5.469   0.347   0.211 -0.3132  0.2649  0.0530
 1053TIP3    H1 3165   5.555   0.356   0.171 -0.5751  0.1217 -0.5582
 1053TIP3    H2 3166   5.463   0.419   0.274 -0.5400  1.5303 -1.3624
 1054TIP3   OH2 3167   5.768   0.380   2.954 -0.0830  0.2913  0.1025
 1054TIP3    H1 3168   5.772   0.434   2.874 -2.3529 -0.6017 -0.7038
 1054TIP3    H2 3169   5.818   0.301   2.932 -1.0364 -0.1288 -0.6260
 1055TIP3   OH2 3170   5.701   3.647   4.983 -0.0855 -0.0071 -0.0416
 1055TIP3    H1 3171   5.719   3.705   4.909  0.1649  0.1870  0.1707
 1055TIP3    H2 3172   5.656   3.571   4.944 -1.6685  0.9328 -0.1442
 1056TIP3   OH2 3173   3.181   5.379   4.430 -0.6667 -0.4107 -0.4202
 1056TIP3    H1 3174   3.090   5.382   4.400 -0.5600  0.4266 -0.6786
 1056TIP3    H2 3175   3.232   5.414   4.357 -0.2531  0.1446  0.1177
 1057TIP3   OH2 3176   2.306   4.282   3.070 -0.3028 -0.6085 -0.1119
 1057TIP3    H1 3177   2.374   4.349   3.061  0.2069 -0.8779  1.4344
 1057TIP3    H2 3178   2.231   4.330   3.106  0.3459 -0.9581  1.8505
 1058TIP3   OH2 3179   2.819   0.728   2.127  0.0682  0.2741  0.6205
 1058TIP3    H1 3180   2.818   0.640   2.090 -0.2422  0.6061 -0.1875
 1058TIP3    H2 3181   2.886   0.725   2.195  0.9112 -0.2624 -0.2112
 1059TIP3   OH2 3182   5.659   2.364   3.534 -0.6205  0.4549 -0.1386
 1059TIP3    H1 3183   5.608   2.442   3.558 -0.4612  0.3722  0.5039
 1059TIP3    H2 3184   5.641   2.302   3.606  0.1625  0.3240 -0.0546
 1060TIP3   OH2 3185   1.337   3.556   2.902 -0.6863 -0.8516  0.0249
 1060TIP3    H1 3186   1.289   3.570   2.820 -0.4589  0.8131  0.1386
 1060TIP3    H2 3187   1.315   3.632   2.956  0.9346 -0.7513  0.6117
 1061TIP3   OH2 3188   4.438   2.542   3.631  0.1854  0.3262 -0.2775
 1061TIP3    H1 3189   4.405   2.458   3.665  0.2566  0.4951  0.2070
 1061TIP3    H2 3190   4.463   2.592   3.709  1.9527  0.0685 -0.6431
 1062TIP3   OH2 3191   0.181   0.766   0.406  0.6529  0.1467  0.3878
 1062TIP3    H1 3192   0.140   0.781   0.321  0.0828 -0.7746  0.4868
 1062TIP3    H2 3193   0.110   0.734   0.462  1.2154 -0.1400  0.9533
 1063TIP3   OH2 3194   0.640   4.259   1.070 -0.6289 -0.4787  0.0775
 1063TIP3    H1 3195   0.651   4.304   0.986  0.5295  1.0528  1.0017
 1063TIP3    H2 3196   0.634   4.166   1.047  0.4101 -0.1571 -1.6434
 1064TIP3   OH2 3197   2.060   0.368   1.039 -0.4110 -0.1640 -0.0045
 1064TIP3    H1 3198   2.124   0.421   0.992  0.9290 -1.9135 -0.2357
 1064TIP3    H2 3199   2.107   0.332   1.113 -1.9962  0.9808  1.6572
 1065TIP3   OH2 3200   4.755   5.661   2.651  0.2097 -0.8142  0.7045
 1065TIP3    H1 3201   4.831   5.626   2.698  1.9059 -0.6539 -1.7365
 1065TIP3    H2 3202   4.792   5.720   2.585 -2.0751 -0.3250 -0.2431
 1066TIP3   OH2 3203   3.735   5.286   1.355 -0.7005 -0.1416  0.4745
 1066TIP3    H1 3204   3.824   5.276   1.320 -0.8225 -0.1793  0.1703
 1066TIP3    H2 3205   3.706   5.196   1.369  0.3159 -0.1317  3.1916
 1067TIP3   OH2 3206   3.418   5.672   4.154  0.0320  0.0682  0.3578
 1067TIP3    H1 3207   3.420   5.710   4.066  0.3531 -1.5584 -0.3680
 1067TIP3    H2 3208   3.498   5.620   4.159 -1.0392 -1.6028  0.7931
 1068TIP3   OH2 3209   2.854   1.359   1.875  0.0643  0.0873 -0.0168
 1068TIP3    H1 3210   2.921   1.374   1.942 -0.7616  0.0174  0.8558
 1068TIP3    H2 3211   2.868   1.270   1.845  0.1731 -0.0280  0.3768
 1069TIP3   OH2 3212   1.360   4.768   0.593  0.3102 -0.2732 -0.5688
 1069TIP3    H1 3213   1.429   4.764   0.659  0.1585 -2.6629 -0.4678
 1069TIP3    H2 3214   1.403   4.746   0.511  0.1240  0.7625 -0.9602
 1070TIP3   OH2 3215   4.886   0.277   2.347  0.0702  0.5113 -0.4401
 1070TIP3    H1 3216   4.800   0.235   2.334 -0.0170  1.2736 -2.9509
 1070TIP3    H2 3217   4.865   0.366   2.375  0.0205  0.6019 -0.7524
 1071TIP3   OH2 3218   4.402   1.490   3.483  0.5639 -0.2106 -0.3512
 1071TIP3    H1 3219   4.418   1.552   3.555  0.6099  0.8042 -1.2136
 1071TIP3    H2 3220   4.458   1.415   3.504  2.0358  0.8554 -0.2917
 1072TIP3   OH2 3221   3.366   4.023   2.037  0.1683 -0.9778  0.6034
 1072TIP3    H1 3222   3.440   4.049   1.981 -0.9869 -0.2898 -0.6561
 1072TIP3    H2 3223   3.399   4.033   2.126  1.1945  0.5767  0.0956
 1073TIP3   OH2 3224   5.292   3.259   0.043 -0.1680  0.4260  0.2804
 1073TIP3    H1 3225   5.341   3.209   0.108  0.8895  1.1535  0.0729
 1073TIP3    H2 3226   5.295   3.206  -0.036 -0.8803 -0.1495  0.6249
 1074TIP3   OH2 3227   5.195   1.322   0.489 -0.2573 -0.7659 -0.3908
 1074TIP3    H1 3228   5.162   1.346   0.576 -0.2002 -1.5677 -0.1436
 1074TIP3    H2 3229   5.125   1.348   0.429  0.1168  0.7302 -0.2223
 1075TIP3   OH2 3230   6.031   0.058   4.566 -0.0405 -0.1656 -0.8644
 1075TIP3    H1 3231   6.084  -0.021   4.574  1.6394  0.9577 -0.5423
 1075TIP3    H2 3232   6.084   0.127   4.604 -0.3214  1.6464 -3.5162
 1076TIP3   OH2 3233   5.831   3.095   1.623  0.2956  0.4575  0.5485
 1076TIP3    H1 3234   5.877   3.179   1.619  0.7033  0.2039 -0.3552
 1076TIP3    H2 3235   5.871   3.049   1.697  2.3592 -0.2236 -0.8965
 1077TIP3   OH2 3236   5.146   4.237   0.318  0.2214  0.2949  0.6759
 1077TIP3    H1 3237   5.144   4.333   0.318 -0.4850  0.2854  0.5125
 1077TIP3    H2 3238   5.238   4.215   0.309  0.4020  0.9609  0.8378
 1078TIP3   OH2 3239   3.608   3.386   1.312 -0.0078 -0.4286  0.5235
 1078TIP3    H1 3240   3.607   3.320   1.381 -1.4666 -1.0650 -0.0630
 1078TIP3    H2 3241   3.689   3.370   1.264  2.5318  1.8147  3.6736
 1079TIP3   OH2 3242   0.578   0.866   4.166 -0.0708 -0.2857 -0.5878
 1079TIP3    H1 3243   0.577   0.908   4.080  1.5553  1.0153 -0.0308
 1079TIP3    H2 3244   0.523   0.921   4.221  1.2458  0.6003 -0.1075
 1080TIP3   OH2 3245   1.442   1.472   1.859 -0.0771 -0.7112  0.1333
 1080TIP3    H1 3246   1.479   1.526   1.789 -0.4371 -1.0130 -0.3028
 1080TIP3    H2 3247   1.372   1.422   1.816 -0.2111 -1.0070  0.6801
 1081TIP3   OH2 3248   4.227   2.924   4.210 -0.1717  0.4055 -0.7686
 1081TIP3    H1 3249   4.249   2.932   4.117  0.5365 -0.1778 -0.6599
 1081TIP3    H2 3250   4.162   2.854   4.213  0.7974 -0.5231 -0.7001
 1082TIP3   OH2 3251   3.274   0.564   0.382  0.1241 -0.4960  0.0236
 1082TIP3    H1 3252   3.309   0.475   0.384  1.1622 -0.1948 -1.8533
 1082TIP3    H2 3253   3.349   0.620   0.402 -0.1437  0.0056 -0.3411
 1083TIP3   OH2 3254   2.931   0.285   1.771  0.4635 -0.1924  0.0225
 1083TIP3    H1 3255   2.991   0.248   1.835  0.6362  0.5987  0.3304
 1083TIP3    H2 3256   2.965   0.256   1.686  2.6440  2.0341  0.0209
 1084TIP3   OH2 3257   0.581   4.655   1.375 -0.1636  0.2667 -0.1912
 1084TIP3    H1 3258   0.530   4.575   1.387  0.4807 -0.2613 -0.8503
 1084TIP3    H2 3259   0.545   4.717   1.438 -0.8439 -0.4629  0.1468
 1085TIP3   OH2 3260   3.793   5.268   0.851  0.1231  0.1602 -0.2838
 1085TIP3    H1 3261   3.747   5.279   0.768  0.8201 -0.1466 -0.7248
 1085TIP3    H2 3262   3.802   5.357   0.886 -0.9684  0.2036 -0.0860
 1086TIP3   OH2 3263   0.950   2.122   4.747  0.1348 -0.1084  0.9920
 1086TIP3    H1 3264   0.898   2.127   4.667 -2.3704  0.6179  2.5303
 1086TIP3    H2 3265   0.962   2.214   4.773 -1.0880 -0.3508  2.5823
 1087TIP3   OH2 3266   4.734   5.844   2.170 -0.3358  0.2780  0.1051
 1087TIP3    H1 3267   4.712   5.937   2.167  2.3624  1.0627  1.3942
 1087TIP3    H2 3268   4.829   5.842   2.178 -0.0332 -2.6897 -2.2991
 1088TIP3   OH2 3269   3.836   2.780   0.411 -0.1411 -0.4386 -0.1378
 1088TIP3    H1 3270   3.750   2.808   0.378  0.6062  2.9931  0.4169
 1088TIP3    H2 3271   3.822   2.767   0.505  0.1301  1.2050  0.1500
 1089TIP3   OH2 3272   0.804   5.389   2.276  0.1815 -0.0108 -0.1199
 1089TIP3    H1 3273   0.836   5.363   2.362  0.1615  3.4716  1.0784
 1089TIP3    H2 3274   0.873   5.446   2.241 -0.2398 -0.5891 -2.0435
 1090TIP3   OH2 3275   1.810   0.916   3.061 -0.6781  0.0188 -0.1647
 1090TIP3    H1 3276   1.821   1.000   3.106 -2.8631  0.1737  0.1791
 1090TIP3    H2 3277   1.717   0.912   3.039 -0.0799 -0.9833 -2.8955
 1091TIP3   OH2 3278   6.213   3.491   3.317  0.0415  1.1053 -0.0783
 1091TIP3    H1 3279   6.132   3.448   3.345  0.3122  0.7610  0.2048
 1091TIP3    H2 3280   6.267   3.493   3.397  1.0656 -0.4209 -0.6925
 1092TIP3   OH2 3281   6.173   3.100   5.065  0.2640  0.4620  0.8414
 1092TIP3    H1 3282   6.122   3.168   5.108 -1.8277 -0.2474 -0.3792
 1092TIP3    H2 3283   6.138   3.018   5.099 -0.9641 -0.0924 -1.5378
 1093TIP3   OH2 3284   6.099   4.057   0.253 -0.3867  0.1356  0.0754
 1093TIP3    H1 3285   6.181   4.082   0.295 -0.3488 -0.4273  0.3430
 1093TIP3    H2 3286   6.126   4.006   0.176 -0.4643  0.8541 -0.4370
 1094TIP3   OH2 3287   5.724   3.168   2.454 -0.8303 -0.9411 -0.1727
 1094TIP3    H1 3288   5.711   3.078   2.485  0.5060 -1.4145 -0.9415
 1094TIP3    H2 3289   5.813   3.170   2.420 -0.7969  0.7134 -0.0838
 1095TIP3   OH2 3290   2.164   4.001   3.580 -0.0852  0.2400  0.2298
 1095TIP3    H1 3291   2.123   4.076   3.538 -1.2258  0.3753  1.5363
 1095TIP3    H2 3292   2.091   3.946   3.608  0.7129 -1.1662 -0.3108
 1096TIP3   OH2 3293   3.018   4.588   0.661 -0.2353 -0.5607 -0.2367
 1096TIP3    H1 3294   3.084   4.620   0.599  1.0996  0.0389  1.4146
 1096TIP3    H2 3295   3.008   4.496   0.640  0.1399 -0.3623 -1.3681
 1097TIP3   OH2 3296   4.835   1.685   2.380 -0.5325  0.1130 -0.3799
 1097TIP3    H1 3297   4.874   1.609   2.422 -0.8374 -0.3193 -0.8709
 1097TIP3    H2 3298   4.778   1.724   2.447 -0.2236  0.0257 -0.0674
 1098TIP3   OH2 3299   1.945   2.015   3.472  0.3376  0.1420 -0.2517
 1098TIP3    H1 3300   2.039   2.012   3.490  0.0768 -0.3592  1.1348
 1098TIP3    H2 3301   1.930   2.103   3.438  1.3882  0.0395 -1.0404
 1099TIP3   OH2 3302   5.627   3.258   0.555  0.5833  0.0118 -0.0143
 1099TIP3    H1 3303   5.543   3.263   0.509  0.6937 -0.4346 -0.2658
 1099TIP3    H2 3304   5.668   3.179   0.521  0.6984 -0.2827  0.7959
 1100TIP3   OH2 3305   1.837   0.885   4.036  0.8713 -0.0096  0.0222
 1100TIP3    H1 3306   1.762   0.830   4.061  1.2787  0.6347  3.1508
 1100TIP3    H2 3307   1.814   0.921   3.951 -2.5396  0.3902  0.9800
 1101TIP3   OH2 3308   5.087   4.603   3.836 -0.1153  0.2858 -0.0675
 1101TIP3    H1 3309   5.141   4.562   3.768 -2.7774 -0.5029 -1.9132
 1101TIP3    H2 3310   5.077   4.694   3.807 -0.4701  0.1989 -0.2251
 1102TIP3   OH2 3311   3.369   5.246   4.855  0.0230  0.1418  0.3331
 1102TIP3    H1 3312   3.406   5.240   4.943 -2.2303  0.6585  1.3862
 1102TIP3    H2 3313   3.358   5.340   4.840  2.8998  0.2849 -1.7082
 1103TIP3   OH2 3314   1.860   4.612   4.588 -0.0683 -0.2255 -0.0557
 1103TIP3    H1 3315   1.808   4.649   4.660  0.3404  0.0175  0.1206
 1103TIP3    H2 3316   1.816   4.643   4.509  1.1314  1.9859  0.0618
 1104TIP3   OH2 3317   3.934   1.164   0.565  0.2000 -0.1528  0.5646
 1104TIP3    H1 3318   3.984   1.233   0.522 -0.4982  0.3977  0.6245
 1104TIP3    H2 3319   3.936   1.091   0.503  1.4993 -0.3338  0.7811
 1105TIP3   OH2 3320   0.144   1.250   1.686  0.1219 -0.0658  0.1985
 1105TIP3    H1 3321   0.222   1.225   1.735 -0.6306 -1.8365  0.5611
 1105TIP3    H2 3322   0.071   1.213   1.736 -0.9119  1.0003 -0.4692
 1106TIP3   OH2 3323   5.100   3.086   2.759 -0.4698  0.2879  0.5619
 1106TIP3    H1 3324   5.058   3.109   2.676 -1.6186 -0.9729  0.7709
 1106TIP3    H2 3325   5.036   3.033   2.805  1.3556 -1.7994  0.8735
 1107TIP3   OH2 3326   3.030   5.696   4.113  0.1139  0.7240  0.8359
 1107TIP3    H1 3327   3.045   5.771   4.171 -1.9734  0.5367  1.6730
 1107TIP3    H2 3328   2.939   5.704   4.087 -0.2583 -1.7265  1.2096
 1108TIP3   OH2 3329   1.842   3.602   2.726 -0.0066 -0.2946 -0.0765
 1108TIP3    H1 3330   1.749   3.616   2.710 -0.1671 -1.2574  0.0094
 1108TIP3    H2 3331   1.870   3.539   2.660  0.0784 -1.6812  1.2351
 1109TIP3   OH2 3332   5.940   5.621   4.809  0.2173  0.0784 -0.1343
 1109TIP3    H1 3333   5.936   5.692   4.873  1.0269 -0.6492  0.7561
 1109TIP3    H2 3334   6.033   5.600   4.802 -0.0646 -1.4850  0.3210
 1110TIP3   OH2 3335   4.896   3.416   0.252 -0.0740 -0.2347 -0.0796
 1110TIP3    H1 3336   4.925   3.442   0.340 -0.6490 -1.0431  0.3577
 1110TIP3    H2 3337   4.802   3.432   0.252  0.3393  2.9696 -1.6998
 1111TIP3   OH2 3338   5.752   2.767   3.011  0.3775 -0.3750 -0.0772
 1111TIP3    H1 3339   5.702   2.750   3.091 -1.0581 -1.0304 -1.0589
 1111TIP3    H2 3340   5.841   2.741   3.032  0.1014 -0.1886  1.4179
 1112TIP3   OH2 3341   3.703   0.910   2.403 -0.7556  0.6250  0.1148
 1112TIP3    H1 3342   3.756   0.832   2.387 -2.1412 -0.4548  0.6191
 1112TIP3    H2 3343   3.767   0.980   2.416  0.5327 -0.5355  0.2409
 1113TIP3   OH2 3344   2.730   4.799   1.436 -0.4508 -0.0814  0.1720
 1113TIP3    H1 3345   2.794   4.841   1.494  0.1115 -1.6762  0.7561
 1113TIP3    H2 3346   2.661   4.769   1.495 -1.1227  0.4922 -0.3077
 1114TIP3   OH2 3347   6.174   4.474   4.682 -0.0414 -0.3638 -0.3371
 1114TIP3    H1 3348   6.207   4.490   4.771 -3.2690 -0.0723  0.9371
 1114TIP3    H2 3349   6.175   4.379   4.672  0.3902 -0.3943 -0.0120
 1115TIP3   OH2 3350   3.487   1.210   1.390  0.2642  0.1040 -0.2288
 1115TIP3    H1 3351   3.496   1.121   1.424 -1.7093 -0.4740 -1.0970
 1115TIP3    H2 3352   3.573   1.249   1.403  1.2186 -1.9607  0.0763
 1116TIP3   OH2 3353   3.353   4.767   2.118  1.0069  0.3767  0.3491
 1116TIP3    H1 3354   3.352   4.726   2.204 -1.6939  0.8122  0.6300
 1116TIP3    H2 3355   3.445   4.771   2.093  1.9007  0.5496  3.3600
 1117TIP3   OH2 3356   4.078   3.068   4.961  0.9080  0.7161  0.0946
 1117TIP3    H1 3357   4.053   2.976   4.954  0.8578  0.8576 -1.9383
 1117TIP3    H2 3358   3.997   3.113   4.985  0.9770  0.2392  1.3087
 1118TIP3   OH2 3359   1.157   2.676   0.403  0.3560 -0.4240  0.3048
 1118TIP3    H1 3360   1.099   2.750   0.419  1.2761  1.2189 -3.0401
 1118TIP3    H2 3361   1.227   2.685   0.468  0.3914  1.5902  0.0352
 1119TIP3   OH2 3362   0.188   1.877   4.752 -0.0324  0.1135  0.1837
 1119TIP3    H1 3363   0.225   1.924   4.678 -0.5118 -0.4017 -0.3960
 1119TIP3    H2 3364   0.264   1.853   4.806  1.0367 -3.8783 -2.6625
 1120TIP3   OH2 3365   5.720   4.844   0.557  0.1998  0.4228 -0.0867
 1120TIP3    H1 3366   5.797   4.895   0.530  0.1828  0.8947  0.7416
 1120TIP3    H2 3367   5.757   4.765   0.597  0.2491  0.5207  0.0611
 1121TIP3   OH2 3368   4.465   1.716   2.971 -0.1838 -0.2301  0.0055
 1121TIP3    H1 3369   4.393   1.692   2.913  0.3996 -1.6265 -0.1689
 1121TIP3    H2 3370   4.454   1.660   3.048  1.8364 -1.9731 -0.8878
 1122TIP3   OH2 3371   4.901   5.430   2.151 -0.0563 -0.4444 -0.1754
 1122TIP3    H1 3372   4.916   5.430   2.246  0.4419 -0.1634 -0.2517
 1122TIP3    H2 3373   4.985   5.459   2.114 -0.7998  1.2687 -0.6116
 1123TIP3   OH2 3374   3.224   3.498   0.134 -0.0563 -0.0315  0.5687
 1123TIP3    H1 3375   3.141   3.539   0.160 -0.6428 -0.3197 -0.7337
 1123TIP3    H2 3376   3.271   3.568   0.089 -0.7229 -0.5136 -0.9608
 1124TIP3   OH2 3377   3.628   1.796   1.463 -0.2775 -0.1120  0.5751
 1124TIP3    H1 3378   3.695   1.745   1.418  0.2828  1.4626 -0.4402
 1124TIP3    H2 3379   3.677   1.851   1.524 -0.7278  0.4248  0.4590
 1125TIP3   OH2 3380   0.700   5.019   2.663 -0.5665 -0.8121  0.3992
 1125TIP3    H1 3381   0.649   5.070   2.725 -0.9014 -0.6779  0.0094
 1125TIP3    H2 3382   0.654   5.027   2.580  0.6837  0.2183 -0.2150
 1126TIP3   OH2 3383   5.517   1.239   2.473 -0.1224 -0.7019 -0.0512
 1126TIP3    H1 3384   5.497   1.272   2.385  2.9893 -0.8423 -0.8964
 1126TIP3    H2 3385   5.462   1.292   2.531 -3.4863 -1.6831 -2.0767
 1127TIP3   OH2 3386   1.085   5.879   5.127 -0.2982 -0.0402  1.0405
 1127TIP3    H1 3387   1.124   5.958   5.090  0.6660  0.0764  2.2484
 1127TIP3    H2 3388   0.999   5.908   5.158 -0.3420  0.2996  0.6146
 1128TIP3   OH2 3389   0.144   3.065   4.498 -0.4115 -0.5347 -0.2125
 1128TIP3    H1 3390   0.172   3.064   4.407 -1.3379  0.6387 -0.5425
 1128TIP3    H2 3391   0.154   3.156   4.525  0.2799 -0.9505  1.0157
 1129TIP3   OH2 3392   0.983   0.726   0.862 -0.1960 -0.0657  0.3878
 1129TIP3    H1 3393   0.986   0.798   0.925  1.5587  0.0401  0.2195
 1129TIP3    H2 3394   0.923   0.663   0.902 -3.3161  2.2105 -0.3353
 1130TIP3   OH2 3395   3.833   4.997   0.820 -0.2488 -0.4077 -0.0236
 1130TIP3    H1 3396   3.854   5.077   0.868  0.3438 -0.8570  0.4804
 1130TIP3    H2 3397   3.852   5.018   0.728  2.3513 -0.7402  0.3743
 1131TIP3   OH2 3398   4.426   4.826   4.200 -0.1147 -0.3001 -0.5178
 1131TIP3    H1 3399   4.480   4.894   4.240  0.1165  0.8740 -2.6586
 1131TIP3    H2 3400   4.367   4.797   4.270  1.0375  0.7721  0.9490
 1132TIP3   OH2 3401   1.769   5.494   1.094 -0.3616  0.1049  0.4343
 1132TIP3    H1 3402   1.827   5.421   1.072 -0.6237  0.4590 -1.6636
 1132TIP3    H2 3403   1.789   5.514   1.185  1.8108 -0.6800  0.1840
 1133TIP3   OH2 3404   4.023   3.438   4.700 -0.5945  0.7899 -0.2611
 1133TIP3    H1 3405   4.081   3.383   4.753 -1.3870  0.0277 -0.1511
 1133TIP3    H2 3406   4.038   3.527   4.731 -0.2674  0.4753  0.5058
 1134TIP3   OH2 3407   3.840   5.659   4.681  0.0925 -0.0688 -0.5191
 1134TIP3    H1 3408   3.911   5.714   4.713 -0.0326 -0.1693 -0.0578
 1134TIP3    H2 3409   3.776   5.721   4.646  0.6056  0.0006 -1.3696
 1135TIP3   OH2 3410   4.087   5.827   4.322 -1.0577 -0.2111 -0.0645
 1135TIP3    H1 3411   4.176   5.861   4.317 -1.4204  0.7067 -0.5230
 1135TIP3    H2 3412   4.060   5.816   4.231 -1.2127 -1.0366  0.0733
 1136TIP3   OH2 3413   4.229   1.098   1.795  0.6007 -0.0442  0.1409
 1136TIP3    H1 3414   4.322   1.098   1.819  1.0227 -2.0319 -1.2064
 1136TIP3    H2 3415   4.182   1.083   1.877  1.5164  0.2188  0.7271
 1137TIP3   OH2 3416   4.859   4.835   4.220  0.5315 -0.3806 -0.9700
 1137TIP3    H1 3417   4.889   4.924   4.202  0.1513  0.1274  0.7235
 1137TIP3    H2 3418   4.940   4.784   4.230  0.7941  0.1503 -0.3040
 1138TIP3   OH2 3419   0.749   5.404   3.474 -0.3120  0.6660  0.4702
 1138TIP3    H1 3420   0.823   5.444   3.521  1.2463 -0.7213 -0.6935
 1138TIP3    H2 3421   0.713   5.341   3.537  0.0103  0.7851  0.7820
 1139TIP3   OH2 3422   1.386   1.476   3.278 -0.1865  0.3341  0.2922
 1139TIP3    H1 3423   1.321   1.540   3.307 -1.1019 -0.2422 -0.4297
 1139TIP3    H2 3424   1.335   1.396   3.264  0.8956 -0.4842  0.9353
 1140TIP3   OH2 3425   4.322   2.586   2.029 -0.2525 -0.1018  0.4012
 1140TIP3    H1 3426   4.369   2.561   2.109  0.6574  0.3530  0.0228
 1140TIP3    H2 3427   4.357   2.527   1.962 -1.9608 -1.3924  0.5664
 1141TIP3   OH2 3428   1.975   4.418   2.243  0.0068 -0.2157  0.0216
 1141TIP3    H1 3429   2.053   4.364   2.236  0.2367 -0.0145  0.8577
 1141TIP3    H2 3430   1.904   4.363   2.209  0.2694 -0.9644  0.6603
 1142TIP3   OH2 3431   3.444   1.561   1.502 -0.6087 -0.0633  0.7081
 1142TIP3    H1 3432   3.519   1.608   1.538  0.3410 -0.1356 -1.0861
 1142TIP3    H2 3433   3.480   1.481   1.464 -1.5213  0.0306 -0.4319
 1143TIP3   OH2 3434   3.253   1.475   3.418 -0.2766  0.5048 -0.0148
 1143TIP3    H1 3435   3.177   1.492   3.362  0.6473 -1.2091 -1.9273
 1143TIP3    H2 3436   3.306   1.413   3.368  0.7549 -0.9652  2.7277
 1144TIP3   OH2 3437   2.663   4.709   2.638 -0.3373  0.4293 -0.2689
 1144TIP3    H1 3438   2.592   4.652   2.608 -0.6428  0.9002 -0.4410
 1144TIP3    H2 3439   2.723   4.714   2.563 -0.1395  0.0618 -0.1365
 1145TIP3   OH2 3440   3.287   3.260   1.444  0.0442  0.0091  0.5039
 1145TIP3    H1 3441   3.371   3.219   1.462  0.2320  0.9531  1.9691
 1145TIP3    H2 3442   3.307   3.333   1.385  0.0016 -0.7324 -0.4459
 1146TIP3   OH2 3443   3.863   5.723   3.510 -0.5510  0.0610  0.2859
 1146TIP3    H1 3444   3.848   5.790   3.443 -1.8679  0.8025  1.2770
 1146TIP3    H2 3445   3.797   5.656   3.492 -1.0953  0.3979  0.9918
 1147TIP3   OH2 3446   3.761   2.879   1.779  0.3043  0.6338 -0.1575
 1147TIP3    H1 3447   3.815   2.804   1.755 -0.5827 -0.0257 -0.1458
 1147TIP3    H2 3448   3.814   2.928   1.842  1.4864  0.8190 -1.2561
 1148TIP3   OH2 3449   2.629   2.522   3.661 -0.8205 -0.4575  0.1417
 1148TIP3    H1 3450   2.627   2.430   3.686 -1.6210 -0.4619  0.1116
 1148TIP3    H2 3451   2.536   2.547   3.656 -0.6107  0.7715  1.7213
 1149TIP3   OH2 3452   1.250   0.483   4.078 -0.3896 -0.0714  0.1812
 1149TIP3    H1 3453   1.201   0.445   4.151 -1.1818 -0.4413 -0.5189
 1149TIP3    H2 3454   1.234   0.424   4.004  0.2071  0.4109 -0.3532
 1150TIP3   OH2 3455   4.599   3.154   0.218 -0.0014  0.2522 -0.0151
 1150TIP3    H1 3456   4.587   3.243   0.187  1.5053  0.8788  1.0418
 1150TIP3    H2 3457   4.617   3.103   0.139 -0.4833  0.9501 -0.5877
 1151TIP3   OH2 3458   3.921   2.435   2.130 -0.2759 -0.1660 -0.7189
 1151TIP3    H1 3459   3.991   2.493   2.158 -0.3742 -0.5710  0.4132
 1151TIP3    H2 3460   3.938   2.352   2.176 -0.8669 -0.6148 -1.2918
 1152TIP3   OH2 3461   2.938   2.026   4.742 -0.0891 -0.3892 -0.0711
 1152TIP3    H1 3462   3.008   2.082   4.708 -0.0107 -0.4468 -0.0060
 1152TIP3    H2 3463   2.929   2.052   4.834  0.4368 -0.9718  0.1559
 1153TIP3   OH2 3464   0.965   5.718   3.064  0.1173 -0.3053 -0.0361
 1153TIP3    H1 3465   1.004   5.634   3.088  2.0648  0.2555 -0.9685
 1153TIP3    H2 3466   1.008   5.781   3.123  0.5826  0.3301 -1.0285
 1154TIP3   OH2 3467   4.346   2.984   0.148  0.2200 -0.5665 -0.4565
 1154TIP3    H1 3468   4.435   3.002   0.120  0.0848  0.8021 -0.0392
 1154TIP3    H2 3469   4.322   2.904   0.101  0.9003  0.2421 -2.2620
 1155TIP3   OH2 3470   5.874   4.875   4.086 -0.1519 -0.1865  0.2531
 1155TIP3    H1 3471   5.854   4.968   4.075 -1.5401 -0.4805  0.1364
 1155TIP3    H2 3472   5.883   4.864   4.180  2.5694  0.5308  0.1548
 1156TIP3   OH2 3473   2.512   4.408   4.273 -0.4247  0.4735 -0.2112
 1156TIP3    H1 3474   2.551   4.323   4.291 -2.1211 -0.3101 -0.0017
 1156TIP3    H2 3475   2.533   4.460   4.350  1.0666  0.4319 -0.5693
 1157TIP3   OH2 3476   5.326   2.870   2.562  0.8164  0.6566  0.2534
 1157TIP3    H1 3477   5.288   2.793   2.519  0.5795  1.6262 -1.3545
 1157TIP3    H2 3478   5.290   2.869   2.650  1.1948 -1.3283  0.4306
 1158TIP3   OH2 3479   5.944   2.151   1.577 -0.0835  0.1993  0.2770
 1158TIP3    H1 3480   5.934   2.241   1.546  1.0870  0.1928 -0.1444
 1158TIP3    H2 3481   5.855   2.115   1.573 -0.3464  0.9206 -0.8275
 1159TIP3   OH2 3482   0.283   3.316   1.321  0.9828  0.9854  0.2126
 1159TIP3    H1 3483   0.209   3.334   1.380  0.6493  1.6077 -0.3693
 1159TIP3    H2 3484   0.250   3.249   1.262  1.4828  0.0091  1.0235
 1160TIP3   OH2 3485   4.231   3.535   5.142 -0.4288 -0.2768  0.4812
 1160TIP3    H1 3486   4.209   3.516   5.050 -0.7550  0.4440  0.4023
 1160TIP3    H2 3487   4.227   3.450   5.185 -0.8277 -0.5441 -0.0609
 1161TIP3   OH2 3488   1.342   0.123   3.956  0.2790  0.4759 -0.0491
 1161TIP3    H1 3489   1.320   0.202   3.907  0.4867  1.0696  0.7767
 1161TIP3    H2 3490   1.322   0.146   4.047  0.1435 -0.5032  0.1748
 1162TIP3   OH2 3491   1.295   2.656   2.661 -0.1123 -0.5461 -0.3445
 1162TIP3    H1 3492   1.255   2.738   2.691  1.5584  0.0744  0.2812
 1162TIP3    H2 3493   1.311   2.607   2.741 -0.0052 -0.9778 -0.6293
 1163TIP3   OH2 3494   3.590   0.149   3.682  0.3305 -0.1787  0.2060
 1163TIP3    H1 3495   3.592   0.119   3.591 -2.1322  0.9591 -0.3034
 1163TIP3    H2 3496   3.651   0.223   3.684 -0.8329  0.8832 -1.0235
 1164TIP3   OH2 3497   3.042   2.761   0.458  0.5615 -0.2523  0.4118
 1164TIP3    H1 3498   3.067   2.714   0.537  0.2531 -1.0236  0.0530
 1164TIP3    H2 3499   2.951   2.788   0.473  1.0172  1.0608  1.0002
 1165TIP3   OH2 3500   3.275   0.910   0.305 -0.4082 -0.1096  0.0961
 1165TIP3    H1 3501   3.333   0.861   0.362 -2.0015 -1.9501  0.2437
 1165TIP3    H2 3502   3.332   0.973   0.260  1.2228 -0.0878  2.0597
 1166TIP3   OH2 3503   0.364   0.205   0.527  0.0501  0.3398  0.0212
 1166TIP3    H1 3504   0.403   0.292   0.527 -0.6723  0.6850  1.2712
 1166TIP3    H2 3505   0.433   0.148   0.562  0.5474  0.3762 -0.8627
 1167TIP3   OH2 3506   5.858   0.363   4.273 -0.2413  0.0571 -0.5094
 1167TIP3    H1 3507   5.886   0.284   4.320  1.2753  0.3695 -0.8389
 1167TIP3    H2 3508   5.899   0.435   4.320 -0.3538  0.5309 -1.1318
 1168TIP3   OH2 3509   2.390   3.785   4.184 -0.1994  0.3256  0.1098
 1168TIP3    H1 3510   2.370   3.692   4.178 -2.5478  0.7681 -0.0219
 1168TIP3    H2 3511   2.359   3.810   4.271  0.3261  0.9968  0.1057
 1169TIP3   OH2 3512   2.920   0.457   4.939  0.0492  0.2446 -0.2143
 1169TIP3    H1 3513   2.891   0.521   5.003 -0.7608  0.1018 -0.4239
 1169TIP3    H2 3514   2.905   0.372   4.982 -1.7078  0.0839 -1.0182
 1170TIP3   OH2 3515   1.917   4.259   3.972 -0.5357  0.2906 -0.1638
 1170TIP3    H1 3516   1.844   4.292   4.025  0.0899  0.4455  0.6268
 1170TIP3    H2 3517   1.894   4.281   3.882 -0.2817  2.7061  0.2870
 1171TIP3   OH2 3518   4.788   4.139   1.536 -0.3122  0.0644  0.6866
 1171TIP3    H1 3519   4.873   4.115   1.500 -1.0068 -2.1929  0.3429
 1171TIP3    H2 3520   4.724   4.095   1.479 -1.8941  3.4923 -0.4395
 1172TIP3   OH2 3521   1.186   0.579   0.503  0.7820  0.2548  0.3308
 1172TIP3    H1 3522   1.235   0.634   0.442 -0.2393  2.1487  1.1396
 1172TIP3    H2 3523   1.197   0.622   0.588 -1.8356  0.4825  0.6238
 1173TIP3   OH2 3524   0.219   3.708   2.745  0.3604 -0.3669  0.4412
 1173TIP3    H1 3525   0.301   3.755   2.760 -0.1897  1.5536 -1.9206
 1173TIP3    H2 3526   0.154   3.756   2.797 -0.2945  2.0524 -2.3359
 1174TIP3   OH2 3527   1.687   5.353   4.500 -0.2556  0.0525  0.0989
 1174TIP3    H1 3528   1.634   5.286   4.456  1.5056 -1.3493  0.0143
 1174TIP3    H2 3529   1.774   5.314   4.507  0.2821  1.4610  2.0641
 1175TIP3   OH2 3530   2.651   0.077   2.739  0.2895 -0.2276 -0.4053
 1175TIP3    H1 3531   2.604   0.119   2.811  0.4071 -0.6281 -0.0937
 1175TIP3    H2 3532   2.733   0.127   2.733  0.8459 -0.9778  0.5826
 1176TIP3   OH2 3533   6.335   4.163   4.032 -0.0204  0.0683  0.5902
 1176TIP3    H1 3534   6.294   4.086   3.992  1.1549 -0.9838  1.3476
 1176TIP3    H2 3535   6.264   4.227   4.038 -1.2275 -1.2243  0.6451
 1177TIP3   OH2 3536   6.265   4.167   0.676 -0.0629  0.9719  0.4012
 1177TIP3    H1 3537   6.178   4.169   0.636 -0.0661 -1.6038  0.1117
 1177TIP3    H2 3538   6.249   4.141   0.767  0.3652  1.5608  0.6580
 1178TIP3   OH2 3539   5.444   0.518   2.226 -0.4521 -0.1224 -0.1897
 1178TIP3    H1 3540   5.469   0.610   2.224 -0.3083  0.0544  3.2843
 1178TIP3    H2 3541   5.348   0.519   2.223 -0.4227 -0.0957 -2.6887
 1179TIP3   OH2 3542   3.790   4.168   0.347  0.0063  0.2330 -0.2003
 1179TIP3    H1 3543   3.874   4.151   0.389  0.0183 -2.2280 -1.0374
 1179TIP3    H2 3544   3.725   4.123   0.402 -0.4405  0.0452 -0.8657
 1180TIP3   OH2 3545   4.742   4.739   2.715 -0.2454 -0.4450  0.2779
 1180TIP3    H1 3546   4.699   4.654   2.713  0.5384 -0.8469 -1.0094
 1180TIP3    H2 3547   4.681   4.798   2.670  0.8183 -1.1981 -2.3372
 1181TIP3   OH2 3548   0.412   3.468   2.488  0.4385  0.1338 -0.0913
 1181TIP3    H1 3549   0.343   3.402   2.497 -0.1883  0.4936 -1.9656
 1181TIP3    H2 3550   0.459   3.465   2.572 -1.7342 -0.2179  1.1667
 1182TIP3   OH2 3551   4.041   3.334   2.961  0.1494 -0.1874 -0.1381
 1182TIP3    H1 3552   4.063   3.335   2.867 -0.6710 -1.5353 -0.3691
 1182TIP3    H2 3553   3.966   3.274   2.967 -2.5683  3.0151  0.8177
 1183TIP3   OH2 3554   0.722   2.586   1.132 -0.2441  0.2213  0.1737
 1183TIP3    H1 3555   0.817   2.574   1.134 -0.2301  0.1602 -0.4582
 1183TIP3    H2 3556   0.707   2.668   1.179  0.0331 -0.2355  1.0660
 1184TIP3   OH2 3557   1.067   1.650   1.713  0.0315 -0.1405  0.1858
 1184TIP3    H1 3558   1.006   1.723   1.716 -0.8492 -0.8904  0.8616
 1184TIP3    H2 3559   1.079   1.624   1.805 -0.4218 -1.4564 -0.1071
 1185TIP3   OH2 3560   0.149   4.461   2.518 -0.3539  0.0734 -0.5748
 1185TIP3    H1 3561   0.160   4.413   2.600 -2.3776 -0.1946 -0.4302
 1185TIP3    H2 3562   0.230   4.444   2.469 -0.7904 -3.1362 -0.3472
 1186TIP3   OH2 3563   4.931   3.837   4.620  0.1131 -0.1813 -0.2872
 1186TIP3    H1 3564   4.970   3.777   4.684  0.7322  0.8139  0.2918
 1186TIP3    H2 3565   4.969   3.922   4.641 -1.2237  0.5364 -0.6892
 1187TIP3   OH2 3566   1.502   2.895   1.576 -0.0177  0.1481 -0.3194
 1187TIP3    H1 3567   1.425   2.930   1.621 -0.7592  0.3197 -1.6932
 1187TIP3    H2 3568   1.532   2.967   1.520  0.9698 -0.0211 -0.0175
 1188TIP3   OH2 3569   2.067   4.595   1.361  0.1444 -0.1421  0.0139
 1188TIP3    H1 3570   2.080   4.649   1.284 -0.3153  1.0301  0.7300
 1188TIP3    H2 3571   2.001   4.530   1.334  0.2330  0.0468 -0.6643
 1189TIP3   OH2 3572   0.928   1.280   1.772  0.6303 -0.5629 -0.0764
 1189TIP3    H1 3573   0.884   1.347   1.719  2.9415  0.5894 -0.7024
 1189TIP3    H2 3574   0.862   1.251   1.835 -1.1902  0.4896 -1.4079
 1190TIP3   OH2 3575   4.350   2.791   3.182 -0.1223  0.1944 -0.2341
 1190TIP3    H1 3576   4.410   2.787   3.107  1.2796  0.1384  0.8448
 1190TIP3    H2 3577   4.393   2.739   3.250 -1.0034  0.8288  0.8469
 1191TIP3   OH2 3578   1.338   2.237   4.025 -0.1054  0.2466  0.0960
 1191TIP3    H1 3579   1.396   2.224   4.100 -0.9483  1.2192  0.9467
 1191TIP3    H2 3580   1.398   2.257   3.952  0.6730  0.2993  0.7331
 1192TIP3   OH2 3581   4.063   0.706   4.618 -0.0867 -0.0743  0.1579
 1192TIP3    H1 3582   3.997   0.737   4.556 -0.7869 -1.1336  0.3418
 1192TIP3    H2 3583   4.147   0.731   4.579 -0.5756  1.3458 -0.0510
 1193TIP3   OH2 3584   2.241   0.164   2.378  0.0806 -0.0650 -0.2616
 1193TIP3    H1 3585   2.206   0.250   2.400  0.3493 -0.3060  1.2569
 1193TIP3    H2 3586   2.312   0.181   2.316 -0.9873  0.6388 -1.3086
 1194TIP3   OH2 3587   4.440   3.377   3.946 -0.4837  0.3721 -0.2905
 1194TIP3    H1 3588   4.515   3.344   3.896  0.0464  2.9972 -1.4303
 1194TIP3    H2 3589   4.478   3.404   4.030 -0.8255 -1.3441  0.4471
 1195TIP3   OH2 3590   1.369   1.899   4.219  0.8525 -0.4499  0.7955
 1195TIP3    H1 3591   1.307   1.838   4.178 -0.9313 -0.3767  3.1632
 1195TIP3    H2 3592   1.451   1.851   4.223  0.8173 -0.8514 -1.7417
 1196TIP3   OH2 3593   2.699   1.284   1.083 -0.2052  0.4054  0.1860
 1196TIP3    H1 3594   2.712   1.379   1.072 -0.6134  0.4929  0.4054
 1196TIP3    H2 3595   2.741   1.245   1.007 -0.7197  0.8240 -0.3244
 1197TIP3   OH2 3596   1.671   2.407   3.281 -0.2065 -0.4181 -0.0073
 1197TIP3    H1 3597   1.644   2.436   3.194  0.6864  3.1874  0.7531
 1197TIP3    H2 3598   1.588   2.391   3.328 -1.0787  3.7044  0.2244
 1198TIP3   OH2 3599   2.221   4.506   3.411  0.1651  0.0930 -0.1080
 1198TIP3    H1 3600   2.147   4.564   3.393  0.7643  0.7580 -0.4690
 1198TIP3    H2 3601   2.223   4.499   3.507 -1.3074 -1.1920 -0.1434
 1199TIP3   OH2 3602   6.230   5.836   5.125 -0.3419  0.5202 -0.5858
 1199TIP3    H1 3603   6.283   5.909   5.094  0.3353  0.7483  1.0001
 1199TIP3    H2 3604   6.293   5.776   5.165 -1.0729 -0.1057 -0.3527
 1200TIP3   OH2 3605   6.337   0.013   1.783  0.4944 -0.9850 -0.4198
 1200TIP3    H1 3606   6.263  -0.032   1.823  1.2370 -2.4616 -0.6448
 1200TIP3    H2 3607   6.330   0.103   1.815 -1.0848 -1.2133 -0.0240
 1201TIP3   OH2 3608   2.953   1.678   2.629  0.4194 -0.3608  0.1010
 1201TIP3    H1 3609   2.896   1.604   2.646  1.0334 -0.6629  0.8923
 1201TIP3    H2 3610   2.917   1.718   2.550 -0.2877 -1.1279  0.0211
 1202TIP3   OH2 3611   1.347   1.903   0.498  0.6223  0.3301 -0.3216
 1202TIP3    H1 3612   1.310   1.957   0.428  0.0313 -0.3331 -0.5316
 1202TIP3    H2 3613   1.329   1.952   0.578 -1.2174 -0.2015 -0.3571
 1203TIP3   OH2 3614   4.570   2.762   0.407 -0.9065  0.2122 -0.2476
 1203TIP3    H1 3615   4.492   2.737   0.357 -0.5478  0.3488 -0.8784
 1203TIP3    H2 3616   4.543   2.840   0.456 -1.0814  0.4232 -0.6769
 1204TIP3   OH2 3617   1.461   5.829   3.539 -0.0484  0.6367  0.0466
 1204TIP3    H1 3618   1.367   5.823   3.560 -0.1436 -1.1654 -0.7198
 1204TIP3    H2 3619   1.465   5.814   3.445  0.9255  2.0574 -0.1619
 1205TIP3   OH2 3620   0.852   0.561   2.319 -0.1803 -0.5779  0.0515
 1205TIP3    H1 3621   0.861   0.621   2.393  1.5464  0.0659 -0.6232
 1205TIP3    H2 3622   0.758   0.558   2.301 -0.4769  0.4090  1.3225
 1206TIP3   OH2 3623   1.887   2.503   1.826  0.2401 -0.3596  0.3351
 1206TIP3    H1 3624   1.807   2.553   1.843 -1.9872 -2.5617 -2.6666
 1206TIP3    H2 3625   1.940   2.561   1.770  0.5686  0.8725  1.8364
 1207TIP3   OH2 3626   3.430   3.575   5.060 -0.6031 -0.8981  0.1021
 1207TIP3    H1 3627   3.392   3.549   5.143 -0.2090 -0.5372  0.3995
 1207TIP3    H2 3628   3.507   3.519   5.051 -1.7399 -2.3774 -0.9997
 1208TIP3   OH2 3629   2.378   2.447   2.552  0.1015  0.1223 -0.1139
 1208TIP3    H1 3630   2.449   2.511   2.543 -0.7758  1.2698  0.8267
 1208TIP3    H2 3631   2.326   2.457   2.472  0.2835  0.1671 -0.2275
 1209TIP3   OH2 3632   4.635   0.216   3.023 -0.8488  0.7514  0.0856
 1209TIP3    H1 3633   4.632   0.145   3.087 -1.0229  1.6797  1.1428
 1209TIP3    H2 3634   4.728   0.237   3.015 -0.6595 -0.4529 -1.2427
 1210TIP3   OH2 3635   6.331   3.373   1.743 -0.3898  0.0356 -0.1864
 1210TIP3    H1 3636   6.422   3.388   1.718 -0.9934  1.1356 -1.9499
 1210TIP3    H2 3637   6.296   3.317   1.674 -1.3401  0.6146 -0.1914
 1211TIP3   OH2 3638   1.015   1.720   1.331 -0.1201 -0.1050  0.3631
 1211TIP3    H1 3639   0.950   1.675   1.276 -1.3374  1.5271  0.3993
 1211TIP3    H2 3640   1.058   1.781   1.273  0.3941 -0.1743  0.6696
 1212TIP3   OH2 3641   3.345   4.153   1.276  0.0622 -0.0276  0.2943
 1212TIP3    H1 3642   3.416   4.088   1.276 -0.3459 -0.5414  2.2430
 1212TIP3    H2 3643   3.281   4.117   1.215 -0.3112 -1.6886  1.5974
 1213TIP3   OH2 3644   3.356   2.926   2.912  0.0441 -0.2032  0.1876
 1213TIP3    H1 3645   3.369   2.869   2.988  1.3175 -0.1244  0.0502
 1213TIP3    H2 3646   3.366   3.014   2.947  0.3332 -0.1577 -0.0079
 1214TIP3   OH2 3647   0.179   1.198   4.563  0.4782  0.4629 -0.1125
 1214TIP3    H1 3648   0.137   1.268   4.613  0.5334  0.9222 -0.6991
 1214TIP3    H2 3649   0.116   1.175   4.495  0.8789  0.6542 -0.5520
 1215TIP3   OH2 3650   5.545   0.988   0.517 -0.0427  0.4913 -0.1349
 1215TIP3    H1 3651   5.521   1.070   0.474  0.5636  0.5029 -0.4598
 1215TIP3    H2 3652   5.565   1.012   0.607  0.3207  0.7316 -0.2791
 1216TIP3   OH2 3653   6.301   0.741   4.015 -0.0847  0.0849 -0.6511
 1216TIP3    H1 3654   6.361   0.669   4.033 -0.3434 -0.1866 -0.8483
 1216TIP3    H2 3655   6.320   0.767   3.925 -0.1568  0.0991 -0.6629
 1217TIP3   OH2 3656   2.718   3.974   1.904 -0.0064  0.7282  0.2951
 1217TIP3    H1 3657   2.783   4.003   1.968  0.4043 -0.2751  0.3612
 1217TIP3    H2 3658   2.751   4.006   1.820  0.5714  0.2556  0.3335
 1218TIP3   OH2 3659   0.191   2.153   4.295  0.0392 -0.0903  0.2045
 1218TIP3    H1 3660   0.274   2.195   4.320  0.2815 -0.1426 -0.4776
 1218TIP3    H2 3661   0.215   2.096   4.222 -0.3924 -0.9741  0.7356
 1219TIP3   OH2 3662   2.549   3.596   1.080 -0.2822 -0.1875 -0.0956
 1219TIP3    H1 3663   2.534   3.599   0.985 -1.2295 -0.6647  0.0236
 1219TIP3    H2 3664   2.525   3.684   1.110  1.0315  0.3012 -0.4184
 1220TIP3   OH2 3665   1.545   0.337   0.356 -0.3216 -0.0556 -0.2729
 1220TIP3    H1 3666   1.471   0.277   0.342 -0.7201  0.4996 -0.5671
 1220TIP3    H2 3667   1.594   0.298   0.428 -0.2426 -1.0610 -0.8486
 1221TIP3   OH2 3668   1.576   1.608   4.985 -0.0536 -0.4195 -0.4009
 1221TIP3    H1 3669   1.545   1.698   4.993  1.8958  0.3772 -1.1090
 1221TIP3    H2 3670   1.498   1.555   4.997 -1.4846  1.3939 -1.0922
 1222TIP3   OH2 3671   6.018   2.555   2.012 -0.5949  0.0543  0.3893
 1222TIP3    H1 3672   5.962   2.534   1.937  0.0867  0.8510 -0.3732
 1222TIP3    H2 3673   6.045   2.646   1.996 -0.7795  0.3789  1.8353
 1223TIP3   OH2 3674   0.686   1.265   0.974 -0.3083  0.4272  0.3355
 1223TIP3    H1 3675   0.616   1.323   1.005 -0.5062  2.6250 -3.5663
 1223TIP3    H2 3676   0.762   1.289   1.026 -0.8918  2.9326  0.1885
 1224TIP3   OH2 3677   0.360   2.330   2.688 -0.0157  0.2012 -0.0245
 1224TIP3    H1 3678   0.299   2.258   2.670  0.2892 -0.2506  0.7370
 1224TIP3    H2 3679   0.304   2.400   2.722 -0.2739  0.2408 -0.5096
 1225TIP3   OH2 3680   5.251   3.045   1.020 -0.5433  0.5865  0.4181
 1225TIP3    H1 3681   5.191   3.066   1.091 -1.5438 -3.1822  0.8760
 1225TIP3    H2 3682   5.194   3.037   0.943 -0.0490  0.6674  0.0405
 1226TIP3   OH2 3683   0.196   2.014   3.014 -0.7276  0.1541  0.1787
 1226TIP3    H1 3684   0.139   2.086   2.987 -0.4966  0.4313  0.4235
 1226TIP3    H2 3685   0.189   2.012   3.109 -1.2212 -0.5570  0.1418
 1227TIP3   OH2 3686   3.900   5.436   0.570  0.3348  0.4164  0.0403
 1227TIP3    H1 3687   3.945   5.495   0.510  0.5670  0.4887  0.2892
 1227TIP3    H2 3688   3.970   5.387   0.613  0.1278 -0.7078 -0.8359
 1228TIP3   OH2 3689   5.736   5.176   3.052  0.0936  0.3654 -0.0739
 1228TIP3    H1 3690   5.816   5.225   3.071  0.7714 -0.4977 -0.6418
 1228TIP3    H2 3691   5.743   5.153   2.959  0.0920 -1.3056  0.3007
 1229TIP3   OH2 3692   3.574   5.345   3.275 -0.1242  0.1955 -0.2474
 1229TIP3    H1 3693   3.608   5.277   3.333 -0.1781  0.0864 -0.3418
 1229TIP3    H2 3694   3.480   5.349   3.294 -0.1239  0.2326 -0.2531
 1230TIP3   OH2 3695   5.920   1.722   1.419  0.1220 -0.5238  0.3059
 1230TIP3    H1 3696   5.875   1.702   1.501  1.2846 -0.8195  0.9031
 1230TIP3    H2 3697   5.961   1.807   1.435 -0.8792  0.1399 -0.5248
 1231TIP3   OH2 3698   0.388   4.568   2.430  0.4442 -0.4319  0.3047
 1231TIP3    H1 3699   0.315   4.629   2.418  1.2721  0.3072 -1.2339
 1231TIP3    H2 3700   0.459   4.622   2.464  1.0787 -0.5904 -0.7408
 1232TIP3   OH2 3701   2.303   5.627   4.762 -0.5361  0.2567  0.4739
 1232TIP3    H1 3702   2.265   5.641   4.676 -1.1583  1.9711  1.0034
 1232TIP3    H2 3703   2.247   5.560   4.802 -1.3611  0.8049  0.2423
 1233TIP3   OH2 3704   3.241   2.226   4.103  0.2986  0.0245 -0.1345
 1233TIP3    H1 3705   3.327   2.194   4.130  0.1488  0.2179  0.5893
 1233TIP3    H2 3706   3.215   2.287   4.172 -0.9325 -0.9199  0.2798
 1234TIP3   OH2 3707   2.756   5.376   5.120 -0.1924 -0.2654 -0.8307
 1234TIP3    H1 3708   2.686   5.416   5.172 -0.2404  0.7499 -1.6351
 1234TIP3    H2 3709   2.747   5.282   5.136 -0.7928 -0.0431  0.2370
 1235TIP3   OH2 3710   2.487   5.114   4.345  0.7006 -0.6010 -0.0368
 1235TIP3    H1 3711   2.514   5.116   4.253 -1.2396 -1.3076 -0.6886
 1235TIP3    H2 3712   2.565   5.141   4.394  0.7367  3.9346 -2.0661
 1236TIP3   OH2 3713   4.629   0.493   4.625 -0.0196 -0.3130 -0.2429
 1236TIP3    H1 3714   4.639   0.586   4.643  0.0604 -0.4328  0.3655
 1236TIP3    H2 3715   4.627   0.452   4.711  3.0490 -1.2030 -0.4903
 1237TIP3   OH2 3716   5.330   1.588   4.259  0.0333  0.2786  0.0873
 1237TIP3    H1 3717   5.266   1.577   4.188 -1.0975  1.3936  0.8878
 1237TIP3    H2 3718   5.373   1.671   4.238 -1.9687  1.8895  1.8654
 1238TIP3   OH2 3719   2.934   2.893   3.326 -0.4225 -1.1650 -0.0680
 1238TIP3    H1 3720   2.963   2.968   3.379 -0.3362 -1.4737  0.3309
 1238TIP3    H2 3721   2.949   2.921   3.236 -0.4924 -0.6594  0.0695
 1239TIP3   OH2 3722   2.335   1.676   1.542 -0.2339  0.5260  0.1756
 1239TIP3    H1 3723   2.416   1.674   1.593 -0.2673  2.6504  0.3990
 1239TIP3    H2 3724   2.267   1.693   1.607 -0.4881  1.5277 -0.3280
 1240TIP3   OH2 3725   6.302   0.166   0.192  0.6233  0.2907 -0.7057
 1240TIP3    H1 3726   6.336   0.242   0.238  1.0197 -1.0448  1.3497
 1240TIP3    H2 3727   6.379   0.113   0.173  0.0702 -1.3120  1.2355
 1241TIP3   OH2 3728   3.226   3.601   3.563  0.5920  0.1108 -0.2942
 1241TIP3    H1 3729   3.274   3.519   3.574  0.1400 -0.4785 -2.3913
 1241TIP3    H2 3730   3.143   3.575   3.522  0.1477  1.5576 -0.3567
 1242TIP3   OH2 3731   4.137   1.163   2.305  0.5923  0.2875 -0.3176
 1242TIP3    H1 3732   4.042   1.174   2.312  0.5224 -0.2887 -0.3100
 1242TIP3    H2 3733   4.150   1.069   2.300  1.3885  0.1183  2.8613
 1243TIP3   OH2 3734   0.883   5.977   2.480 -0.2724  0.6763 -0.6072
 1243TIP3    H1 3735   0.844   6.029   2.409  0.5187 -0.7610 -2.1673
 1243TIP3    H2 3736   0.877   5.887   2.450  0.7420  0.0835  0.8608
 1244TIP3   OH2 3737   4.130   2.595   1.324 -0.5629  0.1309  0.3994
 1244TIP3    H1 3738   4.184   2.595   1.245  0.8421 -0.7958  1.2952
 1244TIP3    H2 3739   4.096   2.684   1.330 -1.7781 -0.1112 -1.9122
 1245TIP3   OH2 3740   5.839   5.300   1.689 -0.2540  0.2083 -0.3933
 1245TIP3    H1 3741   5.918   5.248   1.675 -0.8949 -0.6158 -1.1061
 1245TIP3    H2 3742   5.785   5.283   1.611 -1.9884 -0.8656  0.9599
 1246TIP3   OH2 3743   3.626   3.012   3.203 -0.0938 -0.2948  0.6374
 1246TIP3    H1 3744   3.669   2.967   3.276 -0.8417 -2.6958 -0.2978
 1246TIP3    H2 3745   3.635   2.952   3.129 -0.8284  1.3177 -0.8340
 1247TIP3   OH2 3746   5.987   3.530   3.883  0.2812  0.4306  0.2406
 1247TIP3    H1 3747   6.031   3.465   3.937 -1.5474 -0.5804  0.5837
 1247TIP3    H2 3748   5.909   3.554   3.933 -0.0946  1.4348 -0.7851
 1248TIP3   OH2 3749   0.847   4.946   4.548  0.1372 -0.2376 -0.1782
 1248TIP3    H1 3750   0.794   4.904   4.481  1.8574 -1.0807 -1.0814
 1248TIP3    H2 3751   0.848   4.884   4.621  0.8886 -0.8280 -0.6664
 1249TIP3   OH2 3752   2.351   4.205   0.953  0.2930  0.0734 -0.0246
 1249TIP3    H1 3753   2.327   4.118   0.922 -0.5189  0.2466  0.0913
 1249TIP3    H2 3754   2.304   4.265   0.896  1.1351  0.4522 -0.3370
 1250TIP3   OH2 3755   6.109   2.427   4.180  0.2966 -0.0557  0.4772
 1250TIP3    H1 3756   6.107   2.399   4.088  1.4608  2.7787 -0.5067
 1250TIP3    H2 3757   6.165   2.363   4.224  0.6209 -0.8346 -1.0215
 1251TIP3   OH2 3758   6.148   0.282   1.058  0.1072 -0.0152 -0.7117
 1251TIP3    H1 3759   6.231   0.324   1.034  0.1237 -0.2366 -1.0442
 1251TIP3    H2 3760   6.081   0.335   1.014  0.1512 -0.5491 -1.4401
 1252TIP3   OH2 3761   3.030   0.117   4.224  0.5878 -0.2957 -0.1114
 1252TIP3    H1 3762   3.115   0.077   4.244 -0.4940 -1.9659  1.5072
 1252TIP3    H2 3763   2.982   0.048   4.177 -0.3646  0.0911  0.2717
 1253TIP3   OH2 3764   4.861   3.369   0.767 -0.4160 -0.5636  0.6685
 1253TIP3    H1 3765   4.898   3.402   0.849 -0.7124 -0.7124  0.8620
 1253TIP3    H2 3766   4.770   3.348   0.788 -0.8847  0.6760 -0.0348
 1254TIP3   OH2 3767   0.686   2.500   4.747  0.3902 -0.6274 -0.5301
 1254TIP3    H1 3768   0.674   2.589   4.714 -0.7258 -0.9988 -1.1828
 1254TIP3    H2 3769   0.645   2.444   4.681  0.4337 -1.5733  0.2212
 1255TIP3   OH2 3770   0.895   2.232   4.094  0.0847  0.6815  0.6853
 1255TIP3    H1 3771   0.888   2.263   4.184  0.2813 -0.3095  1.0557
 1255TIP3    H2 3772   0.810   2.251   4.056 -1.0080 -1.3378  1.9111
 1256TIP3   OH2 3773   5.696   2.874   1.502 -0.0253  0.2175 -0.1249
 1256TIP3    H1 3774   5.691   2.967   1.524  1.0224  0.1543  0.4342
 1256TIP3    H2 3775   5.702   2.830   1.587  1.8172 -0.1915 -0.4322
 1257TIP3   OH2 3776   6.255   4.713   1.811  0.8097 -0.4612 -0.7166
 1257TIP3    H1 3777   6.304   4.702   1.730  0.7863 -1.2261 -0.6249
 1257TIP3    H2 3778   6.320   4.735   1.877  1.0633 -1.7287 -0.5398
 1258TIP3   OH2 3779   0.645   3.736   1.650  0.1027 -0.1976 -0.1681
 1258TIP3    H1 3780   0.718   3.780   1.693  1.1495 -1.5677 -0.4556
 1258TIP3    H2 3781   0.567   3.786   1.675  1.0594  0.8848  0.7080
 1259TIP3   OH2 3782   4.140   5.498   4.391 -0.6430 -0.0230 -0.7723
 1259TIP3    H1 3783   4.141   5.422   4.449 -0.8659  1.1161  0.7900
 1259TIP3    H2 3784   4.201   5.560   4.432 -2.0219  1.4368 -0.8531
 1260TIP3   OH2 3785   3.427   4.089   1.638 -0.0519  0.2068  0.3105
 1260TIP3    H1 3786   3.437   4.051   1.725 -1.2538 -1.0159 -0.0500
 1260TIP3    H2 3787   3.333   4.109   1.631 -0.3022 -1.2585 -1.2897
 1261TIP3   OH2 3788   4.099   5.593   1.412  0.2634 -0.3099  0.3293
 1261TIP3    H1 3789   4.110   5.541   1.492  0.8736  0.1383  0.5469
 1261TIP3    H2 3790   4.188   5.605   1.379  0.0696  0.0195 -0.0859
 1262TIP3   OH2 3791   4.130   5.862   1.319 -0.5690 -0.1252  0.0453
 1262TIP3    H1 3792   4.125   5.903   1.406  0.9109  0.6971 -0.2257
 1262TIP3    H2 3793   4.098   5.773   1.333  0.1177 -0.1750  1.5518
 1263TIP3   OH2 3794   4.927   1.072   4.610 -0.6903 -0.3119 -0.4353
 1263TIP3    H1 3795   4.987   1.072   4.685  0.6683 -0.9261 -1.4932
 1263TIP3    H2 3796   4.857   1.012   4.636 -2.2700  2.2297  1.8249
 1264TIP3   OH2 3797   5.173   1.246   2.461  0.0909  0.0649  0.2404
 1264TIP3    H1 3798   5.239   1.221   2.396  0.2757 -0.6272  0.6864
 1264TIP3    H2 3799   5.090   1.242   2.413  0.0725 -1.7763  0.3610
 1265TIP3   OH2 3800   0.337   3.086   0.958 -0.0718  0.4268 -0.5721
 1265TIP3    H1 3801   0.391   3.157   0.993  0.6254 -0.1566 -0.4155
 1265TIP3    H2 3802   0.309   3.117   0.872 -0.4098  1.1970 -0.1886
 1266TIP3   OH2 3803   5.849   4.181   3.870  0.6926  0.2500 -0.6371
 1266TIP3    H1 3804   5.933   4.136   3.860  0.7954  0.4620 -0.7264
 1266TIP3    H2 3805   5.807   4.173   3.785  0.8010  0.5054 -0.7147
 1267TIP3   OH2 3806   0.536   5.097   2.463  0.4760 -0.3361  0.1326
 1267TIP3    H1 3807   0.508   5.094   2.371  0.9242 -0.5689  0.0038
 1267TIP3    H2 3808   0.498   5.178   2.496 -1.6030 -1.3178  0.3557
 1268TIP3   OH2 3809   4.802   4.059   0.961 -0.0829 -0.0154 -0.0254
 1268TIP3    H1 3810   4.888   4.102   0.959  0.2215 -0.6202 -1.2719
 1268TIP3    H2 3811   4.752   4.103   0.893 -1.7237  2.0967  2.3629
 1269TIP3   OH2 3812  -0.002   5.362   0.181 -0.0936 -0.4190 -0.3116
 1269TIP3    H1 3813   0.080   5.411   0.192  0.1443 -0.9609  0.3833
 1269TIP3    H2 3814  -0.068   5.415   0.228 -0.2488  0.2470 -1.2462
 1270TIP3   OH2 3815   5.915   1.609   4.183 -0.3761 -0.2439  0.2364
 1270TIP3    H1 3816   5.920   1.651   4.269 -2.2542  1.6724 -0.5023
 1270TIP3    H2 3817   6.006   1.595   4.157  0.3032  1.9871  1.2182
 1271TIP3   OH2 3818   6.064   5.126   4.865  0.1974  0.0036  0.0617
 1271TIP3    H1 3819   6.063   5.043   4.817  2.6280  0.6909 -1.3819
 1271TIP3    H2 3820   6.070   5.101   4.957  0.5915 -1.4123 -0.3214
 1272TIP3   OH2 3821   5.904   5.944   2.090 -0.2902  0.0218 -0.2667
 1272TIP3    H1 3822   5.912   5.882   2.017  1.7810 -0.0792 -0.0257
 1272TIP3    H2 3823   5.933   5.895   2.166 -0.2434  0.8010  0.2263
 1273TIP3   OH2 3824   2.230   4.298   0.288  0.2847  0.4390  0.3260
 1273TIP3    H1 3825   2.185   4.215   0.303 -0.2678  1.0108  2.1550
 1273TIP3    H2 3826   2.178   4.342   0.221  1.0621 -0.9828 -1.2962
 1274TIP3   OH2 3827   0.276   5.671   1.193  0.4420  0.3075  0.1009
 1274TIP3    H1 3828   0.228   5.714   1.264 -1.2194 -3.0741  1.2319
 1274TIP3    H2 3829   0.220   5.683   1.116  0.2366  0.5164  0.2799
 1275TIP3   OH2 3830   5.333   5.902   0.989 -0.0506 -0.7695  0.4179
 1275TIP3    H1 3831   5.241   5.921   0.973 -0.0445 -1.8368 -1.1289
 1275TIP3    H2 3832   5.377   5.920   0.906  1.0022 -1.0630  0.8832
 1276TIP3   OH2 3833   2.359   5.560   2.682 -0.2157 -0.6861 -0.1502
 1276TIP3    H1 3834   2.377   5.590   2.771  0.3136  0.7560 -0.7141
 1276TIP3    H2 3835   2.442   5.525   2.651 -0.5372 -1.6909  0.0979
 1277TIP3   OH2 3836   4.686   5.217   0.792  0.1948 -0.1374  0.2824
 1277TIP3    H1 3837   4.618   5.238   0.728 -1.0620  0.5908  1.7722
 1277TIP3    H2 3838   4.758   5.182   0.740 -1.1877 -0.6384 -1.4106
 1278TIP3   OH2 3839   6.249   3.219   1.282 -0.0163 -0.1792  0.0185
 1278TIP3    H1 3840   6.192   3.294   1.271 -0.1632 -0.3534 -0.4122
 1278TIP3    H2 3841   6.320   3.232   1.219  0.8058  0.3878  1.0215
 1279TIP3   OH2 3842   5.864   1.572   2.271 -0.1752 -0.6680  0.6258
 1279TIP3    H1 3843   5.898   1.607   2.353 -1.5127  1.1150  0.4785
 1279TIP3    H2 3844   5.872   1.644   2.209 -1.3180 -1.2219 -0.1992
 1280TIP3   OH2 3845   5.371   0.539   3.247 -0.3002  0.1172  0.1827
 1280TIP3    H1 3846   5.287   0.564   3.210 -0.2846  2.0076  1.2859
 1280TIP3    H2 3847   5.349   0.479   3.318 -0.3931 -2.6008 -1.9765
 1281TIP3   OH2 3848   5.525   0.779   3.115 -0.1734  0.1119  0.1001
 1281TIP3    H1 3849   5.519   0.685   3.133  1.3604 -0.7816 -3.3303
 1281TIP3    H2 3850   5.598   0.809   3.169  0.5204 -1.0668 -0.1676
 1282TIP3   OH2 3851   2.791   2.352   2.905 -0.1256 -0.0965  0.2298
 1282TIP3    H1 3852   2.742   2.291   2.961 -1.5895 -0.4622 -1.3517
 1282TIP3    H2 3853   2.834   2.411   2.966 -0.1523 -1.5824  1.7822
 1283TIP3   OH2 3854   4.052   5.598   1.041  0.1890  0.3336 -0.2688
 1283TIP3    H1 3855   4.067   5.508   1.011 -0.7454  0.2585 -0.5351
 1283TIP3    H2 3856   3.957   5.609   1.037  0.2222  1.0374  0.6346
 1284TIP3   OH2 3857   0.987   2.684   5.195  0.3997  0.4395  0.3602
 1284TIP3    H1 3858   0.896   2.655   5.190  0.7860 -0.6796 -1.3662
 1284TIP3    H2 3859   0.986   2.772   5.159  0.1840 -0.1682 -1.2113
 1285TIP3   OH2 3860   5.405   5.845   0.046 -0.3441  0.3914 -0.3168
 1285TIP3    H1 3861   5.450   5.763   0.067 -0.5328  0.3077 -0.2358
 1285TIP3    H2 3862   5.416   5.898   0.125  0.5950  0.8109 -0.7139
 1286TIP3   OH2 3863   0.957   2.866   0.473 -0.2004 -0.5004 -0.0351
 1286TIP3    H1 3864   0.908   2.908   0.543  0.4743 -0.5400  0.4768
 1286TIP3    H2 3865   0.968   2.934   0.407  0.0340 -0.1555  0.3530
 1287TIP3   OH2 3866   2.741   4.224   0.469 -0.2977 -0.0045  0.7767
 1287TIP3    H1 3867   2.783   4.140   0.487 -0.5535 -0.1612  0.6572
 1287TIP3    H2 3868   2.669   4.202   0.409  0.2804  0.4524 -0.0888
 1288TIP3   OH2 3869   4.542   1.530   1.824 -0.6275 -0.5286 -0.0238
 1288TIP3    H1 3870   4.540   1.464   1.755  0.6334 -1.6819  1.0045
 1288TIP3    H2 3871   4.621   1.581   1.807 -1.4027  0.5413 -0.6001
 1289TIP3   OH2 3872   0.576   2.182   2.765  0.2891  0.3711 -0.0482
 1289TIP3    H1 3873   0.505   2.239   2.737 -0.3620 -0.2374  0.3485
 1289TIP3    H2 3874   0.534   2.100   2.788  0.7525  0.8676  2.8665
 1290TIP3   OH2 3875   0.675   1.694   3.933 -0.5011  0.0583  0.4114
 1290TIP3    H1 3876   0.604   1.631   3.925  1.4778 -2.3869  0.6832
 1290TIP3    H2 3877   0.671   1.745   3.852 -0.5326 -2.3284 -1.1842
 1291TIP3   OH2 3878   0.161   3.456   0.558 -0.2942  0.0773 -0.1938
 1291TIP3    H1 3879   0.229   3.444   0.491 -1.4406  0.5853 -1.4830
 1291TIP3    H2 3880   0.177   3.543   0.593  0.8384 -0.5159  0.8520
 1292TIP3   OH2 3881   0.410   0.048   1.240 -0.0036  0.8020  0.2821
 1292TIP3    H1 3882   0.487  -0.009   1.229 -0.9416 -0.8551  1.7938
 1292TIP3    H2 3883   0.337  -0.005   1.208 -0.6753  1.9607 -0.1557
 1293TIP3   OH2 3884   4.641   4.442   3.863 -0.2397  0.0831 -0.0118
 1293TIP3    H1 3885   4.656   4.392   3.783  0.4660 -1.0432  0.7927
 1293TIP3    H2 3886   4.549   4.427   3.884 -0.4554  0.4771 -0.6637
 1294TIP3   OH2 3887   2.312   2.226   1.288  0.0835  0.0836 -0.1095
 1294TIP3    H1 3888   2.254   2.159   1.323  0.1593  0.2367  0.3160
 1294TIP3    H2 3889   2.266   2.308   1.304  0.9324  0.3169  1.3325
 1295TIP3   OH2 3890   0.143   4.003   2.988  0.0789  0.0385 -0.2283
 1295TIP3    H1 3891   0.086   4.076   3.010  1.9737  1.3637  0.6307
 1295TIP3    H2 3892   0.085   3.928   2.980 -1.9587  1.6117 -1.1167
 1296TIP3   OH2 3893   4.203   5.535   1.961  0.3934 -0.1234  0.1297
 1296TIP3    H1 3894   4.232   5.494   1.879  0.1007 -1.7899  0.8127
 1296TIP3    H2 3895   4.268   5.506   2.026 -0.3426 -0.2654  0.8154
 1297TIP3   OH2 3896   4.618   4.802   4.811 -0.0397  0.4012 -0.3694
 1297TIP3    H1 3897   4.572   4.840   4.736  0.0295 -1.6534 -1.5281
 1297TIP3    H2 3898   4.582   4.847   4.887 -2.9089 -0.0505 -1.3475
 1298TIP3   OH2 3899   0.281   1.735   3.008 -0.2931 -0.4799 -0.0772
 1298TIP3    H1 3900   0.234   1.724   2.926  0.2757  1.0900 -0.6487
 1298TIP3    H2 3901   0.268   1.828   3.031 -0.2996 -0.8428  1.5213
 1299TIP3   OH2 3902   0.065   4.454   1.907  0.6998 -0.2276 -0.0989
 1299TIP3    H1 3903   0.157   4.446   1.932  0.7066 -0.4683 -0.1924
 1299TIP3    H2 3904   0.016   4.428   1.985  0.7248 -1.7252 -0.5453
 1300TIP3   OH2 3905   2.285   0.085   4.437  0.2817  0.1406  0.1619
 1300TIP3    H1 3906   2.193   0.111   4.435  0.6184  1.6333  2.0569
 1300TIP3    H2 3907   2.283  -0.010   4.423 -1.3298  0.4375 -2.1225
 1301TIP3   OH2 3908   3.686   0.340   0.391 -0.5720  0.3841  0.3851
 1301TIP3    H1 3909   3.759   0.278   0.396 -1.3722 -0.6329 -0.0081
 1301TIP3    H2 3910   3.691   0.391   0.472  0.3107  0.0234  0.5628
 1302TIP3   OH2 3911   1.316   5.683   0.372 -0.3370  0.3717  0.3750
 1302TIP3    H1 3912   1.370   5.628   0.314 -1.8066 -1.6608  0.8344
 1302TIP3    H2 3913   1.347   5.662   0.460  0.1462  1.5151  0.4987
 1303TIP3   OH2 3914   5.576   1.189   2.068 -0.1862 -0.4351 -0.3173
 1303TIP3    H1 3915   5.656   1.140   2.050 -1.3742 -2.1105 -1.2668
 1303TIP3    H2 3916   5.606   1.279   2.084  2.0679 -1.4410  1.6735
 1304TIP3   OH2 3917   0.825   1.634   0.876 -0.0011 -0.0361 -0.0837
 1304TIP3    H1 3918   0.806   1.665   0.787  0.2573 -0.4724 -0.2952
 1304TIP3    H2 3919   0.748   1.584   0.902  0.9528 -2.1938 -1.1161
 1305TIP3   OH2 3920   3.070   4.559   2.913 -0.3275 -0.2121  0.1229
 1305TIP3    H1 3921   3.122   4.622   2.962  1.0044 -1.0990 -0.0822
 1305TIP3    H2 3922   3.114   4.475   2.927 -0.7497 -0.7255 -1.3970
 1306TIP3   OH2 3923   1.017   2.783   3.106  0.3562  0.0060  0.3328
 1306TIP3    H1 3924   0.970   2.847   3.159  0.7891 -0.0972  0.8620
 1306TIP3    H2 3925   0.949   2.727   3.069  0.0973 -1.4370  2.7497
 1307TIP3   OH2 3926   5.989   5.083   1.559  0.0556 -0.5702 -0.3203
 1307TIP3    H1 3927   5.959   5.130   1.481 -0.5940  1.3309  1.0184
 1307TIP3    H2 3928   6.080   5.060   1.539  0.1968  0.7042 -1.2832
 1308TIP3   OH2 3929   1.702   4.786   3.264  0.5148 -0.0931  0.8545
 1308TIP3    H1 3930   1.677   4.771   3.355  0.3128  0.2617  0.8613
 1308TIP3    H2 3931   1.701   4.881   3.255  0.5734 -0.1259  0.4931
 1309TIP3   OH2 3932   4.933   3.928   0.379 -0.1433 -0.3890  0.1722
 1309TIP3    H1 3933   4.848   3.956   0.412 -0.4440 -0.4073 -0.5622
 1309TIP3    H2 3934   4.912   3.867   0.308  0.4880 -1.2274  0.6921
 1310TIP3   OH2 3935   0.907   4.024   2.871 -0.1181 -0.8089 -0.5989
 1310TIP3    H1 3936   0.924   4.118   2.870 -0.0248 -0.7916  0.7515
 1310TIP3    H2 3937   0.993   3.984   2.857 -0.1255 -0.7113 -0.9531
 1311TIP3   OH2 3938   3.815   4.070   5.134  0.2407 -0.3116 -0.5122
 1311TIP3    H1 3939   3.769   4.018   5.200 -0.1587 -0.4707 -0.9030
 1311TIP3    H2 3940   3.888   4.110   5.181 -0.1726 -0.2312  0.0749
 1312TIP3   OH2 3941   6.016   4.363   0.082  0.4290  0.1118 -0.7530
 1312TIP3    H1 3942   6.040   4.278   0.045 -1.8037 -1.2549  0.7282
 1312TIP3    H2 3943   5.947   4.396   0.024 -1.1598 -0.7689  0.5753
 1313TIP3   OH2 3944   4.099   2.126   3.604 -0.5283  0.5382  0.2518
 1313TIP3    H1 3945   4.173   2.108   3.662 -0.3769  1.4788  0.3707
 1313TIP3    H2 3946   4.067   2.040   3.578 -1.2607  0.0530  2.5601
 1314TIP3   OH2 3947   1.210   0.148   2.337 -0.0848 -0.5921 -0.0635
 1314TIP3    H1 3948   1.196   0.183   2.249  1.7412 -1.1647 -0.6289
 1314TIP3    H2 3949   1.217   0.225   2.393 -0.9194 -0.2112 -0.4656
 1315TIP3   OH2 3950   5.892   2.073   1.174 -0.3990 -0.5752 -0.1047
 1315TIP3    H1 3951   5.877   2.154   1.124  1.2599 -0.6723 -0.8146
 1315TIP3    H2 3952   5.807   2.053   1.212 -1.0327  1.1003 -0.5250
 1316TIP3   OH2 3953   5.886   0.772   4.042  0.6022 -0.1501  0.0311
 1316TIP3    H1 3954   5.891   0.680   4.018 -1.0315 -0.7109  1.6082
 1316TIP3    H2 3955   5.891   0.820   3.959 -1.3303 -1.7873 -1.0920
 1317TIP3   OH2 3956   0.677   0.508   1.139 -0.7679 -0.6579  0.3951
 1317TIP3    H1 3957   0.658   0.419   1.168  0.5279 -1.2784 -0.5414
 1317TIP3    H2 3958   0.738   0.542   1.205  1.0382 -1.5538 -0.7101
 1318TIP3   OH2 3959   4.559   5.478   3.901  0.0183 -0.0407  0.2462
 1318TIP3    H1 3960   4.652   5.477   3.876  0.1543  1.8283  0.5336
 1318TIP3    H2 3961   4.533   5.569   3.891 -1.2481 -0.1538  2.1326
 1319TIP3   OH2 3962   1.439   2.227   1.892 -0.0081 -0.1807 -0.3842
 1319TIP3    H1 3963   1.507   2.291   1.872 -0.3695 -0.4144 -2.6999
 1319TIP3    H2 3964   1.394   2.262   1.969  1.6359  0.8365  0.1487
 1320TIP3   OH2 3965   0.834   0.216   5.108 -0.3579  0.1271  0.0813
 1320TIP3    H1 3966   0.826   0.227   5.013  0.3304 -0.1333 -0.0138
 1320TIP3    H2 3967   0.775   0.282   5.145 -0.5621  0.2916 -0.5264
 1321TIP3   OH2 3968   3.818   5.184   2.875  0.1818  0.4154 -0.0880
 1321TIP3    H1 3969   3.816   5.100   2.829  3.8283  0.7593 -1.2204
 1321TIP3    H2 3970   3.820   5.161   2.968 -4.6148 -0.3744  0.0813
 1322TIP3   OH2 3971   2.517   4.517   2.503 -0.2984  0.6440  0.3063
 1322TIP3    H1 3972   2.436   4.494   2.548 -0.5215  0.7557 -0.0394
 1322TIP3    H2 3973   2.492   4.528   2.412  0.2697 -0.1880  0.0387
 1323TIP3   OH2 3974   1.115   0.966   3.485  0.2533 -0.3843 -0.1599
 1323TIP3    H1 3975   1.060   0.932   3.415  1.4713 -1.1006 -0.7964
 1323TIP3    H2 3976   1.134   0.890   3.540  0.0758 -0.0090  0.4370
 1324TIP3   OH2 3977   1.209   4.504   2.926 -0.5221  0.6929  1.0306
 1324TIP3    H1 3978   1.223   4.545   2.841 -3.1332  0.2629  0.3018
 1324TIP3    H2 3979   1.279   4.540   2.982  1.0281  1.2702 -1.1439
 1325TIP3   OH2 3980   4.809   0.241   2.661  0.5519 -0.4737 -0.3546
 1325TIP3    H1 3981   4.771   0.295   2.729  0.3189  0.5176 -1.2438
 1325TIP3    H2 3982   4.879   0.294   2.624  0.8985 -1.1303 -0.6669
 1326TIP3   OH2 3983   0.685   5.881   4.177  0.0356  0.3977  0.2728
 1326TIP3    H1 3984   0.604   5.846   4.214  0.1201  0.8811  0.9360
 1326TIP3    H2 3985   0.712   5.815   4.112 -2.2739  1.4443 -1.9234
 1327TIP3   OH2 3986   5.087   2.679   3.151  0.5240  0.4049  0.5221
 1327TIP3    H1 3987   5.002   2.722   3.151  0.2970 -0.0309  0.2301
 1327TIP3    H2 3988   5.147   2.743   3.113  1.1566  2.2242  4.1453
 1328TIP3   OH2 3989   3.723   2.424   0.473  0.1199  0.0109  0.2605
 1328TIP3    H1 3990   3.670   2.466   0.404  2.4746 -0.6683 -2.1352
 1328TIP3    H2 3991   3.693   2.465   0.554 -2.5108  1.2051 -1.1561
 1329TIP3   OH2 3992   1.232   5.437   2.761 -0.1083 -0.0675 -0.5561
 1329TIP3    H1 3993   1.230   5.527   2.729 -1.2530  0.0074 -0.3037
 1329TIP3    H2 3994   1.325   5.414   2.761  0.2186  1.1758 -0.4427
 1330TIP3   OH2 3995   4.547   4.146   4.976  0.1524 -0.0238 -0.3702
 1330TIP3    H1 3996   4.524   4.080   4.910 -0.6651  0.7635 -0.9038
 1330TIP3    H2 3997   4.587   4.217   4.926 -1.4631  1.0552 -0.1934
 1331TIP3   OH2 3998   2.370   3.779   4.693  0.3597 -0.0709 -0.5754
 1331TIP3    H1 3999   2.411   3.834   4.760  1.2956 -0.4974 -0.7819
 1331TIP3    H2 4000   2.318   3.716   4.743 -2.0075  1.8875 -0.3560
 1332TIP3   OH2 4001   2.716   5.842   2.359 -0.3988  0.3611  0.3971
 1332TIP3    H1 4002   2.754   5.756   2.340 -1.2989 -0.6631  2.8175
 1332TIP3    H2 4003   2.790   5.902   2.358  0.4982 -0.7109  0.1553
 1333TIP3   OH2 4004   1.828   1.458   2.732 -0.3179  0.4194 -0.3368
 1333TIP3    H1 4005   1.809   1.385   2.790  0.3074 -0.9318 -1.7760
 1333TIP3    H2 4006   1.923   1.461   2.727 -0.3549  0.6731 -1.0763
 1334TIP3   OH2 4007   0.061   3.179   3.460 -0.1476  0.0518 -0.6566
 1334TIP3    H1 4008   0.091   3.194   3.549  0.8631  0.9217 -1.1223
 1334TIP3    H2 4009   0.131   3.214   3.405 -0.1166 -1.7096 -1.8038
 1335TIP3   OH2 4010   1.188   1.861   5.142  0.9292  0.2430  0.5185
 1335TIP3    H1 4011   1.137   1.780   5.147  1.2429 -0.0477 -0.6406
 1335TIP3    H2 4012   1.123   1.931   5.145  0.4000 -0.1295 -1.1257
 1336TIP3   OH2 4013   1.748   1.247   4.992 -0.3946  0.2847  0.4707
 1336TIP3    H1 4014   1.729   1.314   5.058 -0.6670  0.9537 -0.2704
 1336TIP3    H2 4015   1.670   1.193   4.989 -1.2649  1.5415 -0.8062
 1337TIP3   OH2 4016   2.640   0.008   1.418 -0.3926  0.3180 -0.1842
 1337TIP3    H1 4017   2.661   0.100   1.401  0.3762 -0.0976 -1.6533
 1337TIP3    H2 4018   2.618  -0.028   1.332  0.6223 -1.1917  0.1517
 1338TIP3   OH2 4019   1.989   3.116   4.131  0.1490  0.0608  0.5931
 1338TIP3    H1 4020   1.982   3.024   4.158 -1.5703  0.2185  0.7420
 1338TIP3    H2 4021   2.014   3.163   4.211  0.0507 -0.1416  0.7425
 1339TIP3   OH2 4022   3.298   4.200   2.441 -0.1238  0.0602 -0.7005
 1339TIP3    H1 4023   3.219   4.247   2.414 -0.2467  0.4305  0.2859
 1339TIP3    H2 4024   3.297   4.202   2.536  0.2668 -1.2948 -0.6408
 1340TIP3   OH2 4025   0.471   5.086   1.668  0.1055  0.0088 -0.3502
 1340TIP3    H1 4026   0.509   5.140   1.599 -1.3026  1.3232 -0.1483
 1340TIP3    H2 4027   0.530   5.098   1.742 -0.1012  1.1867 -0.3544
 1341TIP3   OH2 4028   3.470   0.761   1.934  0.3112  0.0807 -0.1038
 1341TIP3    H1 4029   3.390   0.711   1.913 -0.7179  1.8132 -0.4697
 1341TIP3    H2 4030   3.528   0.745   1.859 -0.8844  1.1634 -1.3274
 1342TIP3   OH2 4031   5.260   3.033   4.135  0.2082  0.3764  0.1627
 1342TIP3    H1 4032   5.200   3.005   4.205  1.3161 -0.7103  0.7194
 1342TIP3    H2 4033   5.211   3.017   4.054 -0.8485  1.0368  0.6442
 1343TIP3   OH2 4034   6.057   2.843   0.764 -0.3205 -0.2225  0.4667
 1343TIP3    H1 4035   6.125   2.910   0.767  0.6749 -1.1856  3.3240
 1343TIP3    H2 4036   6.093   2.775   0.706 -0.3934  0.7341 -0.7289
 1344TIP3   OH2 4037   5.587   3.269   1.078 -0.1132 -0.2145  0.3502
 1344TIP3    H1 4038   5.534   3.237   1.005  1.5218 -0.3030 -0.8298
 1344TIP3    H2 4039   5.546   3.353   1.101 -0.1791  0.2215 -1.2149
 1345TIP3   OH2 4040   1.750   4.830   2.280  0.0704 -0.2291 -0.9056
 1345TIP3    H1 4041   1.670   4.806   2.234  0.2517 -0.5726 -1.0423
 1345TIP3    H2 4042   1.821   4.810   2.218  0.2030  1.0944 -1.2105
 1346TIP3   OH2 4043   1.839   2.658   0.921  0.3018  0.2790 -0.1905
 1346TIP3    H1 4044   1.885   2.730   0.878  0.2403  0.4958  0.0991
 1346TIP3    H2 4045   1.875   2.656   1.009  2.3871 -1.9028 -0.9783
 1347TIP3   OH2 4046   1.687   4.731   4.354 -0.0608  0.6297 -0.3803
 1347TIP3    H1 4047   1.714   4.770   4.271  0.6287  0.3089 -0.3117
 1347TIP3    H2 4048   1.624   4.663   4.329  0.4309  0.2808 -0.6693
 1348TIP3   OH2 4049   5.713   2.030   3.330  0.6935  0.0055 -0.0982
 1348TIP3    H1 4050   5.633   2.082   3.318  0.7884 -0.0372 -0.9529
 1348TIP3    H2 4051   5.699   1.951   3.279  1.1358 -0.1679  0.0431
 1349TIP3   OH2 4052   4.050   2.334   3.853 -0.1755 -0.0368 -0.2664
 1349TIP3    H1 4053   4.041   2.293   3.767  0.5458 -0.1749 -0.2767
 1349TIP3    H2 4054   4.082   2.423   3.834 -1.1210  0.3327 -0.2042
 1350TIP3   OH2 4055   3.202   2.944   2.443 -0.1486 -0.0119  0.4442
 1350TIP3    H1 4056   3.120   2.919   2.399 -0.0277 -0.7898  0.6373
 1350TIP3    H2 4057   3.192   2.909   2.532  0.6091 -0.5977  0.3109
 1351TIP3   OH2 4058   5.612   1.738   1.349  0.2659 -0.4227 -0.0920
 1351TIP3    H1 4059   5.658   1.715   1.430  0.7015 -1.7298 -0.6762
 1351TIP3    H2 4060   5.543   1.798   1.377  1.3195  0.3294  1.0345
 1352TIP3   OH2 4061   3.547   3.695   2.664  0.3238  0.1418  0.5533
 1352TIP3    H1 4062   3.638   3.667   2.661  0.3050  0.1128 -1.5055
 1352TIP3    H2 4063   3.497   3.614   2.658  0.2456  0.2966 -1.9502
 1353TIP3   OH2 4064   3.344   4.224   3.141 -0.1550 -0.7944  0.0028
 1353TIP3    H1 4065   3.271   4.181   3.186 -0.1881  0.1770  0.9268
 1353TIP3    H2 4066   3.412   4.233   3.208  1.5051 -3.0905 -1.2055
 1354TIP3   OH2 4067   3.546   4.374   4.609 -0.5867  0.5438  0.2710
 1354TIP3    H1 4068   3.519   4.391   4.699  1.2547 -0.4813  1.0673
 1354TIP3    H2 4069   3.641   4.384   4.610 -0.4407 -0.3244 -1.3470
 1355TIP3   OH2 4070   4.659   0.467   0.874  0.0873 -0.2287  0.2088
 1355TIP3    H1 4071   4.697   0.525   0.940 -0.4368 -0.3124  0.5857
 1355TIP3    H2 4072   4.733   0.414   0.844  0.1786 -0.7645  1.3222
 1356TIP3   OH2 4073   4.317   2.414   3.279  0.1410 -0.2379  0.3443
 1356TIP3    H1 4074   4.401   2.432   3.237  0.3252 -2.2611 -0.2908
 1356TIP3    H2 4075   4.256   2.475   3.238  0.9893  0.1626 -0.3720
 1357TIP3   OH2 4076   1.574   0.802   4.295 -0.4703 -0.1816  0.1651
 1357TIP3    H1 4077   1.511   0.855   4.343  0.1897 -0.3749  1.2893
 1357TIP3    H2 4078   1.646   0.789   4.356  1.1362  0.8625 -1.3974
 1358TIP3   OH2 4079   1.196   4.678   2.634 -0.0471 -0.0081 -0.0817
 1358TIP3    H1 4080   1.242   4.595   2.622 -0.7760 -0.2792 -1.1788
 1358TIP3    H2 4081   1.212   4.726   2.554 -2.1693 -0.3898 -0.8050
 1359TIP3   OH2 4082   2.274   4.077   2.897 -0.2562 -0.2158 -0.1836
 1359TIP3    H1 4083   2.314   4.000   2.936  0.4878 -0.3044 -1.0824
 1359TIP3    H2 4084   2.286   4.146   2.961 -0.3403 -0.6860  0.3469
 1360TIP3   OH2 4085   2.363   4.380   0.539 -0.4481 -0.0573 -0.1510
 1360TIP3    H1 4086   2.429   4.313   0.523 -0.4375 -0.4463  1.3723
 1360TIP3    H2 4087   2.305   4.376   0.463  0.3228 -0.8511 -0.7165
 1361TIP3   OH2 4088   5.718   1.939   4.321  0.1785 -0.0395 -0.6088
 1361TIP3    H1 4089   5.630   1.902   4.309 -1.5946  3.3445  0.5897
 1361TIP3    H2 4090   5.743   1.912   4.409  0.4348 -1.0751 -0.9789
 1362TIP3   OH2 4091   0.075   5.383   2.286 -0.4683 -0.1507 -0.1807
 1362TIP3    H1 4092  -0.002   5.343   2.326  0.3610 -3.2958 -1.3685
 1362TIP3    H2 4093   0.133   5.403   2.359 -0.2399 -2.9092  0.5008
 1363TIP3   OH2 4094   4.319   3.747   4.072  0.0830 -0.1810 -0.6815
 1363TIP3    H1 4095   4.323   3.659   4.110 -0.1918 -0.6810 -1.7857
 1363TIP3    H2 4096   4.411   3.771   4.060  0.2229  0.4396  1.2636
 1364TIP3   OH2 4097   0.209   4.695   2.961 -0.1111  0.0415  0.2020
 1364TIP3    H1 4098   0.249   4.616   2.925 -2.9967 -0.5023 -2.1195
 1364TIP3    H2 4099   0.134   4.664   3.012 -0.2942  1.2172  0.6899
 1365TIP3   OH2 4100   2.167   5.806   0.681  0.2713 -0.1078 -0.2687
 1365TIP3    H1 4101   2.097   5.740   0.681  0.1053  0.0491  0.7582
 1365TIP3    H2 4102   2.159   5.849   0.596 -1.5494  0.5937  0.2184
 1366TIP3   OH2 4103   2.736   1.505   2.654  0.3274 -0.2747  0.0174
 1366TIP3    H1 4104   2.652   1.468   2.627  0.2560 -0.0185 -0.1184
 1366TIP3    H2 4105   2.792   1.497   2.577  0.2928 -0.0471 -0.0332
 1367TIP3   OH2 4106   3.084   3.927   4.045 -0.0368 -0.6247 -0.2332
 1367TIP3    H1 4107   3.128   3.843   4.056  0.8629  0.0019  1.0798
 1367TIP3    H2 4108   3.042   3.944   4.129  0.4663  0.6209 -0.2137
 1368TIP3   OH2 4109   5.824   3.951   2.674  0.5773  0.2793  0.4506
 1368TIP3    H1 4110   5.837   4.010   2.600 -0.6634  0.9064  0.7079
 1368TIP3    H2 4111   5.840   4.007   2.751  1.6316 -0.3068  0.6857
 1369TIP3   OH2 4112   5.903   2.202   0.829  0.2754 -0.3405  0.0465
 1369TIP3    H1 4113   5.964   2.247   0.771 -1.1860 -1.5323 -2.5899
 1369TIP3    H2 4114   5.947   2.120   0.851  0.2835 -0.4714 -0.4680
 1370TIP3   OH2 4115   5.245   3.669   3.618  0.0410 -0.5335  0.3546
 1370TIP3    H1 4116   5.234   3.687   3.525  1.7231 -1.6776 -0.1203
 1370TIP3    H2 4117   5.283   3.749   3.654 -1.5917  0.3029  0.3218
 1371TIP3   OH2 4118   3.666   4.631   3.113  0.1265 -0.3671 -0.2144
 1371TIP3    H1 4119   3.605   4.704   3.124 -0.5641 -0.7849 -1.1239
 1371TIP3    H2 4120   3.712   4.625   3.197 -0.1418  0.8014  0.0355
 1372TIP3   OH2 4121   2.453   2.584   4.255 -0.4383 -0.1662 -0.0097
 1372TIP3    H1 4122   2.369   2.591   4.209 -0.4309  1.3460  0.1700
 1372TIP3    H2 4123   2.485   2.496   4.232 -0.5395  0.4102 -2.7521
 1373TIP3   OH2 4124   0.631   0.337   2.262 -0.2239  0.9177 -0.5481
 1373TIP3    H1 4125   0.637   0.335   2.357 -1.2548  2.6557 -0.4086
 1373TIP3    H2 4126   0.616   0.429   2.241 -3.0179  0.1963 -2.1911
 1374TIP3   OH2 4127   2.993   0.550   0.452 -1.0088 -0.1222 -0.3479
 1374TIP3    H1 4128   3.088   0.561   0.447 -0.8935 -0.7834  0.2024
 1374TIP3    H2 4129   2.960   0.632   0.487 -0.6147  0.0220 -0.3210
 1375TIP3   OH2 4130   5.692   5.329   0.256 -0.4634  0.4474 -0.8240
 1375TIP3    H1 4131   5.661   5.386   0.326 -1.1678 -0.4588 -0.3690
 1375TIP3    H2 4132   5.776   5.367   0.229  0.1798  0.4460  0.9937
 1376TIP3   OH2 4133   1.392   5.659   2.523  0.1091  0.0836 -0.1024
 1376TIP3    H1 4134   1.452   5.734   2.526 -0.7655  0.9603 -2.3274
 1376TIP3    H2 4135   1.414   5.614   2.441 -2.1812  0.4004 -0.9460
 1377TIP3   OH2 4136   4.860   1.094   4.306 -0.2424  0.1505 -0.3439
 1377TIP3    H1 4137   4.827   1.179   4.277 -0.8862  0.1058  0.2542
 1377TIP3    H2 4138   4.881   1.106   4.398  0.9365  0.0326 -0.5805
 1378TIP3   OH2 4139   1.582   2.734   2.155  0.0966 -0.0693  0.1527
 1378TIP3    H1 4140   1.573   2.819   2.198 -0.0074  0.7984 -1.4857
 1378TIP3    H2 4141   1.667   2.700   2.185 -0.5585 -0.1453  2.0400
 1379TIP3   OH2 4142   4.958   4.608   0.565  0.2645 -0.0992 -0.5455
 1379TIP3    H1 4143   4.864   4.617   0.585 -0.4787 -2.4911 -2.3364
 1379TIP3    H2 4144   4.991   4.550   0.634  0.1295 -0.1756 -0.5433
 1380TIP3   OH2 4145   0.155   4.927   0.379 -0.0965  0.3265 -0.0679
 1380TIP3    H1 4146   0.240   4.945   0.338  0.1473  1.6873  0.9492
 1380TIP3    H2 4147   0.096   4.992   0.340 -0.4801 -0.0788 -0.1676
 1381TIP3   OH2 4148   3.668   5.900   1.562  0.1668 -0.0057  0.0986
 1381TIP3    H1 4149   3.709   5.872   1.643 -2.6518  2.3380  2.5396
 1381TIP3    H2 4150   3.609   5.828   1.539  1.1018 -0.7540 -0.0342
 1382TIP3   OH2 4151   0.448   4.333   2.288  0.0696  0.1522  0.3936
 1382TIP3    H1 4152   0.426   4.420   2.321  0.8121  0.5616 -0.1721
 1382TIP3    H2 4153   0.444   4.341   2.193  2.0911  0.1317  0.2587
 1383TIP3   OH2 4154   5.436   0.476   1.061 -0.3142 -0.5684 -0.3562
 1383TIP3    H1 4155   5.359   0.461   1.115  0.8283 -0.4331  1.4156
 1383TIP3    H2 4156   5.416   0.435   0.977 -2.0239 -1.1256  0.2923
 1384TIP3   OH2 4157   1.454   0.212   5.150 -0.0757  0.0071 -0.3650
 1384TIP3    H1 4158   1.369   0.235   5.188 -0.0492  0.7070 -0.7193
 1384TIP3    H2 4159   1.505   0.179   5.224 -1.0664 -1.6416 -0.3619
 1385TIP3   OH2 4160   2.317   3.786   3.457  0.1814 -0.2302  0.0946
 1385TIP3    H1 4161   2.299   3.867   3.505  0.0584  0.2970 -0.8283
 1385TIP3    H2 4162   2.239   3.771   3.404  0.8953  0.0045 -1.0585
 1386TIP3   OH2 4163   5.410   4.168   0.396  0.3167  0.0202  0.2386
 1386TIP3    H1 4164   5.430   4.254   0.360  1.0112  0.5487  1.7737
 1386TIP3    H2 4165   5.492   4.140   0.437 -1.0356  0.7647  3.8295
 1387TIP3   OH2 4166   4.346   0.610   1.213 -0.3580  0.3065 -0.0280
 1387TIP3    H1 4167   4.315   0.520   1.217  1.4515 -0.4026 -0.6178
 1387TIP3    H2 4168   4.305   0.647   1.135  0.2435 -0.5971 -0.8008
 1388TIP3   OH2 4169   2.262   1.257   4.037  0.5711 -0.7498 -0.4521
 1388TIP3    H1 4170   2.293   1.270   4.127 -1.3518  1.0916  0.0564
 1388TIP3    H2 4171   2.341   1.258   3.984  1.6186  0.3467  1.0288
 1389TIP3   OH2 4172   2.043   0.086   0.421  0.2589 -0.3697 -0.5522
 1389TIP3    H1 4173   2.065   0.051   0.334  0.4860 -0.4809 -0.4484
 1389TIP3    H2 4174   2.120   0.070   0.474 -0.5723 -2.0782  0.2157
 1390TIP3   OH2 4175   2.029   5.179   1.318  0.2368 -0.2282  0.0876
 1390TIP3    H1 4176   2.100   5.230   1.279 -0.5068 -0.3265 -1.5148
 1390TIP3    H2 4177   2.019   5.214   1.406  1.7795  0.2756  0.0942
 1391TIP3   OH2 4178   3.980   5.476   4.939 -0.0115 -0.5267  0.5444
 1391TIP3    H1 4179   3.973   5.447   5.029 -0.2803 -1.0619  0.3570
 1391TIP3    H2 4180   3.902   5.529   4.924  0.1686 -0.2145  0.7047
 1392TIP3   OH2 4181   5.453   3.862   3.972 -0.0318  0.2387 -0.3827
 1392TIP3    H1 4182   5.490   3.796   4.030 -1.3719  0.0653  0.3018
 1392TIP3    H2 4183   5.463   3.824   3.884 -0.0908 -0.5384 -0.0648
 1393TIP3   OH2 4184   1.937   5.925   2.453 -0.3203  0.8431  0.6236
 1393TIP3    H1 4185   2.015   5.904   2.505 -0.6686  0.1020  0.8581
 1393TIP3    H2 4186   1.880   5.973   2.513 -1.6144 -1.7725  1.6259
 1394TIP3   OH2 4187   4.112   2.522   3.666 -0.0338  0.4154  0.1370
 1394TIP3    H1 4188   4.055   2.510   3.590 -0.4661 -1.4550  0.6910
 1394TIP3    H2 4189   4.198   2.495   3.635 -0.0523  0.4071  0.0924
 1395TIP3   OH2 4190   5.509   2.936   1.076  0.1402  0.1617  0.1753
 1395TIP3    H1 4191   5.517   2.927   0.981  0.2978 -0.2403  0.2242
 1395TIP3    H2 4192   5.431   2.990   1.088 -0.4083 -0.5415 -0.1608
 1396TIP3   OH2 4193   5.254   5.665   0.760  0.0252 -0.3360 -0.5258
 1396TIP3    H1 4194   5.342   5.701   0.766 -0.5045  0.8343  0.8787
 1396TIP3    H2 4195   5.255   5.588   0.817 -0.1768  0.4275  0.5443
 1397TIP3   OH2 4196   4.540   5.601   2.830 -0.1952  0.3183  0.2783
 1397TIP3    H1 4197   4.534   5.683   2.879  2.2240  0.7426  0.0153
 1397TIP3    H2 4198   4.613   5.615   2.769 -1.5608 -1.0323 -1.7993
 1398TIP3   OH2 4199   5.596   4.584   2.251 -0.2913 -0.3326 -0.2450
 1398TIP3    H1 4200   5.644   4.511   2.210  1.7271 -0.3366  1.9506
 1398TIP3    H2 4201   5.657   4.620   2.316 -1.7607  2.4363 -0.2544
 1399TIP3   OH2 4202   1.936   1.987   4.003  0.0933 -0.0671  0.5436
 1399TIP3    H1 4203   1.991   1.947   4.071  0.9887 -0.1440 -0.1987
 1399TIP3    H2 4204   1.965   2.078   4.000 -0.0759 -0.0195  0.3955
 1400TIP3   OH2 4205   5.498   2.677   3.839 -0.1535 -0.2843  0.3398
 1400TIP3    H1 4206   5.407   2.705   3.854  0.4328  2.1298 -0.2640
 1400TIP3    H2 4207   5.501   2.652   3.747  0.2524  1.8736 -0.2945
 1401TIP3   OH2 4208   3.960   3.295   4.203  0.1375 -0.7728 -0.0443
 1401TIP3    H1 4209   3.997   3.338   4.280  0.3729  0.7768 -0.9793
 1401TIP3    H2 4210   3.991   3.204   4.209  0.3019 -0.6447  1.5649
 1402TIP3   OH2 4211   3.393   3.834   4.690  0.9551 -0.5438  0.0661
 1402TIP3    H1 4212   3.398   3.745   4.726  0.9322 -0.4653  0.2635
 1402TIP3    H2 4213   3.450   3.831   4.612  1.2169 -0.6437  0.2578
 1403TIP3   OH2 4214   4.814   3.746   0.228  0.2911 -0.3485  0.2099
 1403TIP3    H1 4215   4.764   3.743   0.146 -0.2023  2.1915  0.3253
 1403TIP3    H2 4216   4.762   3.694   0.290 -2.4356  2.2747  0.3643
 1404TIP3   OH2 4217   6.177   2.188   1.032 -0.7830 -0.1040 -0.6613
 1404TIP3    H1 4218   6.113   2.138   0.981 -0.7600 -0.0246 -0.7691
 1404TIP3    H2 4219   6.124   2.255   1.076 -1.0307 -1.1213  0.6555
 1405TIP3   OH2 4220   5.807   5.950   3.912  0.1942 -0.4724 -0.0027
 1405TIP3    H1 4221   5.725   5.988   3.944 -0.8526 -1.5814 -1.2523
 1405TIP3    H2 4222   5.831   6.005   3.837  1.3188  0.6287  1.1233
 1406TIP3   OH2 4223   1.288   3.575   0.956  0.4170 -0.1173 -0.4104
 1406TIP3    H1 4224   1.222   3.522   0.911  1.3305 -0.2143 -1.7039
 1406TIP3    H2 4225   1.260   3.666   0.943 -0.1325 -0.1999  0.1597
 1407TIP3   OH2 4226   0.919   5.457   4.793  0.2217  0.1900  0.4779
 1407TIP3    H1 4227   0.830   5.433   4.767 -0.1892  1.3125  0.8216
 1407TIP3    H2 4228   0.950   5.515   4.724  0.3890  0.4431  0.7632
 1408TIP3   OH2 4229   3.293   1.333   0.090 -0.0981  0.3929  0.5285
 1408TIP3    H1 4230   3.232   1.348   0.018 -0.5227  2.5999  1.2706
 1408TIP3    H2 4231   3.289   1.413   0.142  2.3563  0.0231  1.4228
 1409TIP3   OH2 4232   1.426   0.009   4.968 -0.0454 -0.1018 -0.2365
 1409TIP3    H1 4233   1.339  -0.027   4.985 -0.7371  1.0402 -1.2076
 1409TIP3    H2 4234   1.432   0.087   5.022 -0.1304  0.5139 -1.0914
 1410TIP3   OH2 4235   4.996   0.841   3.907  0.0190 -0.4045 -0.5663
 1410TIP3    H1 4236   5.006   0.917   3.964  0.1072 -0.0504 -1.0415
 1410TIP3    H2 4237   5.045   0.771   3.951 -1.8833 -0.8269  0.9854
 1411TIP3   OH2 4238   2.511   3.857   4.928 -0.1006 -0.1703  0.3843
 1411TIP3    H1 4239   2.492   3.951   4.919 -4.2513 -0.9242 -0.6801
 1411TIP3    H2 4240   2.486   3.837   5.019  1.4511 -0.1799  0.8324
 1412TIP3   OH2 4241   0.973   0.947   4.981  0.0955  0.3381 -0.1369
 1412TIP3    H1 4242   1.059   0.905   4.987  0.8483  1.5911 -1.3846
 1412TIP3    H2 4243   0.935   0.937   5.068  1.7195  0.1805  0.5928
 1413TIP3   OH2 4244   4.923   5.767   3.432  0.2754 -0.1937 -0.1620
 1413TIP3    H1 4245   4.894   5.847   3.475 -0.1522  0.1678 -1.1122
 1413TIP3    H2 4246   4.869   5.698   3.470  2.0268 -0.4104  2.2062
 1414TIP3   OH2 4247   6.298   5.913   2.422 -0.2001 -0.0323  0.8747
 1414TIP3    H1 4248   6.347   5.940   2.344 -2.9526  0.5068 -0.8156
 1414TIP3    H2 4249   6.282   5.995   2.469 -1.8183  0.2374 -0.0850
 1415TIP3   OH2 4250   3.772   5.785   0.287  0.3065 -0.5063 -0.0585
 1415TIP3    H1 4251   3.845   5.725   0.305  0.7994 -0.6779 -2.2340
 1415TIP3    H2 4252   3.788   5.860   0.344  2.4753 -0.3641 -0.7413
 1416TIP3   OH2 4253   2.407   1.721   2.719  0.4227  0.5025 -0.1071
 1416TIP3    H1 4254   2.453   1.803   2.701 -0.3954  0.7610 -1.1071
 1416TIP3    H2 4255   2.446   1.657   2.660  1.1040  0.1330  0.7160
 1417TIP3   OH2 4256   1.080   2.266   3.188  0.0711  0.0471 -0.2726
 1417TIP3    H1 4257   1.082   2.234   3.279 -1.7358  0.8455  0.0795
 1417TIP3    H2 4258   0.994   2.307   3.179  1.5816  3.3243 -1.2189
 1418TIP3   OH2 4259   3.870   3.695   2.682 -0.1583  0.1314  0.1595
 1418TIP3    H1 4260   3.906   3.674   2.768  2.0698  0.0839 -0.7306
 1418TIP3    H2 4261   3.931   3.656   2.620 -2.4176 -1.0142 -1.5059
 1419TIP3   OH2 4262   4.231   0.124   4.187  0.0214  0.5208  0.4357
 1419TIP3    H1 4263   4.235   0.143   4.281  0.3785 -0.0638  0.5434
 1419TIP3    H2 4264   4.280   0.195   4.146 -0.9425  1.3030  0.6112
 1420TIP3   OH2 4265   3.785   4.689   3.957  0.4225 -0.3203 -0.4515
 1420TIP3    H1 4266   3.805   4.767   4.008  1.4501  0.4382 -1.9253
 1420TIP3    H2 4267   3.691   4.692   3.942  0.5305  0.9941 -0.9930
 1421TIP3   OH2 4268   2.675   5.456   4.864 -0.3071  0.2622 -0.1699
 1421TIP3    H1 4269   2.702   5.382   4.810 -1.1765  0.3570 -0.7542
 1421TIP3    H2 4270   2.711   5.437   4.951 -0.3753 -0.7552 -0.3546
 1422TIP3   OH2 4271   2.541   3.452   3.110 -0.5771 -0.6407  0.0388
 1422TIP3    H1 4272   2.452   3.431   3.083 -0.5706 -0.1245 -0.3980
 1422TIP3    H2 4273   2.530   3.519   3.178 -0.5346 -0.8355  0.2388
 1423TIP3   OH2 4274   1.152   2.780   1.414 -0.5732 -0.7826 -0.0427
 1423TIP3    H1 4275   1.121   2.714   1.352 -0.1729 -1.8926  0.8967
 1423TIP3    H2 4276   1.128   2.745   1.500  0.2966 -0.0633  0.5118
 1424TIP3   OH2 4277   5.856   5.571   3.128  0.1942  0.3276 -0.0895
 1424TIP3    H1 4278   5.767   5.584   3.162  0.4515  1.1548  0.2848
 1424TIP3    H2 4279   5.911   5.624   3.185  0.8114  0.6274 -0.9447
 1425TIP3   OH2 4280   0.291   2.911   2.872  0.0415 -0.2021  0.3069
 1425TIP3    H1 4281   0.255   2.922   2.960 -0.1368 -0.0606  0.2166
 1425TIP3    H2 4282   0.226   2.950   2.815  0.1443 -0.3215  0.1088
 1426TIP3   OH2 4283   5.473   4.801   1.123  0.2281 -0.0620  0.2172
 1426TIP3    H1 4284   5.462   4.836   1.034 -0.4745 -0.1136  0.2809
 1426TIP3    H2 4285   5.549   4.848   1.157 -0.5097  1.2030  0.1877
 1427TIP3   OH2 4286   1.147   5.826   4.835 -0.5663 -0.3428 -0.2437
 1427TIP3    H1 4287   1.202   5.899   4.805  0.8625 -0.2917  2.2453
 1427TIP3    H2 4288   1.097   5.863   4.908 -0.0606 -1.7171  0.8370
 1428TIP3   OH2 4289   4.191   5.658   0.777  0.4008  0.1242 -0.9627
 1428TIP3    H1 4290   4.206   5.616   0.862 -0.0822 -1.5612 -1.6704
 1428TIP3    H2 4291   4.096   5.654   0.765  0.1734  2.6675 -0.4884
 1429TIP3   OH2 4292   3.837   5.811   3.767  0.5019 -0.4142 -0.3607
 1429TIP3    H1 4293   3.861   5.760   3.690  0.6397 -0.6441 -0.1663
 1429TIP3    H2 4294   3.818   5.746   3.834  0.6961 -0.2110 -0.1072
 1430TIP3   OH2 4295   1.826   3.368   1.870  0.2828  0.1445 -0.1687
 1430TIP3    H1 4296   1.899   3.396   1.926 -0.0629 -0.8280  0.8018
 1430TIP3    H2 4297   1.863   3.303   1.811  0.3915  0.3120 -0.2858
 1431TIP3   OH2 4298   0.996   1.676   5.118 -0.0821  0.2552  0.3126
 1431TIP3    H1 4299   1.034   1.633   5.042 -0.2197  0.2089  0.2706
 1431TIP3    H2 4300   0.982   1.605   5.181 -1.7311 -0.0190 -0.3169
 1432TIP3   OH2 4301   5.467   0.748   1.813 -0.4002  0.0192  0.1979
 1432TIP3    H1 4302   5.475   0.654   1.831  0.7235 -0.1191 -0.8914
 1432TIP3    H2 4303   5.555   0.783   1.825 -0.5298  0.6941 -0.6803
 1433TIP3   OH2 4304   4.766   5.299   4.375 -0.4049  0.5555  0.0996
 1433TIP3    H1 4305   4.836   5.258   4.325 -0.9798  0.2154 -0.4346
 1433TIP3    H2 4306   4.700   5.323   4.310 -0.6019  1.2636  0.5408
 1434TIP3   OH2 4307   1.495   4.532   4.269 -0.5963 -0.1104 -0.2302
 1434TIP3    H1 4308   1.408   4.571   4.261 -0.9281 -0.8174 -0.1184
 1434TIP3    H2 4309   1.481   4.452   4.321  0.2480  0.2071  0.5151
 1435TIP3   OH2 4310   2.206   0.862   1.123  0.1977 -0.6002 -0.1140
 1435TIP3    H1 4311   2.119   0.834   1.093  0.2502 -1.2531  0.3342
 1435TIP3    H2 4312   2.219   0.816   1.206  0.1886  0.9581  0.7788
 1436TIP3   OH2 4313   3.615   0.933   1.529 -0.4223  0.2796 -0.6432
 1436TIP3    H1 4314   3.635   0.977   1.612 -2.5411 -0.6423  0.4423
 1436TIP3    H2 4315   3.656   0.847   1.537 -0.9574  0.0464 -0.3664
 1437TIP3   OH2 4316   1.571   1.715   4.512  0.4080  0.6720 -0.5298
 1437TIP3    H1 4317   1.537   1.650   4.574  0.8981 -0.6535 -1.5859
 1437TIP3    H2 4318   1.517   1.792   4.525 -0.1907  0.0538  0.7855
 1438TIP3   OH2 4319   2.128   1.065   0.514 -0.3547  0.1325  0.0056
 1438TIP3    H1 4320   2.066   0.997   0.484 -2.6218  2.1696 -0.2576
 1438TIP3    H2 4321   2.121   1.064   0.609 -1.4721  0.8863 -0.0498
 1439TIP3   OH2 4322   0.110   1.667   2.781 -0.5992 -0.1572 -0.0835
 1439TIP3    H1 4323   0.139   1.576   2.778  1.2109  0.2591  2.0188
 1439TIP3    H2 4324   0.014   1.662   2.776 -0.4691 -1.8379 -3.8030
 1440TIP3   OH2 4325   3.109   2.785   4.206  0.5891 -0.5650  0.0007
 1440TIP3    H1 4326   3.139   2.856   4.263 -0.1614  0.0345 -0.3206
 1440TIP3    H2 4327   3.128   2.705   4.254 -0.0741 -0.0720  1.1299
 1441TIP3   OH2 4328   2.493   4.831   4.152  0.3057  0.3444 -0.4556
 1441TIP3    H1 4329   2.578   4.786   4.154  1.3969  2.3129  0.6417
 1441TIP3    H2 4330   2.456   4.816   4.239 -0.9072 -1.1919 -1.1940
 1442TIP3   OH2 4331   4.988   1.222   0.138  0.3349  0.6883 -0.2645
 1442TIP3    H1 4332   4.971   1.281   0.065 -0.3303 -1.4649 -1.9432
 1442TIP3    H2 4333   4.917   1.158   0.135  1.5881 -0.8301  0.7777
 1443TIP3   OH2 4334   5.837   1.095   2.131 -0.2502 -0.2876  0.7701
 1443TIP3    H1 4335   5.890   1.174   2.139  0.4381 -0.7343  0.7345
 1443TIP3    H2 4336   5.786   1.092   2.212 -0.5601  0.3865  0.6052
 1444TIP3   OH2 4337   2.216   3.667   3.762  0.1862  0.0745 -0.0099
 1444TIP3    H1 4338   2.138   3.712   3.731  0.1560  0.7633  1.0376
 1444TIP3    H2 4339   2.281   3.736   3.773  0.3764 -0.2331  0.8762
 1445TIP3   OH2 4340   1.399   1.815   2.672  0.9420 -0.4520  0.3566
 1445TIP3    H1 4341   1.343   1.770   2.608  1.0398 -0.0188 -0.0381
 1445TIP3    H2 4342   1.440   1.745   2.722  2.8103 -0.9045 -1.6953
 1446TIP3   OH2 4343   4.011   1.399   4.299 -0.2881 -0.0231 -0.0266
 1446TIP3    H1 4344   3.955   1.467   4.262  0.6082  0.5988 -0.2714
 1446TIP3    H2 4345   4.094   1.409   4.254  1.2795  1.5743  2.9516
 1447TIP3   OH2 4346   1.847   3.551   0.117  0.3353  0.8404  0.4113
 1447TIP3    H1 4347   1.779   3.490   0.146 -1.1036  1.9478 -0.4795
 1447TIP3    H2 4348   1.851   3.538   0.022  1.7567  0.4240  0.5169
 1448TIP3   OH2 4349   3.830   2.134   0.023  0.0439  0.2824 -0.3941
 1448TIP3    H1 4350   3.849   2.189   0.099  1.3900  1.1867 -1.3233
 1448TIP3    H2 4351   3.916   2.100  -0.003 -0.4162 -0.1575 -1.3814
 1449TIP3   OH2 4352   2.401   4.969   1.746 -0.4241  0.4474  0.4920
 1449TIP3    H1 4353   2.353   5.018   1.812 -1.9545  0.1177 -0.3390
 1449TIP3    H2 4354   2.334   4.935   1.687  0.7985 -0.4033 -0.4679
 1450TIP3   OH2 4355   3.403   5.018   1.480  0.4246 -0.4169 -0.7185
 1450TIP3    H1 4356   3.358   4.968   1.548  1.1692 -1.1156 -0.7367
 1450TIP3    H2 4357   3.335   5.034   1.414 -0.6524  1.3391  0.7043
 1451TIP3   OH2 4358   3.104   2.247   3.638  0.5710 -0.2501 -0.3405
 1451TIP3    H1 4359   3.041   2.307   3.597 -1.1075 -2.2089 -0.8292
 1451TIP3    H2 4360   3.071   2.235   3.727  1.0691 -0.2174 -0.1484
 1452TIP3   OH2 4361   2.848   4.485   4.719 -0.3257  0.1931  0.9428
 1452TIP3    H1 4362   2.886   4.571   4.700  0.3637 -0.1598  0.7198
 1452TIP3    H2 4363   2.914   4.422   4.691 -1.0531 -0.4303  0.5711
 1453TIP3   OH2 4364   1.819   5.509   4.969  0.3379  0.4613 -0.1594
 1453TIP3    H1 4365   1.849   5.460   5.045  0.7096  1.7689  0.5576
 1453TIP3    H2 4366   1.891   5.504   4.906  0.9573  1.2640  0.4716
 1454TIP3   OH2 4367   4.577   1.388   2.403  0.3711  0.1834 -0.1056
 1454TIP3    H1 4368   4.493   1.427   2.380  1.0555  1.7324 -0.1408
 1454TIP3    H2 4369   4.618   1.453   2.461  1.1240 -1.0010  0.7351
 1455TIP3   OH2 4370   2.719   0.697   4.441  0.1022 -0.2224  0.2308
 1455TIP3    H1 4371   2.697   0.607   4.462 -2.5247  0.5670  1.2293
 1455TIP3    H2 4372   2.741   0.737   4.525  0.4293  0.2838 -0.0902
 1456TIP3   OH2 4373   5.026   3.361   3.002  0.2707  0.0639  0.2125
 1456TIP3    H1 4374   5.059   3.281   3.042  1.2018 -0.1148 -0.8736
 1456TIP3    H2 4375   5.092   3.428   3.022 -0.1796  0.4114  0.5574
 1457TIP3   OH2 4376   3.697   5.798   4.507  0.4206 -0.2556 -0.2118
 1457TIP3    H1 4377   3.634   5.871   4.506 -0.0097 -0.6262 -0.5582
 1457TIP3    H2 4378   3.780   5.838   4.480  0.3691  0.2616  0.3552
 1458TIP3   OH2 4379   0.857   0.496   1.858 -0.4387 -0.4633  0.3548
 1458TIP3    H1 4380   0.791   0.482   1.926 -0.7189 -1.6155 -0.1313
 1458TIP3    H2 4381   0.901   0.412   1.849 -0.7590 -0.4943 -1.2342
 1459TIP3   OH2 4382   1.796   1.155   3.211  0.0388  0.4842 -0.1369
 1459TIP3    H1 4383   1.779   1.249   3.212  0.0759  0.5162 -1.1817
 1459TIP3    H2 4384   1.838   1.137   3.295  0.7387  1.5426 -0.2453
 1460TIP3   OH2 4385   4.766   4.166   4.422  0.4543 -0.5404  0.4142
 1460TIP3    H1 4386   4.727   4.253   4.412  1.9734  0.4060  2.2479
 1460TIP3    H2 4387   4.691   4.106   4.416 -0.6086  0.8308 -0.9887
 1461TIP3   OH2 4388   1.168   3.154   1.150  0.2299  0.2360  0.3148
 1461TIP3    H1 4389   1.189   3.236   1.196  1.0394 -0.4258  1.1873
 1461TIP3    H2 4390   1.075   3.140   1.167  0.3104  0.4775  0.9911
 1462TIP3   OH2 4391   5.221   4.590   1.738 -0.0193  0.2072 -0.7768
 1462TIP3    H1 4392   5.252   4.598   1.828 -0.0485  0.7371 -0.8088
 1462TIP3    H2 4393   5.128   4.568   1.745 -0.5871  2.4126 -0.6444
 1463TIP3   OH2 4394   0.361   2.337   3.401 -0.4600  0.3220  0.2302
 1463TIP3    H1 4395   0.328   2.285   3.474 -0.6938 -1.1713 -0.8967
 1463TIP3    H2 4396   0.457   2.330   3.408 -0.4897 -1.2112 -0.5266
 1464TIP3   OH2 4397   0.421   5.194   0.140  0.0457  0.5029 -0.2177
 1464TIP3    H1 4398   0.372   5.197   0.058  0.5492 -1.0807 -0.6129
 1464TIP3    H2 4399   0.447   5.285   0.156 -0.5051  0.9125 -1.5196
 1465TIP3   OH2 4400   5.486   3.460   1.679  0.0635  0.0113 -0.8048
 1465TIP3    H1 4401   5.507   3.553   1.692 -0.4455  0.4091 -2.5831
 1465TIP3    H2 4402   5.447   3.433   1.763 -0.8030  1.7101 -0.6123
 1466TIP3   OH2 4403   3.354   3.608   1.764 -0.1198 -0.0839  0.1641
 1466TIP3    H1 4404   3.269   3.564   1.769 -0.1850  0.0006 -0.1321
 1466TIP3    H2 4405   3.333   3.701   1.777 -0.0664 -0.0692  0.1442
 1467TIP3   OH2 4406   2.757   4.926   0.150  0.1517  0.0887 -0.8063
 1467TIP3    H1 4407   2.829   4.881   0.194 -0.1952  0.2939 -0.0028
 1467TIP3    H2 4408   2.678   4.889   0.190 -0.2041 -0.2488 -1.7861
 1468TIP3   OH2 4409   0.564   0.738   3.198 -0.8359 -0.0396  0.3526
 1468TIP3    H1 4410   0.537   0.655   3.158  2.2563 -0.0314 -2.1203
 1468TIP3    H2 4411   0.538   0.805   3.135 -0.2926  0.5086  0.7048
 1469TIP3   OH2 4412   1.096   5.475   0.376 -0.3102 -0.5510  0.4370
 1469TIP3    H1 4413   1.176   5.525   0.391  1.2854 -2.0878 -2.2417
 1469TIP3    H2 4414   1.026   5.532   0.408  1.6037  2.1623  0.1126
 1470TIP3   OH2 4415   1.957   3.640   1.972  0.0931 -0.1444  0.1619
 1470TIP3    H1 4416   2.009   3.668   1.897  0.3412  0.0691  0.4085
 1470TIP3    H2 4417   2.021   3.605   2.034 -0.0494  0.1497  0.4821
 1471TIP3   OH2 4418   4.162   1.697   0.088  0.4579  0.2084  0.0623
 1471TIP3    H1 4419   4.072   1.689   0.118  0.4467  2.2937  0.6864
 1471TIP3    H2 4420   4.203   1.615   0.116 -1.3267 -0.9829 -0.6571
 1472TIP3   OH2 4421   4.442   5.408   3.402  0.2812  0.1484  0.1496
 1472TIP3    H1 4422   4.379   5.341   3.428 -1.4235  1.1760 -1.1273
 1472TIP3    H2 4423   4.512   5.360   3.358 -1.7311 -0.7372 -2.3132
 1473TIP3   OH2 4424   3.950   3.052   2.445  0.5782  0.1134 -0.0774
 1473TIP3    H1 4425   4.027   3.055   2.501 -0.5528 -1.4828  1.6699
 1473TIP3    H2 4426   3.956   2.968   2.399 -0.4848 -0.4069  0.6844
 1474TIP3   OH2 4427   1.124   4.750   4.034 -0.3055 -0.5963  0.0695
 1474TIP3    H1 4428   1.168   4.740   3.949  0.6988  0.6706  0.4031
 1474TIP3    H2 4429   1.150   4.673   4.084 -0.5845 -1.1544 -0.6342
 1475TIP3   OH2 4430   6.224   2.937   3.977  0.0153  0.2756  0.0294
 1475TIP3    H1 4431   6.181   2.861   4.014  0.4598  0.1689  0.3420
 1475TIP3    H2 4432   6.318   2.918   3.985  0.1247  0.5152 -0.5998
 1476TIP3   OH2 4433   3.539   1.072   0.434 -0.1426  0.5898 -0.2341
 1476TIP3    H1 4434   3.581   0.995   0.395  1.4564  0.9569  0.7004
 1476TIP3    H2 4435   3.536   1.136   0.364  2.4815  1.1553  0.0855
 1477TIP3   OH2 4436   5.801   5.410   4.885 -0.2346  0.4859  0.4032
 1477TIP3    H1 4437   5.838   5.479   4.829  0.4938  0.2408  0.5688
 1477TIP3    H2 4438   5.706   5.417   4.872 -0.0829  0.3820 -0.9236
 1478TIP3   OH2 4439   3.767   3.124   0.120 -0.1041  0.4418  0.2243
 1478TIP3    H1 4440   3.822   3.148   0.045 -1.2946 -0.0105 -0.8396
 1478TIP3    H2 4441   3.799   3.038   0.147  0.1985  0.5160  0.1076
 1479TIP3   OH2 4442   2.723   5.088   4.478  0.2035 -0.2314 -0.1850
 1479TIP3    H1 4443   2.766   5.134   4.551 -0.9501 -3.4653  2.8286
 1479TIP3    H2 4444   2.788   5.024   4.450  0.0324 -0.0915 -0.9038
 1480TIP3   OH2 4445   1.083   5.145   1.470  0.0948  0.2179 -0.5505
 1480TIP3    H1 4446   1.018   5.179   1.531  1.1392  2.0411 -0.3770
 1480TIP3    H2 4447   1.161   5.199   1.485  1.1358 -0.8478 -1.8521
 1481TIP3   OH2 4448   1.404   5.523   1.291  0.1058 -0.3161  0.7316
 1481TIP3    H1 4449   1.442   5.454   1.345 -0.0912 -0.4862  0.6537
 1481TIP3    H2 4450   1.474   5.588   1.282 -0.6802  1.0826  3.5104
 1482TIP3   OH2 4451   4.177   0.386   3.540  0.2037 -0.2839  0.0793
 1482TIP3    H1 4452   4.225   0.303   3.541 -0.2760 -0.5916 -0.8338
 1482TIP3    H2 4453   4.205   0.428   3.458  1.4430  1.0784  1.1540
 1483TIP3   OH2 4454   0.940   3.810   3.684  0.1651  0.2115 -0.0926
 1483TIP3    H1 4455   0.883   3.734   3.674  1.2452 -0.4718 -1.4573
 1483TIP3    H2 4456   1.000   3.805   3.609  1.5692  1.2673  0.8988
 1484TIP3   OH2 4457   6.311   4.594   2.751 -0.1587  0.0767  0.2207
 1484TIP3    H1 4458   6.338   4.518   2.700  1.2124  0.0174  0.9731
 1484TIP3    H2 4459   6.364   4.666   2.717 -0.3548  0.3626  0.5166
 1485TIP3   OH2 4460   1.145   5.410   3.318  0.6134 -0.1117  0.1966
 1485TIP3    H1 4461   1.148   5.421   3.223 -1.9291 -0.2101  0.0349
 1485TIP3    H2 4462   1.083   5.477   3.348 -0.2258 -1.4179  1.5146
 1486TIP3   OH2 4463   5.715   5.784   2.394 -0.5301 -0.0767 -0.0981
 1486TIP3    H1 4464   5.705   5.707   2.339 -0.5869 -0.0761 -0.0876
 1486TIP3    H2 4465   5.810   5.801   2.393 -0.4364 -0.5514  0.4584
 1487TIP3   OH2 4466   3.729   1.766   5.131 -0.1336 -0.5400 -0.4186
 1487TIP3    H1 4467   3.810   1.767   5.182 -0.6401 -0.2507  0.4116
 1487TIP3    H2 4468   3.757   1.776   5.041  0.7159  0.3898 -0.0691
 1488TIP3   OH2 4469   5.181   0.365   0.985  0.0480  0.2615 -0.3180
 1488TIP3    H1 4470   5.170   0.406   0.899 -2.8634  0.2468 -0.0454
 1488TIP3    H2 4471   5.139   0.426   1.045  0.2383 -0.7198  0.8316
 1489TIP3   OH2 4472   4.261   1.564   0.447  0.4865  0.2608 -0.0442
 1489TIP3    H1 4473   4.280   1.524   0.362  1.2966  0.3472  0.0819
 1489TIP3    H2 4474   4.330   1.531   0.504 -0.9912 -1.1222  1.0316
 1490TIP3   OH2 4475   1.562   2.503   2.781  0.0364 -0.0720 -0.0883
 1490TIP3    H1 4476   1.520   2.445   2.717 -1.9513  0.3246  0.7911
 1490TIP3    H2 4477   1.520   2.588   2.767  2.3251  1.0254 -0.7918
 1491TIP3   OH2 4478   1.669   0.486   4.376  0.0600 -0.2561  0.3723
 1491TIP3    H1 4479   1.660   0.442   4.461 -1.6928  1.2517  1.0382
 1491TIP3    H2 4480   1.596   0.548   4.373  0.7758  0.5849 -1.7408
 1492TIP3   OH2 4481   3.724   1.374   5.031  0.2436  0.2723 -0.6969
 1492TIP3    H1 4482   3.773   1.300   4.996 -0.3502 -0.4603 -0.0052
 1492TIP3    H2 4483   3.646   1.381   4.975  0.0587  0.0718 -0.4633
 1493TIP3   OH2 4484   1.654   0.477   3.977 -0.3951  0.3692 -0.0536
 1493TIP3    H1 4485   1.701   0.459   4.058 -0.5678  1.2830  0.2668
 1493TIP3    H2 4486   1.580   0.532   4.005 -0.0986  1.2168 -0.9148
 1494TIP3   OH2 4487   2.902   0.164   3.024  0.2698 -0.2231  0.2733
 1494TIP3    H1 4488   2.956   0.085   3.036 -1.8091 -1.8443 -0.4153
 1494TIP3    H2 4489   2.837   0.160   3.094 -1.8374 -0.9309 -1.6135
 1495TIP3   OH2 4490  -0.016   2.236   3.779 -0.4724 -0.5787  0.0668
 1495TIP3    H1 4491   0.021   2.181   3.848 -0.0768 -1.6808 -0.9926
 1495TIP3    H2 4492   0.036   2.316   3.781  0.0801 -0.9464  0.4815
 1496TIP3   OH2 4493   4.431   4.052   3.174  0.3130  0.1078 -0.2095
 1496TIP3    H1 4494   4.381   3.996   3.115 -0.7148  0.0996  0.6360
 1496TIP3    H2 4495   4.447   3.997   3.251  0.6159  0.4846 -0.0002
 1497TIP3   OH2 4496   1.810   0.493   4.750  0.3838  0.6148 -0.6497
 1497TIP3    H1 4497   1.883   0.455   4.798  0.8349 -0.5378 -2.1588
 1497TIP3    H2 4498   1.752   0.527   4.817  1.3792 -0.1774  0.6624
 1498TIP3   OH2 4499   4.478   4.506   2.972 -0.2265 -0.1456  0.1260
 1498TIP3    H1 4500   4.493   4.502   2.878  0.9698  0.6548  0.2604
 1498TIP3    H2 4501   4.514   4.424   3.006 -0.0383 -0.1273 -0.0334
 1499TIP3   OH2 4502   2.967   1.537   1.626  0.4797  0.3267 -0.0124
 1499TIP3    H1 4503   2.984   1.498   1.540 -0.2091  0.2605 -0.1267
 1499TIP3    H2 4504   3.046   1.520   1.676 -0.0691 -1.9392  0.1940
 1500TIP3   OH2 4505   4.216   2.040   3.831  0.0892 -0.5482 -0.2577
 1500TIP3    H1 4506   4.240   1.954   3.864 -1.2397 -1.4857 -1.5880
 1500TIP3    H2 4507   4.121   2.045   3.846 -0.1873 -0.1699 -1.9766
 1501TIP3   OH2 4508   3.533   2.360   1.524 -0.2550  0.0186  0.4243
 1501TIP3    H1 4509   3.439   2.362   1.540 -0.2556  1.6529  0.3849
 1501TIP3    H2 4510   3.560   2.452   1.526  1.3943 -0.4326  0.7529
 1502TIP3   OH2 4511   3.031   3.052   1.423  0.3858  0.3434  0.1667
 1502TIP3    H1 4512   3.094   3.031   1.354  0.6490  0.7154  0.2954
 1502TIP3    H2 4513   2.976   3.121   1.387 -1.2159 -1.2648 -0.6931
 1503TIP3   OH2 4514   5.521   2.625   1.212  0.1347 -0.4044 -0.6519
 1503TIP3    H1 4515   5.615   2.608   1.219  0.6026  1.6779 -1.3639
 1503TIP3    H2 4516   5.484   2.542   1.182  1.7745 -1.1850 -0.6076
 1504TIP3   OH2 4517   0.360   5.841   2.150 -0.1078  0.1885 -0.1625
 1504TIP3    H1 4518   0.338   5.748   2.144 -0.4521  0.3490 -1.5761
 1504TIP3    H2 4519   0.450   5.847   2.118 -0.4333  0.4659 -1.0531
 1505TIP3   OH2 4520   1.028   1.864   0.425  0.1337  0.4718 -0.4393
 1505TIP3    H1 4521   1.079   1.935   0.386  1.6254 -0.7238 -0.7973
 1505TIP3    H2 4522   1.070   1.784   0.392 -2.5459 -0.6461 -1.4669
 1506TIP3   OH2 4523   6.181   4.886   0.050  0.4209 -0.1733 -0.0107
 1506TIP3    H1 4524   6.109   4.944   0.075 -0.6880  0.1681 -3.4742
 1506TIP3    H2 4525   6.210   4.919  -0.035  1.0462 -3.5028 -1.2228
 1507TIP3   OH2 4526   2.118   5.440   4.884 -0.2738 -0.4392  0.1576
 1507TIP3    H1 4527   2.140   5.398   4.801 -1.1202  0.6402 -0.6435
 1507TIP3    H2 4528   2.108   5.368   4.945  1.8019 -1.1830 -0.2959
 1508TIP3   OH2 4529   3.075   1.412   2.286  0.5618 -0.2291 -0.1366
 1508TIP3    H1 4530   3.039   1.409   2.197 -0.5212  1.4054  0.2175
 1508TIP3    H2 4531   3.031   1.340   2.332 -0.3254  0.1239 -0.4140
 1509TIP3   OH2 4532   4.721   3.218   3.318  0.0042 -0.3051 -0.6084
 1509TIP3    H1 4533   4.637   3.249   3.283 -0.0400  0.5979  0.2444
 1509TIP3    H2 4534   4.707   3.125   3.334 -0.8159 -0.1818 -0.5533
 1510TIP3   OH2 4535   3.341   3.015   3.945  0.0611 -0.0314  0.0035
 1510TIP3    H1 4536   3.315   3.036   4.034 -0.1233 -1.8925  0.4367
 1510TIP3    H2 4537   3.435   3.033   3.942  0.2099 -0.6523  0.8070
 1511TIP3   OH2 4538   3.666   1.023   4.263 -0.1282  0.5312 -0.4591
 1511TIP3    H1 4539   3.616   1.082   4.320 -2.9428 -1.6665 -0.3885
 1511TIP3    H2 4540   3.756   1.052   4.272 -0.4482  0.9768  4.4011
 1512TIP3   OH2 4541   1.916   0.216   2.191 -0.2903  0.3439 -0.2413
 1512TIP3    H1 4542   1.954   0.273   2.257 -0.4486  0.0282  0.1209
 1512TIP3    H2 4543   1.988   0.197   2.131 -0.0468  0.2948  0.0656
 1513TIP3   OH2 4544   6.194   5.647   2.857  0.0299  0.0259 -0.0090
 1513TIP3    H1 4545   6.143   5.577   2.897 -1.0503 -0.0509 -1.4447
 1513TIP3    H2 4546   6.165   5.650   2.766  2.5893 -0.0001 -0.9195
 1514TIP3   OH2 4547   1.261   4.409   2.583  0.1269  0.7613 -0.0454
 1514TIP3    H1 4548   1.203   4.373   2.516 -1.0839 -0.8749  1.7695
 1514TIP3    H2 4549   1.311   4.334   2.614  0.6580  1.4771  0.8807
 1515TIP3   OH2 4550   1.449   1.348   0.510  0.0554  0.5901  0.4815
 1515TIP3    H1 4551   1.505   1.306   0.576 -1.0315 -1.0337  0.4416
 1515TIP3    H2 4552   1.489   1.324   0.426 -0.5649 -0.4439  0.4584
 1516TIP3   OH2 4553   2.101   3.087   0.191  0.2646  0.1923 -0.0500
 1516TIP3    H1 4554   2.142   3.124   0.113 -0.8572  0.6901 -0.4158
 1516TIP3    H2 4555   2.112   2.992   0.182 -1.7130  0.0854 -1.8984
 1517TIP3   OH2 4556   2.759   4.002   4.014 -0.0385 -0.9962 -0.2882
 1517TIP3    H1 4557   2.712   4.009   3.931 -1.2882  1.0257  0.5434
 1517TIP3    H2 4558   2.694   4.022   4.081  1.6537  0.4932  0.9923
 1518TIP3   OH2 4559   4.848   5.412   3.112 -0.1225 -0.0417 -0.2729
 1518TIP3    H1 4560   4.824   5.323   3.086 -0.1605 -0.7296  1.8549
 1518TIP3    H2 4561   4.765   5.456   3.127 -0.1013  0.1569 -0.7448
 1519TIP3   OH2 4562   1.100   4.509   0.507 -0.4571  0.1679 -0.3924
 1519TIP3    H1 4563   1.093   4.571   0.435 -1.7698 -1.1282 -1.4489
 1519TIP3    H2 4564   1.011   4.504   0.543 -0.3814 -1.0900 -0.3393
 1520TIP3   OH2 4565   2.315   5.796   1.014  0.3970  0.0920 -0.2793
 1520TIP3    H1 4566   2.234   5.745   1.013 -2.7203  4.1992  3.2340
 1520TIP3    H2 4567   2.371   5.751   1.076 -0.0336 -1.6847 -1.1236
 1521TIP3   OH2 4568   4.632   0.035   2.116 -0.5211  0.1589  0.2058
 1521TIP3    H1 4569   4.592  -0.050   2.132 -0.3164  0.0822  0.3119
 1521TIP3    H2 4570   4.637   0.076   2.203  0.0258 -0.0070  0.2567
 1522TIP3   OH2 4571   4.062   1.959   4.968  0.7918 -0.0903  0.3561
 1522TIP3    H1 4572   4.080   2.030   4.906 -0.4468 -0.0300  0.0338
 1522TIP3    H2 4573   4.072   1.879   4.916 -3.0955  0.0036 -0.8616
 1523TIP3   OH2 4574   0.484   1.642   2.266 -0.7331 -0.4418 -0.0521
 1523TIP3    H1 4575   0.518   1.597   2.343 -1.0548  0.4729  0.6399
 1523TIP3    H2 4576   0.471   1.733   2.294 -1.4303 -0.2253 -1.0026
 1524TIP3   OH2 4577   3.750   0.918   0.978 -0.1386  0.4864  0.3184
 1524TIP3    H1 4578   3.717   0.849   1.036 -4.4227  1.1525 -0.9111
 1524TIP3    H2 4579   3.741   0.999   1.029 -0.1351  0.6581  0.0487
 1525TIP3   OH2 4580   2.144   0.197   2.038  0.0088 -0.2363  0.2570
 1525TIP3    H1 4581   2.143   0.243   1.954  1.7073  0.4966  0.5858
 1525TIP3    H2 4582   2.224   0.227   2.080 -1.0958 -0.1176  2.4166
 1526TIP3   OH2 4583   3.845   4.312   0.771  0.3585 -0.0988  0.0603
 1526TIP3    H1 4584   3.846   4.369   0.694  0.1324 -0.3843 -0.1525
 1526TIP3    H2 4585   3.788   4.358   0.833  0.6562  0.2027  0.1141
 1527TIP3   OH2 4586   5.216   0.322   2.465  0.3843  0.4494 -0.5904
 1527TIP3    H1 4587   5.303   0.359   2.478  0.8224 -0.9649  0.8855
 1527TIP3    H2 4588   5.181   0.312   2.554 -1.0686  0.4713 -1.1288
 1528TIP3   OH2 4589   1.055   1.722   1.038  0.2675  0.0217  0.2325
 1528TIP3    H1 4590   0.991   1.712   0.967  0.1083 -1.6152  0.5769
 1528TIP3    H2 4591   1.106   1.641   1.037  0.2647 -0.0435  1.9954
 1529TIP3   OH2 4592   2.695   3.548   0.767 -0.3780 -0.3593  0.3221
 1529TIP3    H1 4593   2.608   3.588   0.771 -0.4161 -0.5015  1.6880
 1529TIP3    H2 4594   2.755   3.622   0.771 -0.4487 -0.3105  0.5407
 1530TIP3   OH2 4595   3.563   0.743   4.833  0.0498 -0.7768 -0.1917
 1530TIP3    H1 4596   3.577   0.694   4.752 -2.8053 -1.6220 -0.2919
 1530TIP3    H2 4597   3.472   0.725   4.856  0.2646  0.8474  2.2894
 1531TIP3   OH2 4598   0.604   1.825   0.638 -0.7551  0.1373 -0.9577
 1531TIP3    H1 4599   0.698   1.816   0.652 -0.9945  0.1667  0.8334
 1531TIP3    H2 4600   0.575   1.737   0.615 -0.1647  0.3228 -2.5377
 1532TIP3   OH2 4601   4.644   4.369   4.181  0.7676  0.2494 -0.0189
 1532TIP3    H1 4602   4.643   4.464   4.179  1.3435  0.2931  0.9784
 1532TIP3    H2 4603   4.588   4.342   4.108  0.5574  1.3455 -0.2704
 1533TIP3   OH2 4604   3.955   4.792   1.327 -0.2140 -0.2846 -0.0368
 1533TIP3    H1 4605   3.988   4.878   1.354 -0.5717 -0.3327  0.5601
 1533TIP3    H2 4606   3.888   4.770   1.392 -1.4976 -0.1528 -1.2591
 1534TIP3   OH2 4607   0.395   3.901   1.804  0.2369  0.5147  0.2133
 1534TIP3    H1 4608   0.373   3.993   1.812  0.6783  0.5617  0.8527
 1534TIP3    H2 4609   0.362   3.861   1.884 -2.8314 -0.4745 -1.3544
 1535TIP3   OH2 4610   1.561   5.870   1.807  0.2127 -0.6988  0.5138
 1535TIP3    H1 4611   1.564   5.836   1.896  0.6230  0.8792  1.1187
 1535TIP3    H2 4612   1.477   5.916   1.802  0.7224  0.2486  0.4857
 1536TIP3   OH2 4613   2.186   1.450   0.806 -0.0442  0.6237  0.2297
 1536TIP3    H1 4614   2.268   1.481   0.767  0.7032 -1.0557  0.3871
 1536TIP3    H2 4615   2.207   1.436   0.898 -0.3980 -0.1480  0.1982
 1537TIP3   OH2 4616   2.836   2.539   2.366 -0.0570 -0.0008  0.2486
 1537TIP3    H1 4617   2.760   2.485   2.343  0.3252  0.0487 -1.2174
 1537TIP3    H2 4618   2.907   2.505   2.311  0.0867  2.2277 -1.0574
 1538TIP3   OH2 4619   1.086   3.206   3.936 -0.0339 -0.1566 -0.3760
 1538TIP3    H1 4620   1.005   3.176   3.977 -2.2238  3.4429 -1.6756
 1538TIP3    H2 4621   1.081   3.173   3.847 -0.3233  0.5104 -0.6056
 1539TIP3   OH2 4622   3.913   5.811   2.857 -0.1400  0.0599 -0.3781
 1539TIP3    H1 4623   3.929   5.774   2.770  0.9754  3.8148 -1.9716
 1539TIP3    H2 4624   3.843   5.757   2.893  1.8253 -3.9877 -1.9786
 1540TIP3   OH2 4625   1.599   4.964   1.257 -0.2002 -0.0012 -0.4642
 1540TIP3    H1 4626   1.539   5.023   1.212  0.2132 -0.3244 -1.4481
 1540TIP3    H2 4627   1.661   4.935   1.190 -1.1769 -2.6175 -0.3510
 1541TIP3   OH2 4628   4.450   2.931   1.485  0.3048 -0.1190 -0.3945
 1541TIP3    H1 4629   4.463   2.998   1.418  0.4006  0.0207 -0.2369
 1541TIP3    H2 4630   4.437   2.850   1.436  2.3564 -0.3997 -0.5885
 1542TIP3   OH2 4631   0.577   1.749   1.021 -0.0352  0.0352  0.6605
 1542TIP3    H1 4632   0.651   1.778   0.967  0.5058 -1.1962  0.6890
 1542TIP3    H2 4633   0.501   1.757   0.964  0.4511 -0.7235 -0.1259
 1543TIP3   OH2 4634   5.332   5.058   2.409 -0.0436 -0.2814  0.2374
 1543TIP3    H1 4635   5.408   5.061   2.351 -0.6087  0.5235 -0.4990
 1543TIP3    H2 4636   5.345   5.132   2.468 -1.0100  0.8570 -0.9166
 1544TIP3   OH2 4637   5.344   1.199   2.181 -0.3369 -0.3787  0.2746
 1544TIP3    H1 4638   5.431   1.186   2.144 -0.0267  1.3157  0.3183
 1544TIP3    H2 4639   5.311   1.110   2.197  1.1786 -1.0586 -0.1818
 1545TIP3   OH2 4640   3.655   1.166   3.098  0.1411  0.3704  0.1914
 1545TIP3    H1 4641   3.712   1.179   3.174 -0.8055 -0.4595  1.0692
 1545TIP3    H2 4642   3.714   1.134   3.030  1.2910  2.6201  0.0336
 1546TIP3   OH2 4643   1.919   1.670   1.092 -0.1719  0.0118  0.0447
 1546TIP3    H1 4644   1.827   1.642   1.085  0.4730 -2.3164 -0.0106
 1546TIP3    H2 4645   1.949   1.631   1.174  0.4205  1.9787  0.8170
 1547TIP3   OH2 4646   4.617   3.803   4.546  0.3252 -0.2383  0.1085
 1547TIP3    H1 4647   4.701   3.776   4.510  0.0549 -1.5365  0.3931
 1547TIP3    H2 4648   4.562   3.817   4.469  0.5300 -0.3358 -0.0580
 1548TIP3   OH2 4649   0.360   1.163   1.884 -0.0661 -0.8338 -0.0541
 1548TIP3    H1 4650   0.389   1.153   1.975  0.0426 -0.2981 -0.0246
 1548TIP3    H2 4651   0.395   1.086   1.839  1.9190  0.0475 -0.1391
 1549TIP3   OH2 4652   2.173   5.278   2.332  0.3408  0.0262  0.0590
 1549TIP3    H1 4653   2.245   5.268   2.270  0.1699  2.2513 -0.5930
 1549TIP3    H2 4654   2.098   5.304   2.277 -0.5457 -0.6860  0.9014
 1550TIP3   OH2 4655   3.808   2.489   4.604  0.1011 -0.2404  0.1390
 1550TIP3    H1 4656   3.745   2.431   4.562 -0.4286  0.8056 -0.5648
 1550TIP3    H2 4657   3.893   2.449   4.586 -0.3313 -1.6538  1.0773
 1551TIP3   OH2 4658   3.287   5.563   1.543 -0.0375 -0.0898  0.2463
 1551TIP3    H1 4659   3.265   5.476   1.509  0.8961 -0.1617 -0.1833
 1551TIP3    H2 4660   3.206   5.613   1.532  0.0237 -0.3019 -1.4737
 1552TIP3   OH2 4661   6.206   4.864   1.511 -0.3049  0.2242 -0.0911
 1552TIP3    H1 4662   6.292   4.824   1.525 -0.4592 -0.5703 -1.3483
 1552TIP3    H2 4663   6.146   4.791   1.500 -1.2244  0.7670  1.0413
 1553TIP3   OH2 4664   6.315   5.143   1.597  0.2532 -0.5296  0.2430
 1553TIP3    H1 4665   6.314   5.098   1.681 -1.4439 -0.3509  0.3610
 1553TIP3    H2 4666   6.336   5.075   1.533 -1.3033 -1.3219  0.5247
 1554TIP3   OH2 4667   5.262   4.652   3.047  0.4721 -0.2749  0.0436
 1554TIP3    H1 4668   5.216   4.609   3.119  1.0105 -1.2417 -0.1712
 1554TIP3    H2 4669   5.200   4.651   2.974  1.7555 -4.5511 -1.3073
 1555TIP3   OH2 4670   0.772   2.630   0.090 -0.5436  0.3462  0.2047
 1555TIP3    H1 4671   0.687   2.617   0.048 -0.6317  1.5822 -0.0342
 1555TIP3    H2 4672   0.760   2.600   0.180 -1.2589  0.6140  0.1991
 1556TIP3   OH2 4673   2.345   0.751   2.419 -0.5418 -0.2952 -0.4091
 1556TIP3    H1 4674   2.399   0.806   2.475 -1.7328 -1.3969  2.0084
 1556TIP3    H2 4675   2.406   0.692   2.376  0.4444  0.7310 -0.4411
 1557TIP3   OH2 4676   2.553   5.776   4.407  0.2240 -0.1962  0.7937
 1557TIP3    H1 4677   2.533   5.867   4.387  1.5297  0.1772  1.0374
 1557TIP3    H2 4678   2.628   5.781   4.467  1.0632 -1.4411 -0.0827
 1558TIP3   OH2 4679   0.495   3.503   4.027 -0.0252  0.0478 -0.9874
 1558TIP3    H1 4680   0.474   3.595   4.012 -0.0720  0.5255  1.5315
 1558TIP3    H2 4681   0.533   3.501   4.115 -1.9117 -2.5844 -0.0989
 1559TIP3   OH2 4682   5.352   1.952   0.062 -0.5457  0.2088  0.3188
 1559TIP3    H1 4683   5.366   2.000  -0.019  1.0739 -1.7866 -0.6849
 1559TIP3    H2 4684   5.435   1.962   0.110 -0.1866 -1.4679  0.1036
 1560TIP3   OH2 4685   2.333   0.826   0.872 -0.6942  0.6002 -0.1477
 1560TIP3    H1 4686   2.283   0.846   0.950 -0.6254  0.0119  0.0532
 1560TIP3    H2 4687   2.269   0.791   0.810 -0.2593 -2.2821  0.8765
 1561TIP3   OH2 4688   5.102   0.045   0.853  0.2675 -0.3848 -0.1999
 1561TIP3    H1 4689   5.070   0.104   0.784 -0.6854  0.9160  1.2796
 1561TIP3    H2 4690   5.131   0.104   0.923 -0.4411 -1.6589  1.2196
 1562TIP3   OH2 4691   0.860   0.293   4.823 -0.0972 -0.0452  0.2838
 1562TIP3    H1 4692   0.851   0.199   4.809 -0.7249 -0.1669  1.4255
 1562TIP3    H2 4693   0.954   0.307   4.830  0.3355 -0.0113 -3.4240
 1563TIP3   OH2 4694   3.626   2.127   1.727  0.1795 -0.2754  0.1270
 1563TIP3    H1 4695   3.550   2.071   1.740  0.7918 -1.2360 -0.2981
 1563TIP3    H2 4696   3.604   2.181   1.651  0.3337 -1.3293 -0.6941
 1564TIP3   OH2 4697   5.005   4.906   0.557  0.3565 -0.0709  0.6151
 1564TIP3    H1 4698   5.032   4.828   0.509 -2.4438 -2.2270  2.1736
 1564TIP3    H2 4699   4.979   4.873   0.643 -1.2419  2.5312  1.2450
 1565TIP3   OH2 4700   0.773   1.740   2.405 -0.0585 -0.8066 -0.0783
 1565TIP3    H1 4701   0.702   1.718   2.345 -0.7338 -0.5354  0.6203
 1565TIP3    H2 4702   0.833   1.666   2.398  0.0512 -0.6326 -1.3371
 1566TIP3   OH2 4703   6.147   5.975   1.932  0.2654 -0.1916  0.3519
 1566TIP3    H1 4704   6.232   6.014   1.952  0.1851 -0.2972  0.9015
 1566TIP3    H2 4705   6.109   5.953   2.017  0.7428 -2.4156  0.0586
 1567TIP3   OH2 4706   2.457   5.651   1.199 -0.3559 -1.0841 -0.0261
 1567TIP3    H1 4707   2.497   5.564   1.202 -0.1546 -0.9765  2.1802
 1567TIP3    H2 4708   2.396   5.652   1.272  1.4068  1.3964  1.6019
 1568TIP3   OH2 4709   5.052   2.913   4.311  0.0517 -0.6446 -0.8205
 1568TIP3    H1 4710   4.969   2.902   4.357  0.3954  0.2035  0.0534
 1568TIP3    H2 4711   5.054   2.843   4.247 -1.2258 -0.8288 -0.6845
 1569TIP3   OH2 4712   4.270   2.019   1.308 -0.1203  0.1530 -0.1226
 1569TIP3    H1 4713   4.332   1.957   1.348  0.1580  0.6973  0.2976
 1569TIP3    H2 4714   4.262   1.989   1.217  0.8716  0.1635 -0.2244
 1570TIP3   OH2 4715   5.651   2.724   3.270  0.2318 -0.0234  0.2590
 1570TIP3    H1 4716   5.617   2.809   3.298 -2.3814 -0.8186 -0.1791
 1570TIP3    H2 4717   5.716   2.701   3.335  0.0954  1.7600  1.0847
 1571TIP3   OH2 4718   1.180   2.158   5.032  0.0675  0.0218 -0.1568
 1571TIP3    H1 4719   1.102   2.117   5.070 -0.3717  2.0442  1.2703
 1571TIP3    H2 4720   1.249   2.144   5.097  0.6334 -0.7655 -0.9020
 1572TIP3   OH2 4721   1.554   5.018   4.248 -0.1971 -0.6421  0.3349
 1572TIP3    H1 4722   1.489   4.973   4.301 -0.3185 -0.0336  0.7092
 1572TIP3    H2 4723   1.506   5.090   4.206  0.1503 -0.4148  0.3211
 1573TIP3   OH2 4724   4.006   2.487   3.410  0.4187 -0.2287 -0.1937
 1573TIP3    H1 4725   3.914   2.490   3.436  0.6408 -1.3216  0.7802
 1573TIP3    H2 4726   4.011   2.546   3.334 -0.6998  1.3686  0.9007
 1574TIP3   OH2 4727   4.362   0.548   1.821 -0.1909  0.0892 -0.1673
 1574TIP3    H1 4728   4.358   0.534   1.915  2.1233  1.0023  0.1265
 1574TIP3    H2 4729   4.415   0.475   1.788  0.3996  0.6680 -0.5183
 1575TIP3   OH2 4730   0.599   2.541   2.651  0.0932  0.6196  0.1943
 1575TIP3    H1 4731   0.558   2.472   2.703  0.4525  1.2400  1.3428
 1575TIP3    H2 4732   0.531   2.568   2.589  0.2192 -1.3081 -0.8613
 1576TIP3   OH2 4733   3.078   1.514   3.189 -0.3343  0.1802  0.4756
 1576TIP3    H1 4734   3.069   1.554   3.103  1.3364  0.5379  0.4299
 1576TIP3    H2 4735   3.092   1.421   3.171  1.0950  0.4129  0.2719
 1577TIP3   OH2 4736   3.128   5.286   3.997 -0.1804 -0.2018 -0.3168
 1577TIP3    H1 4737   3.172   5.356   4.045 -1.4610  1.0436 -0.8521
 1577TIP3    H2 4738   3.079   5.332   3.928 -2.1591 -1.4824  0.1365
 1578TIP3   OH2 4739   1.282   3.179   0.901  0.0239 -0.2578  0.3454
 1578TIP3    H1 4740   1.227   3.160   0.977  1.5036 -0.6292  1.3457
 1578TIP3    H2 4741   1.318   3.095   0.875  1.0519  0.1424  0.4332
 1579TIP3   OH2 4742   2.320   4.969   2.722  0.2410  0.4785 -0.0138
 1579TIP3    H1 4743   2.343   4.968   2.629  0.9795 -3.2817  0.0647
 1579TIP3    H2 4744   2.397   4.933   2.766 -1.7910 -2.4812  1.4376
 1580TIP3   OH2 4745   3.182   3.617   2.737 -0.4788  0.7627  0.4282
 1580TIP3    H1 4746   3.142   3.614   2.650 -0.8291 -0.7921  0.6130
 1580TIP3    H2 4747   3.182   3.710   2.761 -0.8838  1.1430 -0.9957
 1581TIP3   OH2 4748   5.115   5.402   0.144  0.7608 -0.1467  0.2770
 1581TIP3    H1 4749   5.107   5.397   0.239 -1.6518  0.4356  0.1685
 1581TIP3    H2 4750   5.137   5.312   0.117 -2.4655 -1.3255  1.1557
 1582TIP3   OH2 4751   2.407   4.024   0.212 -0.3423 -0.5311  0.6268
 1582TIP3    H1 4752   2.420   3.961   0.141  1.0304 -1.2420  1.4498
 1582TIP3    H2 4753   2.319   4.058   0.199 -0.1054 -0.5992 -1.4241
 1583TIP3   OH2 4754   2.639   4.578   1.786  0.1989 -0.4002  0.1703
 1583TIP3    H1 4755   2.590   4.572   1.704  0.9995 -0.3380 -0.3222
 1583TIP3    H2 4756   2.647   4.672   1.802  1.7421 -0.3199 -0.7551
 1584TIP3   OH2 4757   3.744   0.466   0.641 -0.0609  0.0075 -0.3306
 1584TIP3    H1 4758   3.809   0.452   0.709 -0.6158  1.1724  0.4671
 1584TIP3    H2 4759   3.663   0.428   0.676 -0.3564  0.6449 -0.3143
 1585TIP3   OH2 4760   1.480   1.643   2.856 -0.2896  0.4238  0.5100
 1585TIP3    H1 4761   1.529   1.669   2.935 -0.0814  0.6450  0.3103
 1585TIP3    H2 4762   1.427   1.569   2.884 -1.4084  1.4774  1.2644
 1586TIP3   OH2 4763   5.424   3.674   2.286  0.9062  0.3168 -0.0342
 1586TIP3    H1 4764   5.461   3.693   2.372 -1.6964 -1.8873  1.7351
 1586TIP3    H2 4765   5.335   3.708   2.290  1.1497  1.4760 -2.4832
 1587TIP3   OH2 4766   2.005   3.759   4.923 -0.3328  0.1217 -0.2548
 1587TIP3    H1 4767   1.975   3.692   4.984 -0.1031  0.3190  0.0796
 1587TIP3    H2 4768   2.000   3.718   4.837  2.1727 -1.2007  0.1449
 1588TIP3   OH2 4769   3.612   2.949   4.971 -0.4434 -0.2506  0.0380
 1588TIP3    H1 4770   3.609   3.023   5.031 -0.0635 -0.7004  0.6254
 1588TIP3    H2 4771   3.549   2.971   4.902 -0.9221  0.2537  0.6255
 1589TIP3   OH2 4772   6.000   4.384   3.592 -0.3147  0.1587 -0.4682
 1589TIP3    H1 4773   5.942   4.310   3.575  1.7145 -1.2398 -1.7667
 1589TIP3    H2 4774   6.038   4.405   3.507 -1.4228  3.3290 -0.3250
 1590TIP3   OH2 4775   0.425   1.326   0.094 -0.0462  0.6080  0.0695
 1590TIP3    H1 4776   0.485   1.277   0.151  1.1598  1.1887 -0.6611
 1590TIP3    H2 4777   0.403   1.265   0.024 -0.0564  0.4993  0.1671
 1591TIP3   OH2 4778   3.763   0.938   4.811  0.3679  0.0389 -0.0225
 1591TIP3    H1 4779   3.762   0.970   4.721  1.4035 -0.3951 -0.2000
 1591TIP3    H2 4780   3.685   0.883   4.818 -0.7298  1.5239 -0.0862
 1592TIP3   OH2 4781   0.896   1.363   4.522  0.2244 -0.1274 -0.0780
 1592TIP3    H1 4782   0.850   1.280   4.526 -0.0340 -0.0247 -0.7463
 1592TIP3    H2 4783   0.983   1.345   4.556 -0.2766 -0.3406  1.1472
 1593TIP3   OH2 4784   3.537   3.810   4.454  0.5682 -0.3832  0.2013
 1593TIP3    H1 4785   3.539   3.790   4.360  0.1441  0.9969 -0.1214
 1593TIP3    H2 4786   3.593   3.887   4.463  0.4438 -0.3836  1.0624
 1594TIP3   OH2 4787   3.305   3.245   0.055  0.4940 -0.0438  0.7247
 1594TIP3    H1 4788   3.241   3.235  -0.016  1.3333 -0.8551  0.0584
 1594TIP3    H2 4789   3.293   3.335   0.085  0.1504  0.3467 -0.4959
 1595TIP3   OH2 4790   2.980   4.115   2.900  0.4064  0.2023 -0.0605
 1595TIP3    H1 4791   2.982   4.149   2.811 -1.2383  0.2277 -0.1002
 1595TIP3    H2 4792   2.918   4.043   2.897 -0.2019  0.6504  1.2169
 1596TIP3   OH2 4793   3.671   1.489   0.868  0.4085 -0.1252  0.3499
 1596TIP3    H1 4794   3.703   1.402   0.844 -0.4102 -0.8324  1.7063
 1596TIP3    H2 4795   3.576   1.485   0.853  0.7147  1.7794 -3.1322
 1597TIP3   OH2 4796   0.919   2.650   4.738  0.0986 -0.7498 -0.2173
 1597TIP3    H1 4797   0.991   2.638   4.800  0.0270  0.1561  0.0615
 1597TIP3    H2 4798   0.842   2.666   4.793  0.3842  2.1080 -0.4498
 1598TIP3   OH2 4799   3.592   5.643   2.551  0.2954  0.4104 -0.1870
 1598TIP3    H1 4800   3.533   5.716   2.568  0.0028  0.1344 -0.0146
 1598TIP3    H2 4801   3.678   5.684   2.539  0.4070  0.6622  1.3780
 1599TIP3   OH2 4802   5.453   4.034   2.641 -0.5572  0.2703 -0.3418
 1599TIP3    H1 4803   5.417   4.077   2.718 -0.9520  1.1934 -1.0275
 1599TIP3    H2 4804   5.512   3.967   2.677  0.9059  2.0465  0.7733
 1600TIP3   OH2 4805   5.371   3.581   2.588 -0.1531  0.5267  0.4386
 1600TIP3    H1 4806   5.453   3.536   2.567 -0.4975  0.1736 -0.1658
 1600TIP3    H2 4807   5.399   3.664   2.628  0.4926 -0.2733  1.7269
 1601TIP3   OH2 4808   3.952   0.772   4.931 -0.2560 -0.7361  0.5982
 1601TIP3    H1 4809   3.980   0.800   5.018 -0.7939  0.9809  0.2458
 1601TIP3    H2 4810   3.871   0.821   4.915  0.4360 -0.1521 -1.3293
 1602TIP3   OH2 4811   0.756   4.665   3.378  0.7072 -0.7614 -0.6668
 1602TIP3    H1 4812   0.668   4.631   3.360  0.6384  0.1973 -2.3309
 1602TIP3    H2 4813   0.771   4.731   3.310  1.5007  1.3375  1.3756
 1603TIP3   OH2 4814   4.160   2.041   0.257  0.4179 -0.1618 -0.6958
 1603TIP3    H1 4815   4.247   2.020   0.289  0.0691 -0.4349  0.0899
 1603TIP3    H2 4816   4.101   1.988   0.311 -0.4601  2.3844  1.0201
 1604TIP3   OH2 4817   3.497   0.605   3.193  0.3411  0.4627  0.3815
 1604TIP3    H1 4818   3.483   0.538   3.127 -1.0506  0.6418  0.4698
 1604TIP3    H2 4819   3.505   0.687   3.144 -3.3042  1.0150  0.4410
 1605TIP3   OH2 4820   1.682   0.496   2.357  0.6903 -0.0930 -0.1002
 1605TIP3    H1 4821   1.666   0.577   2.407 -1.7594  0.3921 -1.4892
 1605TIP3    H2 4822   1.740   0.445   2.413 -0.8340  0.9594  2.6624
 1606TIP3   OH2 4823   2.800   3.310   4.390  0.1095  0.2891  0.5306
 1606TIP3    H1 4824   2.874   3.370   4.387  1.0460 -0.7530  1.9053
 1606TIP3    H2 4825   2.760   3.325   4.476 -0.5439 -0.0310  0.2940
 1607TIP3   OH2 4826   1.309   4.931   4.789 -0.2342 -0.1337 -0.1053
 1607TIP3    H1 4827   1.215   4.931   4.773  0.0618  1.3835 -2.4122
 1607TIP3    H2 4828   1.332   5.024   4.794  1.1311 -0.4826  0.4942
 1608TIP3   OH2 4829   2.421   1.543   4.167  0.0276  0.0936  0.5707
 1608TIP3    H1 4830   2.329   1.566   4.179 -0.2474 -0.2088 -0.7815
 1608TIP3    H2 4831   2.425   1.450   4.190  0.0995  0.2046  1.0345
 1609TIP3   OH2 4832   5.657   2.812   1.754  0.4996  0.3183 -0.3800
 1609TIP3    H1 4833   5.689   2.792   1.842 -0.0556 -2.7804 -0.7768
 1609TIP3    H2 4834   5.607   2.893   1.765  3.7002  2.2766  1.2926
 1610TIP3   OH2 4835   1.733   1.156   2.407 -0.7709 -0.1200  0.0544
 1610TIP3    H1 4836   1.692   1.080   2.366 -2.1077  0.9836 -0.7681
 1610TIP3    H2 4837   1.823   1.130   2.422 -1.2199 -1.8887 -0.1248
 1611TIP3   OH2 4838   6.246   3.044   0.629 -0.1601  1.0800 -0.1692
 1611TIP3    H1 4839   6.157   3.061   0.599  0.6977 -0.2745 -3.8973
 1611TIP3    H2 4840   6.291   3.127   0.617 -0.5201  1.3486  0.2785
 1612TIP3   OH2 4841   0.080   3.643   4.790  0.0176 -0.3422 -0.0922
 1612TIP3    H1 4842   0.057   3.683   4.874 -1.4284 -0.6022 -0.3414
 1612TIP3    H2 4843   0.068   3.712   4.725 -0.9546 -0.7287 -0.3344
 1613TIP3   OH2 4844   5.207   2.813   2.825  0.2503  0.4456 -0.2805
 1613TIP3    H1 4845   5.271   2.854   2.882  0.1673  1.7415 -1.0658
 1613TIP3    H2 4846   5.122   2.834   2.864  0.2490 -0.3389  0.1632
 1614TIP3   OH2 4847   5.975   1.666   2.495  0.2407  0.5837  0.9965
 1614TIP3    H1 4848   6.008   1.742   2.542  1.7334 -0.2402  1.3613
 1614TIP3    H2 4849   5.964   1.599   2.563 -2.5687  0.8898  0.9370
 1615TIP3   OH2 4850   2.788   0.522   2.791  0.1258  0.5571 -0.4673
 1615TIP3    H1 4851   2.869   0.494   2.748  0.5332  0.8070  0.1237
 1615TIP3    H2 4852   2.753   0.443   2.831  0.4239  0.5646 -0.1799
 1616TIP3   OH2 4853   0.088   5.282   0.602 -0.0307  0.2106 -0.4707
 1616TIP3    H1 4854   0.101   5.316   0.691 -2.4483 -2.2723  0.9856
 1616TIP3    H2 4855   0.177   5.270   0.568  0.9590  1.8099  1.3213
 1617TIP3   OH2 4856   2.005   5.929   0.905 -0.2371  0.6234  0.4079
 1617TIP3    H1 4857   2.073   5.908   0.841 -1.5139  0.8947 -1.0978
 1617TIP3    H2 4858   1.971   5.844   0.933 -0.7767  0.5181 -0.5306
 1618TIP3   OH2 4859   5.780   1.886   5.176  0.0244  0.4630 -0.2343
 1618TIP3    H1 4860   5.731   1.808   5.151  0.2443  0.4283 -0.5609
 1618TIP3    H2 4861   5.868   1.871   5.143  0.2438  0.5501  0.3029
 1619TIP3   OH2 4862   5.619   3.532   0.310 -0.3019 -1.4925 -0.6602
 1619TIP3    H1 4863   5.678   3.489   0.371  0.6778 -0.8908 -1.1640
 1619TIP3    H2 4864   5.546   3.562   0.364 -0.1354 -2.2048 -0.0250
 1620TIP3   OH2 4865   1.304   0.497   4.479  0.8212 -0.7100 -0.0464
 1620TIP3    H1 4866   1.317   0.442   4.556 -0.7350 -0.4009  0.4704
 1620TIP3    H2 4867   1.237   0.452   4.428  1.9684 -1.0136 -1.3494
 1621TIP3   OH2 4868   3.102   4.764   4.766 -0.4159 -0.0642 -0.0249
 1621TIP3    H1 4869   3.145   4.688   4.729 -1.4487 -0.5188 -0.3354
 1621TIP3    H2 4870   3.172   4.829   4.778  0.3631 -0.8442 -0.3105
 1622TIP3   OH2 4871   2.681   4.163   3.737  0.1192 -0.0739  0.1241
 1622TIP3    H1 4872   2.636   4.158   3.653 -1.5770  0.9963  0.9145
 1622TIP3    H2 4873   2.724   4.249   3.736 -1.1718  0.6114  0.9112
 1623TIP3   OH2 4874   3.736   3.283   1.788  0.4995  0.2783 -0.0681
 1623TIP3    H1 4875   3.794   3.222   1.744 -1.8499 -1.9312 -0.3501
 1623TIP3    H2 4876   3.696   3.334   1.718  0.1781 -0.0166 -0.0999
 1624TIP3   OH2 4877   6.026   3.946   4.742  0.1246 -0.5074 -0.1223
 1624TIP3    H1 4878   6.060   3.945   4.832  2.0468 -1.9261 -0.8054
 1624TIP3    H2 4879   6.066   4.023   4.702 -0.7342  0.1266  0.2005
 1625TIP3   OH2 4880   4.025   0.530   0.910  0.2760 -0.2646 -1.1363
 1625TIP3    H1 4881   3.958   0.465   0.933  0.1916 -1.4697 -4.3751
 1625TIP3    H2 4882   4.001   0.608   0.960 -2.3890 -1.2650 -0.7059
 1626TIP3   OH2 4883   3.668   4.405   0.251 -0.3219 -0.1360 -0.1744
 1626TIP3    H1 4884   3.715   4.339   0.302 -1.5530 -1.1768 -0.3478
 1626TIP3    H2 4885   3.600   4.438   0.310 -0.2829  0.3318 -0.3833
 1627TIP3   OH2 4886   6.217   1.789   1.051 -0.1450  0.4349 -0.3985
 1627TIP3    H1 4887   6.195   1.718   0.991 -1.3630 -0.0319  0.5754
 1627TIP3    H2 4888   6.313   1.790   1.052 -0.1056 -0.4945 -1.2254
 1628TIP3   OH2 4889   5.610   0.114   2.155 -0.4656  0.3836 -0.0742
 1628TIP3    H1 4890   5.614   0.178   2.226 -1.5071  1.0146 -0.5587
 1628TIP3    H2 4891   5.662   0.153   2.085  0.0561  0.0383  0.1084
 1629TIP3   OH2 4892   1.883   0.317   4.081  0.3081  0.2003  0.2365
 1629TIP3    H1 4893   1.971   0.308   4.117  0.6112  0.1229 -0.4971
 1629TIP3    H2 4894   1.880   0.252   4.011 -0.5904 -0.3022  0.7264
 1630TIP3   OH2 4895   1.816   2.751   5.162  0.0999  0.1591  0.2882
 1630TIP3    H1 4896   1.797   2.803   5.240  0.3184  1.4563 -0.5047
 1630TIP3    H2 4897   1.744   2.689   5.157 -0.2540  0.4840  1.1680
 1631TIP3   OH2 4898   5.321   4.616   2.241  0.0250  0.1682  0.0019
 1631TIP3    H1 4899   5.318   4.659   2.326 -0.9740 -1.8448  1.0609
 1631TIP3    H2 4900   5.410   4.579   2.236  0.1322  0.4117  0.0909
 1632TIP3   OH2 4901   3.748   3.917   3.729  0.0198  0.3222  0.0330
 1632TIP3    H1 4902   3.733   3.824   3.746  1.7274  0.3787  2.2022
 1632TIP3    H2 4903   3.740   3.959   3.815 -3.1587  2.6389 -1.2035
 1633TIP3   OH2 4904   3.750   0.171   1.654 -0.2705 -0.3873  0.5571
 1633TIP3    H1 4905   3.804   0.184   1.732  0.3803 -0.8663  0.1954
 1633TIP3    H2 4906   3.714   0.258   1.635  1.0375  0.1328  0.3335
 1634TIP3   OH2 4907   0.361   1.781   3.389  0.4922  0.5535 -0.2112
 1634TIP3    H1 4908   0.360   1.855   3.328 -1.1112  0.5489 -0.2297
 1634TIP3    H2 4909   0.273   1.743   3.382 -0.1622  1.2216  2.9418
 1635TIP3   OH2 4910   3.440   2.573   0.369 -0.0726 -0.2369 -0.1599
 1635TIP3    H1 4911   3.418   2.635   0.439  2.6594  1.6961 -0.8206
 1635TIP3    H2 4912   3.436   2.626   0.289  1.3661 -1.1384 -0.8685
 1636TIP3   OH2 4913   3.159   3.703   4.166 -0.0840  0.1242 -0.3624
 1636TIP3    H1 4914   3.239   3.687   4.216 -0.2946 -0.1146 -0.0958
 1636TIP3    H2 4915   3.105   3.625   4.182 -1.5913  1.4843  1.8260
 1637TIP3   OH2 4916   3.611   4.050   1.887 -0.3148  0.2808 -0.2206
 1637TIP3    H1 4917   3.669   3.982   1.921 -0.0244 -0.9760 -2.9750
 1637TIP3    H2 4918   3.663   4.130   1.894  1.5010 -0.6735 -1.7796
 1638TIP3   OH2 4919   6.070   3.964   4.355  0.5419 -0.0606 -0.1457
 1638TIP3    H1 4920   6.007   3.892   4.345  1.5495 -0.7989 -1.6304
 1638TIP3    H2 4921   6.154   3.925   4.330  1.0399  1.7672 -1.4682
 1639TIP3   OH2 4922   5.208   4.903   2.895 -0.8197  0.6147 -0.1347
 1639TIP3    H1 4923   5.269   4.918   2.967  0.1563 -1.7874 -0.3637
 1639TIP3    H2 4924   5.144   4.974   2.902  1.7369  3.0416  0.3457
 1640TIP3   OH2 4925   2.517   2.713   3.418  0.3660 -0.2519 -0.5205
 1640TIP3    H1 4926   2.559   2.735   3.501  0.2034 -2.0641  0.1028
 1640TIP3    H2 4927   2.487   2.797   3.383  0.1037  0.5427  1.4349
 1641TIP3   OH2 4928   4.271   1.180   0.597  0.1780  0.4008 -0.4138
 1641TIP3    H1 4929   4.213   1.238   0.648 -2.3284 -1.6460 -0.7251
 1641TIP3    H2 4930   4.246   1.196   0.506 -1.8370 -2.2214 -0.4476
 1642TIP3   OH2 4931   3.601   1.005   0.742  0.5540 -0.1843 -0.1442
 1642TIP3    H1 4932   3.666   0.999   0.812 -1.1537 -0.6337  1.5064
 1642TIP3    H2 4933   3.578   0.915   0.722  1.0179 -0.0571 -1.3074
 1643TIP3   OH2 4934   3.110   2.814   0.770  0.4242 -0.3808  0.2792
 1643TIP3    H1 4935   3.090   2.860   0.851 -0.7174 -1.7826  0.8492
 1643TIP3    H2 4936   3.024   2.792   0.733  0.9285 -0.8516 -0.6646
 1644TIP3   OH2 4937   0.694   0.099   1.884  0.4284  0.4127 -0.1896
 1644TIP3    H1 4938   0.757   0.119   1.815  0.9257 -0.0426  0.1188
 1644TIP3    H2 4939   0.609   0.104   1.842  0.5828  2.0767 -0.3828
 1645TIP3   OH2 4940   4.768   1.675   1.752 -0.4863 -0.4115 -0.2609
 1645TIP3    H1 4941   4.807   1.617   1.817 -1.2620 -0.8141 -0.1342
 1645TIP3    H2 4942   4.813   1.758   1.763 -0.0328 -0.7188  0.2247
 1646TIP3   OH2 4943   4.419   1.692   3.683  0.0320 -0.4008  0.3121
 1646TIP3    H1 4944   4.399   1.715   3.774 -1.4140 -1.5860  0.3288
 1646TIP3    H2 4945   4.395   1.769   3.633  0.0913 -0.0245  0.8459
 1647TIP3   OH2 4946   2.511   0.689   5.196  0.4205  0.2922  0.6934
 1647TIP3    H1 4947   2.494   0.667   5.105  1.8769 -0.2419  0.5207
 1647TIP3    H2 4948   2.470   0.775   5.208 -1.3926 -0.4458  0.0851
 1648TIP3   OH2 4949   2.543   5.395   1.163 -0.1020  0.4066  0.0251
 1648TIP3    H1 4950   2.536   5.333   1.091  1.0824  1.5159 -1.1095
 1648TIP3    H2 4951   2.613   5.361   1.218  0.7465  0.8601 -0.7533
 1649TIP3   OH2 4952   1.795   4.182   1.407 -0.8013 -0.2885 -0.2155
 1649TIP3    H1 4953   1.716   4.169   1.355 -1.6347  0.9428  0.6783
 1649TIP3    H2 4954   1.842   4.252   1.363 -1.0089  0.0675  0.1238
 1650TIP3   OH2 4955   2.708   3.924   0.018 -0.1618  0.1239 -0.2712
 1650TIP3    H1 4956   2.624   3.877   0.016 -0.5834  0.8325  0.3961
 1650TIP3    H2 4957   2.770   3.862  -0.020 -0.6616 -1.0831  0.7831
 1651TIP3   OH2 4958   2.894   3.746   4.940 -0.9609 -0.0442  0.1374
 1651TIP3    H1 4959   2.949   3.824   4.928  0.3100 -1.1115 -1.2538
 1651TIP3    H2 4960   2.838   3.769   5.014  1.5317  1.0136  1.8380
 1652TIP3   OH2 4961   5.988   4.457   3.096  0.0083 -0.1510  0.1594
 1652TIP3    H1 4962   5.978   4.533   3.039  0.4205  0.2422  0.5959
 1652TIP3    H2 4963   5.921   4.469   3.163  0.5654  0.2430  0.6632
 1653TIP3   OH2 4964   3.749   0.514   2.134  0.1439 -0.0453  0.4376
 1653TIP3    H1 4965   3.804   0.439   2.156  1.3011  1.1292  1.8389
 1653TIP3    H2 4966   3.680   0.479   2.079  0.7313 -2.0968  0.9369
 1654TIP3   OH2 4967   1.120   5.458   3.053 -0.3099  0.2156  0.0157
 1654TIP3    H1 4968   1.203   5.496   3.027 -0.0546  0.2309  0.8311
 1654TIP3    H2 4969   1.069   5.454   2.972  0.4757  0.2099 -0.4851
 1655TIP3   OH2 4970   4.568   2.517   3.164  0.5022 -0.1338 -0.6863
 1655TIP3    H1 4971   4.580   2.568   3.083  1.4280  0.0541 -0.4460
 1655TIP3    H2 4972   4.632   2.446   3.156  1.7011  0.7405  0.5370
 1656TIP3   OH2 4973   5.041   2.619   0.182  0.3119  0.6858  0.0110
 1656TIP3    H1 4974   4.991   2.667   0.248 -0.5921 -0.3978  0.1450
 1656TIP3    H2 4975   4.982   2.615   0.106 -0.0496 -1.0496  0.3472
 1657TIP3   OH2 4976   5.090   2.705   2.224  0.0350 -0.0920 -0.4792
 1657TIP3    H1 4977   5.014   2.684   2.279 -1.2074  1.3132 -1.5846
 1657TIP3    H2 4978   5.054   2.712   2.135  0.9631  2.9558 -0.7223
 1658TIP3   OH2 4979   3.614   0.442   1.624  0.3640  0.0755 -0.0055
 1658TIP3    H1 4980   3.679   0.505   1.593 -0.9526  1.9806  0.9378
 1658TIP3    H2 4981   3.538   0.456   1.568  0.1414 -0.9159  0.0293
 1659TIP3   OH2 4982   0.063   4.497   3.976  0.2313  0.2349  0.4139
 1659TIP3    H1 4983  -0.017   4.548   3.966  0.4278  0.5342  0.3447
 1659TIP3    H2 4984   0.124   4.556   4.022  1.3171  1.0116 -1.8598
 1660TIP3   OH2 4985   1.193   4.429   0.752 -0.1496 -0.6795 -0.0389
 1660TIP3    H1 4986   1.144   4.461   0.676  0.0293  1.1672  0.5712
 1660TIP3    H2 4987   1.126   4.420   0.820 -0.1438 -1.3429 -0.1152
 1661TIP3   OH2 4988   1.194   5.624   3.853 -0.2840 -0.3081  0.2056
 1661TIP3    H1 4989   1.212   5.683   3.781 -1.0945 -0.9670 -0.5518
 1661TIP3    H2 4990   1.272   5.568   3.858 -0.6708 -0.9757 -0.8916
 1662TIP3   OH2 4991   0.600   2.218   0.526  0.6289  0.3613  0.1848
 1662TIP3    H1 4992   0.636   2.214   0.614  0.6147 -2.7998  0.1523
 1662TIP3    H2 4993   0.676   2.202   0.469 -0.1789 -4.5164  0.0520
 1663TIP3   OH2 4994   0.892   5.630   0.433  0.6780 -0.3224 -0.2144
 1663TIP3    H1 4995   0.954   5.680   0.485  2.1036 -0.7093 -1.4840
 1663TIP3    H2 4996   0.821   5.692   0.414  1.3172  0.5267  0.1335
 1664TIP3   OH2 4997   3.432   0.596   3.905  0.3173 -0.8339  0.1799
 1664TIP3    H1 4998   3.516   0.625   3.943  1.3564 -2.0643 -1.0756
 1664TIP3    H2 4999   3.402   0.526   3.963  0.0742 -0.2967  0.7115
 1665TIP3   OH2 5000   4.604   0.458   1.251  0.6667  0.0898  1.0868
 1665TIP3    H1 5001   4.521   0.414   1.229  1.5653 -1.5229  0.7219
 1665TIP3    H2 5002   4.627   0.423   1.337  2.0179 -1.1732  0.2560
 1666TIP3   OH2 5003   2.142   5.658   2.317  0.1976  0.7525  0.1236
 1666TIP3    H1 5004   2.147   5.717   2.393 -4.5593 -0.3449  1.6532
 1666TIP3    H2 5005   2.137   5.571   2.355 -2.1143  0.1550 -1.3920
 1667TIP3   OH2 5006   4.625   0.007   3.600 -0.6478 -0.5894 -0.4111
 1667TIP3    H1 5007   4.719   0.010   3.620 -0.8284  1.2656  0.2937
 1667TIP3    H2 5008   4.608   0.087   3.551 -1.9948 -0.5762  0.0549
 1668TIP3   OH2 5009   2.033   4.386   1.043 -0.4784  0.0028 -0.4831
 1668TIP3    H1 5010   2.077   4.449   0.987 -0.8910 -0.4817 -1.3824
 1668TIP3    H2 5011   2.098   4.363   1.110 -0.2049  1.0815 -0.3701
 1669TIP3   OH2 5012   0.417   3.743   3.933 -0.2310  0.6612  0.0569
 1669TIP3    H1 5013   0.355   3.796   3.984 -0.7978  2.2810 -2.1432
 1669TIP3    H2 5014   0.363   3.699   3.868  0.6253 -0.1166 -0.1440
 1670TIP3   OH2 5015   5.060   0.808   0.241 -0.3126 -1.0291 -0.0460
 1670TIP3    H1 5016   5.116   0.871   0.195 -2.4874  1.5072  0.5095
 1670TIP3    H2 5017   5.110   0.786   0.320  0.0835  0.9614  0.3288
 1671TIP3   OH2 5018   4.719   2.704   0.043 -0.3645 -0.2854 -0.2268
 1671TIP3    H1 5019   4.712   2.610   0.059  0.5846 -0.2035  0.8541
 1671TIP3    H2 5020   4.744   2.711  -0.049  0.5471 -1.1533 -0.0613
 1672TIP3   OH2 5021   1.147   0.132   3.621  0.3591 -0.3567  0.1657
 1672TIP3    H1 5022   1.232   0.099   3.590 -0.0034 -1.1043 -0.0422
 1672TIP3    H2 5023   1.090   0.055   3.623  0.1836 -0.2291  2.0944
 1673TIP3   OH2 5024   5.531   5.721   0.752 -0.0131 -0.2972  0.3652
 1673TIP3    H1 5025   5.546   5.733   0.846  0.3406 -0.0587  0.2800
 1673TIP3    H2 5026   5.558   5.631   0.734 -1.3205 -0.7907  0.7354
 1674TIP3   OH2 5027   3.591   5.066   1.913  0.0554 -0.3197  0.2473
 1674TIP3    H1 5028   3.515   5.113   1.947  0.8082  0.2893  1.1558
 1674TIP3    H2 5029   3.628   5.125   1.848 -0.5588 -0.8660 -0.6209
 1675TIP3   OH2 5030   1.092   0.364   4.330  0.2371 -0.2140 -0.0354
 1675TIP3    H1 5031   1.076   0.310   4.408 -0.2052 -0.0319  0.0017
 1675TIP3    H2 5032   1.007   0.368   4.286  0.3627  0.1224 -0.2495
 1676TIP3   OH2 5033   1.777   2.792   4.761  0.0823 -0.1002 -0.3473
 1676TIP3    H1 5034   1.750   2.782   4.670 -0.1929 -0.0725 -0.2702
 1676TIP3    H2 5035   1.695   2.801   4.810  0.0705 -2.4640  0.1998
 1677TIP3   OH2 5036   4.126   2.675   4.198  0.6145  0.2905 -0.1805
 1677TIP3    H1 5037   4.096   2.595   4.156  0.1415  0.1893  0.3469
 1677TIP3    H2 5038   4.095   2.669   4.288 -1.9141  2.3398 -0.7947
 1678TIP3   OH2 5039   5.854   5.462   2.650 -0.2192 -0.0183  0.3515
 1678TIP3    H1 5040   5.946   5.466   2.623 -0.2245  0.3270  0.3869
 1678TIP3    H2 5041   5.819   5.386   2.604  0.9046 -2.1838  2.8368
 1679TIP3   OH2 5042   0.948   1.184   0.693  0.4662 -0.1661  0.2205
 1679TIP3    H1 5043   0.884   1.214   0.628 -0.8489 -0.7287  1.2208
 1679TIP3    H2 5044   1.002   1.261   0.711 -0.7424  0.6818  0.2983
 1680TIP3   OH2 5045   2.916   2.349   0.715  0.2174 -0.1491 -0.5882
 1680TIP3    H1 5046   2.992   2.407   0.728  0.4866  0.1990 -3.2067
 1680TIP3    H2 5047   2.864   2.394   0.649 -1.4856 -1.1881  0.0010
 1681TIP3   OH2 5048   0.854   1.002   3.787  0.0388 -0.2437  0.0562
 1681TIP3    H1 5049   0.837   1.066   3.718 -0.1966  0.1552  0.4791
 1681TIP3    H2 5050   0.828   1.047   3.868 -0.7662 -1.1021  0.2970
 1682TIP3   OH2 5051   2.834   5.339   2.430 -0.0150 -0.1188  0.5450
 1682TIP3    H1 5052   2.898   5.303   2.492  0.0878 -2.0934 -0.6235
 1682TIP3    H2 5053   2.845   5.285   2.352 -0.6833  1.8010 -0.9286
 1683TIP3   OH2 5054   2.968   4.828   3.312  0.0967 -0.0657  0.1775
 1683TIP3    H1 5055   3.029   4.851   3.382  1.5768 -0.8102 -0.8072
 1683TIP3    H2 5056   2.949   4.735   3.325  2.1157 -0.8170 -1.5635
 1684TIP3   OH2 5057   4.880   3.803   3.208 -0.4439 -0.0293  0.2739
 1684TIP3    H1 5058   4.915   3.756   3.283 -1.2498 -0.3033  0.4931
 1684TIP3    H2 5059   4.886   3.741   3.135 -0.6672 -0.1520  0.3589
 1685TIP3   OH2 5060   3.815   0.049   4.284 -0.2007  0.7639 -0.2399
 1685TIP3    H1 5061   3.833   0.006   4.201 -0.0554  1.8121 -0.7766
 1685TIP3    H2 5062   3.724   0.078   4.277 -0.4166  0.2319  0.2664
 1686TIP3   OH2 5063   6.068   5.220   4.256 -0.3106  0.2023  0.4872
 1686TIP3    H1 5064   6.001   5.251   4.317 -1.0374 -1.0283  0.3609
 1686TIP3    H2 5065   6.020   5.204   4.174  0.5229  1.1659 -0.2142
 1687TIP3   OH2 5066   3.942   1.468   1.151 -0.3972  0.8214 -0.5230
 1687TIP3    H1 5067   3.988   1.425   1.079 -0.1697 -1.8113  1.0715
 1687TIP3    H2 5068   3.854   1.429   1.150 -0.6453  1.3257  0.1775
 1688TIP3   OH2 5069   1.245   4.066   3.613 -0.3819  0.1897  0.3169
 1688TIP3    H1 5070   1.204   3.986   3.579 -1.7689 -0.6163  3.5001
 1688TIP3    H2 5071   1.178   4.133   3.602 -0.6333  0.0460  0.9341
 1689TIP3   OH2 5072   1.205   2.499   2.413  0.4090 -0.0684 -0.0946
 1689TIP3    H1 5073   1.255   2.533   2.339  1.2270  0.0785  0.4968
 1689TIP3    H2 5074   1.231   2.556   2.486  0.3402 -0.7845  0.4964
 1690TIP3   OH2 5075   2.502   3.484   5.130 -0.0865  0.6689 -0.0137
 1690TIP3    H1 5076   2.584   3.453   5.092 -0.3706  0.5142 -0.4987
 1690TIP3    H2 5077   2.526   3.509   5.220  0.3603  0.0214  0.0585
 1691TIP3   OH2 5078   4.557   1.920   4.039 -0.2911  0.1064 -0.4480
 1691TIP3    H1 5079   4.477   1.937   4.090 -0.5484  0.1382 -0.8550
 1691TIP3    H2 5080   4.582   2.006   4.005 -0.8914 -0.1035 -1.4844
 1692TIP3   OH2 5081   4.816   3.179   1.860 -0.0433  0.3180 -0.1015
 1692TIP3    H1 5082   4.771   3.195   1.943  1.8611 -0.0799  1.0703
 1692TIP3    H2 5083   4.746   3.168   1.796 -1.6055 -0.5033  1.6658
 1693TIP3   OH2 5084   0.611   2.722   3.658 -0.1172  0.1698 -0.2830
 1693TIP3    H1 5085   0.550   2.722   3.584 -0.5923 -1.5904  0.0627
 1693TIP3    H2 5086   0.697   2.705   3.618 -0.3170 -0.4188 -0.4627
 1694TIP3   OH2 5087   2.785   2.128   0.073  0.0241  0.5240  0.5827
 1694TIP3    H1 5088   2.828   2.049   0.042  0.1776  0.8256  0.0090
 1694TIP3    H2 5089   2.821   2.143   0.160 -1.1285 -0.8752  1.3404
 1695TIP3   OH2 5090   2.977   3.589   3.435 -0.0892 -0.3107  0.5012
 1695TIP3    H1 5091   2.914   3.602   3.506 -0.1150  0.4216  0.3505
 1695TIP3    H2 5092   2.945   3.512   3.388 -0.9426  0.1198  0.3548
 1696TIP3   OH2 5093   3.082   1.822   4.963  0.3291 -0.4948 -0.0826
 1696TIP3    H1 5094   3.044   1.750   5.014  0.1127 -0.3544 -0.0414
 1696TIP3    H2 5095   3.062   1.900   5.015  0.7073 -0.4230 -0.0471
 1697TIP3   OH2 5096   2.623   0.914   2.209 -0.1516  0.2189 -0.3297
 1697TIP3    H1 5097   2.680   0.952   2.276 -1.0438  1.0443 -0.0037
 1697TIP3    H2 5098   2.675   0.846   2.167  0.6929  0.2469  0.6655
 1698TIP3   OH2 5099   3.912   5.360   2.637  0.2441  0.3764 -0.1804
 1698TIP3    H1 5100   3.853   5.322   2.702  1.3911 -1.0672  0.0687
 1698TIP3    H2 5101   3.864   5.354   2.555  0.0590 -0.9015 -0.0028
 1699TIP3   OH2 5102   1.362   4.894   1.703  0.2861  0.4833 -0.3905
 1699TIP3    H1 5103   1.400   4.941   1.629 -1.0757  0.2521 -1.2646
 1699TIP3    H2 5104   1.423   4.821   1.719  0.1643  0.0436 -1.8400
 1700TIP3   OH2 5105   4.570   1.072   2.422 -0.1144 -0.0237  0.7608
 1700TIP3    H1 5106   4.585   1.100   2.331 -1.4938  1.6198  0.9842
 1700TIP3    H2 5107   4.485   1.109   2.444  0.3229 -0.1649  2.8188
 1701TIP3   OH2 5108   1.543   2.989   4.357 -0.1419 -1.3651  0.2678
 1701TIP3    H1 5109   1.455   2.956   4.341 -0.0463 -0.6299 -2.0925
 1701TIP3    H2 5110   1.580   3.003   4.270  1.7380 -0.1479  1.1935
 1702TIP3   OH2 5111   0.396   1.998   2.798  1.0151 -0.6292  0.1208
 1702TIP3    H1 5112   0.359   1.931   2.740 -0.3002  1.1150 -1.1614
 1702TIP3    H2 5113   0.326   2.019   2.859  1.8279 -1.2309  1.3004
 1703TIP3   OH2 5114   3.128   3.407   5.075  0.2730  0.1761 -0.1095
 1703TIP3    H1 5115   3.083   3.358   5.143  0.2302  1.0041  0.4754
 1703TIP3    H2 5116   3.182   3.343   5.030 -0.5623 -0.5999 -0.0345
 1704TIP3   OH2 5117   3.800   4.628   2.848 -0.4137  0.5779  0.5654
 1704TIP3    H1 5118   3.737   4.635   2.920 -0.6250 -0.8377  0.5423
 1704TIP3    H2 5119   3.882   4.604   2.890 -1.1791 -3.3605  0.2126
 1705TIP3   OH2 5120   2.039   5.839   3.103 -0.2297  0.5798 -0.1064
 1705TIP3    H1 5121   2.112   5.880   3.056 -2.0267  2.2425 -1.5921
 1705TIP3    H2 5122   1.991   5.912   3.141 -0.6813 -0.5490  1.5925
 1706TIP3   OH2 5123   4.674   3.585   2.787  0.1348  0.0179  0.4060
 1706TIP3    H1 5124   4.630   3.627   2.861 -0.6774 -0.0724 -0.0132
 1706TIP3    H2 5125   4.730   3.518   2.827 -0.9707 -0.6400  0.8933
 1707TIP3   OH2 5126   3.848   3.550   1.593  0.7931  0.5140  0.0952
 1707TIP3    H1 5127   3.754   3.530   1.593 -0.1355  4.1987 -0.4646
 1707TIP3    H2 5128   3.864   3.589   1.679  1.0935  2.3965 -0.7561
 1708TIP3   OH2 5129   1.497   4.013   3.512  0.0525  0.0283 -0.2137
 1708TIP3    H1 5130   1.407   4.032   3.539 -0.1449  1.7690 -1.8712
 1708TIP3    H2 5131   1.491   3.994   3.419  1.5699  2.3816 -0.8920
 1709TIP3   OH2 5132   6.046   4.899   4.712  0.2864  0.0970 -0.2557
 1709TIP3    H1 5133   6.002   4.816   4.696 -0.6846  0.4592  0.4547
 1709TIP3    H2 5134   6.138   4.875   4.723  0.0690 -0.8393 -0.3750
 1710TIP3   OH2 5135   5.608   2.078   4.760  0.1966  1.2216 -0.0470
 1710TIP3    H1 5136   5.531   2.108   4.809 -0.1321  0.7333 -0.2633
 1710TIP3    H2 5137   5.677   2.140   4.785  0.6719 -0.2656  2.8459
 1711TIP3   OH2 5138   1.882   1.950   2.515 -0.1843 -0.7546  0.0100
 1711TIP3    H1 5139   1.815   1.889   2.547  0.3044  0.3904  3.7154
 1711TIP3    H2 5140   1.956   1.936   2.574  0.6814  1.9473 -0.3226
 1712TIP3   OH2 5141   4.055   5.141   2.523  0.4399  0.3992  0.4262
 1712TIP3    H1 5142   4.017   5.215   2.572 -1.1229  1.1366 -1.7504
 1712TIP3    H2 5143   4.125   5.180   2.471  1.0943 -0.1068  0.9031
 1713TIP3   OH2 5144   6.058   3.445   4.181 -0.1666 -0.3909  0.1076
 1713TIP3    H1 5145   6.065   3.364   4.232 -1.0103 -0.5514 -0.0194
 1713TIP3    H2 5146   6.116   3.506   4.226  0.8411 -1.1894 -0.0600
 1714TIP3   OH2 5147   5.192   0.829   4.904 -0.6936 -0.0662 -0.6553
 1714TIP3    H1 5148   5.246   0.784   4.970 -0.1612 -0.2499 -1.2013
 1714TIP3    H2 5149   5.191   0.769   4.829 -0.5262  0.5357 -1.1495
 1715TIP3   OH2 5150   5.611   2.394   4.459  0.1904 -0.3266  0.1059
 1715TIP3    H1 5151   5.681   2.372   4.397 -0.0876  0.2868 -0.4435
 1715TIP3    H2 5152   5.578   2.309   4.489  0.4176 -0.6360 -0.4951
 1716TIP3   OH2 5153   4.522   5.012   4.379 -0.7755  0.6025  0.1801
 1716TIP3    H1 5154   4.499   5.091   4.330  1.8938  0.6238 -1.2231
 1716TIP3    H2 5155   4.586   5.041   4.443 -0.9597 -0.1749  0.7352
 1717TIP3   OH2 5156   3.064   3.939   0.747  0.6153 -0.2869 -0.2554
 1717TIP3    H1 5157   3.067   3.844   0.750  0.9353 -0.2912 -0.6531
 1717TIP3    H2 5158   3.087   3.961   0.657  1.2881  0.1926  0.0278
 1718TIP3   OH2 5159   0.616   5.790   2.055  0.0910  0.1847 -0.0906
 1718TIP3    H1 5160   0.586   5.733   1.984 -0.5502 -0.5927  0.7710
 1718TIP3    H2 5161   0.704   5.758   2.076  0.6179  0.9580 -1.0761
 1719TIP3   OH2 5162   5.187   2.178   3.358  0.8900 -0.4652 -0.0603
 1719TIP3    H1 5163   5.243   2.167   3.281  0.1677  2.0173 -1.0615
 1719TIP3    H2 5164   5.170   2.273   3.361  1.1037 -0.4285  3.3483
 1720TIP3   OH2 5165   5.390   1.864   1.879  0.2799 -0.3205  0.1474
 1720TIP3    H1 5166   5.389   1.958   1.899  0.5302 -0.7458  2.4380
 1720TIP3    H2 5167   5.464   1.830   1.928 -0.2276 -1.8403 -0.0946
 1721TIP3   OH2 5168   1.646   1.326   1.579 -0.2269  0.4334  0.3637
 1721TIP3    H1 5169   1.703   1.381   1.634 -0.1845  0.5045  0.2483
 1721TIP3    H2 5170   1.695   1.244   1.571 -0.1549  0.4827  0.2917
 1722TIP3   OH2 5171   0.165   4.284   3.186 -0.6333 -0.0750 -0.0776
 1722TIP3    H1 5172   0.115   4.214   3.228 -1.4812  1.4386  1.5754
 1722TIP3    H2 5173   0.203   4.333   3.259  0.5515  0.7611 -1.2144
 1723TIP3   OH2 5174   2.537   4.892   2.871  0.4631 -0.1342 -0.3579
 1723TIP3    H1 5175   2.606   4.826   2.870 -1.5048 -2.3387 -0.5417
 1723TIP3    H2 5176   2.517   4.905   2.963  1.1642  0.5818 -0.3001
 1724TIP3   OH2 5177   6.054   4.715   3.338 -0.3402  0.0206  0.2330
 1724TIP3    H1 5178   6.001   4.782   3.295  0.6753  0.7399  0.0594
 1724TIP3    H2 5179   6.106   4.763   3.403 -0.9991 -0.8896  1.4592
 1725TIP3   OH2 5180   5.331   5.026   3.354  0.2300 -0.1245  0.1434
 1725TIP3    H1 5181   5.405   5.086   3.361  1.6872 -1.5001 -2.0790
 1725TIP3    H2 5182   5.329   4.980   3.437  2.9254 -1.1244 -0.2406
 1726TIP3   OH2 5183   4.964   0.961   3.135  0.0060  0.6577  0.2332
 1726TIP3    H1 5184   4.964   0.895   3.205  1.6767  0.8867  0.5028
 1726TIP3    H2 5185   4.919   1.037   3.173  1.7963  1.1499  1.4816
 1727TIP3   OH2 5186   3.969   3.774   3.508 -0.0638  0.5793 -0.0237
 1727TIP3    H1 5187   3.904   3.779   3.579  0.2368 -0.2776  0.3285
 1727TIP3    H2 5188   4.005   3.685   3.515  0.6699  0.8195 -0.6374
 1728TIP3   OH2 5189   5.601   3.083   1.333 -0.6562  0.2826  0.5955
 1728TIP3    H1 5190   5.594   2.992   1.360 -2.5838  0.2149  0.0026
 1728TIP3    H2 5191   5.558   3.087   1.248 -1.0866  1.8294  0.8487
 1729TIP3   OH2 5192   3.762   2.684   0.082 -0.4014  0.3708 -0.0208
 1729TIP3    H1 5193   3.837   2.639   0.122  2.0361  2.8008 -1.5526
 1729TIP3    H2 5194   3.719   2.728   0.155 -0.2846 -0.9335  0.8679
 1730TIP3   OH2 5195   5.804   0.604   3.737  0.0532  0.8777  0.2050
 1730TIP3    H1 5196   5.712   0.630   3.728 -0.4132 -0.7031  0.0968
 1730TIP3    H2 5197   5.818   0.600   3.832 -0.2727  0.1964  0.2262
 1731TIP3   OH2 5198   5.999   3.159   0.576  0.1934 -0.0925  0.0407
 1731TIP3    H1 5199   5.977   3.172   0.668 -0.7510  1.4059 -0.3605
 1731TIP3    H2 5200   5.918   3.130   0.536  0.5107 -0.3981 -0.3799
 1732TIP3   OH2 5201   5.167   1.726   1.924 -0.0335  0.0140  0.5936
 1732TIP3    H1 5202   5.179   1.658   1.990  0.5121 -0.3280  0.1495
 1732TIP3    H2 5203   5.255   1.759   1.907 -0.2417  0.5291  0.4815
 1733TIP3   OH2 5204   3.468   2.223   0.315  0.6987  0.0574 -0.2442
 1733TIP3    H1 5205   3.546   2.273   0.292  0.5104  0.3746 -0.1916
 1733TIP3    H2 5206   3.434   2.265   0.394  0.4499 -0.0521 -0.2903
 1734TIP3   OH2 5207   5.049   4.196   4.054  0.3883 -0.0147 -0.7826
 1734TIP3    H1 5208   5.050   4.189   4.150 -2.3089  1.2280 -0.5666
 1734TIP3    H2 5209   5.015   4.112   4.025  0.0728  0.0316 -0.5579
 1735TIP3   OH2 5210   4.581   0.296   3.605 -0.3534 -0.4628  0.5718
 1735TIP3    H1 5211   4.513   0.339   3.657  0.4446  0.5618  0.7995
 1735TIP3    H2 5212   4.552   0.309   3.514  0.0822  0.9773  0.6108
 1736TIP3   OH2 5213   4.318   3.289   2.252 -0.8369 -0.5801 -0.1232
 1736TIP3    H1 5214   4.231   3.297   2.291 -0.7189  0.6046 -0.0510
 1736TIP3    H2 5215   4.358   3.375   2.267  0.1557 -0.9476 -0.6049
 1737TIP3   OH2 5216   1.187   2.444   2.040  0.3836  0.2609 -0.1706
 1737TIP3    H1 5217   1.199   2.467   1.948  2.4302 -0.2462 -0.0828
 1737TIP3    H2 5218   1.254   2.495   2.086 -1.3079  1.3622  1.2292
 1738TIP3   OH2 5219   6.171   2.256   0.672 -0.5750 -0.0146  0.1046
 1738TIP3    H1 5220   6.204   2.171   0.702 -2.6305 -0.7333  0.4691
 1738TIP3    H2 5221   6.221   2.274   0.593  1.6964 -0.3133  1.3961
 1739TIP3   OH2 5222   0.463   1.464   5.025  0.1195 -0.2016  0.0740
 1739TIP3    H1 5223   0.506   1.520   5.089  0.8627  0.2041 -0.7509
 1739TIP3    H2 5224   0.523   1.390   5.014  0.4930  0.2157 -0.8569
 1740TIP3   OH2 5225   2.950   5.038   3.698  0.4439 -0.2022  0.3424
 1740TIP3    H1 5226   2.946   5.096   3.622  0.8887 -0.5881  0.0225
 1740TIP3    H2 5227   3.042   5.011   3.703  0.0216 -1.8575 -0.2598
 1741TIP3   OH2 5228   5.903   3.573   0.170  0.2947  0.7251 -0.3568
 1741TIP3    H1 5229   5.959   3.587   0.247  0.9442  1.1288 -0.8917
 1741TIP3    H2 5230   5.814   3.569   0.206  0.6776 -0.2616  0.5475
 1742TIP3   OH2 5231   4.906   1.510   3.102  0.0411 -0.4238 -0.2895
 1742TIP3    H1 5232   4.956   1.556   3.170 -0.9008 -1.0593  0.8674
 1742TIP3    H2 5233   4.907   1.419   3.130 -0.3587 -0.6988 -1.1498
 1743TIP3   OH2 5234   3.112   2.737   1.379  0.0223 -0.0644 -0.3712
 1743TIP3    H1 5235   3.081   2.664   1.433 -0.7167 -0.3036 -1.0982
 1743TIP3    H2 5236   3.053   2.738   1.304  0.8796  0.4213 -1.0553
 1744TIP3   OH2 5237   0.298   1.516   0.570 -0.1792  0.1320 -0.0201
 1744TIP3    H1 5238   0.310   1.535   0.477 -1.5682 -2.4323 -0.8238
 1744TIP3    H2 5239   0.208   1.544   0.588 -0.2661 -0.3184  0.2571
 1745TIP3   OH2 5240   4.224   0.409   4.769 -0.2479 -0.8688 -0.0888
 1745TIP3    H1 5241   4.166   0.340   4.738  1.8430 -1.9085 -1.9590
 1745TIP3    H2 5242   4.294   0.413   4.704  0.3151  2.2782  0.5306
 1746TIP3   OH2 5243   0.759   1.807   2.050 -0.1358  0.0807 -0.4186
 1746TIP3    H1 5244   0.665   1.806   2.066 -0.2138  0.5267 -0.8263
 1746TIP3    H2 5245   0.768   1.800   1.955  0.2702 -0.7347 -0.3306
 1747TIP3   OH2 5246   1.175   1.830   1.975  0.4189 -0.8551  0.8098
 1747TIP3    H1 5247   1.164   1.738   1.953  0.2722 -0.8296  0.7784
 1747TIP3    H2 5248   1.111   1.876   1.921  1.6687 -0.5585 -0.4758
 1748TIP3   OH2 5249   3.382   1.088   0.120 -0.5447  0.2577  0.5385
 1748TIP3    H1 5250   3.378   1.179   0.091  0.5534 -0.0890 -0.7792
 1748TIP3    H2 5251   3.475   1.071   0.135 -0.7737 -0.5422  1.1513
 1749TIP3   OH2 5252   2.559   5.739   4.134 -0.1718 -0.1730 -0.1084
 1749TIP3    H1 5253   2.562   5.747   4.229 -0.9803 -1.2607  0.0263
 1749TIP3    H2 5254   2.484   5.791   4.107 -0.2896 -0.3285 -0.0850
 1750TIP3   OH2 5255   4.560   4.028   3.883 -0.3283  0.3682 -0.3532
 1750TIP3    H1 5256   4.465   4.014   3.880 -0.3065  0.3831 -1.3575
 1750TIP3    H2 5257   4.597   3.945   3.854 -0.0648  0.6981 -0.9766
 1751TIP3   OH2 5258   2.856   4.340   5.198 -0.1825 -0.7022  0.0427
 1751TIP3    H1 5259   2.840   4.262   5.144  0.0133 -1.2152  0.7133
 1751TIP3    H2 5260   2.790   4.403   5.169  0.8531 -0.3926 -1.8660
 1752TIP3   OH2 5261   2.219   2.799   0.336  0.6771  0.4407 -0.0336
 1752TIP3    H1 5262   2.202   2.766   0.425  1.1694 -0.1563 -0.1549
 1752TIP3    H2 5263   2.172   2.739   0.279  0.9413  0.4075 -0.2160
 1753TIP3   OH2 5264   2.615   5.477   4.297 -0.2923  0.1985 -0.1937
 1753TIP3    H1 5265   2.527   5.441   4.304 -1.4157  2.5209 -1.2900
 1753TIP3    H2 5266   2.609   5.564   4.337  2.0240 -0.3112  1.4511
 1754TIP3   OH2 5267   5.601   2.861   0.111 -0.0505  0.1638 -0.1986
 1754TIP3    H1 5268   5.613   2.776   0.070  0.2316  0.9218 -1.7401
 1754TIP3    H2 5269   5.512   2.887   0.086  0.5565  1.1705 -1.4007
 1755TIP3   OH2 5270   4.859   5.613   0.569 -0.3451 -0.3511  0.0745
 1755TIP3    H1 5271   4.786   5.573   0.522  1.1662 -1.1019 -1.8105
 1755TIP3    H2 5272   4.846   5.707   0.558 -1.7109 -0.4129  0.9416
 1756TIP3   OH2 5273   1.411   4.566   1.482 -0.0431  0.0733 -0.3849
 1756TIP3    H1 5274   1.486   4.523   1.440  0.1392  0.1648 -0.1531
 1756TIP3    H2 5275   1.401   4.649   1.434  1.2058  0.9525  0.8019
 1757TIP3   OH2 5276   2.092   0.186   4.671 -0.2028 -0.0087 -0.3241
 1757TIP3    H1 5277   2.020   0.212   4.727 -0.1381  0.1908 -0.3322
 1757TIP3    H2 5278   2.060   0.200   4.582 -1.1189 -2.3793 -0.4552
 1758TIP3   OH2 5279   6.075   0.301   2.392 -0.0727 -0.0070  0.1005
 1758TIP3    H1 5280   6.125   0.378   2.419 -0.5472 -0.2451  1.8047
 1758TIP3    H2 5281   6.107   0.281   2.304  1.3571  1.0452  0.3368
 1759TIP3   OH2 5282   4.332   2.726   0.032  0.0414 -0.3917 -0.0682
 1759TIP3    H1 5283   4.353   2.702   0.122  1.6751 -0.5770 -0.4684
 1759TIP3    H2 5284   4.355   2.648  -0.019  1.4203  0.5304 -0.9008
 1760TIP3   OH2 5285   0.331   2.364   2.408 -0.1868  0.2947  0.0742
 1760TIP3    H1 5286   0.366   2.376   2.496 -0.9447 -0.4674  0.4902
 1760TIP3    H2 5287   0.342   2.450   2.367  0.3645  0.6027  0.8352
 1761TIP3   OH2 5288   2.946   0.316   3.741  0.1141 -0.2300 -0.2429
 1761TIP3    H1 5289   2.905   0.402   3.727 -0.2330 -0.1615  1.0251
 1761TIP3    H2 5290   2.996   0.327   3.821  1.2611 -0.8152 -0.8654
 1762TIP3   OH2 5291   0.784   0.009   4.348  0.5099 -0.2364 -0.6457
 1762TIP3    H1 5292   0.869  -0.030   4.368  2.0860  1.5015 -3.3433
 1762TIP3    H2 5293   0.756   0.049   4.431  1.9432 -1.4627  0.4852
 1763TIP3   OH2 5294   4.956   5.168   4.948 -0.3290  0.0798 -0.1157
 1763TIP3    H1 5295   4.963   5.256   4.986  0.1000 -0.0125  0.0245
 1763TIP3    H2 5296   4.871   5.136   4.978 -0.2537  0.2383  0.2792
 1764TIP3   OH2 5297   5.012   4.441   3.106 -0.2620  0.0137 -0.4383
 1764TIP3    H1 5298   4.965   4.521   3.079 -1.6252 -0.5175  0.2611
 1764TIP3    H2 5299   5.041   4.460   3.195 -1.4212 -0.5768  0.0956
 1765TIP3   OH2 5300   4.730   1.843   1.959 -0.1677 -0.3175  0.1013
 1765TIP3    H1 5301   4.753   1.755   1.990 -2.6434 -0.9186  0.4387
 1765TIP3    H2 5302   4.744   1.899   2.035 -1.8545 -1.0412  1.0020
 1766TIP3   OH2 5303   1.360   4.371   3.972 -0.2313  0.3212  0.4603
 1766TIP3    H1 5304   1.443   4.419   3.970 -0.8535  1.4304 -1.5459
 1766TIP3    H2 5305   1.383   4.284   4.004  1.0689  1.6226  3.4413
 1767TIP3   OH2 5306   5.041   2.248   5.176 -0.2996  0.3375 -0.2323
 1767TIP3    H1 5307   5.047   2.162   5.218 -1.7390 -0.6425 -1.8986
 1767TIP3    H2 5308   5.132   2.272   5.157  0.2506  0.0572  1.8747
 1768TIP3   OH2 5309   3.398   1.913   4.344  0.3127  0.1041  0.1868
 1768TIP3    H1 5310   3.444   1.995   4.325 -0.4603  0.6946  0.7740
 1768TIP3    H2 5311   3.321   1.915   4.286  0.0667  0.0028  0.5051
 1769TIP3   OH2 5312   2.687   4.672   0.383 -0.0460  0.4795 -0.5238
 1769TIP3    H1 5313   2.664   4.611   0.453 -1.4137  0.5545 -0.8777
 1769TIP3    H2 5314   2.783   4.672   0.381 -0.0095 -0.4213  0.5502
 1770TIP3   OH2 5315   1.709   1.871   3.482 -0.4119 -0.1204  0.5380
 1770TIP3    H1 5316   1.628   1.896   3.526 -0.1194  0.5672  0.7008
 1770TIP3    H2 5317   1.775   1.928   3.520  0.3816 -1.4853  1.2979
 1771TIP3   OH2 5318   3.021   3.840   3.328  0.1068  0.2036 -0.3317
 1771TIP3    H1 5319   3.038   3.756   3.371  2.5372  1.2647  0.9445
 1771TIP3    H2 5320   2.952   3.880   3.381  0.1372 -0.2675  0.0784
 1772TIP3   OH2 5321   4.877   3.788   1.609  0.2254  0.0367  0.1749
 1772TIP3    H1 5322   4.863   3.875   1.648 -0.4169  0.7206 -1.4979
 1772TIP3    H2 5323   4.923   3.739   1.678 -1.1576  1.0453  1.9206
 1773TIP3   OH2 5324   4.063   1.870   3.534  0.5307  0.3059  0.3032
 1773TIP3    H1 5325   4.074   1.786   3.579 -0.5676  0.4047  0.7910
 1773TIP3    H2 5326   4.063   1.848   3.441  0.1670 -0.2483  0.4308
 1774TIP3   OH2 5327   4.373   1.552   2.276  0.3324  0.2768  0.1965
 1774TIP3    H1 5328   4.456   1.599   2.269 -0.4180  1.5546 -0.3783
 1774TIP3    H2 5329   4.362   1.510   2.191  0.2457  0.3358  0.1791
 1775TIP3   OH2 5330   3.206   4.999   3.557 -0.7232  0.3037  0.3198
 1775TIP3    H1 5331   3.187   5.092   3.546 -1.3117  0.3372  1.4939
 1775TIP3    H2 5332   3.301   4.993   3.554 -0.7191  0.6263 -2.0050
 1776TIP3   OH2 5333   2.207   3.574   4.240 -0.1244  0.3462  0.5183
 1776TIP3    H1 5334   2.164   3.606   4.161 -1.5999 -2.2817  0.1264
 1776TIP3    H2 5335   2.136   3.569   4.305  0.6025  0.4139  1.3276
 1777TIP3   OH2 5336   1.836   5.336   0.419  0.0631 -0.1460  0.6624
 1777TIP3    H1 5337   1.923   5.335   0.459 -0.3495 -0.1592  1.5791
 1777TIP3    H2 5338   1.847   5.389   0.340  0.3621  1.9717  2.0487
 1778TIP3   OH2 5339   5.637   5.350   4.027  0.4004 -0.0426 -0.0499
 1778TIP3    H1 5340   5.659   5.424   3.970 -2.1843  1.2563  0.4895
 1778TIP3    H2 5341   5.616   5.390   4.111 -0.8944 -1.4018  0.3082
 1779TIP3   OH2 5342   2.960   1.031   2.576 -0.1883 -0.6614 -0.2547
 1779TIP3    H1 5343   2.930   0.975   2.647  0.1771 -0.8556 -0.2553
 1779TIP3    H2 5344   3.053   1.012   2.567 -0.3086 -0.9324 -1.0424
 1780TIP3   OH2 5345   6.256   3.778   0.123 -0.3537 -0.1271  0.0694
 1780TIP3    H1 5346   6.284   3.687   0.124 -1.1260 -0.3705  0.1101
 1780TIP3    H2 5347   6.316   3.823   0.183 -0.1284 -0.6496  0.2360
 1781TIP3   OH2 5348   3.948   1.996   2.059 -0.0668  0.2575 -0.5369
 1781TIP3    H1 5349   3.854   2.013   2.062  0.1219  1.3483 -0.2833
 1781TIP3    H2 5350   3.981   2.054   1.991  0.7490  1.7883  1.0705
 1782TIP3   OH2 5351   0.231   5.093   1.786  0.0051  0.0784  0.2190
 1782TIP3    H1 5352   0.321   5.084   1.756  0.1226  0.0653  0.5656
 1782TIP3    H2 5353   0.204   5.180   1.759 -0.3513 -0.4219 -1.1216
 1783TIP3   OH2 5354   0.336   4.110   0.909  0.1957  0.0687 -0.2206
 1783TIP3    H1 5355   0.403   4.164   0.866  0.3738 -0.4232 -0.5732
 1783TIP3    H2 5356   0.297   4.168   0.975  1.3012  0.2132  0.3299
 1784TIP3   OH2 5357   0.342   5.441   1.013 -0.1377  0.0220 -0.6445
 1784TIP3    H1 5358   0.325   5.494   0.934 -2.5451 -1.0410 -0.9413
 1784TIP3    H2 5359   0.294   5.487   1.082  0.5390  0.0222 -0.1769
 1785TIP3   OH2 5360   6.328   0.040   4.719  0.2226 -0.3426  0.1502
 1785TIP3    H1 5361   6.275  -0.034   4.689  1.0764 -0.2028 -1.8724
 1785TIP3    H2 5362   6.418   0.014   4.700  0.7458  0.2252  1.7154
 1786TIP3   OH2 5363   3.218   1.726   1.546  0.0985  0.3904  0.6928
 1786TIP3    H1 5364   3.147   1.724   1.609 -0.6369  0.4547 -0.1123
 1786TIP3    H2 5365   3.261   1.641   1.556 -0.0979  0.3482  1.1764
 1787TIP3   OH2 5366   4.837   0.219   2.046  0.0258  0.2657 -0.0295
 1787TIP3    H1 5367   4.932   0.207   2.047  0.1100  0.8056  1.9844
 1787TIP3    H2 5368   4.802   0.133   2.069  0.1606  0.6204  1.6534
 1788TIP3   OH2 5369   5.395   0.435   1.860 -0.3246 -0.7471  0.1389
 1788TIP3    H1 5370   5.396   0.365   1.925 -0.6517 -2.0904 -1.2310
 1788TIP3    H2 5371   5.381   0.390   1.777  1.4005  0.7546 -1.0558
 1789TIP3   OH2 5372   3.260   4.634   2.616  0.4190 -0.3665  0.4187
 1789TIP3    H1 5373   3.206   4.561   2.646  0.0042 -0.1614  0.1936
 1789TIP3    H2 5374   3.321   4.651   2.687  0.0684 -0.4958  0.7502
 1790TIP3   OH2 5375   2.730   0.149   3.814  0.0434 -0.4234  0.2652
 1790TIP3    H1 5376   2.653   0.201   3.835  0.6163 -0.3965  2.6048
 1790TIP3    H2 5377   2.798   0.214   3.792 -0.1084 -0.3567 -0.0082
 1791TIP3   OH2 5378   4.664   4.092   4.144 -0.8142  0.1034  0.3687
 1791TIP3    H1 5379   4.627   4.084   4.056 -2.6168 -0.2409  1.1211
 1791TIP3    H2 5380   4.658   4.186   4.165 -0.3296  0.1940  0.1169
 1792TIP3   OH2 5381   0.333   3.483   4.813  0.5889  0.0075  0.1763
 1792TIP3    H1 5382   0.272   3.538   4.764 -0.4717 -0.8011  0.5511
 1792TIP3    H2 5383   0.304   3.394   4.795  0.5690 -0.3370  1.7688
 1793TIP3   OH2 5384   1.112   4.548   1.480  0.6632  0.0690 -0.1034
 1793TIP3    H1 5385   1.108   4.533   1.575 -0.6625 -2.0639 -0.4449
 1793TIP3    H2 5386   1.201   4.577   1.465  1.3901 -1.0725  1.6216
 1794TIP3   OH2 5387   4.820   4.802   1.487  0.4727  0.3152 -0.1333
 1794TIP3    H1 5388   4.891   4.756   1.533  0.1638 -0.1770 -0.1499
 1794TIP3    H2 5389   4.797   4.874   1.545  0.9263  0.4266 -0.0856
 1795TIP3   OH2 5390   0.804   1.305   2.750 -0.2556  0.0724 -0.2506
 1795TIP3    H1 5391   0.711   1.292   2.728 -0.2676  0.3536 -0.3645
 1795TIP3    H2 5392   0.849   1.233   2.706 -0.6132 -1.1428  1.2815
 1796TIP3   OH2 5393   2.877   1.077   1.878 -0.1867  0.2572  0.4926
 1796TIP3    H1 5394   2.919   1.046   1.958  0.1249 -1.9751 -0.4527
 1796TIP3    H2 5395   2.891   1.006   1.815 -0.6998  1.7974 -1.4563
 1797TIP3   OH2 5396   5.849   3.290   1.157 -0.3483  0.0779 -0.0020
 1797TIP3    H1 5397   5.759   3.269   1.130  0.2613 -0.8674 -1.4202
 1797TIP3    H2 5398   5.899   3.212   1.133  1.2463  1.4499 -1.3072
 1798TIP3   OH2 5399   3.856   1.173   4.901 -0.2285 -0.0771  0.2359
 1798TIP3    H1 5400   3.805   1.097   4.874 -1.0456  0.6743 -0.3868
 1798TIP3    H2 5401   3.946   1.151   4.877 -0.5816 -0.4919 -0.7522
 1799TIP3   OH2 5402   6.130   2.152   2.954 -0.0925 -0.1342 -0.5423
 1799TIP3    H1 5403   6.158   2.139   2.863 -1.3722  0.4014 -1.0404
 1799TIP3    H2 5404   6.066   2.083   2.970 -2.1787  1.5706 -1.1128
 1800TIP3   OH2 5405   5.752   1.395   1.553 -0.0588  0.4595 -0.1478
 1800TIP3    H1 5406   5.752   1.486   1.583 -1.6749  1.0213 -1.6756
 1800TIP3    H2 5407   5.676   1.355   1.596  0.5645 -0.1629  0.4137
 1801TIP3   OH2 5408   1.655   2.278   0.619  0.1270 -0.0621 -0.4376
 1801TIP3    H1 5409   1.699   2.362   0.634 -0.6314  0.4602 -1.0195
 1801TIP3    H2 5410   1.595   2.296   0.546 -1.0851 -0.7245  0.3620
 1802TIP3   OH2 5411   3.351   1.569   4.689 -0.1502 -0.5705 -0.5110
 1802TIP3    H1 5412   3.392   1.631   4.748 -2.0451 -1.1088  1.5185
 1802TIP3    H2 5413   3.421   1.508   4.665  0.6501 -0.4753  1.4009
 1803TIP3   OH2 5414   5.622   3.804   1.588  0.1547 -0.0455 -0.1223
 1803TIP3    H1 5415   5.587   3.886   1.623  0.7360  0.1560 -0.0189
 1803TIP3    H2 5416   5.645   3.752   1.665 -0.0464 -0.2399 -0.1903
 1804TIP3   OH2 5417   6.033   3.212   0.263  0.2928  0.6496 -0.3994
 1804TIP3    H1 5418   5.944   3.215   0.226  0.2851  1.2878 -0.3437
 1804TIP3    H2 5419   6.058   3.120   0.256 -0.6480  0.3249  0.2400
 1805TIP3   OH2 5420   2.622   4.903   0.629  0.4231 -0.5923  0.1486
 1805TIP3    H1 5421   2.559   4.889   0.699  1.4370  0.1509  1.2573
 1805TIP3    H2 5422   2.606   4.832   0.568 -1.0076 -0.8154  0.7410
 1806TIP3   OH2 5423   5.433   3.256   4.199 -0.0725 -0.4265 -0.2932
 1806TIP3    H1 5424   5.378   3.331   4.225  0.3996 -0.2367  0.1868
 1806TIP3    H2 5425   5.387   3.180   4.235 -0.9963 -0.4700 -1.4984
 1807TIP3   OH2 5426   3.579   1.262   0.224 -1.0742 -0.2971 -0.1986
 1807TIP3    H1 5427   3.552   1.353   0.241 -1.0931 -0.4867  0.8980
 1807TIP3    H2 5428   3.583   1.255   0.129 -2.9557  0.3019 -0.3648
 1808TIP3   OH2 5429   5.724   3.633   0.575 -0.3129 -0.0651  0.3560
 1808TIP3    H1 5430   5.706   3.607   0.665 -0.0127  0.4914  0.5838
 1808TIP3    H2 5431   5.652   3.690   0.551  0.3666  0.9935  0.7688
 1809TIP3   OH2 5432   2.248   3.021   2.014  0.2646  0.1855  0.8759
 1809TIP3    H1 5433   2.156   3.046   2.006  0.7949  2.2094  0.4758
 1809TIP3    H2 5434   2.253   2.936   1.970 -1.4077  0.0070  0.9534
 1810TIP3   OH2 5435   0.867   1.523   4.074  0.0093 -0.3519  0.6127
 1810TIP3    H1 5436   0.831   1.574   4.002 -0.0952 -0.9288  0.2434
 1810TIP3    H2 5437   0.836   1.567   4.153 -1.3676 -0.7189  0.3050
 1811TIP3   OH2 5438   4.425   3.919   2.141  0.0651  0.1256 -0.1006
 1811TIP3    H1 5439   4.462   3.889   2.058 -1.0794 -0.5745 -0.3692
 1811TIP3    H2 5440   4.339   3.954   2.119  1.6639  4.8497 -0.0248
 1812TIP3   OH2 5441   5.854   1.472   1.903 -0.0338  0.1598 -0.0293
 1812TIP3    H1 5442   5.805   1.546   1.941 -1.1976  0.6734 -2.3225
 1812TIP3    H2 5443   5.917   1.513   1.844  0.2406 -0.6410 -0.3011
 1813TIP3   OH2 5444   0.453   5.525   0.631  0.0003  0.0513  0.0022
 1813TIP3    H1 5445   0.455   5.443   0.681  1.6284 -0.0117 -0.1282
 1813TIP3    H2 5446   0.372   5.519   0.579  0.7146 -2.0844 -0.9895
 1814TIP3   OH2 5447   2.677   1.291   3.144  0.6192  0.0409  0.0593
 1814TIP3    H1 5448   2.675   1.270   3.238 -0.9722  1.9500  0.5432
 1814TIP3    H2 5449   2.735   1.367   3.139 -0.9788  1.3217 -0.0858
 1815TIP3   OH2 5450   1.539   5.283   1.256  0.0513 -0.0550  0.1276
 1815TIP3    H1 5451   1.596   5.296   1.332 -1.4851  0.7876  1.2043
 1815TIP3    H2 5452   1.594   5.241   1.191  1.3065 -1.2370  1.8796
 1816TIP3   OH2 5453   5.530   1.945   0.994  0.5238 -0.6860 -0.5681
 1816TIP3    H1 5454   5.564   2.012   0.935 -1.2285  0.2478 -0.5770
 1816TIP3    H2 5455   5.465   1.897   0.943 -0.1051 -0.6868  0.2006
 1817TIP3   OH2 5456   0.791   5.949   5.150  0.4563  0.3573  0.4466
 1817TIP3    H1 5457   0.757   5.933   5.238  1.0807  0.7260  0.7521
 1817TIP3    H2 5458   0.762   5.872   5.099 -1.9451  1.2406  0.3673
 1818TIP3   OH2 5459   3.697   4.041   4.531  0.0009  0.3472  0.5448
 1818TIP3    H1 5460   3.684   4.049   4.626  0.2386 -0.1991  0.6287
 1818TIP3    H2 5461   3.778   4.089   4.513 -0.1828  0.6728  0.5753
 1819TIP3   OH2 5462   1.343   1.173   0.205  0.4162  0.5515 -0.7012
 1819TIP3    H1 5463   1.436   1.183   0.225  0.0508 -1.6299  2.9447
 1819TIP3    H2 5464   1.298   1.229   0.268 -0.7430 -2.1856  1.1086
 1820TIP3   OH2 5465   6.215   5.681   2.138 -0.8529  0.0033 -0.4540
 1820TIP3    H1 5466   6.261   5.751   2.093 -0.0385 -1.0314 -1.2809
 1820TIP3    H2 5467   6.195   5.617   2.070 -2.0853 -0.3269  0.1781
 1821TIP3   OH2 5468   5.090   1.842   2.548  0.7676 -0.1691 -0.6464
 1821TIP3    H1 5469   5.148   1.833   2.624  0.7917  2.0805 -0.3382
 1821TIP3    H2 5470   5.002   1.847   2.586  0.7148  0.1854 -0.8109
 1822TIP3   OH2 5471   3.835   4.199   3.610  0.1939  0.0152  0.2922
 1822TIP3    H1 5472   3.880   4.231   3.688  0.0101  0.1317  0.3482
 1822TIP3    H2 5473   3.799   4.114   3.636 -0.5571  0.4128  0.5799
 1823TIP3   OH2 5474   2.599   3.595   4.785 -0.3731  0.8390 -0.1329
 1823TIP3    H1 5475   2.601   3.666   4.849  0.9665 -0.4724  1.3855
 1823TIP3    H2 5476   2.511   3.559   4.792 -0.9246  2.0345 -0.6093
 1824TIP3   OH2 5477   5.645   0.312   4.447  0.2277 -0.2749  0.1142
 1824TIP3    H1 5478   5.721   0.345   4.398 -0.1043  3.2761  1.6588
 1824TIP3    H2 5479   5.570   0.332   4.392  0.1877 -1.3384 -0.2437
 1825TIP3   OH2 5480   5.919   1.711   4.906  0.2090  0.4142  0.0391
 1825TIP3    H1 5481   5.928   1.805   4.919 -0.3481  0.4769 -0.0023
 1825TIP3    H2 5482   6.006   1.682   4.876 -0.0235  1.1652 -1.4261
 1826TIP3   OH2 5483   3.667   2.899   1.078 -0.0148  0.0435  0.0280
 1826TIP3    H1 5484   3.591   2.844   1.093 -0.1099 -0.1746 -1.2247
 1826TIP3    H2 5485   3.641   2.958   1.007  0.6772  0.5614  0.1937
 1827TIP3   OH2 5486   3.759   5.091   2.212  0.3296  0.3437 -0.1084
 1827TIP3    H1 5487   3.701   5.015   2.212  2.7190 -1.6526 -1.5541
 1827TIP3    H2 5488   3.702   5.164   2.190 -1.5470 -1.6116 -2.3671
 1828TIP3   OH2 5489   2.235   5.010   1.106 -0.2893  0.1572  0.4630
 1828TIP3    H1 5490   2.285   4.990   1.027 -0.0796 -1.8157  1.0187
 1828TIP3    H2 5491   2.248   5.104   1.120 -0.8690  0.7046 -2.1469
 1829TIP3   OH2 5492   0.670   1.189   5.057  0.7664 -0.0879 -0.2311
 1829TIP3    H1 5493   0.651   1.096   5.044 -1.5144  0.3919 -0.7770
 1829TIP3    H2 5494   0.659   1.203   5.151  3.6886 -0.8172  0.3126
 1830TIP3   OH2 5495   0.243   2.165   3.603 -0.4132 -0.1962  0.2579
 1830TIP3    H1 5496   0.155   2.182   3.635 -0.7147 -1.9599  0.4554
 1830TIP3    H2 5497   0.255   2.070   3.615  1.6101  0.0547  0.5268
 1831TIP3   OH2 5498  -0.006   2.041   0.687 -0.1755 -0.2241 -0.4804
 1831TIP3    H1 5499   0.066   2.079   0.637  0.0166 -0.8513 -0.6909
 1831TIP3    H2 5500   0.036   1.994   0.758 -0.4065 -0.1345 -0.2819
 1832TIP3   OH2 5501   3.085   1.953   0.041 -0.3169  0.1043  0.4044
 1832TIP3    H1 5502   3.000   1.910   0.040  0.4470 -1.4673  0.3239
 1832TIP3    H2 5503   3.100   1.975   0.134 -0.5438 -0.1787  0.5084
 1833TIP3   OH2 5504   6.205   1.664   2.764 -0.0233 -0.2180 -0.2340
 1833TIP3    H1 5505   6.129   1.614   2.734  0.2809  0.0520 -1.5389
 1833TIP3    H2 5506   6.237   1.707   2.685  1.8773 -0.8467  0.1496
 1834TIP3   OH2 5507   3.197   1.847   0.309  0.8940  0.4545  1.1120
 1834TIP3    H1 5508   3.134   1.824   0.378  0.8666  1.1845  1.3426
 1834TIP3    H2 5509   3.264   1.899   0.355  1.0904  0.5956  0.6665
 1835TIP3   OH2 5510   0.627   0.153   0.612 -0.0656 -0.2644 -0.2658
 1835TIP3    H1 5511   0.647   0.223   0.673  0.7563 -0.0590 -0.7620
 1835TIP3    H2 5512   0.683   0.169   0.537 -1.1133 -0.4697 -1.1207
 1836TIP3   OH2 5513   4.834   5.903   0.476  0.5945  0.0895  0.3622
 1836TIP3    H1 5514   4.898   5.879   0.409  1.4632  0.3684  1.0790
 1836TIP3    H2 5515   4.885   5.945   0.545 -0.1961 -0.6703  1.4610
 1837TIP3   OH2 5516   1.002   3.881   4.073  0.2025 -0.0711  0.6322
 1837TIP3    H1 5517   1.018   3.976   4.074  0.6653 -0.1349 -0.0929
 1837TIP3    H2 5518   1.081   3.844   4.113  0.7391 -0.2297 -0.5184
 1838TIP3   OH2 5519   4.744   5.909   2.495 -0.5720 -0.3608  0.2737
 1838TIP3    H1 5520   4.756   5.957   2.576  0.3030  0.2173 -0.1884
 1838TIP3    H2 5521   4.691   5.967   2.440 -1.0715 -0.7062  0.3777
 1839TIP3   OH2 5522   0.334   2.139   4.861  0.0003  0.8203  0.3321
 1839TIP3    H1 5523   0.283   2.128   4.941  1.0959  0.7693  1.0362
 1839TIP3    H2 5524   0.408   2.193   4.886  0.5923  0.4483 -0.5441
 1840TIP3   OH2 5525   3.955   2.396   1.217  0.9426  0.4534  0.0448
 1840TIP3    H1 5526   3.985   2.314   1.257 -0.5347 -0.9972 -1.5917
 1840TIP3    H2 5527   4.008   2.464   1.257  3.0458 -1.4281  0.6621
 1841TIP3   OH2 5528   2.755   2.121   0.430  0.1506  0.2051  0.7215
 1841TIP3    H1 5529   2.767   2.028   0.450  0.0554  0.3237  1.3418
 1841TIP3    H2 5530   2.844   2.157   0.427  0.2921 -0.2033 -1.0436
 1842TIP3   OH2 5531   4.547   1.347   1.607 -0.2839  0.0082 -0.1598
 1842TIP3    H1 5532   4.627   1.296   1.613  0.8239  1.6609 -0.4084
 1842TIP3    H2 5533   4.488   1.293   1.553  1.2703 -0.4681 -1.4537
 1843TIP3   OH2 5534   3.695   2.158   1.328 -0.5709 -0.6521  0.6896
 1843TIP3    H1 5535   3.663   2.239   1.290  3.0375  1.4824  1.7217
 1843TIP3    H2 5536   3.776   2.139   1.280  0.2085 -1.9555  2.4001
 1844TIP3   OH2 5537   1.435   5.967   1.123  0.0125 -0.2039  0.0578
 1844TIP3    H1 5538   1.403   5.962   1.213  0.2110 -1.5939  0.0752
 1844TIP3    H2 5539   1.373   5.913   1.073  1.0711 -1.1632 -0.2645
 1845TIP3   OH2 5540   0.918   3.921   4.617  0.4190 -0.4285  0.6998
 1845TIP3    H1 5541   0.996   3.977   4.611  0.4261 -0.4204  0.8563
 1845TIP3    H2 5542   0.886   3.914   4.527  1.3419 -1.4724  0.4253
 1846TIP3   OH2 5543   0.744   4.050   0.586 -0.0574 -0.6054  0.1932
 1846TIP3    H1 5544   0.817   4.061   0.526 -0.9917  1.4947 -0.6274
 1846TIP3    H2 5545   0.783   4.056   0.673  0.8503 -0.3495 -0.2280
 1847TIP3   OH2 5546   5.018   1.070   2.679 -0.3670 -0.1434  0.0707
 1847TIP3    H1 5547   5.077   1.072   2.603  1.0053 -0.6094  1.0717
 1847TIP3    H2 5548   4.957   0.999   2.660  0.5640 -0.8914 -0.2073
 1848TIP3   OH2 5549   3.814   5.087   1.148  0.0099 -0.1139  0.7439
 1848TIP3    H1 5550   3.882   5.153   1.159 -0.3330  0.3870 -0.0450
 1848TIP3    H2 5551   3.838   5.017   1.209  0.8942  0.3216  0.9091
 1849TIP3   OH2 5552   2.169   3.562   2.370 -0.2818  0.6712  0.0908
 1849TIP3    H1 5553   2.179   3.477   2.414  0.1010  1.1115  0.8631
 1849TIP3    H2 5554   2.149   3.539   2.279 -0.6047 -0.2502  0.3823
 1850TIP3   OH2 5555   3.364   2.230   2.681 -0.0821 -0.1047  0.4321
 1850TIP3    H1 5556   3.295   2.164   2.676  1.3499 -1.6010 -0.7036
 1850TIP3    H2 5557   3.375   2.260   2.590 -0.2958  1.3001  0.8433
 1851TIP3   OH2 5558   2.142   1.693   1.773  0.1835 -0.6168 -0.4328
 1851TIP3    H1 5559   2.060   1.645   1.780  0.3120 -0.7861 -0.0692
 1851TIP3    H2 5560   2.208   1.633   1.807  0.2784  0.0045  0.5245
 1852TIP3   OH2 5561   5.016   0.536   1.458  0.2027 -0.2867  0.0456
 1852TIP3    H1 5562   4.986   0.445   1.459  0.1177 -0.3613 -2.4112
 1852TIP3    H2 5563   4.952   0.583   1.510  0.5578 -1.6797  1.8544
 1853TIP3   OH2 5564   5.894   1.101   4.337 -0.0577  0.1571  0.5099
 1853TIP3    H1 5565   5.878   1.184   4.292  0.7713  0.0869  0.0513
 1853TIP3    H2 5566   5.829   1.041   4.302  0.1219  0.2973 -0.0674
 1854TIP3   OH2 5567   4.070   3.087   4.388 -0.1092  0.4463  0.1570
 1854TIP3    H1 5568   4.089   3.055   4.476 -1.5068 -0.5407  0.1474
 1854TIP3    H2 5569   4.124   3.034   4.331  0.9609  1.2329  0.4107
 1855TIP3   OH2 5570   6.233   2.600   0.168 -0.2101  0.4687 -0.2237
 1855TIP3    H1 5571   6.208   2.656   0.094  0.5148  1.3342  0.1719
 1855TIP3    H2 5572   6.195   2.515   0.147 -0.8542  0.9582 -1.1137
 1856TIP3   OH2 5573   5.892   0.930   4.602 -0.0591  0.7242 -0.4855
 1856TIP3    H1 5574   5.832   0.995   4.639 -0.7380  0.9765 -1.9391
 1856TIP3    H2 5575   5.836   0.875   4.547  0.9770  0.7448 -1.5908
 1857TIP3   OH2 5576   4.350   2.742   2.878 -0.0303  0.8071  0.1172
 1857TIP3    H1 5577   4.439   2.747   2.841 -0.0843  1.1578  0.0252
 1857TIP3    H2 5578   4.298   2.799   2.821 -0.2294  0.9192  0.4121
 1858TIP3   OH2 5579   4.950   4.275   2.735 -0.0155  0.4537 -0.3923
 1858TIP3    H1 5580   5.001   4.234   2.805  0.5435  1.0193 -0.4585
 1858TIP3    H2 5581   4.900   4.344   2.778  0.9535  1.3441 -0.6689
 1859TIP3   OH2 5582   0.331   3.514   0.861  0.1164 -0.3702 -0.3337
 1859TIP3    H1 5583   0.256   3.562   0.826  0.4882  0.4069 -0.0837
 1859TIP3    H2 5584   0.395   3.515   0.790  0.0554 -0.6488 -0.3911
 1860TIP3   OH2 5585   3.607   1.063   3.755  0.8333 -0.0081 -0.1927
 1860TIP3    H1 5586   3.656   1.011   3.818 -0.2575  0.6448  1.2399
 1860TIP3    H2 5587   3.671   1.127   3.723  1.3560 -0.2263  0.3965
 1861TIP3   OH2 5588   0.522   0.497   2.850  0.0747 -0.6384 -0.3927
 1861TIP3    H1 5589   0.606   0.543   2.856  0.8379 -2.1020  0.9169
 1861TIP3    H2 5590   0.545   0.410   2.815 -1.2590 -0.2496 -2.4276
 1862TIP3   OH2 5591   1.614   2.277   4.745 -0.0418 -0.4963 -0.3097
 1862TIP3    H1 5592   1.532   2.262   4.791 -0.2055 -0.0112 -0.4300
 1862TIP3    H2 5593   1.663   2.196   4.754 -0.0840 -0.4138  0.6837
 1863TIP3   OH2 5594   4.505   5.133   4.104 -0.4749  0.1166 -0.5792
 1863TIP3    H1 5595   4.449   5.183   4.045  0.1426  1.5435  0.0069
 1863TIP3    H2 5596   4.593   5.167   4.089 -0.0670 -0.6492 -0.0095
 1864TIP3   OH2 5597   3.996   1.528   3.018  0.1901  0.3907 -0.0741
 1864TIP3    H1 5598   3.940   1.581   3.074 -0.4167  1.0508 -1.2603
 1864TIP3    H2 5599   4.019   1.585   2.945  0.5673 -0.5837 -0.7498
 1865TIP3   OH2 5600   6.019   1.591   4.471  0.0484  0.0640 -0.1994
 1865TIP3    H1 5601   6.054   1.524   4.413 -0.7993 -0.4838 -0.0833
 1865TIP3    H2 5602   5.939   1.553   4.507 -1.0195  1.5552 -0.9421
 1866TIP3   OH2 5603   3.556   2.903   2.707  0.5397 -0.1806 -0.3734
 1866TIP3    H1 5604   3.599   2.834   2.657 -0.1015 -1.4960  0.8430
 1866TIP3    H2 5605   3.602   2.905   2.791 -0.2397  0.0004  0.0631
 1867TIP3   OH2 5606   1.512   3.126   3.831  0.4399  0.5866  0.3340
 1867TIP3    H1 5607   1.455   3.202   3.814 -0.0082  0.2649  0.3639
 1867TIP3    H2 5608   1.484   3.061   3.766 -0.4068 -0.1950  1.4341
 1868TIP3   OH2 5609   5.810   2.538   4.889  0.2834  0.3336  0.3895
 1868TIP3    H1 5610   5.832   2.629   4.872  0.4866  0.1477 -0.4091
 1868TIP3    H2 5611   5.807   2.531   4.984  0.5665  1.0996  0.4623
 1869TIP3   OH2 5612   3.158   4.802   2.427  0.3184  0.4412  0.4067
 1869TIP3    H1 5613   3.187   4.769   2.512  0.9217  1.1575  0.4951
 1869TIP3    H2 5614   3.136   4.723   2.377  2.6979 -0.2023  0.2505
 1870TIP3   OH2 5615   2.368   1.265   4.670 -0.2779 -0.4924  0.4388
 1870TIP3    H1 5616   2.368   1.276   4.765 -1.3262  1.5453  0.2793
 1870TIP3    H2 5617   2.452   1.301   4.642 -0.5214  0.1473  0.5124
 1871TIP3   OH2 5618   6.328   3.917   4.679 -0.1566 -0.0675 -0.0336
 1871TIP3    H1 5619   6.332   3.971   4.757  1.7103 -0.1185 -0.0581
 1871TIP3    H2 5620   6.242   3.936   4.641 -0.7467  0.5936  1.5460
 1872TIP3   OH2 5621   1.187   1.891   4.487  0.0810 -0.2575 -0.2492
 1872TIP3    H1 5622   1.150   1.865   4.572 -0.2138  2.5815  0.6067
 1872TIP3    H2 5623   1.128   1.854   4.422 -2.4322  1.2614  0.9922
 1873TIP3   OH2 5624   2.933   3.393   2.772 -0.2399  0.1973 -0.4682
 1873TIP3    H1 5625   2.971   3.458   2.713 -1.1644 -0.3135 -1.6733
 1873TIP3    H2 5626   2.952   3.426   2.860  2.4904  0.2395 -0.9823
 1874TIP3   OH2 5627   0.228   0.200   0.250  0.3885 -0.0667  0.1640
 1874TIP3    H1 5628   0.233   0.222   0.343 -0.8912 -3.4751  1.1878
 1874TIP3    H2 5629   0.319   0.193   0.222  0.8012  0.3066  1.3420
 1875TIP3   OH2 5630   4.418   2.371   0.386  0.0804  0.2828  0.4302
 1875TIP3    H1 5631   4.511   2.387   0.404  0.7316 -0.4244 -1.9066
 1875TIP3    H2 5632   4.388   2.318   0.459  1.7034 -0.0251  0.9185
 1876TIP3   OH2 5633   4.731   2.093   2.709 -0.6009 -0.2417  0.5376
 1876TIP3    H1 5634   4.808   2.098   2.766 -1.4769  1.4491  1.6584
 1876TIP3    H2 5635   4.669   2.038   2.757 -0.1556 -1.5558 -0.3380
 1877TIP3   OH2 5636   4.166   4.684   1.911 -0.2557  0.3386 -0.5448
 1877TIP3    H1 5637   4.086   4.693   1.963  0.5508 -0.0172  0.8083
 1877TIP3    H2 5638   4.161   4.596   1.873  0.8209 -0.8623  1.9294
 1878TIP3   OH2 5639   0.098   1.188   0.049 -0.0786 -0.1205  0.2126
 1878TIP3    H1 5640   0.098   1.239  -0.032  0.8775 -0.0064  0.2826
 1878TIP3    H2 5641   0.005   1.180   0.072 -0.3267  0.2340 -0.6459
 1879TIP3   OH2 5642   6.153   5.911   2.821  0.3327 -0.3236 -0.1874
 1879TIP3    H1 5643   6.183   5.834   2.871  1.4247  0.6221  0.6688
 1879TIP3    H2 5644   6.089   5.953   2.879  1.1219  0.4186  0.1637
 1880TIP3   OH2 5645   1.764   3.547   4.270  0.3710  0.2840  0.0205
 1880TIP3    H1 5646   1.708   3.563   4.194  2.4803  1.8889 -1.2747
 1880TIP3    H2 5647   1.784   3.453   4.265  1.1629  0.5063 -1.9523
 1881TIP3   OH2 5648   1.812   5.074   0.481  0.3290 -0.0045 -0.8641
 1881TIP3    H1 5649   1.838   5.012   0.413  0.4799  1.6268 -2.3753
 1881TIP3    H2 5650   1.813   5.159   0.437 -0.0786  1.0546  1.0669
 1882TIP3   OH2 5651   2.736   3.437   0.498 -0.7475 -0.1943  0.0664
 1882TIP3    H1 5652   2.705   3.386   0.423  0.2340 -0.1078 -0.4171
 1882TIP3    H2 5653   2.696   3.395   0.574 -1.6418 -0.3723 -0.4885
 1883TIP3   OH2 5654   4.152   5.231   0.047  0.1098 -0.0587 -0.0677
 1883TIP3    H1 5655   4.080   5.283   0.012  1.3837  2.0719  0.2694
 1883TIP3    H2 5656   4.201   5.202  -0.030  0.8459  1.5265 -0.2513
 1884TIP3   OH2 5657   0.595   3.777   3.721 -0.1883  0.0066 -0.3102
 1884TIP3    H1 5658   0.663   3.767   3.787 -0.3698 -0.4555 -0.1893
 1884TIP3    H2 5659   0.523   3.819   3.767 -0.4079 -0.5412 -0.1461
 1885TIP3   OH2 5660   5.650   3.835   0.274  0.1485 -0.0019  0.0623
 1885TIP3    H1 5661   5.579   3.873   0.223  0.0886  0.6064  0.5841
 1885TIP3    H2 5662   5.622   3.744   0.289  0.0092 -0.0829 -0.6829
 1886TIP3   OH2 5663   0.247   1.069   3.475 -0.3672 -0.0499  0.5399
 1886TIP3    H1 5664   0.256   1.151   3.428  1.3201  0.8919  2.3510
 1886TIP3    H2 5665   0.179   1.085   3.540  0.4646  0.1918  1.3714
 1887TIP3   OH2 5666   5.503   2.203   1.490  0.0927  0.0163 -0.3065
 1887TIP3    H1 5667   5.577   2.245   1.447  0.7343  0.5258  1.2408
 1887TIP3    H2 5668   5.431   2.266   1.482  0.6905  0.8577  0.8741
 1888TIP3   OH2 5669   6.008   3.493   4.740 -0.6381 -0.1310 -0.0386
 1888TIP3    H1 5670   5.989   3.562   4.678 -1.0372  0.8875  1.1680
 1888TIP3    H2 5671   6.094   3.460   4.715  0.0501  1.5654  0.0214
 1889TIP3   OH2 5672   3.257   4.138   4.703  0.5815 -0.0478  0.0999
 1889TIP3    H1 5673   3.301   4.153   4.787  0.6662  0.8278 -0.0997
 1889TIP3    H2 5674   3.267   4.044   4.688 -0.4859 -0.4531  1.6626
 1890TIP3   OH2 5675   3.689   0.724   3.948  0.0976 -0.7297 -0.4879
 1890TIP3    H1 5676   3.732   0.718   4.033  0.5132 -2.9907 -0.8036
 1890TIP3    H2 5677   3.745   0.783   3.897  0.6732 -0.5673  0.3216
 1891TIP3   OH2 5678   2.485   0.929   3.151  0.0956 -0.1640  0.1369
 1891TIP3    H1 5679   2.413   0.992   3.142  0.2660  0.1037  0.6109
 1891TIP3    H2 5680   2.452   0.864   3.214  0.1808 -0.1652  0.1802
 1892TIP3   OH2 5681   3.791   4.616   4.396 -0.2431 -0.2547  0.3937
 1892TIP3    H1 5682   3.741   4.698   4.393  0.1425 -0.0405 -0.4049
 1892TIP3    H2 5683   3.879   4.642   4.369  0.1332 -0.7553  1.1191
 1893TIP3   OH2 5684   5.814   0.671   4.757  0.6585  0.0969  0.0496
 1893TIP3    H1 5685   5.805   0.725   4.835  2.6552  2.7533 -1.3993
 1893TIP3    H2 5686   5.745   0.703   4.697  2.1393  1.5049 -0.9877
 1894TIP3   OH2 5687   5.048   5.837  -0.016  0.3879  0.0591  0.7168
 1894TIP3    H1 5688   5.058   5.813   0.076  0.1061 -0.5456  0.5931
 1894TIP3    H2 5689   5.126   5.802  -0.059 -0.4408 -1.4714  0.3808
 1895TIP3   OH2 5690   4.960   5.059   4.694  0.1128 -0.1380 -0.4181
 1895TIP3    H1 5691   4.969   5.121   4.767 -0.1008  0.0047 -0.5083
 1895TIP3    H2 5692   4.944   4.975   4.736  1.4240 -0.3289 -0.2715
 1896TIP3   OH2 5693   5.498   0.434   2.889 -0.5042 -0.4671  0.2417
 1896TIP3    H1 5694   5.592   0.436   2.906 -0.5382  1.3398  0.4062
 1896TIP3    H2 5695   5.471   0.346   2.915  1.6516 -2.2619 -2.9084
 1897TIP3   OH2 5696   1.255   3.064   4.610 -0.5436  0.4298  0.2028
 1897TIP3    H1 5697   1.217   3.126   4.548  2.7810  0.2400 -2.3337
 1897TIP3    H2 5698   1.316   3.117   4.662 -0.4981 -0.0772  0.6686
 1898TIP3   OH2 5699   1.324   5.257   3.675 -0.1161 -0.2320 -0.1628
 1898TIP3    H1 5700   1.333   5.231   3.766  0.7877 -1.4647 -0.5683
 1898TIP3    H2 5701   1.393   5.322   3.661 -1.0494  0.9044  0.3198
 1899TIP3   OH2 5702   4.218   0.935   5.068 -0.1432  0.1778 -0.4417
 1899TIP3    H1 5703   4.226   0.859   5.125 -1.0703 -0.9616 -1.7776
 1899TIP3    H2 5704   4.306   0.950   5.034  0.0705 -0.1960 -0.0471
 1900TIP3   OH2 5705   4.453   3.800   1.267 -0.5296 -0.3961 -0.1492
 1900TIP3    H1 5706   4.490   3.852   1.195 -0.7547  2.0694  1.3898
 1900TIP3    H2 5707   4.528   3.755   1.305  0.1459  0.8036  0.0006
 1901TIP3   OH2 5708   0.532   2.034   3.431 -0.1472  0.6781 -0.6980
 1901TIP3    H1 5709   0.595   2.094   3.470 -1.0617  2.1689 -1.4599
 1901TIP3    H2 5710   0.583   1.955   3.414  0.9619  1.0269  0.7593
 1902TIP3   OH2 5711   5.638   1.537   4.294 -0.2639 -0.0147 -0.4800
 1902TIP3    H1 5712   5.599   1.452   4.313 -0.1146 -0.0344 -0.2593
 1902TIP3    H2 5713   5.624   1.589   4.374  1.2488 -0.4185  0.0955
 1903TIP3   OH2 5714   2.034   4.119   3.140 -0.1686 -0.1085  0.3857
 1903TIP3    H1 5715   1.969   4.131   3.071  1.7144  0.1900 -1.4614
 1903TIP3    H2 5716   2.041   4.204   3.181  0.7133  0.5556 -1.0398
 1904TIP3   OH2 5717   4.104   1.670   2.076 -0.4142  0.7217 -0.2658
 1904TIP3    H1 5718   4.132   1.683   2.166  0.9139  0.1892 -0.5793
 1904TIP3    H2 5719   4.135   1.748   2.030 -0.2961  0.5785 -0.4308
 1905TIP3   OH2 5720   4.091   4.849   4.055  0.2584 -0.3053  0.3798
 1905TIP3    H1 5721   4.063   4.845   3.964  0.5876  2.0339  0.1247
 1905TIP3    H2 5722   4.112   4.941   4.070  1.2379 -0.8140  2.5206
 1906TIP3   OH2 5723   6.333   5.124   4.297 -0.1071  0.1516 -0.6031
 1906TIP3    H1 5724   6.240   5.145   4.303 -0.0168  0.3604  0.3429
 1906TIP3    H2 5725   6.335   5.029   4.286 -0.4452  0.2661 -1.7890
 1907TIP3   OH2 5726   1.810   4.222   1.678  0.4719  0.0628  0.0063
 1907TIP3    H1 5727   1.886   4.281   1.687 -0.8445  1.9127 -0.3551
 1907TIP3    H2 5728   1.800   4.212   1.583 -0.8071  1.3977 -0.0472
 1908TIP3   OH2 5729   2.582   2.632   2.482 -0.1985 -0.0068  0.1704
 1908TIP3    H1 5730   2.666   2.671   2.460 -0.1510 -0.8222 -1.2141
 1908TIP3    H2 5731   2.586   2.620   2.577  0.1409  2.4170  0.5345
 1909TIP3   OH2 5732   3.698   4.295   5.026  0.4905  0.4596 -0.0685
 1909TIP3    H1 5733   3.774   4.351   5.013  0.8206  0.3359  1.2414
 1909TIP3    H2 5734   3.735   4.209   5.047  0.0503 -0.7749 -3.5548
 1910TIP3   OH2 5735   2.494   1.879   1.014  0.0420 -0.0663 -0.1101
 1910TIP3    H1 5736   2.538   1.881   1.099 -1.6965  0.4759  0.8231
 1910TIP3    H2 5737   2.453   1.792   1.010 -1.4461  0.5867  0.4680
 1911TIP3   OH2 5738   5.214   0.706   0.500 -0.4770 -0.0531 -0.3105
 1911TIP3    H1 5739   5.131   0.720   0.545  0.7187  1.4808  1.5537
 1911TIP3    H2 5740   5.247   0.623   0.535 -0.2615  0.3838  0.5441
 1912TIP3   OH2 5741   4.057   4.372   2.801 -1.0147  0.7268  0.1027
 1912TIP3    H1 5742   4.051   4.416   2.885 -0.6946  0.3147  0.3409
 1912TIP3    H2 5743   4.035   4.440   2.737 -1.0889  1.0828  0.5031
 1913TIP3   OH2 5744   6.150   2.736   0.402 -0.2700 -0.3099  0.9508
 1913TIP3    H1 5745   6.134   2.825   0.369 -0.1599 -0.0657  1.5470
 1913TIP3    H2 5746   6.202   2.694   0.333 -1.2649 -0.2781  0.1693
 1914TIP3   OH2 5747   4.431   5.552   0.198  0.6111 -0.2049  0.0747
 1914TIP3    H1 5748   4.484   5.488   0.150 -0.2724 -0.6399 -0.3278
 1914TIP3    H2 5749   4.448   5.635   0.154 -0.6158 -0.6856 -1.3693
 1915TIP3   OH2 5750   0.723   5.128   1.824  0.5902 -1.0710 -0.1403
 1915TIP3    H1 5751   0.765   5.186   1.889 -0.8409 -0.1697  0.0325
 1915TIP3    H2 5752   0.756   5.041   1.845  1.6205 -0.5337  0.5838
 1916TIP3   OH2 5753   4.367   0.305   1.173 -0.6526  0.2842 -1.0296
 1916TIP3    H1 5754   4.348   0.216   1.203  0.5805  0.2103 -0.4317
 1916TIP3    H2 5755   4.408   0.293   1.087 -1.4255  0.3408 -1.4147
 1917TIP3   OH2 5756   5.051   3.329   1.895  0.1573 -0.5742  0.0550
 1917TIP3    H1 5757   4.979   3.279   1.856 -0.0124 -0.7691  0.6157
 1917TIP3    H2 5758   5.100   3.362   1.820 -1.4158  0.8984 -0.4060
 1918TIP3   OH2 5759   6.269   2.776   1.155  0.3209 -0.2186 -0.1857
 1918TIP3    H1 5760   6.257   2.834   1.081 -0.1002  1.0004  0.8118
 1918TIP3    H2 5761   6.180   2.752   1.182  0.1543  2.9798  2.6721
 1919TIP3   OH2 5762   5.285   2.734   4.883  0.1357 -0.1459 -0.4117
 1919TIP3    H1 5763   5.255   2.645   4.863  0.1335 -0.1052 -0.5901
 1919TIP3    H2 5764   5.243   2.755   4.967 -2.9832  1.1420 -2.1238
 1920TIP3   OH2 5765   3.648   3.404   3.851 -0.0207 -0.0905 -0.3708
 1920TIP3    H1 5766   3.673   3.360   3.933  0.9622 -0.1343 -0.6867
 1920TIP3    H2 5767   3.637   3.332   3.788 -2.6813 -0.2551  0.1472
 1921TIP3   OH2 5768   1.383   4.240   1.838  0.8100 -0.5260 -0.1604
 1921TIP3    H1 5769   1.408   4.160   1.883 -0.2958 -0.2877  0.9374
 1921TIP3    H2 5770   1.292   4.227   1.812  1.2692 -0.4689 -1.9760
 1922TIP3   OH2 5771   2.208   2.899   4.723 -0.0346  0.3456  0.2192
 1922TIP3    H1 5772   2.174   2.893   4.634 -0.2677 -0.0207  0.3273
 1922TIP3    H2 5773   2.279   2.835   4.726 -1.3505 -1.1476  0.8658
 1923TIP3   OH2 5774   4.458   4.270   0.538 -0.4429 -0.3235  0.1244
 1923TIP3    H1 5775   4.440   4.319   0.458 -1.9007  0.1361  0.6918
 1923TIP3    H2 5776   4.533   4.315   0.577 -0.8533  0.5796 -0.0959
 1924TIP3   OH2 5777   1.887   5.645   2.693  0.3970  0.2435  0.2166
 1924TIP3    H1 5778   1.943   5.643   2.615 -0.2548 -0.1545 -0.2591
 1924TIP3    H2 5779   1.937   5.600   2.760  0.3772 -0.7421 -0.4022
 1925TIP3   OH2 5780   0.460   0.364   0.277  0.7435 -0.1539 -0.0392
 1925TIP3    H1 5781   0.476   0.447   0.231 -2.2439 -0.0451 -1.1382
 1925TIP3    H2 5782   0.402   0.388   0.349  1.3046 -1.0412  0.7146
 1926TIP3   OH2 5783   0.778   0.265   2.806  0.0222 -0.0985  0.3866
 1926TIP3    H1 5784   0.694   0.292   2.843 -1.6019 -0.8647 -2.4669
 1926TIP3    H2 5785   0.780   0.170   2.820 -0.5059 -0.3624 -1.1417
 1927TIP3   OH2 5786   3.932   5.890   3.286  0.1588  0.7208  0.4134
 1927TIP3    H1 5787   3.970   5.808   3.255  0.5909  1.0264  0.1290
 1927TIP3    H2 5788   3.877   5.920   3.214 -0.0619  0.6402  0.5484
 1928TIP3   OH2 5789   5.253   3.103   1.930  0.0017  0.7265  0.1045
 1928TIP3    H1 5790   5.216   3.154   2.002 -1.1567 -0.4805  0.3981
 1928TIP3    H2 5791   5.195   3.121   1.856 -0.0350  0.3661  0.0416
 1929TIP3   OH2 5792   4.294   5.848   3.031 -0.0385  0.2925 -0.0414
 1929TIP3    H1 5793   4.302   5.819   3.122  0.3840  1.2489  0.2410
 1929TIP3    H2 5794   4.230   5.919   3.034 -1.0553 -0.5605 -0.7213
 1930TIP3   OH2 5795   5.344   4.258   2.017  0.4354 -1.0647 -0.1820
 1930TIP3    H1 5796   5.400   4.193   2.058 -0.0995 -0.7308  1.1221
 1930TIP3    H2 5797   5.260   4.251   2.063  0.8108  1.5765  1.1021
 1931TIP3   OH2 5798   2.359   5.634   1.849  0.2091 -0.7049 -0.0252
 1931TIP3    H1 5799   2.420   5.665   1.917  0.6366 -2.3799  0.4120
 1931TIP3    H2 5800   2.273   5.642   1.890  0.4100 -1.1009  0.4976
 1932TIP3   OH2 5801   3.975   0.532   0.182  0.1486  0.5704 -0.3466
 1932TIP3    H1 5802   3.955   0.462   0.119  0.9388  0.9052 -0.9922
 1932TIP3    H2 5803   4.035   0.491   0.244 -2.0941 -0.3346  1.3922
 1933TIP3   OH2 5804   5.837   1.945   4.632  0.0901  0.1728  0.2109
 1933TIP3    H1 5805   5.754   1.899   4.623 -0.4796  1.4390 -1.4691
 1933TIP3    H2 5806   5.813   2.034   4.656  1.0172  0.3770  0.4381
 1934TIP3   OH2 5807   6.173   1.370   3.789 -0.5542  0.0885 -0.4062
 1934TIP3    H1 5808   6.249   1.350   3.735  1.5326  0.3051  2.2252
 1934TIP3    H2 5809   6.201   1.348   3.878 -4.0265 -0.9263  0.5709
 1935TIP3   OH2 5810   6.017   2.995   2.660  0.5498  0.3074 -0.6844
 1935TIP3    H1 5811   6.074   3.053   2.710 -0.2348  0.6272 -0.1439
 1935TIP3    H2 5812   6.036   2.908   2.694  0.7433  0.4089 -0.5306
 1936TIP3   OH2 5813   1.449   3.263   5.017 -0.2696  0.6383  0.5827
 1936TIP3    H1 5814   1.455   3.333   4.952 -0.8365  2.0922  2.0263
 1936TIP3    H2 5815   1.480   3.185   4.972  0.5168  1.8465 -1.0416
 1937TIP3   OH2 5816   0.202   2.783   4.478  0.1135  0.0369 -0.0034
 1937TIP3    H1 5817   0.136   2.819   4.419 -0.0474  2.6627  1.6040
 1937TIP3    H2 5818   0.258   2.858   4.500  1.5914 -1.3699  1.3162
 1938TIP3   OH2 5819   4.991   2.812   1.174 -0.5469  0.4789 -0.3156
 1938TIP3    H1 5820   4.941   2.734   1.194 -0.4040  0.7268  1.0538
 1938TIP3    H2 5821   5.079   2.794   1.208 -0.2767  0.8909 -0.7736
 1939TIP3   OH2 5822   2.097   4.053   0.277  0.5637 -0.7008  0.4305
 1939TIP3    H1 5823   2.082   3.999   0.199  0.0561  1.0361 -0.7222
 1939TIP3    H2 5824   2.086   3.992   0.350  0.1628 -2.1923 -0.8155
 1940TIP3   OH2 5825   5.000   2.913   2.968 -0.1262 -0.7711  0.3950
 1940TIP3    H1 5826   5.010   2.991   3.022 -0.1021 -0.2521 -0.3401
 1940TIP3    H2 5827   4.949   2.852   3.022  0.8566 -0.7023  1.4187
 1941TIP3   OH2 5828   2.756   4.701   2.895  0.3273  0.0425  0.3479
 1941TIP3    H1 5829   2.749   4.692   2.800  0.4638  0.1970  0.3224
 1941TIP3    H2 5830   2.790   4.617   2.925  1.7844  0.5237  0.0937
 1942TIP3   OH2 5831   1.128   2.650   4.893 -0.3284  0.5691  0.2475
 1942TIP3    H1 5832   1.153   2.643   4.985  2.6337  0.0061 -0.4775
 1942TIP3    H2 5833   1.151   2.739   4.868  0.5397  0.1888 -0.3470
 1943TIP3   OH2 5834   4.636   1.146   5.144  0.2862 -0.1622  0.0398
 1943TIP3    H1 5835   4.713   1.127   5.199  0.5081 -0.3504 -0.3305
 1943TIP3    H2 5836   4.610   1.234   5.169  1.2523  0.3105 -0.5565
 1944TIP3   OH2 5837   5.141   2.529   3.916  0.0401  0.4960  0.2670
 1944TIP3    H1 5838   5.051   2.559   3.929  1.2555  3.7997  2.2169
 1944TIP3    H2 5839   5.170   2.571   3.835  0.2998  0.6943  0.4608
 1945TIP3   OH2 5840   2.147   1.265   3.598  0.5073 -0.0729  0.6963
 1945TIP3    H1 5841   2.174   1.348   3.638 -0.3395  0.5052  0.1015
 1945TIP3    H2 5842   2.160   1.277   3.504 -0.4348 -0.2824  0.5201
 1946TIP3   OH2 5843   4.586   4.297   3.102  0.0151 -0.1208 -0.0705
 1946TIP3    H1 5844   4.522   4.235   3.134 -1.3941  1.6679  0.7643
 1946TIP3    H2 5845   4.635   4.325   3.180  0.3892  0.0857 -0.3721
 1947TIP3   OH2 5846   3.537   0.246   5.121  0.4090  0.4039 -0.3473
 1947TIP3    H1 5847   3.502   0.333   5.140 -1.3089 -0.4728  0.7412
 1947TIP3    H2 5848   3.599   0.261   5.050 -0.2373  2.4341 -0.5676
 1948TIP3   OH2 5849   4.808   2.379   1.233  0.3761 -0.2105 -0.2655
 1948TIP3    H1 5850   4.869   2.341   1.296 -0.5065 -2.8637 -0.8644
 1948TIP3    H2 5851   4.785   2.306   1.175 -0.7148  1.5296 -2.1714
 1949TIP3   OH2 5852   2.856   0.583   0.026 -0.7038 -0.2148  0.6459
 1949TIP3    H1 5853   2.873   0.667   0.068 -3.2534 -0.6645  2.8532
 1949TIP3    H2 5854   2.893   0.518   0.085 -0.1545 -0.7299 -0.2443
 1950TIP3   OH2 5855   0.931   1.406   3.662  0.0599 -0.7895 -0.1943
 1950TIP3    H1 5856   0.961   1.373   3.577 -1.4217  1.2332 -1.6028
 1950TIP3    H2 5857   0.864   1.343   3.690  0.1207 -1.1464 -0.8267
 1951TIP3   OH2 5858   5.028   3.110   0.872  0.3044 -0.4109  0.9208
 1951TIP3    H1 5859   5.089   3.120   0.799 -0.8331 -3.3855 -0.5947
 1951TIP3    H2 5860   4.979   3.193   0.873  0.5052 -0.1696 -1.5670
 1952TIP3   OH2 5861   3.019   0.717   0.693  0.4849 -1.2960  0.1606
 1952TIP3    H1 5862   2.948   0.773   0.662  0.7988 -0.6166  0.6590
 1952TIP3    H2 5863   2.995   0.692   0.782  1.1264 -0.6136  0.5334
 1953TIP3   OH2 5864   3.114   3.894   4.576  0.3784 -0.0896  0.0535
 1953TIP3    H1 5865   3.035   3.840   4.565  0.3886 -0.1960  0.4619
 1953TIP3    H2 5866   3.172   3.840   4.630  0.7559 -0.0349 -0.2973
 1954TIP3   OH2 5867   1.493   0.862   0.883  0.0584  0.6782 -0.1699
 1954TIP3    H1 5868   1.476   0.956   0.876  1.7356  0.9280 -1.7059
 1954TIP3    H2 5869   1.574   0.856   0.933 -1.3593 -0.1467  2.1667
 1955TIP3   OH2 5870   0.909   0.451   0.979  0.4297  0.5623  0.0092
 1955TIP3    H1 5871   0.954   0.405   1.049 -1.2022 -1.5001 -0.2188
 1955TIP3    H2 5872   0.829   0.485   1.019  1.4198  2.9789  0.0777
 1956TIP3   OH2 5873   3.333   4.346   0.936 -0.1524 -0.1942  0.1705
 1956TIP3    H1 5874   3.389   4.353   1.013  0.3486 -0.5883 -0.1502
 1956TIP3    H2 5875   3.261   4.407   0.952  0.2817  0.1898  0.6635
 1957TIP3   OH2 5876   2.224   3.539   2.671 -0.0132 -0.2301  0.3542
 1957TIP3    H1 5877   2.264   3.614   2.715  0.5995  0.6286 -1.5857
 1957TIP3    H2 5878   2.177   3.576   2.596  0.6692 -1.7853 -0.9083
 1958TIP3   OH2 5879   5.734   4.166   4.110  0.6322  0.1892  0.0455
 1958TIP3    H1 5880   5.794   4.232   4.146 -0.0264  1.1691 -0.5937
 1958TIP3    H2 5881   5.755   4.164   4.016  0.3786 -0.2423 -0.0036
 1959TIP3   OH2 5882   1.237   4.361   2.190 -0.1205 -0.1524 -0.4748
 1959TIP3    H1 5883   1.203   4.379   2.102  2.3435  1.0604 -1.2825
 1959TIP3    H2 5884   1.263   4.447   2.223 -0.1366 -0.7187  1.0879
 1960TIP3   OH2 5885   1.203   2.723   4.085  0.4141  0.7013 -0.0269
 1960TIP3    H1 5886   1.286   2.743   4.128  0.9836 -0.7138 -0.4196
 1960TIP3    H2 5887   1.194   2.628   4.093 -0.7826  0.7435 -0.6771
 1961TIP3   OH2 5888   0.998   5.985   0.366  0.0506 -0.5125  0.1777
 1961TIP3    H1 5889   1.087   5.962   0.340  0.1628 -2.2066  1.8469
 1961TIP3    H2 5890   0.975   5.921   0.433 -2.7398 -0.6170 -0.7528
 1962TIP3   OH2 5891   0.674   0.125   4.598  0.1195  0.1679 -0.0472
 1962TIP3    H1 5892   0.638   0.091   4.680  2.1657  2.5742  2.0244
 1962TIP3    H2 5893   0.611   0.191   4.570 -0.0822  0.0788  0.1938
 1963TIP3   OH2 5894   3.840   1.002   2.815 -0.3265  0.2292 -0.2955
 1963TIP3    H1 5895   3.882   1.085   2.841 -0.5013 -0.0003  0.7793
 1963TIP3    H2 5896   3.759   1.029   2.770 -0.3865  0.6463  0.0564
 1964TIP3   OH2 5897   1.706   0.130   2.432  0.2284  0.0977 -0.0925
 1964TIP3    H1 5898   1.691   0.054   2.488  0.1410 -0.0279 -0.2866
 1964TIP3    H2 5899   1.795   0.119   2.399  0.9527  1.0789  1.4257
 1965TIP3   OH2 5900   4.078   4.251   4.776 -0.1156 -0.3572 -0.6214
 1965TIP3    H1 5901   4.047   4.179   4.831 -1.2377  1.2954  1.0131
 1965TIP3    H2 5902   4.005   4.269   4.717 -0.5073  0.5145  0.1111
 1966TIP3   OH2 5903   6.152   0.190   2.133  0.0175 -0.0962 -0.3542
 1966TIP3    H1 5904   6.200   0.237   2.065 -0.3328  1.6702  0.5573
 1966TIP3    H2 5905   6.072   0.161   2.090  0.4104 -0.1847 -1.0372
 1967TIP3   OH2 5906   4.313   1.454   2.023  0.6674 -0.0627  0.8556
 1967TIP3    H1 5907   4.259   1.530   2.001 -0.9641 -1.5675 -0.6315
 1967TIP3    H2 5908   4.390   1.462   1.966 -1.7481 -1.9141 -3.0624
 1968TIP3   OH2 5909   5.204   3.749   2.070 -0.5394  0.4998  0.3200
 1968TIP3    H1 5910   5.174   3.664   2.101  0.2549  0.5825  1.4068
 1968TIP3    H2 5911   5.185   3.809   2.143  1.6878  0.6430  0.8547
 1969TIP3   OH2 5912   3.069   1.431   1.388  0.1921  0.0507 -0.4010
 1969TIP3    H1 5913   3.133   1.391   1.448  0.8777  1.2184 -0.3339
 1969TIP3    H2 5914   3.074   1.377   1.309 -0.3049 -1.1550  0.3654
 1970TIP3   OH2 5915   4.280   4.059   3.880  0.4865  0.2840  0.6450
 1970TIP3    H1 5916   4.210   3.999   3.903 -0.3190  1.5013  1.4772
 1970TIP3    H2 5917   4.239   4.124   3.822  1.0908  0.6184  0.5747
 1971TIP3   OH2 5918   0.076   1.348   4.789 -0.6801  0.2548  0.5210
 1971TIP3    H1 5919   0.034   1.411   4.848  0.5311  0.0923  1.6025
 1971TIP3    H2 5920   0.108   1.279   4.847  2.0912  0.9244 -0.0445
 1972TIP3   OH2 5921   2.984   2.685   3.539  0.5419 -0.1429  0.2568
 1972TIP3    H1 5922   2.907   2.694   3.483  0.5515 -0.4135  0.1988
 1972TIP3    H2 5923   3.035   2.615   3.498  1.6981  1.2184 -0.7240
 1973TIP3   OH2 5924   3.380   0.407   4.814 -0.5394 -0.1132  0.2138
 1973TIP3    H1 5925   3.348   0.461   4.742 -0.9831  1.6147  1.6375
 1973TIP3    H2 5926   3.312   0.413   4.881  1.0453  0.6315  1.8598
 1974TIP3   OH2 5927   4.745   0.943   2.964  0.3991  0.0646 -0.0889
 1974TIP3    H1 5928   4.734   0.906   3.052 -0.2800  0.8017  0.1481
 1974TIP3    H2 5929   4.840   0.942   2.949  0.4603 -0.8462  0.3027
 1975TIP3   OH2 5930   3.520   2.181   4.995  0.1635  0.7185  0.0200
 1975TIP3    H1 5931   3.484   2.095   5.015 -0.0365  0.7279 -0.2884
 1975TIP3    H2 5932   3.489   2.200   4.906 -0.0186  1.2241  0.1877
 1976TIP3   OH2 5933   5.606   3.106   4.474 -0.0955 -0.1271  0.7021
 1976TIP3    H1 5934   5.578   3.041   4.409  1.7186  1.5945 -2.0410
 1976TIP3    H2 5935   5.701   3.094   4.480  0.0833  1.2993  1.1790
 1977TIP3   OH2 5936   2.698   0.103   1.917  0.0709 -0.5701  0.1059
 1977TIP3    H1 5937   2.750   0.063   1.986  1.9682 -0.5064 -1.2246
 1977TIP3    H2 5938   2.759   0.160   1.870 -1.3187 -0.0972 -1.2135
 1978TIP3   OH2 5939   3.972   0.397   4.067 -0.1639 -0.1694 -0.1956
 1978TIP3    H1 5940   3.883   0.411   4.099 -0.2302  0.9047 -0.7925
 1978TIP3    H2 5941   3.965   0.319   4.012 -0.4586 -0.8323  0.7482
 1979TIP3   OH2 5942   0.673   5.838   2.845 -0.2405  0.5052  0.3401
 1979TIP3    H1 5943   0.621   5.918   2.835  0.1329  0.7834  0.5919
 1979TIP3    H2 5944   0.728   5.835   2.767 -0.6039  0.2300  0.0912
 1980TIP3   OH2 5945   1.306   2.855   3.844 -0.1344  0.4098  0.5201
 1980TIP3    H1 5946   1.292   2.916   3.916 -1.3111 -0.0809  0.7373
 1980TIP3    H2 5947   1.288   2.769   3.882  1.2469 -0.0660  0.1530
 1981TIP3   OH2 5948   3.028   5.571   1.435  0.0982 -0.0604 -0.8111
 1981TIP3    H1 5949   2.938   5.585   1.407 -0.3322  0.5130  0.7963
 1981TIP3    H2 5950   3.076   5.556   1.353 -1.2385  0.7544 -1.7784
 1982TIP3   OH2 5951   3.953   0.671   2.034  0.3155  0.4239  0.3694
 1982TIP3    H1 5952   4.022   0.606   2.017  0.4719  0.6398  0.1651
 1982TIP3    H2 5953   3.882   0.621   2.073  1.1135  0.4108  1.8751
 1983TIP3   OH2 5954   5.038   5.962   1.102 -0.0431 -0.1281  0.0731
 1983TIP3    H1 5955   5.049   5.867   1.103  0.7296 -0.0415  0.6652
 1983TIP3    H2 5956   5.003   5.984   1.188  0.9607  0.2446  0.3986
 1984TIP3   OH2 5957   2.696   1.561   1.007 -0.4753 -0.3626 -0.0670
 1984TIP3    H1 5958   2.697   1.654   1.029  0.3255 -0.6834  1.3596
 1984TIP3    H2 5959   2.784   1.544   0.972  0.5377 -1.2049  2.6545
 1985TIP3   OH2 5960   3.200   2.830   3.431 -0.0508  0.4717  0.0975
 1985TIP3    H1 5961   3.105   2.825   3.418  0.1681 -1.1156 -1.2547
 1985TIP3    H2 5962   3.224   2.744   3.466  0.8259  1.1023  1.1362
 1986TIP3   OH2 5963   5.696   3.374   1.970 -0.0150  0.2387 -0.1996
 1986TIP3    H1 5964   5.790   3.364   1.952 -0.4508 -0.5453 -2.3065
 1986TIP3    H2 5965   5.677   3.306   2.034  0.2423 -1.9827 -2.3416
 1987TIP3   OH2 5966   1.086   3.522   1.764  0.5184 -0.1093 -0.4305
 1987TIP3    H1 5967   1.134   3.525   1.682  0.6305 -0.9855 -0.4075
 1987TIP3    H2 5968   1.014   3.460   1.748 -0.5203  1.0524 -0.4171
 1988TIP3   OH2 5969   1.115   1.123   3.702 -0.8785 -0.2003  0.5871
 1988TIP3    H1 5970   1.067   1.041   3.713 -2.1354  0.1385 -1.6626
 1988TIP3    H2 5971   1.120   1.135   3.607 -1.9504  2.9675  0.8123
 1989TIP3   OH2 5972   2.210   4.101   1.191  0.2902  0.2685 -0.7437
 1989TIP3    H1 5973   2.185   4.184   1.232 -0.1994  0.1305 -0.7545
 1989TIP3    H2 5974   2.278   4.125   1.128  0.3717  0.6165 -0.5261
 1990TIP3   OH2 5975   3.728   1.926   4.893 -0.1320 -0.0281  0.2614
 1990TIP3    H1 5976   3.751   2.001   4.838  3.1120 -0.5142  0.7432
 1990TIP3    H2 5977   3.718   1.963   4.981 -0.9375  0.1519  0.0974
 1991TIP3   OH2 5978   6.033   0.646   2.870 -0.4852  0.2182  0.1166
 1991TIP3    H1 5979   6.123   0.654   2.901 -0.2391  0.1920 -0.5866
 1991TIP3    H2 5980   5.987   0.720   2.910 -0.3852 -0.3155  1.2632
 1992TIP3   OH2 5981   5.744   1.175   2.984  0.2686  0.0823  0.1280
 1992TIP3    H1 5982   5.800   1.100   2.963  1.8036  0.9358  1.0364
 1992TIP3    H2 5983   5.660   1.136   3.009 -0.0162 -1.1813 -2.4472
 1993TIP3   OH2 5984   1.506   4.683   1.724 -0.4561 -0.5852  0.6232
 1993TIP3    H1 5985   1.601   4.675   1.734 -0.2405  0.8885 -0.1232
 1993TIP3    H2 5986   1.482   4.611   1.665  0.5793  0.4825 -1.1866
 1994TIP3   OH2 5987   1.412   0.935   4.847 -0.4800 -0.4510  0.1135
 1994TIP3    H1 5988   1.467   1.002   4.888 -1.2452  0.0202  0.3710
 1994TIP3    H2 5989   1.465   0.903   4.773  0.1880 -0.0909  0.4294
 1995TIP3   OH2 5990   1.838   5.016   2.568  0.1192 -0.5986  0.3324
 1995TIP3    H1 5991   1.900   5.027   2.639  0.0257  1.5996  0.1316
 1995TIP3    H2 5992   1.892   4.988   2.493  0.9859  1.6068  0.0677
 1996TIP3   OH2 5993   5.106   4.652   4.326  0.8327 -0.8326 -0.4286
 1996TIP3    H1 5994   5.186   4.675   4.279  1.3004 -0.0690  0.7035
 1996TIP3    H2 5995   5.109   4.557   4.333  1.0781 -0.9056 -1.3452
 1997TIP3   OH2 5996   5.162   1.973   3.035 -0.8085 -0.2162  0.2514
 1997TIP3    H1 5997   5.110   1.952   3.113 -1.7204  1.8005  0.2561
 1997TIP3    H2 5998   5.225   2.038   3.064 -0.7980  0.1605 -0.5674
 1998TIP3   OH2 5999   6.335   3.784   5.003 -0.3673 -0.0287 -0.6109
 1998TIP3    H1 6000   6.242   3.762   4.993 -0.3969 -0.1130 -0.1546
 1998TIP3    H2 6001   6.343   3.814   5.093  0.0943 -0.2218 -0.5850
 1999TIP3   OH2 6002   2.326   5.809   3.484 -0.2110 -0.2967 -0.2915
 1999TIP3    H1 6003   2.293   5.883   3.432 -1.0528 -0.7907 -0.4744
 1999TIP3    H2 6004   2.381   5.850   3.551 -0.4966  0.4791 -0.5159
 2000TIP3   OH2 6005   4.044   5.280   1.572  0.2841  0.2279  0.2817
 2000TIP3    H1 6006   3.998   5.354   1.613 -0.0561 -0.3703  1.0017
 2000TIP3    H2 6007   4.025   5.290   1.479 -0.5369  0.5230  0.4685
 2001TIP3   OH2 6008   4.681   4.985   3.530  0.3109 -0.8119  0.1899
 2001TIP3    H1 6009   4.587   4.988   3.510  0.3197  1.3535  0.2308
 2001TIP3    H2 6010   4.685   4.986   3.626  0.2959  3.1394  0.3053
 2002TIP3   OH2 6011   1.750   4.745   3.721  0.2562 -0.2160  0.7861
 2002TIP3    H1 6012   1.703   4.710   3.645 -0.6070 -0.3528  1.3698
 2002TIP3    H2 6013   1.833   4.776   3.685  0.5597 -1.7723  0.0475
 2003TIP3   OH2 6014   0.261   3.213   0.727 -0.3278  0.1195 -0.1137
 2003TIP3    H1 6015   0.344   3.249   0.698 -0.0756 -0.3335  0.0384
 2003TIP3    H2 6016   0.220   3.284   0.776 -0.5593  0.7384 -1.1747
 2004TIP3   OH2 6017   4.110   3.374   2.693  0.7297  0.0706 -0.0429
 2004TIP3    H1 6018   4.027   3.401   2.652  0.0936  2.2463  2.4470
 2004TIP3    H2 6019   4.173   3.440   2.664  0.7844  0.3592  0.7205
 2005TIP3   OH2 6020   6.263   2.619   0.845 -0.3587  0.1071 -0.2191
 2005TIP3    H1 6021   6.309   2.535   0.856 -0.3073  0.3572  1.7697
 2005TIP3    H2 6022   6.210   2.607   0.766 -0.9252 -2.0794  0.4263
 2006TIP3   OH2 6023   3.188   1.957   3.780  0.0048 -0.0440 -0.0176
 2006TIP3    H1 6024   3.273   1.931   3.746 -0.5000  0.6113 -1.9377
 2006TIP3    H2 6025   3.130   1.955   3.703 -1.3082  1.1578  0.8860
 2007TIP3   OH2 6026   0.455   5.504   2.790  0.4320 -0.4845  0.0071
 2007TIP3    H1 6027   0.390   5.573   2.783 -0.9128 -1.3793  2.5169
 2007TIP3    H2 6028   0.536   5.549   2.813  0.1752  0.4448 -0.8571
 2008TIP3   OH2 6029   5.700   0.840   2.073  0.4501 -0.0163 -0.0404
 2008TIP3    H1 6030   5.723   0.806   1.986 -1.5403  1.2116 -1.1232
 2008TIP3    H2 6031   5.740   0.927   2.076  0.4457 -0.0237  0.2490
 2009TIP3   OH2 6032   2.497   5.292   1.844  0.6676 -0.5330  0.1739
 2009TIP3    H1 6033   2.492   5.351   1.920 -0.2605  0.3844 -0.5720
 2009TIP3    H2 6034   2.424   5.231   1.856 -0.6266  0.7382 -0.8540
 2010TIP3   OH2 6035   0.587   0.008   3.531  0.5095 -0.1376  0.3216
 2010TIP3    H1 6036   0.635   0.090   3.541  0.6092 -0.2541  0.8364
 2010TIP3    H2 6037   0.529   0.005   3.607 -0.6969  0.2504 -0.5537
 2011TIP3   OH2 6038   0.703   2.019   4.849  0.1884  0.3460  0.1815
 2011TIP3    H1 6039   0.745   1.933   4.844 -1.6885 -0.5759 -0.4656
 2011TIP3    H2 6040   0.776   2.080   4.860  1.7246 -1.1266 -1.2085
 2012TIP3   OH2 6041   2.728   3.659   1.801  0.7687  0.6076 -0.1130
 2012TIP3    H1 6042   2.680   3.741   1.791  0.6555  0.5445 -0.0899
 2012TIP3    H2 6043   2.818   3.686   1.819  0.6875  0.7281  0.1197
 2013TIP3   OH2 6044   1.942   2.911   3.263  0.1771  0.1428 -0.1713
 2013TIP3    H1 6045   1.883   2.838   3.246  1.1827 -0.6992 -0.1326
 2013TIP3    H2 6046   1.911   2.949   3.345 -0.0324 -0.5663  0.0771
 2014TIP3   OH2 6047   1.863   2.450   0.424 -0.4734 -0.0024 -0.6970
 2014TIP3    H1 6048   1.916   2.372   0.443 -1.6496 -1.1175 -1.7791
 2014TIP3    H2 6049   1.923   2.507   0.375  0.0142 -0.8590 -1.1386
 2015TIP3   OH2 6050   5.779   4.740   0.824  0.1394 -0.0511  0.1191
 2015TIP3    H1 6051   5.796   4.681   0.898  0.5960 -0.8536 -0.6081
 2015TIP3    H2 6052   5.866   4.759   0.788 -0.0361  0.7839  0.1232
 2016TIP3   OH2 6053   3.002   0.744   2.384 -0.1413 -0.2226 -0.3010
 2016TIP3    H1 6054   3.071   0.740   2.450 -0.1019  0.3997 -0.3030
 2016TIP3    H2 6055   2.930   0.789   2.427 -0.0356  0.3925 -0.7440
 2017TIP3   OH2 6056   1.099   1.234   0.010  0.3048  0.2836 -0.1414
 2017TIP3    H1 6057   1.025   1.178   0.037 -0.1217  0.3791 -1.0778
 2017TIP3    H2 6058   1.154   1.239   0.088  0.3221 -1.4007 -0.0016
 2018TIP3   OH2 6059   0.854   5.282   1.013  0.2258 -0.1148 -0.1013
 2018TIP3    H1 6060   0.879   5.212   0.953 -0.1476 -0.3280 -0.0141
 2018TIP3    H2 6061   0.777   5.322   0.971 -0.3538 -0.5978  0.4786
 2019TIP3   OH2 6062   4.248   3.298   0.831  0.1123 -0.3064  0.6473
 2019TIP3    H1 6063   4.223   3.247   0.908  2.2732 -0.5369  1.2440
 2019TIP3    H2 6064   4.285   3.234   0.770  0.0917  0.1382  0.1557
 2020TIP3   OH2 6065   3.375   5.949   1.768  1.3255 -0.1546 -0.5810
 2020TIP3    H1 6066   3.351   5.971   1.678  1.3023  0.8928 -0.3356
 2020TIP3    H2 6067   3.302   5.895   1.799  1.2187 -0.3214 -1.1046
 2021TIP3   OH2 6068   1.896   2.628   4.180 -0.2637 -0.3423  0.3007
 2021TIP3    H1 6069   1.885   2.602   4.272 -3.3675 -1.7133 -0.3384
 2021TIP3    H2 6070   1.850   2.560   4.130  0.8644  0.6543 -2.2557
 2022TIP3   OH2 6071   4.431   1.762   0.799 -0.1752 -0.0773  0.4905
 2022TIP3    H1 6072   4.425   1.681   0.849  0.4714 -0.0378  0.6451
 2022TIP3    H2 6073   4.390   1.742   0.715  3.0346 -1.6983 -0.8716
 2023TIP3   OH2 6074   4.350   1.035   1.565  0.0625  0.3739 -0.8688
 2023TIP3    H1 6075   4.383   0.959   1.613  2.9343  1.7221 -0.4700
 2023TIP3    H2 6076   4.286   1.074   1.624  1.4985  0.4493  0.7096
 2024TIP3   OH2 6077   1.177   0.198   2.065 -0.2298  0.0916  0.3259
 2024TIP3    H1 6078   1.097   0.246   2.088 -0.7627 -1.1041  1.0761
 2024TIP3    H2 6079   1.244   0.266   2.054 -1.3540  1.1133 -0.3645
 2025TIP3   OH2 6080   1.789   4.099   4.760 -0.4817 -0.2385 -0.3289
 2025TIP3    H1 6081   1.819   4.181   4.720  0.4155 -0.9271 -1.1171
 2025TIP3    H2 6082   1.800   4.113   4.854  0.1377  0.3699 -0.4828
 2026TIP3   OH2 6083   4.147   4.470   5.188 -1.1144 -0.0869 -0.3470
 2026TIP3    H1 6084   4.074   4.454   5.129 -0.6886  0.3803 -1.0082
 2026TIP3    H2 6085   4.181   4.556   5.162 -1.0526  0.2331  0.7157
 2027TIP3   OH2 6086   2.371   1.035   4.508  0.0741  0.1784 -0.2313
 2027TIP3    H1 6087   2.282   1.007   4.486  0.1086 -1.3911  1.4211
 2027TIP3    H2 6088   2.359   1.102   4.576  0.0961 -2.1900  2.2982
 2028TIP3   OH2 6089   0.144   2.743   3.118 -0.7543 -0.1309 -0.3002
 2028TIP3    H1 6090   0.097   2.819   3.153 -1.4126 -0.6122 -0.1160
 2028TIP3    H2 6091   0.142   2.679   3.189 -0.2439 -0.3415 -0.4727
 2029TIP3   OH2 6092   1.692   0.126   3.272  0.3252  0.5164  0.1844
 2029TIP3    H1 6093   1.633   0.054   3.294  1.8440 -0.2633  1.9557
 2029TIP3    H2 6094   1.715   0.165   3.356  0.1322  2.6330 -0.6825
 2030TIP3   OH2 6095   1.581   3.493   4.962  0.3069 -0.4449 -0.1819
 2030TIP3    H1 6096   1.547   3.513   5.049 -0.2946  1.6580 -0.8331
 2030TIP3    H2 6097   1.623   3.574   4.934  1.0830 -1.2989 -1.5945
 2031TIP3   OH2 6098   0.684   1.077   2.028 -0.1025 -0.3014 -0.2425
 2031TIP3    H1 6099   0.702   1.009   1.964  1.1555 -0.2270  0.0058
 2031TIP3    H2 6100   0.650   1.030   2.104  0.1223 -0.5832 -0.3161
 2032TIP3   OH2 6101   2.072   3.687   2.915  0.0532 -0.1634  0.5660
 2032TIP3    H1 6102   1.994   3.666   2.864 -0.0475 -0.4861  0.8439
 2032TIP3    H2 6103   2.139   3.708   2.849 -0.4493  0.8028  0.3479
 2033TIP3   OH2 6104   3.093   4.696   3.564  0.4107 -0.2108 -0.1589
 2033TIP3    H1 6105   3.132   4.609   3.572 -2.7883 -1.6969  0.7353
 2033TIP3    H2 6106   3.165   4.756   3.582  2.5923 -2.6713 -0.1354
 2034TIP3   OH2 6107   1.527   3.113   3.564  0.2998 -0.0164  0.0090
 2034TIP3    H1 6108   1.509   3.020   3.572  0.3209  0.0024  0.2915
 2034TIP3    H2 6109   1.545   3.127   3.471 -0.1104 -0.2202 -0.1021
 2035TIP3   OH2 6110   2.968   3.485   0.605  0.3881  0.4677  0.0091
 2035TIP3    H1 6111   2.877   3.484   0.574 -0.2190  1.6478  1.6139
 2035TIP3    H2 6112   3.012   3.419   0.551 -1.6670 -0.9597 -0.0688
 2036TIP3   OH2 6113   0.663   4.949   2.954  0.3430  0.1573 -0.7101
 2036TIP3    H1 6114   0.622   4.991   3.029  0.8492 -1.2524  0.3897
 2036TIP3    H2 6115   0.604   4.968   2.881  0.7222  3.0473 -0.3781
 2037TIP3   OH2 6116   4.129   5.176   0.296 -0.2617 -0.0853 -0.4375
 2037TIP3    H1 6117   4.094   5.087   0.298  0.3402 -0.3519 -1.2335
 2037TIP3    H2 6118   4.137   5.197   0.203  1.7276 -0.0792 -0.3057
 2038TIP3   OH2 6119   5.234   1.694   3.831  0.0966 -0.0023 -0.1872
 2038TIP3    H1 6120   5.307   1.747   3.799  0.9044 -1.2635 -0.5163
 2038TIP3    H2 6121   5.175   1.688   3.757 -1.4066  2.6926  0.6642
 2039TIP3   OH2 6122   3.859   3.777   1.008 -0.1409 -0.3505 -0.1399
 2039TIP3    H1 6123   3.835   3.825   0.929 -0.0844  2.0253  1.1749
 2039TIP3    H2 6124   3.895   3.844   1.067  0.3958 -2.1153  1.6743
 2040TIP3   OH2 6125   0.980   4.538   3.514  0.0718  0.4825 -0.2833
 2040TIP3    H1 6126   0.903   4.581   3.479 -1.1526 -0.7656  0.7730
 2040TIP3    H2 6127   1.025   4.607   3.565 -1.5570  0.6985  0.9470
 2041TIP3   OH2 6128   1.291   2.794   4.546  0.2727 -0.2056 -0.0088
 2041TIP3    H1 6129   1.283   2.815   4.453 -1.7132 -0.8243 -0.0265
 2041TIP3    H2 6130   1.299   2.879   4.589  0.3081  0.1341 -0.6683
 2042TIP3   OH2 6131   2.597   4.783   2.282 -0.3577 -0.4988  0.2394
 2042TIP3    H1 6132   2.683   4.742   2.287 -1.6482 -3.3941  0.7774
 2042TIP3    H2 6133   2.565   4.761   2.195 -0.9230 -0.2862  0.3869
 2043TIP3   OH2 6134   3.871   1.447   2.387  0.4377  0.0562  0.4670
 2043TIP3    H1 6135   3.903   1.430   2.475 -0.4470 -0.9735  0.6201
 2043TIP3    H2 6136   3.802   1.512   2.399  1.6627  1.4395  0.2683
 2044TIP3   OH2 6137   6.183   3.603   2.171 -0.2770  0.0361  0.1232
 2044TIP3    H1 6138   6.216   3.611   2.082  1.0259 -0.1012  0.5731
 2044TIP3    H2 6139   6.089   3.621   2.164 -0.0316  0.9341 -1.1267
 2045TIP3   OH2 6140   3.136   1.642   3.995  0.0061  0.1059  0.1448
 2045TIP3    H1 6141   3.141   1.591   3.914  0.7004 -2.1948  1.5664
 2045TIP3    H2 6142   3.042   1.659   4.005 -0.2991 -1.2016 -0.2206
 2046TIP3   OH2 6143   0.380   3.724   3.510 -0.0074 -0.0696 -0.5870
 2046TIP3    H1 6144   0.454   3.768   3.552 -0.3963 -0.0729  0.1173
 2046TIP3    H2 6145   0.348   3.664   3.577 -2.0941  1.5640 -0.0247
 2047TIP3   OH2 6146   0.992   3.442   4.637 -0.0273  0.3340 -0.1397
 2047TIP3    H1 6147   0.958   3.450   4.548 -0.5105  1.0522  0.0986
 2047TIP3    H2 6148   1.049   3.518   4.648  0.8287 -0.2878 -0.1662
 2048TIP3   OH2 6149   5.748   3.234   5.124  0.1992  0.2312 -0.3954
 2048TIP3    H1 6150   5.698   3.309   5.092 -1.4070 -0.4672  0.3174
 2048TIP3    H2 6151   5.714   3.160   5.074  2.0878  0.0032 -1.4157
 2049TIP3   OH2 6152   4.855   4.333   0.384  0.3038  0.6350  0.1016
 2049TIP3    H1 6153   4.927   4.391   0.358 -0.2439  0.9548 -0.7495
 2049TIP3    H2 6154   4.849   4.270   0.312  1.4720 -1.0796  1.4078
 2050TIP3   OH2 6155   5.837   1.192   0.848 -0.6010  0.1627 -0.3100
 2050TIP3    H1 6156   5.821   1.187   0.942  1.1246 -1.6678 -0.0415
 2050TIP3    H2 6157   5.923   1.234   0.841  0.4999 -2.0454 -0.8633
 2051TIP3   OH2 6158   3.256   0.588   1.839  0.9045  0.4427  0.0407
 2051TIP3    H1 6159   3.192   0.612   1.907  1.2855 -1.4048  1.1147
 2051TIP3    H2 6160   3.212   0.608   1.757 -0.9589 -0.4738  0.7586
 2052TIP3   OH2 6161   2.037   0.025   4.158 -0.4762  0.6234 -0.0664
 2052TIP3    H1 6162   2.014   0.070   4.077 -0.8029 -1.2068 -1.0238
 2052TIP3    H2 6163   2.124  -0.013   4.141 -1.5615 -1.8389 -0.5219
 2053TIP3   OH2 6164   2.602   2.322   0.547  0.4580 -0.2101 -0.0081
 2053TIP3    H1 6165   2.639   2.242   0.510 -0.3487 -1.1873  1.2247
 2053TIP3    H2 6166   2.509   2.303   0.559 -0.2363  1.6858 -1.6776
 2054TIP3   OH2 6167   0.529   2.985   0.799  0.5476  0.0979 -0.1491
 2054TIP3    H1 6168   0.609   3.016   0.843 -0.1774  1.7519  0.0839
 2054TIP3    H2 6169   0.458   3.018   0.854 -0.3554  1.1821 -1.8980
 2055TIP3   OH2 6170   2.957   5.790   2.987 -0.1372  0.3591  0.2106
 2055TIP3    H1 6171   2.882   5.790   2.928 -1.0094 -1.1275  1.2735
 2055TIP3    H2 6172   3.024   5.741   2.940 -0.4835  0.0537  0.0282
 2056TIP3   OH2 6173   5.955   4.708   2.643 -0.4168 -0.5375 -0.4459
 2056TIP3    H1 6174   5.889   4.758   2.690  0.5047 -0.6185  1.0235
 2056TIP3    H2 6175   6.038   4.747   2.670  0.3216 -2.5862  0.4879
 2057TIP3   OH2 6176   6.253   4.679   4.517 -0.1002 -0.0531  0.4496
 2057TIP3    H1 6177   6.240   4.626   4.595 -0.6144 -1.5677 -0.6072
 2057TIP3    H2 6178   6.318   4.630   4.466  0.4527  1.0582  0.0645
 2058TIP3   OH2 6179   5.860   4.521   3.335  0.3694  0.0716 -0.5769
 2058TIP3    H1 6180   5.912   4.600   3.321 -0.9432  1.0070 -0.3359
 2058TIP3    H2 6181   5.837   4.523   3.428  0.4575 -0.6966 -0.5280
 2059TIP3   OH2 6182   5.044   5.827   2.933 -0.3246  0.1858  0.1635
 2059TIP3    H1 6183   4.991   5.777   2.995 -0.6996  1.3908  0.8562
 2059TIP3    H2 6184   5.125   5.777   2.924 -1.1902 -1.2066 -0.1923
 2060TIP3   OH2 6185   5.232   0.527   4.822  0.0161  0.1687 -0.3594
 2060TIP3    H1 6186   5.208   0.444   4.781  1.1400  0.2744 -1.2618
 2060TIP3    H2 6187   5.310   0.557   4.774  0.0007  1.4368  0.3540
 2061TIP3   OH2 6188   4.899   1.976   2.915 -0.2180  0.3337  0.7748
 2061TIP3    H1 6189   4.989   1.970   2.947 -0.4184  0.3185  1.3488
 2061TIP3    H2 6190   4.888   1.900   2.858  0.7284  1.3417 -0.8548
 2062TIP3   OH2 6191   2.449   5.865   0.752 -0.1855  0.0643 -0.6835
 2062TIP3    H1 6192   2.363   5.832   0.726 -0.0113 -0.7504 -0.2799
 2062TIP3    H2 6193   2.454   5.845   0.846  0.2425  0.5634 -0.5976
 2063TIP3   OH2 6194   2.927   2.726   1.799  0.5258 -0.4989  0.1150
 2063TIP3    H1 6195   3.000   2.779   1.768 -0.8053  0.3888 -1.7128
 2063TIP3    H2 6196   2.950   2.636   1.776  0.5598 -0.0936 -1.5071
 2064TIP3   OH2 6197   0.351   3.194   2.612  0.1673 -0.2065 -0.3798
 2064TIP3    H1 6198   0.301   3.184   2.530 -1.0958  0.5739  0.2599
 2064TIP3    H2 6199   0.287   3.225   2.675  0.7267 -2.3483  1.3789
 2065TIP3   OH2 6200   2.237   3.856   4.413  0.2603  0.0574 -0.3453
 2065TIP3    H1 6201   2.155   3.901   4.392 -0.8123 -0.6276  2.0816
 2065TIP3    H2 6202   2.222   3.817   4.499  2.9332 -0.6413 -0.1129
 2066TIP3   OH2 6203   3.031   3.652   2.258  0.1961 -0.1358  0.6754
 2066TIP3    H1 6204   3.019   3.746   2.273  1.2669 -0.0431  1.0675
 2066TIP3    H2 6205   3.110   3.630   2.307  0.5122 -1.0431 -0.2026
 2067TIP3   OH2 6206   4.810   0.055   0.939  0.1623 -0.1074  0.3873
 2067TIP3    H1 6207   4.839  -0.027   0.899 -1.3438 -0.6177  0.2414
 2067TIP3    H2 6208   4.733   0.029   0.990 -0.3293  1.2224  0.3414
 2068TIP3   OH2 6209   0.653   2.621   3.240  0.3475 -0.0560  0.0196
 2068TIP3    H1 6210   0.583   2.619   3.175  0.3553  1.0137 -0.0376
 2068TIP3    H2 6211   0.659   2.713   3.266  0.4070 -0.4468  1.4715
 2069TIP3   OH2 6212   6.125   2.673   3.614  0.0350  0.0128 -0.1660
 2069TIP3    H1 6213   6.190   2.641   3.551 -0.2155 -1.9858  0.4950
 2069TIP3    H2 6214   6.163   2.651   3.700 -1.5624 -1.4661  0.2214
 2070TIP3   OH2 6215   2.268   4.554   3.674 -0.0350  0.5112 -0.0856
 2070TIP3    H1 6216   2.199   4.550   3.741 -0.0259  1.6853  0.0277
 2070TIP3    H2 6217   2.348   4.533   3.721 -0.3638 -1.5841 -0.3644
 2071TIP3   OH2 6218   6.349   2.895   4.275 -0.7491  0.1357  0.0295
 2071TIP3    H1 6219   6.360   2.877   4.182  0.1240 -0.8318  0.3010
 2071TIP3    H2 6220   6.292   2.826   4.307 -0.8638  0.3305  0.2532
 2072TIP3   OH2 6221   3.325   1.451   2.073 -0.4035 -0.3687 -0.0519
 2072TIP3    H1 6222   3.404   1.447   2.019 -0.2559 -1.5256  0.2303
 2072TIP3    H2 6223   3.354   1.490   2.156 -0.1598 -0.6200 -0.0167
 2073TIP3   OH2 6224   4.425   5.435   1.069  0.2941  0.7917 -0.1164
 2073TIP3    H1 6225   4.519   5.418   1.073  0.3912  1.3166 -0.1366
 2073TIP3    H2 6226   4.388   5.383   1.140  0.8040  1.9590  1.0416
 2074TIP3   OH2 6227   0.286   0.637   4.949  0.2349  0.3116  0.1652
 2074TIP3    H1 6228   0.329   0.722   4.938 -0.3839  0.4544 -1.5126
 2074TIP3    H2 6229   0.256   0.614   4.861  1.5223 -2.2652  0.2925
 2075TIP3   OH2 6230   1.818   4.569   2.411 -0.2862 -0.3788 -0.7840
 2075TIP3    H1 6231   1.858   4.524   2.336 -0.8754 -1.7336 -0.3115
 2075TIP3    H2 6232   1.852   4.658   2.406  1.8422 -1.1551 -1.1040
 2076TIP3   OH2 6233   4.757   0.766   1.358  0.0803  0.1810 -0.2250
 2076TIP3    H1 6234   4.802   0.786   1.441 -0.0572  1.4949 -0.4579
 2076TIP3    H2 6235   4.827   0.737   1.300  0.1007 -1.3786  0.5104
 2077TIP3   OH2 6236  -0.014   5.793   3.823  0.0664  0.1843 -0.3117
 2077TIP3    H1 6237   0.044   5.868   3.816 -0.1349  0.2514 -1.3676
 2077TIP3    H2 6238   0.024   5.739   3.892  1.2783  0.3090 -0.8662
 2078TIP3   OH2 6239   0.753   5.748   4.978  0.0636 -0.4600 -0.1800
 2078TIP3    H1 6240   0.771   5.661   5.013  2.1824  0.4803  1.2724
 2078TIP3    H2 6241   0.777   5.742   4.886 -0.5551 -1.5825 -0.2932
 2079TIP3   OH2 6242   5.437   3.253   3.896  0.3501 -0.0319 -0.0064
 2079TIP3    H1 6243   5.431   3.263   3.991 -1.7325  0.4881 -0.1432
 2079TIP3    H2 6244   5.395   3.332   3.861  2.0793  0.3465 -1.4043
 2080TIP3   OH2 6245   4.027   4.459   2.225  0.1338 -0.0329  0.1975
 2080TIP3    H1 6246   4.020   4.398   2.298 -0.3128  0.8665  0.9236
 2080TIP3    H2 6247   4.048   4.543   2.265  0.2144  0.4128 -0.7357
 2081TIP3   OH2 6248   4.234   4.025   0.388 -0.8641 -0.4087 -0.1362
 2081TIP3    H1 6249   4.289   4.027   0.466 -0.4223 -1.1370 -0.4259
 2081TIP3    H2 6250   4.184   4.107   0.393 -1.6266 -0.9255  1.4609
 2082TIP3   OH2 6251   1.684   5.676   2.023 -0.0068 -0.2315 -0.7185
 2082TIP3    H1 6252   1.764   5.639   1.986 -0.0137  0.6256 -1.6460
 2082TIP3    H2 6253   1.712   5.721   2.102  1.0197  2.6364 -2.5539
 2083TIP3   OH2 6254   5.702   5.531   3.825 -0.9561 -0.2940 -0.1281
 2083TIP3    H1 6255   5.631   5.536   3.761 -0.1675  0.6700 -0.9780
 2083TIP3    H2 6256   5.776   5.573   3.781 -0.4847  0.7423  1.5861
 2084TIP3   OH2 6257   4.041   2.607   0.737  0.5915 -0.2071  0.3712
 2084TIP3    H1 6258   4.082   2.555   0.806 -0.0943 -0.3988  0.6489
 2084TIP3    H2 6259   3.979   2.546   0.695  0.0355  0.2808  0.4693
 2085TIP3   OH2 6260   0.777   4.807   1.593 -0.4799  0.5366 -0.4512
 2085TIP3    H1 6261   0.844   4.809   1.661 -1.0675 -0.2255  0.1627
 2085TIP3    H2 6262   0.744   4.897   1.590 -0.6549  0.5166  0.4957
 2086TIP3   OH2 6263   5.400   0.873   0.300  0.2341  0.2930  0.0804
 2086TIP3    H1 6264   5.465   0.844   0.235  1.1758 -0.4795  1.3240
 2086TIP3    H2 6265   5.451   0.911   0.371 -0.8423  2.2292 -0.1030
 2087TIP3   OH2 6266   0.788   3.929   1.416  0.3503  0.0010 -0.0036
 2087TIP3    H1 6267   0.755   3.866   1.480 -1.1266 -0.8922 -1.5539
 2087TIP3    H2 6268   0.870   3.961   1.453 -0.2974 -0.7054  2.1620
 2088TIP3   OH2 6269   5.736   2.056   2.124  0.3555  0.2029 -0.4687
 2088TIP3    H1 6270   5.679   2.130   2.147 -0.8358 -0.4599 -1.2396
 2088TIP3    H2 6271   5.806   2.096   2.072  1.3212  1.2176  1.4916
 2089TIP3   OH2 6272   0.152   2.099   2.627  0.4916 -0.1719 -0.2183
 2089TIP3    H1 6273   0.220   2.047   2.671  0.8939  1.1061  0.7391
 2089TIP3    H2 6274   0.125   2.163   2.693 -0.4264  0.4382 -1.1666
 2090TIP3   OH2 6275   0.432   2.941   4.517 -0.5269  0.2578  0.2947
 2090TIP3    H1 6276   0.411   2.999   4.590  0.0635  1.4430 -0.4412
 2090TIP3    H2 6277   0.517   2.972   4.487 -0.5829 -0.4791 -0.6449
 2091TIP3   OH2 6278   5.374   0.882   1.015  0.4923 -0.7022 -0.8546
 2091TIP3    H1 6279   5.393   0.946   0.947 -1.1199  1.6266  0.7319
 2091TIP3    H2 6280   5.309   0.823   0.976 -2.0159  1.8457 -0.8212
 2092TIP3   OH2 6281   1.967   5.630   3.803 -0.0185 -0.3704 -0.0657
 2092TIP3    H1 6282   2.031   5.637   3.733  1.4476 -0.5041  1.2118
 2092TIP3    H2 6283   1.970   5.538   3.829 -0.4152 -0.2808  0.3020
 2093TIP3   OH2 6284   1.017   1.780   3.744 -0.0019  0.3021 -0.3265
 2093TIP3    H1 6285   0.925   1.804   3.737  0.0957  0.8295  0.1389
 2093TIP3    H2 6286   1.018   1.702   3.798 -0.2082  0.0543 -0.6786
 2094TIP3   OH2 6287   3.515   5.810   2.157 -0.3302  0.1960  0.2328
 2094TIP3    H1 6288   3.511   5.904   2.173  1.5837  0.2475  0.5824
 2094TIP3    H2 6289   3.538   5.802   2.064  0.5718  0.1019  0.4587
 2095TIP3   OH2 6290   4.723   3.779   2.153 -0.1705 -0.5656  0.5038
 2095TIP3    H1 6291   4.779   3.857   2.156  0.8259 -1.2868  1.9401
 2095TIP3    H2 6292   4.695   3.773   2.061  2.3389 -0.3241 -0.3527
 2096TIP3   OH2 6293   5.072   0.962   0.701 -0.0773 -0.1583 -0.5240
 2096TIP3    H1 6294   5.130   0.972   0.626 -0.6136  0.0288 -0.9143
 2096TIP3    H2 6295   4.985   0.983   0.668 -0.5109 -1.2866 -0.1699
 2097TIP3   OH2 6296   2.900   5.170   0.745  0.4041 -0.2682 -0.4390
 2097TIP3    H1 6297   2.995   5.169   0.760  0.5709 -0.6795 -1.4375
 2097TIP3    H2 6298   2.872   5.081   0.763 -0.1231  0.2458  1.6146
 2098TIP3   OH2 6299   2.125   5.019   5.105  0.0927  0.2484  0.5000
 2098TIP3    H1 6300   2.073   4.965   5.164 -0.2722  0.1132  0.0620
 2098TIP3    H2 6301   2.072   5.026   5.026  1.1753 -0.7439 -0.3443
 2099TIP3   OH2 6302   2.069   0.277   0.045 -1.0292 -0.0381  0.2017
 2099TIP3    H1 6303   2.148   0.261  -0.006 -2.8738 -1.6617 -2.4041
 2099TIP3    H2 6304   2.085   0.233   0.129  0.3146 -1.5891 -0.8118
 2100TIP3   OH2 6305   0.335   1.016   1.422  0.5774 -0.3234  0.1911
 2100TIP3    H1 6306   0.242   1.038   1.412  0.5979  0.5433  1.6153
 2100TIP3    H2 6307   0.380   1.100   1.417  1.0926 -0.5087  1.3820
 2101TIP3   OH2 6308   5.808   3.573   1.325 -0.9973  0.4815 -0.3536
 2101TIP3    H1 6309   5.741   3.544   1.387  1.2658 -0.8101  1.6563
 2101TIP3    H2 6310   5.811   3.668   1.335 -1.6502  0.4242  0.4902
 2102TIP3   OH2 6311   5.750   3.033   0.464  0.1683  0.1212  0.5917
 2102TIP3    H1 6312   5.747   2.950   0.512  3.8376 -0.5658 -0.0806
 2102TIP3    H2 6313   5.726   3.009   0.374  1.7574 -0.3969  0.2755
 2103TIP3   OH2 6314   1.473   2.877   2.709  0.6401  0.4093 -0.7734
 2103TIP3    H1 6315   1.404   2.855   2.771  0.8274 -2.9211 -1.5543
 2103TIP3    H2 6316   1.429   2.879   2.624  1.0514  1.0419 -0.9798
 2104TIP3   OH2 6317   5.176   0.120   4.000  0.0999  0.3250 -0.0621
 2104TIP3    H1 6318   5.180   0.207   3.962  0.4598 -0.0311 -0.8613
 2104TIP3    H2 6319   5.154   0.135   4.092  3.4981  1.5114  0.7277
 2105TIP3   OH2 6320   0.891   3.532   5.133  0.2219 -0.5008  0.7640
 2105TIP3    H1 6321   0.806   3.577   5.125 -0.5121 -1.8786  0.4841
 2105TIP3    H2 6322   0.897   3.478   5.054  0.4789 -1.8419  1.6693
 2106TIP3   OH2 6323   1.212   2.002   3.388  0.0873 -0.1762 -0.3896
 2106TIP3    H1 6324   1.150   1.954   3.332  1.8262  0.2441 -2.8699
 2106TIP3    H2 6325   1.284   2.025   3.329  1.6499  1.1479  1.8812
 2107TIP3   OH2 6326   0.588   0.629   1.741  0.4770  0.6513 -0.3126
 2107TIP3    H1 6327   0.645   0.669   1.675  1.4092 -1.3709 -0.8277
 2107TIP3    H2 6328   0.646   0.610   1.814  0.6449 -1.7835 -0.9930
 2108TIP3   OH2 6329   3.877   3.591   0.264 -0.4035  0.4056  0.7380
 2108TIP3    H1 6330   3.915   3.618   0.348 -1.5759 -0.1257  1.4670
 2108TIP3    H2 6331   3.802   3.536   0.288  1.1716 -2.6231 -0.6359
 2109TIP3   OH2 6332   2.342   1.862   1.337  0.1203 -0.0919 -0.6396
 2109TIP3    H1 6333   2.346   1.830   1.427  0.4177 -0.6054 -0.8328
 2109TIP3    H2 6334   2.433   1.879   1.314  0.0337  0.1446 -0.8086
 2110TIP3   OH2 6335   1.318   1.637   1.051  0.3019  0.4478  0.9332
 2110TIP3    H1 6336   1.307   1.637   0.956 -0.4824 -1.0811  0.9828
 2110TIP3    H2 6337   1.361   1.553   1.070 -0.1234  0.4451  1.9678
 2111TIP3   OH2 6338   2.408   4.902   0.342  0.1401 -0.5179 -0.1154
 2111TIP3    H1 6339   2.425   4.825   0.397 -0.3521 -0.7537 -0.2813
 2111TIP3    H2 6340   2.333   4.876   0.288 -1.0463  0.6332  0.9120
 2112TIP3   OH2 6341   5.184   3.225   2.182 -0.0110 -0.1489  0.1023
 2112TIP3    H1 6342   5.111   3.165   2.169 -0.2216  0.2155 -0.4053
 2112TIP3    H2 6343   5.196   3.228   2.277 -2.0984  1.5158  0.3593
 2113TIP3   OH2 6344   2.165   2.272   2.605 -0.9326  0.7488  0.9750
 2113TIP3    H1 6345   2.242   2.328   2.590  0.0584 -0.6811  0.5074
 2113TIP3    H2 6346   2.191   2.215   2.677 -0.5020 -1.4592 -0.7915
 2114TIP3   OH2 6347   0.454   3.320   1.037  0.1583 -0.0491  0.1075
 2114TIP3    H1 6348   0.413   3.377   0.972  2.2133 -0.1049 -1.3801
 2114TIP3    H2 6349   0.496   3.380   1.099  0.2648  0.0556 -0.0622
 2115TIP3   OH2 6350   0.874   4.361   4.178  0.0285  0.4440  0.5525
 2115TIP3    H1 6351   0.950   4.321   4.220 -0.7223 -0.6775  0.8986
 2115TIP3    H2 6352   0.830   4.288   4.134 -1.4222  0.8694  1.2399
 2116TIP3   OH2 6353   0.584   0.443   5.062  0.0595 -0.0928 -0.0742
 2116TIP3    H1 6354   0.554   0.353   5.070 -1.3332  0.1757 -1.6211
 2116TIP3    H2 6355   0.601   0.455   4.968  2.0774  0.7305  0.3349
 2117TIP3   OH2 6356   5.272   4.402   2.790 -0.0184 -0.2992 -0.1108
 2117TIP3    H1 6357   5.290   4.326   2.846 -1.1871 -0.1373  0.5375
 2117TIP3    H2 6358   5.178   4.396   2.771  0.2185  0.0470 -1.4932
 2118TIP3   OH2 6359   4.574   3.681   1.653  0.0957  0.4056  0.1118
 2118TIP3    H1 6360   4.666   3.679   1.677  0.4347  0.5745 -1.1069
 2118TIP3    H2 6361   4.572   3.646   1.564 -1.0199  0.3864  0.1320
 2119TIP3   OH2 6362   5.410   0.169   1.970  0.3430  0.0424 -0.3577
 2119TIP3    H1 6363   5.470   0.112   1.922 -1.8275 -2.5429 -0.2887
 2119TIP3    H2 6364   5.440   0.164   2.061  1.4729  0.8350 -0.6733
 2120TIP3   OH2 6365   0.187   2.472   0.664 -0.0269 -0.5015 -0.2035
 2120TIP3    H1 6366   0.257   2.446   0.604  1.0974 -0.1557  0.9316
 2120TIP3    H2 6367   0.139   2.391   0.682  0.3204 -0.8169 -0.6751
 2121TIP3   OH2 6368   2.330   0.853   3.419 -0.2829  0.3170  0.0492
 2121TIP3    H1 6369   2.317   0.819   3.507 -0.1832  0.7271  0.2227
 2121TIP3    H2 6370   2.271   0.801   3.364  0.8134 -1.0318  0.1013
 2122TIP3   OH2 6371   0.024   1.499   4.322  0.3668 -0.5578  0.2268
 2122TIP3    H1 6372  -0.035   1.424   4.320 -0.0327 -0.3561 -3.7387
 2122TIP3    H2 6373   0.098   1.470   4.376 -0.2229 -3.4366 -0.3322
 2123TIP3   OH2 6374   4.952   5.666   3.162 -0.4751 -0.7528 -0.1639
 2123TIP3    H1 6375   4.929   5.574   3.175  1.4127 -1.2058  0.2966
 2123TIP3    H2 6376   4.935   5.706   3.247  1.1899 -1.2921  0.4737
 2124TIP3   OH2 6377   4.006   1.975   2.670 -0.0301  0.2885  0.1129
 2124TIP3    H1 6378   3.999   2.004   2.760  2.3409  0.3504  0.3342
 2124TIP3    H2 6379   4.075   2.029   2.632  0.1146 -0.8012 -1.2809
 2125TIP3   OH2 6380   6.005   0.977   3.887  0.2718  0.2855  0.2488
 2125TIP3    H1 6381   6.018   0.977   3.792 -0.5548 -1.4043  0.0916
 2125TIP3    H2 6382   5.952   1.055   3.904 -0.1927  0.2164 -0.8001
 2126TIP3   OH2 6383   1.886   1.385   4.297  0.3096  0.3656 -0.1771
 2126TIP3    H1 6384   1.844   1.391   4.211  0.1629 -1.1506 -0.2316
 2126TIP3    H2 6385   1.912   1.293   4.305  0.5899  0.5476  1.2781
 2127TIP3   OH2 6386   5.147   2.175   0.072 -0.4149 -0.2104  0.3978
 2127TIP3    H1 6387   5.206   2.101   0.062 -2.4032 -2.0873  1.6510
 2127TIP3    H2 6388   5.168   2.211   0.158 -1.4770 -1.3427  1.1750
 2128TIP3   OH2 6389   0.872   4.731   2.306  0.0492  0.6982 -0.1746
 2128TIP3    H1 6390   0.916   4.734   2.221 -1.2695  0.9454 -0.8820
 2128TIP3    H2 6391   0.901   4.810   2.351  1.1872  0.2877 -0.1614
 2129TIP3   OH2 6392   5.235   0.506   2.893 -0.6980 -0.2085  0.1994
 2129TIP3    H1 6393   5.224   0.537   2.983  1.2429 -1.4943  0.9409
 2129TIP3    H2 6394   5.330   0.503   2.879 -0.9487 -0.1626 -1.8597
 2130TIP3   OH2 6395   1.351   2.341   0.278 -0.6352 -0.1570  0.0794
 2130TIP3    H1 6396   1.379   2.250   0.277 -2.2739 -0.6959  0.1766
 2130TIP3    H2 6397   1.421   2.388   0.324 -0.2697 -1.5368  0.9716
 2131TIP3   OH2 6398   1.481   5.514   0.203 -0.1925  0.3404  0.1852
 2131TIP3    H1 6399   1.453   5.528   0.113 -2.1004  0.5310  0.7621
 2131TIP3    H2 6400   1.495   5.419   0.210 -2.7768 -0.1232  0.3402
 2132TIP3   OH2 6401   0.560   5.661   3.411  0.0674  0.3298 -0.4892
 2132TIP3    H1 6402   0.476   5.646   3.367 -0.3515 -0.6602  0.5887
 2132TIP3    H2 6403   0.626   5.632   3.349 -0.3167  1.9661 -1.7136
 2133TIP3   OH2 6404   2.415   2.650   0.156 -0.1984  0.7178 -0.1708
 2133TIP3    H1 6405   2.417   2.560   0.125  4.5481  0.9647 -1.2819
 2133TIP3    H2 6406   2.423   2.644   0.251  2.9296 -0.1649 -0.4125
 2134TIP3   OH2 6407   0.043   2.933   5.099  0.5597  0.1241 -0.1137
 2134TIP3    H1 6408   0.099   2.892   5.032  0.0916 -0.6820 -0.0214
 2134TIP3    H2 6409   0.019   3.018   5.061  0.9483  0.0130 -0.6275
 2135TIP3   OH2 6410   0.608   3.456   4.758  0.5006  0.2733  0.3222
 2135TIP3    H1 6411   0.627   3.546   4.782 -0.8503  0.7982 -0.4232
 2135TIP3    H2 6412   0.514   3.446   4.775  0.6348 -1.0071  0.4266
 2136TIP3   OH2 6413   3.813   0.102   3.319  0.7127 -0.4004 -0.1348
 2136TIP3    H1 6414   3.742   0.167   3.316  1.3427  0.2608 -1.4320
 2136TIP3    H2 6415   3.771   0.020   3.294  0.0262 -0.4079  0.9609
 2137TIP3   OH2 6416   5.805   4.902   2.775  0.7803 -0.4530  0.3615
 2137TIP3    H1 6417   5.734   4.958   2.742  1.9885 -0.9592 -3.6914
 2137TIP3    H2 6418   5.877   4.962   2.793  0.8599 -0.3338 -0.3194
 2138TIP3   OH2 6419   2.601   2.238   3.691  0.1391  0.3633  0.8166
 2138TIP3    H1 6420   2.678   2.184   3.672  0.4066 -0.5835  4.0125
 2138TIP3    H2 6421   2.547   2.231   3.612  1.6248 -1.9840 -0.1087
 2139TIP3   OH2 6422   2.403   2.272   2.974  0.2227  0.3930 -0.3143
 2139TIP3    H1 6423   2.452   2.287   2.892  1.2527 -1.7882 -0.1484
 2139TIP3    H2 6424   2.467   2.234   3.034 -1.2197 -0.7926  0.5394
 2140TIP3   OH2 6425   1.752   2.668   3.828 -0.0453  0.2326  0.4181
 2140TIP3    H1 6426   1.742   2.587   3.878 -0.7400  0.0821  0.0598
 2140TIP3    H2 6427   1.768   2.638   3.738  1.7600  0.4929  0.6199
 2141TIP3   OH2 6428   4.522   1.003   4.519  0.0499 -0.0812 -0.1529
 2141TIP3    H1 6429   4.561   1.052   4.591 -0.7893  0.3492  0.0268
 2141TIP3    H2 6430   4.446   1.055   4.493 -0.4415 -0.9205 -0.4490
 2142TIP3   OH2 6431   4.167   1.744   4.275 -0.2383  0.2046 -0.4508
 2142TIP3    H1 6432   4.074   1.722   4.285 -0.2265  0.2795 -0.1585
 2142TIP3    H2 6433   4.199   1.681   4.211 -0.4385  0.0272 -0.3801
 2143TIP3   OH2 6434   5.953   0.390   5.086  0.0115 -0.3826  0.4801
 2143TIP3    H1 6435   5.874   0.353   5.124 -2.6412  2.0222 -2.1688
 2143TIP3    H2 6436   6.001   0.315   5.051 -1.9448 -1.8124  0.7484
 2144TIP3   OH2 6437   4.834   3.049   5.087  0.3487  0.1017 -0.8936
 2144TIP3    H1 6438   4.752   3.004   5.106  0.1852  0.4303 -0.8054
 2144TIP3    H2 6439   4.872   3.066   5.173  1.5520 -1.9154 -0.9721
 2145TIP3   OH2 6440   5.510   2.572   1.704  0.1334 -0.4524 -0.0996
 2145TIP3    H1 6441   5.569   2.641   1.734 -1.1213  0.3844  0.5135
 2145TIP3    H2 6442   5.468   2.539   1.784 -1.3443  0.0212 -0.6492
 2146TIP3   OH2 6443   2.125   2.685   0.560 -0.3835  0.0449  0.2692
 2146TIP3    H1 6444   2.051   2.627   0.579 -1.0186  0.4212 -0.9223
 2146TIP3    H2 6445   2.130   2.743   0.636 -1.2204 -0.0840  0.4364
 2147TIP3   OH2 6446   3.193   5.802   0.964 -0.4272 -0.1626  0.1283
 2147TIP3    H1 6447   3.225   5.858   1.035 -1.8876  0.1899  0.5452
 2147TIP3    H2 6448   3.200   5.856   0.886 -0.4129  0.0565  0.2802
 2148TIP3   OH2 6449   5.960   5.820   5.036 -0.5913 -0.3901 -0.0543
 2148TIP3    H1 6450   5.930   5.766   5.109 -2.5160 -0.5440 -0.8953
 2148TIP3    H2 6451   6.054   5.831   5.051 -0.9507 -0.1553  2.6138
 2149TIP3   OH2 6452   3.762   3.812   4.949 -0.1604  0.0631  0.5861
 2149TIP3    H1 6453   3.738   3.829   5.040  1.1605 -1.3113  1.2385
 2149TIP3    H2 6454   3.803   3.725   4.952 -0.4101 -0.1518 -1.3815
 2150TIP3   OH2 6455   4.033   1.096   3.121  0.4281 -0.0020  0.7191
 2150TIP3    H1 6456   3.972   1.147   3.175  0.0583  0.2018  0.1185
 2150TIP3    H2 6457   4.074   1.160   3.063  1.8437  0.0006  1.6616
 2151TIP3   OH2 6458   1.337   4.684   4.601 -0.2150 -0.2135 -0.0410
 2151TIP3    H1 6459   1.266   4.744   4.581  1.1391  0.8079 -2.0399
 2151TIP3    H2 6460   1.310   4.601   4.563 -0.7275 -0.0799  0.0295
 2152TIP3   OH2 6461   5.264   2.799   4.469 -0.3726  0.3927 -0.4759
 2152TIP3    H1 6462   5.204   2.862   4.430  1.0414  1.1114 -1.6045
 2152TIP3    H2 6463   5.349   2.818   4.429  0.4778 -1.0576  0.5027
 2153TIP3   OH2 6464   5.912   1.006   0.314  0.2748  0.6831  0.4679
 2153TIP3    H1 6465   5.895   0.945   0.243 -1.9896  0.4709  1.0945
 2153TIP3    H2 6466   5.987   0.969   0.361 -0.8406 -1.5064  0.6606
 2154TIP3   OH2 6467   1.722   1.899   1.209  0.2847 -0.2469 -0.7548
 2154TIP3    H1 6468   1.664   1.969   1.179  0.2215  0.8218  1.6286
 2154TIP3    H2 6469   1.673   1.856   1.279  1.8181 -0.1343  0.4509
 2155TIP3   OH2 6470   1.933   3.944   0.738  0.0069  0.2161 -0.1105
 2155TIP3    H1 6471   1.929   4.032   0.777 -0.7783 -0.4177  1.3712
 2155TIP3    H2 6472   1.842   3.914   0.739  0.2382 -0.5445 -0.7713
 2156TIP3   OH2 6473   4.546   0.718   2.126 -0.1268 -0.3959 -0.0077
 2156TIP3    H1 6474   4.615   0.696   2.063 -0.1612  0.8695 -0.5061
 2156TIP3    H2 6475   4.473   0.749   2.073 -1.0243 -1.5051  0.5303
 2157TIP3   OH2 6476   5.901   2.951   2.187  0.2578 -0.8411 -0.5196
 2157TIP3    H1 6477   5.935   2.988   2.269 -1.8133 -0.1271  0.0880
 2157TIP3    H2 6478   5.919   2.857   2.194  0.0360 -0.8024  0.8136
 2158TIP3   OH2 6479   5.067   4.515   0.318 -0.1932 -0.3430  0.0127
 2158TIP3    H1 6480   5.012   4.566   0.377 -1.0955 -0.6649 -0.5381
 2158TIP3    H2 6481   5.109   4.580   0.262 -0.9896 -0.1731 -0.3930
 2159TIP3   OH2 6482   4.701   5.351   1.063 -0.7606 -0.2017 -0.2986
 2159TIP3    H1 6483   4.701   5.278   1.001  0.3324 -0.8124  0.3835
 2159TIP3    H2 6484   4.725   5.311   1.146 -1.1472  0.7828  0.2950
 2160TIP3   OH2 6485   2.668   2.510   1.023  0.0832 -0.0026 -0.1735
 2160TIP3    H1 6486   2.621   2.570   0.964  1.0640  0.7510 -0.2087
 2160TIP3    H2 6487   2.669   2.427   0.976  1.5738  0.7892 -1.6462
 2161TIP3   OH2 6488   4.182   1.910   1.072 -0.2525  0.3802 -0.1359
 2161TIP3    H1 6489   4.234   1.830   1.072 -0.3053  0.3388  0.6539
 2161TIP3    H2 6490   4.101   1.886   1.117  0.1482  1.1313  1.0345
 2162TIP3   OH2 6491   4.456   1.885   1.692  0.3878 -0.0161  0.1469
 2162TIP3    H1 6492   4.442   1.980   1.697 -1.4200 -0.2435 -0.2243
 2162TIP3    H2 6493   4.539   1.872   1.739  0.7096  1.7378  0.1627
 2163TIP3   OH2 6494   0.568   0.594   2.304  0.2359  0.0458 -0.5898
 2163TIP3    H1 6495   0.496   0.605   2.242 -1.9055 -1.5477  1.4054
 2163TIP3    H2 6496   0.538   0.639   2.383  1.7660 -0.0435  0.0682
 2164TIP3   OH2 6497   5.898   1.424   2.993  0.5320 -0.1507 -0.7814
 2164TIP3    H1 6498   5.993   1.417   2.999  0.5593  0.8343  0.2011
 2164TIP3    H2 6499   5.867   1.333   3.001  1.3935 -0.5295 -1.6031
 2165TIP3   OH2 6500   5.124   2.943   4.764  0.2288  0.6095 -0.0654
 2165TIP3    H1 6501   5.077   3.026   4.770 -0.4285  0.1828  0.7781
 2165TIP3    H2 6502   5.071   2.880   4.813  1.4128 -0.0003  0.5012
 2166TIP3   OH2 6503   5.633   5.804   4.748  0.1024 -0.2543  0.0831
 2166TIP3    H1 6504   5.629   5.838   4.658  2.0004 -1.8610 -0.6580
 2166TIP3    H2 6505   5.609   5.880   4.802 -4.3339 -0.0078 -1.7896
 2167TIP3   OH2 6506   4.471   0.582   5.068  0.1260  0.1003 -0.2136
 2167TIP3    H1 6507   4.547   0.556   5.120 -1.3617 -2.2561  0.9461
 2167TIP3    H2 6508   4.440   0.663   5.110  1.0967  0.2611  0.2222
 2168TIP3   OH2 6509   1.041   2.610   1.207 -0.6851 -0.1012  0.1816
 2168TIP3    H1 6510   1.076   2.557   1.135  1.6964 -0.2432  1.3297
 2168TIP3    H2 6511   1.015   2.546   1.273  1.5675  0.0228  1.2958
 2169TIP3   OH2 6512   5.883   4.386   1.222  0.2380 -0.3526 -0.1479
 2169TIP3    H1 6513   5.796   4.352   1.241 -0.5138  1.8132  0.4600
 2169TIP3    H2 6514   5.891   4.466   1.274  3.4794 -1.6022  1.5965
 2170TIP3   OH2 6515   4.616   2.479   1.494  0.2834 -0.1356 -0.4263
 2170TIP3    H1 6516   4.655   2.488   1.407  1.0606 -0.4930 -0.1204
 2170TIP3    H2 6517   4.531   2.523   1.487  1.0351  1.3010 -0.9131
 2171TIP3   OH2 6518   1.999   0.767   2.909  0.0464  0.4085 -0.3052
 2171TIP3    H1 6519   2.041   0.841   2.865  0.3817  0.1139 -0.4845
 2171TIP3    H2 6520   1.943   0.808   2.975 -2.8712  1.0640 -2.9328
 2172TIP3   OH2 6521   0.861   0.682   3.785 -0.9656 -0.4200  0.6326
 2172TIP3    H1 6522   0.887   0.596   3.819  0.5598 -0.1987  0.1019
 2172TIP3    H2 6523   0.865   0.740   3.860 -1.6324 -0.7309  0.9159
 2173TIP3   OH2 6524   4.319   3.084   3.990 -0.0640 -0.3681  0.7171
 2173TIP3    H1 6525   4.345   3.069   3.899 -1.2794  0.8719  0.1232
 2173TIP3    H2 6526   4.335   3.178   4.003 -2.6297  0.1244  0.8031
 2174TIP3   OH2 6527   1.253   5.366   1.836  0.3393  0.1193 -0.4738
 2174TIP3    H1 6528   1.270   5.349   1.744 -0.8242  1.4970 -0.9729
 2174TIP3    H2 6529   1.339   5.388   1.872  0.6991  0.2372 -1.3815
 2175TIP3   OH2 6530   1.792   2.410   2.219 -0.5477  0.2568 -0.0140
 2175TIP3    H1 6531   1.815   2.500   2.194 -1.3388  0.9827  1.7050
 2175TIP3    H2 6532   1.744   2.420   2.301 -2.8610 -1.5412 -1.0290
 2176TIP3   OH2 6533   2.477  -0.018   1.818 -0.0354  0.4035  0.1677
 2176TIP3    H1 6534   2.420   0.058   1.806 -0.8908 -0.1387  0.6333
 2176TIP3    H2 6535   2.559   0.018   1.851  0.5328  1.3868 -2.1039
 2177TIP3   OH2 6536   2.190   1.018   3.753 -0.2025 -0.0008  0.8610
 2177TIP3    H1 6537   2.176   1.012   3.847 -0.1738 -2.6957  0.7851
 2177TIP3    H2 6538   2.130   1.086   3.723  0.4930  1.6084  2.9177
 2178TIP3   OH2 6539   5.225   3.471   0.670 -0.0891 -0.0324  0.4527
 2178TIP3    H1 6540   5.173   3.391   0.668 -0.8195  0.4395 -0.2468
 2178TIP3    H2 6541   5.161   3.541   0.659  0.7079  0.5536 -0.7233
 2179TIP3   OH2 6542   2.583   5.386   2.762  0.0189  0.2271 -1.0828
 2179TIP3    H1 6543   2.534   5.330   2.822 -2.8728  2.1591 -1.4403
 2179TIP3    H2 6544   2.564   5.352   2.675 -0.7428  1.0117 -1.2283
 2180TIP3   OH2 6545   1.670   2.902   0.974  0.8495 -0.4882  0.2916
 2180TIP3    H1 6546   1.716   2.827   0.937  0.2311 -0.9815  0.4997
 2180TIP3    H2 6547   1.638   2.871   1.059  0.7040  0.0540  0.4412
 2181TIP3   OH2 6548   4.118   1.243   0.360 -0.2357 -0.1837 -0.2144
 2181TIP3    H1 6549   4.074   1.327   0.354 -0.1696 -0.1999 -1.2199
 2181TIP3    H2 6550   4.147   1.225   0.270  0.9510 -0.6354  0.2403
 2182TIP3   OH2 6551   3.110   1.408   4.280  0.4286  0.3644 -0.2359
 2182TIP3    H1 6552   3.191   1.460   4.286  0.1361  0.8190 -0.1912
 2182TIP3    H2 6553   3.132   1.337   4.219  1.9778 -1.6141  2.4082
 2183TIP3   OH2 6554   1.931   0.690   3.700  0.2051  0.6125 -0.5846
 2183TIP3    H1 6555   1.882   0.757   3.747  1.5180  0.3982  1.1909
 2183TIP3    H2 6556   1.876   0.612   3.704  0.7688  0.2459  1.7866
 2184TIP3   OH2 6557   4.266   3.031   2.920 -0.5798 -0.0002 -0.8511
 2184TIP3    H1 6558   4.335   3.016   2.855 -0.9519 -2.3700 -0.7805
 2184TIP3    H2 6559   4.284   3.118   2.954  1.8431 -0.1883 -1.4735
 2185TIP3   OH2 6560   2.429   2.515   2.266  0.4623  0.3535  0.3171
 2185TIP3    H1 6561   2.451   2.588   2.324  0.7781  0.9162 -0.4919
 2185TIP3    H2 6562   2.500   2.452   2.279 -0.1168 -0.1025  1.4606
 2186TIP3   OH2 6563   2.721   4.164   1.710 -0.6016  0.2335 -0.0581
 2186TIP3    H1 6564   2.811   4.196   1.713 -0.4082 -0.2641 -0.4176
 2186TIP3    H2 6565   2.673   4.221   1.770  0.2934 -0.5747  1.5226
 2187TIP3   OH2 6566   5.234   1.401   3.470 -0.3609 -0.3331 -0.2655
 2187TIP3    H1 6567   5.195   1.358   3.394 -2.0619  0.1585  0.2690
 2187TIP3    H2 6568   5.160   1.447   3.511  0.5481 -0.4489  1.5824
 2188TIP3   OH2 6569   0.070   5.630   4.092  0.1598 -0.0069 -0.1280
 2188TIP3    H1 6570   0.097   5.538   4.100  0.2953  0.1239  1.1961
 2188TIP3    H2 6571  -0.022   5.630   4.118  0.3364  0.3256  0.5027
 2189TIP3   OH2 6572   2.699   1.768   4.915  0.3356 -0.4140  0.1038
 2189TIP3    H1 6573   2.649   1.830   4.969  1.6802  0.6282  0.2031
 2189TIP3    H2 6574   2.723   1.818   4.837 -0.0172 -1.3570 -0.6259
 2190TIP3   OH2 6575   4.000   2.960   3.772  0.1993  0.2230  0.4581
 2190TIP3    H1 6576   3.924   2.904   3.787 -0.4727  1.0442  0.1944
 2190TIP3    H2 6577   4.019   2.951   3.679  1.1466 -0.8447  0.7201
 2191TIP3   OH2 6578   5.742   1.189   3.296 -0.4582 -0.6277 -0.2461
 2191TIP3    H1 6579   5.783   1.216   3.215  1.5424 -2.7210 -0.0448
 2191TIP3    H2 6580   5.814   1.179   3.358 -1.3978 -2.8892  0.6129
 2192TIP3   OH2 6581   0.484   0.771   0.390 -0.0814 -0.1749 -0.0199
 2192TIP3    H1 6582   0.527   0.717   0.456 -0.1480 -0.6016 -0.3201
 2192TIP3    H2 6583   0.391   0.768   0.413 -0.3001 -1.5015 -0.9390
 2193TIP3   OH2 6584   5.328   5.557   4.621 -0.6334  0.5868 -0.1693
 2193TIP3    H1 6585   5.422   5.577   4.621 -0.8453  1.6147 -0.3034
 2193TIP3    H2 6586   5.319   5.489   4.688  0.5203 -1.1241 -1.6440
 2194TIP3   OH2 6587   2.385   5.402   5.087  0.5403  0.1316  0.2872
 2194TIP3    H1 6588   2.306   5.376   5.135  0.9539 -0.7489  0.4938
 2194TIP3    H2 6589   2.376   5.361   5.001  0.7049  0.1654  0.2536
 2195TIP3   OH2 6590   4.058   2.048   0.640 -0.0368 -0.3081 -0.1498
 2195TIP3    H1 6591   4.114   2.050   0.719 -0.7615  0.7497  0.3570
 2195TIP3    H2 6592   3.969   2.044   0.674 -0.3750  0.4867 -0.9117
 2196TIP3   OH2 6593   3.796   3.102   2.656 -0.1106 -0.1364 -0.2404
 2196TIP3    H1 6594   3.836   3.101   2.569  0.0901  0.4821 -0.1648
 2196TIP3    H2 6595   3.722   3.043   2.649 -1.1658  1.2302 -1.3679
 2197TIP3   OH2 6596   5.832   5.524   1.497 -0.0562  0.0803  0.3317
 2197TIP3    H1 6597   5.771   5.543   1.568  0.2241  0.3691  0.4971
 2197TIP3    H2 6598   5.809   5.586   1.428  0.2848  0.4260  0.5315
 2198TIP3   OH2 6599   5.555   2.207   0.558 -0.2499 -0.6213  0.3967
 2198TIP3    H1 6600   5.567   2.177   0.648  1.2034 -3.3039 -0.5595
 2198TIP3    H2 6601   5.555   2.126   0.506 -2.0478  0.7578 -1.9396
 2199TIP3   OH2 6602   3.515   5.994   5.198 -0.1766 -0.1382  0.1021
 2199TIP3    H1 6603   3.451   5.938   5.243  0.1643 -1.2145 -0.7033
 2199TIP3    H2 6604   3.537   5.946   5.118  1.6361  0.1947  0.3511
 2200TIP3   OH2 6605   0.433   0.685   2.541  0.2107  0.1477  0.7665
 2200TIP3    H1 6606   0.388   0.705   2.623 -1.0895  0.2555  0.0575
 2200TIP3    H2 6607   0.364   0.652   2.484  0.9412  0.8684 -0.5689
 2201TIP3   OH2 6608   4.545   2.397   0.807 -0.4219  0.0889 -0.3822
 2201TIP3    H1 6609   4.493   2.462   0.760 -0.8059 -0.6070 -0.9425
 2201TIP3    H2 6610   4.624   2.445   0.834 -0.0760  0.4735 -1.9284
 2202TIP3   OH2 6611   4.173   3.833   5.116  0.7807  0.1742 -0.9218
 2202TIP3    H1 6612   4.235   3.887   5.165 -0.0376 -0.0405  0.3775
 2202TIP3    H2 6613   4.187   3.744   5.149  0.5519 -0.0510 -1.4229
 2203TIP3   OH2 6614   6.274   5.183   4.031 -0.0797 -0.1527  0.0716
 2203TIP3    H1 6615   6.360   5.227   4.027 -0.1492  0.0179  0.3868
 2203TIP3    H2 6616   6.239   5.209   4.116 -1.0471  0.9006 -0.6277
 2204TIP3   OH2 6617   3.603   1.735   0.190  0.0922 -0.1435 -0.0183
 2204TIP3    H1 6618   3.578   1.826   0.174  1.4884  0.5072  1.2325
 2204TIP3    H2 6619   3.698   1.737   0.195  0.1385 -1.6553  0.2282
 2205TIP3   OH2 6620   5.837   0.486   2.412 -0.0079  0.0915  0.1082
 2205TIP3    H1 6621   5.906   0.461   2.474 -0.4549  0.3907  0.7455
 2205TIP3    H2 6622   5.881   0.494   2.328  0.8628  0.9174  0.6264
 2206TIP3   OH2 6623   0.959   2.822   0.120 -0.6543  0.4446 -0.0961
 2206TIP3    H1 6624   0.883   2.768   0.099 -1.0443  1.4785 -1.4333
 2206TIP3    H2 6625   1.024   2.800   0.053 -0.6507  1.2846 -0.3796
 2207TIP3   OH2 6626   5.079   4.185   1.825  0.0787  0.2575 -0.9329
 2207TIP3    H1 6627   5.029   4.265   1.808  0.6192  0.8060 -0.0411
 2207TIP3    H2 6628   5.133   4.174   1.747 -1.5557 -0.4728 -2.0101
 2208TIP3   OH2 6629   3.997   0.497   2.827  0.5460  0.0596 -0.1165
 2208TIP3    H1 6630   4.050   0.441   2.769 -1.2920 -2.1339  0.1945
 2208TIP3    H2 6631   4.001   0.584   2.786  3.0385 -0.3659 -0.9499
 2209TIP3   OH2 6632   6.327   5.816   0.673  0.2381  0.5043  0.0870
 2209TIP3    H1 6633   6.238   5.804   0.707  0.0500 -1.3949 -0.9592
 2209TIP3    H2 6634   6.368   5.877   0.734 -1.6923  1.2051  0.7394
 2210TIP3   OH2 6635   0.436   4.486   4.424  0.7878 -0.3441 -0.1791
 2210TIP3    H1 6636   0.482   4.566   4.450 -1.7862  0.9756  0.7747
 2210TIP3    H2 6637   0.370   4.516   4.362 -1.0628 -1.4435  1.1223
 2211TIP3   OH2 6638   0.816   0.647   4.126 -0.3993  0.0817  0.0289
 2211TIP3    H1 6639   0.750   0.664   4.193  0.0325 -0.4582  0.6048
 2211TIP3    H2 6640   0.876   0.721   4.131 -0.7606  0.3955 -0.2514
 2212TIP3   OH2 6641   5.236   4.233   4.786 -0.3394 -0.1427 -0.6848
 2212TIP3    H1 6642   5.184   4.284   4.724 -1.0918  0.1696  0.1727
 2212TIP3    H2 6643   5.260   4.296   4.854  0.4510 -0.4814 -0.6421
 2213TIP3   OH2 6644   1.756   4.272   2.168 -0.2701  0.4073  0.0308
 2213TIP3    H1 6645   1.742   4.195   2.224 -1.0661 -0.1548 -0.9293
 2213TIP3    H2 6646   1.743   4.240   2.079  2.1463  1.0057 -0.6111
 2214TIP3   OH2 6647   2.805   3.475   4.652 -0.3825  0.3979 -0.8710
 2214TIP3    H1 6648   2.721   3.509   4.682 -1.0557  0.9869 -3.2870
 2214TIP3    H2 6649   2.856   3.464   4.733 -2.3628  1.0764  0.5435
 2215TIP3   OH2 6650   2.372   2.951   3.824  0.4621 -0.2411  0.3709
 2215TIP3    H1 6651   2.294   2.943   3.880  1.2231  1.0123  1.6790
 2215TIP3    H2 6652   2.365   3.037   3.785  0.1301 -0.9655 -1.2524
 2216TIP3   OH2 6653   0.600   4.690   2.866  0.0252 -0.0773  0.2634
 2216TIP3    H1 6654   0.608   4.616   2.926 -0.7831 -0.7713 -0.4550
 2216TIP3    H2 6655   0.639   4.764   2.913 -0.2876 -0.6777  1.4942
 2217TIP3   OH2 6656   5.611   0.511   2.006 -0.5465  0.2060  0.0929
 2217TIP3    H1 6657   5.643   0.577   1.944 -2.2846  2.3990  1.3604
 2217TIP3    H2 6658   5.523   0.490   1.975 -0.6395 -0.2511  0.6596
 2218TIP3   OH2 6659   5.838   0.130   0.742  0.3074 -0.0052 -0.1193
 2218TIP3    H1 6660   5.786   0.173   0.809  1.0688  0.4754  0.1791
 2218TIP3    H2 6661   5.929   0.150   0.765  0.7829 -2.4816  0.5250
 2219TIP3   OH2 6662   1.750   3.282   4.201  0.2489  0.2504 -0.0843
 2219TIP3    H1 6663   1.673   3.226   4.213  1.4338 -0.9617  2.5594
 2219TIP3    H2 6664   1.807   3.233   4.142 -0.1724  0.2891 -0.5324
 2220TIP3   OH2 6665   4.479   0.299   1.712  0.2040 -0.0588 -0.7556
 2220TIP3    H1 6666   4.440   0.213   1.694 -0.5421  0.1158 -0.0698
 2220TIP3    H2 6667   4.515   0.292   1.800 -1.8982  0.9783  0.2654
 2221TIP3   OH2 6668   3.837   4.849   3.252  0.0631 -0.0954 -0.4621
 2221TIP3    H1 6669   3.830   4.766   3.299 -1.5361  1.3604  2.1023
 2221TIP3    H2 6670   3.908   4.895   3.297 -0.8492  0.9470 -0.0531
 2222TIP3   OH2 6671   4.415   5.918   1.175 -0.5537 -0.0491 -0.0594
 2222TIP3    H1 6672   4.330   5.960   1.188  0.6977  2.6242  0.1777
 2222TIP3    H2 6673   4.394   5.829   1.147 -3.4072  0.4750  0.1337
 2223TIP3   OH2 6674   3.131   5.852   1.843  0.3359  0.2883 -0.0124
 2223TIP3    H1 6675   3.062   5.802   1.798 -0.2586 -0.1099  1.2851
 2223TIP3    H2 6676   3.100   5.859   1.933  0.3231  3.1907 -0.1699
 2224TIP3   OH2 6677   3.938   0.765   0.648 -0.0934 -0.0640 -0.6304
 2224TIP3    H1 6678   3.937   0.815   0.567  0.4695 -0.6373 -1.0050
 2224TIP3    H2 6679   3.957   0.830   0.716 -0.5637  0.4170 -0.9563
 2225TIP3   OH2 6680   5.535   5.107   1.064 -0.2540  0.1282  0.6433
 2225TIP3    H1 6681   5.555   5.074   1.152 -0.0923  0.6063  0.7862
 2225TIP3    H2 6682   5.620   5.119   1.023 -0.2792  1.0718  0.8527
 2226TIP3   OH2 6683   2.759   1.203   2.257 -0.0593 -0.6801 -0.3862
 2226TIP3    H1 6684   2.722   1.241   2.178 -0.3194  0.9078  0.4489
 2226TIP3    H2 6685   2.685   1.164   2.303  0.1607 -1.9950 -1.1015
 2227TIP3   OH2 6686   4.345   0.250   0.185  0.1473 -0.2567  0.3832
 2227TIP3    H1 6687   4.355   0.343   0.208 -0.7288 -0.4814  1.7948
 2227TIP3    H2 6688   4.416   0.207   0.231  0.9065 -0.2502 -0.7357
 2228TIP3   OH2 6689   4.565   3.028   4.160  0.0441 -0.5542  0.0676
 2228TIP3    H1 6690   4.567   3.101   4.222 -0.2397 -0.3554 -0.1559
 2228TIP3    H2 6691   4.485   3.042   4.109  0.3904 -0.6010 -0.4883
 2229TIP3   OH2 6692   3.121   2.503   3.390  0.5047  0.4434  0.3627
 2229TIP3    H1 6693   3.143   2.463   3.306 -0.0714 -1.9309  1.2753
 2229TIP3    H2 6694   3.204   2.510   3.436  0.5222 -0.4690  0.4862
 2230TIP3   OH2 6695   0.878   1.420   2.138  0.2403  0.3302 -0.4423
 2230TIP3    H1 6696   0.892   1.514   2.124  0.5053  0.3931  0.2004
 2230TIP3    H2 6697   0.966   1.384   2.149  0.2539 -0.2635 -2.2212
 2231TIP3   OH2 6698   4.680   0.721   3.191  0.1006  0.1815  0.0623
 2231TIP3    H1 6699   4.602   0.777   3.187 -0.8490 -1.1252 -2.2500
 2231TIP3    H2 6700   4.658   0.646   3.135  2.0437 -1.5604  1.4568
 2232TIP3   OH2 6701   5.755   0.927   1.578  0.0169  0.0930 -0.4946
 2232TIP3    H1 6702   5.699   0.933   1.501 -1.6483  1.0951  0.7444
 2232TIP3    H2 6703   5.704   0.964   1.649  1.9888  0.3823  0.8691
 2233TIP3   OH2 6704   3.402   4.753   1.149 -0.3730 -0.0597 -0.3957
 2233TIP3    H1 6705   3.437   4.718   1.067 -0.5261 -0.2234 -0.3899
 2233TIP3    H2 6706   3.441   4.699   1.217 -1.9165 -1.3249 -0.4691
 2234TIP3   OH2 6707   5.852   4.101   2.445 -0.0388 -0.6107  0.2849
 2234TIP3    H1 6708   5.781   4.157   2.414  0.5840  0.0763  0.0866
 2234TIP3    H2 6709   5.931   4.137   2.406  0.5121 -0.9482  1.0533
 2235TIP3   OH2 6710   0.773   1.861   1.481  0.4351  0.2704  0.6458
 2235TIP3    H1 6711   0.835   1.789   1.466  0.7371  0.3624  1.3705
 2235TIP3    H2 6712   0.719   1.864   1.402 -0.2508 -1.4218  1.0037
 2236TIP3   OH2 6713   5.754   3.381   1.548  0.1827 -0.3440  0.5564
 2236TIP3    H1 6714   5.764   3.418   1.635  0.0759 -1.1885  0.9359
 2236TIP3    H2 6715   5.844   3.363   1.519  0.3219  1.2459 -0.1096
 2237TIP3   OH2 6716   5.065   3.700   0.654 -0.4400 -0.7196 -0.2616
 2237TIP3    H1 6717   5.134   3.765   0.645  0.9171 -1.7071  2.1367
 2237TIP3    H2 6718   4.989   3.749   0.687  0.2405 -0.1743  0.5167
 2238TIP3   OH2 6719   5.734   3.743   0.980 -0.5505  0.0001  0.9113
 2238TIP3    H1 6720   5.652   3.710   0.943 -1.0263  0.3940  1.5972
 2238TIP3    H2 6721   5.755   3.819   0.926 -0.9113  0.2057  1.0563
 2239TIP3   OH2 6722   2.975   0.557   3.025 -0.2572 -0.1021 -0.1597
 2239TIP3    H1 6723   2.916   0.582   2.954 -0.2587 -1.8554 -0.8321
 2239TIP3    H2 6724   2.924   0.495   3.078  0.5190 -0.6340 -0.0091
 2240TIP3   OH2 6725   2.780   3.639   3.630 -0.1210 -0.3681  0.6410
 2240TIP3    H1 6726   2.693   3.660   3.663 -0.6371 -1.2644 -0.0948
 2240TIP3    H2 6727   2.801   3.554   3.669 -0.9060 -1.6434 -1.4977
 2241TIP3   OH2 6728   5.812   2.363   1.086  0.0526 -0.1325  0.0148
 2241TIP3    H1 6729   5.865   2.438   1.059  3.6014 -1.9957  1.1141
 2241TIP3    H2 6730   5.803   2.310   1.007 -0.6766  0.4538 -0.3012
 2242TIP3   OH2 6731   4.473   5.291   4.416  0.3956 -0.9412 -0.0849
 2242TIP3    H1 6732   4.532   5.356   4.456 -0.3974 -1.4757  2.0702
 2242TIP3    H2 6733   4.426   5.341   4.349 -0.5024  0.9060  1.7845
 2243TIP3   OH2 6734   4.537   5.178   0.018  0.4695 -0.1784 -0.3856
 2243TIP3    H1 6735   4.511   5.159   0.108  0.6061  0.4465 -0.2047
 2243TIP3    H2 6736   4.625   5.141   0.010  0.9312  0.7794  0.1153
 2244TIP3   OH2 6737   3.997   4.809   3.536 -0.6652  0.3649 -0.2651
 2244TIP3    H1 6738   4.013   4.732   3.482 -0.5379 -0.6128  1.1220
 2244TIP3    H2 6739   4.035   4.881   3.486 -1.1205 -0.3953 -1.7596
 2245TIP3   OH2 6740   4.007   3.173   1.800 -0.0139  0.4065 -0.5279
 2245TIP3    H1 6741   4.081   3.123   1.765  0.6732 -0.6029  2.1886
 2245TIP3    H2 6742   4.047   3.249   1.841 -0.7345  1.1206 -1.1019
 2246TIP3   OH2 6743   5.727   1.604   0.892  0.4257 -0.6032 -0.2637
 2246TIP3    H1 6744   5.811   1.648   0.906  0.9942 -2.2477  2.3396
 2246TIP3    H2 6745   5.671   1.637   0.962 -1.7156  1.5464 -2.7945
 2247TIP3   OH2 6746   3.084   0.603   1.234 -0.1292 -0.6148 -0.7474
 2247TIP3    H1 6747   3.086   0.697   1.217 -0.7657 -0.4970 -0.2147
 2247TIP3    H2 6748   3.110   0.563   1.151  0.0652  0.0257 -1.0028
 2248TIP3   OH2 6749   1.952   2.689   1.190  0.1279  0.0392 -0.0962
 2248TIP3    H1 6750   1.889   2.706   1.261 -1.6279  0.5779 -1.7144
 2248TIP3    H2 6751   2.002   2.770   1.183 -1.7813  1.1695 -1.4529
 2249TIP3   OH2 6752   1.907   2.259   3.313 -0.2153 -0.3305  0.5501
 2249TIP3    H1 6753   1.820   2.299   3.310  0.7374  1.8962 -0.6876
 2249TIP3    H2 6754   1.936   2.259   3.221  1.2538 -0.5522  0.9875
 2250TIP3   OH2 6755   2.821   2.788   2.556 -0.7643 -0.0342  0.0418
 2250TIP3    H1 6756   2.768   2.816   2.631 -0.7411 -0.6257  0.2805
 2250TIP3    H2 6757   2.910   2.780   2.591 -0.3720  1.5504 -0.4959
 2251TIP3   OH2 6758   5.188   0.597   1.988  0.1188 -0.2430 -0.0626
 2251TIP3    H1 6759   5.271   0.572   1.950  0.2525 -1.3448  0.8912
 2251TIP3    H2 6760   5.179   0.541   2.066  0.7301  3.0723  2.6249
 2252TIP3   OH2 6761   4.398   0.676   2.849 -0.5743 -0.2202 -0.2080
 2252TIP3    H1 6762   4.306   0.653   2.846 -0.6525  0.0890 -0.2049
 2252TIP3    H2 6763   4.435   0.621   2.919 -0.8391 -0.0454  0.0714
 2253TIP3   OH2 6764   5.552   3.914   3.412  0.1901  0.1484 -0.0249
 2253TIP3    H1 6765   5.566   3.832   3.364 -2.1883 -1.4181  1.7066
 2253TIP3    H2 6766   5.516   3.974   3.347 -0.1122 -0.9140 -0.8705
 2254TIP3   OH2 6767   1.459   1.007   3.733  0.1378 -0.2501 -0.5809
 2254TIP3    H1 6768   1.441   1.067   3.661 -0.9988 -2.8518 -2.6386
 2254TIP3    H2 6769   1.513   0.938   3.694  1.8274 -0.3530  1.7899
 2255TIP3   OH2 6770   1.615   0.850   3.589  0.4079  0.4550  0.1326
 2255TIP3    H1 6771   1.621   0.758   3.616 -0.7942  0.5452  0.7668
 2255TIP3    H2 6772   1.630   0.849   3.495 -2.9742 -0.8756 -0.5352
 2256TIP3   OH2 6773   1.244   3.462   4.875  0.3143 -0.0961  0.5159
 2256TIP3    H1 6774   1.269   3.378   4.838 -0.9696 -1.1840  2.0078
 2256TIP3    H2 6775   1.193   3.504   4.805  1.1482 -0.4223 -0.3150
 2257TIP3   OH2 6776   3.587   1.464   0.551 -0.4238 -0.2910  0.0069
 2257TIP3    H1 6777   3.560   1.476   0.460  0.9159 -2.5661 -0.7607
 2257TIP3    H2 6778   3.540   1.532   0.599 -2.1872  0.1463 -2.1828
 2258TIP3   OH2 6779   1.826   2.423   5.077  0.1011  0.0575 -0.2398
 2258TIP3    H1 6780   1.781   2.340   5.090 -1.0274  0.4037 -1.6810
 2258TIP3    H2 6781   1.825   2.436   4.982  1.4361  1.0828 -0.1418
 2259TIP3   OH2 6782   5.165   4.810   4.651 -0.0074  0.4243 -0.2170
 2259TIP3    H1 6783   5.207   4.895   4.664 -0.5418  0.6880 -0.2065
 2259TIP3    H2 6784   5.072   4.829   4.645 -0.1350 -0.1625 -0.2076
 2260TIP3   OH2 6785   4.611   4.075   1.316  0.1678  0.1852 -0.3891
 2260TIP3    H1 6786   4.546   4.056   1.384  0.9590  1.4245  0.7676
 2260TIP3    H2 6787   4.559   4.089   1.237 -0.8347 -0.5255  0.1180
 2261TIP3   OH2 6788   2.723   2.915   1.097  0.0062 -0.1238 -0.2259
 2261TIP3    H1 6789   2.689   2.854   1.031  0.9795 -0.0290 -0.8348
 2261TIP3    H2 6790   2.739   2.860   1.173 -0.1007 -0.4363 -0.4218
 2262TIP3   OH2 6791   1.121   0.638   1.391 -0.5920  0.2254 -0.2039
 2262TIP3    H1 6792   1.170   0.719   1.379 -1.5888  0.5809 -2.3829
 2262TIP3    H2 6793   1.158   0.599   1.470  1.5778  1.5982 -0.4560
 2263TIP3   OH2 6794   0.921   3.255   1.339  0.1612 -0.4921  0.2176
 2263TIP3    H1 6795   0.971   3.191   1.390 -1.0990 -2.9590 -1.4209
 2263TIP3    H2 6796   0.842   3.270   1.390 -0.6437 -2.1852 -0.4654
 2264TIP3   OH2 6797   6.193   1.170   2.092 -0.4298 -0.2627 -0.2825
 2264TIP3    H1 6798   6.127   1.233   2.119 -2.3606 -2.2618 -0.0036
 2264TIP3    H2 6799   6.229   1.137   2.175  0.4166  0.3052 -0.4181
 2265TIP3   OH2 6800   3.516   4.203   4.410  0.4784 -0.8606  0.2058
 2265TIP3    H1 6801   3.598   4.156   4.424  1.2626  0.6959  1.1872
 2265TIP3    H2 6802   3.515   4.270   4.479  0.0228  1.2936 -1.7667
 2266TIP3   OH2 6803   2.093   3.309   3.946 -0.1368  0.7082  0.2870
 2266TIP3    H1 6804   2.032   3.359   3.893  1.3354  2.6923  0.3415
 2266TIP3    H2 6805   2.038   3.263   4.009 -1.6739  0.9810 -0.8005
 2267TIP3   OH2 6806   5.749   3.651   2.434 -0.3719  0.4037  0.3347
 2267TIP3    H1 6807   5.707   3.574   2.472 -0.2052 -0.1814 -0.6373
 2267TIP3    H2 6808   5.722   3.650   2.342  1.7374  0.0035 -0.3395
 2268TIP3   OH2 6809   2.015   1.089   5.182  0.1533 -0.3663  0.2653
 2268TIP3    H1 6810   2.072   1.113   5.109  1.2034  0.3245  1.2962
 2268TIP3    H2 6811   1.936   1.054   5.139  1.1708 -1.0010 -1.1888
 2269TIP3   OH2 6812   5.053   2.195   4.728  0.4185 -0.2844 -0.4467
 2269TIP3    H1 6813   4.970   2.149   4.717 -0.4307  0.7211  1.2290
 2269TIP3    H2 6814   5.051   2.265   4.663  1.3752 -2.0245 -2.4784
 2270TIP3   OH2 6815   5.565   1.025   1.760  0.2084 -0.0924  0.6907
 2270TIP3    H1 6816   5.551   1.111   1.721  0.4455 -0.5510 -0.4741
 2270TIP3    H2 6817   5.490   1.012   1.818 -1.6602 -0.4650 -1.6477
 2271TIP3   OH2 6818   5.412   5.957   0.293 -0.0256  0.1976  0.8626
 2271TIP3    H1 6819   5.408   5.861   0.300 -1.8056  0.1181 -0.3329
 2271TIP3    H2 6820   5.353   5.988   0.361 -0.9979  0.3217 -0.0046
 2272TIP3   OH2 6821   2.530   4.113   3.153 -0.4690  0.6494  0.1846
 2272TIP3    H1 6822   2.561   4.168   3.225 -3.1649 -0.4478  2.3620
 2272TIP3    H2 6823   2.467   4.167   3.106 -1.0031  0.3920  0.5880
 2273TIP3   OH2 6824   3.141   0.820   2.008  0.0464 -0.3958 -0.6022
 2273TIP3    H1 6825   3.057   0.864   2.018 -0.0530 -0.6915 -0.0931
 2273TIP3    H2 6826   3.196   0.882   1.960  0.6236  1.2520  2.0098
 2274TIP3   OH2 6827   0.870   1.618   4.384  0.0744 -0.1968  0.4254
 2274TIP3    H1 6828   0.781   1.632   4.415 -0.6067  0.5615 -1.7146
 2274TIP3    H2 6829   0.890   1.528   4.407 -1.8473 -0.8854 -0.4295
 2275TIP3   OH2 6830   5.823   1.575   3.689  1.2301 -0.0454  0.2591
 2275TIP3    H1 6831   5.855   1.625   3.614 -0.4337  1.4342  0.4912
 2275TIP3    H2 6832   5.839   1.631   3.764  1.2243 -0.7569  0.8007
 2276TIP3   OH2 6833   5.819   2.950   0.913 -0.3882 -0.0977 -0.5866
 2276TIP3    H1 6834   5.747   2.888   0.900  0.6885 -1.2532 -1.4606
 2276TIP3    H2 6835   5.877   2.933   0.838  1.6109 -0.4227  0.9609
 2277TIP3   OH2 6836   4.613   1.756   2.246  0.3461  0.6155 -0.6274
 2277TIP3    H1 6837   4.595   1.847   2.271  0.1775  0.0908  1.2966
 2277TIP3    H2 6838   4.706   1.744   2.267 -0.0594 -0.1502  0.8431
 2278TIP3   OH2 6839   4.692   2.973   2.933 -0.4060  0.1969  0.1164
 2278TIP3    H1 6840   4.739   3.051   2.961  1.6725 -1.0287  0.2567
 2278TIP3    H2 6841   4.726   2.955   2.845 -1.1929 -0.3037 -0.0989
 2279TIP3   OH2 6842   1.259   3.012   3.093 -0.5195 -0.3018  0.1266
 2279TIP3    H1 6843   1.209   2.961   3.028  0.3715 -2.3394  0.9602
 2279TIP3    H2 6844   1.343   3.029   3.051 -0.8787  0.7191 -0.2210
 2280TIP3   OH2 6845   4.314   0.957   4.757 -0.2950  0.5394  0.5470
 2280TIP3    H1 6846   4.380   0.992   4.817 -0.2195  1.7112 -0.1885
 2280TIP3    H2 6847   4.278   0.881   4.803 -0.1531  1.3182  2.0332
 2281TIP3   OH2 6848   0.668   4.506   2.058 -0.5126  0.0815  0.6688
 2281TIP3    H1 6849   0.667   4.577   2.122 -0.6430  0.6679  0.0309
 2281TIP3    H2 6850   0.585   4.460   2.070 -1.3776  1.3137 -0.2937
 2282TIP3   OH2 6851   2.680   4.747   4.801  0.1149  0.3043  0.5816
 2282TIP3    H1 6852   2.732   4.741   4.722 -1.1803 -0.9493 -0.2275
 2282TIP3    H2 6853   2.600   4.792   4.774 -0.1601  0.2523  1.2787
 2283TIP3   OH2 6854   2.751   5.790   2.817  0.5477  0.2775 -0.4943
 2283TIP3    H1 6855   2.689   5.717   2.824  2.9773 -2.0316 -1.4914
 2283TIP3    H2 6856   2.798   5.774   2.735  2.6641  1.7546  0.3481
 2284TIP3   OH2 6857   2.081   1.082   1.762  0.0145 -0.0214  0.1156
 2284TIP3    H1 6858   2.177   1.085   1.764 -0.0086  1.7286 -0.6074
 2284TIP3    H2 6859   2.054   1.156   1.816 -0.9145  0.5897 -1.1573
 2285TIP3   OH2 6860   3.697   4.876   1.026  0.5852  0.2570 -0.1912
 2285TIP3    H1 6861   3.760   4.894   0.956  0.8917  1.3216  0.3463
 2285TIP3    H2 6862   3.701   4.952   1.083  2.0031 -1.4608  2.2315
 2286TIP3   OH2 6863   4.902   2.631   1.939  0.2903 -0.4837 -0.1261
 2286TIP3    H1 6864   4.816   2.625   1.896 -0.4776 -0.4815  1.3382
 2286TIP3    H2 6865   4.941   2.710   1.902 -0.5725 -0.1817 -0.4298
 2287TIP3   OH2 6866   0.501   0.290   1.186  0.4632 -0.3883 -0.0679
 2287TIP3    H1 6867   0.478   0.200   1.211  0.0852 -0.6548 -1.2834
 2287TIP3    H2 6868   0.416   0.334   1.176  0.4686 -0.7580 -2.4123
 2288TIP3   OH2 6869   2.175   1.882   1.119 -0.1285  0.5733  0.0689
 2288TIP3    H1 6870   2.235   1.875   1.044  0.9640 -2.5437  1.0835
 2288TIP3    H2 6871   2.230   1.869   1.196 -1.9738 -2.7636  1.0434
 2289TIP3   OH2 6872   3.958   3.987   2.942  0.1422  0.1508 -0.4508
 2289TIP3    H1 6873   3.911   3.989   2.859  0.5200 -1.1492 -0.7227
 2289TIP3    H2 6874   3.943   3.899   2.977  0.1337  0.6108  0.7885
 2290TIP3   OH2 6875   5.290   5.201   0.388  0.0181 -0.0727 -0.4618
 2290TIP3    H1 6876   5.330   5.184   0.473  2.2106  0.2631 -1.3693
 2290TIP3    H2 6877   5.292   5.117   0.342  0.1109  0.0485 -0.6820
 2291TIP3   OH2 6878   5.864   1.549   0.624  0.5154  0.1579 -0.5168
 2291TIP3    H1 6879   5.810   1.571   0.701 -0.1349 -1.3214 -0.5067
 2291TIP3    H2 6880   5.806   1.563   0.550  0.9331  0.9388 -0.7095
 2292TIP3   OH2 6881   0.080   2.688   0.533 -0.2595  0.0185  0.1458
 2292TIP3    H1 6882   0.013   2.738   0.579 -0.0948  0.5150 -0.1471
 2292TIP3    H2 6883   0.115   2.628   0.599  0.9212  1.6408  1.0491
 2293TIP3   OH2 6884   0.540   3.606   1.068 -0.3695 -0.3707  0.2213
 2293TIP3    H1 6885   0.482   3.667   1.023 -2.4698 -2.9355 -0.7947
 2293TIP3    H2 6886   0.509   3.606   1.159  0.5512  0.9789  0.5847
 2294TIP3   OH2 6887   6.109   0.921   4.439 -0.4670 -0.0723  0.1477
 2294TIP3    H1 6888   6.027   0.968   4.422 -0.8924 -0.7724  0.2516
 2294TIP3    H2 6889   6.098   0.837   4.395 -0.2357 -0.5877  1.0694
 2295TIP3   OH2 6890   2.172   1.752   3.255  0.7220 -0.0132  0.3170
 2295TIP3    H1 6891   2.224   1.672   3.263 -0.3839 -0.7391  0.5281
 2295TIP3    H2 6892   2.125   1.758   3.339 -2.9037 -1.8701 -1.3245
 2296TIP3   OH2 6893   2.384   1.506   5.117  0.3973  0.2686 -0.3223
 2296TIP3    H1 6894   2.292   1.487   5.134  0.1197  0.4215 -1.5650
 2296TIP3    H2 6895   2.422   1.522   5.203 -0.7931  0.4503  0.1794
 2297TIP3   OH2 6896   0.094   2.300   0.993 -0.6302 -0.3045  0.3544
 2297TIP3    H1 6897   0.073   2.369   1.056 -1.4197 -0.2439  0.0467
 2297TIP3    H2 6898   0.008   2.263   0.969 -0.6103  1.0360 -2.1934
 2298TIP3   OH2 6899   4.486   3.812   2.406  0.3058  0.0080 -0.0657
 2298TIP3    H1 6900   4.479   3.859   2.323 -0.0768  0.2054  0.0766
 2298TIP3    H2 6901   4.580   3.800   2.419  0.4411  1.2601  0.1947
 2299TIP3   OH2 6902   2.260   0.569   0.329 -0.4226 -0.1807  0.3846
 2299TIP3    H1 6903   2.174   0.611   0.334 -0.0740  0.4428  1.7074
 2299TIP3    H2 6904   2.293   0.591   0.242 -1.4410 -0.1151  0.0089
 2300TIP3   OH2 6905   2.599   4.170   4.369 -0.1429 -0.1375 -0.2380
 2300TIP3    H1 6906   2.579   4.118   4.447  0.2796  1.0203  0.6690
 2300TIP3    H2 6907   2.588   4.108   4.296  1.9614 -2.0172  0.8793
 2301TIP3   OH2 6908   0.064   3.645   3.970  0.5804  0.1613  0.4919
 2301TIP3    H1 6909   0.045   3.562   4.014  0.6348  0.5857  1.3353
 2301TIP3    H2 6910   0.120   3.621   3.896  1.4803 -0.4425  1.3482
 2302TIP3   OH2 6911   5.644   5.752   0.998 -0.3782 -0.1374  0.2784
 2302TIP3    H1 6912   5.695   5.715   1.070  0.0102 -1.8880 -0.8337
 2302TIP3    H2 6913   5.701   5.819   0.960  0.0644 -0.3253  0.6079
 2303TIP3   OH2 6914   4.953   2.113   0.340 -0.8414  0.3950 -0.6211
 2303TIP3    H1 6915   4.953   2.082   0.431  1.4143  1.6345 -0.1244
 2303TIP3    H2 6916   4.957   2.033   0.288 -1.5528 -0.3207  0.3622
 2304TIP3   OH2 6917   6.160   2.972   0.193  0.1133  0.3458 -0.2049
 2304TIP3    H1 6918   6.137   2.884   0.162 -1.5896  0.2249  1.2748
 2304TIP3    H2 6919   6.163   3.025   0.113 -3.0685 -0.1763 -0.8014
 2305TIP3   OH2 6920   3.091   5.835   0.690  0.2851 -0.2569  0.4383
 2305TIP3    H1 6921   3.049   5.888   0.757 -0.1222 -1.0171  0.7929
 2305TIP3    H2 6922   3.157   5.893   0.651 -1.8192  1.3629 -0.9124
 2306TIP3   OH2 6923   1.140   4.603   4.852 -0.2069 -0.3624 -0.4891
 2306TIP3    H1 6924   1.230   4.596   4.821 -0.3398  0.3914 -1.0864
 2306TIP3    H2 6925   1.089   4.554   4.787 -0.2471 -0.6507 -0.2413
 2307TIP3   OH2 6926   3.393   3.182   3.390 -0.0275  0.0202 -0.2242
 2307TIP3    H1 6927   3.305   3.203   3.359 -0.0622 -1.2114 -1.0516
 2307TIP3    H2 6928   3.452   3.223   3.326  0.1152  2.2398  1.1997
 2308TIP3   OH2 6929   5.224   1.408   1.637 -0.4432  0.8856 -0.5947
 2308TIP3    H1 6930   5.277   1.486   1.655 -0.0789  0.8132 -1.3040
 2308TIP3    H2 6931   5.267   1.338   1.686 -0.4492  1.0231 -0.3924
 2309TIP3   OH2 6932   1.754   5.050   3.155  0.1993 -0.3214  0.6120
 2309TIP3    H1 6933   1.762   5.020   3.065 -2.4218 -0.7681  0.4584
 2309TIP3    H2 6934   1.780   5.142   3.152  0.4121 -0.4046 -0.5383
 2310TIP3   OH2 6935   4.996   5.589   2.748 -0.4976 -0.3038 -0.4891
 2310TIP3    H1 6936   5.066   5.612   2.687  1.6595 -1.7101  1.2572
 2310TIP3    H2 6937   5.023   5.504   2.784 -2.7284 -0.5208  0.8530
 2311TIP3   OH2 6938   0.587   0.937   3.000 -0.4657  0.2108 -0.3059
 2311TIP3    H1 6939   0.629   0.859   2.964 -1.9916 -0.6437 -0.3395
 2311TIP3    H2 6940   0.658   0.988   3.038  0.7684 -0.4419 -1.6507
 2312TIP3   OH2 6941   0.248   4.353   0.034 -0.3123 -0.2011  0.0789
 2312TIP3    H1 6942   0.294   4.413  -0.024 -1.1369 -0.1609 -0.5513
 2312TIP3    H2 6943   0.173   4.403   0.067 -0.2645 -0.4606  0.5934
 2313TIP3   OH2 6944   0.521   2.292   1.663  0.2811 -1.0384 -0.6358
 2313TIP3    H1 6945   0.513   2.384   1.638 -1.5097 -0.4350  1.8269
 2313TIP3    H2 6946   0.614   2.280   1.680  0.2775  1.0913  1.4220
 2314TIP3   OH2 6947   0.383   2.297   3.009  0.2462  0.1649 -0.2325
 2314TIP3    H1 6948   0.438   2.231   3.051 -0.0674  0.6544  1.0157
 2314TIP3    H2 6949   0.440   2.374   3.002  0.9086 -0.4640 -2.5469
 2315TIP3   OH2 6950   6.214   0.685   2.252 -0.2607 -0.6487  0.6124
 2315TIP3    H1 6951   6.180   0.683   2.162  1.3814  0.2886 -0.0869
 2315TIP3    H2 6952   6.176   0.764   2.290  1.7871  1.0302 -0.5357
 2316TIP3   OH2 6953   2.949   2.065   5.055 -0.1389  0.1291 -0.5501
 2316TIP3    H1 6954   2.994   2.108   5.128  0.4381 -0.8953 -0.2683
 2316TIP3    H2 6955   2.869   2.116   5.042 -0.4198  0.1613  1.0286
 2317TIP3   OH2 6956   2.027   4.778   2.143 -0.2600 -0.0893  0.2408
 2317TIP3    H1 6957   2.081   4.794   2.065 -0.0966 -3.4986 -0.5034
 2317TIP3    H2 6958   2.090   4.770   2.214 -0.2239  0.7650  0.3151
 2318TIP3   OH2 6959   3.161   5.122   2.280  0.0794  0.2849  0.4558
 2318TIP3    H1 6960   3.228   5.061   2.314 -0.5544 -0.9339 -0.3895
 2318TIP3    H2 6961   3.134   5.173   2.356 -1.1025 -2.1760  1.8095
 2319TIP3   OH2 6962   3.239   1.705   3.532 -0.3437  0.0415  0.1275
 2319TIP3    H1 6963   3.173   1.740   3.473 -0.4693  0.7013  0.6418
 2319TIP3    H2 6964   3.256   1.616   3.500  0.2368  0.6710 -1.4092
 2320TIP3   OH2 6965   5.739   1.134   3.895  0.5462  0.5571  0.4124
 2320TIP3    H1 6966   5.734   1.227   3.873 -0.2886  0.2505 -0.7609
 2320TIP3    H2 6967   5.698   1.128   3.982  0.3148  1.2319  0.3607
 2321TIP3   OH2 6968   3.830   0.763   1.818  0.8292 -0.1337 -0.2383
 2321TIP3    H1 6969   3.903   0.802   1.771  0.4441 -1.4650 -2.0474
 2321TIP3    H2 6970   3.866   0.742   1.905  1.9930  1.0456 -0.4078
 2322TIP3   OH2 6971   5.882   0.401   4.750 -0.4695  0.2667  0.0058
 2322TIP3    H1 6972   5.852   0.477   4.800  0.6861  0.3294  0.6356
 2322TIP3    H2 6973   5.931   0.348   4.814  0.7523  0.1755 -0.9797
 2323TIP3   OH2 6974   5.881   3.227   0.804  0.0898 -0.8545  0.3436
 2323TIP3    H1 6975   5.909   3.205   0.893  2.8593  1.2981  0.1610
 2323TIP3    H2 6976   5.833   3.309   0.813  0.0977 -0.7972 -0.1191
 2324TIP3   OH2 6977   1.235   1.753   2.453 -0.0509 -0.2736 -0.6924
 2324TIP3    H1 6978   1.175   1.814   2.410  1.7956  0.3826 -2.5380
 2324TIP3    H2 6979   1.322   1.782   2.425  1.0095 -2.4635  0.1278
 2325TIP3   OH2 6980   1.575   1.631   0.567  0.2150  0.2941 -0.5378
 2325TIP3    H1 6981   1.614   1.716   0.591 -1.7562  1.7564 -2.2217
 2325TIP3    H2 6982   1.554   1.590   0.652  3.2841  0.3659  0.3754
 2326TIP3   OH2 6983   6.298   0.125   1.517 -0.3543 -0.1291  0.1190
 2326TIP3    H1 6984   6.265   0.208   1.552  0.9151  0.8705 -0.9454
 2326TIP3    H2 6985   6.294   0.065   1.591 -3.5196  0.1638  0.3576
 2327TIP3   OH2 6986   2.648   5.571   2.571  0.1228  0.1015  0.1986
 2327TIP3    H1 6987   2.719   5.565   2.508 -0.0472 -0.9572  0.0919
 2327TIP3    H2 6988   2.663   5.499   2.632 -1.6253 -1.0402 -0.6361
 2328TIP3   OH2 6989   5.407   5.154   5.118 -0.3862  0.6091  0.1586
 2328TIP3    H1 6990   5.384   5.072   5.074 -2.0045  0.7412  0.6983
 2328TIP3    H2 6991   5.502   5.148   5.132 -0.5507 -1.4755  0.7559
 2329TIP3   OH2 6992   3.409   2.057   3.263  0.3677 -0.3980 -0.3178
 2329TIP3    H1 6993   3.427   1.980   3.317  0.8110 -1.3444 -1.7481
 2329TIP3    H2 6994   3.492   2.104   3.260 -0.4468  1.4694  2.4356
 2330TIP3   OH2 6995   3.571   1.544   4.009 -0.3644  0.3926  0.3374
 2330TIP3    H1 6996   3.497   1.554   4.068 -1.9333 -0.0433 -1.4452
 2330TIP3    H2 6997   3.546   1.593   3.931  1.9779  1.6357  0.2712
 2331TIP3   OH2 6998   5.934   1.526   2.730 -0.5534  0.6649  0.0966
 2331TIP3    H1 6999   5.959   1.489   2.815  1.2956  1.3398 -0.1100
 2331TIP3    H2 7000   5.840   1.543   2.739 -0.4349  0.5879  1.9631
 2332TIP3   OH2 7001   6.256   1.894   0.335  0.3063  0.1328  0.0039
 2332TIP3    H1 7002   6.319   1.929   0.398 -0.4200 -1.3315  1.6141
 2332TIP3    H2 7003   6.304   1.826   0.288  0.2192 -0.3249  0.5666
 2333TIP3   OH2 7004   6.096   5.248   2.618  0.0716 -0.1081  0.4686
 2333TIP3    H1 7005   6.014   5.198   2.616 -1.5155  2.2945 -0.0145
 2333TIP3    H2 7006   6.114   5.267   2.526 -0.8144  2.2413  0.7095
 2334TIP3   OH2 7007   2.343   5.831   4.022  0.2052 -0.1615  0.4185
 2334TIP3    H1 7008   2.263   5.816   3.972  1.0537 -2.2870 -0.4195
 2334TIP3    H2 7009   2.382   5.909   3.983 -0.9525  0.3584  0.2325
 2335TIP3   OH2 7010   2.628   2.946   1.883 -0.5121  0.0180 -0.0196
 2335TIP3    H1 7011   2.649   2.859   1.849 -0.0992  0.6658 -1.4737
 2335TIP3    H2 7012   2.688   3.005   1.838 -1.1648  1.1332  0.5369
 2336TIP3   OH2 7013   4.704   4.629   3.690  0.1977 -0.1626 -0.1586
 2336TIP3    H1 7014   4.633   4.630   3.626 -1.0633  1.8799  1.1391
 2336TIP3    H2 7015   4.669   4.576   3.763 -0.2786  1.3068  0.7171
 2337TIP3   OH2 7016   0.017   3.566   3.527  0.3355 -0.4504  0.5142
 2337TIP3    H1 7017   0.064   3.575   3.610  1.6387 -0.5194 -0.1878
 2337TIP3    H2 7018   0.080   3.522   3.469  0.5903  2.2770 -1.4278
 2338TIP3   OH2 7019   5.112   0.880   2.489 -0.2959 -0.1249  0.3510
 2338TIP3    H1 7020   5.106   0.803   2.546  0.3769  0.3188  1.0391
 2338TIP3    H2 7021   5.032   0.876   2.436 -1.0856 -0.4078  1.5116
 2339TIP3   OH2 7022   4.079   0.531   0.635  0.5516 -0.1582  0.0910
 2339TIP3    H1 7023   4.039   0.617   0.618 -2.2327 -1.5323 -0.9031
 2339TIP3    H2 7024   4.083   0.524   0.730 -1.3424  0.2049  0.2307
 2340TIP3   OH2 7025   6.181   4.874   2.178 -0.0572 -0.3490  0.5453
 2340TIP3    H1 7026   6.216   4.911   2.097 -3.0173 -2.7365 -2.0880
 2340TIP3    H2 7027   6.256   4.829   2.217  1.4760  0.8355 -0.8662
 2341TIP3   OH2 7028   4.321   1.123   4.178 -0.2855 -0.5345  0.1911
 2341TIP3    H1 7029   4.335   1.093   4.268  1.8438  0.0006  0.0865
 2341TIP3    H2 7030   4.313   1.218   4.185  1.3682 -0.3318 -0.2983
 2342TIP3   OH2 7031   1.855   3.252   0.213 -0.5337  0.2762  0.1924
 2342TIP3    H1 7032   1.937   3.207   0.196  0.2667  2.1553 -1.3193
 2342TIP3    H2 7033   1.809   3.197   0.277  2.8134  0.1945  2.7916
 2343TIP3   OH2 7034   0.876   4.696   0.541  0.2882 -0.4078  0.0052
 2343TIP3    H1 7035   0.856   4.753   0.616 -1.5651 -0.8043 -0.1471
 2343TIP3    H2 7036   0.792   4.681   0.499  1.0500 -1.6094 -1.1691
 2344TIP3   OH2 7037   2.246   2.274   1.008  0.0887  0.7531  0.2673
 2344TIP3    H1 7038   2.260   2.241   1.096 -0.4823  2.8825  1.2345
 2344TIP3    H2 7039   2.311   2.344   0.998  0.6444  0.0554 -1.3078
 2345TIP3   OH2 7040   5.786   1.056   2.714  0.0882 -0.0206 -0.1321
 2345TIP3    H1 7041   5.711   1.086   2.662  1.1908  1.2665 -1.0315
 2345TIP3    H2 7042   5.834   1.135   2.736  0.2881 -0.6515  1.9341
 2346TIP3   OH2 7043   1.232   3.635   2.364 -0.1829 -0.2152  0.1315
 2346TIP3    H1 7044   1.310   3.665   2.317 -0.2615  1.3221  0.9320
 2346TIP3    H2 7045   1.158   3.673   2.316 -0.2797  1.0165  1.1996
 2347TIP3   OH2 7046   1.775   4.667   1.785  0.3123 -0.1821 -0.1571
 2347TIP3    H1 7047   1.831   4.617   1.843  3.3599 -0.0005 -2.6817
 2347TIP3    H2 7048   1.770   4.615   1.705 -2.6066  0.1910 -0.3277
 2348TIP3   OH2 7049   6.224   1.027   3.274 -0.0886  0.1253  0.4551
 2348TIP3    H1 7050   6.159   0.983   3.218 -2.0643  4.6433 -1.3648
 2348TIP3    H2 7051   6.304   1.026   3.222 -0.8040  0.7357 -0.7216
 2349TIP3   OH2 7052   3.458   1.614   5.134 -0.1136 -0.8178 -0.0642
 2349TIP3    H1 7053   3.553   1.618   5.147 -0.1411  1.8673 -0.0351
 2349TIP3    H2 7054   3.421   1.631   5.220 -0.6012 -1.0112 -0.2300
 2350TIP3   OH2 7055   4.544   2.206   4.783  0.3221 -0.4662  0.0861
 2350TIP3    H1 7056   4.541   2.113   4.761  1.5161 -0.3309 -0.7012
 2350TIP3    H2 7057   4.633   2.233   4.763  0.5303  0.4363  2.0781
 2351TIP3   OH2 7058   6.172   2.840   3.408  0.2574  0.7404 -0.9442
 2351TIP3    H1 7059   6.122   2.814   3.485  0.3823  0.0876 -1.0746
 2351TIP3    H2 7060   6.211   2.759   3.377  2.1999  1.3730 -0.2864
 2352TIP3   OH2 7061   2.812   3.871   2.172 -0.4408 -0.3547 -0.0456
 2352TIP3    H1 7062   2.744   3.865   2.239 -0.3190  0.0578  0.1165
 2352TIP3    H2 7063   2.781   3.814   2.101 -0.1257 -1.5332  0.7292
 2353TIP3   OH2 7064   4.647   3.404   3.682  0.6722 -0.1798 -0.1081
 2353TIP3    H1 7065   4.719   3.439   3.734  0.5790 -0.1343 -0.0113
 2353TIP3    H2 7066   4.600   3.481   3.649 -0.2824 -0.2110  1.1360
 2354TIP3   OH2 7067   0.560   1.163   1.532 -0.3742 -0.2832 -0.0721
 2354TIP3    H1 7068   0.626   1.096   1.550  0.3727  0.2591 -0.7192
 2354TIP3    H2 7069   0.547   1.207   1.616  1.6248  0.9436 -0.3426
 2355TIP3   OH2 7070   2.366   3.198   4.906  0.1228  0.3501 -0.4979
 2355TIP3    H1 7071   2.352   3.192   5.000 -0.7903  0.7389 -0.5992
 2355TIP3    H2 7072   2.457   3.171   4.893  0.2298  0.2225  0.4819
 2356TIP3   OH2 7073   2.191   0.744   2.633  0.5446 -0.4133 -0.1500
 2356TIP3    H1 7074   2.239   0.777   2.557  0.2627  1.5620  0.4807
 2356TIP3    H2 7075   2.192   0.816   2.695 -2.6480 -0.5160  0.1645
 2357TIP3   OH2 7076   3.451   1.502   0.294 -0.2758  0.3137 -0.1687
 2357TIP3    H1 7077   3.504   1.574   0.259 -0.5432 -0.0243 -1.3109
 2357TIP3    H2 7078   3.361   1.534   0.288 -0.4679 -0.4652 -1.5556
 2358TIP3   OH2 7079   4.629   0.165   4.847 -0.2910  0.2025 -0.2078
 2358TIP3    H1 7080   4.539   0.149   4.877 -0.2786  1.4423  0.5558
 2358TIP3    H2 7081   4.659   0.239   4.899  1.2615 -0.3160 -0.3094
 2359TIP3   OH2 7082   0.085   3.534   2.603  0.1617 -0.0105  0.6011
 2359TIP3    H1 7083  -0.005   3.561   2.585 -1.7623 -3.2324  3.9690
 2359TIP3    H2 7084   0.120   3.602   2.660 -1.0249  0.1679  1.1539
 2360TIP3   OH2 7085   0.656   2.285   3.028  0.6876 -0.5152  0.0660
 2360TIP3    H1 7086   0.642   2.287   2.933  3.5584  1.6747 -0.4405
 2360TIP3    H2 7087   0.715   2.211   3.043 -0.3973 -1.3603  0.3185
 2361TIP3   OH2 7088   6.236   5.647   4.857 -0.0401 -0.4539  0.8868
 2361TIP3    H1 7089   6.258   5.567   4.904  2.0354 -0.1551  0.5220
 2361TIP3    H2 7090   6.277   5.717   4.907 -0.0454  0.1562  0.0639
 2362TIP3   OH2 7091   4.324   1.602   2.737 -0.3071  0.0781  0.1171
 2362TIP3    H1 7092   4.359   1.671   2.680 -1.8196 -0.4296 -1.5441
 2362TIP3    H2 7093   4.260   1.557   2.682  0.1078 -2.1995  1.4053
 2363TIP3   OH2 7094   0.479   2.379   3.671  0.8474 -0.3681 -0.1918
 2363TIP3    H1 7095   0.527   2.414   3.596 -0.6808 -0.1217 -1.1056
 2363TIP3    H2 7096   0.480   2.284   3.658  1.4372 -0.3909  0.0189
 2364TIP3   OH2 7097   2.548   4.590   4.487 -0.4712  0.4640 -0.7553
 2364TIP3    H1 7098   2.604   4.666   4.502  1.4141 -0.5120 -2.3831
 2364TIP3    H2 7099   2.574   4.527   4.554 -0.4632  0.4277 -0.7924
 2365TIP3   OH2 7100   2.078   5.388   3.914  0.4197  0.0994  0.3310
 2365TIP3    H1 7101   2.144   5.458   3.908 -0.8973  1.3560  0.0396
 2365TIP3    H2 7102   2.121   5.321   3.967  1.7379  1.1167  0.6380
 2366TIP3   OH2 7103   4.411   1.771   0.196  0.1905  0.0727  0.2065
 2366TIP3    H1 7104   4.325   1.763   0.154  0.1087  1.2763  0.1207
 2366TIP3    H2 7105   4.392   1.802   0.284  0.5712  1.3157 -0.1282
 2367TIP3   OH2 7106   3.819   4.211   1.991  0.2115  0.0346  0.4143
 2367TIP3    H1 7107   3.774   4.225   2.074  2.4599 -0.3795  1.7842
 2367TIP3    H2 7108   3.833   4.299   1.956 -1.0969  0.1906  0.2391
 2368TIP3   OH2 7109   2.117   3.304   2.765 -0.0387 -0.9069 -0.2678
 2368TIP3    H1 7110   2.150   3.380   2.717  0.8851 -2.1040 -1.6144
 2368TIP3    H2 7111   2.194   3.249   2.780 -0.6773 -1.5804  0.7096
 2369TIP3   OH2 7112   3.118   1.825   4.298  0.5972 -0.3033  0.6054
 2369TIP3    H1 7113   3.049   1.823   4.231  0.7289 -0.2986  0.4692
 2369TIP3    H2 7114   3.071   1.836   4.381  0.4836  0.5705  0.4338
 2370TIP3   OH2 7115   4.001   0.812   3.137  0.0998 -0.1160  0.7867
 2370TIP3    H1 7116   3.967   0.804   3.226 -0.7324  1.1767  0.6159
 2370TIP3    H2 7117   3.975   0.900   3.109 -1.6623 -1.2509 -1.5517
 2371TIP3   OH2 7118   2.377   5.153   2.187 -0.0658  0.3851 -0.5154
 2371TIP3    H1 7119   2.340   5.097   2.118 -0.6988  0.1651 -0.0045
 2371TIP3    H2 7120   2.464   5.117   2.202 -0.9305 -1.3695  0.7448
 2372TIP3   OH2 7121   1.650   1.893   0.369  0.4428  0.4913  0.3310
 2372TIP3    H1 7122   1.573   1.854   0.410  0.1181 -1.3718 -1.8404
 2372TIP3    H2 7123   1.724   1.849   0.412  0.1567 -0.3245  0.0143
 2373TIP3   OH2 7124   4.223   3.167   1.095 -0.6511  0.3201  0.3378
 2373TIP3    H1 7125   4.308   3.200   1.125 -0.1797 -1.8075  1.5555
 2373TIP3    H2 7126   4.159   3.224   1.138  0.1313  0.3017  1.5784
 2374TIP3   OH2 7127   1.693   2.603   4.394  0.6056  0.4799  0.4253
 2374TIP3    H1 7128   1.658   2.683   4.434 -1.1039  0.9914 -1.8642
 2374TIP3    H2 7129   1.624   2.575   4.333  2.1733 -1.3872 -0.5952
 2375TIP3   OH2 7130   1.107   4.238   1.802  0.2046 -0.5603 -0.1632
 2375TIP3    H1 7131   1.034   4.299   1.816  0.3392 -0.3062 -0.5532
 2375TIP3    H2 7132   1.069   4.151   1.813  0.2741 -0.3974  1.7238
 2376TIP3   OH2 7133   2.014   0.694   0.329 -0.1097 -0.1455  0.0549
 2376TIP3    H1 7134   1.940   0.669   0.273 -0.7364  0.6930  0.4796
 2376TIP3    H2 7135   2.006   0.789   0.337  0.8527 -0.0852  0.3437
 2377TIP3   OH2 7136   6.150   4.351   0.467 -0.0439 -0.4930  0.0823
 2377TIP3    H1 7137   6.083   4.305   0.516  0.7276 -3.3706 -1.3861
 2377TIP3    H2 7138   6.102   4.408   0.408 -1.0556 -0.0652  1.2824
 2378TIP3   OH2 7139   1.974   5.885   0.384  0.0223  0.2627 -0.0547
 2378TIP3    H1 7140   1.942   5.916   0.299  0.1468 -0.0368 -0.2134
 2378TIP3    H2 7141   2.006   5.797   0.366 -0.8409 -0.1813  0.4986
 2379TIP3   OH2 7142   2.339   3.740   1.480  0.3212  0.3938 -0.0572
 2379TIP3    H1 7143   2.415   3.797   1.488  1.2338 -0.4481 -2.0854
 2379TIP3    H2 7144   2.366   3.659   1.524  0.0234  0.5840  0.4909
 2380TIP3   OH2 7145   1.150   1.508   2.583 -0.5582  0.1448 -0.2528
 2380TIP3    H1 7146   1.164   1.434   2.641 -2.3045  0.4419  0.5951
 2380TIP3    H2 7147   1.228   1.509   2.527  0.2852 -1.2824  0.8248
 2381TIP3   OH2 7148   6.303   2.588   2.433  0.2511 -0.0147  0.0029
 2381TIP3    H1 7149   6.372   2.634   2.480  0.5091 -0.6278  0.2438
 2381TIP3    H2 7150   6.234   2.653   2.419  0.3229  0.2633  0.9066
 2382TIP3   OH2 7151   5.800   3.495   4.119  0.8281  0.6529  0.5356
 2382TIP3    H1 7152   5.749   3.420   4.151 -1.6189  1.2172 -1.7103
 2382TIP3    H2 7153   5.891   3.466   4.124  0.0824 -1.7670  1.4348
 2383TIP3   OH2 7154   4.403   3.505   2.045 -0.0310 -0.5042  0.5078
 2383TIP3    H1 7155   4.406   3.500   1.950 -1.2796 -1.2396  0.4803
 2383TIP3    H2 7156   4.320   3.549   2.065 -1.4438 -3.1988  1.2370
 2384TIP3   OH2 7157   3.157   3.142   4.655 -0.1319  0.0490  0.6702
 2384TIP3    H1 7158   3.232   3.178   4.703  1.6204 -3.6723  1.1136
 2384TIP3    H2 7159   3.164   3.182   4.568  0.8022  1.6881  1.4319
 2385TIP3   OH2 7160   2.965   3.847   2.648 -0.3947 -0.1938 -0.0564
 2385TIP3    H1 7161   3.059   3.859   2.661  0.0292 -0.9352 -2.0195
 2385TIP3    H2 7162   2.928   3.847   2.736  1.3052  1.0712  0.7197
 2386TIP3   OH2 7163   3.310   5.505   4.840  0.0835 -0.9046 -0.1943
 2386TIP3    H1 7164   3.348   5.548   4.917  0.1835  1.0476 -1.2640
 2386TIP3    H2 7165   3.282   5.578   4.784 -1.8538 -2.2811 -1.1050
 2387TIP3   OH2 7166   4.221   5.755   3.731  0.2541 -0.2061  0.1316
 2387TIP3    H1 7167   4.194   5.708   3.651  0.0918  0.4399 -0.2007
 2387TIP3    H2 7168   4.292   5.812   3.703  0.3600 -0.1527  0.5016
 2388TIP3   OH2 7169   0.502   2.070   4.647  0.1082 -0.2161  0.3751
 2388TIP3    H1 7170   0.447   2.107   4.716  1.7128  1.6097  0.7574
 2388TIP3    H2 7171   0.591   2.072   4.684  0.5550 -2.6397 -0.3921
 2389TIP3   OH2 7172   1.957   0.338   0.554  0.3252  0.3550  0.2174
 2389TIP3    H1 7173   1.987   0.263   0.503 -0.2585  1.1007 -1.2890
 2389TIP3    H2 7174   1.861   0.332   0.551  0.2841  0.7360  0.7294
 2390TIP3   OH2 7175   2.944   4.732   0.247  0.4942  0.0537 -0.0267
 2390TIP3    H1 7176   2.969   4.798   0.311 -0.9718 -0.2255  0.8891
 2390TIP3    H2 7177   3.027   4.703   0.208  1.1642  2.4951 -0.5892
 2391TIP3   OH2 7178   3.989   5.352   1.262  0.0945  0.0141 -0.1564
 2391TIP3    H1 7179   4.056   5.335   1.195 -1.3502 -0.5791 -1.5313
 2391TIP3    H2 7180   4.001   5.444   1.285  1.9515 -0.3117  0.3188
 2392TIP3   OH2 7181   4.774   5.145   0.476  0.3793  0.0218  0.7601
 2392TIP3    H1 7182   4.846   5.118   0.534 -1.9559  0.7855  4.3364
 2392TIP3    H2 7183   4.780   5.241   0.474  0.2380  0.0227 -0.0928
 2393TIP3   OH2 7184   0.932   3.589   3.224 -0.2348  0.1738  0.0776
 2393TIP3    H1 7185   1.013   3.636   3.208  0.3846 -0.5884  0.8678
 2393TIP3    H2 7186   0.873   3.656   3.259  0.6786  0.3698  1.3209
 2394TIP3   OH2 7187   5.102   2.449   2.533 -0.3086  0.2756 -0.3533
 2394TIP3    H1 7188   5.114   2.424   2.625  1.3399  2.4844  0.1401
 2394TIP3    H2 7189   5.152   2.385   2.484 -1.7846 -1.3563  0.1697
 2395TIP3   OH2 7190   0.653   5.364   2.999 -0.4475 -0.4403 -0.2278
 2395TIP3    H1 7191   0.714   5.291   2.990 -1.0509 -0.7111 -2.8650
 2395TIP3    H2 7192   0.687   5.431   2.939 -1.9883 -0.0699 -0.7188
 2396TIP3   OH2 7193   1.558   5.957   0.705 -0.7516 -0.1971 -0.0045
 2396TIP3    H1 7194   1.549   5.920   0.617 -1.6500 -1.2163  0.4816
 2396TIP3    H2 7195   1.491   6.025   0.710  0.3201  0.9395 -0.6036
 2397TIP3   OH2 7196   2.946   4.952   2.452  0.1088  0.0144 -0.4034
 2397TIP3    H1 7197   2.965   5.023   2.390  0.1222  0.1521 -0.2413
 2397TIP3    H2 7198   3.022   4.894   2.445 -0.1665 -0.2838 -0.9579
 2398TIP3   OH2 7199   5.529   4.715   2.993  0.1335 -0.2148  0.0668
 2398TIP3    H1 7200   5.439   4.691   3.017  0.0367  0.0573 -0.0179
 2398TIP3    H2 7201   5.540   4.803   3.029 -0.0163  0.2021 -0.8834
 2399TIP3   OH2 7202   3.782   1.075   4.002  0.2263 -0.2180  0.6087
 2399TIP3    H1 7203   3.874   1.100   4.000  0.3538 -0.6251  1.2204
 2399TIP3    H2 7204   3.746   1.125   4.076  0.0657 -0.4104  0.6614
 2400TIP3   OH2 7205   2.543   3.419   1.303 -0.6212 -0.4165  0.2347
 2400TIP3    H1 7206   2.558   3.338   1.255  2.9866  0.1749  0.1416
 2400TIP3    H2 7207   2.543   3.487   1.236  2.8254  0.2335  0.7205
 2401TIP3   OH2 7208   2.595   4.292   0.929  0.2210  0.7279 -0.0234
 2401TIP3    H1 7209   2.511   4.261   0.961 -0.4784  2.0549 -0.5035
 2401TIP3    H2 7210   2.647   4.306   1.008 -0.0388  0.0046  0.2794
 2402TIP3   OH2 7211   4.443   4.073   2.688  0.1576 -0.9970 -0.3504
 2402TIP3    H1 7212   4.375   4.105   2.748  0.7547 -0.8789  0.2826
 2402TIP3    H2 7213   4.508   4.143   2.688  0.2867 -1.1160 -0.9407
 2403TIP3   OH2 7214   6.152   3.542   1.831 -0.1105  0.0884 -0.2300
 2403TIP3    H1 7215   6.088   3.520   1.763 -0.6994 -2.4964  1.0049
 2403TIP3    H2 7216   6.227   3.485   1.813 -0.1297 -0.3808  1.0324
 2404TIP3   OH2 7217   2.363   4.262   1.952  0.3818 -0.2925  0.0592
 2404TIP3    H1 7218   2.343   4.284   2.043 -0.4034 -0.9077  0.0469
 2404TIP3    H2 7219   2.448   4.302   1.935  0.0530  0.7300  0.7429
 2405TIP3   OH2 7220   2.810   0.596   1.403 -0.7548 -0.4244  0.1699
 2405TIP3    H1 7221   2.748   0.597   1.330  1.1618  1.8010 -1.5943
 2405TIP3    H2 7222   2.896   0.587   1.361  0.4129  0.9285  2.1047
 2406TIP3   OH2 7223   1.111   2.933   4.822  0.2752  0.2120 -0.4203
 2406TIP3    H1 7224   1.101   2.970   4.735 -0.2186 -0.0199 -0.4666
 2406TIP3    H2 7225   1.186   2.979   4.860  0.1793  0.6663 -0.7786
 2407TIP3   OH2 7226   4.885   0.033   5.121 -0.2283 -0.1201  0.1666
 2407TIP3    H1 7227   4.790   0.025   5.112 -0.5407  1.8270  1.0024
 2407TIP3    H2 7228   4.920   0.007   5.036 -1.4856 -0.9629 -0.1273
 2408TIP3   OH2 7229   1.468   2.025   1.238 -0.2768  0.1337 -0.1525
 2408TIP3    H1 7230   1.377   2.011   1.210  0.3648  0.0392 -2.3153
 2408TIP3    H2 7231   1.506   2.081   1.171  1.3112  0.1418  0.6936
 2409TIP3   OH2 7232   2.556   5.599   3.156 -0.1097 -0.0954  0.3697
 2409TIP3    H1 7233   2.476   5.616   3.207 -0.0708  0.6591  0.1968
 2409TIP3    H2 7234   2.604   5.534   3.207 -0.3647  0.1857  0.9813
 2410TIP3   OH2 7235   1.545   0.614   0.091 -0.4319  0.4298 -0.2635
 2410TIP3    H1 7236   1.469   0.666   0.065 -0.5360  0.9867  1.1010
 2410TIP3    H2 7237   1.510   0.546   0.148  0.1155  0.8834  0.6344
 2411TIP3   OH2 7238   4.173   0.975   1.163  0.0896  0.6871  0.0787
 2411TIP3    H1 7239   4.106   0.906   1.164  1.1335 -0.4560 -1.6046
 2411TIP3    H2 7240   4.143   1.036   1.095  0.1458  0.8492  0.1988
 2412TIP3   OH2 7241   4.669   1.994   4.503 -0.3623  0.1283  0.1271
 2412TIP3    H1 7242   4.621   1.988   4.585  0.6397  1.0266  0.7953
 2412TIP3    H2 7243   4.612   2.044   4.445 -0.1072  1.5280  1.0389
 2413TIP3   OH2 7244   5.255   1.974   0.561  0.7817 -0.5932  0.1962
 2413TIP3    H1 7245   5.259   2.034   0.486  1.4008  0.3874  0.9875
 2413TIP3    H2 7246   5.240   1.888   0.523 -1.9243  0.2659 -0.9054
 2414TIP3   OH2 7247   3.299   3.275   2.024 -0.1227 -0.2776 -0.4450
 2414TIP3    H1 7248   3.218   3.326   2.027  0.8905  1.3815  0.5632
 2414TIP3    H2 7249   3.286   3.205   2.089 -0.2436  0.8392  0.7738
 2415TIP3   OH2 7250   3.685   4.952   4.664 -0.2252  0.5523 -0.0875
 2415TIP3    H1 7251   3.688   5.022   4.729  0.4723  1.7602 -1.3621
 2415TIP3    H2 7252   3.591   4.935   4.652 -0.3898  0.9660  0.5403
 2416TIP3   OH2 7253   5.457   1.222   0.401  0.6137 -0.3625  0.1883
 2416TIP3    H1 7254   5.519   1.288   0.432  1.9809 -0.8451 -1.3980
 2416TIP3    H2 7255   5.371   1.261   0.419  1.3696  1.1477  0.7419
 2417TIP3   OH2 7256   2.509   0.601   1.838 -0.5668  0.3685 -0.3203
 2417TIP3    H1 7257   2.501   0.683   1.887 -0.7167  0.4300 -0.4474
 2417TIP3    H2 7258   2.568   0.622   1.766  1.2238 -0.2290  0.9279
 2418TIP3   OH2 7259   6.157   2.321   2.072 -0.2078 -0.2831  0.4107
 2418TIP3    H1 7260   6.094   2.392   2.084 -1.7391 -1.7299  1.3717
 2418TIP3    H2 7261   6.231   2.362   2.028  0.4899  2.7552  3.8902
 2419TIP3   OH2 7262   2.432   2.233   3.408  1.0059  0.0623  0.0751
 2419TIP3    H1 7263   2.456   2.307   3.353  0.8156  0.7468  0.9029
 2419TIP3    H2 7264   2.448   2.156   3.353 -0.1985  0.7619 -1.3143
 2420TIP3   OH2 7265   1.746   1.816   0.705  0.5332 -0.2161  0.5960
 2420TIP3    H1 7266   1.803   1.749   0.744  0.1016 -0.3507  1.0014
 2420TIP3    H2 7267   1.679   1.833   0.772  0.7768  0.8005  0.5959
 2421TIP3   OH2 7268   2.282   4.544   4.096  0.8442  0.1882  0.0838
 2421TIP3    H1 7269   2.217   4.598   4.141  0.1051  0.0574 -0.7867
 2421TIP3    H2 7270   2.358   4.544   4.154  0.3500  0.9971  0.7571
 2422TIP3   OH2 7271   2.311   0.773   2.900  0.0464  0.3673 -0.3637
 2422TIP3    H1 7272   2.215   0.768   2.906  0.1124 -0.8804 -0.2130
 2422TIP3    H2 7273   2.337   0.690   2.861  1.0184  1.0425 -1.1829
 2423TIP3   OH2 7274   1.230   5.677   3.385  0.8802  0.0540  0.0394
 2423TIP3    H1 7275   1.136   5.675   3.404  1.0477 -0.6069  0.8501
 2423TIP3    H2 7276   1.237   5.727   3.303 -0.1524  0.2959  0.0859
 2424TIP3   OH2 7277   1.337   2.733   0.609  0.7107 -0.7054  0.5173
 2424TIP3    H1 7278   1.350   2.815   0.658  0.6483  0.1049 -0.7699
 2424TIP3    H2 7279   1.339   2.665   0.675 -0.4750  0.4389  1.8050
 2425TIP3   OH2 7280   4.606   5.542   3.119  0.0813  0.1660 -0.5719
 2425TIP3    H1 7281   4.520   5.529   3.160  0.9801 -1.2848  1.0338
 2425TIP3    H2 7282   4.615   5.637   3.110 -1.0229  0.4360  0.8046
 2426TIP3   OH2 7283   3.034   0.599   4.483 -0.0740  0.9815 -0.0081
 2426TIP3    H1 7284   3.073   0.684   4.502  1.5717 -0.1462  2.0990
 2426TIP3    H2 7285   2.951   0.599   4.532 -0.2533  1.4836 -0.3086
 2427TIP3   OH2 7286   4.012   3.622   2.897  0.1287  0.1347  0.7420
 2427TIP3    H1 7287   4.108   3.621   2.893  0.2056 -1.7672  1.8192
 2427TIP3    H2 7288   3.989   3.537   2.935 -1.8080  1.9808  4.2176
 2428TIP3   OH2 7289   1.390   2.834   2.423 -0.3404 -0.4109  0.0674
 2428TIP3    H1 7290   1.373   2.744   2.395  0.2685 -1.4041  2.5658
 2428TIP3    H2 7291   1.304   2.876   2.423 -1.0229 -1.7240  1.0761
 2429TIP3   OH2 7292   2.346   3.441   0.375 -0.1469 -0.3767 -0.1951
 2429TIP3    H1 7293   2.355   3.536   0.369  2.5193 -0.5882 -0.9349
 2429TIP3    H2 7294   2.257   3.423   0.342 -0.2455  1.7575 -1.2927
 2430TIP3   OH2 7295   1.786   4.172   5.020 -0.3398 -0.2015  0.7715
 2430TIP3    H1 7296   1.848   4.158   5.092  0.6350 -0.1851 -0.0315
 2430TIP3    H2 7297   1.760   4.263   5.028  0.5024  0.0659  0.5491
 2431TIP3   OH2 7298   4.606   1.367   1.231  0.3234 -0.1869  0.0292
 2431TIP3    H1 7299   4.610   1.300   1.162  2.1903 -0.3544  0.2504
 2431TIP3    H2 7300   4.519   1.357   1.269 -0.2010 -1.0736 -1.3403
 2432TIP3   OH2 7301   0.716   1.846   3.711 -0.3739  0.1317  0.1053
 2432TIP3    H1 7302   0.713   1.815   3.621  1.4655 -0.4585  0.2055
 2432TIP3    H2 7303   0.768   1.926   3.708 -1.1165  0.6497  0.5270
 2433TIP3   OH2 7304   2.215   0.756   3.655 -0.3952 -0.2999  0.3865
 2433TIP3    H1 7305   2.221   0.850   3.673  1.1799 -0.2890 -0.0773
 2433TIP3    H2 7306   2.130   0.730   3.691 -0.4147  1.0998  1.4160
 2434TIP3   OH2 7307   0.948   0.604   2.765 -0.5056 -0.7986  0.1635
 2434TIP3    H1 7308   0.870   0.601   2.710  1.1265 -1.1639 -2.2683
 2434TIP3    H2 7309   0.995   0.523   2.744  0.4597 -0.6817  1.7213
 2435TIP3   OH2 7310   2.360   1.104   1.708  0.2906 -0.2542 -0.6506
 2435TIP3    H1 7311   2.442   1.068   1.741  0.3389  0.8781  0.5361
 2435TIP3    H2 7312   2.384   1.189   1.671 -0.4328  0.4081  0.3532
 2436TIP3   OH2 7313   0.311   1.904   4.483 -0.8996  0.2377  1.0139
 2436TIP3    H1 7314   0.361   1.858   4.551 -0.2265 -2.6461 -1.2298
 2436TIP3    H2 7315   0.371   1.971   4.450  0.3927 -1.1215  0.4924
 2437TIP3   OH2 7316   5.250   1.863   2.779 -0.5210  0.0586  0.7084
 2437TIP3    H1 7317   5.241   1.900   2.867 -0.2589  0.5817  0.5217
 2437TIP3    H2 7318   5.325   1.909   2.741 -0.1414 -0.7202  0.4900
 2438TIP3   OH2 7319   0.855   2.969   2.593 -0.1922 -0.0433 -0.0724
 2438TIP3    H1 7320   0.785   2.908   2.618 -0.0580  1.1891  4.0053
 2438TIP3    H2 7321   0.809   3.048   2.565 -0.4258 -0.0966  0.1592
 2439TIP3   OH2 7322   5.666   5.662   5.093  0.1377 -0.4527 -0.3038
 2439TIP3    H1 7323   5.725   5.686   5.165 -0.2312  2.2243 -0.7956
 2439TIP3    H2 7324   5.721   5.666   5.015 -0.4132  1.1796 -0.6551
 2440TIP3   OH2 7325   2.598   3.299   1.954  0.3386  0.1950  0.2541
 2440TIP3    H1 7326   2.644   3.222   1.920  0.5812  0.3459  0.2404
 2440TIP3    H2 7327   2.668   3.360   1.976  0.1344  0.5336 -0.0316
 2441TIP3   OH2 7328   6.068   1.799   5.199  0.1872  0.1159 -0.0337
 2441TIP3    H1 7329   6.128   1.846   5.141  0.5478  0.6050  0.7158
 2441TIP3    H2 7330   6.090   1.706   5.185  1.0626  0.2827  0.1602
 2442TIP3   OH2 7331   3.357   3.968   3.812  0.1404 -0.3655 -0.2311
 2442TIP3    H1 7332   3.273   4.012   3.822 -0.1203 -0.8412 -0.3057
 2442TIP3    H2 7333   3.399   3.977   3.898 -0.0464 -0.2488 -0.1523
 2443TIP3   OH2 7334   0.453   2.442   4.565  0.0089 -0.8068 -0.1096
 2443TIP3    H1 7335   0.368   2.458   4.523  0.0928 -2.1241 -0.8333
 2443TIP3    H2 7336   0.445   2.354   4.602  0.8025 -0.6353  0.4885
 2444TIP3   OH2 7337   0.799   4.360   1.605 -0.2473  0.0764  0.0340
 2444TIP3    H1 7338   0.795   4.421   1.531  2.5354 -0.8598 -1.0175
 2444TIP3    H2 7339   0.860   4.292   1.577 -0.4364 -1.2592  2.5550
 2445TIP3   OH2 7340   3.480   0.383   1.204  0.1368  0.1343  0.2859
 2445TIP3    H1 7341   3.561   0.332   1.204 -0.4331 -0.7853 -0.0488
 2445TIP3    H2 7342   3.508   0.472   1.184  0.8863 -0.4758 -1.5421
 2446TIP3   OH2 7343   5.194   4.906   1.192  0.1002  0.0362  0.2450
 2446TIP3    H1 7344   5.221   4.977   1.133 -0.2306 -0.3885 -0.4364
 2446TIP3    H2 7345   5.228   4.827   1.150 -1.4601 -0.4322 -0.2019
 2447TIP3   OH2 7346   6.298   0.956   1.097  0.2127 -0.3814  0.5208
 2447TIP3    H1 7347   6.325   0.923   1.183 -0.5661 -1.9396  0.1944
 2447TIP3    H2 7348   6.209   0.924   1.085 -0.3307  1.2619 -0.1676
 2448TIP3   OH2 7349   5.856   2.987   4.241 -0.2664  0.2750  0.3336
 2448TIP3    H1 7350   5.927   2.941   4.286 -0.1115 -0.4121 -0.5821
 2448TIP3    H2 7351   5.866   2.962   4.149 -1.9122 -0.1379  0.2299
 2449TIP3   OH2 7352   0.915   4.585   3.131  0.0088  0.8882  0.3775
 2449TIP3    H1 7353   0.834   4.533   3.132  1.2611 -1.2353  2.9331
 2449TIP3    H2 7354   0.967   4.547   3.060 -0.0839  0.2514  0.6372
 2450TIP3   OH2 7355   1.776   5.934   4.981 -0.0326  0.2547  0.0352
 2450TIP3    H1 7356   1.758   6.028   4.982  1.2309  0.5237 -0.1124
 2450TIP3    H2 7357   1.760   5.907   4.890 -0.7702  0.2308  0.1637
 2451TIP3   OH2 7358   3.344   1.609   3.142  0.0571  0.0786  0.3485
 2451TIP3    H1 7359   3.327   1.528   3.094  0.5200  0.4723 -0.5052
 2451TIP3    H2 7360   3.432   1.596   3.179  0.5253  0.5430 -0.5683
 2452TIP3   OH2 7361   3.455   5.392   0.462  0.2283  0.0138  0.0928
 2452TIP3    H1 7362   3.479   5.460   0.525  0.3619 -0.6091  0.7178
 2452TIP3    H2 7363   3.360   5.384   0.470  0.3196 -0.5123  0.6756
 2453TIP3   OH2 7364   4.299   5.884   2.393  0.1631  0.1883 -0.1144
 2453TIP3    H1 7365   4.353   5.898   2.471  0.9244  0.1891 -0.6311
 2453TIP3    H2 7366   4.233   5.953   2.398 -0.4283 -0.4255  1.0542
 2454TIP3   OH2 7367   2.513   2.401   1.454  0.0722  0.1954 -0.6604
 2454TIP3    H1 7368   2.474   2.462   1.516  0.4786 -1.4529  1.3336
 2454TIP3    H2 7369   2.577   2.453   1.406  1.0420  1.2042  1.5652
 2455TIP3   OH2 7370   2.461   5.661   3.791  0.0972  0.9198  0.0810
 2455TIP3    H1 7371   2.474   5.706   3.875 -0.1741 -0.4282  0.8697
 2455TIP3    H2 7372   2.527   5.591   3.791 -1.5774 -0.7152  0.3576
 2456TIP3   OH2 7373   2.865   3.348   2.380 -0.2261  0.2921  0.7984
 2456TIP3    H1 7374   2.783   3.309   2.348  0.2520 -0.1849  0.1308
 2456TIP3    H2 7375   2.934   3.294   2.341  0.4290  1.1787  0.7077
 2457TIP3   OH2 7376   4.206   4.577   4.014 -0.1138 -0.0841  0.3079
 2457TIP3    H1 7377   4.232   4.668   4.026 -0.5562  0.0104  0.5823
 2457TIP3    H2 7378   4.255   4.528   4.080  2.2542 -0.4648 -1.5878
 2458TIP3   OH2 7379   2.106   0.478   3.539 -0.0042  0.6406 -0.8977
 2458TIP3    H1 7380   2.173   0.412   3.525  1.2152  2.2346 -3.3640
 2458TIP3    H2 7381   2.152   0.551   3.581 -0.9490  0.5840  0.2931
 2459TIP3   OH2 7382   3.015   2.204   0.402  0.2560 -0.0292  0.5320
 2459TIP3    H1 7383   3.078   2.164   0.342 -0.6795 -2.2534  0.9269
 2459TIP3    H2 7384   3.059   2.283   0.434  1.3832  0.4093 -1.8780
 2460TIP3   OH2 7385   5.319   4.298   1.203 -0.0082  0.5219 -0.1974
 2460TIP3    H1 7386   5.362   4.383   1.197  2.1152 -0.5724 -1.7686
 2460TIP3    H2 7387   5.255   4.298   1.132 -1.6443  1.5885  1.2052
 2461TIP3   OH2 7388   5.912   1.382   3.863 -0.2366  0.0835  0.1063
 2461TIP3    H1 7389   5.866   1.426   3.791 -0.5846  0.0527  0.3097
 2461TIP3    H2 7390   6.004   1.384   3.837  0.0268  2.6718  0.9851
 2462TIP3   OH2 7391   2.820   5.932   4.375  0.3891  0.0415  0.0213
 2462TIP3    H1 7392   2.895   5.926   4.316  1.2748 -0.4355  1.1610
 2462TIP3    H2 7393   2.828   6.017   4.417 -0.2410  0.3803 -0.5156
 2463TIP3   OH2 7394   0.917   3.168   4.630  0.0880  0.0224 -0.8312
 2463TIP3    H1 7395   0.999   3.124   4.650  0.4279  1.1132  0.2518
 2463TIP3    H2 7396   0.941   3.260   4.615 -1.0476  0.5854  0.5914
 2464TIP3   OH2 7397   0.241   3.088   4.182 -0.1501 -0.1837  0.1319
 2464TIP3    H1 7398   0.170   3.151   4.185  1.0585  1.3731 -1.7704
 2464TIP3    H2 7399   0.320   3.140   4.197  0.7624 -1.5260  0.1436
 2465TIP3   OH2 7400   0.572   5.612   1.824 -0.1268 -0.4974 -0.7645
 2465TIP3    H1 7401   0.513   5.541   1.799 -0.9959  0.1630 -0.6543
 2465TIP3    H2 7402   0.607   5.645   1.741  0.0737 -0.8777 -0.8319
 2466TIP3   OH2 7403   4.128   0.882   2.131 -0.2102 -0.1248  0.2518
 2466TIP3    H1 7404   4.065   0.819   2.096 -0.7431 -0.6494  2.0317
 2466TIP3    H2 7405   4.088   0.968   2.114 -0.6087 -0.3744 -0.1019
 2467TIP3   OH2 7406   5.722   2.334   0.266  0.1535 -0.1627 -0.1188
 2467TIP3    H1 7407   5.765   2.289   0.339 -0.9939 -0.0261  0.6748
 2467TIP3    H2 7408   5.641   2.285   0.251  0.1052  0.1486 -0.9204
 2468TIP3   OH2 7409   1.493   4.096   3.027  0.2223 -0.3448 -1.0137
 2468TIP3    H1 7410   1.408   4.139   3.017 -0.6402 -2.1337 -1.6699
 2468TIP3    H2 7411   1.539   4.115   2.945 -0.9942 -2.3865 -2.2398
 2469TIP3   OH2 7412   3.582   3.799   1.134 -0.0938 -0.2386 -0.8090
 2469TIP3    H1 7413   3.656   3.756   1.091 -0.0790  0.2536 -1.2807
 2469TIP3    H2 7414   3.597   3.892   1.121  0.2055 -0.0429  0.7526
 2470TIP3   OH2 7415   1.958   5.617   0.684  0.3617  0.1064 -0.1860
 2470TIP3    H1 7416   1.895   5.550   0.711  1.1384 -0.9056 -0.7727
 2470TIP3    H2 7417   1.904   5.688   0.650 -0.4888 -0.8586 -0.9540
 2471TIP3   OH2 7418   2.186   2.140   2.889  0.1680 -0.1300  0.0687
 2471TIP3    H1 7419   2.272   2.167   2.922 -0.1038 -1.0146  1.5967
 2471TIP3    H2 7420   2.159   2.069   2.948 -0.7974 -1.1258 -1.5130
 2472TIP3   OH2 7421   4.508   4.922   5.038  0.2602 -0.8234  0.1009
 2472TIP3    H1 7422   4.445   4.973   4.987  0.5139  1.8701  2.2760
 2472TIP3    H2 7423   4.469   4.915   5.125  1.9946 -0.9610  0.9162
 2473TIP3   OH2 7424   3.672   4.462   1.844  0.2689  0.4639  0.0018
 2473TIP3    H1 7425   3.662   4.393   1.778  0.7542 -0.8734  1.2715
 2473TIP3    H2 7426   3.736   4.522   1.807  1.3287 -0.8209 -0.3272
 2474TIP3   OH2 7427   2.028   1.960   2.729  0.5032  0.1260 -0.1461
 2474TIP3    H1 7428   2.002   1.924   2.814 -0.1783 -0.5487 -0.6405
 2474TIP3    H2 7429   2.053   2.051   2.749 -0.7355  0.3292  0.5950
 2475TIP3   OH2 7430   0.276   0.662   1.023 -0.5990 -0.0995 -0.1993
 2475TIP3    H1 7431   0.365   0.698   1.018 -1.4482  2.0211 -1.6751
 2475TIP3    H2 7432   0.276   0.608   1.102  1.5462  1.1076  0.7154
 2476TIP3   OH2 7433   2.043   1.307   1.921 -0.3697 -0.2431  0.2783
 2476TIP3    H1 7434   2.126   1.271   1.953  0.0915  1.2090  0.7960
 2476TIP3    H2 7435   2.035   1.391   1.965 -1.8884 -0.1378 -0.1559
 2477TIP3   OH2 7436   2.110   4.302   4.681 -0.2947  0.4021 -0.0963
 2477TIP3    H1 7437   2.183   4.255   4.642 -0.3680  0.0235  0.2136
 2477TIP3    H2 7438   2.148   4.383   4.716  0.6537 -1.1601  2.8851
 2478TIP3   OH2 7439   3.763   5.072   3.132  0.4527 -0.0949  0.3530
 2478TIP3    H1 7440   3.799   4.989   3.164  0.0348 -0.4648 -0.1205
 2478TIP3    H2 7441   3.668   5.062   3.142  0.3721  0.1311 -0.1528
 2479TIP3   OH2 7442   5.918   0.719   0.214  0.1390 -0.0823 -0.5979
 2479TIP3    H1 7443   6.008   0.745   0.237 -0.2751  0.5338  0.4062
 2479TIP3    H2 7444   5.910   0.630   0.247 -0.4764  0.8186  1.9187
 2480TIP3   OH2 7445   0.662   4.131   1.750 -0.4812  0.4616  0.8438
 2480TIP3    H1 7446   0.695   4.220   1.739 -0.0178  0.3306  1.2030
 2480TIP3    H2 7447   0.580   4.130   1.699 -0.8378  1.2848  1.3809
 2481TIP3   OH2 7448   5.800   0.789   5.032  0.9223  0.0587  0.3640
 2481TIP3    H1 7449   5.732   0.721   5.038  0.4004  0.6550  1.6531
 2481TIP3    H2 7450   5.835   0.795   5.122  3.5901 -1.1043 -0.4660
 2482TIP3   OH2 7451   0.748   0.236   3.564 -0.2368  0.3536  0.6278
 2482TIP3    H1 7452   0.744   0.332   3.560 -1.0771  0.3109 -1.5655
 2482TIP3    H2 7453   0.780   0.211   3.477 -1.1332 -1.3666  0.7593
 2483TIP3   OH2 7454   1.970   4.198   0.852  0.0233 -0.0766 -0.4296
 2483TIP3    H1 7455   2.049   4.213   0.800  1.4083 -2.1347  0.9173
 2483TIP3    H2 7456   1.975   4.263   0.922 -1.1546  1.8165 -2.0020
 2484TIP3   OH2 7457   5.087   2.303   3.053  0.1124 -0.0187  0.2604
 2484TIP3    H1 7458   5.087   2.282   3.146  0.0146  0.7971  0.4561
 2484TIP3    H2 7459   5.172   2.344   3.038  0.9853 -1.9725 -0.4659
 2485TIP3   OH2 7460   1.062   2.947   5.205 -0.3624 -0.0602 -0.4626
 2485TIP3    H1 7461   0.993   3.005   5.236  0.2592  1.3285 -1.5688
 2485TIP3    H2 7462   1.072   2.968   5.112  0.5714 -1.2343 -0.6573
 2486TIP3   OH2 7463   2.253   3.628   1.767  0.3003 -0.1752 -0.5683
 2486TIP3    H1 7464   2.284   3.565   1.702 -1.6860 -1.4995 -0.3084
 2486TIP3    H2 7465   2.295   3.601   1.849 -2.0831 -2.6313  0.0171
 2487TIP3   OH2 7466   3.515   1.164   4.463  0.1361 -0.1677 -0.1506
 2487TIP3    H1 7467   3.450   1.187   4.396 -0.3772 -0.7836  0.1272
 2487TIP3    H2 7468   3.482   1.206   4.543  0.0940 -0.4602 -0.0152
 2488TIP3   OH2 7469   5.327   4.936   4.350  0.3468 -0.1554  0.5524
 2488TIP3    H1 7470   5.251   4.905   4.400 -2.1089  0.4466 -2.4991
 2488TIP3    H2 7471   5.343   4.866   4.287  1.8211  0.1344  0.5770
 2489TIP3   OH2 7472   2.844   4.297   4.358  0.3761 -0.2173  0.0723
 2489TIP3    H1 7473   2.755   4.263   4.366  0.0864  0.3774 -0.5357
 2489TIP3    H2 7474   2.900   4.220   4.366 -0.1324 -0.4668  1.5574
 2490TIP3   OH2 7475   6.341   3.904   2.142  0.2113  0.1630 -0.0715
 2490TIP3    H1 7476   6.345   3.843   2.215  2.1226 -0.2271 -0.4470
 2490TIP3    H2 7477   6.324   3.849   2.065 -0.2632  0.3799 -0.1239
 2491TIP3   OH2 7478   5.753   1.483   4.898 -0.0912  0.1225 -1.0323
 2491TIP3    H1 7479   5.802   1.562   4.923 -1.2686  0.3746  0.6538
 2491TIP3    H2 7480   5.665   1.516   4.879 -1.4950 -1.0362  2.7139
 2492TIP3   OH2 7481   0.156   4.729   4.644 -0.5157  0.0431  0.2173
 2492TIP3    H1 7482   0.167   4.790   4.718  1.1968  1.1976 -0.9040
 2492TIP3    H2 7483   0.188   4.645   4.678  0.4758  0.6077  0.7544
 2493TIP3   OH2 7484   0.380   3.267   0.138  0.0595 -0.0874  0.3255
 2493TIP3    H1 7485   0.354   3.312   0.219 -0.8278 -0.7308  0.4167
 2493TIP3    H2 7486   0.475   3.276   0.135  0.1359 -0.3033  1.6025
 2494TIP3   OH2 7487   5.637   5.067   4.590  0.7020 -0.3422 -0.2687
 2494TIP3    H1 7488   5.555   5.063   4.639  0.5067 -2.1416 -0.6660
 2494TIP3    H2 7489   5.701   5.101   4.652  0.2716 -1.7216  0.9769
 2495TIP3   OH2 7490   2.347   5.483   4.036  0.2827  0.1359 -0.1637
 2495TIP3    H1 7491   2.350   5.446   4.124  1.3707  3.1424  1.1817
 2495TIP3    H2 7492   2.438   5.504   4.015 -0.1251  0.7747 -1.4324
 2496TIP3   OH2 7493   5.288   3.365   4.428 -0.2515  0.2684 -0.4847
 2496TIP3    H1 7494   5.231   3.441   4.421 -0.7927 -0.1311 -0.4964
 2496TIP3    H2 7495   5.273   3.331   4.516 -2.5700 -1.7713 -1.5295
 2497TIP3   OH2 7496   2.176   5.663   2.050 -0.1711 -0.0662  0.2598
 2497TIP3    H1 7497   2.129   5.723   1.992 -1.7514 -1.7301 -0.2902
 2497TIP3    H2 7498   2.124   5.661   2.130  1.3798  1.3408  1.3649
 2498TIP3   OH2 7499   4.595   5.510   4.203  0.2015  0.5697 -0.1400
 2498TIP3    H1 7500   4.644   5.529   4.123  0.4257 -1.4295 -0.5285
 2498TIP3    H2 7501   4.504   5.513   4.177  0.2864 -1.8229 -0.9978
 2499TIP3   OH2 7502   2.776   0.051   0.760 -0.3942 -0.0244  0.3465
 2499TIP3    H1 7503   2.709   0.074   0.695  0.3071  1.2657  0.0442
 2499TIP3    H2 7504   2.840   0.001   0.710  0.4580  1.4952 -0.1514
 2500TIP3   OH2 7505   4.139   3.057   4.653 -0.2146  0.1755 -0.4444
 2500TIP3    H1 7506   4.056   3.087   4.691 -0.3771  0.6684 -1.1741
 2500TIP3    H2 7507   4.202   3.125   4.675 -0.0273 -0.1337 -0.0081
 2501TIP3   OH2 7508   2.325   2.584   2.028 -0.0399 -0.6052  0.1143
 2501TIP3    H1 7509   2.266   2.509   2.029 -0.9210  0.0603  1.3825
 2501TIP3    H2 7510   2.376   2.576   2.109 -0.2414  0.2141  0.3357
 2502TIP3   OH2 7511   0.712   3.435   4.489 -0.3285  0.0071 -0.0064
 2502TIP3    H1 7512   0.710   3.529   4.469 -1.8157  0.0287  0.1286
 2502TIP3    H2 7513   0.666   3.427   4.573  0.5294 -0.7582  0.4064
 2503TIP3   OH2 7514   3.600   5.936   2.550  0.1140  0.1792  0.6310
 2503TIP3    H1 7515   3.525   5.994   2.565  0.5036  0.9214 -0.1719
 2503TIP3    H2 7516   3.676   5.994   2.551  0.6548 -0.5197  1.1169
 2504TIP3   OH2 7517   1.081   5.493   2.224  0.4166  0.6664 -0.0786
 2504TIP3    H1 7518   1.104   5.523   2.136  0.1059  0.8592 -0.0979
 2504TIP3    H2 7519   1.098   5.399   2.223  1.5925  0.8656  0.0444
 2505TIP3   OH2 7520   0.356   5.544   2.147  0.0806 -0.2016  0.2403
 2505TIP3    H1 7521   0.287   5.488   2.183  0.7584 -0.6862  0.7926
 2505TIP3    H2 7522   0.434   5.524   2.198  0.1485  1.8560  1.0395
 2506TIP3   OH2 7523   4.285   1.999   0.834  0.7040  0.3069  0.3829
 2506TIP3    H1 7524   4.232   1.984   0.912  1.5488  1.2235  1.1727
 2506TIP3    H2 7525   4.354   1.932   0.839  2.0622  1.6959  1.6820
 2507TIP3   OH2 7526   0.262   5.593   3.782  0.0155 -0.0149 -0.1433
 2507TIP3    H1 7527   0.345   5.561   3.816 -0.7228 -0.6787  1.1082
 2507TIP3    H2 7528   0.197   5.532   3.815 -1.1768  1.4665  0.3947
 2508TIP3   OH2 7529   4.141   1.914   3.252 -0.5248  0.4443 -0.2507
 2508TIP3    H1 7530   4.140   1.939   3.160 -1.0970  1.4222  0.0154
 2508TIP3    H2 7531   4.174   1.991   3.299  0.3463 -0.2480  0.3127
 2509TIP3   OH2 7532   4.891   5.934   5.083  0.3906  0.6398 -0.0285
 2509TIP3    H1 7533   4.845   5.896   5.158 -0.4707 -2.2449 -1.8521
 2509TIP3    H2 7534   4.982   5.907   5.093  0.1016 -0.5240 -0.4546
 2510TIP3   OH2 7535   0.762   5.582   2.891  0.1006 -0.1363 -0.1421
 2510TIP3    H1 7536   0.819   5.646   2.934 -0.2748  0.1365 -0.0434
 2510TIP3    H2 7537   0.770   5.602   2.797 -0.2963  0.3063 -0.0914
 2511TIP3   OH2 7538   1.956   5.341   1.569 -0.1190 -0.1111  0.2765
 2511TIP3    H1 7539   1.999   5.421   1.600 -0.0003 -0.5942  1.3975
 2511TIP3    H2 7540   2.008   5.270   1.606 -2.0589 -0.7254  2.0202
 2512TIP3   OH2 7541   2.210   1.451   2.449  0.8676  0.1176 -0.0824
 2512TIP3    H1 7542   2.162   1.514   2.502  0.8265  0.1206 -0.1232
 2512TIP3    H2 7543   2.254   1.504   2.383 -0.1773 -0.0079 -0.9013
 2513TIP3   OH2 7544   4.123   5.699   3.494 -0.0722  0.2801 -0.3535
 2513TIP3    H1 7545   4.112   5.604   3.496 -1.9758  0.4655  1.5782
 2513TIP3    H2 7546   4.033   5.733   3.491  0.5838  2.0683 -2.9538
 2514TIP3   OH2 7547   5.410   5.482   4.335  0.0962  0.5790  0.2850
 2514TIP3    H1 7548   5.398   5.401   4.286  0.2819  0.5332  0.3124
 2514TIP3    H2 7549   5.352   5.473   4.411  0.0231  0.5262  0.2235
 2515TIP3   OH2 7550   5.190   5.587   1.858  0.3025  0.0812 -0.0895
 2515TIP3    H1 7551   5.101   5.564   1.830  0.1335 -2.6880  2.1948
 2515TIP3    H2 7552   5.245   5.569   1.782 -0.8617  0.0569 -0.9609
 2516TIP3   OH2 7553   0.515   1.802   5.144  0.3244 -0.1637  0.3922
 2516TIP3    H1 7554   0.556   1.880   5.181 -0.3224 -0.0907  0.9787
 2516TIP3    H2 7555   0.546   1.730   5.199 -0.4085 -0.0925  0.9114
 2517TIP3   OH2 7556   1.416   0.718   1.750  0.0045 -0.1689 -0.6670
 2517TIP3    H1 7557   1.486   0.660   1.780  0.7454  1.2151  0.4246
 2517TIP3    H2 7558   1.362   0.663   1.694  1.3102 -1.5938 -0.6098
 2518TIP3   OH2 7559   5.588   3.787   2.061  0.1522  0.2818  0.5654
 2518TIP3    H1 7560   5.533   3.750   2.129 -0.5554 -1.7852 -1.0353
 2518TIP3    H2 7561   5.655   3.837   2.108 -0.0844 -1.3627  2.7721
 2519TIP3   OH2 7562   4.976   2.843   0.723 -0.1701 -0.4771  0.7808
 2519TIP3    H1 7563   4.985   2.895   0.803 -2.4382  0.8829  0.2382
 2519TIP3    H2 7564   4.924   2.899   0.664  0.1674 -2.0372 -1.1037
 2520TIP3   OH2 7565   1.213   3.382   2.221 -0.3274 -0.0548 -0.3200
 2520TIP3    H1 7566   1.120   3.370   2.241 -0.3798 -0.4286 -0.7765
 2520TIP3    H2 7567   1.230   3.474   2.242 -1.4990  0.8687 -2.9460
 2521TIP3   OH2 7568   4.602   5.587   1.468 -0.4739  0.2310 -0.6547
 2521TIP3    H1 7569   4.572   5.678   1.465  3.4342  1.8767  1.5983
 2521TIP3    H2 7570   4.569   5.554   1.552  0.4631  0.6505 -0.0983
 2522TIP3   OH2 7571   2.465   3.504   2.449 -0.4844  0.2968  0.3693
 2522TIP3    H1 7572   2.389   3.459   2.488  0.2152  0.2467  1.7234
 2522TIP3    H2 7573   2.436   3.594   2.436 -0.7808  0.2728  0.8655
 2523TIP3   OH2 7574   2.605   0.170   4.184 -0.3299  0.5846  0.7688
 2523TIP3    H1 7575   2.631   0.109   4.253  2.1780  0.9727  0.2418
 2523TIP3    H2 7576   2.578   0.114   4.112  1.2878  0.0498  0.5379
 2524TIP3   OH2 7577   1.379   4.175   0.738 -0.6053 -0.2659  0.4307
 2524TIP3    H1 7578   1.347   4.189   0.649 -0.8529 -0.2843  0.5142
 2524TIP3    H2 7579   1.300   4.182   0.792 -0.5494 -0.8582  0.5887
 2525TIP3   OH2 7580   0.788   0.748   2.933 -0.4403 -0.5829 -0.0076
 2525TIP3    H1 7581   0.836   0.670   2.907  1.0616  0.2170  0.2408
 2525TIP3    H2 7582   0.811   0.813   2.866  0.8896  0.5462  1.4614
 2526TIP3   OH2 7583   5.354   2.797   0.269 -0.1550 -0.0273 -0.6349
 2526TIP3    H1 7584   5.366   2.715   0.222  0.1591  0.5841 -1.6510
 2526TIP3    H2 7585   5.281   2.781   0.328  0.3565 -1.2533 -0.3160
 2527TIP3   OH2 7586   5.058   1.657   3.300 -0.4883 -0.4131  0.2567
 2527TIP3    H1 7587   5.061   1.631   3.392 -2.8807 -0.7329  0.2929
 2527TIP3    H2 7588   5.064   1.753   3.302  1.6649 -0.4954  0.5376
 2528TIP3   OH2 7589   4.585   3.125   0.672  0.3162  0.2089  0.6164
 2528TIP3    H1 7590   4.589   3.217   0.646 -0.6193  0.0932  0.0364
 2528TIP3    H2 7591   4.552   3.079   0.595  3.3310 -1.0376 -0.0807
 2529TIP3   OH2 7592   5.881   2.171   0.427 -0.1227 -0.4498 -0.1201
 2529TIP3    H1 7593   5.939   2.143   0.357 -0.6705  0.3429 -0.9138
 2529TIP3    H2 7594   5.859   2.090   0.474  1.3657 -0.7993  0.0257
 2530TIP3   OH2 7595   5.126   0.544   1.184 -0.0475  0.1871 -0.3389
 2530TIP3    H1 7596   5.155   0.519   1.272  1.6699 -2.5681 -1.5692
 2530TIP3    H2 7597   5.030   0.540   1.189  0.0443 -1.0404  1.1272
 2531TIP3   OH2 7598   4.955   0.703   0.592  0.0782  0.3460  0.0730
 2531TIP3    H1 7599   4.913   0.788   0.608 -0.1303  0.3539 -0.5170
 2531TIP3    H2 7600   4.884   0.640   0.599  0.4164  0.0881  1.6218
 2532TIP3   OH2 7601   5.784   1.284   0.409 -0.8497  0.2661 -0.2893
 2532TIP3    H1 7602   5.763   1.271   0.501 -0.7183  0.3738 -0.2430
 2532TIP3    H2 7603   5.864   1.233   0.395 -1.1580 -0.1682 -0.4713
 2533TIP3   OH2 7604   5.619   0.722   0.982  0.4398  0.3218  0.1733
 2533TIP3    H1 7605   5.606   0.647   1.040  0.4192 -0.3574 -0.6746
 2533TIP3    H2 7606   5.531   0.750   0.958  0.4496  0.4948  0.3384
 2534TIP3   OH2 7607   4.426   5.838   1.850 -0.0111  0.4308  0.1177
 2534TIP3    H1 7608   4.407   5.818   1.942 -0.3103 -1.5257 -0.3381
 2534TIP3    H2 7609   4.359   5.902   1.826 -1.6758 -1.0914  0.5253
 2535TIP3   OH2 7610   2.858   5.326   2.817  0.2566 -0.2242 -0.2164
 2535TIP3    H1 7611   2.874   5.237   2.786  0.9293  0.2431 -1.2501
 2535TIP3    H2 7612   2.763   5.333   2.823  0.2092 -1.1431  0.2852
 2536TIP3   OH2 7613   0.602   4.535   3.853 -0.2000 -0.7127 -0.0784
 2536TIP3    H1 7614   0.678   4.552   3.909  0.2137 -0.0465 -0.8268
 2536TIP3    H2 7615   0.627   4.457   3.802  0.7799  0.5560 -1.6503
 2537TIP3   OH2 7616   5.984   3.100   2.406 -0.3492 -0.8335  0.1696
 2537TIP3    H1 7617   6.026   3.185   2.418 -0.0433 -0.8565 -0.6892
 2537TIP3    H2 7618   5.959   3.073   2.495  0.2075 -0.1920  0.5303
 2538TIP3   OH2 7619   2.172   0.069   3.623 -0.3251 -0.1590  0.0064
 2538TIP3    H1 7620   2.246   0.072   3.562  0.6312  0.7232  1.1499
 2538TIP3    H2 7621   2.206   0.019   3.698 -1.7327 -1.9103 -0.4522
 2539TIP3   OH2 7622   4.575   5.257   1.576 -0.5811 -0.1883 -0.5702
 2539TIP3    H1 7623   4.577   5.348   1.608  1.0688 -0.4310  0.1299
 2539TIP3    H2 7624   4.487   5.246   1.541 -0.8012  1.7145 -0.7481
 2540TIP3   OH2 7625   4.297   3.876   3.005  0.0571 -0.3939 -0.0283
 2540TIP3    H1 7626   4.226   3.825   3.044 -1.2326  1.3108 -0.0461
 2540TIP3    H2 7627   4.258   3.918   2.929  1.6070 -0.8412 -1.1330
 2541TIP3   OH2 7628   5.113   0.259   4.835 -0.1064  0.5500  0.0439
 2541TIP3    H1 7629   5.144   0.227   4.750 -1.0764 -0.0021 -0.1084
 2541TIP3    H2 7630   5.029   0.216   4.848  0.8340 -0.7989  2.1173
 2542TIP3   OH2 7631   3.182   2.162   1.603 -0.4094  0.1183 -0.0632
 2542TIP3    H1 7632   3.257   2.122   1.560  0.8532 -0.2175  2.2705
 2542TIP3    H2 7633   3.192   2.256   1.588 -0.7129 -0.0493 -1.4848
 2543TIP3   OH2 7634   0.179   3.806   0.026  0.0604 -0.1158  0.0294
 2543TIP3    H1 7635   0.140   3.816   0.113 -1.6446 -0.9011 -0.6004
 2543TIP3    H2 7636   0.211   3.893   0.003 -0.4966  0.3489  0.9777
 2544TIP3   OH2 7637   3.997  -0.028   4.074  0.2897  0.5042  0.2135
 2544TIP3    H1 7638   3.996   0.014   3.988  2.0201 -0.7369 -0.4689
 2544TIP3    H2 7639   4.055   0.027   4.126  0.9629  0.0906 -0.0827
 2545TIP3   OH2 7640   5.030   5.750   1.555  0.1238  0.4645  0.0302
 2545TIP3    H1 7641   5.121   5.727   1.538  0.1829 -0.2755  1.2154
 2545TIP3    H2 7642   4.993   5.673   1.600 -1.3229  0.4087 -1.1621
 2546TIP3   OH2 7643   5.673   0.772   1.286 -0.0387 -0.1148 -0.0729
 2546TIP3    H1 7644   5.629   0.735   1.362 -0.8094 -0.5018 -0.6970
 2546TIP3    H2 7645   5.603   0.789   1.223  0.6787 -0.7399 -1.0778
 2547TIP3   OH2 7646   2.434   0.368   1.522 -0.3696  0.0051  0.1360
 2547TIP3    H1 7647   2.526   0.361   1.548 -0.4955  0.1036  0.6202
 2547TIP3    H2 7648   2.415   0.285   1.478 -0.2834 -0.3778  0.8079
 2548TIP3   OH2 7649   3.863   5.444   1.728 -0.0457 -0.5554  0.7132
 2548TIP3    H1 7650   3.790   5.383   1.721 -0.4323 -0.1501  1.1427
 2548TIP3    H2 7651   3.896   5.434   1.817 -0.1208 -0.1266  0.7910
 2549TIP3   OH2 7652   3.260   4.474   3.630 -0.2353 -0.0108 -0.4151
 2549TIP3    H1 7653   3.316   4.399   3.613 -1.2675 -1.1382  0.8957
 2549TIP3    H2 7654   3.316   4.535   3.678  0.2697 -0.4935 -0.3770
 2550TIP3   OH2 7655   2.850   5.774   0.536  0.3029 -0.2025 -0.3537
 2550TIP3    H1 7656   2.944   5.775   0.557  0.4263  1.4825 -0.7942
 2550TIP3    H2 7657   2.813   5.708   0.594  1.8215 -1.2015 -0.4626
 2551TIP3   OH2 7658   2.727   5.135   1.766  0.7486 -0.1558 -0.0289
 2551TIP3    H1 7659   2.663   5.197   1.802  0.0113 -0.9540  0.0656
 2551TIP3    H2 7660   2.791   5.190   1.720  1.1354  0.8099  1.5912
 2552TIP3   OH2 7661   5.256   3.001   1.363 -0.0021 -0.4948 -0.6454
 2552TIP3    H1 7662   5.272   2.912   1.332  0.5923 -1.5087  2.2842
 2552TIP3    H2 7663   5.305   3.008   1.445 -1.4406  1.9506  0.1272
 2553TIP3   OH2 7664   0.919   5.529   1.622 -0.0084 -0.5628 -0.8061
 2553TIP3    H1 7665   0.970   5.609   1.609 -1.9318  0.3754 -3.2816
 2553TIP3    H2 7666   0.965   5.462   1.570  1.7468 -1.2620  1.4686
 2554TIP3   OH2 7667   1.745   4.449   5.085 -0.7753  0.1805 -0.0940
 2554TIP3    H1 7668   1.785   4.505   5.151 -2.3860 -0.3979  1.4600
 2554TIP3    H2 7669   1.806   4.450   5.011 -0.4855  3.5427  0.0488
 2555TIP3   OH2 7670   6.324   0.903   1.387  0.4941 -0.1789 -0.3478
 2555TIP3    H1 7671   6.383   0.977   1.376  0.4179 -0.2707 -1.3922
 2555TIP3    H2 7672   6.281   0.919   1.471  1.0031  0.5851 -0.2279
 2556TIP3   OH2 7673   5.407   4.563   0.533 -0.1210 -0.0287  0.8573
 2556TIP3    H1 7674   5.466   4.496   0.569  0.4921 -1.9609 -3.1442
 2556TIP3    H2 7675   5.440   4.579   0.445 -1.1152  4.7160  1.0734
 2557TIP3   OH2 7676   4.313   0.162   4.449 -0.1744 -0.5561  0.4660
 2557TIP3    H1 7677   4.324   0.257   4.457  0.1925 -0.5396 -0.2108
 2557TIP3    H2 7678   4.248   0.140   4.517 -1.2859  0.3747 -0.2529
 2558TIP3   OH2 7679   3.365   3.415   1.190  0.5622 -0.9473  0.0105
 2558TIP3    H1 7680   3.460   3.403   1.201  0.7268 -0.5115 -0.7940
 2558TIP3    H2 7681   3.358   3.479   1.119 -0.3483 -2.0215 -0.9161
 2559TIP3   OH2 7682   3.321   1.864   4.026 -0.4279 -0.1383  0.2660
 2559TIP3    H1 7683   3.312   1.927   3.955  1.1150 -0.4990 -0.2701
 2559TIP3    H2 7684   3.233   1.825   4.035 -0.5283 -0.4717 -1.7792
 2560TIP3   OH2 7685   4.689   1.037   0.853  0.1362  0.1625 -0.3755
 2560TIP3    H1 7686   4.758   1.100   0.875 -0.0297 -0.0438  0.8295
 2560TIP3    H2 7687   4.647   1.073   0.775  0.4769  1.2083 -0.0933
 2561TIP3   OH2 7688   2.096   2.017   2.362 -0.0985  0.2457 -0.0648
 2561TIP3    H1 7689   2.009   1.978   2.375  0.1062  0.0593  0.8238
 2561TIP3    H2 7690   2.081   2.111   2.366 -0.0701  0.2092  1.5868
 2562TIP3   OH2 7691   5.504   5.301   0.064 -0.7367  0.4402  0.6131
 2562TIP3    H1 7692   5.557   5.314   0.143  1.1089  1.8948 -0.7587
 2562TIP3    H2 7693   5.562   5.256   0.003 -0.8292  2.4427 -1.0903
 2563TIP3   OH2 7694   2.401   3.221   2.654  0.5942  0.2485  0.0797
 2563TIP3    H1 7695   2.435   3.146   2.605  2.9331  1.2541  0.0678
 2563TIP3    H2 7696   2.446   3.218   2.738  1.0029  1.8253 -0.0557
 2564TIP3   OH2 7697   6.008   1.962   0.928  0.6585 -0.1296 -0.2219
 2564TIP3    H1 7698   6.099   1.937   0.943  0.3476 -2.3127 -1.5671
 2564TIP3    H2 7699   5.964   1.945   1.011  1.1355 -0.8051 -0.1049
 2565TIP3   OH2 7700   1.698   0.419   1.663  0.6823  0.4250  0.1491
 2565TIP3    H1 7701   1.708   0.333   1.621 -0.2137  0.4024 -0.0333
 2565TIP3    H2 7702   1.783   0.434   1.706  0.7495 -0.6969  0.4608
 2566TIP3   OH2 7703   4.959   5.150   0.704  0.3672 -0.0558 -0.7750
 2566TIP3    H1 7704   5.015   5.145   0.782 -0.7963 -1.5379  0.0211
 2566TIP3    H2 7705   4.970   5.065   0.661 -1.2265 -0.3602 -0.6129
 2567TIP3   OH2 7706   5.500   5.470   2.261  0.1269 -0.4655 -0.4163
 2567TIP3    H1 7707   5.406   5.451   2.268  0.3627 -1.5664  0.1755
 2567TIP3    H2 7708   5.532   5.459   2.351  0.3140  3.0833  0.0646
 2568TIP3   OH2 7709   2.950   3.805   3.812 -0.1236 -0.7828  0.6845
 2568TIP3    H1 7710   2.880   3.751   3.776  0.3380 -0.4614 -0.7433
 2568TIP3    H2 7711   2.918   3.831   3.899 -0.4048 -3.2528  1.4063
 2569TIP3   OH2 7712   2.371   3.573   2.009 -0.4394 -0.4689 -0.0141
 2569TIP3    H1 7713   2.392   3.482   2.025 -2.2748 -0.8152  0.7179
 2569TIP3    H2 7714   2.277   3.580   2.028 -0.0477  1.9021  1.6098
 2570TIP3   OH2 7715   3.924   1.127   4.307 -0.0851 -0.1075 -0.0031
 2570TIP3    H1 7716   3.981   1.088   4.241  0.1458 -1.2015  0.8018
 2570TIP3    H2 7717   3.958   1.215   4.320  1.9303 -0.9808  0.9947
 2571TIP3   OH2 7718   5.042   1.963   3.271  0.2792  0.3896  0.0294
 2571TIP3    H1 7719   4.946   1.959   3.276  0.3770 -1.7913  3.1594
 2571TIP3    H2 7720   5.065   2.041   3.320  0.1134  0.0893  0.5953
 2572TIP3   OH2 7721   5.965   2.590   1.034 -0.0736  0.0581  0.5107
 2572TIP3    H1 7722   5.981   2.607   0.941  1.2603  0.6631  0.8277
 2572TIP3    H2 7723   5.927   2.671   1.068  3.2945  1.4572  1.3289
 2573TIP3   OH2 7724   0.308   2.432   5.046 -0.2918 -0.5087 -0.3121
 2573TIP3    H1 7725   0.388   2.387   5.017  0.5160  1.1252 -0.7421
 2573TIP3    H2 7726   0.339   2.503   5.102 -1.6007 -1.0536  1.1721
 2574TIP3   OH2 7727   1.247   2.555   1.796 -0.3888 -0.3135  0.1844
 2574TIP3    H1 7728   1.264   2.647   1.818  2.1731 -0.6881  0.0538
 2574TIP3    H2 7729   1.295   2.542   1.714 -1.4238 -1.5755 -0.2469
 2575TIP3   OH2 7730   3.785   0.674   0.356  0.1835  0.1224  0.1254
 2575TIP3    H1 7731   3.824   0.614   0.293  0.2948  1.7966 -1.4684
 2575TIP3    H2 7732   3.777   0.623   0.436 -1.6205 -2.6665 -1.6664
 2576TIP3   OH2 7733   5.106   0.662   2.660 -0.1877 -0.1054  0.1958
 2576TIP3    H1 7734   5.150   0.679   2.743  0.2957 -1.0145  0.1439
 2576TIP3    H2 7735   5.127   0.571   2.641 -1.2667 -0.2471 -0.3459
 2577TIP3   OH2 7736   1.497   1.980   3.655 -0.1055 -0.3338  0.0708
 2577TIP3    H1 7737   1.404   1.970   3.637 -0.4945  1.8895  0.5051
 2577TIP3    H2 7738   1.508   1.949   3.745 -1.0123  1.8935  1.0136
 2578TIP3   OH2 7739   5.669   5.240   1.503 -0.1005 -0.3213  0.0805
 2578TIP3    H1 7740   5.620   5.287   1.435 -0.8815 -0.9396  0.2042
 2578TIP3    H2 7741   5.649   5.148   1.488  0.2882 -0.5131  0.7142
 2579TIP3   OH2 7742   3.056   3.892   0.072  0.4413 -0.0334 -0.3977
 2579TIP3    H1 7743   3.112   3.950   0.123  1.0300 -0.9695  0.0486
 2579TIP3    H2 7744   3.055   3.810   0.121  0.9082 -0.9188 -1.8075
 2580TIP3   OH2 7745   2.477   1.837   0.754  0.3965  0.1952  0.2141
 2580TIP3    H1 7746   2.475   1.824   0.848  1.8394 -1.5631  0.0588
 2580TIP3    H2 7747   2.495   1.930   0.743  0.9959  0.2835  1.7017
 2581TIP3   OH2 7748   1.405   4.189   0.314  0.3954  0.5359  0.2444
 2581TIP3    H1 7749   1.413   4.093   0.316  1.0316  0.5855  1.8446
 2581TIP3    H2 7750   1.341   4.208   0.384  0.8410  1.3146  0.4418
 2582TIP3   OH2 7751   2.374   1.645   1.073  0.0843  0.7610  0.7284
 2582TIP3    H1 7752   2.357   1.619   1.163  0.4560  1.7367  1.0977
 2582TIP3    H2 7753   2.379   1.563   1.024 -1.9755  0.2761  1.2386
 2583TIP3   OH2 7754   1.959   4.344   3.308  0.4549  0.2303  0.3702
 2583TIP3    H1 7755   2.023   4.383   3.368  0.7555  1.2170 -0.5457
 2583TIP3    H2 7756   1.894   4.303   3.364  0.5668  1.3799  1.3689
 2584TIP3   OH2 7757   2.499   2.102   0.715 -0.1888 -0.0240 -0.4547
 2584TIP3    H1 7758   2.558   2.174   0.736 -0.0645 -0.5636  1.1384
 2584TIP3    H2 7759   2.417   2.145   0.690 -0.2086  0.6912  0.7570
 2585TIP3   OH2 7760   4.597   4.686   3.409  0.9036 -0.2242  0.4889
 2585TIP3    H1 7761   4.671   4.729   3.452  1.1430  1.0827 -1.1515
 2585TIP3    H2 7762   4.526   4.750   3.414  1.0381  0.1166 -1.3117
 2586TIP3   OH2 7763   3.245   1.217   2.906 -0.2499  0.2518  0.2343
 2586TIP3    H1 7764   3.321   1.182   2.861  1.4567  0.9413  2.4217
 2586TIP3    H2 7765   3.203   1.274   2.842  1.2779  0.1514 -0.9001
 2587TIP3   OH2 7766   5.126   1.359   0.750  0.2467  0.3012 -0.2205
 2587TIP3    H1 7767   5.148   1.271   0.780  0.0686  0.1965 -0.3964
 2587TIP3    H2 7768   5.047   1.383   0.799 -1.6602 -0.9278 -2.4837
 2588TIP3   OH2 7769   0.424   2.930   5.080 -0.1844 -0.1693 -0.0753
 2588TIP3    H1 7770   0.491   2.924   5.147 -2.1166  0.7232  2.0749
 2588TIP3    H2 7771   0.382   3.015   5.096  0.7159  1.2077 -3.9280
 2589TIP3   OH2 7772   2.628   4.602   3.208  0.0005  0.2212  0.7099
 2589TIP3    H1 7773   2.714   4.569   3.182  0.4713  1.2339  0.8986
 2589TIP3    H2 7774   2.636   4.621   3.301  0.3168  2.3687  0.3142
 2590TIP3   OH2 7775   5.436   2.407   1.072  0.0092 -0.0061 -0.2690
 2590TIP3    H1 7776   5.349   2.423   1.108 -0.2618 -0.9486 -0.4768
 2590TIP3    H2 7777   5.423   2.401   0.978  0.1884 -0.7482 -0.2573
 2591TIP3   OH2 7778   5.387   5.584   5.070 -0.0254 -0.0188 -0.4092
 2591TIP3    H1 7779   5.477   5.570   5.099 -0.6408 -0.6975  1.3336
 2591TIP3    H2 7780   5.337   5.514   5.112 -1.6491  1.4129  0.1752
 2592TIP3   OH2 7781   6.091   4.247   2.375 -0.0846 -0.1036 -0.7047
 2592TIP3    H1 7782   6.099   4.305   2.451  1.7002  0.5327 -1.3308
 2592TIP3    H2 7783   6.116   4.161   2.409 -0.7122 -0.1164 -0.2522
 2593TIP3   OH2 7784   5.519   4.093   1.703 -0.3556 -0.2556  0.1727
 2593TIP3    H1 7785   5.443   4.054   1.745 -2.2459  1.1024 -1.7499
 2593TIP3    H2 7786   5.533   4.175   1.750 -0.4258 -0.2497  0.1828
 2594TIP3   OH2 7787   4.588   2.966   0.916 -0.1023 -0.3958  0.3276
 2594TIP3    H1 7788   4.653   3.008   0.972  0.7601 -1.9109  0.4942
 2594TIP3    H2 7789   4.606   3.000   0.828  1.6855 -1.6327  0.1669
 2595TIP3   OH2 7790   4.918   2.319   2.837 -0.3020  0.2650  0.1306
 2595TIP3    H1 7791   4.962   2.285   2.759 -1.4151 -1.3860  0.1831
 2595TIP3    H2 7792   4.986   2.319   2.905  0.1435 -0.2902 -0.3039
 2596TIP3   OH2 7793   0.458   0.914   2.210  0.0589 -0.1236  0.5965
 2596TIP3    H1 7794   0.369   0.949   2.202 -0.2832 -0.7586  1.3838
 2596TIP3    H2 7795   0.475   0.917   2.305  1.6717  1.8740  0.3125
 2597TIP3   OH2 7796   2.827   3.852   2.901 -0.0762  0.4406  0.3881
 2597TIP3    H1 7797   2.873   3.817   2.976  0.9294 -0.0409 -0.4385
 2597TIP3    H2 7798   2.744   3.805   2.899  0.2251 -0.1084  0.7340
 2598TIP3   OH2 7799   1.959   4.907   1.375  0.0514 -0.1933 -0.3563
 2598TIP3    H1 7800   2.038   4.854   1.377  0.4811  0.3423  2.9248
 2598TIP3    H2 7801   1.991   4.997   1.366  0.0257  0.1448  2.2264
 2599TIP3   OH2 7802   3.153   2.347   3.103 -0.4777  0.2167 -0.2564
 2599TIP3    H1 7803   3.219   2.309   3.045 -1.5360 -1.4753 -0.4103
 2599TIP3    H2 7804   3.130   2.430   3.060  2.0238  1.2596  0.2023
 2600TIP3   OH2 7805   3.083   1.236   0.863  0.1178  0.3870  0.4931
 2600TIP3    H1 7806   3.162   1.264   0.817 -0.7304  0.5777 -0.8973
 2600TIP3    H2 7807   3.030   1.315   0.871 -0.7538 -0.0939 -0.3105
 2601TIP3   OH2 7808   2.766   3.855   0.808  0.5544 -0.0124 -0.4325
 2601TIP3    H1 7809   2.826   3.857   0.883  1.2603 -0.6586 -0.9685
 2601TIP3    H2 7810   2.707   3.930   0.823 -0.5527 -1.2061  1.7705
 2602TIP3   OH2 7811   4.212   4.275   1.371  0.1661  0.2531 -0.2150
 2602TIP3    H1 7812   4.225   4.307   1.282 -1.9427 -1.3533 -1.1859
 2602TIP3    H2 7813   4.126   4.309   1.396 -0.1966 -1.0372  0.3787
 2603TIP3   OH2 7814   4.154   5.329   0.617 -0.2066 -0.2444  0.3625
 2603TIP3    H1 7815   4.215   5.382   0.668 -0.8716 -0.2228  1.1570
 2603TIP3    H2 7816   4.201   5.310   0.536  0.9408 -0.4059  1.0336
 2604TIP3   OH2 7817   4.136   3.724   3.168  0.2211 -0.3322  0.0330
 2604TIP3    H1 7818   4.100   3.636   3.183  2.2482 -1.0349  1.1994
 2604TIP3    H2 7819   4.081   3.782   3.220 -0.1543 -1.1588  0.5710
 2605TIP3   OH2 7820   3.747   1.321   1.483 -0.5623  0.0073  0.3542
 2605TIP3    H1 7821   3.809   1.394   1.486 -0.7280  0.1678 -0.0456
 2605TIP3    H2 7822   3.802   1.242   1.488 -0.3569  0.1536  0.4101
 2606TIP3   OH2 7823   2.488   3.871   2.438  0.2590  0.2397  0.4121
 2606TIP3    H1 7824   2.580   3.848   2.429  0.0825 -0.3025  0.0160
 2606TIP3    H2 7825   2.486   3.931   2.513  1.0246  0.8173 -0.0213
 2607TIP3   OH2 7826   1.013   5.937   1.130 -0.2269  0.3686 -1.2168
 2607TIP3    H1 7827   1.039   6.025   1.102  0.9590 -0.0380 -1.4040
 2607TIP3    H2 7828   0.917   5.941   1.134 -0.1628  2.5104  1.4092
 2608TIP3   OH2 7829   5.048   2.387   3.573 -0.4191 -0.1621  0.1148
 2608TIP3    H1 7830   4.988   2.313   3.565 -0.4124 -0.1655  0.0954
 2608TIP3    H2 7831   5.080   2.401   3.484  0.0152 -0.5027  0.2105
 2609TIP3   OH2 7832   4.602   4.208   3.664 -0.0583 -0.7212 -0.2098
 2609TIP3    H1 7833   4.546   4.177   3.592 -3.6776  4.2607 -0.0372
 2609TIP3    H2 7834   4.576   4.154   3.738 -1.7745 -1.1399 -1.0546
 2610TIP3   OH2 7835   5.535   2.902   4.294 -0.1180 -0.1457  0.3986
 2610TIP3    H1 7836   5.551   2.808   4.288 -2.4399 -0.5973  0.5160
 2610TIP3    H2 7837   5.545   2.933   4.203  0.7017 -0.4744  0.3671
 2611TIP3   OH2 7838   4.850   2.311   0.620  0.1651  0.2147  0.2269
 2611TIP3    H1 7839   4.940   2.307   0.587  0.3182 -0.1650  0.6814
 2611TIP3    H2 7840   4.860   2.337   0.712 -0.1261 -0.8364  0.5623
 2612TIP3   OH2 7841   3.963   4.801   0.626 -0.2678  0.5881 -0.0126
 2612TIP3    H1 7842   3.890   4.828   0.682 -0.1253  0.0618  0.4360
 2612TIP3    H2 7843   4.014   4.881   0.612 -0.6196  0.8406  0.1351
 2613TIP3   OH2 7844   1.695   5.317   0.071  0.2382  0.6510  0.6555
 2613TIP3    H1 7845   1.779   5.281   0.099  1.3211  1.7764 -0.9756
 2613TIP3    H2 7846   1.661   5.252   0.009  0.1258  0.4199  0.9576
 2614TIP3   OH2 7847   5.651   4.927   1.268 -0.4167 -0.4674 -0.2536
 2614TIP3    H1 7848   5.625   4.952   1.357  0.7646  2.0370 -0.5385
 2614TIP3    H2 7849   5.746   4.924   1.271 -0.3198  0.6380 -1.6709
 2615TIP3   OH2 7850   4.058   3.345   0.260 -0.3179 -0.1608  0.0760
 2615TIP3    H1 7851   4.098   3.431   0.249  0.1431 -0.1063  1.8440
 2615TIP3    H2 7852   3.969   3.363   0.291 -1.0924 -0.3210 -1.9094
 2616TIP3   OH2 7853   5.524   0.471   3.932  0.3613 -0.1847  0.1336
 2616TIP3    H1 7854   5.431   0.456   3.913  1.0575 -1.2468 -2.9022
 2616TIP3    H2 7855   5.543   0.556   3.893  0.1992  1.2787  2.9726
 2617TIP3   OH2 7856   6.056   2.787   0.016 -0.6795  0.7725  0.2062
 2617TIP3    H1 7857   6.062   2.861  -0.045  0.6690  0.8905  0.4677
 2617TIP3    H2 7858   5.964   2.788   0.044 -0.4764  2.9611  0.9716
 2618TIP3   OH2 7859   3.250   5.552   1.880  0.0380 -0.2779 -0.3624
 2618TIP3    H1 7860   3.269   5.485   1.815 -0.1089  0.0964 -0.7932
 2618TIP3    H2 7861   3.173   5.598   1.846 -0.1577 -0.2049  0.1684
 2619TIP3   OH2 7862   0.267   0.201  -0.013 -0.2476 -0.5693 -0.2189
 2619TIP3    H1 7863   0.342   0.260  -0.009 -0.3899 -0.4081  0.0779
 2619TIP3    H2 7864   0.234   0.198   0.077 -0.8224 -0.3417 -0.4174
 2620TIP3   OH2 7865   5.456   3.111   1.631 -0.1165  0.2166 -0.4675
 2620TIP3    H1 7866   5.367   3.144   1.633 -0.9371 -1.8991  1.1098
 2620TIP3    H2 7867   5.481   3.102   1.723  2.0197  1.4150 -0.8639
 2621TIP3   OH2 7868   5.903   5.590   4.498 -0.4204 -0.0977  0.6378
 2621TIP3    H1 7869   5.931   5.549   4.417  0.3914  2.4638 -0.4908
 2621TIP3    H2 7870   5.853   5.522   4.544  1.3712 -2.4754 -0.7142
 2622TIP3   OH2 7871   5.043   0.045   2.292  0.1763  0.4248 -0.4160
 2622TIP3    H1 7872   5.110   0.015   2.354 -1.8952 -1.4748  1.0694
 2622TIP3    H2 7873   5.011   0.126   2.330  1.1084  0.9783 -0.7684
 2623TIP3   OH2 7874   3.111   4.377   4.992 -0.7000 -0.4242 -0.2392
 2623TIP3    H1 7875   3.021   4.382   5.025  0.4255  2.3789  3.1070
 2623TIP3    H2 7876   3.154   4.314   5.050  0.2472  1.0973  0.8229
 2624TIP3   OH2 7877   2.842   0.256   5.087 -0.0315 -0.4159 -0.5363
 2624TIP3    H1 7878   2.747   0.256   5.101 -0.0784  1.0252 -0.7122
 2624TIP3    H2 7879   2.872   0.174   5.125 -1.0892  0.0184  1.3483
 2625TIP3   OH2 7880   2.916   2.665   0.998 -0.1319  0.1162  0.0861
 2625TIP3    H1 7881   2.897   2.695   0.909 -0.8629  0.5895  0.3870
 2625TIP3    H2 7882   2.839   2.614   1.023  0.2623 -0.3805  0.2871
 2626TIP3   OH2 7883   4.629   2.085   1.287 -0.4599 -0.2510 -0.3259
 2626TIP3    H1 7884   4.599   2.155   1.230 -0.9793 -1.4836 -1.6207
 2626TIP3    H2 7885   4.623   2.121   1.375  0.8633  1.8927 -1.0511
 2627TIP3   OH2 7886   1.397   4.157   2.608 -0.1006  0.0487  0.1816
 2627TIP3    H1 7887   1.492   4.174   2.614  0.0566 -1.1179  2.0777
 2627TIP3    H2 7888   1.383   4.130   2.518  1.5897 -0.7540  0.1078
 2628TIP3   OH2 7889   1.866   5.227   1.084  0.2714 -0.6878 -1.1476
 2628TIP3    H1 7890   1.924   5.267   1.019  0.8438  1.8664  0.7741
 2628TIP3    H2 7891   1.919   5.221   1.163 -1.2819 -0.8153 -0.0627
 2629TIP3   OH2 7892   1.396   5.414   3.936  0.4737  0.3235  0.2874
 2629TIP3    H1 7893   1.414   5.330   3.978  2.2021  0.7778  0.5250
 2629TIP3    H2 7894   1.460   5.420   3.865 -0.8480  0.6297 -0.9453
 2630TIP3   OH2 7895   3.742   0.460   1.334 -0.2461 -0.7090 -0.2222
 2630TIP3    H1 7896   3.711   0.370   1.338 -0.5888 -0.5417  1.4714
 2630TIP3    H2 7897   3.831   0.457   1.370 -0.7652 -0.1874  1.1693
 2631TIP3   OH2 7898   3.154   5.016   4.067 -0.3685 -0.9073 -0.3713
 2631TIP3    H1 7899   3.098   5.028   4.144  1.3600  2.2817  0.5543
 2631TIP3    H2 7900   3.136   5.094   4.013  1.5351 -0.9400 -1.1030
 2632TIP3   OH2 7901   0.367   3.024   0.331  0.0192  0.0864  0.2156
 2632TIP3    H1 7902   0.307   3.093   0.300  1.6135  1.3624 -0.1843
 2632TIP3    H2 7903   0.443   3.072   0.364  0.9332 -1.4949  0.4924
 2633TIP3   OH2 7904   1.256   1.794   3.579 -0.1932  0.7157  0.7951
 2633TIP3    H1 7905   1.221   1.845   3.506 -1.6435 -0.2269  0.7838
 2633TIP3    H2 7906   1.183   1.787   3.641  0.5163  0.1447  1.6030
 2634TIP3   OH2 7907   4.150   2.995   2.163  0.0830 -0.2209  0.5874
 2634TIP3    H1 7908   4.173   2.957   2.247  1.1323 -2.6187 -0.6952
 2634TIP3    H2 7909   4.234   3.020   2.124 -0.3643  0.6297  0.1384
 2635TIP3   OH2 7910   0.186   1.853   2.335 -0.0920  0.1565 -0.2375
 2635TIP3    H1 7911   0.148   1.833   2.249  0.0522 -1.5986  0.0652
 2635TIP3    H2 7912   0.235   1.934   2.321 -0.2348  0.0240 -1.7634
 2636TIP3   OH2 7913   5.112   0.204   1.985 -0.0557  0.7472  0.3133
 2636TIP3    H1 7914   5.154   0.259   1.919  0.7068  0.2337  0.3512
 2636TIP3    H2 7915   5.180   0.140   2.009 -0.5611  0.4816  1.0660
 2637TIP3   OH2 7916   2.751   4.494   4.991 -0.7387  0.2593 -0.3624
 2637TIP3    H1 7917   2.664   4.524   4.965 -0.5677  0.9049 -0.2249
 2637TIP3    H2 7918   2.800   4.489   4.910 -0.7592  0.3992 -0.3844
 2638TIP3   OH2 7919   4.790   4.413   1.527 -0.1515 -0.5536  0.3613
 2638TIP3    H1 7920   4.869   4.395   1.477 -1.0513 -0.3853 -1.2151
 2638TIP3    H2 7921   4.741   4.331   1.525 -0.4015 -0.4123  0.5743
 2639TIP3   OH2 7922   5.465   0.360   4.209 -0.3112  0.2597  0.6359
 2639TIP3    H1 7923   5.482   0.348   4.116 -0.4082  0.7559  0.5510
 2639TIP3    H2 7924   5.467   0.455   4.222  0.4296  0.1741  1.2782
 2640TIP3   OH2 7925   5.797   4.451   5.111 -0.1175  0.0542 -0.1406
 2640TIP3    H1 7926   5.839   4.530   5.144 -0.0514  0.0322 -0.1714
 2640TIP3    H2 7927   5.712   4.480   5.079 -0.7480 -0.1293  1.2645
 2641TIP3   OH2 7928   1.968   1.570   2.006  0.2343  0.3486  0.1557
 2641TIP3    H1 7929   1.991   1.621   2.084 -0.6789  1.3126 -0.1790
 2641TIP3    H2 7930   1.897   1.619   1.965 -0.0367 -0.7123 -0.7063
 2642TIP3   OH2 7931   5.326   0.315   1.628  0.5528 -0.2083 -0.1121
 2642TIP3    H1 7932   5.397   0.261   1.594  0.8599 -0.0058  0.2056
 2642TIP3    H2 7933   5.258   0.251   1.651  0.5452 -0.3860 -0.6062
 2643TIP3   OH2 7934   0.458   5.925   4.382 -0.1548 -0.3712 -0.1684
 2643TIP3    H1 7935   0.376   5.970   4.401 -1.1837 -1.9406 -0.7080
 2643TIP3    H2 7936   0.433   5.833   4.369  1.7958 -1.0628  0.5161
 2644TIP3   OH2 7937   1.314   0.203   4.206 -0.2267  0.5352 -0.5025
 2644TIP3    H1 7938   1.396   0.231   4.248 -0.8194  0.7394  0.5730
 2644TIP3    H2 7939   1.248   0.261   4.244 -0.9001  0.2289 -1.1980
 2645TIP3   OH2 7940   3.578   0.301   2.032  0.5075 -0.6390 -0.2004
 2645TIP3    H1 7941   3.536   0.345   2.106  2.5508 -0.3485  0.8547
 2645TIP3    H2 7942   3.517   0.315   1.959 -0.6469  0.7688  0.9528
 2646TIP3   OH2 7943   0.438   3.919   4.788 -0.2232  0.3262  0.5714
 2646TIP3    H1 7944   0.406   3.877   4.868 -0.3565  1.2698  1.0284
 2646TIP3    H2 7945   0.533   3.927   4.802 -0.0228 -0.8195 -0.0027
 2647TIP3   OH2 7946   5.923   2.405   0.550 -0.4717  0.1456  0.0229
 2647TIP3    H1 7947   5.916   2.407   0.455 -2.3302 -0.8648  0.0879
 2647TIP3    H2 7948   5.913   2.312   0.572 -2.1763  0.5888  1.2933
 2648TIP3   OH2 7949   3.172   3.594   4.876  0.1831  0.0845 -0.3493
 2648TIP3    H1 7950   3.111   3.664   4.898 -0.4637 -0.9111  1.2132
 2648TIP3    H2 7951   3.189   3.550   4.960 -0.4380 -2.4103 -1.4419
 2649TIP3   OH2 7952   4.025   2.654   5.136 -0.2933 -0.2059  0.3455
 2649TIP3    H1 7953   3.965   2.697   5.197 -2.2620 -2.7766  0.4041
 2649TIP3    H2 7954   3.981   2.659   5.051  0.3181 -0.5320  0.0002
 2650TIP3   OH2 7955   1.055   2.517   0.170 -0.0839 -0.4529 -0.0400
 2650TIP3    H1 7956   0.964   2.548   0.165  0.3573  0.7831 -0.8880
 2650TIP3    H2 7957   1.095   2.573   0.237  0.5886  0.5479 -1.2228
 2651TIP3   OH2 7958   0.374   4.935   1.266  0.2663 -0.2850  0.1547
 2651TIP3    H1 7959   0.341   4.913   1.353  2.4951 -1.9821  0.6576
 2651TIP3    H2 7960   0.330   4.873   1.208  0.4596 -0.6699  0.4114
 2652TIP3   OH2 7961   2.006   3.991   2.807  0.1612  0.3544 -0.5048
 2652TIP3    H1 7962   2.092   4.013   2.842 -0.5712  2.4437  0.0998
 2652TIP3    H2 7963   2.023   3.960   2.718  1.6804 -1.2640  0.2784
 2653TIP3   OH2 7964   1.338   2.238   4.804 -0.5268  0.2102  0.3712
 2653TIP3    H1 7965   1.290   2.170   4.851 -2.7658  0.4512 -1.3877
 2653TIP3    H2 7966   1.273   2.279   4.747  1.6279  1.0418 -1.6947
 2654TIP3   OH2 7967   4.823   2.735   0.293 -0.0330 -0.1895 -0.2252
 2654TIP3    H1 7968   4.756   2.783   0.342  0.8440 -0.4967  1.3453
 2654TIP3    H2 7969   4.781   2.714   0.210 -0.8122  2.3769 -0.5698
 2655TIP3   OH2 7970   0.829   5.005   4.933  0.4378 -0.1381  0.3755
 2655TIP3    H1 7971   0.750   5.045   4.896  0.4759 -0.7748 -0.4246
 2655TIP3    H2 7972   0.862   5.070   4.996 -0.1406  0.5765 -0.0448
 2656TIP3   OH2 7973   6.262   0.543   2.474  0.5276  0.3958 -0.1655
 2656TIP3    H1 7974   6.245   0.586   2.391  0.4132  1.2564  0.2945
 2656TIP3    H2 7975   6.262   0.613   2.538  2.6502  0.0461  0.2971
 2657TIP3   OH2 7976   1.583   5.732   1.282  0.9105  0.4642 -0.1747
 2657TIP3    H1 7977   1.668   5.750   1.242  0.6869  1.0072 -0.4086
 2657TIP3    H2 7978   1.575   5.798   1.351 -0.1321  1.6250 -1.3519
 2658TIP3   OH2 7979   4.103   2.649   2.212 -0.4360 -0.3799 -0.0036
 2658TIP3    H1 7980   4.137   2.626   2.299 -1.5413 -1.8733  0.0786
 2658TIP3    H2 7981   4.176   2.634   2.153  0.5817  1.4272  0.7228
 2659TIP3   OH2 7982   4.412   1.777   1.446 -0.2605 -0.4053 -0.0936
 2659TIP3    H1 7983   4.472   1.702   1.441 -0.3365 -0.4870  0.1781
 2659TIP3    H2 7984   4.428   1.814   1.533  1.1093  1.0214 -0.9016
 2660TIP3   OH2 7985   4.648   0.446   1.553  0.2109 -0.1664  0.4659
 2660TIP3    H1 7986   4.711   0.492   1.609 -1.2842  2.7721 -0.1158
 2660TIP3    H2 7987   4.613   0.377   1.610  1.1289  0.6145  2.0591
 2661TIP3   OH2 7988   1.504   2.657   3.990  0.6086 -0.2709  0.1634
 2661TIP3    H1 7989   1.598   2.641   3.986  0.6270 -0.7223  1.7475
 2661TIP3    H2 7990   1.467   2.604   3.919  1.2095 -3.1924  1.8690
 2662TIP3   OH2 7991   5.829   4.206   2.839  0.2990  0.2388 -0.1316
 2662TIP3    H1 7992   5.792   4.294   2.839 -0.0157  0.1087 -0.1580
 2662TIP3    H2 7993   5.918   4.217   2.873  0.1373  0.5134  0.2062
 2663TIP3   OH2 7994   2.425   5.156   3.407  0.7759  0.8067  0.0385
 2663TIP3    H1 7995   2.487   5.086   3.430 -0.5912 -0.6862 -0.6902
 2663TIP3    H2 7996   2.413   5.147   3.313 -1.2284  0.4628  0.2934
 2664TIP3   OH2 7997   3.541   4.408  -0.022 -0.0165 -0.8456 -0.0063
 2664TIP3    H1 7998   3.508   4.487   0.021 -0.0179 -0.2425 -1.1035
 2664TIP3    H2 7999   3.570   4.353   0.051  1.6289  0.8711  0.7119
 2665TIP3   OH2 8000   0.331   3.967   5.136  0.0494 -0.0455  0.8234
 2665TIP3    H1 8001   0.282   3.917   5.202  0.4643 -0.2907  0.9510
 2665TIP3    H2 8002   0.355   3.902   5.071 -0.4740  0.2204  0.3526
 2666TIP3   OH2 8003   0.278   0.146   3.037 -0.4915  0.2370  0.2645
 2666TIP3    H1 8004   0.215   0.198   3.086  0.5662  0.1275  1.8183
 2666TIP3    H2 8005   0.362   0.163   3.080  0.2748 -0.8475 -0.7351
 2667TIP3   OH2 8006   2.871   5.733   3.717 -0.2074 -0.1638  0.1676
 2667TIP3    H1 8007   2.829   5.657   3.677 -0.2454 -0.9664  1.6574
 2667TIP3    H2 8008   2.839   5.734   3.807 -0.4423  1.8110  0.1110
 2668TIP3   OH2 8009   5.881   4.785   4.346  0.0659 -0.0878  0.2114
 2668TIP3    H1 8010   5.797   4.815   4.384  1.1890  2.0466  1.2376
 2668TIP3    H2 8011   5.924   4.739   4.418  0.2538 -0.1470  0.0600
 2669TIP3   OH2 8012   4.505   5.313   0.598  0.3525 -0.4061  0.4838
 2669TIP3    H1 8013   4.443   5.328   0.669  0.7699  1.2623  0.5528
 2669TIP3    H2 8014   4.465   5.356   0.522  0.9530 -0.1658  0.2933
 2670TIP3   OH2 8015   0.886   2.643   2.926 -0.2190 -0.7217 -0.1572
 2670TIP3    H1 8016   0.930   2.584   2.865  2.6904  1.9456 -0.9312
 2670TIP3    H2 8017   0.821   2.688   2.873 -0.5465 -1.2872 -0.2422
 2671TIP3   OH2 8018   5.931   2.155   1.959 -0.0998 -0.2516 -0.6712
 2671TIP3    H1 8019   5.997   2.215   1.993 -0.5155  0.4471 -1.0906
 2671TIP3    H2 8020   5.982   2.088   1.912  0.3047  0.4305 -1.2230
 2672TIP3   OH2 8021   3.957   3.048   0.504 -0.5553  0.0117 -0.1038
 2672TIP3    H1 8022   3.927   2.959   0.486  1.5782 -0.7793 -0.0887
 2672TIP3    H2 8023   4.027   3.063   0.440 -1.2773  1.9432 -0.5156
 2673TIP3   OH2 8024   3.593   3.724   0.866 -0.4096 -0.6814  0.1368
 2673TIP3    H1 8025   3.623   3.633   0.861  0.8119 -0.3363  0.8969
 2673TIP3    H2 8026   3.507   3.718   0.908 -0.6281 -1.5363 -0.4078
 2674TIP3   OH2 8027   3.370   5.571   3.643 -0.2667 -0.4019 -0.1991
 2674TIP3    H1 8028   3.275   5.575   3.638 -0.2378 -0.4602 -0.8963
 2674TIP3    H2 8029   3.401   5.631   3.576  0.1825 -0.8166 -0.3732
 2675TIP3   OH2 8030   1.418   1.065   2.126 -0.2588  0.4576  0.4026
 2675TIP3    H1 8031   1.326   1.085   2.106 -0.0800  2.0433  1.0875
 2675TIP3    H2 8032   1.458   1.050   2.040 -0.8772  1.0163  0.0057
 2676TIP3   OH2 8033   6.264   2.584   3.830 -0.0185  0.6042  0.1352
 2676TIP3    H1 8034   6.247   2.517   3.896 -0.8209  0.1237 -0.5381
 2676TIP3    H2 8035   6.311   2.653   3.877 -1.4146  0.7107  1.4414
 2677TIP3   OH2 8036   3.698   3.339   4.318  0.4409  0.0640  0.4198
 2677TIP3    H1 8037   3.619   3.349   4.371  1.0535 -0.2352  1.4080
 2677TIP3    H2 8038   3.720   3.429   4.293  1.3359  0.4868  2.4862
 2678TIP3   OH2 8039   4.540   1.162   1.074 -0.2447  0.1790  0.3673
 2678TIP3    H1 8040   4.512   1.106   1.147 -0.0272  0.8796  1.0019
 2678TIP3    H2 8041   4.590   1.104   1.017  1.6546  0.1264  1.9890
 2679TIP3   OH2 8042   2.800   1.529   3.193 -0.3536  0.3434 -0.1189
 2679TIP3    H1 8043   2.796   1.560   3.103 -0.0828 -0.1767 -0.3154
 2679TIP3    H2 8044   2.891   1.543   3.219  0.2819 -1.9593 -0.8447
 2680TIP3   OH2 8045   1.156   4.857   1.129  0.0511 -0.0758  0.3459
 2680TIP3    H1 8046   1.081   4.799   1.141  1.3819 -2.2411 -0.9816
 2680TIP3    H2 8047   1.148   4.888   1.039  1.6793 -1.9265 -0.5204
 2681TIP3   OH2 8048   0.246   4.951   2.058 -0.3510  0.2201 -0.1557
 2681TIP3    H1 8049   0.287   4.867   2.038 -1.0844  0.0939 -1.2004
 2681TIP3    H2 8050   0.224   4.988   1.972 -1.5901  0.6889  0.3433
 2682TIP3   OH2 8051   1.745   3.776   3.829 -0.1689  0.0666 -0.4423
 2682TIP3    H1 8052   1.689   3.700   3.814 -0.9523 -0.0091  2.3889
 2682TIP3    H2 8053   1.689   3.851   3.809 -0.5394 -0.0446  0.1811
 2683TIP3   OH2 8054   1.407   5.229   4.795 -0.6835 -0.0666  0.2392
 2683TIP3    H1 8055   1.401   5.199   4.885  2.1390 -0.1789  0.4576
 2683TIP3    H2 8056   1.472   5.299   4.796 -0.3814 -0.2445 -1.7250
 2684TIP3   OH2 8057   2.672   0.669   1.629 -0.2727  0.3851  0.3238
 2684TIP3    H1 8058   2.712   0.636   1.549 -2.0579 -2.9661  0.6375
 2684TIP3    H2 8059   2.746   0.697   1.684  1.4368 -2.3249 -0.4284
 2685TIP3   OH2 8060   0.024   4.741   0.581 -0.5746  0.4724 -0.0518
 2685TIP3    H1 8061   0.117   4.765   0.578 -0.8320  1.3962 -1.6590
 2685TIP3    H2 8062  -0.007   4.751   0.491 -2.2798  0.3413  0.4795
 2686TIP3   OH2 8063   4.868   5.565   1.389 -0.5139  0.4883 -0.3617
 2686TIP3    H1 8064   4.906   5.650   1.414  0.7607 -0.5538  1.4282
 2686TIP3    H2 8065   4.778   5.568   1.423 -0.6696  1.3257 -0.8154
 2687TIP3   OH2 8066   1.517   1.954   2.894 -0.4158 -0.1350 -0.1502
 2687TIP3    H1 8067   1.490   1.908   2.814  0.1092 -0.6691 -0.0322
 2687TIP3    H2 8068   1.543   1.884   2.954  0.6681  0.3261 -0.0617
 2688TIP3   OH2 8069   0.846   6.020   4.875 -0.4464 -0.4270  0.2072
 2688TIP3    H1 8070   0.824   5.950   4.815 -0.8737 -0.6685  0.6363
 2688TIP3    H2 8071   0.836   5.981   4.962  2.0451 -0.6609  0.4456
 2689TIP3   OH2 8072   6.027   3.010   3.067 -0.0692 -0.0770 -0.2285
 2689TIP3    H1 8073   6.091   3.069   3.108 -0.0414  0.6808 -1.3225
 2689TIP3    H2 8074   6.079   2.957   3.007 -0.2690 -0.3883 -0.1244
 2690TIP3   OH2 8075   5.276   4.566   0.801  0.2168  0.7115  0.1599
 2690TIP3    H1 8076   5.338   4.585   0.731  1.1545 -0.8353  0.5244
 2690TIP3    H2 8077   5.213   4.505   0.762  1.5415 -1.2751  0.9673
 2691TIP3   OH2 8078   5.103   0.838   2.041  0.3002  0.1619 -0.2138
 2691TIP3    H1 8079   5.125   0.745   2.049  1.8290  0.5469  0.4924
 2691TIP3    H2 8080   5.128   0.876   2.125 -1.0967  1.0940 -0.1799
 2692TIP3   OH2 8081   5.596   5.497   0.465 -0.1380 -0.1108  0.4626
 2692TIP3    H1 8082   5.675   5.550   0.462 -0.5302  0.5780  1.5883
 2692TIP3    H2 8083   5.587   5.472   0.557 -1.1196 -0.3348  0.3176
 2693TIP3   OH2 8084   2.205   2.624   0.908  0.2439 -0.1138  0.0006
 2693TIP3    H1 8085   2.240   2.632   0.997  1.1335  1.2434 -0.4397
 2693TIP3    H2 8086   2.179   2.713   0.884 -0.4823 -0.5551 -0.9120
 2694TIP3   OH2 8087   4.088   1.886   1.613  0.0275  0.2016  0.1143
 2694TIP3    H1 8088   4.001   1.884   1.655 -1.1244  2.1733 -1.9504
 2694TIP3    H2 8089   4.086   1.813   1.551 -0.6537  0.9491 -0.7657
 2695TIP3   OH2 8090   0.085   2.296   1.849 -0.0791 -0.0507  0.3018
 2695TIP3    H1 8091  -0.003   2.297   1.813 -0.7978 -1.1558  1.9121
 2695TIP3    H2 8092   0.129   2.371   1.808 -2.3403  1.7062  0.8846
 2696TIP3   OH2 8093   2.541   3.941   4.551 -0.2367  0.3491 -0.1888
 2696TIP3    H1 8094   2.620   3.889   4.569 -0.5092 -0.3012 -0.7960
 2696TIP3    H2 8095   2.469   3.888   4.588 -0.6973 -0.5309 -2.1799
 2697TIP3   OH2 8096   2.388   1.248   4.941 -0.5179  0.0501  0.0850
 2697TIP3    H1 8097   2.484   1.248   4.941 -0.5182  0.0599 -0.1288
 2697TIP3    H2 8098   2.364   1.322   4.998 -0.3982  0.4719 -0.4042
 2698TIP3   OH2 8099   5.305   2.197   0.383  0.1768 -0.4617 -0.6323
 2698TIP3    H1 8100   5.232   2.258   0.393  2.7433  2.9237 -0.8774
 2698TIP3    H2 8101   5.361   2.214   0.459  1.6506 -1.5173 -1.4297
 2699TIP3   OH2 8102   4.563   1.098   3.122  0.4277 -0.0699  0.2614
 2699TIP3    H1 8103   4.492   1.128   3.178  0.4035 -2.0494  1.4042
 2699TIP3    H2 8104   4.642   1.109   3.176  0.3374 -2.5376  1.0359
 2700TIP3   OH2 8105   4.681   1.952   0.390 -0.2284  0.2404 -0.2817
 2700TIP3    H1 8106   4.730   1.996   0.320  1.1297 -2.4535 -1.1558
 2700TIP3    H2 8107   4.739   1.955   0.466  1.5532 -3.0081 -1.3343
 2701TIP3   OH2 8108   0.377   3.505   2.889 -0.7349 -0.0847  0.4897
 2701TIP3    H1 8109   0.303   3.547   2.846 -0.6833  0.3520  0.8233
 2701TIP3    H2 8110   0.432   3.473   2.817 -0.0591  1.6572  0.1922
 2702TIP3   OH2 8111   0.287   3.507   5.106 -0.2259  0.5797 -0.0543
 2702TIP3    H1 8112   0.200   3.483   5.074 -0.3602  0.5259  0.3436
 2702TIP3    H2 8113   0.347   3.475   5.039 -0.4755  0.0989 -0.0491
 2703TIP3   OH2 8114   3.318   5.741   4.411  0.3856 -0.3306  0.2330
 2703TIP3    H1 8115   3.373   5.798   4.465  0.3208  1.3439 -1.3789
 2703TIP3    H2 8116   3.366   5.730   4.329 -1.2138  0.4466 -0.8821
 2704TIP3   OH2 8117   4.859   1.498   0.135 -0.3075 -0.3108 -0.4662
 2704TIP3    H1 8118   4.906   1.494   0.052  1.2849 -0.1738  0.3961
 2704TIP3    H2 8119   4.776   1.453   0.118  0.0264 -0.3660 -2.0874
 2705TIP3   OH2 8120   4.318   5.769   3.292  0.0541 -0.3123 -0.5504
 2705TIP3    H1 8121   4.255   5.762   3.363  0.5866  3.0236  0.4091
 2705TIP3    H2 8122   4.389   5.709   3.317 -0.6738 -0.6943  0.6771
 2706TIP3   OH2 8123   3.841   1.696   3.195 -0.3458 -0.3375 -0.2298
 2706TIP3    H1 8124   3.801   1.730   3.115  1.4166 -0.5966 -1.2717
 2706TIP3    H2 8125   3.846   1.771   3.255 -2.7239 -0.3965  0.1214
 2707TIP3   OH2 8126   0.001   0.543   0.250 -0.4832  0.1808 -0.2424
 2707TIP3    H1 8127   0.047   0.487   0.312 -2.6412 -1.3412  0.0979
 2707TIP3    H2 8128   0.053   0.536   0.169 -0.1190 -1.4971  0.0994
 2708TIP3   OH2 8129   0.550   0.352   2.520 -0.2441  0.1427  0.4386
 2708TIP3    H1 8130   0.563   0.298   2.598 -0.5306 -0.9307 -0.2304
 2708TIP3    H2 8131   0.456   0.346   2.503 -0.2088  0.5135  0.1017
 2709TIP3   OH2 8132   1.305   0.315   2.879  0.1485 -0.4168 -0.2531
 2709TIP3    H1 8133   1.332   0.226   2.859  2.7548  0.5025 -1.3257
 2709TIP3    H2 8134   1.359   0.340   2.955  0.2668  0.5606 -0.6356
 2710TIP3   OH2 8135   1.660   4.366   1.875  0.3215 -0.0529  0.0736
 2710TIP3    H1 8136   1.568   4.347   1.857  0.3532  0.6542 -0.9261
 2710TIP3    H2 8137   1.708   4.331   1.800  0.5221  2.3743 -1.0518
 2711TIP3   OH2 8138   3.907   1.417   4.542 -0.0752  0.0085 -0.4424
 2711TIP3    H1 8139   3.952   1.408   4.458  0.7289  2.7315 -0.3868
 2711TIP3    H2 8140   3.970   1.461   4.598 -1.9488  1.7617  0.3822
 2712TIP3   OH2 8141   1.411   0.577   2.789  0.4203 -0.3495  0.4888
 2712TIP3    H1 8142   1.393   0.491   2.826  1.6663 -0.3775  1.0720
 2712TIP3    H2 8143   1.419   0.634   2.866  3.0986 -0.4133  0.3501
 2713TIP3   OH2 8144   4.244   2.750   3.555  0.2545 -0.7803 -0.2029
 2713TIP3    H1 8145   4.324   2.706   3.526  0.4511 -0.9059  0.5026
 2713TIP3    H2 8146   4.204   2.688   3.617 -0.3406 -0.6797 -0.4821
 2714TIP3   OH2 8147   5.648   5.706   1.615  0.3294 -0.0323  0.2774
 2714TIP3    H1 8148   5.636   5.801   1.617  0.3377 -0.0262  2.5924
 2714TIP3    H2 8149   5.569   5.672   1.659  0.7299 -1.0358  0.2321
 2715TIP3   OH2 8150   5.479   3.671   4.173 -0.0525  0.5780  0.1828
 2715TIP3    H1 8151   5.525   3.591   4.197 -1.4548 -0.4909 -0.4936
 2715TIP3    H2 8152   5.467   3.719   4.255  1.6258  0.5747  0.4556
 2716TIP3   OH2 8153   0.072   5.011   0.675  0.0624 -0.5984  0.5521
 2716TIP3    H1 8154   0.093   5.100   0.646 -1.5616  0.3786  2.1423
 2716TIP3    H2 8155   0.074   4.958   0.595 -0.3442  1.1605 -0.6754
 2717TIP3   OH2 8156   1.122   5.939   4.010  0.2206 -0.0465 -0.1239
 2717TIP3    H1 8157   1.182   5.927   4.084 -0.1790 -1.3852  0.0109
 2717TIP3    H2 8158   1.180   5.946   3.934  0.6129 -2.8606 -0.2066
 2718TIP3   OH2 8159   2.826   2.286   1.370 -0.5929 -0.4871  0.0657
 2718TIP3    H1 8160   2.867   2.222   1.427 -0.8838 -0.9995 -0.2917
 2718TIP3    H2 8161   2.748   2.242   1.336 -1.1776  0.3051  0.3631
 2719TIP3   OH2 8162   2.466   1.884   2.988 -0.2487  0.1291 -0.0209
 2719TIP3    H1 8163   2.554   1.911   3.013  0.7238 -0.2113 -2.6999
 2719TIP3    H2 8164   2.457   1.795   3.022  0.2978  0.2846  0.5438
 2720TIP3   OH2 8165   3.875   0.286   2.387  0.2562  0.4599 -0.4278
 2720TIP3    H1 8166   3.879   0.256   2.477  0.7280  2.9287  0.4495
 2720TIP3    H2 8167   3.783   0.280   2.363  0.5946 -4.6749 -1.5664
 2721TIP3   OH2 8168   0.552   2.310   4.951  0.2117 -0.1391  0.2222
 2721TIP3    H1 8169   0.600   2.371   4.895  0.3587 -0.7489 -0.3287
 2721TIP3    H2 8170   0.616   2.279   5.014  0.1349  0.2764  0.5085
 2722TIP3   OH2 8171   4.670   0.441   4.894 -0.2544 -0.6862  0.5716
 2722TIP3    H1 8172   4.751   0.459   4.942  0.1153 -0.5621 -0.0851
 2722TIP3    H2 8173   4.608   0.508   4.924 -0.1020 -0.7543  1.0408
 2723TIP3   OH2 8174   5.934   3.939   3.585 -0.4363 -0.0308  0.6532
 2723TIP3    H1 8175   5.870   3.878   3.622 -2.4797  1.4513 -0.2182
 2723TIP3    H2 8176   6.010   3.885   3.566 -1.7607 -2.1129  0.8717
 2724TIP3   OH2 8177   3.549   2.513   1.807  0.0175  0.1510  0.1957
 2724TIP3    H1 8178   3.564   2.495   1.714 -0.2865  0.7751  0.0188
 2724TIP3    H2 8179   3.634   2.542   1.840 -0.2059  1.4189 -0.2578
 2725TIP3   OH2 8180   6.025   4.502   1.816 -0.3966  0.9139  0.3097
 2725TIP3    H1 8181   6.075   4.579   1.786  0.6585  0.1483  0.0321
 2725TIP3    H2 8182   6.066   4.479   1.899 -0.9217  0.8356  0.5475
 2726TIP3   OH2 8183   5.237   0.221   0.433  0.0140  0.1421  0.5936
 2726TIP3    H1 8184   5.311   0.178   0.389 -1.0645  1.3609 -2.6805
 2726TIP3    H2 8185   5.160   0.189   0.387 -1.1350  2.1144  1.0436
 2727TIP3   OH2 8186   3.619   0.644   1.182 -0.0140  0.5496 -0.6765
 2727TIP3    H1 8187   3.683   0.590   1.229  0.5494  1.3693 -0.4858
 2727TIP3    H2 8188   3.631   0.732   1.217 -0.8179  0.8415 -1.0951
 2728TIP3   OH2 8189   0.483   1.687   2.718 -0.6173 -0.2340 -0.6020
 2728TIP3    H1 8190   0.398   1.716   2.685 -0.1475 -0.1175 -1.7649
 2728TIP3    H2 8191   0.538   1.766   2.714 -1.1182  0.3938  2.6518
 2729TIP3   OH2 8192   2.333   1.059   0.331  0.2751  0.1404 -0.2294
 2729TIP3    H1 8193   2.257   1.035   0.382  2.8286 -2.3551  2.8303
 2729TIP3    H2 8194   2.349   1.151   0.353  0.0560 -0.2832  1.9226
 2730TIP3   OH2 8195   3.764   4.426   1.289  0.2719  0.5973 -0.0084
 2730TIP3    H1 8196   3.714   4.475   1.355  0.6847  1.5843 -0.4035
 2730TIP3    H2 8197   3.835   4.386   1.339 -0.1702  0.2475  0.3493
 2731TIP3   OH2 8198   3.676   1.143   2.108  0.0495  0.4569 -0.4049
 2731TIP3    H1 8199   3.673   1.050   2.084 -0.0127  1.1029 -3.2737
 2731TIP3    H2 8200   3.597   1.157   2.161 -1.8497 -0.4932 -2.8021
 2732TIP3   OH2 8201   0.006   4.267   4.414  0.3233  0.1643 -0.1357
 2732TIP3    H1 8202   0.083   4.212   4.425 -0.0089 -0.2248  0.3160
 2732TIP3    H2 8203   0.011   4.299   4.324 -0.3060 -1.9170 -0.9630
 2733TIP3   OH2 8204   1.508   3.736   0.614 -0.3120 -0.0141 -0.5622
 2733TIP3    H1 8205   1.415   3.728   0.636 -0.1500 -2.8135 -0.4554
 2733TIP3    H2 8206   1.519   3.678   0.538  0.9932  1.9178 -1.9308
 2734TIP3   OH2 8207   5.976   3.379   2.452  0.1965 -0.2951 -0.1615
 2734TIP3    H1 8208   5.948   3.410   2.366  0.2129 -1.5223 -0.6340
 2734TIP3    H2 8209   6.065   3.413   2.462  0.0191  0.2596 -0.4074
 2735TIP3   OH2 8210   0.150   1.319   2.519 -0.6073 -0.0509 -0.4140
 2735TIP3    H1 8211   0.175   1.390   2.460 -0.4757  0.6789  0.4924
 2735TIP3    H2 8212   0.163   1.239   2.468  0.3075  0.5135 -1.0859
 2736TIP3   OH2 8213   4.034   4.320   0.114 -0.1045  0.2221  0.2155
 2736TIP3    H1 8214   4.065   4.239   0.073 -1.0739 -0.5219  0.9279
 2736TIP3    H2 8215   3.977   4.359   0.048 -0.8259 -0.4420  0.4303
 2737TIP3   OH2 8216   1.249   2.049   3.780 -0.2246  0.3246 -0.0840
 2737TIP3    H1 8217   1.331   2.054   3.829 -0.1288 -1.2547 -0.0621
 2737TIP3    H2 8218   1.180   2.058   3.847 -0.0860 -0.1096  0.1149
 2738TIP3   OH2 8219   0.955   2.839   1.912 -0.1586  0.1198  0.2135
 2738TIP3    H1 8220   0.891   2.908   1.927  0.2558  1.0518 -1.9494
 2738TIP3    H2 8221   1.038   2.885   1.903  0.1326 -0.6285 -1.1925
 2739TIP3   OH2 8222   4.438   2.687   1.339  0.2043 -0.2454  0.0929
 2739TIP3    H1 8223   4.350   2.688   1.301 -0.0679  2.9624  0.5077
 2739TIP3    H2 8224   4.495   2.659   1.268 -0.9686 -0.4979 -0.7706
 2740TIP3   OH2 8225   3.247   1.296   1.526 -0.1239  0.0737 -0.1364
 2740TIP3    H1 8226   3.321   1.243   1.494 -0.4721 -1.0477  0.8657
 2740TIP3    H2 8227   3.227   1.260   1.612 -0.8975  1.3400  0.2353
 2741TIP3   OH2 8228   2.796   3.181   3.648 -0.1484 -0.6012 -0.1501
 2741TIP3    H1 8229   2.819   3.089   3.662 -3.5451 -1.6660 -0.4340
 2741TIP3    H2 8230   2.707   3.177   3.611 -0.4760  2.8172 -0.0162
 2742TIP3   OH2 8231   2.208   3.628   1.286 -0.0168 -0.1307 -0.4216
 2742TIP3    H1 8232   2.211   3.535   1.310 -0.1183 -0.2074 -0.7074
 2742TIP3    H2 8233   2.248   3.673   1.361 -0.6792 -0.3359  0.0716
 2743TIP3   OH2 8234   0.115   1.028   2.828 -0.1495 -0.1987 -0.0148
 2743TIP3    H1 8235   0.187   1.023   2.765 -0.0822 -0.6634  0.0946
 2743TIP3    H2 8236   0.036   1.018   2.776 -0.0453 -2.3757  0.1424
 2744TIP3   OH2 8237   1.808   0.312   2.959 -0.1172  0.0405 -0.8763
 2744TIP3    H1 8238   1.746   0.288   2.890 -1.1374  1.3631 -0.4751
 2744TIP3    H2 8239   1.872   0.241   2.961  0.7417  0.5851 -4.0945
 2745TIP3   OH2 8240   2.951   3.376   4.012  0.4046  0.4098  0.5547
 2745TIP3    H1 8241   2.936   3.283   3.993 -4.4821  1.0192  0.2022
 2745TIP3    H2 8242   2.931   3.421   3.931  0.7605  1.8740  1.2506
 2746TIP3   OH2 8243   3.359   0.087   2.788  0.1911  0.0442  0.2015
 2746TIP3    H1 8244   3.404   0.003   2.790  2.5274  1.2170  0.1060
 2746TIP3    H2 8245   3.321   0.092   2.700 -1.2297 -1.4682  0.6766
 2747TIP3   OH2 8246   4.260   4.897   0.318  0.4163 -0.1962 -0.6535
 2747TIP3    H1 8247   4.250   4.802   0.307  0.0948 -0.2602  0.1404
 2747TIP3    H2 8248   4.316   4.907   0.395 -0.2330  0.2593 -0.2304
 2748TIP3   OH2 8249   0.901  -0.036   2.336  0.5028  0.4228 -0.1314
 2748TIP3    H1 8250   0.858   0.010   2.263 -0.9033  0.9699  0.9815
 2748TIP3    H2 8251   0.908   0.031   2.405  1.0205 -0.3064  0.5417
 2749TIP3   OH2 8252   2.831   5.989   1.734  0.0815  0.0566  0.0976
 2749TIP3    H1 8253   2.799   5.979   1.824 -0.1831 -0.6135 -0.0571
 2749TIP3    H2 8254   2.767   5.941   1.681 -0.5321  1.5910 -0.6150
 2750TIP3   OH2 8255   4.076   3.912   1.785 -0.0002 -0.3348  0.0593
 2750TIP3    H1 8256   4.106   3.904   1.695 -1.0648  1.2900 -0.4872
 2750TIP3    H2 8257   3.981   3.897   1.780 -0.5447  2.4489  0.3987
 2751TIP3   OH2 8258   4.187   1.603   5.185  0.3057  0.2266 -0.5364
 2751TIP3    H1 8259   4.119   1.570   5.127  0.3331 -0.6955 -0.0646
 2751TIP3    H2 8260   4.189   1.697   5.169 -0.5322  0.1539 -1.1217
 2752TIP3   OH2 8261   2.228   0.481   1.874 -0.0326 -0.0804 -0.1936
 2752TIP3    H1 8262   2.256   0.485   1.966 -0.3591  1.7298 -0.1273
 2752TIP3    H2 8263   2.288   0.540   1.828 -0.6342 -0.0153 -0.9190
 2753TIP3   OH2 8264   4.539   2.852   5.170 -0.2475  0.2747 -0.3134
 2753TIP3    H1 8265   4.491   2.879   5.092  0.0746  1.5184 -0.0895
 2753TIP3    H2 8266   4.506   2.764   5.189 -0.1290 -0.1789 -2.0161
 2754TIP3   OH2 8267   0.151   4.771   1.142 -0.4123 -0.3909  0.0173
 2754TIP3    H1 8268   0.143   4.808   1.054  0.8044 -0.6095 -0.2103
 2754TIP3    H2 8269   0.151   4.676   1.128 -2.3353 -0.4999  0.4831
 2755TIP3   OH2 8270   1.342   0.013   1.883 -0.4757 -0.4297  0.1113
 2755TIP3    H1 8271   1.374  -0.038   1.957 -2.0044 -1.9289 -0.1995
 2755TIP3    H2 8272   1.298   0.088   1.923  2.8246  1.4731  0.5533
 2756TIP3   OH2 8273   2.912   4.737   3.920 -0.0797 -0.0941 -0.2632
 2756TIP3    H1 8274   2.889   4.758   3.830 -0.7254  0.0197 -0.0783
 2756TIP3    H2 8275   3.004   4.710   3.916 -0.4192 -1.2020 -1.1333
 2757TIP3   OH2 8276   6.075   2.036   1.368  0.1547 -0.2048  0.3794
 2757TIP3    H1 8277   6.001   2.036   1.306  0.7188 -0.6398 -0.3085
 2757TIP3    H2 8278   6.042   2.082   1.445 -0.7035 -0.0356 -0.0808
 2758TIP3   OH2 8279   2.567   0.384   1.999  0.2523 -0.5639  0.1469
 2758TIP3    H1 8280   2.662   0.374   1.996  0.1866 -1.1067 -0.3998
 2758TIP3    H2 8281   2.549   0.459   1.942  0.2489 -1.3152 -0.8601
 2759TIP3   OH2 8282   1.633   5.982   2.268 -0.4232 -0.0265  0.4813
 2759TIP3    H1 8283   1.671   6.035   2.337  1.5598 -1.0185  0.2233
 2759TIP3    H2 8284   1.670   5.895   2.281 -0.8504 -0.4935 -1.1716
 2760TIP3   OH2 8285   0.414   4.741   2.012  0.2371  0.1692  0.1368
 2760TIP3    H1 8286   0.506   4.752   2.038  0.1733 -1.0664  0.9917
 2760TIP3    H2 8287   0.402   4.646   2.006 -1.0601  0.3002  0.3540
 2761TIP3   OH2 8288   4.794   5.880   1.553 -0.6592 -0.2076 -0.8635
 2761TIP3    H1 8289   4.873   5.829   1.537 -1.6824 -2.3382  0.4771
 2761TIP3    H2 8290   4.741   5.869   1.475 -0.1724  0.2278 -1.2640
 2762TIP3   OH2 8291   5.939   3.718   3.316 -0.0284  0.2470 -0.4400
 2762TIP3    H1 8292   5.939   3.634   3.271  0.2848  0.5252 -0.9640
 2762TIP3    H2 8293   6.021   3.718   3.367  0.7252  0.8428 -1.6074
 2763TIP3   OH2 8294   2.040   3.848   0.439  0.1301  0.2260 -0.1359
 2763TIP3    H1 8295   1.998   3.886   0.517  0.5574  1.2315 -0.3785
 2763TIP3    H2 8296   1.967   3.822   0.383 -0.1790  0.0315  0.3484
 2764TIP3   OH2 8297   4.620   5.578   0.453  0.1440 -0.0066 -0.0150
 2764TIP3    H1 8298   4.574   5.634   0.515 -1.2933 -1.6156  0.4442
 2764TIP3    H2 8299   4.554   5.552   0.390  0.4717 -2.0416  0.4099
 2765TIP3   OH2 8300   1.040   1.950   2.456 -0.0451 -0.4870  0.2327
 2765TIP3    H1 8301   0.973   1.953   2.525 -1.3158 -2.2470 -0.8462
 2765TIP3    H2 8302   0.999   1.993   2.381  1.4162  1.6336  0.5688
 2766TIP3   OH2 8303   4.936   5.984   2.735  0.2492 -0.1412 -0.2588
 2766TIP3    H1 8304   4.956   5.935   2.814 -0.5428  0.6248  0.4440
 2766TIP3    H2 8305   5.004   5.959   2.673  1.7977  0.3972  1.1577
 2767TIP3   OH2 8306   5.392   3.286   0.884  0.2595  0.1641  0.1119
 2767TIP3    H1 8307   5.347   3.358   0.839 -0.5788 -0.1977  0.3588
 2767TIP3    H2 8308   5.326   3.249   0.942  1.5003  1.1164  2.2525
 2768TIP3   OH2 8309   1.131   2.461   4.112  0.1533 -0.7008  0.0655
 2768TIP3    H1 8310   1.131   2.365   4.110 -0.1347 -0.6992  0.0171
 2768TIP3    H2 8311   1.057   2.483   4.169  1.5330 -0.5520  1.9034
 2769TIP3   OH2 8312   4.857   3.047   4.073 -0.6355  0.1927  0.1270
 2769TIP3    H1 8313   4.914   3.101   4.126 -0.7075  0.0022  0.4005
 2769TIP3    H2 8314   4.769   3.067   4.103 -0.5828 -1.4897  1.6222
 2770TIP3   OH2 8315   0.130   0.893   0.168 -0.0113 -0.5594  0.2932
 2770TIP3    H1 8316   0.090   0.965   0.121  0.4375 -0.7384 -0.3813
 2770TIP3    H2 8317   0.190   0.935   0.230  1.1403 -0.3654 -0.9187
 2771TIP3   OH2 8318   2.356   0.092   1.452 -0.4725  0.0340 -0.6126
 2771TIP3    H1 8319   2.367   0.076   1.358  2.7754  2.5456 -0.8347
 2771TIP3    H2 8320   2.439   0.063   1.490 -1.4568 -0.2434  1.3968
 2772TIP3   OH2 8321   2.105   4.600   2.755  0.0520  0.1497  0.0044
 2772TIP3    H1 8322   2.104   4.504   2.745 -1.2133  0.0299  1.0208
 2772TIP3    H2 8323   2.195   4.619   2.782 -0.1140 -0.9767  1.4877
 2773TIP3   OH2 8324   0.310   0.022   4.900 -0.4798 -0.0810  0.3185
 2773TIP3    H1 8325   0.280   0.108   4.870 -0.5621  0.1234  0.9826
 2773TIP3    H2 8326   0.273   0.012   4.988 -0.2104 -0.6640  0.3741
 2774TIP3   OH2 8327   5.635   5.696   3.563  0.0968  0.3256  0.1761
 2774TIP3    H1 8328   5.561   5.671   3.619  0.5147  2.1338  1.6694
 2774TIP3    H2 8329   5.629   5.639   3.487 -3.0128  0.5912  0.0814
 2775TIP3   OH2 8330   5.185   2.261   2.317  0.2287 -0.1137 -0.1920
 2775TIP3    H1 8331   5.133   2.269   2.238  0.6986 -0.6028 -0.5627
 2775TIP3    H2 8332   5.244   2.188   2.299  0.6795  0.0920  0.4176
 2776TIP3   OH2 8333   1.885   0.402   3.693 -0.0198  0.1836  0.1520
 2776TIP3    H1 8334   1.932   0.344   3.752  1.4503  0.4339 -0.7248
 2776TIP3    H2 8335   1.954   0.451   3.648 -1.0940  0.2704 -1.4832
 2777TIP3   OH2 8336   5.209   2.529   2.797  0.0580  0.3102 -0.6158
 2777TIP3    H1 8337   5.219   2.622   2.815  1.0839 -0.0363  0.8315
 2777TIP3    H2 8338   5.254   2.486   2.870  0.5780 -1.3087 -1.8311
 2778TIP3   OH2 8339   1.486   5.099   2.781  0.4864 -0.2203 -0.0699
 2778TIP3    H1 8340   1.460   5.143   2.862 -2.3409  0.9744 -1.4804
 2778TIP3    H2 8341   1.542   5.162   2.736 -0.5569  0.4649 -0.4380
 2779TIP3   OH2 8342   4.969   3.086   2.120 -0.4851  0.0437  0.0333
 2779TIP3    H1 8343   4.881   3.095   2.157  0.0341  0.3860  1.2235
 2779TIP3    H2 8344   4.970   2.997   2.084 -0.7884 -0.6001  1.5245
 2780TIP3   OH2 8345   0.042   0.325   1.335  0.4865  0.7102 -0.0756
 2780TIP3    H1 8346  -0.025   0.394   1.336 -0.2256  0.0242  0.4189
 2780TIP3    H2 8347   0.002   0.252   1.382  1.6349  0.3255  0.3343
 2781TIP3   OH2 8348   1.930   2.897   2.797  0.7325  0.2676  0.0951
 2781TIP3    H1 8349   2.019   2.879   2.767  0.0754 -0.5812 -1.5016
 2781TIP3    H2 8350   1.897   2.811   2.824  0.2187  0.4822  0.1519
 2782TIP3   OH2 8351   0.285   2.593   4.808 -0.2670 -0.2839  0.7119
 2782TIP3    H1 8352   0.378   2.609   4.824  0.3069 -2.8123  0.3460
 2782TIP3    H2 8353   0.259   2.534   4.879 -0.9151 -1.6117 -0.5831
 2783TIP3   OH2 8354   4.281   2.416   1.549  0.2216  0.4099 -0.3397
 2783TIP3    H1 8355   4.318   2.371   1.473  0.6100 -1.9972  1.1495
 2783TIP3    H2 8356   4.208   2.468   1.513  1.6969  1.0626 -2.5943
 2784TIP3   OH2 8357   0.527   1.774   0.146 -0.1989 -0.0167 -0.3837
 2784TIP3    H1 8358   0.571   1.723   0.215 -0.9770 -0.6746 -0.3582
 2784TIP3    H2 8359   0.445   1.803   0.187  0.8126  2.4308  0.0577
 2785TIP3   OH2 8360   0.353   0.749   4.540  0.6608 -0.8274  0.1578
 2785TIP3    H1 8361   0.271   0.798   4.540  1.4483  0.5348  0.3740
 2785TIP3    H2 8362   0.332   0.668   4.586 -0.4857 -0.3650  0.4951
 2786TIP3   OH2 8363   3.583   5.644   1.201  0.3338 -0.3903 -0.0724
 2786TIP3    H1 8364   3.678   5.632   1.203  0.5336  0.6043 -2.0359
 2786TIP3    H2 8365   3.558   5.653   1.294  2.1142 -0.7840  0.4758
 2787TIP3   OH2 8366   0.098   1.903   2.089 -0.0315  0.7647 -0.2672
 2787TIP3    H1 8367   0.010   1.936   2.070 -0.4787  0.0100  0.4618
 2787TIP3    H2 8368   0.155   1.978   2.071 -0.8450  1.3553 -0.4718
 2788TIP3   OH2 8369   4.023   0.909   1.692  0.8200 -0.4091 -0.3940
 2788TIP3    H1 8370   4.074   0.950   1.762  0.2500 -2.0044  1.0335
 2788TIP3    H2 8371   4.086   0.851   1.648  1.0030  0.0614 -0.7648
 2789TIP3   OH2 8372   2.221   5.372   4.492 -0.3302 -0.5660 -0.2458
 2789TIP3    H1 8373   2.126   5.371   4.496 -0.3448  0.4351 -0.2442
 2789TIP3    H2 8374   2.246   5.455   4.532  0.5961 -1.2993  0.7473
 2790TIP3   OH2 8375   3.932   1.322   1.766  0.2121 -0.0709  0.5371
 2790TIP3    H1 8376   3.889   1.236   1.759 -0.8148  0.4337  0.4171
 2790TIP3    H2 8377   3.900   1.358   1.849  1.1630 -0.0770  0.9125
 2791TIP3   OH2 8378   1.710   0.297   0.601  0.0810  0.4781  0.3617
 2791TIP3    H1 8379   1.700   0.384   0.639 -1.0970  0.6241 -0.2442
 2791TIP3    H2 8380   1.631   0.250   0.626 -0.5823  0.4708 -1.5508
 2792TIP3   OH2 8381   2.086   0.980   1.490  0.3984  0.3466  0.2690
 2792TIP3    H1 8382   2.162   0.996   1.433  0.8633 -1.2539  0.4047
 2792TIP3    H2 8383   2.117   1.003   1.578 -0.1780  2.3751 -0.0036
 2793TIP3   OH2 8384   0.196   2.794   1.608  0.0806 -0.1751  0.0462
 2793TIP3    H1 8385   0.133   2.772   1.677 -0.3581 -1.2416 -0.6579
 2793TIP3    H2 8386   0.142   2.813   1.531  0.5375  1.6992  0.1445
 2794TIP3   OH2 8387   4.973   2.098   3.582 -0.0174 -0.5780  0.0998
 2794TIP3    H1 8388   5.061   2.068   3.563 -0.1566 -0.7715 -0.2518
 2794TIP3    H2 8389   4.916   2.032   3.544 -0.3148 -0.8991  1.0619
 2795TIP3   OH2 8390   2.653   1.094   3.363 -0.0579 -0.9827 -0.1817
 2795TIP3    H1 8391   2.643   0.999   3.350 -2.3140 -0.7435 -0.7155
 2795TIP3    H2 8392   2.564   1.124   3.380  0.7172  0.9774  0.6532
 2796TIP3   OH2 8393   3.453   2.932   3.520  0.9831  0.1249 -0.1807
 2796TIP3    H1 8394   3.439   3.011   3.469  0.3705  0.3483  0.3175
 2796TIP3    H2 8395   3.365   2.906   3.549  1.0952 -1.1217 -0.9086
 2797TIP3   OH2 8396   1.636   0.667   1.940  0.0356 -0.2649 -0.3370
 2797TIP3    H1 8397   1.662   0.732   2.005 -1.0519  0.5490 -0.6702
 2797TIP3    H2 8398   1.687   0.589   1.961 -1.0559 -0.3976  2.1666
 2798TIP3   OH2 8399   3.477   5.156   0.053  0.2300 -0.3844 -0.0496
 2798TIP3    H1 8400   3.562   5.187   0.084  1.2465 -2.0101 -1.0552
 2798TIP3    H2 8401   3.416   5.180   0.122  1.7193 -0.3287  1.3063
 2799TIP3   OH2 8402   0.834   3.742   2.558 -0.1131 -0.2599  0.4346
 2799TIP3    H1 8403   0.852   3.835   2.542  0.4389 -0.2036  1.3239
 2799TIP3    H2 8404   0.788   3.741   2.642 -0.4319 -0.7669  0.2552
 2800TIP3   OH2 8405   5.525   3.003   4.058 -0.0120  0.1924  0.3502
 2800TIP3    H1 8406   5.526   3.059   3.980  1.0727  0.9027  0.8507
 2800TIP3    H2 8407   5.443   3.024   4.102  0.6774  1.9751  0.9034
 2801TIP3   OH2 8408   5.062   4.681   2.715  0.3730  0.1900 -0.4192
 2801TIP3    H1 8409   5.107   4.763   2.733 -0.1778  0.1498  1.3748
 2801TIP3    H2 8410   4.970   4.699   2.738  0.2475 -0.8959 -0.0013
 2802TIP3   OH2 8411   3.411   4.622   2.375 -0.2177  0.0148 -0.1896
 2802TIP3    H1 8412   3.363   4.643   2.455 -0.3930  1.7442 -0.7150
 2802TIP3    H2 8413   3.478   4.559   2.403 -1.0443 -0.3410  1.0668
 2803TIP3   OH2 8414   3.151   2.512   0.712 -0.2872  0.0336  0.2096
 2803TIP3    H1 8415   3.147   2.608   0.721 -0.0631 -0.0612  1.4887
 2803TIP3    H2 8416   3.233   2.488   0.754 -0.1852 -0.7042 -0.3979
 2804TIP3   OH2 8417   5.718   4.012   1.944  0.0463 -0.3837 -0.4421
 2804TIP3    H1 8418   5.660   3.937   1.952  1.3135 -1.4198 -0.4979
 2804TIP3    H2 8419   5.683   4.076   2.006 -1.8717 -0.4400 -1.3992
 2805TIP3   OH2 8420   5.886   4.870   2.430  0.0745  0.5353  0.3042
 2805TIP3    H1 8421   5.795   4.846   2.411  0.5537 -1.3018  0.1347
 2805TIP3    H2 8422   5.928   4.788   2.457  2.1527  0.9039 -1.4596
 2806TIP3   OH2 8423   0.246   2.557   2.789 -0.1695 -0.6021  0.2345
 2806TIP3    H1 8424   0.196   2.614   2.731 -0.8117 -0.3859  0.9900
 2806TIP3    H2 8425   0.234   2.594   2.877 -1.2054 -2.2793  0.8465
 2807TIP3   OH2 8426   1.212   4.038   3.255  0.6147 -0.8911  0.3904
 2807TIP3    H1 8427   1.221   3.967   3.192  1.0336 -0.2918 -0.2377
 2807TIP3    H2 8428   1.245   4.116   3.209 -1.4333  0.0771  0.4055
 2808TIP3   OH2 8429   1.020   3.706   2.962 -0.3344  0.0920  0.1507
 2808TIP3    H1 8430   1.074   3.752   2.897 -0.4434 -1.2567 -0.9447
 2808TIP3    H2 8431   1.082   3.651   3.009 -0.7690 -2.2470 -1.7973
 2809TIP3   OH2 8432   5.321   1.046   4.262 -0.6469  0.3413  0.1764
 2809TIP3    H1 8433   5.268   1.113   4.219 -0.5336  0.9836  1.0067
 2809TIP3    H2 8434   5.342   1.084   4.347  1.0484  0.0564 -0.0876
 2810TIP3   OH2 8435   6.183   5.228   0.530  0.5001  0.4771 -0.5597
 2810TIP3    H1 8436   6.267   5.271   0.544 -0.8534  3.2199 -0.1553
 2810TIP3    H2 8437   6.141   5.279   0.461 -0.8478 -0.8496 -0.7753
 2811TIP3   OH2 8438   1.550   3.226   0.991 -0.0884 -0.5616 -0.1329
 2811TIP3    H1 8439   1.468   3.208   0.945  0.1911  1.1456 -1.4065
 2811TIP3    H2 8440   1.567   3.319   0.974  1.3214 -0.4933  1.4064
 2812TIP3   OH2 8441   2.855   3.664   3.171 -0.1287 -0.1399  0.5592
 2812TIP3    H1 8442   2.775   3.718   3.175  0.5691  0.9339  0.3861
 2812TIP3    H2 8443   2.924   3.721   3.204  0.9668 -0.2755 -1.3584
 2813TIP3   OH2 8444   3.785   3.248   0.402  0.1569  0.0900  0.3103
 2813TIP3    H1 8445   3.841   3.184   0.446 -1.9246 -2.2444 -0.1729
 2813TIP3    H2 8446   3.752   3.202   0.325 -2.4832  1.2310  0.6335
 2814TIP3   OH2 8447   2.458   3.276   0.902 -0.2242  0.0537 -0.2006
 2814TIP3    H1 8448   2.527   3.242   0.846  1.3267  0.8489  1.1333
 2814TIP3    H2 8449   2.441   3.364   0.870 -0.1837  0.0760 -0.1613
 2815TIP3   OH2 8450   2.329   1.515   4.442 -0.2801 -0.4719  0.5318
 2815TIP3    H1 8451   2.238   1.538   4.459 -0.0009 -0.3345  2.0242
 2815TIP3    H2 8452   2.380   1.582   4.488  0.5991 -0.0711 -0.9528
 2816TIP3   OH2 8453   5.425   4.596   4.544  0.2026  0.1828 -0.5177
 2816TIP3    H1 8454   5.420   4.508   4.580 -0.1358 -0.6788 -2.5572
 2816TIP3    H2 8455   5.361   4.597   4.474 -0.5574  2.4220  0.1292
 2817TIP3   OH2 8456   0.332   3.834   0.500 -0.2309  0.4971  0.4893
 2817TIP3    H1 8457   0.396   3.857   0.432  1.3475  2.0988  2.3875
 2817TIP3    H2 8458   0.385   3.793   0.569 -1.3392  1.2081  1.8157
 2818TIP3   OH2 8459   6.050   4.000   0.829  0.2206  0.0136 -0.2592
 2818TIP3    H1 8460   6.068   3.977   0.920 -0.5015  1.6532  0.3370
 2818TIP3    H2 8461   6.017   3.919   0.790  2.8719 -1.4237  0.2106
 2819TIP3   OH2 8462   4.640   2.705   2.964  0.4418 -0.3244  0.1714
 2819TIP3    H1 8463   4.700   2.653   2.911 -0.8831  0.0249 -1.7534
 2819TIP3    H2 8464   4.659   2.796   2.940  0.4486 -0.0919  1.0110
 2820TIP3   OH2 8465   5.925   0.041   2.002  0.5810  0.3124  0.2453
 2820TIP3    H1 8466   5.881   0.123   1.983 -2.4542 -1.1108  0.5608
 2820TIP3    H2 8467   5.855  -0.024   2.006  2.8836 -2.4554 -0.6607
 2821TIP3   OH2 8468   2.508   4.928   1.359 -0.1573 -0.0655 -0.1476
 2821TIP3    H1 8469   2.603   4.929   1.372  0.0967  1.2078 -1.7434
 2821TIP3    H2 8470   2.497   4.896   1.269 -1.3868 -2.0505  0.6390
 2822TIP3   OH2 8471   2.345   2.553   1.125 -0.0578  0.1559  0.0280
 2822TIP3    H1 8472   2.431   2.535   1.163 -0.8077  0.5263  2.0215
 2822TIP3    H2 8473   2.309   2.622   1.181 -2.2723 -1.0863  0.2229
 2823TIP3   OH2 8474   4.531   2.136   0.783 -0.1952  0.4470  0.1272
 2823TIP3    H1 8475   4.514   2.229   0.768 -1.5188 -0.0455 -1.8975
 2823TIP3    H2 8476   4.446   2.093   0.769  0.7540 -1.2325 -0.8692
 2824TIP3   OH2 8477   5.191   5.664   0.499 -0.1367 -0.2218 -0.3665
 2824TIP3    H1 8478   5.122   5.729   0.516  0.9320  0.7834  0.2530
 2824TIP3    H2 8479   5.209   5.626   0.585 -0.1351 -0.7111 -0.5826
 2825TIP3   OH2 8480   4.897   4.969   2.817  0.5078  0.7133  0.4442
 2825TIP3    H1 8481   4.917   4.997   2.727  0.5560 -1.1476 -0.1682
 2825TIP3    H2 8482   4.819   4.914   2.807 -0.6325  1.9969  1.8288
 2826TIP3   OH2 8483   0.082   3.041   3.034  0.2450  1.1122  0.0215
 2826TIP3    H1 8484   0.041   3.127   3.035  0.4501  1.2325  1.7524
 2826TIP3    H2 8485   0.069   3.008   3.123  0.2646 -0.6011 -0.5763
 2827TIP3   OH2 8486   1.114   0.033   1.435  0.6000  0.1945 -0.2587
 2827TIP3    H1 8487   1.132  -0.001   1.347  0.9694 -1.1471  0.3098
 2827TIP3    H2 8488   1.182  -0.006   1.490 -1.7965 -2.1058  1.3193
 2828TIP3   OH2 8489   5.686   2.481   0.700 -0.2137  0.5005  0.1505
 2828TIP3    H1 8490   5.776   2.471   0.667  0.3314  1.4283  1.3107
 2828TIP3    H2 8491   5.641   2.403   0.667  0.9440  0.1373 -0.6676
 2829TIP3   OH2 8492   2.233   3.680   0.057  0.2583 -0.3413  0.6057
 2829TIP3    H1 8493   2.175   3.755   0.073  0.4705 -0.3575  1.4688
 2829TIP3    H2 8494   2.187   3.629  -0.011  1.4364  1.9999 -2.1765
 2830TIP3   OH2 8495   2.788   6.005   3.558 -0.3529  0.1297 -0.1973
 2830TIP3    H1 8496   2.765   5.931   3.501  0.0832 -0.5701  0.5142
 2830TIP3    H2 8497   2.840   5.966   3.628  0.9429  1.3070 -0.4645
 2831TIP3   OH2 8498   5.577   5.124   1.969 -0.6888  0.0967  0.3277
 2831TIP3    H1 8499   5.544   5.042   1.933 -0.8873 -0.3797  1.5595
 2831TIP3    H2 8500   5.523   5.192   1.928 -1.0591 -0.4491 -0.0912
 2832TIP3   OH2 8501   4.687   3.275   4.246 -0.1856 -0.1107 -0.2101
 2832TIP3    H1 8502   4.672   3.370   4.248  4.3691  0.8503 -0.5983
 2832TIP3    H2 8503   4.690   3.249   4.338 -1.5479  0.0592 -0.1006
 2833TIP3   OH2 8504   5.021   4.056   4.793  0.4514 -0.2969 -0.4917
 2833TIP3    H1 8505   5.017   4.011   4.877  0.3502 -1.8050 -1.2568
 2833TIP3    H2 8506   5.093   4.118   4.801 -2.0762  2.5950  2.0720
 2834TIP3   OH2 8507   4.387   5.848   0.352 -0.0994  0.0284  0.3456
 2834TIP3    H1 8508   4.431   5.840   0.267  1.3196  0.1105  1.0372
 2834TIP3    H2 8509   4.365   5.758   0.376 -1.6035  0.1005 -0.6260
 2835TIP3   OH2 8510   2.661   1.521   3.774 -0.4232  0.4704 -0.0979
 2835TIP3    H1 8511   2.630   1.592   3.830  0.5483 -0.1343  1.2539
 2835TIP3    H2 8512   2.582   1.489   3.730 -1.4005  0.3089  1.6957
 2836TIP3   OH2 8513   3.917   0.102   0.764  0.1047 -0.3761 -0.1272
 2836TIP3    H1 8514   3.984   0.063   0.820 -1.3282  0.0564  2.0173
 2836TIP3    H2 8515   3.860   0.029   0.740  0.1874 -0.4153 -0.2008
 2837TIP3   OH2 8516   2.765   0.532   3.650  0.0183 -0.3342  0.2751
 2837TIP3    H1 8517   2.769   0.626   3.670  0.3625 -0.3190  0.1354
 2837TIP3    H2 8518   2.695   0.525   3.585 -1.0153 -0.3633  1.3496
 2838TIP3   OH2 8519   1.479   1.986   4.518  0.4803 -0.5746 -0.0717
 2838TIP3    H1 8520   1.472   1.982   4.613 -0.5925 -0.0208 -0.1103
 2838TIP3    H2 8521   1.559   2.036   4.501  1.1175 -1.3781  0.5228
 2839TIP3   OH2 8522   1.510   5.414   2.738 -0.1720  0.2618  0.7165
 2839TIP3    H1 8523   1.573   5.375   2.677 -0.5649  0.4166  0.2126
 2839TIP3    H2 8524   1.565   5.455   2.805  0.2637  0.3198  0.3304
 2840TIP3   OH2 8525   5.031   5.010   2.551  0.1590  0.2476 -0.3068
 2840TIP3    H1 8526   5.115   4.998   2.508  0.1471 -0.1240 -0.2270
 2840TIP3    H2 8527   4.992   5.086   2.507  1.6929  2.1606  1.4497
 2841TIP3   OH2 8528   2.350   1.518   0.125  0.3190  0.1482 -0.0414
 2841TIP3    H1 8529   2.348   1.611   0.148  0.8985  0.7685 -2.2612
 2841TIP3    H2 8530   2.318   1.515   0.035  0.0331 -1.8612  0.0728
 2842TIP3   OH2 8531   2.449   0.872   4.071  0.0547 -0.2966  0.1823
 2842TIP3    H1 8532   2.371   0.824   4.041  0.6008 -0.6323 -0.7534
 2842TIP3    H2 8533   2.483   0.819   4.142 -0.4161 -0.2946  0.4143
 2843TIP3   OH2 8534   4.709   3.059   2.186  0.4564  0.0407 -0.3048
 2843TIP3    H1 8535   4.662   3.054   2.269  0.6639  2.8545  0.0767
 2843TIP3    H2 8536   4.665   3.129   2.137  2.3737  0.7374 -1.1574
 2844TIP3   OH2 8537   3.447   0.861   2.955  0.0960  0.0093 -0.0553
 2844TIP3    H1 8538   3.531   0.816   2.963  0.5896  0.7094 -1.0823
 2844TIP3    H2 8539   3.451   0.904   2.870 -0.7055  1.2751  0.5210
 2845TIP3   OH2 8540   0.259   5.693   2.758  0.0903 -0.3635 -0.1065
 2845TIP3    H1 8541   0.241   5.761   2.693 -0.6846  0.8406  1.3206
 2845TIP3    H2 8542   0.183   5.693   2.816  1.9475  0.6735  2.5262
 2846TIP3   OH2 8543   2.543   2.863   2.150  0.3811  0.4287  0.1285
 2846TIP3    H1 8544   2.558   2.891   2.059  0.2426 -1.2637 -0.4702
 2846TIP3    H2 8545   2.629   2.870   2.192  0.6543  0.3725 -0.4088
 2847TIP3   OH2 8546   5.436   1.446   1.917  0.0798  0.0371  0.1037
 2847TIP3    H1 8547   5.465   1.413   2.002 -0.8704 -0.6846  0.1684
 2847TIP3    H2 8548   5.345   1.419   1.910  0.1097  0.1548 -1.1155
 2848TIP3   OH2 8549   0.356   2.859   4.101 -0.2838  0.5480  0.4267
 2848TIP3    H1 8550   0.379   2.911   4.024  0.1387 -0.6099 -0.2572
 2848TIP3    H2 8551   0.326   2.923   4.165  0.1105  1.6147 -0.4223
 2849TIP3   OH2 8552   0.091   1.539   1.670 -0.7066 -0.1696  0.0981
 2849TIP3    H1 8553   0.075   1.546   1.765  1.3301 -0.4052  0.5000
 2849TIP3    H2 8554   0.126   1.451   1.658 -1.8639 -0.4983 -1.0501
 2850TIP3   OH2 8555   5.043   4.190   2.118 -0.0712 -0.3871 -0.0849
 2850TIP3    H1 8556   4.953   4.195   2.085  0.1978 -0.9767 -0.9274
 2850TIP3    H2 8557   5.098   4.207   2.041  0.5681 -1.7993  0.0306
 2851TIP3   OH2 8558   2.617   5.905   1.550  0.4958 -0.5053  0.5922
 2851TIP3    H1 8559   2.548   5.839   1.559 -1.6114  0.8268 -3.5061
 2851TIP3    H2 8560   2.585   5.980   1.600  0.7685 -1.0740  1.6453
 2852TIP3   OH2 8561   2.533   0.239   0.744  0.0709  0.1354  0.3576
 2852TIP3    H1 8562   2.461   0.301   0.730  0.4780  0.0369 -2.8817
 2852TIP3    H2 8563   2.491   0.163   0.784 -1.8780 -0.1795 -2.0157
 2853TIP3   OH2 8564   0.071   4.571   4.327 -0.4470  0.1767 -0.1685
 2853TIP3    H1 8565   0.140   4.620   4.282  0.8314  1.1007  2.6051
 2853TIP3    H2 8566   0.100   4.480   4.325 -1.3053 -0.1247 -2.6272
 2854TIP3   OH2 8567   0.084   5.801   2.942  0.2151 -0.3799 -0.5892
 2854TIP3    H1 8568   0.017   5.776   3.006  0.7467  1.7140  0.8857
 2854TIP3    H2 8569   0.044   5.872   2.892  0.3914 -0.9451 -1.5746
 2855TIP3   OH2 8570   5.077   1.266   1.412 -0.2883 -0.3447 -0.2713
 2855TIP3    H1 8571   5.069   1.207   1.486 -0.6066 -0.3826 -0.3348
 2855TIP3    H2 8572   5.132   1.337   1.443  0.2250 -0.7470 -0.2388
 2856TIP3   OH2 8573   5.622   3.759   2.667 -0.1495 -0.2885  0.1206
 2856TIP3    H1 8574   5.671   3.733   2.590  1.1707 -1.7242  1.3802
 2856TIP3    H2 8575   5.678   3.823   2.712 -0.3640 -0.3526  0.4891
 2857TIP3   OH2 8576   5.618   0.814   3.474 -0.4206 -0.1975  0.0597
 2857TIP3    H1 8577   5.571   0.853   3.548  1.4365 -0.0626  1.2427
 2857TIP3    H2 8578   5.587   0.724   3.471 -0.4348 -0.2393  1.0967
 2858TIP3   OH2 8579   5.393   4.162   3.969 -0.2769 -0.0084  0.4697
 2858TIP3    H1 8580   5.418   4.105   4.042  2.2540  0.0179 -0.2542
 2858TIP3    H2 8581   5.389   4.250   4.007 -2.7854 -0.3966  1.2936
 2859TIP3   OH2 8582   3.219   5.842   2.503  0.1144  0.2218  0.2423
 2859TIP3    H1 8583   3.261   5.926   2.520  2.2083 -0.8887  0.9387
 2859TIP3    H2 8584   3.239   5.823   2.411 -0.9684  0.7806 -0.1225
 2860TIP3   OH2 8585   3.688   0.874   2.098 -0.2540 -0.3427  0.6571
 2860TIP3    H1 8586   3.722   0.789   2.124  1.7559  0.4226  0.6779
 2860TIP3    H2 8587   3.606   0.854   2.053 -0.9160 -2.1148  2.4960
 2861TIP3   OH2 8588   1.853   3.143   5.030 -0.1404  0.3569  0.3403
 2861TIP3    H1 8589   1.907   3.083   4.978 -0.2459  0.0453  0.5851
 2861TIP3    H2 8590   1.822   3.089   5.103 -3.3777 -0.3894 -1.4179
 2862TIP3   OH2 8591   6.121   3.715   2.767 -0.5694 -0.3672 -0.5879
 2862TIP3    H1 8592   6.126   3.619   2.768 -2.8075 -0.5309 -0.7008
 2862TIP3    H2 8593   6.029   3.735   2.784 -0.3191  1.7520 -1.3769
 2863TIP3   OH2 8594   3.793   1.060   1.754  0.4338 -0.9926  0.3347
 2863TIP3    H1 8595   3.856   1.062   1.682  1.3495 -2.0747  1.0801
 2863TIP3    H2 8596   3.803   0.974   1.793 -2.7036 -1.8741 -0.5169
 2864TIP3   OH2 8597   2.767   1.330   0.503 -0.0284 -0.1644 -0.0731
 2864TIP3    H1 8598   2.749   1.276   0.426 -1.7009  0.5676 -0.2463
 2864TIP3    H2 8599   2.733   1.278   0.576  0.8619 -0.5230  0.0972
 2865TIP3   OH2 8600   3.169   4.608   0.449 -0.0088  0.4178  0.0158
 2865TIP3    H1 8601   3.211   4.623   0.364 -0.2923 -0.4239 -0.2821
 2865TIP3    H2 8602   3.218   4.536   0.488  0.3399  1.0303  0.7291
 2866TIP3   OH2 8603   4.722   1.355   0.522 -0.6162 -0.1816 -0.1951
 2866TIP3    H1 8604   4.803   1.344   0.474 -0.5287  0.1728 -0.1269
 2866TIP3    H2 8605   4.702   1.267   0.556 -0.7563 -0.4597 -0.9906
 2867TIP3   OH2 8606   0.144   5.773   1.418 -0.3675  0.1670 -0.5005
 2867TIP3    H1 8607   0.206   5.783   1.490  0.5535 -0.4554 -1.1783
 2867TIP3    H2 8608   0.059   5.791   1.457  0.1981  0.7094  0.5333
 2868TIP3   OH2 8609   5.265   3.052   0.232 -0.1993  0.0681  0.1407
 2868TIP3    H1 8610   5.319   2.973   0.224  1.5906  1.3594 -1.7814
 2868TIP3    H2 8611   5.175   3.020   0.232  0.4699 -1.9853 -0.5181
 2869TIP3   OH2 8612   5.076   5.336   3.262 -0.2800  0.0428  0.0193
 2869TIP3    H1 8613   5.010   5.365   3.324 -1.1391  1.6403 -1.5674
 2869TIP3    H2 8614   5.052   5.377   3.179  2.4257  0.2949 -0.7529
 2870TIP3   OH2 8615   5.893   5.350   3.658 -0.6756  0.0761 -0.1673
 2870TIP3    H1 8616   5.802   5.339   3.631 -0.8780 -0.7530  0.7863
 2870TIP3    H2 8617   5.905   5.445   3.663 -1.9517  0.2029  1.1313
 2871TIP3   OH2 8618   5.250   1.586   3.080  0.4256  0.5342 -0.3935
 2871TIP3    H1 8619   5.277   1.511   3.134  2.7762  2.1797  0.8853
 2871TIP3    H2 8620   5.169   1.616   3.121 -0.9898 -1.6779 -1.3879
 2872TIP3   OH2 8621   3.553   4.408   2.459 -0.2703  0.4945  0.1417
 2872TIP3    H1 8622   3.571   4.314   2.465 -1.0426  0.4056  1.3011
 2872TIP3    H2 8623   3.620   4.449   2.515 -1.2455  0.4442  1.4006
 2873TIP3   OH2 8624   6.120   5.540   2.615  0.1167  0.2833  0.0706
 2873TIP3    H1 8625   6.161   5.577   2.537  0.1247 -0.0791 -0.0974
 2873TIP3    H2 8626   6.151   5.450   2.619 -0.5417  0.0442  0.0179
 2874TIP3   OH2 8627   2.514   0.002   4.872 -0.5296  0.4194  0.3597
 2874TIP3    H1 8628   2.462   0.053   4.809  1.5172  2.1941 -0.0283
 2874TIP3    H2 8629   2.602   0.040   4.866  0.6485 -1.9405  1.5240
 2875TIP3   OH2 8630   5.167   4.689   0.134  0.1231 -0.1199  0.1729
 2875TIP3    H1 8631   5.262   4.680   0.143  0.1176 -0.8035 -0.3475
 2875TIP3    H2 8632   5.151   4.672   0.041 -0.3953  1.1111  0.0231
 2876TIP3   OH2 8633   2.436   0.322   4.471  0.0041 -0.7267  0.0374
 2876TIP3    H1 8634   2.414   0.229   4.468 -0.6244 -0.5548 -0.6612
 2876TIP3    H2 8635   2.353   0.368   4.463  0.3100 -0.0915  0.3531
 2877TIP3   OH2 8636   2.660   0.915   4.667  0.3587  0.1353 -0.3857
 2877TIP3    H1 8637   2.653   1.010   4.657  0.2640  0.5544  2.6303
 2877TIP3    H2 8638   2.731   0.903   4.729  0.7635 -1.8439 -1.1633
 2878TIP3   OH2 8639   5.469   0.635   4.242 -0.1793  0.4493  0.7727
 2878TIP3    H1 8640   5.379   0.667   4.253 -0.3494  0.1852  0.2085
 2878TIP3    H2 8641   5.514   0.707   4.197 -0.7290 -0.3046 -1.0861
 2879TIP3   OH2 8642   4.021   1.665   0.536 -0.0992  0.3821 -0.0445
 2879TIP3    H1 8643   4.025   1.702   0.624 -0.5751  2.2982 -0.7668
 2879TIP3    H2 8644   4.112   1.645   0.514  0.0783  0.3695  0.6845
 2880TIP3   OH2 8645   3.248   1.472   0.802  0.1041  0.4182 -0.1765
 2880TIP3    H1 8646   3.314   1.536   0.778 -0.1519  0.7202 -0.0766
 2880TIP3    H2 8647   3.200   1.512   0.874 -0.5690  0.4545 -0.6345
 2881TIP3   OH2 8648   1.398   0.606   0.342 -0.0748  0.1810  0.4350
 2881TIP3    H1 8649   1.453   0.646   0.409 -0.9176 -0.7247  1.7233
 2881TIP3    H2 8650   1.412   0.512   0.353 -1.8533 -0.0701  0.8225
 2882TIP3   OH2 8651   2.549   2.820   3.081 -0.7426  0.0392  0.8379
 2882TIP3    H1 8652   2.466   2.869   3.082 -0.6094  0.4535 -1.7068
 2882TIP3    H2 8653   2.617   2.887   3.078 -0.3333 -0.3116  1.7741
 2883TIP3   OH2 8654   6.119   4.024   4.992  0.1342 -0.1392 -0.1323
 2883TIP3    H1 8655   6.078   4.108   5.016 -0.7253 -1.1664  2.3850
 2883TIP3    H2 8656   6.209   4.047   4.970 -0.3501  1.5592 -0.5365
 2884TIP3   OH2 8657   3.654   4.836   2.242 -0.1048 -0.5064  0.6707
 2884TIP3    H1 8658   3.657   4.799   2.330 -0.1243 -1.4531  0.2859
 2884TIP3    H2 8659   3.649   4.760   2.184 -1.4093  0.1304 -0.0941
 2885TIP3   OH2 8660   2.623   3.679   2.940  0.1421 -0.6687  0.2613
 2885TIP3    H1 8661   2.649   3.608   2.998  2.2615 -1.1448 -1.1625
 2885TIP3    H2 8662   2.585   3.636   2.863 -0.2317 -0.1555  0.1457
 2886TIP3   OH2 8663   2.323   1.257   4.328 -0.7814  0.0437  0.4911
 2886TIP3    H1 8664   2.385   1.199   4.371 -0.4593 -1.0681 -1.3687
 2886TIP3    H2 8665   2.325   1.338   4.379  1.0299 -0.5221  1.3600
 2887TIP3   OH2 8666   1.440   3.723   3.378  0.1281  0.4065  0.0816
 2887TIP3    H1 8667   1.496   3.774   3.320 -0.6949  0.2477 -0.8622
 2887TIP3    H2 8668   1.495   3.650   3.406  0.3533  0.1688 -0.9493
 2888TIP3   OH2 8669   4.434   4.862   4.608  0.7244  1.1687  0.1044
 2888TIP3    H1 8670   4.351   4.838   4.567  2.4856 -1.8959 -2.1181
 2888TIP3    H2 8671   4.487   4.896   4.536  2.0649  1.1715  1.0508
 2889TIP3   OH2 8672   2.830   1.127   0.712 -0.6381  0.2014  0.0044
 2889TIP3    H1 8673   2.904   1.183   0.734  0.8094 -1.6248 -0.0755
 2889TIP3    H2 8674   2.847   1.098   0.622 -1.0452 -0.8461  0.2525
 2890TIP3   OH2 8675   5.285   5.946   2.038  0.6450 -0.2365  0.0532
 2890TIP3    H1 8676   5.317   6.023   2.086  1.0098 -1.5509  2.0434
 2890TIP3    H2 8677   5.363   5.891   2.027 -0.2021 -1.9958  2.0606
 2891TIP3   OH2 8678   1.434   2.288   3.381 -0.1669 -0.0327 -0.2282
 2891TIP3    H1 8679   1.393   2.236   3.451 -0.5757  2.2218  1.3400
 2891TIP3    H2 8680   1.396   2.375   3.392 -0.0302  0.4880 -3.1562
 2892TIP3   OH2 8681   2.624   2.346   4.779  0.4619  0.3658 -0.8647
 2892TIP3    H1 8682   2.676   2.281   4.732  1.1998  0.0546  0.3246
 2892TIP3    H2 8683   2.624   2.314   4.870 -3.1958 -0.5477 -1.0346
 2893TIP3   OH2 8684   2.585   4.407   4.712 -0.5252  0.4250 -0.7131
 2893TIP3    H1 8685   2.666   4.458   4.721  0.1867 -0.9040  0.8304
 2893TIP3    H2 8686   2.614   4.320   4.684 -1.0739 -0.8369  2.2692
 2894TIP3   OH2 8687   3.993   5.822   1.889 -0.2938 -0.4599  0.5201
 2894TIP3    H1 8688   3.950   5.907   1.897 -1.0653 -0.7471 -0.2855
 2894TIP3    H2 8689   4.052   5.817   1.964  0.6791  1.2809 -0.0706
 2895TIP3   OH2 8690   4.261   3.916   0.940  0.1983  0.2854 -0.1256
 2895TIP3    H1 8691   4.190   3.972   0.909  0.5947  0.2364 -1.1747
 2895TIP3    H2 8692   4.225   3.871   1.016 -0.6206  0.8599 -0.1608
 2896TIP3   OH2 8693   2.895   4.327   3.532 -0.0349  0.6416 -0.0219
 2896TIP3    H1 8694   2.953   4.257   3.564 -0.2882 -0.4464 -1.7962
 2896TIP3    H2 8695   2.909   4.399   3.593  1.5570 -0.3522  0.8690
 2897TIP3   OH2 8696   0.486   2.601   0.708 -0.4266 -0.0909 -0.6264
 2897TIP3    H1 8697   0.504   2.541   0.635  1.9918  0.2140 -0.3579
 2897TIP3    H2 8698   0.526   2.558   0.784 -0.3167  0.9828 -0.0657
 2898TIP3   OH2 8699   1.083   0.675   2.072  0.0439  0.0515  0.0988
 2898TIP3    H1 8700   1.147   0.608   2.096 -0.1310 -0.5222 -0.9784
 2898TIP3    H2 8701   1.068   0.662   1.978 -1.1599  0.5882  0.1962
 2899TIP3   OH2 8702   0.493   0.497   3.131  0.2644  0.3166  0.4041
 2899TIP3    H1 8703   0.493   0.413   3.176 -1.1264  0.0789 -0.0111
 2899TIP3    H2 8704   0.484   0.475   3.038 -0.7906  0.9363  0.3456
 2900TIP3   OH2 8705   2.932   3.447   3.063  0.6755  0.3676 -0.8536
 2900TIP3    H1 8706   2.941   3.406   3.149  0.7494  0.5723 -0.7634
 2900TIP3    H2 8707   2.890   3.531   3.081  0.6413  0.3865 -1.0238
 2901TIP3   OH2 8708   6.071   1.545   3.367  0.3788 -0.4148  0.7660
 2901TIP3    H1 8709   6.072   1.565   3.461 -2.2410  1.8273  0.4477
 2901TIP3    H2 8710   5.981   1.516   3.350  0.0849  1.4617 -1.3711
 2902TIP3   OH2 8711   6.379   1.223   0.725  0.4664 -0.3686 -0.0063
 2902TIP3    H1 8712   6.298   1.273   0.709  1.6164  1.6112  0.0501
 2902TIP3    H2 8713   6.365   1.183   0.810 -0.9922 -1.2156 -0.6004
 2903TIP3   OH2 8714   0.704   3.556   2.407 -0.0848 -0.1129  0.0492
 2903TIP3    H1 8715   0.657   3.503   2.472 -0.1484  2.3140  2.1428
 2903TIP3    H2 8716   0.762   3.611   2.460  0.5039  1.3739 -2.0458
 2904TIP3   OH2 8717   1.035   3.813   2.248 -0.4263  0.6278 -0.2234
 2904TIP3    H1 8718   1.085   3.870   2.190  0.1183 -0.4694 -0.8795
 2904TIP3    H2 8719   1.039   3.856   2.333  0.0549  1.5079 -0.6771
 2905TIP3   OH2 8720   3.458   1.706   3.819  0.6854  0.2982 -0.5005
 2905TIP3    H1 8721   3.453   1.770   3.748  1.3439  0.1107 -0.7181
 2905TIP3    H2 8722   3.432   1.755   3.897 -0.0478  0.5034 -0.8684
 2906TIP3   OH2 8723   6.187   2.283   1.745  0.2062  0.0977  0.1956
 2906TIP3    H1 8724   6.148   2.197   1.735  1.0215 -0.1523 -1.0489
 2906TIP3    H2 8725   6.131   2.341   1.692  1.7741 -0.3768 -2.1546
 2907TIP3   OH2 8726   1.753   4.733   1.408 -0.0233 -0.4426 -0.0310
 2907TIP3    H1 8727   1.816   4.804   1.395  0.1887 -0.4618  0.8166
 2907TIP3    H2 8728   1.672   4.766   1.368  0.0166  0.3667  0.5190
 2908TIP3   OH2 8729   1.458   5.246   4.167 -0.1322 -0.2110  0.3678
 2908TIP3    H1 8730   1.516   5.319   4.188 -0.4896 -0.0689  0.8741
 2908TIP3    H2 8731   1.376   5.267   4.211 -0.4606 -0.5808 -0.0551
 2909TIP3   OH2 8732   4.685   2.427   0.412  0.0182  0.1027 -0.1246
 2909TIP3    H1 8733   4.737   2.384   0.481 -0.9149 -0.0954  0.4689
 2909TIP3    H2 8734   4.689   2.520   0.434 -0.6942 -0.0035  0.5112
 2910TIP3   OH2 8735   5.038   3.749   0.976 -0.0282 -0.1724  0.2730
 2910TIP3    H1 8736   5.132   3.757   0.994  0.1175 -0.9745 -0.0868
 2910TIP3    H2 8737   5.023   3.807   0.902 -0.0152  0.7171  0.9520
 2911TIP3   OH2 8738   4.785   4.407   2.923  0.2314 -0.1755  0.0823
 2911TIP3    H1 8739   4.839   4.452   2.988  0.6506 -0.8177  0.1804
 2911TIP3    H2 8740   4.725   4.353   2.975 -0.5207  0.5265 -0.0233
 2912TIP3   OH2 8741   0.701   3.698   2.810  0.1836  0.1222 -0.6287
 2912TIP3    H1 8742   0.621   3.748   2.793  0.0970  0.9433  1.7131
 2912TIP3    H2 8743   0.681   3.609   2.781 -0.8959  0.7190 -1.7889
 2913TIP3   OH2 8744   5.212   5.145   0.100 -0.1368  0.0383 -0.4139
 2913TIP3    H1 8745   5.302   5.176   0.109 -0.6393  1.0557  1.7309
 2913TIP3    H2 8746   5.200   5.084   0.173 -1.4784  0.7263 -0.0254
 2914TIP3   OH2 8747   1.193   1.267   2.757 -0.2468 -0.7689  0.4289
 2914TIP3    H1 8748   1.229   1.190   2.713 -0.1641  0.8017 -2.4979
 2914TIP3    H2 8749   1.116   1.235   2.803 -1.2842 -2.3582 -2.2036
 2915TIP3   OH2 8750   5.166   2.454   3.337 -0.4632  0.0510 -0.3598
 2915TIP3    H1 8751   5.225   2.521   3.372 -0.8681 -0.2526  0.9596
 2915TIP3    H2 8752   5.124   2.495   3.261  0.1705  0.8631 -0.2807
 2916TIP3   OH2 8753   1.579   5.169   3.787 -0.5171  0.0633 -0.4313
 2916TIP3    H1 8754   1.580   5.185   3.693 -3.2141  1.4294 -0.3277
 2916TIP3    H2 8755   1.666   5.197   3.817 -0.3912  1.8040 -2.2091
 2917TIP3   OH2 8756   3.260   4.337   4.369  0.6411  0.1131  0.6096
 2917TIP3    H1 8757   3.340   4.286   4.379  0.3284 -0.9737 -1.8267
 2917TIP3    H2 8758   3.189   4.273   4.365  0.1829  0.6633 -1.9809
 2918TIP3   OH2 8759   2.882   5.074   2.708  0.6075  0.1039 -0.1139
 2918TIP3    H1 8760   2.958   5.036   2.663  0.3614  0.3810 -0.7757
 2918TIP3    H2 8761   2.813   5.075   2.642  0.0011 -0.1984  0.5004
 2919TIP3   OH2 8762   5.994   4.390   0.733  0.3003 -0.1659 -0.1340
 2919TIP3    H1 8763   6.009   4.353   0.820  1.8386  0.6398 -0.0250
 2919TIP3    H2 8764   6.012   4.483   0.743 -0.3425  0.0778 -1.1393
 2920TIP3   OH2 8765   1.807   2.692   2.920  0.0725 -0.1962  0.2122
 2920TIP3    H1 8766   1.876   2.691   2.986  1.4364  0.4216 -1.1545
 2920TIP3    H2 8767   1.768   2.605   2.924 -0.9043  0.2551  2.8134
 2921TIP3   OH2 8768   5.901   5.643   3.654  0.0142  0.5487 -0.2668
 2921TIP3    H1 8769   5.968   5.700   3.616  1.0817 -0.1888  0.4649
 2921TIP3    H2 8770   5.819   5.690   3.639  0.8354  2.2208  0.1690
 2922TIP3   OH2 8771   5.596   4.949   3.093 -0.1916  0.2712 -0.4148
 2922TIP3    H1 8772   5.661   4.903   3.145  0.1822 -0.9297 -1.8907
 2922TIP3    H2 8773   5.641   5.027   3.061  0.2812 -0.1534 -0.7874
 2923TIP3   OH2 8774   5.833   4.814   3.175 -0.5216 -0.1512 -0.3673
 2923TIP3    H1 8775   5.909   4.861   3.142 -0.7739 -0.5429 -1.5878
 2923TIP3    H2 8776   5.823   4.740   3.115  0.4402 -2.3741  2.0085
 2924TIP3   OH2 8777   5.138   1.147   0.920  0.7230  0.2035  0.5047
 2924TIP3    H1 8778   5.176   1.102   0.995  1.3881 -1.1298 -0.6024
 2924TIP3    H2 8779   5.108   1.077   0.862 -0.5732  1.2113 -0.0905
 2925TIP3   OH2 8780   6.187   5.291   3.099  0.0949  0.1379 -0.1660
 2925TIP3    H1 8781   6.157   5.278   3.009  2.7130 -0.1896 -1.0843
 2925TIP3    H2 8782   6.267   5.343   3.090  1.2453 -1.1643  1.8327
 2926TIP3   OH2 8783   5.986   5.385   5.097 -0.4376  0.3147  0.3694
 2926TIP3    H1 8784   5.925   5.392   5.023 -0.2858  0.6503  0.2733
 2926TIP3    H2 8785   5.964   5.302   5.138 -1.0425  0.4870  0.4087
 2927TIP3   OH2 8786   5.061   5.821   4.793 -0.1428  0.5649 -0.6485
 2927TIP3    H1 8787   5.008   5.867   4.728  2.0897  1.0125 -2.2665
 2927TIP3    H2 8788   5.126   5.885   4.820  0.2391 -0.2769  0.4935
 2928TIP3   OH2 8789   3.452   3.653   1.366  0.1982 -0.5706  0.0479
 2928TIP3    H1 8790   3.498   3.720   1.317 -0.8791  1.3631  1.5206
 2928TIP3    H2 8791   3.496   3.571   1.343  2.2962  0.7637 -0.9590
 2929TIP3   OH2 8792   2.515   2.997   1.272  0.6302  0.0065 -0.4684
 2929TIP3    H1 8793   2.568   3.050   1.212  1.5913 -0.3518  0.0349
 2929TIP3    H2 8794   2.579   2.961   1.333 -0.3080  0.1680  0.6261
 2930TIP3   OH2 8795   0.883   5.250   1.630 -0.3469 -0.2452  0.2580
 2930TIP3    H1 8796   0.857   5.178   1.687 -2.0766  0.7553  0.7948
 2930TIP3    H2 8797   0.819   5.319   1.647  1.0806  1.3303 -0.4453
 2931TIP3   OH2 8798   1.262   1.041   3.039  0.0972  0.0079 -0.5473
 2931TIP3    H1 8799   1.331   1.068   2.978  1.7167 -1.4028  0.5539
 2931TIP3    H2 8800   1.290   0.955   3.070 -1.2261  0.2116  1.3906
 2932TIP3   OH2 8801   4.479   3.986   3.513 -0.0684 -0.0249 -0.0531
 2932TIP3    H1 8802   4.555   3.929   3.516 -0.1274 -0.1246 -0.4220
 2932TIP3    H2 8803   4.404   3.929   3.530 -0.0310  0.1341  0.6552
 2933TIP3   OH2 8804   3.285   0.055   2.529 -0.0077 -0.2189 -0.4172
 2933TIP3    H1 8805   3.351   0.074   2.462  1.0713 -0.2086  0.6082
 2933TIP3    H2 8806   3.207   0.032   2.479  1.1952 -1.8145 -1.7059
 2934TIP3   OH2 8807   4.849   2.030   0.592 -1.0729  0.3610  0.3068
 2934TIP3    H1 8808   4.834   2.121   0.614 -0.5928  0.6845 -0.6246
 2934TIP3    H2 8809   4.793   1.980   0.652 -0.2394  1.1906  1.8405
 2935TIP3   OH2 8810   1.886   5.586   1.346 -0.2172  0.3609  0.1437
 2935TIP3    H1 8811   1.977   5.558   1.341 -0.7582 -1.3993 -0.5558
 2935TIP3    H2 8812   1.888   5.680   1.326  1.2427 -0.0059 -1.6484
 2936TIP3   OH2 8813   0.658   3.103   2.074  0.5615  0.1168 -0.0589
 2936TIP3    H1 8814   0.702   3.089   1.990  0.6666  0.0772  0.0035
 2936TIP3    H2 8815   0.720   3.155   2.126  0.8354 -0.5557  0.2891
 2937TIP3   OH2 8816   3.689   5.134   4.909 -0.2538  0.4145  0.7334
 2937TIP3    H1 8817   3.628   5.145   4.982 -3.2382 -1.4192 -1.2273
 2937TIP3    H2 8818   3.690   5.220   4.866 -2.5963  0.2432  0.1466
 2938TIP3   OH2 8819   1.137   4.721   0.857 -0.3538  0.6925 -0.0655
 2938TIP3    H1 8820   1.228   4.750   0.842 -0.3896  0.2548 -1.2457
 2938TIP3    H2 8821   1.142   4.626   0.861 -0.4019  0.7381  2.6727
 2939TIP3   OH2 8822   3.682   0.372   4.082  0.2977  0.7099 -0.8880
 2939TIP3    H1 8823   3.663   0.281   4.058  1.7780  0.2417 -0.3620
 2939TIP3    H2 8824   3.643   0.383   4.168  2.5280 -0.3560  0.3445
 2940TIP3   OH2 8825   0.525   2.728   4.928 -0.2315  0.0802 -0.4605
 2940TIP3    H1 8826   0.597   2.709   4.988  0.4189  1.9908 -0.5740
 2940TIP3    H2 8827   0.475   2.798   4.971 -0.2964  0.8253 -1.6828
 2941TIP3   OH2 8828   0.717   2.681   5.121 -0.0677  0.0681  0.1522
 2941TIP3    H1 8829   0.762   2.737   5.057  1.4847 -0.2995  0.8583
 2941TIP3    H2 8830   0.683   2.742   5.186  1.2602  0.2687  0.7008
 2942TIP3   OH2 8831   1.577   0.490   0.755  0.1646  0.6609  0.0124
 2942TIP3    H1 8832   1.508   0.462   0.695  1.4285  0.8275 -1.5760
 2942TIP3    H2 8833   1.537   0.483   0.842 -0.9749 -1.8612 -0.6186
 2943TIP3   OH2 8834   1.635   0.650   1.528  0.1681 -0.4431 -0.4507
 2943TIP3    H1 8835   1.672   0.575   1.575 -0.8863 -0.2933  0.6917
 2943TIP3    H2 8836   1.652   0.725   1.585  0.0485 -0.0309 -0.9495
 2944TIP3   OH2 8837   0.408   2.654   3.119 -0.3491 -0.9833 -0.7551
 2944TIP3    H1 8838   0.360   2.734   3.142  0.9335  0.0210 -1.4309
 2944TIP3    H2 8839   0.342   2.584   3.123 -1.4694  0.0709  0.0029
 2945TIP3   OH2 8840   3.158   0.789   3.014 -0.6922 -0.4976  0.1377
 2945TIP3    H1 8841   3.122   0.705   2.984 -1.2823  0.1237 -0.9429
 2945TIP3    H2 8842   3.238   0.800   2.963 -0.0650 -0.8893  1.0302
 2946TIP3   OH2 8843   0.310   2.907   2.481  0.3544  0.4582 -0.1586
 2946TIP3    H1 8844   0.399   2.915   2.517 -0.5519 -0.1338  2.4574
 2946TIP3    H2 8845   0.267   2.989   2.504 -0.2672  0.0561  0.1454
 2947TIP3   OH2 8846   1.385   0.078   2.808  0.1058 -0.2431  0.4741
 2947TIP3    H1 8847   1.379   0.051   2.716  0.2592 -1.3443  0.7698
 2947TIP3    H2 8848   1.445   0.015   2.847 -1.0820 -0.6885  1.6482
 2948TIP3   OH2 8849   3.346   1.519   2.377 -0.1992  0.4091  0.0962
 2948TIP3    H1 8850   3.264   1.491   2.335 -1.1584  0.3875  1.9075
 2948TIP3    H2 8851   3.365   1.451   2.442  1.0878  0.5966 -0.0517
 2949TIP3   OH2 8852   2.645   0.764   2.997 -0.1929 -0.4231 -0.0760
 2949TIP3    H1 8853   2.711   0.781   3.064 -1.3248 -1.2447  1.3133
 2949TIP3    H2 8854   2.577   0.830   3.012  1.0655  1.6710 -2.7143
 2950TIP3   OH2 8855   3.744   2.735   2.563  0.4026  0.6605  0.2904
 2950TIP3    H1 8856   3.751   2.658   2.507  0.5762  0.6607  0.3088
 2950TIP3    H2 8857   3.806   2.797   2.524 -0.3456  1.1012 -0.2233
 2951TIP3   OH2 8858   3.717   3.238   4.057 -0.7395  0.2719 -0.1260
 2951TIP3    H1 8859   3.704   3.264   4.148  1.7858  1.3397  0.0325
 2951TIP3    H2 8860   3.808   3.207   4.054 -1.2844 -1.3663 -1.9656
 2952TIP3   OH2 8861   1.540   0.966   1.348 -0.1195 -0.5419 -0.0651
 2952TIP3    H1 8862   1.517   0.939   1.437  0.0865 -0.5561 -0.0148
 2952TIP3    H2 8863   1.636   0.971   1.348 -0.0743 -1.2235 -0.4764
 2953TIP3   OH2 8864   3.030   0.854   0.398 -0.0416  0.1701  0.2284
 2953TIP3    H1 8865   2.981   0.853   0.316  0.1907  0.8409  0.0816
 2953TIP3    H2 8866   3.120   0.875   0.373 -0.1275  1.2228  0.7301
 2954TIP3   OH2 8867   4.326   5.154   4.577  0.3968 -0.2866 -0.5990
 2954TIP3    H1 8868   4.240   5.165   4.535  0.5122 -1.8816 -1.3230
 2954TIP3    H2 8869   4.389   5.175   4.508  0.5808 -1.3602 -0.7783
 2955TIP3   OH2 8870   1.461   3.318   2.783 -0.6035  0.0550 -0.4421
 2955TIP3    H1 8871   1.438   3.307   2.691 -1.3158  2.3801 -0.6016
 2955TIP3    H2 8872   1.463   3.413   2.796  2.6993 -0.0813  1.1472
 2956TIP3   OH2 8873   2.234   5.848   5.141 -0.0258 -0.2422  0.0495
 2956TIP3    H1 8874   2.322   5.810   5.140  0.4515  0.7975 -1.3230
 2956TIP3    H2 8875   2.178   5.781   5.103  0.4481 -0.3508 -0.4687
 2957TIP3   OH2 8876   2.612   4.659   3.874  0.2774  0.0686 -0.6757
 2957TIP3    H1 8877   2.598   4.571   3.841 -1.2333  0.4023 -1.0218
 2957TIP3    H2 8878   2.551   4.667   3.948  0.4803  0.7768 -0.5786
 2958TIP3   OH2 8879   4.686   2.593   1.772  0.0717 -0.2086 -0.7678
 2958TIP3    H1 8880   4.680   2.561   1.682 -3.0354  0.1644 -0.7955
 2958TIP3    H2 8881   4.640   2.677   1.771 -0.4346 -0.4087  1.2425
 2959TIP3   OH2 8882   5.688   0.287   5.171  0.5347  0.1000  0.1119
 2959TIP3    H1 8883   5.635   0.210   5.193  1.2913 -0.1037  1.3120
 2959TIP3    H2 8884   5.654   0.316   5.087  0.0926 -1.4339 -0.2736
 2960TIP3   OH2 8885   0.703   4.893   3.922  0.4531  0.6428  0.3895
 2960TIP3    H1 8886   0.716   4.821   3.862 -0.0664  0.8279  0.0502
 2960TIP3    H2 8887   0.771   4.956   3.899  0.5106  0.5359  0.2679
 2961TIP3   OH2 8888   6.154   0.117   0.824 -0.3434  0.2120 -0.0664
 2961TIP3    H1 8889   6.229   0.066   0.855  0.2749  0.8407 -0.4645
 2961TIP3    H2 8890   6.120   0.159   0.902 -0.1276  0.1066  0.0871
 2962TIP3   OH2 8891   2.325   4.674   2.880 -0.1587 -0.0653  0.3171
 2962TIP3    H1 8892   2.391   4.735   2.849 -1.2387  0.4887 -0.9816
 2962TIP3    H2 8893   2.375   4.600   2.914  1.1330 -0.0284 -1.3887
 2963TIP3   OH2 8894   6.200   3.105   3.274  0.3408  0.2430  0.3047
 2963TIP3    H1 8895   6.247   3.148   3.347  0.1416 -0.0559  0.6087
 2963TIP3    H2 8896   6.207   3.012   3.292 -1.0216  0.2092  0.7595
 2964TIP3   OH2 8897   0.229   1.454   4.125  0.3611 -0.0875 -0.5591
 2964TIP3    H1 8898   0.204   1.545   4.138 -0.3591 -0.0895 -1.7385
 2964TIP3    H2 8899   0.293   1.436   4.194 -1.1438  0.6388  1.0981
 2965TIP3   OH2 8900   2.205   0.756   3.990 -0.3076 -0.3708 -0.4656
 2965TIP3    H1 8901   2.142   0.687   3.971 -0.1392  0.0285 -2.8890
 2965TIP3    H2 8902   2.152   0.836   3.993 -0.3492 -0.4333  1.1598
 2966TIP3   OH2 8903   5.582   3.383   4.487  0.4434  0.0494  0.4643
 2966TIP3    H1 8904   5.495   3.374   4.450 -0.0430 -0.6607  1.7150
 2966TIP3    H2 8905   5.623   3.297   4.474  1.0883  0.4676 -0.3943
 2967TIP3   OH2 8906   2.682   5.376   3.250 -0.1416  0.0392 -0.5412
 2967TIP3    H1 8907   2.602   5.334   3.219 -1.0930  0.4668  1.2174
 2967TIP3    H2 8908   2.752   5.318   3.221 -1.1299 -0.7087 -1.5256
 2968TIP3   OH2 8909   1.613   1.238   0.299  0.0572  0.7580 -0.5046
 2968TIP3    H1 8910   1.655   1.152   0.292  1.2304  1.3066 -0.4229
 2968TIP3    H2 8911   1.686   1.299   0.311 -0.7963  1.7074 -0.0550
 2969TIP3   OH2 8912   5.656   0.965   3.713 -0.3820 -0.4430  0.2327
 2969TIP3    H1 8913   5.593   1.028   3.679  0.3180 -0.2347 -0.7381
 2969TIP3    H2 8914   5.702   1.012   3.782  1.1590  0.6947 -1.4670
 2970TIP3   OH2 8915   0.721   0.977   2.416  0.2442  0.4346  0.2694
 2970TIP3    H1 8916   0.763   0.924   2.484 -0.3551 -1.6646 -0.8803
 2970TIP3    H2 8917   0.757   0.943   2.334 -0.3665  1.6792 -0.5455
 2971TIP3   OH2 8918   6.287   3.061   2.479  0.8122 -0.0206  0.7448
 2971TIP3    H1 8919   6.309   3.124   2.410  1.7254 -2.3591 -1.2674
 2971TIP3    H2 8920   6.212   3.013   2.443 -0.5312  0.5342  2.6849
 2972TIP3   OH2 8921   4.892   5.762   4.493 -0.0830 -0.0757  0.0470
 2972TIP3    H1 8922   4.897   5.671   4.464 -1.1114  0.3168 -1.4393
 2972TIP3    H2 8923   4.817   5.764   4.552 -0.8627  0.0429 -0.9239
 2973TIP3   OH2 8924   3.022   5.060   2.944 -0.7612 -0.4390  0.5381
 2973TIP3    H1 8925   2.962   5.012   3.001 -0.5835 -1.7868 -0.3668
 2973TIP3    H2 8926   2.979   5.058   2.858  0.2416 -0.8388  0.0330
 2974TIP3   OH2 8927   3.184   5.721   4.688 -0.6722 -0.5243 -0.0656
 2974TIP3    H1 8928   3.095   5.721   4.721 -1.0388  0.0429 -1.0153
 2974TIP3    H2 8929   3.177   5.683   4.600  0.1979 -1.5246  0.2745
 2975TIP3   OH2 8930   6.072   3.459   2.733  0.1155  0.2712 -0.7993
 2975TIP3    H1 8931   6.101   3.368   2.737  0.2364  0.3459  2.0466
 2975TIP3    H2 8932   6.001   3.459   2.668  2.2673 -1.1239 -3.3282
 2976TIP3   OH2 8933   4.898   3.674   3.486  0.0665 -0.1199 -0.6205
 2976TIP3    H1 8934   4.876   3.581   3.478 -0.9422 -0.0496  0.8945
 2976TIP3    H2 8935   4.992   3.678   3.468  0.4617 -1.7017  0.7871
 2977TIP3   OH2 8936   3.152   3.301   0.332 -0.1615 -0.2153  0.2414
 2977TIP3    H1 8937   3.158   3.339   0.244 -0.5350 -1.7397 -0.4823
 2977TIP3    H2 8938   3.129   3.210   0.317 -1.1988 -0.2892  1.9653
 2978TIP3   OH2 8939   1.417   2.595   0.836  0.1715 -0.2634  0.5179
 2978TIP3    H1 8940   1.505   2.556   0.834  0.3022  0.0143  0.7068
 2978TIP3    H2 8941   1.415   2.644   0.918  0.2286  0.6061  0.0184
 2979TIP3   OH2 8942   0.402   5.193   1.347 -0.8251  0.1247 -0.3346
 2979TIP3    H1 8943   0.323   5.242   1.323 -1.6820 -0.4582  1.1869
 2979TIP3    H2 8944   0.395   5.111   1.299 -1.3457 -0.0816  0.0893
 2980TIP3   OH2 8945   3.967   1.469   3.323 -0.0657 -0.2754  0.8926
 2980TIP3    H1 8946   3.939   1.557   3.300  0.9768 -0.0781  0.3494
 2980TIP3    H2 8947   4.033   1.481   3.391 -0.0654 -0.6523  0.9657
 2981TIP3   OH2 8948   3.336   0.484   4.325  0.1220  0.2109  0.1073
 2981TIP3    H1 8949   3.241   0.487   4.323  0.1420  0.6603 -0.9416
 2981TIP3    H2 8950   3.364   0.567   4.286  0.9493  0.4862  1.2300
 2982TIP3   OH2 8951   1.975   3.437   5.065  0.4439 -0.7360  0.0046
 2982TIP3    H1 8952   1.985   3.433   4.970 -1.6402 -0.3559 -0.2750
 2982TIP3    H2 8953   1.936   3.352   5.088  0.5356 -0.6544  0.4641
 2983TIP3   OH2 8954   1.321   5.821   0.654 -0.5569  0.0780 -0.4308
 2983TIP3    H1 8955   1.347   5.913   0.661  0.9421 -0.3913  0.6796
 2983TIP3    H2 8956   1.274   5.803   0.734 -0.3090 -0.2767 -0.3630
 2984TIP3   OH2 8957   2.141   2.920   3.964  0.2144  0.1236 -0.8770
 2984TIP3    H1 8958   2.069   2.857   3.958  0.3164 -0.2863  1.2739
 2984TIP3    H2 8959   2.099   3.004   3.983  0.2021 -0.5875  3.4056
 2985TIP3   OH2 8960   0.218   1.533   3.187 -0.2731  0.4086  0.1984
 2985TIP3    H1 8961   0.226   1.597   3.116 -0.5859 -0.8129 -0.9841
 2985TIP3    H2 8962   0.308   1.510   3.209 -0.1259  1.8851  1.2604
 2986TIP3   OH2 8963   4.090   1.449   2.587  0.7682 -0.4186  0.7354
 2986TIP3    H1 8964   4.038   1.485   2.659  1.0782 -0.9386  1.2311
 2986TIP3    H2 8965   4.061   1.359   2.579 -0.4570  0.0982 -0.9322
 2987TIP3   OH2 8966   2.788   1.650   1.819 -0.2658  0.1910  0.4571
 2987TIP3    H1 8967   2.822   1.641   1.908  2.6262  1.1970 -0.4387
 2987TIP3    H2 8968   2.841   1.590   1.767 -0.4978  1.1202 -0.9008
 2988TIP3   OH2 8969   2.912   4.090   3.166  0.1924  0.2096 -0.5172
 2988TIP3    H1 8970   2.990   4.085   3.222  0.3643 -0.3209 -0.7969
 2988TIP3    H2 8971   2.947   4.087   3.077 -0.0830  1.0180 -0.6578
 2989TIP3   OH2 8972   1.407   1.353   4.367 -0.1288  0.1918  0.4529
 2989TIP3    H1 8973   1.451   1.377   4.449 -0.1051 -1.0127  0.8237
 2989TIP3    H2 8974   1.466   1.382   4.298  1.9067 -2.3532  0.9386
 2990TIP3   OH2 8975   5.537   1.457   0.780  0.0480  0.2051  0.4084
 2990TIP3    H1 8976   5.618   1.500   0.806 -0.7156  1.3114  1.0353
 2990TIP3    H2 8977   5.472   1.487   0.844 -1.0557  0.0408 -0.6089
 2991TIP3   OH2 8978   2.334   5.457   0.624  0.2235 -0.3142 -0.9559
 2991TIP3    H1 8979   2.357   5.364   0.636 -0.6748 -0.3973  0.3712
 2991TIP3    H2 8980   2.388   5.503   0.689 -0.5574 -0.1031 -0.4457
 2992TIP3   OH2 8981   1.025   4.453   0.971  0.4459 -0.0277 -0.2256
 2992TIP3    H1 8982   1.027   4.523   1.037  0.0871 -0.0003 -0.2446
 2992TIP3    H2 8983   0.934   4.448   0.943  0.4994 -0.3942 -0.3432
 2993TIP3   OH2 8984   6.109   5.222   4.614 -0.2000 -0.4105 -0.1567
 2993TIP3    H1 8985   6.121   5.144   4.561  0.8925 -0.1105 -0.3786
 2993TIP3    H2 8986   6.095   5.189   4.703 -0.7351 -0.8801 -0.4136
 2994TIP3   OH2 8987   3.792   2.199   4.778  0.4841 -0.1171 -0.1336
 2994TIP3    H1 8988   3.781   2.288   4.745 -0.3315 -0.1269  0.1015
 2994TIP3    H2 8989   3.885   2.180   4.765  0.7461  0.9099  0.1723
 2995TIP3   OH2 8990   2.479   2.473   3.951 -0.1206 -0.1670 -0.3986
 2995TIP3    H1 8991   2.530   2.547   3.915  1.6709  0.1109  2.4373
 2995TIP3    H2 8992   2.424   2.512   4.018  1.0300 -1.3700  1.3201
 2996TIP3   OH2 8993   4.252   4.439   1.778 -0.6694 -0.4451  0.0667
 2996TIP3    H1 8994   4.316   4.370   1.796 -1.0999 -1.4383 -1.8590
 2996TIP3    H2 8995   4.296   4.497   1.715 -1.2190 -0.4767 -0.3623
 2997TIP3   OH2 8996   4.893   0.524   4.169 -0.0044  0.4846 -0.0131
 2997TIP3    H1 8997   4.862   0.524   4.260  1.7882  0.3979  0.6533
 2997TIP3    H2 8998   4.821   0.487   4.119 -0.4992 -0.8946  1.5966
 2998TIP3   OH2 8999   2.742   4.730   4.138 -1.0559 -0.1446  0.2041
 2998TIP3    H1 9000   2.798   4.739   4.061 -1.1639 -0.5331  0.0778
 2998TIP3    H2 9001   2.801   4.696   4.206 -1.2327 -0.9819 -0.0539
 2999TIP3   OH2 9002   1.084   5.088   2.257  0.1715 -0.1896  0.4389
 2999TIP3    H1 9003   1.103   5.146   2.183 -1.2272 -1.2318 -0.7708
 2999TIP3    H2 9004   1.143   5.014   2.246 -1.4489 -1.3337 -0.8418
 3000TIP3   OH2 9005   2.684   3.214   0.730  0.0123  0.1145 -0.0965
 3000TIP3    H1 9006   2.720   3.126   0.746 -2.2370 -1.0056 -0.7008
 3000TIP3    H2 9007   2.754   3.274   0.755  0.9119 -1.7863  2.3551
 3001TIP3   OH2 9008   1.421   3.911   0.376  0.7046  0.1329 -0.2560
 3001TIP3    H1 9009   1.469   3.894   0.457  0.7255 -0.9246 -0.4743
 3001TIP3    H2 9010   1.446   3.838   0.319  0.2588  0.5745 -1.0143
 3002TIP3   OH2 9011   3.220   1.856   0.657  0.1720  0.5898  0.5726
 3002TIP3    H1 9012   3.141   1.839   0.607  0.3417 -0.0732  0.5209
 3002TIP3    H2 9013   3.261   1.931   0.613 -0.5336  1.0800  0.7400
 3003TIP3   OH2 9014   4.762   0.510   0.519 -0.8997 -0.0511 -0.2251
 3003TIP3    H1 9015   4.826   0.458   0.472 -0.6777  0.4445 -0.4706
 3003TIP3    H2 9016   4.681   0.459   0.513 -0.3838 -1.0272  0.6945
 3004TIP3   OH2 9017   0.582   2.997   1.738 -0.0141 -0.1494  0.2056
 3004TIP3    H1 9018   0.562   2.977   1.646  1.4067 -0.9572  0.0300
 3004TIP3    H2 9019   0.535   3.078   1.756 -1.4494 -0.6983 -0.8075
 3005TIP3   OH2 9020   1.291   0.706   3.376 -0.0418  0.0552 -0.0328
 3005TIP3    H1 9021   1.359   0.639   3.374  0.3811  0.4572  0.5057
 3005TIP3    H2 9022   1.255   0.699   3.465 -1.6509 -1.0775 -0.7221
 3006TIP3   OH2 9023   0.132   3.969   1.434  0.3206 -0.6649  0.7265
 3006TIP3    H1 9024   0.095   3.919   1.361 -0.5903 -0.7774  1.2482
 3006TIP3    H2 9025   0.183   4.038   1.392 -1.2090  0.0396 -0.0646
 3007TIP3   OH2 9026   0.347   4.343   1.059  0.3646  0.3305 -0.5900
 3007TIP3    H1 9027   0.356   4.427   1.103  2.6413  0.1842 -0.6465
 3007TIP3    H2 9028   0.410   4.347   0.987  0.1537 -1.2377 -0.8934
 3008TIP3   OH2 9029   2.105   3.208   4.387 -0.5549 -0.3900  0.1517
 3008TIP3    H1 9030   2.087   3.278   4.449  0.1496 -0.0445 -0.0252
 3008TIP3    H2 9031   2.190   3.230   4.349 -1.3148 -0.1621 -1.5173
 3009TIP3   OH2 9032   5.207   5.109   3.993  0.3155 -0.5205 -0.1904
 3009TIP3    H1 9033   5.247   5.171   3.932  0.7650 -0.9667 -0.3534
 3009TIP3    H2 9034   5.125   5.151   4.019  0.0039 -0.4252 -1.2759
 3010TIP3   OH2 9035   4.621   5.974   3.721  0.0298 -0.0740  0.0359
 3010TIP3    H1 9036   4.545   5.957   3.665  0.4659 -0.0375 -0.5756
 3010TIP3    H2 9037   4.584   5.983   3.808 -0.5406 -1.3927 -0.0345
 3011TIP3   OH2 9038   3.820   3.542   0.859 -0.1940  0.7012 -0.3334
 3011TIP3    H1 9039   3.849   3.614   0.915 -1.9888  0.9296  0.3645
 3011TIP3    H2 9040   3.882   3.541   0.786  1.6127  1.0337  1.1325
 3012TIP3   OH2 9041   5.893   0.585   2.149  0.4149  0.5436 -0.2994
 3012TIP3    H1 9042   5.941   0.659   2.111 -0.7341  1.0101 -0.9263
 3012TIP3    H2 9043   5.819   0.573   2.089  1.0150 -1.6591 -0.6699
 3013TIP3   OH2 9044   2.978   3.678   0.213 -0.1703 -0.4779  0.0450
 3013TIP3    H1 9045   2.885   3.658   0.219 -0.3463  0.5756  1.5074
 3013TIP3    H2 9046   3.005   3.691   0.304  1.4352 -0.8771 -0.3506
 3014TIP3   OH2 9047   5.023   2.992   3.412 -0.0910 -0.0863  0.1368
 3014TIP3    H1 9048   4.938   3.020   3.444  1.3718  1.2420  3.3352
 3014TIP3    H2 9049   5.058   2.936   3.481  1.6544 -0.5952 -1.0687
 3015TIP3   OH2 9050   1.066   3.274   2.455  1.0520  0.3882 -0.2110
 3015TIP3    H1 9051   1.013   3.346   2.489  1.0717  0.8235 -1.0825
 3015TIP3    H2 9052   1.095   3.227   2.533 -1.2265 -0.3181  0.3044
 3016TIP3   OH2 9053   4.235   2.814   2.635 -0.0675  0.0934 -0.2437
 3016TIP3    H1 9054   4.160   2.768   2.599 -1.2998  2.2912 -0.6584
 3016TIP3    H2 9055   4.256   2.880   2.569  2.5813 -0.7613 -0.3782
 3017TIP3   OH2 9056   5.639   2.004   1.238  0.0251 -0.0372 -0.0575
 3017TIP3    H1 9057   5.584   1.974   1.310  1.0701 -2.0864 -0.0376
 3017TIP3    H2 9058   5.585   1.995   1.160 -0.0625 -0.8873  0.1013
 3018TIP3   OH2 9059   5.553   5.092   2.235 -0.4502  0.1147 -0.2463
 3018TIP3    H1 9060   5.642   5.126   2.247 -0.7515  1.1660 -0.8736
 3018TIP3    H2 9061   5.538   5.098   2.141 -1.3113  0.2828 -0.1043
 3019TIP3   OH2 9062   2.896   1.872   4.122  0.2131  0.1945 -0.1808
 3019TIP3    H1 9063   2.857   1.790   4.092  1.6189 -1.0847  1.2587
 3019TIP3    H2 9064   2.887   1.932   4.048 -2.7593 -0.5406 -0.5418
 3020TIP3   OH2 9065   0.904   2.789   0.872  0.3604  0.6192 -0.2559
 3020TIP3    H1 9066   0.980   2.839   0.844  0.0534  0.8805 -0.6316
 3020TIP3    H2 9067   0.843   2.855   0.905  0.5729  0.3518  0.7083
 3021TIP3   OH2 9068   4.222   2.387   0.759  0.0455  0.0344  0.0723
 3021TIP3    H1 9069   4.245   2.349   0.843  2.1005 -1.5686 -1.1339
 3021TIP3    H2 9070   4.151   2.331   0.726 -0.6567  0.5727  0.6404
 3022TIP3   OH2 9071   1.238   1.973   1.091 -0.0415 -0.6077  0.5381
 3022TIP3    H1 9072   1.218   1.880   1.087  1.8275 -1.0059 -0.3647
 3022TIP3    H2 9073   1.171   2.014   1.036  0.5015 -1.6900 -0.9859
 3023TIP3   OH2 9074   1.895   1.810   0.470  0.0194  0.1813 -0.3198
 3023TIP3    H1 9075   1.859   1.831   0.556 -0.3045  0.0469 -0.4213
 3023TIP3    H2 9076   1.924   1.719   0.478 -0.9174 -0.1595 -0.6438
 3024TIP3   OH2 9077   6.302   0.931   5.193 -0.4948 -0.2773  0.1198
 3024TIP3    H1 9078   6.215   0.957   5.165  0.1412  0.5573 -1.2093
 3024TIP3    H2 9079   6.361   0.978   5.134  0.8871 -0.0119  1.6496
 3025TIP3   OH2 9080   3.584   3.348   0.616 -0.4152  0.8664 -0.5636
 3025TIP3    H1 9081   3.600   3.260   0.583 -0.5722 -0.1985  1.9319
 3025TIP3    H2 9082   3.494   3.367   0.591 -0.3426  0.3581 -1.2159
 3026TIP3   OH2 9083   2.082   1.666   2.573  0.2073  0.1857  0.3943
 3026TIP3    H1 9084   2.110   1.706   2.656 -0.0784  1.3214 -0.0326
 3026TIP3    H2 9085   1.987   1.662   2.579  0.1748  0.4166  0.0646
 3027TIP3   OH2 9086   0.531   4.289   0.768  0.3911  0.2537 -0.1835
 3027TIP3    H1 9087   0.471   4.363   0.761 -0.5121 -0.2152  1.7641
 3027TIP3    H2 9088   0.537   4.255   0.679 -1.5580  0.8659 -0.6126
 3028TIP3   OH2 9089   2.504   0.973   0.708 -0.2249  0.4613 -0.5590
 3028TIP3    H1 9090   2.425   0.942   0.753 -0.3980  2.1777  0.3832
 3028TIP3    H2 9091   2.576   0.949   0.767 -0.3292  1.4493 -0.0002
 3029TIP3   OH2 9092   2.082   1.059   2.103  0.3087  0.1324 -0.3221
 3029TIP3    H1 9093   2.169   1.098   2.106  0.3945 -0.0494 -0.4815
 3029TIP3    H2 9094   2.096   0.970   2.072  0.1035 -0.0128 -0.0030
 3030TIP3   OH2 9095   3.316   2.267   4.476 -0.1071 -0.5943 -0.0502
 3030TIP3    H1 9096   3.381   2.223   4.420 -2.3310 -2.0282 -1.6465
 3030TIP3    H2 9097   3.336   2.360   4.467  0.0150 -0.7990 -2.8024
 3031TIP3   OH2 9098   1.092   4.117   0.944 -0.5913  0.0990 -0.4772
 3031TIP3    H1 9099   1.157   4.079   1.003 -4.0158 -1.8350  2.4777
 3031TIP3    H2 9100   1.084   4.208   0.974 -0.7192 -0.2576  0.6364
 3032TIP3   OH2 9101   1.811   0.457   0.990 -0.2150 -0.0268  0.3685
 3032TIP3    H1 9102   1.896   0.424   1.018 -1.0241 -1.9512  0.7441
 3032TIP3    H2 9103   1.791   0.528   1.052  0.4005 -0.6623  1.3256
 3033TIP3   OH2 9104   2.272   2.563   4.954 -0.0628  0.0010 -0.3201
 3033TIP3    H1 9105   2.186   2.600   4.974 -0.1102  0.2674 -0.9932
 3033TIP3    H2 9106   2.292   2.595   4.866  0.2646 -0.8886 -0.5813
 3034TIP3   OH2 9107   0.383   5.317   4.494  0.1966 -0.1938 -0.6318
 3034TIP3    H1 9108   0.327   5.267   4.552  0.7724 -1.8056 -1.4040
 3034TIP3    H2 9109   0.329   5.390   4.465 -0.6382 -0.3072  0.5999
 3035TIP3   OH2 9110   0.536   3.589   0.464 -0.5209  0.3471  0.3390
 3035TIP3    H1 9111   0.603   3.618   0.402 -0.0714 -1.4920 -0.1080
 3035TIP3    H2 9112   0.549   3.643   0.542  0.1645  1.3803 -0.4752
 3036TIP3   OH2 9113   4.072   3.452   4.421 -0.8281  0.0460 -0.2703
 3036TIP3    H1 9114   4.026   3.526   4.461  0.5509  0.3958  0.7555
 3036TIP3    H2 9115   4.096   3.397   4.495  2.3246  1.0011 -0.4404
 3037TIP3   OH2 9116   0.098   1.402   1.295  0.2540 -0.0658  0.2362
 3037TIP3    H1 9117   0.105   1.451   1.377 -0.7706  0.2532  0.1599
 3037TIP3    H2 9118   0.165   1.440   1.238  0.6017  0.0892  0.7462
 3038TIP3   OH2 9119   1.490   2.683   1.908 -0.2707 -0.1018 -0.3639
 3038TIP3    H1 9120   1.529   2.596   1.898  3.5252  1.2937  0.5634
 3038TIP3    H2 9121   1.531   2.719   1.987 -1.7115  2.5631 -0.7045
 3039TIP3   OH2 9122   5.500   2.170   0.189  0.0563 -0.0677 -0.2232
 3039TIP3    H1 9123   5.432   2.164   0.256  0.1415 -1.0197 -0.2143
 3039TIP3    H2 9124   5.468   2.237   0.128 -1.9711 -2.0464 -1.4500
 3040TIP3   OH2 9125   2.880   4.791   3.649  0.2952  0.0024  0.1377
 3040TIP3    H1 9126   2.964   4.757   3.616 -0.3287  0.8140 -2.5434
 3040TIP3    H2 9127   2.894   4.885   3.656 -0.3648  0.1225 -0.1828
 3041TIP3   OH2 9128   4.768   5.075   1.571 -0.0453 -0.0484  0.5657
 3041TIP3    H1 9129   4.834   5.108   1.631 -0.5751  2.8578 -0.2736
 3041TIP3    H2 9130   4.698   5.141   1.573 -1.4697 -1.3936 -0.9395
 3042TIP3   OH2 9131   3.900   2.109   1.011 -0.2031  0.2619 -0.5918
 3042TIP3    H1 9132   3.826   2.092   0.952  0.0647  1.0728 -1.1795
 3042TIP3    H2 9133   3.934   2.022   1.032 -0.6820 -0.0677 -1.1580
 3043TIP3   OH2 9134   5.490   0.337   4.973 -0.1765 -0.9095 -0.5178
 3043TIP3    H1 9135   5.437   0.260   4.993 -2.6348 -0.1184 -3.3069
 3043TIP3    H2 9136   5.526   0.319   4.885  0.3060  0.5660 -0.6525
 3044TIP3   OH2 9137   3.901   2.444   2.747  0.7365 -0.3349  0.2219
 3044TIP3    H1 9138   3.944   2.493   2.817  0.1160  0.6752 -0.0838
 3044TIP3    H2 9139   3.822   2.409   2.787 -0.3661  1.4431 -0.2963
 3045TIP3   OH2 9140   3.306   3.584   4.362  0.0136 -0.2712 -0.3407
 3045TIP3    H1 9141   3.390   3.538   4.365  0.7469  1.0705  1.4692
 3045TIP3    H2 9142   3.284   3.599   4.454 -2.1212 -0.3792 -0.7835
 3046TIP3   OH2 9143   4.333   2.133   1.605 -0.1674 -0.4700  0.5144
 3046TIP3    H1 9144   4.245   2.096   1.609 -0.4117 -0.2085 -1.2679
 3046TIP3    H2 9145   4.319   2.226   1.592  0.2887 -0.6269 -1.4774
 3047TIP3   OH2 9146   3.176   1.862   2.337 -0.4530 -0.1988  0.6927
 3047TIP3    H1 9147   3.167   1.839   2.244 -0.0048  0.1084  0.5706
 3047TIP3    H2 9148   3.270   1.875   2.349 -0.5702  0.3265  1.0555
 3048TIP3   OH2 9149   0.203   0.487   2.464  0.3846 -0.1872 -0.3245
 3048TIP3    H1 9150   0.173   0.413   2.412 -2.2903  2.1841 -2.4630
 3048TIP3    H2 9151   0.124   0.521   2.505  1.6211  1.1736  1.0673
 3049TIP3   OH2 9152   0.211   1.727   4.296  0.7723 -0.0948  0.3186
 3049TIP3    H1 9153   0.160   1.689   4.367  0.8274 -1.1828 -0.2064
 3049TIP3    H2 9154   0.252   1.804   4.334  0.1229 -0.1847  1.2239
 3050TIP3   OH2 9155   0.721   5.187   3.655 -0.4162 -0.3080  0.0780
 3050TIP3    H1 9156   0.796   5.170   3.711 -0.8704 -1.9062  0.2646
 3050TIP3    H2 9157   0.708   5.104   3.607 -1.4310  0.2734 -0.6878
 3051TIP3   OH2 9158   1.719   2.847   1.754 -0.3451  0.0193 -0.4332
 3051TIP3    H1 9159   1.661   2.849   1.678 -2.6602 -1.3732  1.1766
 3051TIP3    H2 9160   1.689   2.772   1.806  2.7685 -0.6418  0.6822
 3052TIP3   OH2 9161   1.802   3.997   1.997 -0.2043  0.2806  0.5162
 3052TIP3    H1 9162   1.758   3.945   1.930 -0.2274  0.4208  0.4218
 3052TIP3    H2 9163   1.805   3.940   2.073 -0.9154  0.4189  0.6513
 3053TIP3   OH2 9164   4.874   0.271   0.377 -0.0230 -0.3461 -0.1654
 3053TIP3    H1 9165   4.784   0.260   0.346  0.4843 -0.5106 -1.6681
 3053TIP3    H2 9166   4.914   0.184   0.365  1.3260  0.5393 -3.0000
 3054TIP3   OH2 9167   3.513   0.418   2.907 -0.3396 -0.3390  0.2707
 3054TIP3    H1 9168   3.600   0.450   2.933 -1.4866  1.2956  2.3764
 3054TIP3    H2 9169   3.527   0.324   2.890  1.8018 -0.1416  0.6427
 3055TIP3   OH2 9170   1.594   0.344   3.132  0.4211  0.3733  0.2022
 3055TIP3    H1 9171   1.610   0.267   3.187 -1.9251 -0.0246  0.4342
 3055TIP3    H2 9172   1.655   0.335   3.060  0.8545 -1.2081  0.7272
 3056TIP3   OH2 9173   2.279   1.080   1.305  0.3284 -0.0220  0.3297
 3056TIP3    H1 9174   2.286   1.031   1.223  0.0292 -1.2247  0.9975
 3056TIP3    H2 9175   2.370   1.098   1.329  0.5127 -1.3352  0.6913
 3057TIP3   OH2 9176   4.758   5.426   4.801 -0.0556  0.3675 -0.2256
 3057TIP3    H1 9177   4.845   5.465   4.803  0.5931 -0.9781 -1.0924
 3057TIP3    H2 9178   4.771   5.335   4.828 -1.2612  0.2542  0.0516
 3058TIP3   OH2 9179   2.217   2.017   3.521  0.2012  0.3111  0.1855
 3058TIP3    H1 9180   2.262   2.098   3.499  0.2624  0.7243  1.7244
 3058TIP3    H2 9181   2.247   1.995   3.609 -1.3981 -0.2407  0.6336
 3059TIP3   OH2 9182   5.611   1.746   4.555  0.2733  0.0157 -0.4407
 3059TIP3    H1 9183   5.517   1.747   4.536 -0.1603 -0.9650  1.4551
 3059TIP3    H2 9184   5.617   1.745   4.650  2.1863 -1.2208 -0.5183
 3060TIP3   OH2 9185   2.035   4.699   3.347  0.3853 -0.1133 -0.2193
 3060TIP3    H1 9186   2.006   4.763   3.413 -0.7215 -0.1015 -0.6954
 3060TIP3    H2 9187   2.104   4.744   3.298  0.7545  0.1139  0.4897
 3061TIP3   OH2 9188   0.895   3.121   3.545 -0.1691 -0.2542  0.5324
 3061TIP3    H1 9189   0.864   3.208   3.570  0.9503  0.9744 -2.0072
 3061TIP3    H2 9190   0.989   3.123   3.565  0.2608 -0.0911 -1.3345
 3062TIP3   OH2 9191   2.025   4.473   0.168 -0.3305  0.2553 -0.5755
 3062TIP3    H1 9192   2.004   4.512   0.253 -0.3761 -0.8387 -0.0686
 3062TIP3    H2 9193   1.968   4.396   0.163  2.0126 -1.6235 -0.0904
 3063TIP3   OH2 9194   3.777   4.532   2.296  0.0691 -0.1418 -0.2627
 3063TIP3    H1 9195   3.783   4.540   2.391 -1.6564 -0.4184 -0.1135
 3063TIP3    H2 9196   3.827   4.452   2.276  1.1514  0.3676  0.2859
 3064TIP3   OH2 9197   3.034   1.464   0.395 -0.1316  0.2412 -0.0604
 3064TIP3    H1 9198   3.104   1.481   0.331  0.9228 -0.5323  0.8582
 3064TIP3    H2 9199   2.996   1.381   0.368 -0.5464  0.5359 -0.4076
 3065TIP3   OH2 9200   5.844   1.926   0.574  0.2274 -0.1077 -0.3022
 3065TIP3    H1 9201   5.798   1.846   0.548  1.5126 -1.1973  0.6183
 3065TIP3    H2 9202   5.916   1.895   0.629  2.2124  1.4766 -1.8620
 3066TIP3   OH2 9203   3.468   3.649   3.948 -0.5013  0.3164  0.0488
 3066TIP3    H1 9204   3.465   3.564   3.904 -0.6583 -0.9681  2.3750
 3066TIP3    H2 9205   3.382   3.688   3.931 -1.4844 -1.2404  1.1598
 3067TIP3   OH2 9206   1.808   3.161   2.459  0.0333 -1.1795 -0.3622
 3067TIP3    H1 9207   1.737   3.210   2.501  0.0256  0.8470 -2.5467
 3067TIP3    H2 9208   1.796   3.071   2.489 -0.1437  0.0043  3.5839
 3068TIP3   OH2 9209   4.445   3.076   2.711  0.4959  0.9307  0.5873
 3068TIP3    H1 9210   4.537   3.049   2.704 -0.0612 -0.8110 -0.8411
 3068TIP3    H2 9211   4.424   3.111   2.624 -0.3835  0.6943  0.6995
 3069TIP3   OH2 9212   5.365   2.156   3.129  0.0461 -0.2974  0.1282
 3069TIP3    H1 9213   5.405   2.212   3.196  0.2115  0.2422 -0.4059
 3069TIP3    H2 9214   5.436   2.136   3.068 -0.3312  0.1176 -0.4661
 3070TIP3   OH2 9215   5.008   3.362   4.699 -0.3811 -0.8236 -0.0439
 3070TIP3    H1 9216   5.006   3.294   4.768 -0.1006 -1.6036 -0.7843
 3070TIP3    H2 9217   5.023   3.313   4.618 -0.4014  0.1162 -0.6275
 3071TIP3   OH2 9218   3.087   5.319   4.675  0.2550  0.1726 -0.1970
 3071TIP3    H1 9219   3.165   5.309   4.730 -0.0072 -1.2068 -0.0450
 3071TIP3    H2 9220   3.120   5.358   4.594  0.7260  1.7234  0.6908
 3072TIP3   OH2 9221   5.330   0.350   3.450 -0.3914 -0.1199 -0.6845
 3072TIP3    H1 9222   5.252   0.295   3.457 -0.8312  0.6773  2.2870
 3072TIP3    H2 9223   5.388   0.320   3.520  0.2165  1.8099 -0.2765
 3073TIP3   OH2 9224   4.212   1.020   4.452  0.5475  0.4626  0.2806
 3073TIP3    H1 9225   4.270   0.968   4.508 -0.0845  0.5307  1.0187
 3073TIP3    H2 9226   4.137   1.041   4.508 -0.8315 -0.7294 -1.0144
 3074TIP3   OH2 9227   0.353   5.631   3.186 -0.0744  0.4027  0.3637
 3074TIP3    H1 9228   0.262   5.656   3.200 -0.6307  0.5218 -2.6855
 3074TIP3    H2 9229   0.389   5.701   3.132  0.6640 -1.4372 -1.6611
 3075TIP3   OH2 9230   3.337   2.280   3.822 -0.0852 -0.3475  0.7312
 3075TIP3    H1 9231   3.271   2.229   3.868  0.3664 -1.7076 -0.0749
 3075TIP3    H2 9232   3.315   2.271   3.729 -0.3379  1.4284  0.5769
 3076TIP3   OH2 9233   1.642   4.853   0.829  0.1392 -0.2027 -0.7334
 3076TIP3    H1 9234   1.716   4.802   0.794  1.8695  0.8759  1.1321
 3076TIP3    H2 9235   1.633   4.927   0.769  0.3203 -0.5329 -1.1771
 3077TIP3   OH2 9236   4.239   0.496   1.493  0.1470 -0.1823  0.1627
 3077TIP3    H1 9237   4.253   0.412   1.449 -2.5721  0.3802 -2.0939
 3077TIP3    H2 9238   4.225   0.473   1.585  0.7462 -2.0455 -0.1704
 3078TIP3   OH2 9239   5.282   3.907   2.900 -0.0324 -0.0938  0.1229
 3078TIP3    H1 9240   5.369   3.887   2.935  0.8157  0.0616 -1.7656
 3078TIP3    H2 9241   5.240   3.822   2.890 -0.5557 -0.1083  2.0301
 3079TIP3   OH2 9242   3.518   4.440   4.867  0.1752  0.1406 -0.1846
 3079TIP3    H1 9243   3.557   4.354   4.881 -0.2094  0.0009  0.0324
 3079TIP3    H2 9244   3.516   4.480   4.954 -0.8078 -0.1284 -0.0714
 3080TIP3   OH2 9245   2.770   3.930   2.472  0.4771 -0.3210 -0.1145
 3080TIP3    H1 9246   2.807   3.896   2.553 -0.2642 -0.5874  0.1240
 3080TIP3    H2 9247   2.759   4.024   2.487 -0.4237 -0.4944  0.4150
 3081TIP3   OH2 9248   2.002   1.206   2.360 -0.1526  0.3990  0.1878
 3081TIP3    H1 9249   1.955   1.286   2.336 -1.2421 -0.5174 -0.9390
 3081TIP3    H2 9250   2.022   1.164   2.276  0.8536 -0.2583  0.7364
 3082TIP3   OH2 9251   4.920   0.557   3.537 -0.5814  0.1098 -0.0164
 3082TIP3    H1 9252   4.925   0.478   3.590  0.7304  2.0517  3.0337
 3082TIP3    H2 9253   4.849   0.608   3.576  1.9523  2.6413  1.6611
 3083TIP3   OH2 9254   1.738   2.917   2.579 -0.0980 -0.2232  0.0056
 3083TIP3    H1 9255   1.651   2.930   2.616 -0.6618  1.1577 -1.6512
 3083TIP3    H2 9256   1.798   2.921   2.654 -1.4815 -2.3769  1.3493
 3084TIP3   OH2 9257   3.411   3.126   1.809  0.1001  0.3642 -0.7332
 3084TIP3    H1 9258   3.386   3.174   1.888  0.9164 -1.0505  0.4420
 3084TIP3    H2 9259   3.328   3.106   1.766 -0.6200 -1.2194  1.2407
 3085TIP3   OH2 9260   0.887   2.105   3.016  0.0291 -0.5495  0.3116
 3085TIP3    H1 9261   0.964   2.078   3.065  1.2988  0.8280 -0.8405
 3085TIP3    H2 9262   0.912   2.097   2.925 -0.6268  1.3940 -0.0846
 3086TIP3   OH2 9263   0.415   2.975   3.114 -0.2810  0.2480  0.4570
 3086TIP3    H1 9264   0.393   3.068   3.120 -0.9769  0.2657 -1.6162
 3086TIP3    H2 9265   0.440   2.961   3.023  1.4035 -1.2952  1.0847
 3087TIP3   OH2 9266   0.625   4.615   1.099 -0.1645 -0.5218 -0.2817
 3087TIP3    H1 9267   0.601   4.617   1.192  1.4662  2.1634  0.1845
 3087TIP3    H2 9268   0.575   4.687   1.060  1.4197  0.3159 -0.8264
 3088TIP3   OH2 9269   5.352   1.123   2.853 -0.0831 -0.1809 -0.0115
 3088TIP3    H1 9270   5.330   1.213   2.829 -1.2915 -0.5863 -0.5110
 3088TIP3    H2 9271   5.271   1.086   2.888 -1.0130 -2.4061 -3.9122
 3089TIP3   OH2 9272   2.843   5.214   2.195 -0.1162 -0.5357  0.2348
 3089TIP3    H1 9273   2.850   5.145   2.129 -0.2473 -0.3438  0.0184
 3089TIP3    H2 9274   2.903   5.282   2.164  1.1260 -1.1533  1.2057
 3090TIP3   OH2 9275   0.821   2.214   2.624 -0.6252 -0.5752 -0.2285
 3090TIP3    H1 9276   0.743   2.206   2.679 -0.9592  1.1487 -0.3789
 3090TIP3    H2 9277   0.792   2.188   2.536 -0.2859 -2.5962  0.2117
 3091TIP3   OH2 9278   0.257   3.308   4.383 -0.2942 -0.5192 -0.1801
 3091TIP3    H1 9279   0.289   3.398   4.393 -1.1375 -0.3911  1.7240
 3091TIP3    H2 9280   0.333   3.259   4.351  1.1380  0.2573  1.8056
 3092TIP3   OH2 9281   4.680   2.819   2.395  0.0038  0.2187 -0.4359
 3092TIP3    H1 9282   4.609   2.813   2.331 -0.5482 -0.5154  0.2324
 3092TIP3    H2 9283   4.743   2.753   2.366 -0.1723 -0.0029 -0.3180
 3093TIP3   OH2 9284   5.613   0.747   0.184  0.3349 -0.1925 -0.5418
 3093TIP3    H1 9285   5.701   0.731   0.218 -0.6341 -1.8468  1.4220
 3093TIP3    H2 9286   5.610   0.699   0.102  1.5420  0.6834 -1.1245
 3094TIP3   OH2 9287   6.162   1.352   1.116  0.4294  0.1438  0.5360
 3094TIP3    H1 9288   6.115   1.280   1.156 -1.4752  0.6951 -0.5750
 3094TIP3    H2 9289   6.100   1.425   1.116  1.1522  0.8362 -1.2141
 3095TIP3   OH2 9290   1.528   3.455   3.069 -0.4052 -0.4375 -0.4846
 3095TIP3    H1 9291   1.493   3.505   2.996 -0.7490  0.9855  0.6186
 3095TIP3    H2 9292   1.620   3.439   3.046 -0.4857  0.0702 -1.1749
 3096TIP3   OH2 9293   2.803   5.145   0.001 -0.0218 -0.2627  0.0510
 3096TIP3    H1 9294   2.775   5.226   0.044 -1.9582 -1.5691  1.3989
 3096TIP3    H2 9295   2.793   5.077   0.068  2.1428 -1.5938 -0.8339
 3097TIP3   OH2 9296   2.191   5.386   3.397 -0.1683 -0.5265  0.0212
 3097TIP3    H1 9297   2.276   5.389   3.442  0.9290 -1.9130 -1.7817
 3097TIP3    H2 9298   2.129   5.359   3.465  1.2764 -1.8386  0.9080
 3098TIP3   OH2 9299   6.030   2.388   3.356  0.1179 -0.0355  0.7344
 3098TIP3    H1 9300   6.125   2.380   3.367 -0.0650  0.1185  2.9162
 3098TIP3    H2 9301   5.994   2.335   3.427 -1.4699 -0.3925 -0.2790
 3099TIP3   OH2 9302   2.109   0.033   4.954  0.4602  0.3382  0.4431
 3099TIP3    H1 9303   2.080   0.056   4.866 -0.8417 -0.3804  0.6631
 3099TIP3    H2 9304   2.162  -0.045   4.942 -1.4849 -1.0490  0.4765
 3100TIP3   OH2 9305   4.255   4.460   0.037 -0.4429  0.0464 -0.8752
 3100TIP3    H1 9306   4.186   4.395   0.057 -1.3014  0.8050 -1.2896
 3100TIP3    H2 9307   4.207   4.537   0.008  0.5530  0.9977 -0.0612
 3101TIP3   OH2 9308   2.343   1.340   2.729  0.1974 -0.1606 -0.3657
 3101TIP3    H1 9309   2.395   1.266   2.700  0.9909  0.4048 -0.4131
 3101TIP3    H2 9310   2.365   1.350   2.822 -0.3756 -0.3659 -0.2057
 3102TIP3   OH2 9311   1.012   5.554   4.279  0.0493  0.2986 -0.3144
 3102TIP3    H1 9312   0.935   5.511   4.317  0.2807 -1.8259 -2.0593
 3102TIP3    H2 9313   0.977   5.610   4.210  0.0321 -1.5756 -1.9246
 3103TIP3   OH2 9314   4.583   0.173   3.320  0.6272  0.3249  0.1356
 3103TIP3    H1 9315   4.598   0.083   3.292  0.9758 -0.2630  2.0250
 3103TIP3    H2 9316   4.488   0.182   3.324  0.5809 -0.3639  1.0134
 3104TIP3   OH2 9317   4.006   1.573   4.995  0.4566 -0.2594  0.2949
 3104TIP3    H1 9318   4.013   1.646   4.934  0.3677  0.0149  0.6108
 3104TIP3    H2 9319   3.917   1.540   4.983 -0.3404  1.2015  1.8452
 3105TIP3   OH2 9320   2.709   0.307   2.281 -0.2757 -0.1022 -0.5765
 3105TIP3    H1 9321   2.772   0.305   2.353 -0.8684  0.2449 -0.0258
 3105TIP3    H2 9322   2.682   0.216   2.270  1.0277 -0.4094 -1.4841
 3106TIP3   OH2 9323   1.191   5.965   0.105  0.0082  0.3395 -0.4229
 3106TIP3    H1 9324   1.259   5.912   0.063 -1.1081 -0.4612 -1.3062
 3106TIP3    H2 9325   1.232   5.997   0.185  1.3082 -0.4013 -0.7510
 3107TIP3   OH2 9326   2.293   3.985   2.057 -0.6557 -0.3267 -0.0708
 3107TIP3    H1 9327   2.357   3.932   2.010  1.2752  1.5139  0.3087
 3107TIP3    H2 9328   2.269   3.932   2.133 -0.3877 -1.4651 -0.7516
 3108TIP3   OH2 9329   1.834   5.429   2.216 -0.0397 -0.4979 -0.1097
 3108TIP3    H1 9330   1.901   5.439   2.148 -1.0118 -0.6405 -1.1130
 3108TIP3    H2 9331   1.794   5.344   2.198  0.3360 -1.0004  1.2625
 3109TIP3   OH2 9332   0.992   0.378   2.144  0.3985 -0.5496  0.7982
 3109TIP3    H1 9333   0.978   0.434   2.221 -0.3268  0.7244 -0.2143
 3109TIP3    H2 9334   0.949   0.296   2.166  0.7325 -0.4298  1.9877
 3110TIP3   OH2 9335   2.313   1.226   1.966 -0.0777 -0.3070  0.3170
 3110TIP3    H1 9336   2.362   1.209   2.047 -0.4578 -0.7920  0.4525
 3110TIP3    H2 9337   2.370   1.194   1.896  1.1594  1.9537  0.1888
 3111TIP3   OH2 9338   5.001   1.505   3.575 -0.0235  0.3528  0.2485
 3111TIP3    H1 9339   4.942   1.482   3.646  1.2101  0.1944  1.2650
 3111TIP3    H2 9340   5.022   1.597   3.590  0.4972  0.2318  0.2992
 3112TIP3   OH2 9341   3.432   2.548   3.816 -0.0362 -0.1988  0.8941
 3112TIP3    H1 9342   3.405   2.456   3.823 -2.1976  0.1184 -1.9608
 3112TIP3    H2 9343   3.362   2.597   3.859  0.5011  0.1962  1.3302
 3113TIP3   OH2 9344   4.769   1.355   2.698  0.9346  0.2633  0.0258
 3113TIP3    H1 9345   4.693   1.400   2.735  0.5265  1.1977 -1.8556
 3113TIP3    H2 9346   4.737   1.267   2.677  0.2645  0.7452 -1.0366
 3114TIP3   OH2 9347   5.168   4.155   2.902 -0.2964 -0.7878  0.2290
 3114TIP3    H1 9348   5.122   4.159   2.986  0.5975 -1.1978  0.7514
 3114TIP3    H2 9349   5.210   4.069   2.901  1.7539  0.1525  0.4706
 3115TIP3   OH2 9350   3.559   3.837   2.392  0.1310  0.0481  0.1076
 3115TIP3    H1 9351   3.565   3.803   2.482  0.0009  0.3301  0.2254
 3115TIP3    H2 9352   3.516   3.767   2.343  0.1491 -0.0857  0.2781
 3116TIP3   OH2 9353   3.307   4.609   4.410 -0.4457  0.0524  0.1541
 3116TIP3    H1 9354   3.354   4.622   4.493 -2.1750  0.9523  1.0425
 3116TIP3    H2 9355   3.286   4.516   4.409 -0.3197  0.0123  0.6876
 3117TIP3   OH2 9356   0.496   0.065   0.247 -0.1568  0.0151 -0.3367
 3117TIP3    H1 9357   0.527  -0.002   0.309  2.2405  0.2903 -1.1255
 3117TIP3    H2 9358   0.494   0.145   0.299 -1.1241 -0.2949  0.1222
 3118TIP3   OH2 9359   1.768   3.357   0.484 -0.4646  0.0388  0.3953
 3118TIP3    H1 9360   1.836   3.365   0.417  0.4941  1.5499  1.4614
 3118TIP3    H2 9361   1.797   3.286   0.540 -0.1475  0.1718  0.4019
 3119TIP3   OH2 9362   3.481   5.072   3.511 -0.1331 -0.1399 -0.2362
 3119TIP3    H1 9363   3.556   5.012   3.515  0.5885  0.6534 -1.3928
 3119TIP3    H2 9364   3.520   5.159   3.509 -1.1554  0.3708  0.7170
 3120TIP3   OH2 9365   3.999   4.798   0.164 -0.2691 -0.3989  0.3022
 3120TIP3    H1 9366   4.066   4.818   0.229 -0.2322 -1.7896  0.7346
 3120TIP3    H2 9367   3.938   4.872   0.168  1.8835  1.6038 -1.0719
 3121TIP3   OH2 9368   6.095   3.872   1.532  0.6056 -1.1124  0.2725
 3121TIP3    H1 9369   6.048   3.811   1.590  0.4829 -2.0333 -0.7706
 3121TIP3    H2 9370   6.028   3.902   1.471  0.6586  0.1273  0.8022
 3122TIP3   OH2 9371   4.891   3.111   2.535  0.0191 -0.4240  0.2284
 3122TIP3    H1 9372   4.868   3.165   2.458  0.7793 -0.4809 -0.0462
 3122TIP3    H2 9373   4.966   3.060   2.506  1.5673  0.9427  1.6075
 3123TIP3   OH2 9374   5.939   0.526   3.994 -0.2723 -0.0218  0.0048
 3123TIP3    H1 9375   6.030   0.508   4.020  0.2199  2.3404  0.1588
 3123TIP3    H2 9376   5.896   0.441   3.997  1.5170 -0.9601  1.6429
 3124TIP3   OH2 9377   1.479   5.278   1.998 -0.7825  0.3416 -0.5606
 3124TIP3    H1 9378   1.470   5.293   2.092 -1.5760  0.7020 -0.6869
 3124TIP3    H2 9379   1.454   5.187   1.985  1.4120 -0.3680 -0.1512
 3125TIP3   OH2 9380   2.079   5.401   2.052  0.6276 -0.1007 -0.4150
 3125TIP3    H1 9381   2.118   5.319   2.020 -0.0845 -0.9111  0.7189
 3125TIP3    H2 9382   2.147   5.467   2.037  1.9841 -1.2500  0.4222
 3126TIP3   OH2 9383   5.999   2.241   4.388  0.6178 -0.1741  0.2952
 3126TIP3    H1 9384   5.998   2.146   4.393 -1.1638 -0.1221  1.9363
 3126TIP3    H2 9385   6.081   2.267   4.429  0.5573 -0.9671  0.9263
 3127TIP3   OH2 9386   4.677   2.940   1.944 -0.1308 -0.1579  0.6249
 3127TIP3    H1 9387   4.681   2.956   2.039 -1.1945  0.4430  0.5850
 3127TIP3    H2 9388   4.597   2.889   1.932  0.0371 -0.2886  0.0567
 3128TIP3   OH2 9389   1.540   1.331   3.010 -0.4358  0.4214 -0.3445
 3128TIP3    H1 9390   1.526   1.240   3.038 -2.1190  0.6205 -0.3948
 3128TIP3    H2 9391   1.455   1.358   2.976 -0.5688  2.6348  1.5014
 3129TIP3   OH2 9392   3.462   4.664   0.395  0.4287  0.6001  0.7416
 3129TIP3    H1 9393   3.552   4.690   0.375  0.8704 -0.9888  0.5580
 3129TIP3    H2 9394   3.414   4.747   0.402  1.7667  1.4459  0.2211
 3130TIP3   OH2 9395   1.114   5.410   1.084 -0.0907 -0.3608 -0.4568
 3130TIP3    H1 9396   1.033   5.360   1.076  0.7067 -1.7033 -0.3419
 3130TIP3    H2 9397   1.085   5.500   1.102 -1.5789 -0.5163 -1.8596
 3131TIP3   OH2 9398   0.878   3.710   1.944  0.2511  0.1453  0.0684
 3131TIP3    H1 9399   0.817   3.784   1.948  0.3114  0.1968  0.0312
 3131TIP3    H2 9400   0.958   3.741   1.986 -0.2575 -0.4298  1.5158
 3132TIP3   OH2 9401   2.463   1.514   0.821  0.5920  0.0590  0.0367
 3132TIP3    H1 9402   2.506   1.429   0.831 -0.0210 -0.4870 -1.6273
 3132TIP3    H2 9403   2.535   1.576   0.812  1.0407 -0.3957  0.4065
 3133TIP3   OH2 9404   1.882   3.205   1.623 -0.2505 -0.7190 -0.5723
 3133TIP3    H1 9405   1.969   3.165   1.629  0.5069  0.7097 -1.3237
 3133TIP3    H2 9406   1.897   3.287   1.575 -1.5346  0.9932  1.7561
 3134TIP3   OH2 9407   3.438   2.656   4.969 -0.0416 -0.2725  0.2166
 3134TIP3    H1 9408   3.466   2.746   4.981  0.8007 -0.4067 -0.6341
 3134TIP3    H2 9409   3.479   2.628   4.887 -1.7429 -0.8716 -0.4768
 3135TIP3   OH2 9410   2.976   5.004   4.675 -0.2851 -0.4193 -0.3103
 3135TIP3    H1 9411   2.980   4.979   4.583 -2.0051 -0.4064 -0.4262
 3135TIP3    H2 9412   2.972   4.921   4.723 -0.8379 -0.4272 -0.3592
 3136TIP3   OH2 9413   4.541   1.780   3.363  0.2270  0.0953 -0.2185
 3136TIP3    H1 9414   4.524   1.686   3.371 -0.3519  0.3426  2.1949
 3136TIP3    H2 9415   4.481   1.821   3.426  2.2384  1.8625  0.6744
 3137TIP3   OH2 9416   0.810   5.088   2.253 -0.1368  0.3752 -0.0314
 3137TIP3    H1 9417   0.805   5.129   2.339  0.6158  0.3621  0.0267
 3137TIP3    H2 9418   0.899   5.107   2.222 -0.4055  0.3965 -0.8145
 3138TIP3   OH2 9419   5.120   3.667   2.870 -0.1343 -0.1154  0.5324
 3138TIP3    H1 9420   5.029   3.693   2.856 -0.0317 -0.2681 -0.5292
 3138TIP3    H2 9421   5.121   3.631   2.959 -0.9193  0.6641  0.8767
 3139TIP3   OH2 9422   0.780   4.396   3.674 -0.2545  0.5129 -0.8371
 3139TIP3    H1 9423   0.808   4.449   3.749 -0.3180  0.7373 -0.9703
 3139TIP3    H2 9424   0.854   4.399   3.614  0.1898 -0.4812 -0.3660
 3140TIP3   OH2 9425   6.137   0.373   2.864 -0.2741 -0.1499  0.2050
 3140TIP3    H1 9426   6.072   0.443   2.852 -0.9012 -0.5028  1.3153
 3140TIP3    H2 9427   6.168   0.384   2.954  0.0981 -0.8943  0.1801
 3141TIP3   OH2 9428   0.913   1.496   2.436  0.2590 -0.5326  0.1061
 3141TIP3    H1 9429   0.914   1.401   2.449 -2.1184 -0.3419  3.1755
 3141TIP3    H2 9430   0.999   1.526   2.466  0.1483 -1.5785  1.5800
 3142TIP3   OH2 9431   6.327   0.609   4.660  0.3150  0.3973  0.1778
 3142TIP3    H1 9432   6.260   0.671   4.690 -0.1548 -0.3090  0.6042
 3142TIP3    H2 9433   6.309   0.597   4.567  0.6649  1.2119 -0.0040
 3143TIP3   OH2 9434   3.208   0.468   1.041 -0.0146  0.5536  0.2768
 3143TIP3    H1 9435   3.248   0.478   0.955 -0.9708  0.6307 -0.1674
 3143TIP3    H2 9436   3.238   0.382   1.071 -0.8912 -0.1673 -0.8140
 3144TIP3   OH2 9437   3.508   3.262   2.810 -0.0978 -0.2679  0.1557
 3144TIP3    H1 9438   3.454   3.224   2.878 -1.5221 -1.6059 -1.6326
 3144TIP3    H2 9439   3.497   3.204   2.734  2.1699  0.5986 -0.9527
 3145TIP3   OH2 9440   2.850   4.692   2.409  0.3371 -0.4367  0.1751
 3145TIP3    H1 9441   2.908   4.672   2.336 -0.7973  1.0918 -1.2261
 3145TIP3    H2 9442   2.856   4.786   2.419 -1.6062 -0.2711  0.1906
 3146TIP3   OH2 9443   4.023   1.218   4.027 -0.0990  0.0407 -0.0209
 3146TIP3    H1 9444   4.118   1.205   4.036  0.1573  1.5612 -0.3387
 3146TIP3    H2 9445   4.012   1.312   4.020 -1.5602 -0.1728 -1.0271
 3147TIP3   OH2 9446   5.972   5.728   3.315 -0.7929  0.0593 -0.5416
 3147TIP3    H1 9447   6.062   5.756   3.327 -0.2452 -1.3196 -1.1279
 3147TIP3    H2 9448   5.919   5.805   3.335  0.4994  0.8297  0.0184
 3148TIP3   OH2 9449   5.503   4.153   1.413 -0.5329 -0.1682  1.0856
 3148TIP3    H1 9450   5.528   4.244   1.395 -0.5866 -0.4003 -0.3147
 3148TIP3    H2 9451   5.493   4.149   1.508  0.8213  0.9391  1.3059
 3149TIP3   OH2 9452   4.397   4.132   1.505  0.0040 -0.5273  0.2612
 3149TIP3    H1 9453   4.325   4.092   1.553 -0.8666 -0.6624 -1.1040
 3149TIP3    H2 9454   4.362   4.214   1.471  0.4975 -0.5610 -0.3596
 3150TIP3   OH2 9455   0.229   2.137   0.575  0.1130  0.0569 -0.4179
 3150TIP3    H1 9456   0.294   2.114   0.641  0.2258 -2.7594 -1.3772
 3150TIP3    H2 9457   0.272   2.116   0.492 -1.4856 -0.4583 -1.1414
 3151TIP3   OH2 9458   1.560   1.046   3.131 -0.0813 -0.2449 -0.0884
 3151TIP3    H1 9459   1.549   0.961   3.175 -1.7050  0.0314  0.1268
 3151TIP3    H2 9460   1.625   1.092   3.184  1.0672 -1.4578 -0.3941
 3152TIP3   OH2 9461   1.192   0.788   4.952  0.2686  0.0973 -0.1082
 3152TIP3    H1 9462   1.274   0.831   4.929  0.1771  0.4487  0.2126
 3152TIP3    H2 9463   1.208   0.748   5.038  0.2557 -0.2553 -0.2647
 3153TIP3   OH2 9464   4.532   3.339   0.941  0.4003 -0.4890 -0.4850
 3153TIP3    H1 9465   4.529   3.339   0.846 -0.5881 -0.4146 -0.4638
 3153TIP3    H2 9466   4.559   3.250   0.964  2.1303 -0.0839 -0.8520
 3154TIP3   OH2 9467   4.183   2.990   3.264 -0.1597 -0.2669 -0.4627
 3154TIP3    H1 9468   4.116   3.005   3.197 -1.5879 -3.1774  0.1840
 3154TIP3    H2 9469   4.258   2.956   3.215  1.1697  3.2987 -1.2324
 3155TIP3   OH2 9470   5.070   5.362   0.410  0.2999  0.7608 -0.8384
 3155TIP3    H1 9471   5.142   5.299   0.409 -0.8161 -0.5528 -1.4210
 3155TIP3    H2 9472   5.084   5.413   0.490  0.1897 -1.5091  0.7360
 3156TIP3   OH2 9473   5.672   2.857   5.206  0.2667 -0.3920  1.0235
 3156TIP3    H1 9474   5.635   2.848   5.118 -1.1567 -0.7699  1.6412
 3156TIP3    H2 9475   5.756   2.901   5.192 -0.2415  0.1619 -0.4537
 3157TIP3   OH2 9476   4.239   3.059   1.718  0.1286  0.0568  0.6696
 3157TIP3    H1 9477   4.288   3.052   1.636  3.0567  1.9201  2.1020
 3157TIP3    H2 9478   4.243   2.972   1.757 -4.0822 -1.8382 -2.3894
 3158TIP3   OH2 9479   2.100   4.784   2.997 -0.3078 -0.5850  0.3321
 3158TIP3    H1 9480   2.191   4.758   2.980 -0.8078 -0.7448 -2.6098
 3158TIP3    H2 9481   2.049   4.704   2.981 -1.2517  0.4012 -2.0830
 3159TIP3   OH2 9482   2.334   4.080   4.017  0.2973 -0.2431 -0.3306
 3159TIP3    H1 9483   2.240   4.078   4.030  0.5532 -1.0225  1.7578
 3159TIP3    H2 9484   2.358   4.172   4.025 -0.1591 -0.1701  0.2693
 3160TIP3   OH2 9485   1.434   5.058   5.024  0.2392  0.1344  0.1241
 3160TIP3    H1 9486   1.427   5.042   5.118 -1.2338  0.2899  0.0640
 3160TIP3    H2 9487   1.439   4.971   4.985  0.3734  0.0597  0.3054
 3161TIP3   OH2 9488   1.432   1.231   4.732 -0.8448 -0.2262  0.4610
 3161TIP3    H1 9489   1.408   1.189   4.814  0.7640 -1.8002  0.2182
 3161TIP3    H2 9490   1.496   1.170   4.693 -1.3493  0.6083 -1.8067
 3162TIP3   OH2 9491   1.100   2.207   3.565  0.6690 -0.1342  0.0853
 3162TIP3    H1 9492   1.136   2.248   3.643  0.0108  0.2919  0.1683
 3162TIP3    H2 9493   1.154   2.128   3.552  2.3882  1.0547 -0.4439
 3163TIP3   OH2 9494   1.989   5.512   3.157 -0.3570 -0.5599  0.3166
 3163TIP3    H1 9495   2.017   5.428   3.121  1.8514 -1.8831  4.4574
 3163TIP3    H2 9496   2.030   5.577   3.101  1.9712 -2.3682 -0.2444
 3164TIP3   OH2 9497   3.030   3.116   3.454  0.5013  0.0533 -0.1540
 3164TIP3    H1 9498   2.990   3.098   3.539  0.0215 -0.7396 -0.5369
 3164TIP3    H2 9499   3.123   3.098   3.466  0.2494 -1.2934 -0.1233
 3165TIP3   OH2 9500   2.503   2.258   2.724 -0.2843  0.1714 -0.1766
 3165TIP3    H1 9501   2.467   2.297   2.644  0.5635  1.3666  0.0048
 3165TIP3    H2 9502   2.598   2.271   2.717 -0.0979 -0.6684  0.5391
 3166TIP3   OH2 9503   1.271   2.975   3.386  0.1547  0.3388  0.0516
 3166TIP3    H1 9504   1.256   3.015   3.300 -1.6807 -0.2610  0.0564
 3166TIP3    H2 9505   1.275   2.881   3.368  1.7671  0.3198  0.3878
 3167TIP3   OH2 9506   2.522   0.855   0.031  0.1559  0.3950  0.7540
 3167TIP3    H1 9507   2.606   0.847   0.077 -0.1963  0.6044  1.4491
 3167TIP3    H2 9508   2.476   0.774   0.052  0.5498 -0.1709 -0.4290
 3168TIP3   OH2 9509   5.608   5.085   3.395 -0.0505 -0.1528 -0.3424
 3168TIP3    H1 9510   5.586   4.992   3.402 -0.8836 -0.0451 -1.4834
 3168TIP3    H2 9511   5.698   5.085   3.362  0.9813 -0.5486  2.1670
 3169TIP3   OH2 9512   4.777   1.049   0.079  0.2273 -0.5843  0.2617
 3169TIP3    H1 9513   4.732   1.074   0.160  0.6941  0.2201  0.2845
 3169TIP3    H2 9514   4.706   1.034   0.017 -0.1046  1.2436  0.1322
 3170TIP3   OH2 9515   4.159   3.933   2.055  0.6381  0.0793  0.1509
 3170TIP3    H1 9516   4.073   3.936   2.098  0.0892 -1.7179 -0.7572
 3170TIP3    H2 9517   4.141   3.961   1.965  1.1093  0.1764  0.0853
 3171TIP3   OH2 9518   4.672   5.656   4.974  0.6433  0.4712  0.6216
 3171TIP3    H1 9519   4.686   5.619   4.887  0.0290 -0.0593  0.7353
 3171TIP3    H2 9520   4.734   5.728   4.980  0.5979  0.6019 -0.3096
 3172TIP3   OH2 9521   5.573   2.066   2.960  0.0177 -0.0858  0.7286
 3172TIP3    H1 9522   5.621   1.989   2.989  1.9010  0.8120  0.1774
 3172TIP3    H2 9523   5.570   2.057   2.864 -0.3718  0.1765  0.7143
 3173TIP3   OH2 9524   5.310   3.543   1.907 -0.4266  0.2993 -0.4014
 3173TIP3    H1 9525   5.242   3.490   1.949 -1.0188  1.1780 -0.2313
 3173TIP3    H2 9526   5.308   3.626   1.953  1.1552  0.1642 -0.0402
 3174TIP3   OH2 9527   3.348   2.166   3.559 -0.1533 -0.0198  0.3038
 3174TIP3    H1 9528   3.352   2.084   3.609 -0.7269  0.5790  1.3678
 3174TIP3    H2 9529   3.256   2.193   3.565 -0.4287 -0.3234 -1.7562
 3175TIP3   OH2 9530   0.496   5.760   0.150  0.1746  0.2618  0.1009
 3175TIP3    H1 9531   0.508   5.666   0.136  1.8967  0.4738 -0.1142
 3175TIP3    H2 9532   0.419   5.783   0.099 -0.3078 -1.0504  0.2168
 3176TIP3   OH2 9533   3.796   1.116   1.146 -0.1798 -0.5805  0.0692
 3176TIP3    H1 9534   3.887   1.133   1.124 -0.1680  1.4443  1.4515
 3176TIP3    H2 9535   3.753   1.201   1.138 -1.7467 -1.2998  0.4101
 3177TIP3   OH2 9536   2.136   0.105   2.971 -0.5268 -0.1072 -0.2782
 3177TIP3    H1 9537   2.086   0.034   3.011 -1.2440  0.4266 -0.2078
 3177TIP3    H2 9538   2.213   0.115   3.027 -1.1632  0.1511  0.5714
 3178TIP3   OH2 9539   2.493   3.844   0.576  0.6175  0.0662 -0.3843
 3178TIP3    H1 9540   2.434   3.795   0.520  1.2522  0.3394 -1.3121
 3178TIP3    H2 9541   2.580   3.810   0.554  0.8543 -0.0451  0.6685
 3179TIP3   OH2 9542   1.107   0.296   1.561 -0.1264  0.4633 -0.3590
 3179TIP3    H1 9543   1.019   0.293   1.596 -0.3284 -2.8939 -0.7980
 3179TIP3    H2 9544   1.116   0.215   1.510  2.8689  1.1633 -1.2043
 3180TIP3   OH2 9545   3.773   2.671   3.288 -0.5855 -0.8034  0.4205
 3180TIP3    H1 9546   3.842   2.674   3.222  0.2827 -2.1828  1.2181
 3180TIP3    H2 9547   3.789   2.747   3.344 -0.1780 -0.6934  0.1529
 3181TIP3   OH2 9548   6.040   3.378   0.030  0.7056 -0.4864  0.2351
 3181TIP3    H1 9549   5.973   3.439   0.060  0.4578 -0.7100  0.1416
 3181TIP3    H2 9550   6.068   3.332   0.109 -0.8078 -1.9336 -0.0171
 3182TIP3   OH2 9551   1.327   1.725   1.318 -0.4733  0.4174 -0.1610
 3182TIP3    H1 9552   1.422   1.735   1.325 -0.1339 -0.7165 -2.2429
 3182TIP3    H2 9553   1.311   1.723   1.223 -2.5520  0.2921  0.1570
 3183TIP3   OH2 9554   3.397   5.744   3.422 -0.4305  0.5496 -0.4211
 3183TIP3    H1 9555   3.352   5.824   3.450 -2.2935 -0.4340 -0.4416
 3183TIP3    H2 9556   3.476   5.775   3.379 -0.5348  2.3320  0.5771
 3184TIP3   OH2 9557   3.438   1.634   2.661 -0.3154  0.0432 -0.2030
 3184TIP3    H1 9558   3.349   1.646   2.694 -0.0088  0.9836  0.3188
 3184TIP3    H2 9559   3.429   1.640   2.566 -0.6980  1.0709 -0.1193
 3185TIP3   OH2 9560   0.319   5.653   4.630  0.3934 -0.1364  0.2186
 3185TIP3    H1 9561   0.282   5.637   4.543 -0.2122 -0.0888  0.4565
 3185TIP3    H2 9562   0.255   5.615   4.690  2.1095 -2.6296  0.5855
 3186TIP3   OH2 9563   1.101   4.807   3.367 -0.1984  0.4484  0.7643
 3186TIP3    H1 9564   1.061   4.790   3.451 -0.6634 -0.3621  0.3886
 3186TIP3    H2 9565   1.036   4.779   3.302  0.0803  1.2058  0.1287
 3187TIP3   OH2 9566   5.923   5.613   0.755 -0.7686 -0.3315  0.4181
 3187TIP3    H1 9567   5.882   5.592   0.839  0.3132 -0.8487  0.8457
 3187TIP3    H2 9568   5.950   5.704   0.763 -2.9561  0.4410 -0.3690
 3188TIP3   OH2 9569   1.049   3.960   1.821 -0.8247  0.4357  0.8864
 3188TIP3    H1 9570   0.993   3.904   1.766  0.7728 -1.0141  0.6372
 3188TIP3    H2 9571   1.094   3.898   1.878 -1.4502  1.8034  2.9597
 3189TIP3   OH2 9572   2.562   0.491   3.038  0.4000  0.2244 -0.2094
 3189TIP3    H1 9573   2.645   0.474   3.084 -0.5568 -0.2965  1.3735
 3189TIP3    H2 9574   2.548   0.585   3.049  0.6746  0.2814 -0.3168
 3190TIP3   OH2 9575   2.415   3.838   3.029  0.0074 -0.4004  0.2813
 3190TIP3    H1 9576   2.421   3.867   3.120  0.4666  1.3316 -0.2740
 3190TIP3    H2 9577   2.494   3.785   3.016  2.0786  2.5241 -0.1306
 3191TIP3   OH2 9578   4.387   4.881   3.417  0.1552 -0.3473  0.1967
 3191TIP3    H1 9579   4.311   4.853   3.469  0.2632  0.8130  1.0216
 3191TIP3    H2 9580   4.351   4.904   3.332 -0.1709 -1.3707  0.0454
 3192TIP3   OH2 9581   3.203   4.436   4.115 -0.7123 -0.3337  0.6192
 3192TIP3    H1 9582   3.170   4.354   4.078 -1.2048 -1.1059  2.6590
 3192TIP3    H2 9583   3.251   4.410   4.194 -1.6042  1.3941  1.7879
 3193TIP3   OH2 9584   1.102   1.198   3.997  0.5154 -0.4901  0.3895
 3193TIP3    H1 9585   1.187   1.233   4.023  0.2666  0.9141 -0.5859
 3193TIP3    H2 9586   1.117   1.160   3.911  0.4893 -1.6963  0.8953
 3194TIP3   OH2 9587   2.626   2.758   1.611 -0.6096 -0.4320 -0.1532
 3194TIP3    H1 9588   2.636   2.736   1.704 -0.8337  2.7443  0.7421
 3194TIP3    H2 9589   2.549   2.708   1.583 -1.0240 -0.8425  1.5799
 3195TIP3   OH2 9590   6.168   1.609   3.614 -0.4144 -0.6863 -0.4691
 3195TIP3    H1 9591   6.184   1.533   3.671  2.2888 -0.7686 -1.2051
 3195TIP3    H2 9592   6.170   1.684   3.673  0.5760 -0.9238 -0.1717
 3196TIP3   OH2 9593   3.948   0.569   3.805  0.0774  0.2188  0.0888
 3196TIP3    H1 9594   3.915   0.571   3.895  0.3212 -0.1383  0.1873
 3196TIP3    H2 9595   3.929   0.657   3.771 -0.5596  0.1620  0.2920
 3197TIP3   OH2 9596   3.915   5.591   2.304 -0.8619  0.2543 -0.1455
 3197TIP3    H1 9597   4.005   5.610   2.329 -0.2032 -2.1203 -0.4616
 3197TIP3    H2 9598   3.889   5.664   2.248  1.0199  0.7456 -0.4347
 3198TIP3   OH2 9599   6.309   2.279   4.294 -0.1293 -0.0178  0.1107
 3198TIP3    H1 9600   6.391   2.230   4.282  0.4180  0.8959  0.0268
 3198TIP3    H2 9601   6.315   2.315   4.383  0.2229  1.2184 -0.3876
 3199TIP3   OH2 9602   4.212   3.511   4.209 -0.0982  0.5884 -0.6447
 3199TIP3    H1 9603   4.266   3.432   4.205 -0.9503  0.0286 -1.4464
 3199TIP3    H2 9604   4.155   3.498   4.285  0.8090  1.1429  0.1527
 3200TIP3   OH2 9605   3.617   1.797   2.083 -0.2835  0.5079  0.0376
 3200TIP3    H1 9606   3.588   1.873   2.132  0.1183  0.9176 -0.3454
 3200TIP3    H2 9607   3.604   1.723   2.143  0.7271  1.0633  0.9828
 3201TIP3   OH2 9608   2.625   2.316   2.292  0.6953  0.9458 -0.2824
 3201TIP3    H1 9609   2.598   2.269   2.370  0.8923  1.6631  0.2323
 3201TIP3    H2 9610   2.608   2.256   2.220 -1.0368  0.8751  0.1469
 3202TIP3   OH2 9611   0.430   4.233   0.473  0.3339  0.4295 -0.1860
 3202TIP3    H1 9612   0.421   4.161   0.411 -1.4263 -0.5386  1.1182
 3202TIP3    H2 9613   0.369   4.299   0.442  0.2407  0.3945 -0.0751
 3203TIP3   OH2 9614   5.789   3.307   4.789 -0.1571 -0.2316  0.3433
 3203TIP3    H1 9615   5.852   3.367   4.751 -1.3068  1.4045  0.9120
 3203TIP3    H2 9616   5.723   3.363   4.829 -2.3555 -1.8408 -0.7823
 3204TIP3   OH2 9617   0.935   2.520   0.843 -0.6833 -0.0020  0.1970
 3204TIP3    H1 9618   1.016   2.495   0.888 -0.9675  1.5610  1.6495
 3204TIP3    H2 9619   0.923   2.612   0.864 -1.4761  0.4950 -2.1741
 3205TIP3   OH2 9620   5.318   2.446   1.547  0.7382  0.1969 -0.0314
 3205TIP3    H1 9621   5.278   2.380   1.604  0.8383  0.3225  0.1842
 3205TIP3    H2 9622   5.386   2.486   1.600 -0.5954  1.8410  0.5334
 3206TIP3   OH2 9623   4.275   5.213   3.502  0.4426 -0.2529 -0.5876
 3206TIP3    H1 9624   4.288   5.125   3.467  0.9258  0.4384 -2.2382
 3206TIP3    H2 9625   4.215   5.201   3.575 -2.0849 -1.6136 -2.6998
 3207TIP3   OH2 9626   0.840   3.070   0.161 -0.3454  0.7076  0.0833
 3207TIP3    H1 9627   0.906   3.002   0.168  0.9865  1.9242 -0.0971
 3207TIP3    H2 9628   0.779   3.037   0.096 -1.3982 -1.5714  2.0847
 3208TIP3   OH2 9629   3.822   1.289   2.900 -0.3675 -0.5809 -0.3815
 3208TIP3    H1 9630   3.875   1.323   2.827 -2.4858 -0.2916 -1.8653
 3208TIP3    H2 9631   3.795   1.367   2.948 -2.6358 -0.2977 -1.9619
 3209TIP3   OH2 9632   1.743   3.730   2.125 -0.0592  0.2382 -0.2937
 3209TIP3    H1 9633   1.682   3.660   2.102  0.4828 -0.4527  0.3047
 3209TIP3    H2 9634   1.825   3.705   2.083 -0.3561  1.5664 -1.7593
 3210TIP3   OH2 9635   2.124   5.087   0.734 -0.1905  0.6579  0.2943
 3210TIP3    H1 9636   2.121   5.048   0.646  1.7552  3.2172 -1.0633
 3210TIP3    H2 9637   2.213   5.070   0.765 -0.1914  1.5718  0.8376
 3211TIP3   OH2 9638   4.596   3.531   4.233 -0.2598  0.4724 -0.2159
 3211TIP3    H1 9639   4.600   3.610   4.179  0.3202  0.0534 -0.8089
 3211TIP3    H2 9640   4.595   3.563   4.323  1.2183  1.1406 -0.4123
 3212TIP3   OH2 9641   4.671   5.796   3.105  0.1553  0.0035 -0.3899
 3212TIP3    H1 9642   4.762   5.818   3.089  0.5368 -0.7796  0.5993
 3212TIP3    H2 9643   4.639   5.867   3.162  0.6215 -0.5513  0.5911
 3213TIP3   OH2 9644   1.617   0.793   3.284  0.2785 -0.2379 -0.3224
 3213TIP3    H1 9645   1.628   0.786   3.190 -1.2550 -0.1008 -0.5298
 3213TIP3    H2 9646   1.577   0.710   3.310 -1.4227  0.6078 -0.1496
 3214TIP3   OH2 9647   5.516   3.755   0.793 -0.3430 -0.1009  0.0157
 3214TIP3    H1 9648   5.510   3.662   0.771  0.1286  0.2032 -1.5424
 3214TIP3    H2 9649   5.558   3.794   0.717 -0.5657  1.3985  0.6389
 3215TIP3   OH2 9650   0.752   3.678   4.802  0.6112 -0.5538 -0.0038
 3215TIP3    H1 9651   0.729   3.768   4.826  1.9149 -0.3100  0.3828
 3215TIP3    H2 9652   0.847   3.675   4.808  0.5597 -2.1227  0.5524
 3216TIP3   OH2 9653   1.121   1.456   0.893 -0.6158  0.2547  0.0868
 3216TIP3    H1 9654   1.190   1.462   0.827 -0.8707  0.8225 -0.1375
 3216TIP3    H2 9655   1.039   1.462   0.843 -0.8098  0.7467  0.4499
 3217TIP3   OH2 9656   2.158   3.228   4.722 -0.6857  0.3667 -0.0079
 3217TIP3    H1 9657   2.099   3.157   4.695 -0.0581 -0.5474  0.9541
 3217TIP3    H2 9658   2.233   3.184   4.760  0.2517  1.5420 -0.4271
 3218TIP3   OH2 9659   6.016   0.415   0.857  0.0016 -0.2361  0.6042
 3218TIP3    H1 9660   6.012   0.502   0.896 -1.5266  0.5242 -1.0534
 3218TIP3    H2 9661   6.032   0.431   0.764 -0.1159 -1.7234  0.2965
 3219TIP3   OH2 9662   4.989   5.441   1.007 -0.1336  0.1520  0.3909
 3219TIP3    H1 9663   4.977   5.374   0.939 -1.0840 -0.6898  1.3570
 3219TIP3    H2 9664   4.921   5.422   1.072 -0.5272  2.1565  0.6279
 3220TIP3   OH2 9665   3.812   3.051   4.398 -0.2870 -0.0137  0.4177
 3220TIP3    H1 9666   3.906   3.067   4.405 -0.5275  1.1304  1.3057
 3220TIP3    H2 9667   3.774   3.138   4.383 -1.0348 -0.7141 -2.3347
 3221TIP3   OH2 9668   6.240   2.949   2.859  0.6349 -0.6189 -0.1417
 3221TIP3    H1 9669   6.203   2.864   2.883 -0.4313  0.2603  1.5120
 3221TIP3    H2 9670   6.323   2.953   2.907  0.0271 -0.1707  0.8817
 3222TIP3   OH2 9671   3.241   0.593   2.832  0.1823  0.2750  0.6726
 3222TIP3    H1 9672   3.335   0.583   2.848  0.4657  0.2047 -0.8929
 3222TIP3    H2 9673   3.212   0.506   2.802  0.2413  0.9948 -1.6395
 3223TIP3   OH2 9674   1.687   5.838   4.463  0.3038  0.4207 -0.3484
 3223TIP3    H1 9675   1.663   5.754   4.423 -0.1849 -0.0735  0.9199
 3223TIP3    H2 9676   1.722   5.890   4.391 -0.1864 -0.5671 -1.3305
 3224TIP3   OH2 9677   2.803   2.055   2.632 -0.0249 -0.1450 -0.4573
 3224TIP3    H1 9678   2.882   2.034   2.682  0.1512  1.2680 -0.0767
 3224TIP3    H2 9679   2.787   2.147   2.653 -1.8942 -0.4629 -0.3678
 3225TIP3   OH2 9680   1.985   3.312   0.779 -0.1741 -0.3568 -0.7927
 3225TIP3    H1 9681   2.010   3.368   0.853  0.4249  0.6073 -1.7036
 3225TIP3    H2 9682   2.059   3.252   0.769  0.4902  0.5882 -1.6389
 3226TIP3   OH2 9683   2.446   4.939   4.759 -0.2892 -0.0127 -0.2344
 3226TIP3    H1 9684   2.388   4.964   4.687  0.9924 -0.1591 -1.3519
 3226TIP3    H2 9685   2.462   5.021   4.806 -0.3728  0.2755 -0.6967
 3227TIP3   OH2 9686   3.656   5.353   2.164  0.0726  0.1153  0.0463
 3227TIP3    H1 9687   3.626   5.363   2.073 -0.9736 -1.3654  0.2104
 3227TIP3    H2 9688   3.620   5.430   2.209  0.7558  0.9662 -0.7970
 3228TIP3   OH2 9689   6.317   0.411   0.856 -0.1208 -0.0695  0.6256
 3228TIP3    H1 9690   6.268   0.404   0.774  0.5261 -0.4776  0.2656
 3228TIP3    H2 9691   6.305   0.501   0.884 -0.0678  0.1658 -0.0979
 3229TIP3   OH2 9692   0.611   0.471   3.912 -0.3957 -0.5581  0.3649
 3229TIP3    H1 9693   0.695   0.478   3.957  0.3974 -0.2562 -1.0966
 3229TIP3    H2 9694   0.550   0.519   3.967  0.9241  1.4108  0.2127
 3230TIP3   OH2 9695   4.625   4.972   2.610 -0.4481  0.0060  0.5248
 3230TIP3    H1 9696   4.613   4.978   2.515  0.9047  0.9226  0.3866
 3230TIP3    H2 9697   4.654   5.059   2.636 -0.5035 -0.3273  1.7358
 3231TIP3   OH2 9698   3.442   5.549   2.955 -0.1427 -0.2892 -0.9630
 3231TIP3    H1 9699   3.417   5.527   3.045  0.7225  3.1190  0.2292
 3231TIP3    H2 9700   3.459   5.464   2.914  0.2900 -1.9392  2.3146
 3232TIP3   OH2 9701   6.262   5.410   4.991 -0.1586  0.1950  0.3802
 3232TIP3    H1 9702   6.283   5.321   4.962 -0.3383 -0.0006  0.8320
 3232TIP3    H2 9703   6.197   5.397   5.060 -2.1307  0.8159 -1.2711
 3233TIP3   OH2 9704   1.400   5.069   3.967  0.6354 -0.2504  0.2249
 3233TIP3    H1 9705   1.416   5.129   4.039  1.2922  1.3409 -1.1776
 3233TIP3    H2 9706   1.466   5.092   3.901 -0.7697 -0.7303 -1.4262
 3234TIP3   OH2 9707   0.960   0.202   4.530 -0.5825 -0.5410 -0.0836
 3234TIP3    H1 9708   0.976   0.115   4.567 -1.6252 -1.4850 -1.7243
 3234TIP3    H2 9709   0.867   0.218   4.547 -0.5179  0.0292 -0.2504
 3235TIP3   OH2 9710   4.044   3.734   4.712  0.4271  0.0937  0.5839
 3235TIP3    H1 9711   4.135   3.718   4.689  0.1596  0.2393 -0.6080
 3235TIP3    H2 9712   4.047   3.799   4.782  1.2024  0.9329 -0.2069
 3236TIP3   OH2 9713   3.618   2.846   1.349 -0.5972 -0.0497  0.8898
 3236TIP3    H1 9714   3.538   2.893   1.373  0.8308  1.8506  2.1965
 3236TIP3    H2 9715   3.652   2.893   1.274 -0.3118 -0.3873  0.8043
 3237TIP3   OH2 9716   5.347   4.766   2.458  0.7251 -0.0569 -0.0732
 3237TIP3    H1 9717   5.300   4.846   2.480 -0.7585 -1.0469  0.5156
 3237TIP3    H2 9718   5.358   4.720   2.541  0.4638 -1.0234 -0.5578
 3238TIP3   OH2 9719   4.427   2.661   2.503  0.5731 -0.0150  0.1747
 3238TIP3    H1 9720   4.340   2.697   2.520  1.0394  1.6288 -0.6983
 3238TIP3    H2 9721   4.487   2.728   2.537  1.5201 -1.3264  1.1927
 3239TIP3   OH2 9722   3.239   3.460   2.349  0.2375  0.1007  1.0257
 3239TIP3    H1 9723   3.222   3.447   2.442 -1.5644  1.4049  0.9483
 3239TIP3    H2 9724   3.228   3.373   2.310  0.2039 -0.3068  1.9138
 3240TIP3   OH2 9725   0.381   5.477   1.663 -0.0884 -0.0958  0.1285
 3240TIP3    H1 9726   0.458   5.440   1.620 -0.6323 -0.1515 -0.8351
 3240TIP3    H2 9727   0.308   5.422   1.633 -0.5649  0.2431  0.6456
 3241TIP3   OH2 9728   1.111   4.205   4.915  0.3192 -0.7500 -0.1072
 3241TIP3    H1 9729   1.142   4.116   4.893  0.5818 -0.3809 -1.3196
 3241TIP3    H2 9730   1.166   4.232   4.988  0.3086 -1.5443  0.2056
 3242TIP3   OH2 9731   3.346   5.030   1.069 -0.3447  0.3837 -0.2655
 3242TIP3    H1 9732   3.424   5.079   1.096 -0.0517 -0.0606 -0.3057
 3242TIP3    H2 9733   3.356   4.944   1.109 -1.8641  0.9743  1.5473
 3243TIP3   OH2 9734   1.366   3.831   1.652 -0.0637  0.3307 -0.3008
 3243TIP3    H1 9735   1.313   3.909   1.663  0.5660  0.6222  0.8014
 3243TIP3    H2 9736   1.427   3.832   1.725  1.6411  0.1315 -1.6510
 3244TIP3   OH2 9737   5.106   4.629   1.392 -0.4822 -0.5795 -0.6809
 3244TIP3    H1 9738   5.089   4.706   1.446  0.1854 -0.5512 -0.4946
 3244TIP3    H2 9739   5.180   4.655   1.337  1.0654 -1.7309  0.7721
 3245TIP3   OH2 9740   5.190   3.353   1.136  0.1441 -0.3085 -0.3918
 3245TIP3    H1 9741   5.127   3.423   1.148 -0.7716 -1.0964 -0.4980
 3245TIP3    H2 9742   5.148   3.276   1.176  1.3590 -0.6777  0.2386
 3246TIP3   OH2 9743   0.921   5.140   4.276 -0.2292 -0.6574  0.0961
 3246TIP3    H1 9744   1.002   5.174   4.314 -0.3149  1.8999 -1.7567
 3246TIP3    H2 9745   0.935   5.045   4.272  1.8626 -0.4890  1.5512
 3247TIP3   OH2 9746   2.113   5.627   1.005  0.3297 -0.5128 -0.3727
 3247TIP3    H1 9747   2.098   5.547   0.954  0.1288 -0.6899 -0.0393
 3247TIP3    H2 9748   2.026   5.667   1.011  0.1184 -1.1297  0.8871
 3248TIP3   OH2 9749   0.132   0.249   2.333  0.3302 -0.1169  0.0448
 3248TIP3    H1 9750   0.048   0.223   2.371 -1.3583  4.0103 -0.3116
 3248TIP3    H2 9751   0.121   0.233   2.239 -0.3827  1.0217 -0.0829
 3249TIP3   OH2 9752   2.214   0.742   1.361  0.6614 -0.7685  0.0337
 3249TIP3    H1 9753   2.148   0.764   1.426 -1.2067 -0.9637 -1.6911
 3249TIP3    H2 9754   2.256   0.662   1.395  0.8745  0.0264  1.7228
 3250TIP3   OH2 9755   1.237   0.118   0.827  0.4938  0.5681 -0.5073
 3250TIP3    H1 9756   1.191   0.193   0.789  0.6491  0.8788 -0.0862
 3250TIP3    H2 9757   1.252   0.143   0.918  0.0718 -0.1988 -0.2225
 3251TIP3   OH2 9758   2.999   5.197   3.486 -0.1401 -0.4453  0.3040
 3251TIP3    H1 9759   2.947   5.205   3.406 -0.7384  0.8056  0.7917
 3251TIP3    H2 9760   3.015   5.288   3.513  1.3735 -0.8190  0.7710
 3252TIP3   OH2 9761   3.284   0.688   4.837  0.6225 -0.3305 -0.0844
 3252TIP3    H1 9762   3.279   0.662   4.929 -0.6515 -1.7277 -0.5067
 3252TIP3    H2 9763   3.193   0.704   4.812  1.0545  1.1506 -0.8277
 3253TIP3   OH2 9764   5.506   1.379   2.999  0.1432  0.5108  0.8395
 3253TIP3    H1 9765   5.435   1.351   3.057  1.7404 -1.1818  2.0892
 3253TIP3    H2 9766   5.571   1.308   3.004  0.8304  0.7640 -2.2521
 3254TIP3   OH2 9767   2.091   1.861   4.183 -0.2351 -0.6161 -0.7465
 3254TIP3    H1 9768   2.138   1.933   4.224  0.1316 -1.0558 -0.3859
 3254TIP3    H2 9769   2.110   1.785   4.238 -2.2970 -0.5910  0.1125
 3255TIP3   OH2 9770   2.488   4.554   0.800 -0.8116 -0.1684  0.2930
 3255TIP3    H1 9771   2.530   4.477   0.839 -1.4404 -0.1628  0.9906
 3255TIP3    H2 9772   2.485   4.534   0.706  1.5093  0.1846  0.0748
 3256TIP3   OH2 9773   0.922   1.003   0.025 -0.2897 -0.1928 -0.6612
 3256TIP3    H1 9774   0.932   1.011   0.120 -0.0709 -0.1155 -0.6913
 3256TIP3    H2 9775   0.827   0.997   0.012 -0.2754 -1.2554 -0.3543
 3257TIP3   OH2 9776   2.352   0.049   3.154 -0.3047  0.2729 -0.2220
 3257TIP3    H1 9777   2.321  -0.018   3.214 -3.5671  0.2551 -1.7064
 3257TIP3    H2 9778   2.395   0.000   3.084 -0.3206 -0.0538 -0.0066
 3258TIP3   OH2 9779   3.583   0.654   2.331 -0.3208  0.3453 -0.3882
 3258TIP3    H1 9780   3.674   0.650   2.303 -0.0239 -0.8923  0.6506
 3258TIP3    H2 9781   3.586   0.632   2.425 -1.8468 -1.5003 -0.7165
 3259TIP3   OH2 9782   1.629   2.189   1.094  0.2109  0.4378  0.2738
 3259TIP3    H1 9783   1.721   2.186   1.067  0.4569  1.0859  1.0016
 3259TIP3    H2 9784   1.605   2.282   1.086 -1.1392 -0.0410 -2.3207
 3260TIP3   OH2 9785   5.840   0.732   0.841 -0.4208  0.4478  0.0830
 3260TIP3    H1 9786   5.764   0.716   0.897 -0.2123 -1.3347 -0.0881
 3260TIP3    H2 9787   5.821   0.683   0.761  1.7375 -1.6980  0.7774
 3261TIP3   OH2 9788   3.938   4.392   4.590  0.1956 -0.4573  0.4894
 3261TIP3    H1 9789   3.970   4.454   4.655 -0.0045 -0.0669  0.2176
 3261TIP3    H2 9790   3.888   4.445   4.528  0.9381 -0.7323 -0.3547
 3262TIP3   OH2 9791   4.736   2.942   1.395 -0.4373  0.2894  0.2454
 3262TIP3    H1 9792   4.683   2.958   1.317 -1.0602  3.2438  1.1602
 3262TIP3    H2 9793   4.755   2.848   1.392 -2.9469 -0.2704 -1.8659
 3263TIP3   OH2 9794   4.003   2.891   2.849  0.2626  0.3380  0.8084
 3263TIP3    H1 9795   4.013   2.950   2.774  0.6087 -0.0359  0.5520
 3263TIP3    H2 9796   4.086   2.896   2.895 -0.4586  1.7093  2.0362
 3264TIP3   OH2 9797   0.306   4.207   4.437 -0.3216 -0.1183  0.1496
 3264TIP3    H1 9798   0.340   4.171   4.519 -0.0749 -2.6266 -0.9628
 3264TIP3    H2 9799   0.359   4.286   4.421  3.5345 -2.5410 -0.2763
 3265TIP3   OH2 9800   3.374   4.880   3.933 -0.0490  0.4618 -0.1502
 3265TIP3    H1 9801   3.317   4.901   4.007  1.4766  3.1545  0.3544
 3265TIP3    H2 9802   3.389   4.964   3.889  0.9974 -0.6902 -2.1528
 3266TIP3   OH2 9803   3.558   4.252   3.821 -0.9281  0.0754  0.4770
 3266TIP3    H1 9804   3.514   4.275   3.903  0.5199 -1.1605  1.6506
 3266TIP3    H2 9805   3.633   4.199   3.848  1.3854  2.1728 -1.4143
 3267TIP3   OH2 9806   2.042   0.642   4.597 -0.0417  0.2341 -0.1126
 3267TIP3    H1 9807   2.008   0.640   4.686 -1.0699  2.9096 -0.3613
 3267TIP3    H2 9808   2.030   0.553   4.565 -2.2136 -0.1270  1.5174
 3268TIP3   OH2 9809   2.043   0.234   1.497  0.0399  0.0633 -0.5225
 3268TIP3    H1 9810   1.982   0.193   1.558  1.0026  0.5684  0.8041
 3268TIP3    H2 9811   2.096   0.161   1.464 -0.0015 -0.1151 -0.1984
 3269TIP3   OH2 9812   3.961   4.490   0.344  0.6545 -0.2462  0.3352
 3269TIP3    H1 9813   3.927   4.424   0.283  2.5645 -0.0241 -1.0463
 3269TIP3    H2 9814   3.906   4.567   0.327  0.0464 -0.7078  0.1485
 3270TIP3   OH2 9815   1.217   3.988   2.140 -0.1348  0.4408 -0.5848
 3270TIP3    H1 9816   1.231   4.071   2.187  1.4622 -1.3045  2.3030
 3270TIP3    H2 9817   1.270   3.996   2.061  1.8651  1.3422  0.7713
 3271TIP3   OH2 9818   6.284   0.689   2.991 -0.3069  0.3772  0.3888
 3271TIP3    H1 9819   6.300   0.709   2.899 -0.1231 -0.6274  0.1871
 3271TIP3    H2 9820   6.355   0.733   3.039  2.1622 -2.4896 -0.3257
 3272TIP3   OH2 9821   1.859   2.851   4.014  0.3076 -0.1525 -0.0465
 3272TIP3    H1 9822   1.866   2.791   4.089 -0.5687 -0.2536 -0.0340
 3272TIP3    H2 9823   1.845   2.793   3.939  0.2724 -0.0055 -0.1530
 3273TIP3   OH2 9824   1.578   2.220   4.193 -0.1789  0.0293  0.2592
 3273TIP3    H1 9825   1.625   2.229   4.276 -0.6239 -1.5948  0.7256
 3273TIP3    H2 9826   1.616   2.143   4.152 -0.0860  0.7116 -0.9893
 3274TIP3   OH2 9827   6.222   0.777   2.584  0.0730 -0.4038 -0.6928
 3274TIP3    H1 9828   6.133   0.793   2.551 -0.1628  0.5527  0.3203
 3274TIP3    H2 9829   6.243   0.857   2.633  1.9758 -0.1178 -1.9100
 3275TIP3   OH2 9830   3.226   0.450   1.412 -0.1068  0.1783  0.1822
 3275TIP3    H1 9831   3.194   0.492   1.333  0.9224 -0.2883 -0.4998
 3275TIP3    H2 9832   3.314   0.484   1.424  0.7377 -1.6535 -0.3501
 3276TIP3   OH2 9833   4.863   2.518   3.284 -0.1809  0.3664 -0.3950
 3276TIP3    H1 9834   4.930   2.569   3.240  0.7821 -1.3522 -0.9938
 3276TIP3    H2 9835   4.828   2.460   3.217  0.3736 -1.3577  0.7422
 3277TIP3   OH2 9836   4.308   0.755   3.726 -0.3007  0.1651  0.5935
 3277TIP3    H1 9837   4.238   0.737   3.663 -1.5041 -1.2063  2.2227
 3277TIP3    H2 9838   4.264   0.803   3.797  1.2240  2.5404  0.0477
 3278TIP3   OH2 9839   3.192   1.764   2.741 -0.4633  0.1518 -0.3137
 3278TIP3    H1 9840   3.102   1.749   2.713 -1.2112  1.1095  1.3893
 3278TIP3    H2 9841   3.213   1.851   2.708 -0.5405  0.3408  0.1225
 3279TIP3   OH2 9842   1.704   2.002   4.115 -0.1959  0.3073  0.2279
 3279TIP3    H1 9843   1.794   1.981   4.090 -0.5943  1.5863 -2.7188
 3279TIP3    H2 9844   1.684   1.942   4.186  2.9284 -0.1099  0.8910
 3280TIP3   OH2 9845   3.161   1.432   4.902 -0.2314  0.1788  0.0594
 3280TIP3    H1 9846   3.251   1.455   4.924  0.1416  0.5355 -1.6787
 3280TIP3    H2 9847   3.150   1.461   4.812 -2.4269  1.0898  0.5375
 3281TIP3   OH2 9848   1.462   2.058   3.216  0.3219 -0.4484  0.2999
 3281TIP3    H1 9849   1.452   2.115   3.140 -1.7977  0.1008  0.9127
 3281TIP3    H2 9850   1.472   2.119   3.290 -0.3157 -0.8811  0.7613
 3282TIP3   OH2 9851   2.369   4.088   4.858 -0.2289  0.5726 -0.1034
 3282TIP3    H1 9852   2.276   4.080   4.878  0.0232 -0.7665  0.6745
 3282TIP3    H2 9853   2.372   4.109   4.765 -1.3452  3.1280  0.3558
 3283TIP3   OH2 9854   3.186   1.065   2.328 -0.0169  0.1060 -0.3823
 3283TIP3    H1 9855   3.218   1.073   2.418  0.0312  2.9345 -0.5531
 3283TIP3    H2 9856   3.250   1.009   2.285  0.1509 -1.0169  1.2151
 3284TIP3   OH2 9857   3.825   0.338   0.895 -0.1809  0.2901 -0.3849
 3284TIP3    H1 9858   3.748   0.308   0.944  0.6777  1.3724  1.8029
 3284TIP3    H2 9859   3.863   0.259   0.858 -0.0078 -0.9188  2.1334
 3285TIP3   OH2 9860   2.138   1.956   1.755 -0.2239 -0.2300 -0.2060
 3285TIP3    H1 9861   2.152   1.863   1.776 -1.2029 -0.0090  1.5854
 3285TIP3    H2 9862   2.094   1.992   1.832 -3.0501  0.9539 -2.2069
 3286TIP3   OH2 9863   4.853   3.321   1.042  0.2442 -0.1114 -0.3914
 3286TIP3    H1 9864   4.863   3.252   1.108  0.5793  0.8817  0.6353
 3286TIP3    H2 9865   4.868   3.402   1.090 -1.3589  0.7785 -1.3001
 3287TIP3   OH2 9866   2.306   0.036   3.885 -0.0587  0.4653  0.0426
 3287TIP3    H1 9867   2.277   0.003   3.970 -1.2782  2.3897  0.4481
 3287TIP3    H2 9868   2.398   0.060   3.899  0.1008 -0.3569  0.4526
 3288TIP3   OH2 9869   1.261   5.003   1.934  0.1937 -0.3240 -0.1049
 3288TIP3    H1 9870   1.288   4.976   1.847  1.9941 -0.4744  0.4600
 3288TIP3    H2 9871   1.195   5.071   1.919 -3.5396 -3.8544 -1.5546
 3289TIP3   OH2 9872   3.931   3.005   3.147 -1.0668  0.3037  0.4480
 3289TIP3    H1 9873   3.846   3.030   3.183 -2.1604 -1.1336 -0.9585
 3289TIP3    H2 9874   3.936   3.051   3.063  0.1616  1.3917  1.0847
 3290TIP3   OH2 9875   1.184   5.198   3.086 -0.2759 -0.6342 -0.2549
 3290TIP3    H1 9876   1.164   5.290   3.103 -0.1351 -0.7711  0.7062
 3290TIP3    H2 9877   1.279   5.193   3.089 -0.3232 -1.2512  2.3194
 3291TIP3   OH2 9878   2.203   0.283   1.256  0.1971  0.1419 -0.2133
 3291TIP3    H1 9879   2.297   0.273   1.246  0.2755 -0.3653  0.8662
 3291TIP3    H2 9880   2.191   0.305   1.348 -0.6242  1.9667 -0.7022
 3292TIP3   OH2 9881   3.943   3.518  -0.005  0.0949  0.1347  0.2411
 3292TIP3    H1 9882   3.969   3.541   0.084  0.5734  1.3482 -0.1885
 3292TIP3    H2 9883   3.873   3.581  -0.025  0.3300  0.1931 -0.4054
 3293TIP3   OH2 9884   6.009   4.856   3.610  0.2217 -0.2558  0.1740
 3293TIP3    H1 9885   6.021   4.917   3.538  0.2467 -0.2132  0.2143
 3293TIP3    H2 9886   6.076   4.880   3.674 -0.7359  0.6552  0.8615
 3294TIP3   OH2 9887   2.861   1.833   3.287  0.2379  0.1321  0.1634
 3294TIP3    H1 9888   2.945   1.796   3.260 -0.1673 -1.5580  1.0459
 3294TIP3    H2 9889   2.857   1.816   3.381 -2.4831 -2.9706 -0.3461
 3295TIP3   OH2 9890   6.159   4.437   4.294 -0.2476  0.6078 -0.8148
 3295TIP3    H1 9891   6.158   4.513   4.351  0.1647  1.7679 -2.2988
 3295TIP3    H2 9892   6.203   4.369   4.345  0.3774  1.6883  0.1232
 3296TIP3   OH2 9893   2.901   3.827   1.634  0.6493 -0.4537  0.0677
 3296TIP3    H1 9894   2.932   3.754   1.686  2.1205 -0.4776 -0.7780
 3296TIP3    H2 9895   2.851   3.787   1.563  0.5381 -0.5617  0.2070
 3297TIP3   OH2 9896   6.171   3.752   3.909  0.1752  0.2646  0.3106
 3297TIP3    H1 9897   6.263   3.726   3.919  0.4199  0.7879 -0.4618
 3297TIP3    H2 9898   6.127   3.673   3.880  0.3325 -0.0551  0.9270
 3298TIP3   OH2 9899   2.214   5.155   3.960 -0.3658 -0.3864  0.7177
 3298TIP3    H1 9900   2.226   5.087   4.027  0.3854 -0.9044  0.0701
 3298TIP3    H2 9901   2.302   5.172   3.927 -0.6977  0.0745  0.0528
 3299TIP3   OH2 9902   1.739   0.850   2.790  0.1162  0.2078 -0.2656
 3299TIP3    H1 9903   1.833   0.835   2.800  0.2748  1.4710  0.2353
 3299TIP3    H2 9904   1.702   0.820   2.873 -0.0010 -0.7640 -0.6530
 3300TIP3   OH2 9905   2.331   0.334   3.478 -0.1256  0.0626  0.6277
 3300TIP3    H1 9906   2.367   0.248   3.500  0.1413  0.3319  1.2593
 3300TIP3    H2 9907   2.327   0.334   3.382 -0.3565 -0.7432  0.6286
 3301TIP3   OH2 9908   4.147   2.269   3.074 -0.2824  0.6713  0.5286
 3301TIP3    H1 9909   4.164   2.246   3.165 -1.4799  1.6338  1.0170
 3301TIP3    H2 9910   4.204   2.344   3.057  0.3491  0.1526  0.2932
 3302TIP3   OH2 9911   2.998   5.855   2.084  0.3334  0.5032 -0.8041
 3302TIP3    H1 9912   3.073   5.824   2.135  0.3055 -0.0943 -1.1197
 3302TIP3    H2 9913   2.946   5.905   2.147 -0.8333 -2.0283  0.3922
 3303TIP3   OH2 9914   5.614   4.198   0.765  0.1786  0.0393  0.1395
 3303TIP3    H1 9915   5.612   4.163   0.676 -0.1281  1.0285 -0.2584
 3303TIP3    H2 9916   5.614   4.293   0.753 -0.0398  0.1826  1.2026
 3304TIP3   OH2 9917   0.110   4.318   2.237 -0.5271 -0.3479  0.4555
 3304TIP3    H1 9918   0.111   4.299   2.331 -0.8090 -1.4111  0.2502
 3304TIP3    H2 9919   0.194   4.362   2.221 -0.3341 -0.4492  1.1447
 3305TIP3   OH2 9920   1.135   3.652   4.729  0.4911  0.0898 -0.1481
 3305TIP3    H1 9921   1.203   3.659   4.662  0.1350 -0.9274 -0.6359
 3305TIP3    H2 9922   1.154   3.724   4.790  1.1699  0.6685 -1.0121
 3306TIP3   OH2 9923   4.747   2.008   2.188  0.0532 -0.3573  0.4042
 3306TIP3    H1 9924   4.829   2.008   2.139 -0.0182 -1.9799  0.2096
 3306TIP3    H2 9925   4.687   2.062   2.136  0.8795  0.5330  0.3633
 3307TIP3   OH2 9926   3.708   0.316   2.722 -0.2961 -0.1051  0.8292
 3307TIP3    H1 9927   3.688   0.224   2.703  2.0190 -0.1919 -1.8444
 3307TIP3    H2 9928   3.750   0.314   2.808 -1.6040 -1.2946  1.4848
 3308TIP3   OH2 9929   5.105   5.665   5.036 -0.2436  0.6556 -0.1502
 3308TIP3    H1 9930   5.198   5.642   5.032 -0.8462 -1.8833 -1.5825
 3308TIP3    H2 9931   5.084   5.694   4.947 -1.2233 -0.7181 -0.3969
 3309TIP3   OH2 9932   4.794   0.595   4.430 -0.2339  0.1622 -0.0894
 3309TIP3    H1 9933   4.739   0.554   4.496 -0.4086  1.6465  0.7209
 3309TIP3    H2 9934   4.798   0.687   4.454  0.4513  0.5880 -1.6394
 3310TIP3   OH2 9935   3.874   0.848   3.759 -0.6084  0.6144  0.4973
 3310TIP3    H1 9936   3.929   0.919   3.725 -1.8187  0.8159 -1.1659
 3310TIP3    H2 9937   3.820   0.822   3.684  0.4273 -2.7273  0.7266
 3311TIP3   OH2 9938   0.581   4.403   2.937  0.0743  0.4937 -0.0113
 3311TIP3    H1 9939   0.626   4.369   3.014 -0.2010 -2.8521 -1.1955
 3311TIP3    H2 9940   0.488   4.403   2.961  0.0677  0.4017 -0.0398
 3312TIP3   OH2 9941   2.480   3.869   0.911 -0.3031  0.3767  0.3252
 3312TIP3    H1 9942   2.495   3.820   0.830  0.2626  1.4059 -0.2084
 3312TIP3    H2 9943   2.386   3.889   0.909 -0.6366 -1.0182  0.7643
 3313TIP3   OH2 9944   5.012   3.876   2.533  0.9820  0.3841  0.2464
 3313TIP3    H1 9945   5.066   3.952   2.556  2.0204  0.4216 -2.0798
 3313TIP3    H2 9946   5.075   3.812   2.499 -0.3379  0.1600 -1.9045
 3314TIP3   OH2 9947   5.065   3.138   1.246  0.3302 -0.0021  0.8485
 3314TIP3    H1 9948   5.008   3.063   1.262  0.0911 -0.0021  0.0506
 3314TIP3    H2 9949   5.149   3.113   1.286 -0.2888  0.1266  2.2998
 3315TIP3   OH2 9950   4.368   5.671   0.586 -0.4655  0.4093  0.3486
 3315TIP3    H1 9951   4.426   5.728   0.636 -0.6232  0.6267  0.2861
 3315TIP3    H2 9952   4.290   5.662   0.640 -0.2170 -0.2042  0.6104
 3316TIP3   OH2 9953   6.338   1.117   4.307  0.6442  0.3632 -0.6408
 3316TIP3    H1 9954   6.285   1.048   4.267  1.6037 -0.4786 -0.4940
 3316TIP3    H2 9955   6.389   1.154   4.234 -0.8969  1.9184 -0.9874
 3317TIP3   OH2 9956   1.874   4.407   1.280  0.6062  0.2593 -0.0533
 3317TIP3    H1 9957   1.914   4.361   1.206  1.0370  1.2411 -0.4545
 3317TIP3    H2 9958   1.804   4.458   1.241 -0.5443 -0.8159  0.5353
 3318TIP3   OH2 9959   4.914   2.617   4.646  0.0476 -0.6230  0.1270
 3318TIP3    H1 9960   4.886   2.583   4.731 -0.3147  0.8968  0.6432
 3318TIP3    H2 9961   5.004   2.645   4.660 -0.6873  1.6916  0.7025
 3319TIP3   OH2 9962   2.536   0.672   0.735  0.9082 -0.0537 -0.4924
 3319TIP3    H1 9963   2.582   0.720   0.666  1.5413 -0.6785 -0.5233
 3319TIP3    H2 9964   2.484   0.738   0.779  1.2223  0.5326 -0.9731
 3320TIP3   OH2 9965   0.172   2.160   5.129  0.9804  0.1230  0.1412
 3320TIP3    H1 9966   0.192   2.252   5.146  1.1226  0.0226  0.5315
 3320TIP3    H2 9967   0.189   2.116   5.212  2.2123 -0.4723 -0.4080
 3321TIP3   OH2 9968   3.458   1.342   3.042  0.2440  0.1198  0.2570
 3321TIP3    H1 9969   3.522   1.272   3.049  0.1801  0.1342  1.1364
 3321TIP3    H2 9970   3.382   1.302   2.999  0.6699 -0.0106 -0.3792
 3322TIP3   OH2 9971   2.052   3.700   4.649 -0.4332 -0.1715 -0.0010
 3322TIP3    H1 9972   2.039   3.663   4.561 -0.8684  1.4125 -0.6243
 3322TIP3    H2 9973   2.024   3.791   4.641  0.8126  0.3739  1.4432
 3323TIP3   OH2 9974   4.100   1.363   0.727  0.1613 -0.3894 -0.3512
 3323TIP3    H1 9975   4.099   1.330   0.817 -0.0159 -0.1979 -0.2820
 3323TIP3    H2 9976   4.121   1.456   0.736 -0.9871 -0.1046 -0.4199
 3324TIP3   OH2 9977   6.200   1.000   1.626  0.4230 -0.1484 -0.3883
 3324TIP3    H1 9978   6.228   1.033   1.711  2.5894 -0.9992 -0.7092
 3324TIP3    H2 9979   6.192   1.079   1.571 -0.0637  0.3148  0.3290
 3325TIP3   OH2 9980   0.901   2.943   1.155  0.1699  0.1343 -0.2579
 3325TIP3    H1 9981   0.945   2.858   1.144 -1.3649 -0.4023 -4.0852
 3325TIP3    H2 9982   0.835   2.927   1.222 -1.3452 -2.4482 -2.1704
 3326TIP3   OH2 9983   4.842   5.357   3.856 -0.6616 -0.1369 -0.2076
 3326TIP3    H1 9984   4.931   5.373   3.888 -1.5031  1.2165  1.6196
 3326TIP3    H2 9985   4.809   5.285   3.909 -0.5081 -1.0172 -1.2610
 3327TIP3   OH2 9986   5.743   1.792   3.174  0.0337 -0.4275  0.2338
 3327TIP3    H1 9987   5.689   1.749   3.108  0.0006 -1.3324  0.8324
 3327TIP3    H2 9988   5.796   1.722   3.211  0.4526  0.1673  0.7910
 3328TIP3   OH2 9989   1.125   0.779   2.918 -0.0414  0.2325 -0.6278
 3328TIP3    H1 9990   1.057   0.720   2.885  0.7089 -1.2766  0.4481
 3328TIP3    H2 9991   1.129   0.849   2.852 -0.6148 -1.1560 -2.2081
 3329TIP3   OH2 9992   4.998   1.057   4.079 -0.0290 -0.3451 -0.4858
 3329TIP3    H1 9993   4.964   1.059   4.169 -2.8489  0.5945 -1.4489
 3329TIP3    H2 9994   5.040   1.143   4.068  0.3191 -0.4600 -0.0781
 3330TIP3   OH2 9995   4.271   4.483   4.816  0.4141  0.1894 -0.0052
 3330TIP3    H1 9996   4.200   4.545   4.803  0.9685  0.4344 -2.3105
 3330TIP3    H2 9997   4.228   4.401   4.839 -0.8100 -0.0255 -2.6692
 3331TIP3   OH2 9998   5.835   4.625   2.002  0.0533  0.0468 -0.4375
 3331TIP3    H1 9999   5.896   4.601   1.932  0.3658 -1.5066  0.3180
 3331TIP3    H210000   5.892   4.644   2.077 -0.3008  1.0905 -0.4290
 3332TIP3   OH210001   4.341   3.658   4.645 -0.0316  0.2974  0.3741
 3332TIP3    H110002   4.321   3.681   4.555  0.6688 -2.6932 -0.6696
 3332TIP3    H210003   4.410   3.719   4.671 -1.3855  2.2952 -0.4482
 3333TIP3   OH210004   3.405   5.354   1.729  0.0831  0.3744 -0.5768
 3333TIP3    H110005   3.407   5.267   1.687 -1.6088  0.8615 -1.7904
 3333TIP3    H210006   3.401   5.415   1.655  1.0037  1.4828  0.2722
 3334TIP3   OH210007   1.074   2.115   2.030  0.2662 -0.4362  0.2243
 3334TIP3    H110008   1.078   2.176   2.103 -2.3666 -0.0430  0.1394
 3334TIP3    H210009   1.102   2.167   1.954  0.4711 -0.0690  0.5494
 3335TIP3   OH210010   2.671   0.804   3.384  0.5483 -0.2745  0.3513
 3335TIP3    H110011   2.752   0.753   3.391 -0.3090 -1.4129  3.7320
 3335TIP3    H210012   2.612   0.749   3.333  1.6382  0.3461 -1.7010
 3336TIP3   OH210013   0.437   1.236   2.163 -0.2420 -0.0379  0.2331
 3336TIP3    H110014   0.502   1.299   2.132 -0.2648  0.1708  0.6018
 3336TIP3    H210015   0.484   1.182   2.226 -0.4438  0.1591  0.5543
 3337TIP3   OH210016   0.359   0.088   2.352 -0.1514 -0.0368  0.1386
 3337TIP3    H110017   0.297   0.160   2.360 -2.0399 -1.0724 -3.0958
 3337TIP3    H210018   0.404   0.103   2.269 -0.8173 -2.6087 -0.8062
 3338TIP3   OH210019   0.154   0.973   4.739  0.4215 -0.2659  0.2769
 3338TIP3    H110020   0.170   1.058   4.699  0.6940 -0.5388 -0.2037
 3338TIP3    H210021   0.076   0.940   4.694  0.4595 -0.3734  0.2895
 3339TIP3   OH210022   5.788   3.187   3.553  0.0340  0.0364 -0.0741
 3339TIP3    H110023   5.711   3.192   3.496 -0.3489  1.0570  0.5169
 3339TIP3    H210024   5.752   3.187   3.642  0.7192  0.9313  0.2133
 3340TIP3   OH210025   4.873   0.945   0.497 -0.1328 -0.1485  0.1598
 3340TIP3    H110026   4.831   1.021   0.458  0.9071  0.2365 -0.2561
 3340TIP3    H210027   4.904   0.894   0.422  1.5046  0.3846  0.4259
 3341TIP3   OH210028   3.447   0.128   0.685  0.2767 -0.1214  0.3265
 3341TIP3    H110029   3.496   0.210   0.697  1.3221 -0.7051  0.1973
 3341TIP3    H210030   3.355   0.154   0.689  0.5920  1.0362  0.4423
 3342TIP3   OH210031   3.489   0.502   3.533 -0.3280 -0.2593  0.4885
 3342TIP3    H110032   3.467   0.467   3.619  0.9526  1.2115  1.4831
 3342TIP3    H210033   3.448   0.589   3.531 -1.0798 -0.6140 -0.7559
 3343TIP3   OH210034   5.211   0.344   0.141  0.0426  0.4441 -0.2929
 3343TIP3    H110035   5.199   0.435   0.115 -0.3854  0.3219 -0.5340
 3343TIP3    H210036   5.302   0.339   0.169 -0.3533  1.3254  1.2919
 3344TIP3   OH210037   2.997   2.137   4.252  0.4138 -0.0792 -0.1483
 3344TIP3    H110038   2.933   2.092   4.198 -2.0358  0.7067  1.8998
 3344TIP3    H210039   3.067   2.161   4.192 -0.6228 -2.0343 -2.2725
 3345TIP3   OH210040   1.269   2.844   0.192 -0.5543 -0.1706  0.0885
 3345TIP3    H110041   1.315   2.760   0.185 -1.8824 -0.7879 -2.5577
 3345TIP3    H210042   1.189   2.824   0.241  0.0708  0.0139  1.1984
 3346TIP3   OH210043   1.753   4.325   3.763  0.2372 -0.0503 -0.0940
 3346TIP3    H110044   1.726   4.235   3.745  0.9701 -0.2104 -0.4636
 3346TIP3    H210045   1.815   4.345   3.692 -0.0571  0.8045 -0.1152
 3347TIP3   OH210046   5.482   1.020   2.624  0.0039 -0.1190 -0.2937
 3347TIP3    H110047   5.478   1.099   2.569 -0.3458 -0.7039 -1.1305
 3347TIP3    H210048   5.443   1.047   2.707 -1.0500  0.3244 -0.9081
 3348TIP3   OH210049   0.090   4.679   1.611  0.2817 -0.3481 -0.7226
 3348TIP3    H110050   0.173   4.630   1.609  0.3447 -0.3079  0.4877
 3348TIP3    H210051   0.036   4.637   1.544  1.9484  0.8851 -2.9940
 3349TIP3   OH210052   1.772   3.022   1.386 -0.1351  0.3019 -0.2674
 3349TIP3    H110053   1.688   3.066   1.373 -0.0911  0.5548  0.3129
 3349TIP3    H210054   1.817   3.074   1.453  1.0350  0.9531 -1.4942
 3350TIP3   OH210055   4.942   3.730   1.365 -0.3416 -0.1799  0.7946
 3350TIP3    H110056   4.903   3.734   1.452  1.2192  1.3035  1.4963
 3350TIP3    H210057   4.913   3.810   1.321  1.1052  0.4947  1.0085
 3351TIP3   OH210058   2.974   4.230   1.669  0.0861 -0.5966  0.2992
 3351TIP3    H110059   3.009   4.289   1.602  1.4513  0.4138  1.8221
 3351TIP3    H210060   3.040   4.162   1.677  0.9090  0.3369  1.9194
 3352TIP3   OH210061   1.799   1.255   2.912 -0.3899  0.1574 -0.2995
 3352TIP3    H110062   1.760   1.191   2.853  1.3532 -1.8029  0.5326
 3352TIP3    H210063   1.759   1.237   2.997  0.2669  0.0042 -0.0134
 3353TIP3   OH210064   1.188   1.266   3.214 -0.0400 -0.2612 -0.3070
 3353TIP3    H110065   1.224   1.186   3.175 -0.8401 -1.4671  1.3195
 3353TIP3    H210066   1.133   1.303   3.145 -0.0108 -1.3681 -0.9480
 3354TIP3   OH210067   5.393   5.605   1.049 -0.4358 -0.4414 -0.0404
 3354TIP3    H110068   5.359   5.694   1.059 -0.7691 -0.3994 -1.3334
 3354TIP3    H210069   5.488   5.617   1.041 -0.3331 -0.3414  1.1044
 3355TIP3   OH210070   3.956   4.874   4.677 -0.2147 -0.5155  0.2386
 3355TIP3    H110071   3.905   4.938   4.626  0.3258  0.4576  0.8910
 3355TIP3    H210072   3.935   4.894   4.768  0.2363 -1.0448  0.4641
 3356TIP3   OH210073   2.463   0.739   4.685  0.4967  0.5298 -0.7164
 3356TIP3    H110074   2.527   0.809   4.672  1.1182 -0.2364 -1.8873
 3356TIP3    H210075   2.460   0.692   4.602 -3.1558  1.7617 -1.5095
 3357TIP3   OH210076   2.023   4.124   1.933  0.3867 -0.3411  0.7808
 3357TIP3    H110077   1.938   4.081   1.944  0.5420 -0.2679  2.5712
 3357TIP3    H210078   2.002   4.212   1.902 -0.1188 -0.6408  0.2606
 3358TIP3   OH210079   2.556   5.615   2.893  0.2364 -0.1520 -0.2669
 3358TIP3    H110080   2.565   5.624   2.988 -0.6103  0.1816 -0.2036
 3358TIP3    H210081   2.597   5.532   2.872 -0.2269 -0.5894  0.5013
 3359TIP3   OH210082   3.274   5.454   3.176  0.4685  0.1047 -0.3015
 3359TIP3    H110083   3.288   5.405   3.256 -1.9602  0.3328  0.3481
 3359TIP3    H210084   3.200   5.512   3.196  1.5533  2.1625 -1.8531
 3360TIP3   OH210085   5.561   4.882   0.844  0.0934 -0.0504 -0.0119
 3360TIP3    H110086   5.545   4.920   0.758 -1.4794 -0.7369 -0.0596
 3360TIP3    H210087   5.618   4.806   0.827 -1.4346 -1.0973 -0.6878
 3361TIP3   OH210088   2.485   4.497   3.012  0.6025 -0.1775  0.1371
 3361TIP3    H110089   2.533   4.545   3.080  0.0255  2.3664 -1.1063
 3361TIP3    H210090   2.546   4.432   2.980  0.6325 -2.1068  3.5973
 3362TIP3   OH210091   3.260   0.615   3.333  0.1961  0.3952  0.0702
 3362TIP3    H110092   3.226   0.576   3.253  1.0495  2.0324 -1.1467
 3362TIP3    H210093   3.353   0.594   3.333  0.3013  0.8427  0.3744
 3363TIP3   OH210094   2.581   0.068   2.313  0.3547  0.9603  0.1321
 3363TIP3    H110095   2.602  -0.007   2.257  0.8053  0.7393  0.5843
 3363TIP3    H210096   2.574   0.031   2.401 -0.1801  1.3316  0.2489
 3364TIP3   OH210097   1.008   2.978   4.355  0.7262  0.3385  0.5731
 3364TIP3    H110098   0.946   2.909   4.379  1.8414 -0.5085  1.1052
 3364TIP3    H210099   0.962   3.060   4.375 -0.1968 -0.2667  0.9996
 3365TIP3   OH210100   4.356   3.322   2.894  0.2893 -0.1932  0.2668
 3365TIP3    H110101   4.419   3.297   2.826  0.4494 -0.5665  0.5447
 3365TIP3    H210102   4.321   3.406   2.865  1.2418  0.2381  0.3243
 3366TIP3   OH210103   1.056   0.003   3.896 -0.1719  0.0664  0.6896
 3366TIP3    H110104   1.004   0.054   3.834 -0.7262 -0.8127  0.4008
 3366TIP3    H210105   1.103   0.068   3.948 -2.1495  0.9576  1.4841
 3367TIP3   OH210106   2.704   1.331   1.650 -0.0981 -0.6446 -0.2046
 3367TIP3    H110107   2.769   1.369   1.709 -0.1021 -1.2791  0.2209
 3367TIP3    H210108   2.746   1.252   1.616 -0.8888 -1.4251  0.5942
 3368TIP3   OH210109   2.404   3.025   1.733  0.1501  0.3067  0.8669
 3368TIP3    H110110   2.490   3.017   1.773  1.3636  0.0492 -1.6386
 3368TIP3    H210111   2.347   2.972   1.788  2.6144 -3.7525 -0.1264
 3369TIP3   OH210112   3.066   4.116   0.269 -0.0698 -0.0231 -0.4428
 3369TIP3    H110113   2.971   4.117   0.259 -0.1555 -0.6269  0.2385
 3369TIP3    H210114   3.089   4.207   0.288 -0.7057 -0.1434  1.0117
 3370TIP3   OH210115   5.604   0.509   0.571 -0.2044 -0.4091 -0.3966
 3370TIP3    H110116   5.545   0.508   0.496  0.7842  0.4593 -1.2034
 3370TIP3    H210117   5.624   0.601   0.585 -3.8497  0.0760  3.7994
 3371TIP3   OH210118   5.452   4.911   0.531 -0.2891 -0.0046  0.3151
 3371TIP3    H110119   5.547   4.911   0.516 -0.3023 -2.2134 -0.0628
 3371TIP3    H210120   5.415   4.872   0.452 -1.3990 -0.5381  1.0684
 3372TIP3   OH210121   1.129   2.806   3.609 -0.0765  0.2303  0.1708
 3372TIP3    H110122   1.151   2.877   3.549 -0.1134  0.7891  0.8056
 3372TIP3    H210123   1.185   2.821   3.685  0.0743 -0.5541  0.2257
 3373TIP3   OH210124   2.157   1.345   3.346  0.0960  0.2820 -0.2028
 3373TIP3    H110125   2.100   1.396   3.289 -1.2101 -1.0930 -0.2067
 3373TIP3    H210126   2.243   1.387   3.339 -0.7030  1.8932 -0.8822
 3374TIP3   OH210127   0.125   5.632   0.281 -0.3814 -0.1460 -0.3726
 3374TIP3    H110128   0.067   5.669   0.347 -0.9276 -0.5120 -0.6386
 3374TIP3    H210129   0.102   5.679   0.200  1.0342  1.0798 -0.1029
 3375TIP3   OH210130   2.456   5.769   2.471  0.1275 -0.4158  0.5119
 3375TIP3    H110131   2.524   5.817   2.424  0.3302 -1.4274 -0.2575
 3375TIP3    H210132   2.503   5.716   2.535  0.0230 -0.6147  0.4281
 3376TIP3   OH210133   0.726   3.520   3.869 -0.0131 -0.2967 -0.2154
 3376TIP3    H110134   0.754   3.594   3.922  0.9903  1.0338 -2.4658
 3376TIP3    H210135   0.640   3.496   3.904  0.3114  0.9191  1.5383
 3377TIP3   OH210136   3.456   2.398   2.041 -0.2949  0.1989 -0.0384
 3377TIP3    H110137   3.528   2.410   2.102 -0.7100 -0.6978  0.6519
 3377TIP3    H210138   3.495   2.411   1.954  0.6414 -0.0739  0.3385
 3378TIP3   OH210139   1.723   1.611   3.633  0.2357 -0.0501 -0.0124
 3378TIP3    H110140   1.764   1.695   3.653 -0.0487 -0.3271  1.9762
 3378TIP3    H210141   1.630   1.629   3.630 -0.0166 -0.5851  2.5260
 3379TIP3   OH210142   5.353   2.393   0.817 -0.4897 -0.3727  0.0059
 3379TIP3    H110143   5.304   2.472   0.798 -2.1519 -1.3689  0.0086
 3379TIP3    H210144   5.394   2.369   0.734 -1.4024 -0.4638 -0.4221
 3380TIP3   OH210145   0.105   4.326   1.332 -0.0584  0.1268 -0.0646
 3380TIP3    H110146   0.173   4.261   1.315  1.9665  1.8028  1.1943
 3380TIP3    H210147   0.101   4.334   1.427 -1.1597  0.9625 -0.1513
 3381TIP3   OH210148   2.301   3.772   2.766  0.8123 -0.0256 -0.4038
 3381TIP3    H110149   2.345   3.763   2.850  0.3748  0.8617 -0.0592
 3381TIP3    H210150   2.348   3.842   2.721 -0.7689  1.6362  0.3738
 3382TIP3   OH210151   0.810   5.785   4.718  0.5014 -0.2789 -0.5942
 3382TIP3    H110152   0.872   5.754   4.653  1.0751  0.9666 -0.6739
 3382TIP3    H210153   0.733   5.729   4.707  0.8169 -0.4813 -1.9242
 3383TIP3   OH210154   0.836   0.775   2.126  0.3227  0.0399 -0.4175
 3383TIP3    H110155   0.794   0.724   2.195  1.3108  1.9842  1.7434
 3383TIP3    H210156   0.923   0.737   2.117  1.3616  1.6648  1.7747
 3384TIP3   OH210157   6.104   4.288   1.550  0.3397 -0.0142 -0.5425
 3384TIP3    H110158   6.197   4.263   1.545  0.2645 -0.1545 -1.4353
 3384TIP3    H210159   6.077   4.262   1.638  1.0931 -0.1792 -0.3523
 3385TIP3   OH210160   5.263   1.218   1.820 -0.5912  0.2682  0.1065
 3385TIP3    H110161   5.169   1.198   1.827 -0.4755 -0.3847 -0.1595
 3385TIP3    H210162   5.306   1.134   1.831 -0.0065  0.6329  0.6518
 3386TIP3   OH210163   3.010   1.057   4.644 -0.2471  0.2196 -0.5241
 3386TIP3    H110164   2.935   1.051   4.703 -2.1266 -2.0247 -2.9255
 3386TIP3    H210165   3.007   1.146   4.609  0.7288  1.5085  2.3406
 3387TIP3   OH210166   4.690   5.072   4.582  0.4772 -0.9505  0.4427
 3387TIP3    H110167   4.764   5.014   4.563  1.4328  0.4593 -0.2790
 3387TIP3    H210168   4.723   5.160   4.565 -1.2128 -0.2407  0.6335
 3388TIP3   OH210169   0.822   4.597   4.342  0.0636 -0.2960 -0.1852
 3388TIP3    H110170   0.850   4.518   4.295 -0.4870 -0.5053 -0.1732
 3388TIP3    H210171   0.743   4.625   4.297 -1.4797 -1.4819  1.6144
 3389TIP3   OH210172   4.295   3.589   2.810  0.6979  0.2836 -0.3687
 3389TIP3    H110173   4.323   3.561   2.723  0.3595  0.1681 -0.4442
 3389TIP3    H210174   4.334   3.675   2.822  2.3700 -0.5173  0.1602
 3390TIP3   OH210175   4.396   5.899   3.587 -0.0155 -0.0272  0.3021
 3390TIP3    H110176   4.438   5.822   3.548 -1.7038 -0.9313  0.1795
 3390TIP3    H210177   4.371   5.953   3.512 -1.2658 -0.6984  0.2073
 3391TIP3   OH210178   2.873   0.450   0.766 -0.5193  0.1353 -0.0413
 3391TIP3    H110179   2.872   0.509   0.841 -1.8685 -1.2180  1.0811
 3391TIP3    H210180   2.796   0.474   0.716 -2.5422 -2.1356  1.7378
 3392TIP3   OH210181   5.933   5.770   4.043 -0.6040  0.5554 -0.1970
 3392TIP3    H110182   5.883   5.836   3.995 -0.0225  0.9268 -0.3030
 3392TIP3    H210183   5.988   5.819   4.103  0.9886  0.2997 -1.3566
 3393TIP3   OH210184   5.074   2.869   3.654  0.1289  0.5607  0.0708
 3393TIP3    H110185   5.082   2.931   3.726 -3.3205  1.5246 -0.2053
 3393TIP3    H210186   5.020   2.798   3.688 -1.0404  0.7304 -1.3246
 3394TIP3   OH210187   6.241   3.192   0.942  0.2350  0.0913  0.0141
 3394TIP3    H110188   6.156   3.189   0.987  1.0750  0.4408  1.6986
 3394TIP3    H210189   6.240   3.114   0.886 -1.8322  0.9435 -1.2643
 3395TIP3   OH210190   1.786   4.118   2.636 -0.0916  0.8407 -0.5758
 3395TIP3    H110191   1.849   4.085   2.700 -0.6074  0.2551 -0.3585
 3395TIP3    H210192   1.809   4.211   2.625  0.9896  0.5672 -0.7284
 3396TIP3   OH210193   1.109   5.125   0.486  0.2810  0.2683  0.7593
 3396TIP3    H110194   1.147   5.046   0.524 -1.0321 -0.1995  1.1255
 3396TIP3    H210195   1.098   5.105   0.393  2.0979  0.8841  0.3559
 3397TIP3   OH210196   5.759   5.243   2.502 -0.4120  1.2590 -0.5474
 3397TIP3    H110197   5.676   5.290   2.504 -1.4201 -0.3509 -1.7656
 3397TIP3    H210198   5.774   5.225   2.409  0.4566  0.1317 -0.2090
 3398TIP3   OH210199   4.645   3.324   2.108  0.1228 -0.4396  0.2948
 3398TIP3    H110200   4.717   3.385   2.091  0.4484 -1.0057 -0.3971
 3398TIP3    H210201   4.566   3.378   2.099  0.4559  0.2181  1.2020
 3399TIP3   OH210202   5.556   5.552   4.815 -0.2446  0.5548  0.1547
 3399TIP3    H110203   5.592   5.637   4.789 -0.0878  0.4448  0.0141
 3399TIP3    H210204   5.493   5.573   4.884 -0.1786  0.7821  0.1457
 3400TIP3   OH210205   1.967   4.447   4.330  0.6591 -0.6364 -0.4054
 3400TIP3    H110206   1.987   4.354   4.337 -0.3812 -0.9525 -1.2937
 3400TIP3    H210207   2.031   4.490   4.387  0.9140 -1.9172  0.3204
 3401TIP3   OH210208   4.109   2.096   2.324  0.4841  0.0194 -0.0484
 3401TIP3    H110209   4.092   2.065   2.235 -1.9683  1.3502 -0.1556
 3401TIP3    H210210   4.174   2.036   2.359 -0.3851 -2.1331 -1.8602
 3402TIP3   OH210211   0.227   4.143   1.862  0.0730  0.2649  0.5439
 3402TIP3    H110212   0.282   4.166   1.936 -0.0248 -0.0836  0.7270
 3402TIP3    H210213   0.139   4.170   1.887  0.1543  0.8288  0.2485
 3403TIP3   OH210214   0.712   3.335   1.498  0.0457 -0.5905 -0.6328
 3403TIP3    H110215   0.682   3.403   1.437 -0.3626  0.6578  0.8835
 3403TIP3    H210216   0.635   3.280   1.512  0.4055 -1.4609 -1.9449
 3404TIP3   OH210217   3.470   1.320   4.678 -0.5194  0.7342  0.5271
 3404TIP3    H110218   3.561   1.347   4.692 -0.2933  1.1912 -1.4645
 3404TIP3    H210219   3.421   1.364   4.747  0.5312  2.1787  0.4161
 3405TIP3   OH210220   3.140   2.508   1.084 -0.4235  0.7540  0.1931
 3405TIP3    H110221   3.092   2.425   1.088  1.5383 -0.7947 -3.4213
 3405TIP3    H210222   3.085   2.564   1.028  0.5077  0.0048 -1.5459
 3406TIP3   OH210223   0.296   1.855   0.270  0.3843  0.7734  0.0793
 3406TIP3    H110224   0.336   1.942   0.267 -0.4587  1.1561 -0.3848
 3406TIP3    H210225   0.213   1.868   0.315  0.1867  0.2383 -0.1225
 3407TIP3   OH210226   5.536   3.231   3.456  0.1901 -0.0145 -0.1271
 3407TIP3    H110227   5.533   3.327   3.463 -1.0972 -0.1427  2.8792
 3407TIP3    H210228   5.445   3.204   3.460  0.5712 -1.3977 -0.3036
 3408TIP3   OH210229   0.836   1.539   2.884  0.4364  0.1571  0.5783
 3408TIP3    H110230   0.823   1.456   2.838 -0.5596  0.2613  0.6535
 3408TIP3    H210231   0.833   1.605   2.815  0.4156  0.1935  0.6143
 3409TIP3   OH210232   3.950   5.285   3.203  0.6136  0.0993 -0.2437
 3409TIP3    H110233   3.876   5.225   3.193  1.2412 -0.7088 -0.1775
 3409TIP3    H210234   3.957   5.329   3.118  0.1783  0.0447 -0.3100
 3410TIP3   OH210235   2.457   3.902   1.837  0.1987 -0.1902 -0.2801
 3410TIP3    H110236   2.459   3.848   1.758 -0.0913 -1.6717  0.7045
 3410TIP3    H210237   2.542   3.947   1.837  0.4317 -0.6135 -1.1251
 3411TIP3   OH210238   1.976   4.714   4.202 -0.1971  0.2163  0.5612
 3411TIP3    H110239   1.934   4.718   4.116 -0.9120 -0.4302  0.8707
 3411TIP3    H210240   1.939   4.636   4.243 -0.6067  1.0517  1.8379
 3412TIP3   OH210241   0.507   1.181   0.766 -0.1458 -0.2739 -0.4182
 3412TIP3    H110242   0.570   1.232   0.817  0.3058 -1.0153 -0.2063
 3412TIP3    H210243   0.423   1.223   0.782  0.1549  0.1609  0.0673
 3413TIP3   OH210244   3.362   5.206   1.998 -0.3561  0.0105  0.0695
 3413TIP3    H110245   3.296   5.235   1.935  0.4160  1.8624  0.0534
 3413TIP3    H210246   3.329   5.237   2.083  0.0594  0.1782  0.1702
 3414TIP3   OH210247   0.042   5.513   1.341 -0.1595  0.5704 -0.1433
 3414TIP3    H110248   0.100   5.569   1.393 -0.8671  0.4943  0.7648
 3414TIP3    H210249  -0.025   5.573   1.308 -0.4323  0.4142  0.1150
 3415TIP3   OH210250   0.717   5.900   3.676  0.2512  0.0552  0.0350
 3415TIP3    H110251   0.668   5.818   3.668  0.5906 -0.2261  0.8014
 3415TIP3    H210252   0.655   5.961   3.716 -0.5529  0.6796 -2.0303
 3416TIP3   OH210253   3.814   1.992   3.254 -0.4726 -1.0291  0.3446
 3416TIP3    H110254   3.769   2.007   3.171 -0.8030 -1.0147  0.5237
 3416TIP3    H210255   3.850   2.077   3.277  0.1766 -1.1774 -0.1058
 3417TIP3   OH210256   2.280   5.004   4.532  0.4334  0.7491 -0.6877
 3417TIP3    H110257   2.332   5.033   4.458  0.8826  0.8721 -0.3317
 3417TIP3    H210258   2.189   5.007   4.502  0.4419  2.6959 -0.6011
 3418TIP3   OH210259   6.083   0.012   1.122 -0.1266  0.5100 -0.5031
 3418TIP3    H110260   6.135   0.069   1.064  0.6449  1.9721  1.5131
 3418TIP3    H210261   6.147  -0.028   1.181 -0.9637 -0.3339 -0.1393
 3419TIP3   OH210262   4.134   1.381   3.740  0.0176  0.2021  0.7118
 3419TIP3    H110263   4.178   1.297   3.724  0.7518  1.0354 -2.3278
 3419TIP3    H210264   4.046   1.356   3.768  0.9624 -1.5320  2.3936
 3420TIP3   OH210265   1.659   4.545   2.117  0.2599 -0.0610  0.4276
 3420TIP3    H110266   1.654   4.459   2.160  0.6285 -1.3195 -1.8545
 3420TIP3    H210267   1.667   4.524   2.024  0.9731  2.4663 -0.1491
 3421TIP3   OH210268   6.199   2.962   2.166 -0.1697 -0.0227  0.0037
 3421TIP3    H110269   6.249   3.039   2.192  0.7807 -1.1495  1.6643
 3421TIP3    H210270   6.113   2.997   2.141 -0.0012  1.5097  1.3986
 3422TIP3   OH210271   6.123   5.473   1.976  0.2807  0.4215 -0.2552
 3422TIP3    H110272   6.070   5.446   2.051  0.2762 -1.4860 -0.9087
 3422TIP3    H210273   6.094   5.418   1.904  2.4483  0.0005 -0.8786
 3423TIP3   OH210274   0.059   3.927   0.577  0.4057  1.0376  0.1436
 3423TIP3    H110275   0.155   3.927   0.574  0.3823  0.7556 -1.4442
 3423TIP3    H210276   0.035   4.015   0.605  1.1260  1.3794 -0.2831
 3424TIP3   OH210277   6.297   4.588   2.225 -0.0724  0.0594  0.0909
 3424TIP3    H110278   6.382   4.623   2.199 -0.1806 -0.2991 -0.7704
 3424TIP3    H210279   6.317   4.505   2.268  0.0413  0.1517  0.2144
 3425TIP3   OH210280   3.348   1.925   5.088  0.1444 -0.5920  0.2558
 3425TIP3    H110281   3.361   1.925   5.183 -1.3228 -0.3300  0.4863
 3425TIP3    H210282   3.336   1.832   5.066  3.8745 -1.0940 -0.2615
 3426TIP3   OH210283   1.062   5.820   0.563 -0.0868  0.2735  0.4436
 3426TIP3    H110284   1.157   5.814   0.550  0.0405 -0.6346  1.6210
 3426TIP3    H210285   1.052   5.842   0.655 -1.0458 -1.1474  0.7057
 3427TIP3   OH210286   5.085   3.462   3.678 -0.2161  0.1911  0.3229
 3427TIP3    H110287   5.149   3.528   3.652 -2.4032  1.9193 -1.1174
 3427TIP3    H210288   5.071   3.409   3.599 -0.3640 -0.3435  0.6976
 3428TIP3   OH210289   4.892   3.832   3.754  0.1146  0.2635  0.7576
 3428TIP3    H110290   4.877   3.921   3.723 -0.8776  0.1743  0.9406
 3428TIP3    H210291   4.904   3.780   3.675 -1.7310  0.1508  0.5196
 3429TIP3   OH210292   1.072   1.281   3.447 -0.5624 -0.0766 -0.3488
 3429TIP3    H110293   1.123   1.360   3.465  0.3699 -0.9315  1.0026
 3429TIP3    H210294   1.100   1.252   3.361  0.8811 -0.2205  0.1379
 3430TIP3   OH210295   3.007   2.800   2.358  0.2647 -0.4372 -0.1471
 3430TIP3    H110296   2.943   2.800   2.429  0.0440  0.5348 -0.3228
 3430TIP3    H210297   2.955   2.788   2.279  0.5245 -1.6532 -0.1462
 3431TIP3   OH210298   3.164   3.104   0.606  0.0182 -0.3643 -0.0807
 3431TIP3    H110299   3.219   3.048   0.662  1.8339  1.6874  0.3257
 3431TIP3    H210300   3.091   3.128   0.662 -0.9812 -2.5147 -0.3674
 3432TIP3   OH210301   2.817   0.839   0.561  0.6797  0.3682  0.0816
 3432TIP3    H110302   2.735   0.845   0.512 -0.4884 -0.1898  1.8609
 3432TIP3    H210303   2.885   0.853   0.495 -0.7088 -1.6710 -1.9673
 3433TIP3   OH210304   4.020   5.662   0.461 -0.1845  0.0036 -0.1714
 3433TIP3    H110305   4.076   5.638   0.387  0.0771  0.9936 -0.3143
 3433TIP3    H210306   4.036   5.755   0.474 -0.9684  0.0584  0.5126
 3434TIP3   OH210307   1.361   0.388   0.620 -0.5312 -0.2954  0.3518
 3434TIP3    H110308   1.308   0.353   0.548  0.4996  1.0503 -1.1170
 3434TIP3    H210309   1.296   0.423   0.682 -1.4129  0.2244 -0.8239
 3435TIP3   OH210310   3.938   1.912   4.511 -0.3549  0.3628 -0.7180
 3435TIP3    H110311   3.885   1.834   4.500 -0.8028  0.7241 -1.1494
 3435TIP3    H210312   3.915   1.968   4.437 -0.8360  1.3583  0.1611
 3436TIP3   OH210313   5.919   2.651   4.221 -0.3577 -0.7872  0.3283
 3436TIP3    H110314   5.904   2.565   4.259  0.5433 -1.1111 -0.0220
 3436TIP3    H210315   5.842   2.667   4.167 -0.9088 -1.0103  1.0229
 3437TIP3   OH210316   5.935   0.133   2.568  0.1334  0.2617  0.4331
 3437TIP3    H110317   5.972   0.047   2.550  0.0783 -0.0900  1.9063
 3437TIP3    H210318   5.985   0.193   2.512  1.9486 -0.4002  1.2522
 3438TIP3   OH210319   0.730   4.668   4.606 -0.4219 -0.4222 -0.2711
 3438TIP3    H110320   0.753   4.619   4.527  0.5892 -0.3559 -0.0283
 3438TIP3    H210321   0.768   4.617   4.677 -1.7724 -0.7688  0.2484
 3439TIP3   OH210322   4.711   0.439   3.933 -1.0687 -0.4238 -0.1591
 3439TIP3    H110323   4.644   0.471   3.873 -0.6991  0.2307 -0.2311
 3439TIP3    H210324   4.662   0.406   4.009 -1.5417 -1.3321 -0.8496
 3440TIP3   OH210325   5.656   0.482   1.584 -0.8300 -0.0531  0.0764
 3440TIP3    H110326   5.589   0.473   1.516 -0.3842 -1.4814 -0.2118
 3440TIP3    H210327   5.660   0.395   1.625 -1.3226  0.8534  2.1721
 3441TIP3   OH210328   3.273   4.983   4.787  0.0035  0.2395  0.4922
 3441TIP3    H110329   3.276   5.074   4.816  1.1128  0.7238 -0.9723
 3441TIP3    H210330   3.274   4.989   4.691  0.1779 -1.3122  0.3716
 3442TIP3   OH210331   4.615   0.299   4.432  0.4158 -0.1444  0.1850
 3442TIP3    H110332   4.636   0.359   4.505  1.5370 -2.3775  1.8080
 3442TIP3    H210333   4.595   0.216   4.474 -1.5432 -0.8829 -1.9819
 3443TIP3   OH210334   1.753   2.747   1.362  0.0987  0.3200 -0.2935
 3443TIP3    H110335   1.772   2.731   1.454 -1.2981  0.2168 -0.0044
 3443TIP3    H210336   1.749   2.843   1.355 -1.0680  0.3123  0.0493
 3444TIP3   OH210337   1.687   3.102   1.833 -0.0453 -0.2403  0.0792
 3444TIP3    H110338   1.696   3.165   1.762  2.2994  0.5973  1.0436
 3444TIP3    H210339   1.721   3.020   1.797 -1.7153 -0.6536 -0.6857
 3445TIP3   OH210340   4.538   1.919   3.128 -0.6303  0.2915  0.1014
 3445TIP3    H110341   4.496   1.845   3.085  0.8990 -0.4366 -0.1873
 3445TIP3    H210342   4.550   1.891   3.219  2.1819 -0.8581 -0.5496
 3446TIP3   OH210343   0.688   5.160   5.107 -0.2186 -0.3467  0.2306
 3446TIP3    H110344   0.765   5.170   5.161  1.2953 -1.4709 -1.5716
 3446TIP3    H210345   0.636   5.092   5.151 -0.4164  0.7100  1.6697
 3447TIP3   OH210346   6.039   2.044   0.216 -0.3391  0.5485 -0.4968
 3447TIP3    H110347   6.031   2.007   0.128  1.4211  0.6069 -0.7230
 3447TIP3    H210348   6.089   1.980   0.265 -0.3826  0.9991  0.1512
 3448TIP3   OH210349   4.177   0.931   0.455 -0.4260  0.3259  0.1623
 3448TIP3    H110350   4.182   1.017   0.498 -0.0279  0.1566  0.4732
 3448TIP3    H210351   4.085   0.921   0.432 -0.6109  0.5249  0.7790
 3449TIP3   OH210352   4.871   3.769   2.870 -0.3799 -0.7193 -0.4575
 3449TIP3    H110353   4.782   3.751   2.838 -1.1742  1.2355  0.4677
 3449TIP3    H210354   4.912   3.819   2.799 -0.6744 -0.0508 -0.1688
 3450TIP3   OH210355   3.174   1.246   3.789  0.0130  0.1980 -0.1446
 3450TIP3    H110356   3.192   1.338   3.807 -1.8083  0.6855 -0.6593
 3450TIP3    H210357   3.231   1.198   3.849  2.6058  1.5771 -1.3353
 3451TIP3   OH210358   3.057   2.242   2.558  0.1011  0.1626  0.2495
 3451TIP3    H110359   2.969   2.279   2.563  0.1696  0.7113 -1.7758
 3451TIP3    H210360   3.115   2.317   2.564  0.2742  0.3532 -2.4538
 3452TIP3   OH210361   5.872   0.047   3.141  0.1926 -0.5139  0.1912
 3452TIP3    H110362   5.838   0.132   3.168  1.9095  0.5193 -0.7022
 3452TIP3    H210363   5.814   0.019   3.071 -0.6199 -0.2775  0.7554
 3453TIP3   OH210364   1.508   2.819   3.646 -0.1295 -0.8140 -0.1422
 3453TIP3    H110365   1.591   2.798   3.690  0.0624  0.4331  0.1351
 3453TIP3    H210366   1.443   2.817   3.716  0.2174  1.4322  0.3290
 3454TIP3   OH210367   0.487   5.701   4.195 -0.2901 -0.0280 -0.4875
 3454TIP3    H110368   0.499   5.626   4.254  4.1974  0.6887 -0.1229
 3454TIP3    H210369   0.516   5.669   4.110  1.0065  1.0598 -0.4733
 3455TIP3   OH210370   6.152   3.277   3.621 -0.2100  0.0486 -0.2394
 3455TIP3    H110371   6.121   3.228   3.696 -0.2556  0.8437  0.2747
 3455TIP3    H210372   6.245   3.254   3.614 -0.3092 -0.3657 -0.2169
 3456TIP3   OH210373   1.290   4.959   2.553 -0.2309  0.2345  0.4555
 3456TIP3    H110374   1.340   4.940   2.473  0.0326  0.5506  0.5437
 3456TIP3    H210375   1.357   4.970   2.621 -0.4189  0.6790  0.5723
 3457TIP3   OH210376   4.848   3.158   0.347 -0.0618  0.2507 -0.1656
 3457TIP3    H110377   4.755   3.156   0.322 -0.0242 -0.1924 -0.2824
 3457TIP3    H210378   4.876   3.246   0.326  0.0445 -0.1887 -2.0487
 3458TIP3   OH210379   4.505   1.580   0.013 -0.0105 -0.1951 -0.5630
 3458TIP3    H110380   4.434   1.586  -0.051 -0.6188  0.8381  0.1774
 3458TIP3    H210381   4.475   1.633   0.087  1.5384  0.2615 -0.2320
 3459TIP3   OH210382   0.109   3.442   2.304 -0.2205  0.5136  0.0284
 3459TIP3    H110383   0.169   3.502   2.261  1.6778 -1.2995  0.0447
 3459TIP3    H210384   0.101   3.477   2.393  0.0745  1.2781 -0.2345
 3460TIP3   OH210385   3.314   4.914   0.325 -0.0842  0.1227  0.1184
 3460TIP3    H110386   3.249   4.958   0.271  0.5118 -0.2182 -0.9113
 3460TIP3    H210387   3.301   4.949   0.413 -0.9271  0.8583 -0.2893
 3461TIP3   OH210388   0.574   5.059   1.086 -0.3056 -0.1759 -0.2347
 3461TIP3    H110389   0.576   5.152   1.110 -0.2037 -0.3110  0.2889
 3461TIP3    H210390   0.487   5.029   1.113  0.2442 -0.6208  1.1020
 3462TIP3   OH210391   3.917   5.192   3.920  0.0311  0.0597  0.2092
 3462TIP3    H110392   3.848   5.225   3.978 -0.1408  0.9381 -0.4674
 3462TIP3    H210393   3.996   5.192   3.975 -0.3466 -0.1725  0.7553
 3463TIP3   OH210394   3.149   1.523   1.862  0.8047 -0.6214  0.0084
 3463TIP3    H110395   3.218   1.510   1.927  0.9656 -1.3686 -0.2937
 3463TIP3    H210396   3.069   1.533   1.913  1.0632 -0.3046  0.3468
 3464TIP3   OH210397   2.019   3.988   2.382  0.1097 -0.2471  0.0082
 3464TIP3    H110398   2.014   3.900   2.419  1.1297 -0.7874 -1.0804
 3464TIP3    H210399   2.097   3.986   2.326  0.0328  1.2902 -0.1875
 3465TIP3   OH210400   1.254   0.879   4.128 -0.5620 -0.7776  0.4664
 3465TIP3    H110401   1.162   0.855   4.130 -1.1564  1.3089  2.3000
 3465TIP3    H210402   1.291   0.840   4.208  0.3318 -2.0468 -0.5111
 3466TIP3   OH210403   1.318   0.656   2.351  0.1237  0.0256  0.0045
 3466TIP3    H110404   1.270   0.739   2.340  1.5842  0.9656  0.5227
 3466TIP3    H210405   1.355   0.639   2.264  0.6060  0.4101  0.1357
 3467TIP3   OH210406   0.726   3.741   0.288  0.1650 -0.4567  0.2775
 3467TIP3    H110407   0.715   3.722   0.195 -1.4812  1.8462 -0.0861
 3467TIP3    H210408   0.815   3.712   0.308  0.7143 -0.6383 -2.1200
 3468TIP3   OH210409   0.241   3.632   3.297  0.5503  0.6168 -0.4269
 3468TIP3    H110410   0.318   3.614   3.243  0.4885 -0.4699 -0.1804
 3468TIP3    H210411   0.276   3.669   3.378  0.8994 -0.5979  0.0014
 3469TIP3   OH210412   1.033   1.561   0.217 -0.2045  0.5921 -0.4562
 3469TIP3    H110413   1.084   1.633   0.254  0.1044  0.1973 -0.1046
 3469TIP3    H210414   1.016   1.587   0.126  2.0770 -0.0095 -1.1118
 3470TIP3   OH210415   3.654   1.511   2.965 -0.3276 -0.0528 -0.2823
 3470TIP3    H110416   3.581   1.455   2.991 -0.4335 -0.0848 -0.6466
 3470TIP3    H210417   3.626   1.599   2.990 -0.5697 -0.0422 -0.5841
 3471TIP3   OH210418   2.386   1.581   2.288  0.6975  0.3150  0.3321
 3471TIP3    H110419   2.356   1.671   2.291 -1.2202 -0.2750  0.1057
 3471TIP3    H210420   2.432   1.573   2.204 -1.0555  0.5461 -0.6968
 3472TIP3   OH210421   6.296   1.286   4.020 -0.5325  0.4051  0.3399
 3472TIP3    H110422   6.279   1.214   4.081  0.2037  0.6289  0.8230
 3472TIP3    H210423   6.391   1.294   4.018 -0.5306  0.2532 -1.0340
 3473TIP3   OH210424   3.074   3.013   0.223  0.0669  0.1795 -1.0173
 3473TIP3    H110425   3.071   2.921   0.250 -0.0694  0.1905 -0.9905
 3473TIP3    H210426   2.988   3.048   0.249  0.2365  0.3968 -0.7290
 3474TIP3   OH210427   4.931   0.476   1.985 -0.0995 -0.2978 -0.4042
 3474TIP3    H110428   4.921   0.511   2.074  0.1211 -1.5482  0.1331
 3474TIP3    H210429   4.906   0.384   1.993  0.0428 -0.4512 -1.6211
 3475TIP3   OH210430   5.302   0.566   5.092 -0.7499  0.2695 -0.1728
 3475TIP3    H110431   5.266   0.494   5.144 -3.0707  2.3303  1.3039
 3475TIP3    H210432   5.260   0.556   5.006 -0.1631 -0.7606 -0.3519
 3476TIP3   OH210433   6.236   5.683   0.449  0.0830  0.1189 -1.3470
 3476TIP3    H110434   6.192   5.762   0.416 -0.6967 -0.4367 -1.6621
 3476TIP3    H210435   6.273   5.711   0.533  1.0112  1.1997 -2.0874
 3477TIP3   OH210436   2.377   1.331   0.318 -0.1784  0.3801  0.4352
 3477TIP3    H110437   2.379   1.378   0.402  0.4625  0.2705  0.4831
 3477TIP3    H210438   2.367   1.400   0.253  0.1769  0.5397  0.5453
 3478TIP3   OH210439   3.872   0.826   4.444  0.1361  0.0577 -0.2471
 3478TIP3    H110440   3.808   0.757   4.428  0.8696 -0.3629 -1.4672
 3478TIP3    H210441   3.824   0.893   4.493 -1.3496 -0.0594 -1.4820
 3479TIP3   OH210442   3.782   3.242   1.155 -0.2309  0.2700 -0.0813
 3479TIP3    H110443   3.797   3.148   1.163  0.1007  0.3359  0.0990
 3479TIP3    H210444   3.747   3.254   1.067 -0.9453 -0.1015  0.1431
 3480TIP3   OH210445   2.893   5.651   4.451  0.2946  0.3383  0.4689
 3480TIP3    H110446   2.858   5.737   4.428  1.7786  1.1871  1.2042
 3480TIP3    H210447   2.863   5.635   4.541 -0.7274 -0.3381  0.0178
 3481TIP3   OH210448   4.187   2.914   1.033 -0.2638 -0.4208 -0.4337
 3481TIP3    H110449   4.180   3.010   1.035  0.9376 -0.3216  0.1127
 3481TIP3    H210450   4.097   2.883   1.036 -0.6465  0.6891  0.3077
 3482TIP3   OH210451   0.058   0.439   2.764 -0.1009 -0.2990 -0.0577
 3482TIP3    H110452   0.114   0.374   2.806 -1.2054 -0.5760  1.0032
 3482TIP3    H210453  -0.031   0.414   2.786 -0.6125  0.8459 -0.7055
 3483TIP3   OH210454   0.799   4.349   4.511 -0.1286  0.0067 -0.1188
 3483TIP3    H110455   0.741   4.324   4.583 -0.8413  1.4931 -0.1328
 3483TIP3    H210456   0.757   4.311   4.433  0.2876 -1.0325  0.1376
 3484TIP3   OH210457   4.676   5.162   5.024  0.3769  0.3348  0.0086
 3484TIP3    H110458   4.632   5.140   4.942 -0.1835  1.6754 -0.0637
 3484TIP3    H210459   4.630   5.110   5.090 -0.5143  0.7770 -0.2470
 3485TIP3   OH210460   1.386   0.521   0.973 -0.2863  0.1486 -0.2176
 3485TIP3    H110461   1.342   0.478   1.047 -0.1136  0.7688  0.2573
 3485TIP3    H210462   1.404   0.610   1.005 -1.6735  0.9640 -1.5675
 3486TIP3   OH210463   2.530   4.847   3.135 -0.6082  0.1412 -0.1420
 3486TIP3    H110464   2.482   4.852   3.217  0.7345  0.5085  0.6485
 3486TIP3    H210465   2.572   4.761   3.135  0.2901  0.5619  0.0992
 3487TIP3   OH210466   0.104   0.962   3.120 -0.7903  0.6399  0.6061
 3487TIP3    H110467   0.081   0.979   3.029 -2.5618  0.2647  0.9325
 3487TIP3    H210468   0.187   1.007   3.133 -0.5716  0.8180 -1.1454
 3488TIP3   OH210469   2.695   1.637   5.163  0.2816  0.0774  0.3528
 3488TIP3    H110470   2.710   1.542   5.160 -1.6694 -0.2397 -1.1310
 3488TIP3    H210471   2.726   1.669   5.078 -1.3810  0.3556 -0.1737
 3489TIP3   OH210472   6.176   5.792   1.085 -0.1290 -0.2532  0.3420
 3489TIP3    H110473   6.155   5.796   0.992  1.4207 -0.7010 -0.0539
 3489TIP3    H210474   6.234   5.867   1.100  0.7056 -0.9482  0.6392
 3490TIP3   OH210475   3.147   2.108   3.255  0.1361  0.2749 -0.3865
 3490TIP3    H110476   3.240   2.087   3.255  0.2898  0.9342 -0.2318
 3490TIP3    H210477   3.143   2.199   3.225 -0.3712  0.5955  0.6240
 3491TIP3   OH210478   4.358   3.967   0.677  0.1751  0.4529  0.4301
 3491TIP3    H110479   4.369   4.058   0.705 -0.5728  0.6852 -0.0190
 3491TIP3    H210480   4.320   3.922   0.752 -3.4830  1.4473 -0.6414
 3492TIP3   OH210481   4.047   1.021   3.620  0.0472 -0.0850 -0.0574
 3492TIP3    H110482   4.090   0.951   3.571 -0.8702  0.2916 -1.4246
 3492TIP3    H210483   4.119   1.080   3.643  0.7093 -1.0213  0.4012
 3493TIP3   OH210484   0.879   2.392   3.768  0.1354 -0.1404  0.0103
 3493TIP3    H110485   0.969   2.374   3.796  0.3570  1.5571  0.4500
 3493TIP3    H210486   0.864   2.483   3.791 -2.0509 -0.6450  0.8170
 3494TIP3   OH210487   5.251   4.229   1.577 -0.0587  0.0678  0.0579
 3494TIP3    H110488   5.187   4.263   1.514 -0.7556 -0.3146  0.5425
 3494TIP3    H210489   5.304   4.305   1.600 -0.9596  0.6136  0.3688
 3495TIP3   OH210490   5.268   4.386   3.733  0.2349  0.2342 -0.3563
 3495TIP3    H110491   5.357   4.382   3.768  0.4868 -0.3923 -1.0393
 3495TIP3    H210492   5.279   4.400   3.639 -0.3287 -1.3669 -0.7007
 3496TIP3   OH210493   4.056   2.619   4.469  0.1816 -0.0758  0.0559
 3496TIP3    H110494   4.051   2.533   4.510  0.8857  0.0953  0.5137
 3496TIP3    H210495   3.970   2.658   4.484 -0.3230 -0.9011 -0.6266
 3497TIP3   OH210496   1.351   5.906   3.810 -0.1374  0.4626 -0.3367
 3497TIP3    H110497   1.427   5.864   3.851  1.1798  1.5679 -1.5458
 3497TIP3    H210498   1.388   5.962   3.742 -2.0789  0.6466 -1.3256
 3498TIP3   OH210499   3.758   5.970   4.906 -0.6862  0.0110 -0.1536
 3498TIP3    H110500   3.770   5.879   4.931 -0.6378 -0.2848 -1.1778
 3498TIP3    H210501   3.666   5.976   4.879 -0.4633  0.0414 -0.9279
 3499TIP3   OH210502   6.307   3.865   4.258  0.3835 -0.5466 -0.3483
 3499TIP3    H110503   6.326   3.771   4.263 -0.6010 -0.8020 -1.1467
 3499TIP3    H210504   6.393   3.907   4.259  0.8139 -1.3968  0.9028
 3500TIP3   OH210505   1.108   2.145   1.741 -0.0785 -0.3877 -0.4075
 3500TIP3    H110506   1.063   2.147   1.656  2.0964 -2.0364 -1.6800
 3500TIP3    H210507   1.199   2.129   1.719  0.7229  0.1816  2.2381
 3501TIP3   OH210508   3.789   4.917   4.142 -0.6073  0.0756 -0.0455
 3501TIP3    H110509   3.719   4.872   4.190 -1.1369 -0.0132 -0.8583
 3501TIP3    H210510   3.742   4.966   4.074 -0.1229  2.6090  1.3468
 3502TIP3   OH210511   6.060   0.196   4.900  0.5415  0.0138  0.0452
 3502TIP3    H110512   5.998   0.123   4.897 -0.2334  0.6582 -0.0130
 3502TIP3    H210513   6.145   0.154   4.914 -0.0613 -0.8182  1.5093
 3503TIP3   OH210514   3.979   3.541   4.022 -0.1052 -0.0834  0.2853
 3503TIP3    H110515   3.929   3.460   4.028  0.2280 -0.3809 -0.6909
 3503TIP3    H210516   4.066   3.519   4.055 -0.0204 -0.1263  0.0383
 3504TIP3   OH210517   2.741   4.206   2.600  0.4633 -0.4914  0.1555
 3504TIP3    H110518   2.727   4.259   2.522  2.8004  0.2608  0.1626
 3504TIP3    H210519   2.835   4.211   2.616  0.2685 -1.8714  2.1586
 3505TIP3   OH210520   3.167   0.151   0.681 -0.8288 -0.3102  0.1004
 3505TIP3    H110521   3.103   0.110   0.739  1.6652 -2.2433  1.7021
 3505TIP3    H210522   3.118   0.172   0.601 -3.5197 -1.1359  1.4279
 3506TIP3   OH210523   2.559   0.410   0.087 -0.5874 -0.3542  0.1728
 3506TIP3    H110524   2.560   0.426   0.181 -0.9875  0.3656  0.0656
 3506TIP3    H210525   2.629   0.465   0.052 -1.9911  1.2678 -0.2064
 3507TIP3   OH210526   2.711   5.130   3.073 -0.3101 -0.2509 -0.3323
 3507TIP3    H110527   2.618   5.115   3.059 -0.4825  1.0311 -0.6263
 3507TIP3    H210528   2.748   5.042   3.081 -2.1081 -0.8471  3.8793
 3508TIP3   OH210529   2.955   5.241   1.637 -0.0447 -0.0284 -0.5326
 3508TIP3    H110530   3.015   5.235   1.711  1.3624 -1.2044 -1.7066
 3508TIP3    H210531   3.003   5.292   1.571 -1.6857  1.9357 -0.3231
 3509TIP3   OH210532   0.132   5.458   5.156 -0.0789  0.3867  0.4597
 3509TIP3    H110533   0.050   5.469   5.108  0.2162 -0.3946 -0.2432
 3509TIP3    H210534   0.108   5.411   5.235 -0.3090  0.1591  0.2553
 3510TIP3   OH210535   1.229   5.003   0.911 -0.3927  0.1411 -0.3354
 3510TIP3    H110536   1.286   4.926   0.913 -0.7157 -0.1557 -1.5354
 3510TIP3    H210537   1.285   5.073   0.877 -0.5123  0.0541 -0.7148
 3511TIP3   OH210538   4.441   1.310   4.845  0.1644  0.0047  0.1124
 3511TIP3    H110539   4.470   1.382   4.901 -0.1650  0.0878  0.1779
 3511TIP3    H210540   4.468   1.336   4.757  0.0174  0.2225  0.1314
 3512TIP3   OH210541   5.243   3.179   3.489  0.1056 -0.7191 -0.4256
 3512TIP3    H110542   5.166   3.123   3.481 -1.1848  0.8481  0.3719
 3512TIP3    H210543   5.288   3.149   3.568 -1.7330  0.6091  1.2147
 3513TIP3   OH210544   1.342   2.588   0.115  0.1373 -0.2906 -0.0310
 3513TIP3    H110545   1.362   2.512   0.170  0.6719 -0.5161 -0.5209
 3513TIP3    H210546   1.248   2.583   0.100  0.1365 -0.7413  0.1167
 3514TIP3   OH210547   0.900   3.772   0.701  0.3223 -0.2368 -0.5543
 3514TIP3    H110548   0.817   3.737   0.733 -0.4688  1.2226 -0.9065
 3514TIP3    H210549   0.928   3.710   0.633 -0.5205 -0.6839 -0.5035
 3515TIP3   OH210550   0.078   2.859   1.375 -0.1668  0.1088 -0.0119
 3515TIP3    H110551   0.172   2.856   1.360  0.2605  2.4432  1.6326
 3515TIP3    H210552   0.039   2.825   1.294  2.0369  0.1299 -1.1460
 3516TIP3   OH210553   2.865   1.604   3.994 -0.0165 -0.4124  0.0311
 3516TIP3    H110554   2.809   1.532   4.023  0.0397 -0.6107 -0.3379
 3516TIP3    H210555   2.897   1.575   3.908  0.1515 -0.0255 -0.0362
 3517TIP3   OH210556   4.307   5.190   1.567 -0.4386  0.1151  0.1916
 3517TIP3    H110557   4.338   5.117   1.621  0.9497  1.0115  0.6612
 3517TIP3    H210558   4.211   5.183   1.569 -0.3657 -0.7328  1.5692
 3518TIP3   OH210559   4.562   1.310   4.598  0.1258  0.1290 -0.7373
 3518TIP3    H110560   4.484   1.354   4.565 -0.8217 -0.5508  0.5005
 3518TIP3    H210561   4.633   1.341   4.541 -1.2204 -0.1749 -2.6953
 3519TIP3   OH210562   3.628   4.136   0.905 -0.3666 -0.0144  0.4766
 3519TIP3    H110563   3.624   4.127   1.001 -0.1663 -0.2559  0.4626
 3519TIP3    H210564   3.683   4.063   0.877 -0.4146  0.0667  0.1768
 3520TIP3   OH210565   4.341   3.753   0.464 -0.8352  0.5014  0.5702
 3520TIP3    H110566   4.308   3.818   0.402 -0.0433  0.4634  0.1069
 3520TIP3    H210567   4.415   3.795   0.507 -0.7516  0.1605  0.7697
 3521TIP3   OH210568   3.007   2.490   1.514 -0.0973  0.3621 -1.0386
 3521TIP3    H110569   2.932   2.481   1.456 -0.0854  1.1856 -1.1966
 3521TIP3    H210570   2.973   2.470   1.601 -0.0633 -1.0934 -1.3332
 3522TIP3   OH210571   3.914   0.396   1.710 -0.6358 -0.0605 -0.8685
 3522TIP3    H110572   3.999   0.353   1.709 -1.1405 -1.1433  0.2092
 3522TIP3    H210573   3.872   0.364   1.789 -3.2804 -1.9996 -2.8823
 3523TIP3   OH210574   3.430   1.662   0.689  0.4340  0.1111 -0.4328
 3523TIP3    H110575   3.449   1.699   0.775  0.2162 -1.3080  0.2367
 3523TIP3    H210576   3.370   1.726   0.648  0.5823  0.8157  0.4232
 3524TIP3   OH210577   1.213   4.477   3.762 -0.4951 -0.3188  0.1778
 3524TIP3    H110578   1.256   4.420   3.826 -1.4193 -0.1054  1.0218
 3524TIP3    H210579   1.232   4.566   3.793  0.2074 -0.1679 -0.6411
 3525TIP3   OH210580   2.875   6.023   0.385 -0.2110 -0.2230 -0.3588
 3525TIP3    H110581   2.917   5.989   0.306  1.9150  0.2308  0.4942
 3525TIP3    H210582   2.870   5.948   0.444  0.9529  0.0336  0.1127
 3526TIP3   OH210583   0.451   5.725   4.919 -0.1251  0.4173  0.6129
 3526TIP3    H110584   0.498   5.687   4.845  1.3002  0.0287  1.6774
 3526TIP3    H210585   0.444   5.818   4.899 -0.7510  0.1458 -0.5121
 3527TIP3   OH210586   5.039   3.289   3.896  0.4026 -0.6094 -0.3928
 3527TIP3    H110587   5.053   3.328   3.983  0.1666 -2.9247  0.7622
 3527TIP3    H210588   5.089   3.345   3.837  0.7019  0.9628  1.2224
 3528TIP3   OH210589   0.392   0.784   3.762 -0.2978  0.1383 -0.0758
 3528TIP3    H110590   0.403   0.719   3.692 -0.8244 -0.5543  0.4693
 3528TIP3    H210591   0.406   0.735   3.843 -1.5653  0.4882  0.3814
 3529TIP3   OH210592   4.708   2.300   4.353  0.2547  0.0514  0.0095
 3529TIP3    H110593   4.664   2.348   4.283  0.6212  1.1042  0.4840
 3529TIP3    H210594   4.798   2.292   4.324  0.5006  0.8403  0.5187
 3530TIP3   OH210595   1.789   5.772   2.986 -0.7303  0.0495  0.5508
 3530TIP3    H110596   1.872   5.785   3.031 -0.9053  0.0822  0.8669
 3530TIP3    H210597   1.723   5.777   3.055 -1.0452  0.6383  0.2193
 3531TIP3   OH210598   2.739   4.496   1.097  0.2350 -0.2208  0.1183
 3531TIP3    H110599   2.683   4.487   1.174  0.3588  0.4036  0.2918
 3531TIP3    H210600   2.824   4.463   1.124  0.1425 -0.4806  0.0890
 3532TIP3   OH210601   0.009   0.100   4.161 -0.2825  0.0468  0.0400
 3532TIP3    H110602   0.053   0.017   4.179 -1.0492 -0.4009 -0.1050
 3532TIP3    H210603   0.045   0.162   4.225  0.1313 -0.4507  0.2885
 3533TIP3   OH210604   6.299   3.421   4.707 -0.1963  0.0156 -0.1408
 3533TIP3    H110605   6.361   3.482   4.746  1.5565 -2.2649  0.9059
 3533TIP3    H210606   6.331   3.407   4.618  1.4926 -1.8816  0.6921
 3534TIP3   OH210607   6.003   3.220   4.305  0.0448  0.6680  0.2583
 3534TIP3    H110608   5.966   3.199   4.390  0.9517 -2.7889 -0.0573
 3534TIP3    H210609   5.930   3.210   4.244 -0.0395  0.7339  0.3469
 3535TIP3   OH210610   2.156   4.899   1.641  0.2019 -0.0975  0.4247
 3535TIP3    H110611   2.078   4.955   1.639 -0.9041 -1.5882 -0.1850
 3535TIP3    H210612   2.194   4.908   1.554  0.8894  0.8349  0.8066
 3536TIP3   OH210613   3.329   5.495   0.714 -0.2421  0.0792  0.4203
 3536TIP3    H110614   3.377   5.577   0.723 -0.3334  0.3036 -1.0148
 3536TIP3    H210615   3.251   5.507   0.769  0.5330  0.3006  1.5177
 3537TIP3   OH210616   2.564   0.284   5.082 -0.3033 -0.0321  0.1661
 3537TIP3    H110617   2.490   0.228   5.059 -0.0366 -0.8909  1.3117
 3537TIP3    H210618   2.571   0.346   5.009 -3.0240  0.9838  0.6411
 3538TIP3   OH210619   3.617   4.497   1.505 -0.1851 -0.5229 -0.4588
 3538TIP3    H110620   3.528   4.484   1.472 -0.8855 -1.1250  1.5219
 3538TIP3    H210621   3.631   4.424   1.565  1.6048 -0.3430 -0.6079
 3539TIP3   OH210622   4.553   1.045   1.930 -0.1173  0.2032  0.1553
 3539TIP3    H110623   4.500   0.966   1.915 -1.2893  1.4182 -3.0582
 3539TIP3    H210624   4.495   1.103   1.979 -0.4196  0.1757 -0.1620
 3540TIP3   OH210625   0.234   0.535   4.708 -0.1777 -0.1059  0.1408
 3540TIP3    H110626   0.221   0.441   4.725  0.6650 -0.4631 -1.0726
 3540TIP3    H210627   0.145   0.570   4.699 -0.6632 -0.1967  3.2718
 3541TIP3   OH210628   4.110   3.088   2.666  0.0740 -0.8104 -0.6712
 3541TIP3    H110629   4.094   3.181   2.677 -1.4036 -0.9974 -1.0095
 3541TIP3    H210630   4.188   3.070   2.719  0.3010  0.5756 -0.5101
 3542TIP3   OH210631   2.534   1.750   3.587  0.1150  0.0419  0.1879
 3542TIP3    H110632   2.464   1.781   3.645  0.9096  0.8830  0.7134
 3542TIP3    H210633   2.612   1.750   3.642  1.0868  1.7525 -1.0981
 3543TIP3   OH210634   1.338   4.593   0.148  0.1918 -0.4998  0.3914
 3543TIP3    H110635   1.371   4.503   0.149 -0.9478 -0.9522  1.8842
 3543TIP3    H210636   1.378   4.633   0.071  0.0187 -2.5461 -0.8217
 3544TIP3   OH210637   1.612   2.441   1.951 -0.3028  0.3691 -0.4294
 3544TIP3    H110638   1.670   2.393   1.892  0.0974  1.5338 -1.0166
 3544TIP3    H210639   1.665   2.454   2.030  0.4928  1.9281 -1.1736
 3545TIP3   OH210640   4.049   3.855   1.452  0.3353 -0.1687 -0.1206
 3545TIP3    H110641   4.117   3.898   1.401  1.6447 -0.0563  1.6288
 3545TIP3    H210642   4.085   3.768   1.472  0.5067  0.2946  1.7697
 3546TIP3   OH210643   1.258   2.220   2.999  0.0878  0.3665  0.5864
 3546TIP3    H110644   1.192   2.242   3.065 -1.2147  1.0349 -0.8991
 3546TIP3    H210645   1.227   2.139   2.959 -0.6196  1.3960 -1.0587
 3547TIP3   OH210646   1.971   5.857   0.079 -0.0369  0.6011  0.2157
 3547TIP3    H110647   2.043   5.899   0.033 -0.1402  1.2378  0.6149
 3547TIP3    H210648   2.010   5.781   0.121  0.9461  2.1687  2.3087
 3548TIP3   OH210649   2.426   2.457   5.152 -0.2856  0.0056  0.0378
 3548TIP3    H110650   2.434   2.362   5.153 -1.5290 -0.1178  0.2642
 3548TIP3    H210651   2.353   2.474   5.092 -0.9890  0.7199  1.0523
 3549TIP3   OH210652   0.510   2.745   1.797 -0.1334  0.3169  0.2715
 3549TIP3    H110653   0.524   2.748   1.891 -0.4758  2.4930  0.3152
 3549TIP3    H210654   0.528   2.835   1.767 -0.0590 -0.3069 -1.7330
 3550TIP3   OH210655   2.067   3.040   3.008 -0.4345 -0.1889 -0.4387
 3550TIP3    H110656   2.034   3.021   2.920 -3.1605  0.1603  0.4380
 3550TIP3    H210657   2.015   2.985   3.066  0.0013  0.9765  1.1306
 3551TIP3   OH210658   2.789   5.013   3.982  0.0464  0.0630  0.5709
 3551TIP3    H110659   2.734   4.939   4.004  0.7930 -0.6925 -0.0461
 3551TIP3    H210660   2.857   4.977   3.926  0.0953  1.3214 -0.2193
 3552TIP3   OH210661   3.931   1.513   1.551  0.5789 -0.6936  0.1820
 3552TIP3    H110662   3.907   1.471   1.633  1.7380  0.1230  0.9681
 3552TIP3    H210663   4.018   1.550   1.567  0.5083  0.1235 -1.1659
 3553TIP3   OH210664   6.313   4.188   1.019 -0.3706 -0.0366 -0.0456
 3553TIP3    H110665   6.328   4.115   0.959  0.8882 -0.0832  0.3166
 3553TIP3    H210666   6.262   4.149   1.091 -2.7762  0.2242 -1.4764
 3554TIP3   OH210667   0.541   4.130   0.184 -0.2580 -0.0390 -0.0957
 3554TIP3    H110668   0.527   4.062   0.250 -0.1028  0.9976  1.0420
 3554TIP3    H210669   0.635   4.145   0.185 -0.4389  1.1638  0.6913
 3555TIP3   OH210670   5.690   5.173   5.097 -0.1141 -0.4212 -0.6333
 3555TIP3    H110671   5.776   5.145   5.128 -0.2834  1.1126  1.4815
 3555TIP3    H210672   5.705   5.205   5.008  1.3627 -0.7947 -0.5438
 3556TIP3   OH210673   2.882   4.770   2.133  0.2268  0.1224  0.0709
 3556TIP3    H110674   2.875   4.853   2.086  1.3035  0.4607  0.4948
 3556TIP3    H210675   2.879   4.703   2.064  2.3015  0.6332 -0.5944
 3557TIP3   OH210676   1.380   0.752   1.246  0.3382 -0.5444  0.2212
 3557TIP3    H110677   1.318   0.812   1.288  0.7166  0.7093 -0.9427
 3557TIP3    H210678   1.466   0.791   1.264  0.5030  0.1130 -1.7760
 3558TIP3   OH210679   6.012   0.518   2.627 -0.0230 -0.1648  0.0596
 3558TIP3    H110680   6.106   0.519   2.610  0.1424 -1.1305  0.8492
 3558TIP3    H210681   6.001   0.574   2.703 -0.2307  0.7631 -0.6349
 3559TIP3   OH210682   0.248   0.394   1.167  0.0360  0.2844 -0.1122
 3559TIP3    H110683   0.170   0.367   1.216 -0.4331  0.5468 -0.6974
 3559TIP3    H210684   0.241   0.346   1.084 -0.2618  1.3947 -0.7467
 3560TIP3   OH210685   5.806   4.961   1.720  0.4850  0.0035 -0.1853
 3560TIP3    H110686   5.881   4.973   1.663  1.4545 -0.8333  0.8828
 3560TIP3    H210687   5.817   5.026   1.789 -0.2799  0.5003 -0.5128
 3561TIP3   OH210688   3.866   0.687   2.394 -0.2517  0.2306  0.1487
 3561TIP3    H110689   3.801   0.646   2.451 -0.2467  0.0207  0.0026
 3561TIP3    H210690   3.941   0.627   2.396 -0.3410  0.1095 -0.2657
 3562TIP3   OH210691   5.729   3.269   2.933 -0.3916 -0.0789 -0.2763
 3562TIP3    H110692   5.697   3.182   2.907  0.7221 -0.2126 -1.2676
 3562TIP3    H210693   5.762   3.307   2.852  2.6605 -0.2641  0.7601
 3563TIP3   OH210694   4.479   4.601   0.770  0.3547 -0.1546  0.0684
 3563TIP3    H110695   4.494   4.609   0.865 -1.0160  2.2897  0.1438
 3563TIP3    H210696   4.536   4.667   0.731 -0.3237  0.0084 -0.6627
 3564TIP3   OH210697   1.317   0.875   0.180 -0.4913  0.2767 -0.0084
 3564TIP3    H110698   1.308   0.970   0.179 -0.7750  0.2554  0.3456
 3564TIP3    H210699   1.239   0.844   0.227 -0.3653 -0.1246 -0.0600
 3565TIP3   OH210700   1.238   0.413   2.448 -0.1608  0.0936  0.1835
 3565TIP3    H110701   1.332   0.401   2.457 -0.0160  0.9973 -0.0889
 3565TIP3    H210702   1.228   0.496   2.402 -1.0744 -0.4258 -0.6033
 3566TIP3   OH210703   2.382   2.992   4.241  0.0741 -0.2865  0.3109
 3566TIP3    H110704   2.445   2.986   4.169 -0.1074  0.7233  0.0483
 3566TIP3    H210705   2.318   3.058   4.212 -1.2321 -1.4378  0.4821
 3567TIP3   OH210706   5.801   0.664   4.400  0.0838  0.3436  0.4608
 3567TIP3    H110707   5.787   0.657   4.306 -0.5421  0.7467  0.5178
 3567TIP3    H210708   5.727   0.717   4.432  0.2619  0.1768  1.1788
 3568TIP3   OH210709   3.065   3.551   1.524 -0.1348  0.3645  0.1494
 3568TIP3    H110710   3.098   3.489   1.589 -1.0774 -1.1352 -0.7453
 3568TIP3    H210711   2.987   3.508   1.487 -2.8241  3.4376  1.7422
 3569TIP3   OH210712   6.315   2.105   1.252 -0.1590 -0.4168  0.4851
 3569TIP3    H110713   6.239   2.075   1.303 -0.4870 -0.1916  0.1354
 3569TIP3    H210714   6.277   2.149   1.176  0.2541  2.0584  1.6029
 3570TIP3   OH210715   3.922   0.118   3.608 -0.2258 -0.1789  0.4089
 3570TIP3    H110716   3.938   0.029   3.577  1.7474  0.0195  0.7432
 3570TIP3    H210717   3.897   0.166   3.529 -2.2431 -1.1626  0.3615
 3571TIP3   OH210718   4.225   4.997   1.923 -0.3655 -0.6932  0.2290
 3571TIP3    H110719   4.197   4.934   1.989 -0.5480 -1.4263 -0.5310
 3571TIP3    H210720   4.147   5.051   1.907 -0.9217 -1.7474 -0.7645
 3572TIP3   OH210721   0.499   3.312   0.682  0.5961  0.4603  0.3282
 3572TIP3    H110722   0.530   3.331   0.593  0.0153 -0.0959 -0.0028
 3572TIP3    H210723   0.578   3.286   0.730  0.6279 -1.4648 -0.6410
 3573TIP3   OH210724   1.932   2.066   4.861  0.0596 -0.1625  0.6726
 3573TIP3    H110725   2.016   2.111   4.855 -0.9736  1.8242  0.2415
 3573TIP3    H210726   1.954   1.975   4.882  2.3088  0.2151  0.1245
 3574TIP3   OH210727   0.222   5.247   2.604  0.0514  0.5189 -0.2824
 3574TIP3    H110728   0.170   5.325   2.582 -2.8332 -1.0369  0.4055
 3574TIP3    H210729   0.183   5.177   2.551  1.8464 -0.7023 -0.0836
 3575TIP3   OH210730   4.546   2.271   1.083  0.0676 -0.1218 -0.0177
 3575TIP3    H110731   4.583   2.259   0.995 -1.7414 -2.9632 -0.5260
 3575TIP3    H210732   4.453   2.289   1.067 -0.0269  0.6741  1.3209
 3576TIP3   OH210733   1.283   4.015   1.153  0.3181  0.2708 -0.0988
 3576TIP3    H110734   1.231   4.036   1.231 -1.9213  0.5917 -1.5622
 3576TIP3    H210735   1.340   3.943   1.180  0.8956  1.5343  2.2799
 3577TIP3   OH210736   5.452   1.858   4.258 -0.4058 -0.7795  0.0894
 3577TIP3    H110737   5.439   1.884   4.349  0.3672 -0.0095 -0.0062
 3577TIP3    H210738   5.388   1.909   4.209  0.0634 -0.2061  0.0680
 3578TIP3   OH210739   2.105   2.851   4.244 -0.2325  0.2913  0.5151
 3578TIP3    H110740   2.181   2.890   4.201  0.1891  0.7524  1.6615
 3578TIP3    H210741   2.100   2.762   4.207  0.0887  0.6784 -0.5031
 3579TIP3   OH210742   5.200   5.029   4.953  0.2836  0.3430 -0.3687
 3579TIP3    H110743   5.112   5.066   4.949 -0.0697 -0.4980 -0.5424
 3579TIP3    H210744   5.209   4.997   5.043  0.7178  1.1466 -0.1171
 3580TIP3   OH210745   1.066   2.598   4.516 -0.2017 -0.0796 -0.0098
 3580TIP3    H110746   1.000   2.646   4.566 -0.5018 -1.0474  0.5465
 3580TIP3    H210747   1.132   2.664   4.492 -0.9462  0.7270  0.1463
 3581TIP3   OH210748   5.032   0.539   0.846  0.0304  0.1296 -0.3768
 3581TIP3    H110749   5.011   0.542   0.753  1.2678  0.0910 -0.6640
 3581TIP3    H210750   4.980   0.465   0.879  0.9385 -0.9971 -1.3947
 3582TIP3   OH210751   0.322   4.499   3.676 -0.3294  0.0838  0.3533
 3582TIP3    H110752   0.384   4.570   3.657  0.7385 -1.2061 -1.2308
 3582TIP3    H210753   0.237   4.543   3.678  0.5361  1.8300  2.1128
 3583TIP3   OH210754   3.774   3.351   4.797 -0.0604 -0.7831  0.1881
 3583TIP3    H110755   3.842   3.384   4.739 -0.2533 -2.6633 -1.2183
 3583TIP3    H210756   3.735   3.278   4.749 -2.0994 -0.6904  1.5590
 3584TIP3   OH210757   2.351   5.489   3.603  0.1028  0.0483  0.4717
 3584TIP3    H110758   2.383   5.554   3.666 -0.6447 -1.6150  2.6974
 3584TIP3    H210759   2.376   5.405   3.641  0.3225 -1.0527 -1.9110
 3585TIP3   OH210760   4.327   2.467   4.273 -0.1789  0.3235  0.2720
 3585TIP3    H110761   4.299   2.533   4.210 -1.1670  1.5228  1.8914
 3585TIP3    H210762   4.249   2.450   4.326 -0.0617 -2.4513 -0.2989
 3586TIP3   OH210763   1.625   3.571   0.435  0.0960  0.0313 -0.0533
 3586TIP3    H110764   1.537   3.538   0.417 -0.2312  0.0756  1.3170
 3586TIP3    H210765   1.674   3.493   0.461  0.1900  0.1532  0.1350
 3587TIP3   OH210766   5.477   0.876   4.096  0.0570  0.0042  0.4282
 3587TIP3    H110767   5.451   0.870   4.004  1.5765  0.9674 -0.0996
 3587TIP3    H210768   5.410   0.932   4.136 -1.4606 -1.6397  0.2923
 3588TIP3   OH210769   2.151   1.544   4.094 -0.2547 -0.3708  0.2551
 3588TIP3    H110770   2.130   1.545   4.187 -0.5626 -1.2289  0.1998
 3588TIP3    H210771   2.109   1.465   4.060  1.0434 -0.8481 -0.3248
 3589TIP3   OH210772   4.287   0.153   3.852  0.2235 -0.4316 -0.2265
 3589TIP3    H110773   4.248   0.241   3.846  0.8306 -0.2341 -1.4313
 3589TIP3    H210774   4.226   0.105   3.909  0.6832  1.1843  1.7555
 3590TIP3   OH210775   3.515   2.832   4.127  0.1356 -0.2414  0.0170
 3590TIP3    H110776   3.458   2.758   4.105  1.4701 -0.9828 -1.0959
 3590TIP3    H210777   3.509   2.891   4.052  1.0166 -0.4533 -0.2348
 3591TIP3   OH210778   0.980   3.520   3.692 -0.3550  0.1710 -0.4689
 3591TIP3    H110779   0.889   3.507   3.718 -0.5133  1.7623 -0.1356
 3591TIP3    H210780   0.984   3.489   3.601 -0.5914 -2.2870  0.2965
 3592TIP3   OH210781   4.378   5.948   2.643 -0.2953  0.1414  0.1510
 3592TIP3    H110782   4.448   5.962   2.707 -1.0217  1.3233  0.7283
 3592TIP3    H210783   4.304   5.998   2.678 -1.4472 -1.0991 -0.4228
 3593TIP3   OH210784   3.356   2.456   1.269  0.0858 -0.4162  0.1509
 3593TIP3    H110785   3.278   2.460   1.214 -0.6659 -0.2877  1.1909
 3593TIP3    H210786   3.323   2.464   1.358  1.5571  3.9688  0.5570
 3594TIP3   OH210787   0.060   0.061   3.354  0.4417 -0.5559  0.4197
 3594TIP3    H110788   0.046  -0.018   3.301 -2.6212  0.4659 -0.4944
 3594TIP3    H210789   0.130   0.108   3.309  0.1371 -1.2627 -0.8504
 3595TIP3   OH210790   3.698   1.987   2.278 -0.1175 -0.2012  0.5344
 3595TIP3    H110791   3.770   1.933   2.311  0.2010 -0.2215 -0.1692
 3595TIP3    H210792   3.741   2.062   2.238 -0.4123 -0.7183 -0.8236
 3596TIP3   OH210793   3.950   1.750   4.801 -0.0524 -0.2263  0.1398
 3596TIP3    H110794   3.962   1.735   4.707 -0.8627  0.1376 -0.0280
 3596TIP3    H210795   3.866   1.796   4.807 -0.7455 -1.5783  1.1664
 3597TIP3   OH210796   4.543   0.503   3.085 -0.3436 -0.1602  0.2342
 3597TIP3    H110797   4.451   0.480   3.098 -0.8378  1.0503 -0.8528
 3597TIP3    H210798   4.580   0.429   3.038 -0.4099 -1.2285  1.7975
 3598TIP3   OH210799   2.727   5.563   3.460 -0.1947  0.1990  0.6851
 3598TIP3    H110800   2.668   5.547   3.533  0.5607 -1.5204  0.9696
 3598TIP3    H210801   2.715   5.488   3.402  0.5554  0.6088 -0.0227
 3599TIP3   OH210802   5.325   4.683   4.180 -0.5821  0.2916  0.0504
 3599TIP3    H110803   5.260   4.733   4.132  1.4202  2.7062 -0.3611
 3599TIP3    H210804   5.405   4.689   4.127  0.6421 -0.3964  1.7109
 3600TIP3   OH210805   0.013   1.929   4.470 -0.1052  0.0113 -0.3252
 3600TIP3    H110806   0.081   1.984   4.431 -0.9413 -0.7970 -3.1629
 3600TIP3    H210807   0.061   1.870   4.528  1.2274  1.3462  0.0002
 3601TIP3   OH210808   0.176   1.922   4.093 -0.3510  0.1819 -0.0744
 3601TIP3    H110809   0.186   1.855   4.161  0.3869  1.3685  1.0411
 3601TIP3    H210810   0.250   1.908   4.034  0.4947  0.7260  0.8248
 3602TIP3   OH210811   4.636   1.612   2.566 -0.8265 -0.0650 -0.0625
 3602TIP3    H110812   4.571   1.668   2.609 -1.3904 -1.2786  0.6989
 3602TIP3    H210813   4.654   1.543   2.629  0.9330  0.0288 -0.4250
 3603TIP3   OH210814   1.681   2.564   1.636  0.0801  0.4628 -0.0052
 3603TIP3    H110815   1.769   2.563   1.599  1.2261 -1.0652  2.5157
 3603TIP3    H210816   1.661   2.473   1.655 -1.2695  0.9508  1.1411
 3604TIP3   OH210817   3.573   0.227   3.286  0.7313 -0.1729  0.0287
 3604TIP3    H110818   3.541   0.188   3.205  2.0065 -0.3061 -0.4191
 3604TIP3    H210819   3.496   0.226   3.344  0.3198 -1.9256 -0.4862
 3605TIP3   OH210820   3.866   5.983   0.495  0.3102  0.3730  0.2872
 3605TIP3    H110821   3.954   5.959   0.523  0.5956  2.1703  1.0916
 3605TIP3    H210822   3.817   5.997   0.576 -1.0406 -1.5179 -0.1248
 3606TIP3   OH210823   4.748   3.822   2.474  0.2154 -0.1871 -0.2327
 3606TIP3    H110824   4.734   3.832   2.568 -1.7876 -0.6058 -0.4528
 3606TIP3    H210825   4.840   3.845   2.461  0.0778  1.6606  1.5762
 3607TIP3   OH210826   3.180   3.875   2.853  0.4469 -0.5184 -0.9702
 3607TIP3    H110827   3.229   3.859   2.933 -0.7026  0.8550  0.0680
 3607TIP3    H210828   3.222   3.951   2.813  0.5023 -0.6820 -1.2267
 3608TIP3   OH210829   0.347   5.283   0.747 -0.1104 -0.2488  0.3356
 3608TIP3    H110830   0.332   5.255   0.837 -1.5609 -0.4112  0.0735
 3608TIP3    H210831   0.365   5.201   0.700  2.5795  0.0045  0.7689
 3609TIP3   OH210832   3.438   1.292   3.324  0.7076 -0.3358 -0.1755
 3609TIP3    H110833   3.528   1.313   3.351  1.7294 -3.9397 -0.2031
 3609TIP3    H210834   3.440   1.299   3.229 -0.3244  3.5403 -0.0470
 3610TIP3   OH210835   3.196   3.715   1.339  0.3412  0.2833 -0.1447
 3610TIP3    H110836   3.160   3.680   1.420  0.0805 -2.1146 -1.2112
 3610TIP3    H210837   3.289   3.696   1.343  0.3996  0.5484 -0.2162
 3611TIP3   OH210838   1.334   2.070   1.604  0.1182  0.3564  0.0706
 3611TIP3    H110839   1.369   2.150   1.564  0.9017 -0.7243 -1.4983
 3611TIP3    H210840   1.410   2.013   1.614 -0.5497 -0.4777  0.5035
 3612TIP3   OH210841   5.412   3.886   3.678  0.2343  0.3612  0.4836
 3612TIP3    H110842   5.389   3.979   3.687 -0.8163  0.0604  1.1243
 3612TIP3    H210843   5.467   3.882   3.600  0.0240  1.4753  0.2595
 3613TIP3   OH210844   6.210   1.273   2.487 -0.0193 -0.4425  0.0959
 3613TIP3    H110845   6.227   1.307   2.399 -0.9388  1.6207  0.6713
 3613TIP3    H210846   6.231   1.345   2.545 -0.5516 -1.3911  1.5153
 3614TIP3   OH210847   1.746   0.696   0.285 -0.5628 -0.1734 -0.6944
 3614TIP3    H110848   1.711   0.658   0.366  2.1356 -1.2253  0.0761
 3614TIP3    H210849   1.681   0.675   0.218 -1.6487 -1.5111  0.7127
 3615TIP3   OH210850   4.544   5.745   3.854  0.0535  0.1482  0.8531
 3615TIP3    H110851   4.486   5.821   3.853  0.7705  0.7076 -0.2623
 3615TIP3    H210852   4.604   5.760   3.781  1.4220 -0.5505  1.7893
 3616TIP3   OH210853   3.247   5.192   0.213  0.2656 -0.3841  0.2448
 3616TIP3    H110854   3.195   5.250   0.158 -0.2664 -0.3298  0.8024
 3616TIP3    H210855   3.237   5.226   0.302 -0.2918 -1.4914  0.6249
 3617TIP3   OH210856   4.051   3.330   1.213 -0.0901 -0.0777 -0.2681
 3617TIP3    H110857   3.961   3.321   1.180 -0.3695 -0.3321  0.5324
 3617TIP3    H210858   4.055   3.419   1.248 -0.1552 -0.1954  0.0444
 3618TIP3   OH210859   3.256   5.769   2.217 -0.0802  0.1371  0.6207
 3618TIP3    H110860   3.249   5.674   2.210  0.1767  0.1408  0.2846
 3618TIP3    H210861   3.347   5.789   2.193  0.6176  0.2580  3.1513
 3619TIP3   OH210862   5.296   2.373   5.041 -0.5560 -0.2772  0.1056
 3619TIP3    H110863   5.280   2.434   4.968 -1.6781 -1.3608 -0.5997
 3619TIP3    H210864   5.292   2.427   5.119 -0.8176  0.6765 -0.5510
 3620TIP3   OH210865   4.366   3.010   5.029  0.0443 -0.1583 -0.2619
 3620TIP3    H110866   4.275   3.032   5.011  0.0042  0.6832  0.8667
 3620TIP3    H210867   4.398   3.082   5.084  1.6711  0.0495 -1.3962
 3621TIP3   OH210868   0.431   2.227   1.956  0.1747  0.2317  0.1771
 3621TIP3    H110869   0.456   2.254   1.868 -2.2976 -1.3519 -1.1144
 3621TIP3    H210870   0.496   2.269   2.013 -0.1869  4.2500 -2.0374
 3622TIP3   OH210871   6.295   0.060   4.984 -0.0413  0.1675  0.3695
 3622TIP3    H110872   6.381   0.020   4.994 -0.5390 -1.3403 -0.9126
 3622TIP3    H210873   6.290   0.084   4.891 -1.5793 -1.3207  0.0140
 3623TIP3   OH210874   4.969   4.867   5.153  0.0758 -0.1586  0.1039
 3623TIP3    H110875   4.925   4.787   5.183 -2.1151  1.4885  1.5375
 3623TIP3    H210876   4.956   4.867   5.058 -2.0636 -0.3482  0.3514
 3624TIP3   OH210877   2.448   0.817   4.366 -0.1599  0.1473 -0.2681
 3624TIP3    H110878   2.536   0.803   4.401  0.2783  1.4017 -0.8023
 3624TIP3    H210879   2.421   0.901   4.403 -0.2650  0.7928 -1.7505
 3625TIP3   OH210880   1.135   5.329   4.899  0.1010 -0.3962 -0.3481
 3625TIP3    H110881   1.188   5.405   4.876 -0.3446  0.0845  0.1874
 3625TIP3    H210882   1.056   5.337   4.847 -0.1720 -0.2140  0.0921
 3626TIP3   OH210883   6.126   3.561   0.369 -0.1940  0.1337 -0.0649
 3626TIP3    H110884   6.204   3.570   0.315  1.4351 -1.6109  1.8361
 3626TIP3    H210885   6.111   3.649   0.404 -0.0281  0.8131 -1.6192
 3627TIP3   OH210886   3.782   0.467   2.989 -0.4757 -0.3744  0.1589
 3627TIP3    H110887   3.869   0.466   2.949 -0.3330  0.3968  0.4159
 3627TIP3    H210888   3.798   0.447   3.081 -0.3837  1.0747  0.4869
 3628TIP3   OH210889   5.112   2.972   2.402 -0.1451 -0.6446 -0.1329
 3628TIP3    H110890   5.115   2.909   2.330 -2.7490  0.8421 -1.6687
 3628TIP3    H210891   5.181   2.942   2.462  1.0569 -2.8766 -2.4234
 3629TIP3   OH210892   0.340   0.530   5.207  0.2756  0.2827  0.0068
 3629TIP3    H110893   0.270   0.591   5.231 -0.3803 -0.1351 -0.7942
 3629TIP3    H210894   0.357   0.548   5.115  0.0749 -0.7360 -0.2411
 3630TIP3   OH210895   1.022   1.761   2.656  0.4202 -0.3588  0.2465
 3630TIP3    H110896   1.051   1.672   2.636 -1.5408 -1.1686  0.7133
 3630TIP3    H210897   1.072   1.817   2.597  1.0554 -1.8694 -0.6926
 3631TIP3   OH210898   1.189   1.392   1.148  0.7495  0.7302  0.4893
 3631TIP3    H110899   1.204   1.298   1.132 -0.0543  0.4709  1.1644
 3631TIP3    H210900   1.173   1.428   1.061 -2.8193 -0.5189  0.4371
 3632TIP3   OH210901   4.881   1.888   4.633  0.5220 -0.2168  0.8134
 3632TIP3    H110902   4.829   1.872   4.711  0.4293 -1.1563  0.5603
 3632TIP3    H210903   4.823   1.938   4.575  0.1328 -0.6927  0.7932
 3633TIP3   OH210904   2.308   2.815   1.248 -0.2866 -0.4425 -0.2189
 3633TIP3    H110905   2.231   2.873   1.246  0.2667  0.3263  0.3581
 3633TIP3    H210906   2.383   2.874   1.254  0.2249 -1.2225  2.0304
 3634TIP3   OH210907   1.412   3.373   0.744  0.1525 -0.1360 -0.8412
 3634TIP3    H110908   1.372   3.305   0.799 -1.7030 -0.1307 -2.1024
 3634TIP3    H210909   1.444   3.326   0.667  1.8639 -0.0057 -0.2442
 3635TIP3   OH210910   0.326   4.748   4.920  0.0710  0.2932 -0.2762
 3635TIP3    H110911   0.414   4.781   4.901 -0.5187  2.0207 -0.1168
 3635TIP3    H210912   0.269   4.824   4.911 -1.5070 -0.9153 -0.9273
 3636TIP3   OH210913   4.568   1.629   4.711  0.3419 -0.6967 -0.3800
 3636TIP3    H110914   4.533   1.610   4.624  0.2567 -0.0332 -0.4919
 3636TIP3    H210915   4.657   1.593   4.709 -0.7570 -3.7264  0.3923
 3637TIP3   OH210916   3.939   5.883   4.072 -0.1977 -0.3154  0.3281
 3637TIP3    H110917   4.000   5.866   4.001  1.7033 -0.2730  1.8545
 3637TIP3    H210918   3.949   5.976   4.091 -0.9479 -0.2458  0.4348
 3638TIP3   OH210919   5.212   1.279   4.139 -0.0102 -0.1646  0.4396
 3638TIP3    H110920   5.163   1.346   4.092  0.5237 -0.4154 -0.5062
 3638TIP3    H210921   5.258   1.327   4.208 -0.4496  0.2799  0.4266
 3639TIP3   OH210922   2.701   4.879   5.026  0.3253 -0.1714 -0.0945
 3639TIP3    H110923   2.691   4.818   5.100 -0.9797  0.8862  0.6439
 3639TIP3    H210924   2.711   4.822   4.950 -1.0351 -1.3335  0.5442
 3640TIP3   OH210925   5.806   1.270   5.070  0.4212  0.3525 -0.8809
 3640TIP3    H110926   5.827   1.190   5.022  1.0787  0.9485 -1.6178
 3640TIP3    H210927   5.791   1.336   5.002  0.4227  0.9879 -0.2834
 3641TIP3   OH210928   6.005   5.005   0.508  0.3952  0.1722  0.2040
 3641TIP3    H110929   6.069   5.076   0.516 -0.4159  1.0750 -0.9403
 3641TIP3    H210930   6.006   4.983   0.414  2.3196 -2.9681  0.8060
 3642TIP3   OH210931   2.723   0.871   1.237 -0.0781  0.8711 -0.2677
 3642TIP3    H110932   2.764   0.793   1.274 -2.0803  0.6543  1.7806
 3642TIP3    H210933   2.763   0.944   1.284 -1.7085  0.6694  1.6019
 3643TIP3   OH210934   0.430   4.225   1.614  0.1220 -0.2300 -0.5597
 3643TIP3    H110935   0.392   4.253   1.698 -0.4294 -0.2495 -0.7994
 3643TIP3    H210936   0.355   4.196   1.563  0.3209  0.8106 -1.4707
 3644TIP3   OH210937   4.378   2.966   3.740  0.0799  0.1648  0.0812
 3644TIP3    H110938   4.340   2.946   3.654 -0.5609 -0.2929  0.4616
 3644TIP3    H210939   4.469   2.990   3.721  0.6350 -2.1455 -0.5360
 3645TIP3   OH210940   1.384   0.965   1.863 -0.1997  0.0678 -0.1780
 3645TIP3    H110941   1.416   0.875   1.857  0.5215  0.1406  1.8632
 3645TIP3    H210942   1.307   0.967   1.806 -0.2995 -1.8646 -0.1689
 3646TIP3   OH210943   5.551   5.977   2.545 -0.2979  0.5947 -0.5161
 3646TIP3    H110944   5.588   5.903   2.497 -0.8652 -0.5092  0.6707
 3646TIP3    H210945   5.487   6.016   2.486 -0.1117  0.0253 -1.1027
 3647TIP3   OH210946   5.629   1.493   4.031  0.2457 -0.0943  0.3648
 3647TIP3    H110947   5.705   1.542   4.001  0.3576 -0.3008  0.3041
 3647TIP3    H210948   5.612   1.526   4.119  0.2817  0.0942  0.3012
 3648TIP3   OH210949   3.288   2.802   2.683  0.8070 -0.6824 -0.1625
 3648TIP3    H110950   3.339   2.855   2.744  0.2725 -0.7490  0.3510
 3648TIP3    H210951   3.354   2.755   2.632  1.3186  0.8861 -1.0340
 3649TIP3   OH210952   0.878   2.680   3.594 -0.4006 -0.2012 -0.1574
 3649TIP3    H110953   0.886   2.602   3.539 -2.6993 -0.6399  0.0440
 3649TIP3    H210954   0.968   2.700   3.619  0.4794 -1.4182 -2.0803
 3650TIP3   OH210955   3.055   2.465   0.168  0.1745 -0.2430  0.2161
 3650TIP3    H110956   3.084   2.483   0.257 -1.6458 -1.1913  1.0430
 3650TIP3    H210957   3.061   2.370   0.160  1.9698 -0.0620 -1.3074
 3651TIP3   OH210958   0.132   0.203   2.057 -0.0740 -0.1533 -0.0080
 3651TIP3    H110959   0.145   0.281   2.002 -0.3521  0.3369  0.6136
 3651TIP3    H210960   0.174   0.132   2.008  1.6953  0.6939  0.2201
 3652TIP3   OH210961   3.737   5.368   4.457 -0.2303  0.4412  0.0706
 3652TIP3    H110962   3.795   5.365   4.533  2.5850  0.3463 -1.9105
 3652TIP3    H210963   3.774   5.437   4.402 -2.1972  0.5487 -1.2237
 3653TIP3   OH210964   1.162   3.165   3.573  0.1898  0.9279 -0.0188
 3653TIP3    H110965   1.219   3.240   3.554  0.4910  0.7191  0.0597
 3653TIP3    H210966   1.214   3.089   3.550  0.0368  0.7260  0.2999
 3654TIP3   OH210967   2.757   0.424   4.192  0.3751 -0.0696  0.1898
 3654TIP3    H110968   2.757   0.331   4.168  0.6004 -0.1872  0.6497
 3654TIP3    H210969   2.702   0.430   4.269 -1.9836  0.6086 -1.4426
 3655TIP3   OH210970   4.829   2.875   1.704  0.2555 -0.7093 -0.2396
 3655TIP3    H110971   4.801   2.960   1.669  0.2906 -1.0614 -1.1513
 3655TIP3    H210972   4.792   2.872   1.792  0.8636  0.5569  0.0806
 3656TIP3   OH210973   1.786   4.679   0.696 -0.2150 -0.4213  0.8981
 3656TIP3    H110974   1.827   4.604   0.737  1.7299 -0.2162 -0.5279
 3656TIP3    H210975   1.732   4.641   0.626  1.9897 -0.5474 -0.8650
 3657TIP3   OH210976   5.356   1.618   4.561  0.1576  0.3640  0.1870
 3657TIP3    H110977   5.291   1.563   4.604  1.8612 -1.4030  0.6056
 3657TIP3    H210978   5.363   1.584   4.472  1.5951 -0.5069  0.5991
 3658TIP3   OH210979   6.072   1.619   0.128  0.8889 -0.1315  0.5345
 3658TIP3    H110980   6.152   1.628   0.180  1.8853 -1.2742 -0.7197
 3658TIP3    H210981   6.005   1.593   0.191  1.0080  2.5567  1.9391
 3659TIP3   OH210982   3.593   3.718   4.174  0.5280 -0.1530  0.6411
 3659TIP3    H110983   3.688   3.710   4.182  0.5231 -2.6789 -0.6318
 3659TIP3    H210984   3.573   3.682   4.087 -1.6550 -0.5634  1.2421
 3660TIP3   OH210985   3.720   4.031   4.248  0.5007  0.0592  0.6017
 3660TIP3    H110986   3.769   3.975   4.308 -0.9292 -0.5937  1.1777
 3660TIP3    H210987   3.758   4.012   4.162  1.3323 -0.3345  1.0393
 3661TIP3   OH210988   6.351   3.251   3.970  0.0660  0.3475 -0.8356
 3661TIP3    H110989   6.350   3.215   4.059 -0.2110  0.3771 -0.8260
 3661TIP3    H210990   6.277   3.209   3.927  1.9448 -2.0583 -2.0108
 3662TIP3   OH210991   1.402   5.492   3.479  0.0173 -0.4869  0.1844
 3662TIP3    H110992   1.330   5.545   3.445 -0.4780 -1.7660 -0.8006
 3662TIP3    H210993   1.467   5.491   3.409  0.4113 -0.4653  0.5428
 3663TIP3   OH210994   1.667   5.603   0.518 -0.4515 -0.1493 -0.5773
 3663TIP3    H110995   1.672   5.509   0.505  1.9252  0.1117 -2.1635
 3663TIP3    H210996   1.644   5.638   0.432 -4.1142  0.6615  0.5709
 3664TIP3   OH210997   4.863   3.969   1.227 -0.4418 -0.2098 -0.0868
 3664TIP3    H110998   4.811   4.047   1.247  1.6622  1.3074 -0.2150
 3664TIP3    H210999   4.866   3.965   1.132 -1.8630 -1.4269 -0.1156
 3665TIP3   OH211000   2.012   0.829   4.240  0.0623  0.5211 -0.2269
 3665TIP3    H111001   2.007   0.736   4.263  0.9012  0.2424 -1.1148
 3665TIP3    H211002   1.937   0.843   4.182  0.5809  0.1131 -1.0089
 3666TIP3   OH211003   1.642   1.513   0.823  0.6346 -0.5704 -1.1125
 3666TIP3    H111004   1.727   1.556   0.814  0.0107  0.6138 -1.5755
 3666TIP3    H211005   1.638   1.486   0.914  0.9168  0.6803 -0.7073
 3667TIP3   OH211006   0.549   5.050   3.175 -0.2309  0.8201  0.0366
 3667TIP3    H111007   0.541   5.143   3.196  0.9156  0.8905  0.2098
 3667TIP3    H211008   0.460   5.023   3.154 -0.6466  1.8578  0.3894
 3668TIP3   OH211009   4.157   0.386   2.595 -0.1702  1.1402  0.1347
 3668TIP3    H111010   4.108   0.313   2.557  4.6477 -0.9883 -2.9406
 3668TIP3    H211011   4.155   0.454   2.528  0.1351  1.4692  0.4546
 3669TIP3   OH211012   5.592   4.135   2.180 -0.0663 -0.0592  0.0501
 3669TIP3    H111013   5.631   4.218   2.155  1.9119 -0.6343  0.9685
 3669TIP3    H211014   5.583   4.140   2.275 -2.4731  0.0828 -0.1167
 3670TIP3   OH211015   0.028   1.105   0.491  0.3544 -0.6963 -0.2932
 3670TIP3    H111016   0.030   1.118   0.586 -1.1619 -0.6830 -0.2453
 3670TIP3    H211017   0.112   1.062   0.472  0.4107 -1.3017  1.1322
 3671TIP3   OH211018   1.327   0.281   3.186  0.0540  0.2987  0.6825
 3671TIP3    H111019   1.414   0.319   3.178 -0.1002  0.6563  0.7180
 3671TIP3    H211020   1.297   0.305   3.273 -0.2238  0.4736  0.5389
 3672TIP3   OH211021   5.225   5.327   5.044 -0.0910  0.1543  0.0395
 3672TIP3    H111022   5.278   5.264   5.092 -0.5241 -0.5036 -0.3408
 3672TIP3    H211023   5.239   5.306   4.952 -2.1871 -1.0439 -0.0628
 3673TIP3   OH211024   6.168   0.649   0.059 -0.4932 -0.9441  0.0827
 3673TIP3    H111025   6.226   0.614   0.128  1.3101 -1.9153 -1.7991
 3673TIP3    H211026   6.141   0.571   0.010 -0.3638 -0.1360 -1.3010
 3674TIP3   OH211027   1.746   4.969   2.877 -0.1060 -0.3706  0.0447
 3674TIP3    H111028   1.840   4.978   2.861  0.1484 -3.9684 -1.4846
 3674TIP3    H211029   1.707   5.041   2.827  1.7594  0.6204 -0.0960
 3675TIP3   OH211030   4.847   3.764   4.379 -0.0635 -0.6266 -0.5455
 3675TIP3    H111031   4.865   3.809   4.461  2.6446 -2.1865 -0.1549
 3675TIP3    H211032   4.863   3.829   4.311  0.1874 -0.0145  0.0917
 3676TIP3   OH211033   5.626   1.160   0.187  0.1186  0.1123  0.0127
 3676TIP3    H111034   5.695   1.167   0.254  0.2343  2.3110 -0.2455
 3676TIP3    H211035   5.548   1.135   0.236  1.0137 -2.3079  0.3319
 3677TIP3   OH211036   4.277   4.360   2.597  0.2195 -0.0074  0.7713
 3677TIP3    H111037   4.238   4.438   2.556 -0.4473 -0.6436  0.1747
 3677TIP3    H211038   4.205   4.322   2.648 -0.1242 -1.4328 -0.6777
 3678TIP3   OH211039   0.300   1.284   1.054  0.7579 -0.0611  0.0703
 3678TIP3    H111040   0.221   1.230   1.057 -0.4673  1.6908  2.0541
 3678TIP3    H211041   0.300   1.323   0.966 -0.3864 -0.3647 -0.0777
 3679TIP3   OH211042   4.703   2.948   2.644  0.5746  0.1992  0.2818
 3679TIP3    H111043   4.754   3.022   2.611  0.5450 -0.1449 -0.5629
 3679TIP3    H211044   4.715   2.879   2.579  1.5200 -0.9445  1.6024
 3680TIP3   OH211045   3.247   5.627   0.316 -0.3316 -0.5247  0.4344
 3680TIP3    H111046   3.214   5.717   0.317 -0.5322 -0.5746 -0.6453
 3680TIP3    H211047   3.331   5.632   0.361  0.9383  0.7322 -1.9440
 3681TIP3   OH211048   3.627   2.309   2.760 -0.0994 -0.1753 -0.0264
 3681TIP3    H111049   3.532   2.302   2.749 -0.4612  3.1136  0.1631
 3681TIP3    H211050   3.662   2.291   2.673 -1.0265  0.2545 -0.5026
 3682TIP3   OH211051   2.048   1.718   3.492  0.0725  0.1488 -0.0909
 3682TIP3    H111052   1.957   1.732   3.466 -0.6409  0.4780  2.3597
 3682TIP3    H211053   2.068   1.792   3.549  1.2423 -0.9354  0.9577
 3683TIP3   OH211054   2.542   4.010   4.166  0.3693  0.5915 -0.4534
 3683TIP3    H111055   2.470   4.035   4.108 -0.4772 -0.5918  0.0468
 3683TIP3    H211056   2.523   3.919   4.190  1.9471  0.3123 -0.1692
 3684TIP3   OH211057   0.859   5.168   2.962 -0.1381 -0.1780 -0.0427
 3684TIP3    H111058   0.921   5.097   2.979  0.0199  0.0844  0.5069
 3684TIP3    H211059   0.878   5.234   3.030 -1.2871 -0.2694  0.3937
 3685TIP3   OH211060   3.139   3.035   3.149  0.1229 -0.4810 -0.0744
 3685TIP3    H111061   3.169   2.951   3.183 -0.4403 -0.5375  0.2910
 3685TIP3    H211062   3.095   3.014   3.067 -0.4382 -0.6016  0.2548
 3686TIP3   OH211063   6.077   0.900   2.328  0.5633 -0.2621  0.4087
 3686TIP3    H111064   6.019   0.885   2.403  0.1620  0.6333  0.2953
 3686TIP3    H211065   6.018   0.927   2.258  0.9791 -0.7082 -0.1207
 3687TIP3   OH211066   3.925   4.434   1.050  0.0754  0.0751  0.8051
 3687TIP3    H111067   3.853   4.434   1.113 -1.5247  1.7885 -0.8955
 3687TIP3    H211068   3.968   4.519   1.063 -0.5719  0.6647 -0.6416
 3688TIP3   OH211069   2.163   2.773   2.647 -0.7321 -0.5466  0.2937
 3688TIP3    H111070   2.226   2.747   2.713  1.9139 -2.1905 -2.5976
 3688TIP3    H211071   2.120   2.691   2.621 -1.6499  0.0444 -0.1087
 3689TIP3   OH211072   2.456   3.078   4.593  0.4514 -0.1988 -0.8538
 3689TIP3    H111073   2.444   3.098   4.500  1.3949  0.0114 -0.9401
 3689TIP3    H211074   2.450   2.982   4.597 -0.2270 -0.1698 -1.0272
 3690TIP3   OH211075   3.090   4.492   0.152 -0.3462 -0.3887 -0.2190
 3690TIP3    H111076   3.026   4.474   0.220  0.5735  0.3887  0.8909
 3690TIP3    H211077   3.168   4.444   0.178 -0.2084 -0.6869 -1.1367
 3691TIP3   OH211078   4.715   1.428   2.177 -0.1487 -0.1241  0.2384
 3691TIP3    H111079   4.713   1.513   2.132 -1.1897  0.0619  0.6128
 3691TIP3    H211080   4.660   1.440   2.254 -0.5306 -1.2245  0.1520
 3692TIP3   OH211081   5.332   5.814   2.707 -0.3370  0.2727 -0.3128
 3692TIP3    H111082   5.296   5.893   2.748  0.4831  0.9391 -0.8269
 3692TIP3    H211083   5.355   5.842   2.618 -2.5925 -1.2781 -1.4856
 3693TIP3   OH211084   5.828   1.504   3.248 -0.3467  0.2340  0.6337
 3693TIP3    H111085   5.734   1.499   3.263 -0.4769  0.0357 -0.1663
 3693TIP3    H211086   5.840   1.464   3.161  0.5352 -0.2518  0.9657
 3694TIP3   OH211087   0.965   3.484   2.634  0.1591  0.2754 -0.1544
 3694TIP3    H111088   0.953   3.571   2.595  0.2203 -0.2495 -1.3971
 3694TIP3    H211089   0.902   3.481   2.706  0.7239  1.6395  0.4404
 3695TIP3   OH211090   3.612   2.437   1.248  0.2057  0.0165  0.5431
 3695TIP3    H111091   3.669   2.493   1.300  1.2249 -0.4471 -0.0468
 3695TIP3    H211092   3.523   2.460   1.277  0.6083  1.6421  0.5892
 3696TIP3   OH211093   2.162   3.120   0.671 -0.5376 -0.3283 -0.2186
 3696TIP3    H111094   2.107   3.097   0.596  0.3599 -0.2108 -0.9185
 3696TIP3    H211095   2.133   3.062   0.741 -2.9277  1.0350  0.0519
 3697TIP3   OH211096   2.492   1.462   2.540  0.9622  0.0447  0.0767
 3697TIP3    H111097   2.461   1.477   2.451 -0.5369  4.0809  1.0535
 3697TIP3    H211098   2.417   1.422   2.585  1.3691 -1.0467 -0.1806
 3698TIP3   OH211099   6.001   4.660   3.989 -0.4786  0.1272 -0.6224
 3698TIP3    H111100   5.958   4.742   4.016 -1.2174 -0.6107  0.5114
 3698TIP3    H211101   5.929   4.605   3.957  0.1525  0.3011 -2.4968
 3699TIP3   OH211102   5.262   2.813   3.912 -0.0007  0.4825 -0.2091
 3699TIP3    H111103   5.238   2.892   3.863 -1.0888  1.1192  1.2694
 3699TIP3    H211104   5.183   2.790   3.961  0.9904 -0.2063  1.1362
 3700TIP3   OH211105   5.875   3.683   2.981 -0.1621 -0.1939  0.5005
 3700TIP3    H111106   5.897   3.615   3.045  0.1892 -0.5730 -0.0237
 3700TIP3    H211107   5.871   3.763   3.033  2.4387 -0.0842  0.6514
 3701TIP3   OH211108   3.938   4.592   1.676  0.7989 -0.7347 -0.2167
 3701TIP3    H111109   3.957   4.518   1.735 -0.7920 -0.0397  1.2484
 3701TIP3    H211110   4.015   4.649   1.684  0.8921 -0.9736  0.6904
 3702TIP3   OH211111   5.206   5.196   1.840 -0.1251 -0.3145 -0.0919
 3702TIP3    H111112   5.194   5.268   1.779 -1.1501 -0.0218  0.4262
 3702TIP3    H211113   5.286   5.152   1.811  0.9284  1.4611  0.0166
 3703TIP3   OH211114   2.660   4.477   2.209  0.4018 -0.0411 -0.0723
 3703TIP3    H111115   2.694   4.456   2.296 -0.6069 -0.2017  0.2968
 3703TIP3    H211116   2.718   4.429   2.149  0.4884 -0.7614  0.5655
 3704TIP3   OH211117   2.192   3.349   1.394  0.2326 -0.5684 -0.1653
 3704TIP3    H111118   2.238   3.274   1.433 -0.0928 -0.5050  0.3484
 3704TIP3    H211119   2.155   3.314   1.312 -2.4291 -1.8647  1.4274
 3705TIP3   OH211120   2.150   1.096   4.940  0.1216 -1.1739  0.3365
 3705TIP3    H111121   2.176   1.022   4.884  0.6785 -0.9232  0.2510
 3705TIP3    H211122   2.224   1.157   4.934  0.1015 -1.0603  1.2028
 3706TIP3   OH211123   0.019   4.855   4.317 -0.3111 -0.1515 -0.0508
 3706TIP3    H111124   0.027   4.792   4.246  1.9285 -2.7037  2.2351
 3706TIP3    H211125  -0.034   4.810   4.383  2.1860 -0.2463  2.0774
 3707TIP3   OH211126   3.886   0.173   0.411 -0.5818 -0.2749  0.0222
 3707TIP3    H111127   3.903   0.102   0.474 -1.0953 -0.1143  0.3496
 3707TIP3    H211128   3.964   0.175   0.355  0.4950  0.4305  1.4696
 3708TIP3   OH211129   1.283   2.260   1.413 -0.2111 -0.1174 -0.0111
 3708TIP3    H111130   1.206   2.306   1.447  0.8442  1.5980  0.1794
 3708TIP3    H211131   1.256   2.227   1.328 -1.4937 -0.5584  0.5394
 3709TIP3   OH211132   0.228   4.467   4.656  0.0807  0.6860 -0.4874
 3709TIP3    H111133   0.292   4.480   4.586 -0.1771  0.4638 -0.7639
 3709TIP3    H211134   0.203   4.375   4.649 -0.0882  0.7101 -0.2212
 3710TIP3   OH211135   2.496   5.769   5.117 -0.1674  0.1329 -0.4585
 3710TIP3    H111136   2.503   5.748   5.024 -1.2282 -2.2208 -0.0811
 3710TIP3    H211137   2.546   5.850   5.127  0.9925 -0.1913 -2.8407
 3711TIP3   OH211138   2.361   4.287   1.474  0.2797 -0.3645  0.0985
 3711TIP3    H111139   2.399   4.211   1.431 -0.6783 -1.1753  0.6465
 3711TIP3    H211140   2.407   4.291   1.558  0.0706 -0.5757  0.2258
 3712TIP3   OH211141   5.650   5.311   3.538 -0.5986 -0.3572 -0.6741
 3712TIP3    H111142   5.662   5.227   3.493  0.4353 -0.7687  0.2966
 3712TIP3    H211143   5.560   5.308   3.570 -0.3849 -1.4255 -0.0868
 3713TIP3   OH211144   4.587   2.579   1.124 -0.1767 -0.2308 -0.0100
 3713TIP3    H111145   4.625   2.502   1.083  0.5998  0.2519 -0.2141
 3713TIP3    H211146   4.612   2.652   1.067 -0.7234  0.2055  0.2873
 3714TIP3   OH211147   1.187   3.864   1.400  0.2038  0.1513  0.4346
 3714TIP3    H111148   1.179   3.812   1.480 -2.5059 -0.5145 -0.1461
 3714TIP3    H211149   1.137   3.943   1.417 -0.6788 -0.1389 -0.6672
 3715TIP3   OH211150   3.073   2.588   4.996 -0.4756  0.4220 -0.0261
 3715TIP3    H111151   3.001   2.559   5.052  1.1193 -0.8534  1.4872
 3715TIP3    H211152   3.138   2.518   5.002 -0.2981  0.0558 -3.7895
 3716TIP3   OH211153   0.821   3.775   3.404 -0.5675 -0.3707 -0.3096
 3716TIP3    H111154   0.792   3.693   3.443  1.9417 -1.3383 -0.3036
 3716TIP3    H211155   0.757   3.840   3.435 -0.6335 -1.6742  2.6098
 3717TIP3   OH211156   2.986   4.059   2.351  0.3808 -0.2810  0.4154
 3717TIP3    H111157   2.911   4.016   2.392  0.0230  0.7872  0.9273
 3717TIP3    H211158   3.051   3.989   2.340 -0.3976 -1.0617  0.6679
 3718TIP3   OH211159   3.453   5.731   0.485  0.0423 -0.1173  0.1176
 3718TIP3    H111160   3.526   5.678   0.516 -1.1390 -1.4836  0.7089
 3718TIP3    H211161   3.438   5.795   0.554 -0.1990 -0.7422  0.6540
 3719TIP3   OH211162   3.910   3.981   4.011 -0.1461  0.4233 -0.0323
 3719TIP3    H111163   3.986   3.942   3.968 -1.4255 -2.1943 -0.0910
 3719TIP3    H211164   3.879   3.914   4.072 -1.9336  1.7329  0.6014
 3720TIP3   OH211165   1.591   2.794   4.556 -0.4242 -0.5423  0.9409
 3720TIP3    H111166   1.580   2.865   4.493  0.5884 -0.7470  0.5160
 3720TIP3    H211167   1.502   2.770   4.581 -0.8066  0.1946  0.3323
 3721TIP3   OH211168   3.382   2.306   2.404  0.5352  0.1184  0.1626
 3721TIP3    H111169   3.311   2.278   2.347  0.2111 -0.9446  1.0622
 3721TIP3    H211170   3.456   2.320   2.345  0.0790 -0.5070 -0.5724
 3722TIP3   OH211171   6.127   5.397   3.450 -0.4067 -0.1115  0.2670
 3722TIP3    H111172   6.069   5.427   3.520 -0.7275 -0.3815  0.1128
 3722TIP3    H211173   6.075   5.402   3.371  0.2314  1.0562 -0.1039
 3723TIP3   OH211174   6.179   3.772   0.578  0.0457 -0.0011  0.5615
 3723TIP3    H111175   6.119   3.820   0.520  1.0397 -0.8585 -1.2712
 3723TIP3    H211176   6.247   3.836   0.598 -0.3952  0.3558  0.9526
 3724TIP3   OH211177   0.289   4.680   4.226  0.6818  0.4985 -0.2079
 3724TIP3    H111178   0.261   4.771   4.239  0.3284  0.7575 -2.4070
 3724TIP3    H211179   0.331   4.680   4.140  1.1403 -1.3383 -0.0305
 3725TIP3   OH211180   5.989   0.220   3.574 -0.4190  0.6726 -0.3750
 3725TIP3    H111181   6.034   0.158   3.517 -2.3098 -0.8488 -0.3246
 3725TIP3    H211182   5.930   0.166   3.627 -2.5499  2.5174 -0.6842
 3726TIP3   OH211183   0.086   2.496   0.329 -0.1205 -0.1284  0.3128
 3726TIP3    H111184   0.107   2.570   0.386 -2.2262  1.0399 -0.3472
 3726TIP3    H211185   0.008   2.523   0.281 -0.9358 -2.7603 -0.0124
 3727TIP3   OH211186   5.140   4.748   2.082  0.0533  0.1840 -0.3348
 3727TIP3    H111187   5.059   4.699   2.094  0.0763  0.3562  0.6413
 3727TIP3    H211188   5.193   4.726   2.158  0.7058  0.4915 -0.6924
 3728TIP3   OH211189   4.295   0.671   4.857 -0.1087 -0.2086 -0.4438
 3728TIP3    H111190   4.334   0.608   4.918 -0.9460  0.4945  0.8727
 3728TIP3    H211191   4.364   0.690   4.794  1.0208 -0.4540  0.6801
 3729TIP3   OH211192   4.399   0.783   3.195 -0.2646 -0.0856 -0.0048
 3729TIP3    H111193   4.433   0.860   3.241  0.5691 -0.3008 -0.2412
 3729TIP3    H211194   4.414   0.710   3.255 -1.2004 -0.0445  0.2842
 3730TIP3   OH211195   1.371   3.361   1.991 -0.3936 -0.3897 -0.0263
 3730TIP3    H111196   1.341   3.284   1.943 -0.3113  0.5316 -1.5980
 3730TIP3    H211197   1.335   3.349   2.079 -1.6319 -1.5078 -0.6445
 3731TIP3   OH211198   2.568   2.114   2.473 -0.6122  0.7391 -0.3163
 3731TIP3    H111199   2.651   2.092   2.517 -0.2736  0.5233 -1.0447
 3731TIP3    H211200   2.502   2.061   2.518 -0.5265  1.6547  0.9305
 3732TIP3   OH211201   1.354   4.122   1.528  0.5403  0.1549 -0.1392
 3732TIP3    H111202   1.347   4.199   1.583  0.2386  1.0376 -1.3745
 3732TIP3    H211203   1.381   4.155   1.442 -0.2666 -1.0127 -0.8855
 3733TIP3   OH211204   1.399   4.202   2.349  0.2439 -0.3873 -0.7659
 3733TIP3    H111205   1.479   4.255   2.349  0.6757 -1.0116 -1.4389
 3733TIP3    H211206   1.339   4.250   2.291 -0.4686  0.8981  0.9462
 3734TIP3   OH211207   3.372   2.818   4.621  0.1305 -0.1668  0.0439
 3734TIP3    H111208   3.297   2.759   4.630  1.9845 -2.4534  1.2356
 3734TIP3    H211209   3.359   2.859   4.535 -2.5606 -0.2918  0.3018
 3735TIP3   OH211210   4.025   1.113   2.000 -0.4938  0.0718  0.3108
 3735TIP3    H111211   3.948   1.144   1.952 -0.4975 -2.3772 -1.4016
 3735TIP3    H211212   4.053   1.189   2.052 -0.6062  2.8899 -3.3866
 3736TIP3   OH211213   5.973   3.516   3.605  0.8749 -0.9396 -0.3118
 3736TIP3    H111214   5.973   3.521   3.700  0.4780  0.2084 -0.3530
 3736TIP3    H211215   6.000   3.426   3.585 -0.9745 -1.8152  0.8985
 3737TIP3   OH211216   4.911   5.567   1.760 -0.6410  0.2247  0.1969
 3737TIP3    H111217   4.873   5.481   1.775 -0.1119  0.4700  3.8840
 3737TIP3    H211218   4.836   5.626   1.757 -1.1364 -0.3267 -3.8506
 3738TIP3   OH211219   0.690   1.491   3.321  0.3494 -0.5356 -0.1810
 3738TIP3    H111220   0.777   1.530   3.328 -0.5162  1.6278 -0.4745
 3738TIP3    H211221   0.648   1.508   3.406 -0.8409  1.4429 -1.0628
 3739TIP3   OH211222   4.418   5.751   4.760 -0.1236  0.1230 -0.0823
 3739TIP3    H111223   4.423   5.772   4.853 -1.0124 -0.2920  0.0734
 3739TIP3    H211224   4.327   5.726   4.746 -0.4046  1.7490 -1.4123
 3740TIP3   OH211225   0.831   1.127   3.375 -0.7349 -0.2097  0.5805
 3740TIP3    H111226   0.921   1.130   3.408 -0.1082 -0.2164 -1.0281
 3740TIP3    H211227   0.822   1.208   3.325 -1.9807  0.2810  1.5722
 3741TIP3   OH211228   0.598   1.865   1.269  0.2215 -0.2053 -0.4172
 3741TIP3    H111229   0.571   1.830   1.184 -0.7231 -2.9974  0.8996
 3741TIP3    H211230   0.567   1.956   1.268  0.0411 -0.2131 -2.9267
 3742TIP3   OH211231   2.770   3.740   1.415 -0.1979 -0.3405  0.2810
 3742TIP3    H111232   2.730   3.753   1.329  3.0922  0.8295 -1.2684
 3742TIP3    H211233   2.809   3.652   1.410  0.2764 -0.1437  0.4009
 3743TIP3   OH211234   6.051   5.811   4.596  0.2901 -0.0713  0.6104
 3743TIP3    H111235   6.143   5.785   4.592  0.2422 -0.1904  0.1779
 3743TIP3    H211236   6.003   5.729   4.584  0.1370  0.2332 -1.1931
 3744TIP3   OH211237   3.578   2.675   4.731  0.3944  0.0133  0.6431
 3744TIP3    H111238   3.616   2.645   4.649  3.5183  2.9932  0.7961
 3744TIP3    H211239   3.499   2.723   4.705  0.1271 -0.9422 -0.3661
 3745TIP3   OH211240   4.676   4.064   0.376  0.5515  0.2070  0.3787
 3745TIP3    H111241   4.687   4.154   0.407 -0.1373  0.7462 -0.8658
 3745TIP3    H211242   4.610   4.070   0.307 -0.0320 -1.3747  0.7618
 3746TIP3   OH211243   1.076   4.306   2.422 -0.1899 -0.0122 -0.3664
 3746TIP3    H111244   1.129   4.296   2.343 -0.2008  0.1891 -0.3982
 3746TIP3    H211245   1.010   4.371   2.399 -1.6645 -1.6232 -0.9729
 3747TIP3   OH211246   2.480   5.012   3.965 -0.1112  0.4174 -0.4651
 3747TIP3    H111247   2.482   4.952   4.039 -0.2709 -0.3355 -1.0571
 3747TIP3    H211248   2.494   5.099   4.003 -0.8490  0.1118  0.5174
 3748TIP3   OH211249   1.342   3.688   4.593 -0.0433 -0.0587 -0.1757
 3748TIP3    H111250   1.348   3.781   4.572  0.3732  0.2476  1.2271
 3748TIP3    H211251   1.432   3.656   4.591 -0.3483 -1.0351 -3.0331
 3749TIP3   OH211252   0.188   2.718   3.797 -0.0660  0.0471  0.1726
 3749TIP3    H111253   0.204   2.663   3.721 -0.6734  1.7466 -1.2589
 3749TIP3    H211254   0.275   2.747   3.825  0.0654  0.9577 -1.1148
 3750TIP3   OH211255   4.746   5.940   0.853 -0.3490 -0.0399  0.2336
 3750TIP3    H111256   4.761   6.032   0.874  1.6224 -0.6219  1.6656
 3750TIP3    H211257   4.834   5.901   0.853 -1.0989 -1.8434 -0.7880
 3751TIP3   OH211258   3.362   4.960   2.353  0.0646  0.1205  0.4197
 3751TIP3    H111259   3.286   4.904   2.367 -0.1406 -0.5985 -2.9556
 3751TIP3    H211260   3.437   4.904   2.376 -0.2784  0.1526  1.7359
 3752TIP3   OH211261   3.752   2.147   2.951 -0.1369  0.0307 -0.4998
 3752TIP3    H111262   3.812   2.213   2.986  0.5123 -1.2047  0.8606
 3752TIP3    H211263   3.703   2.192   2.882  0.3692  1.8709  0.2886
 3753TIP3   OH211264   6.139   0.955   0.451  0.1982  0.5586  0.6614
 3753TIP3    H111265   6.218   1.005   0.468 -0.0632  0.7358  1.4046
 3753TIP3    H211266   6.086   0.966   0.530 -0.7269  0.7419  0.0450
 3754TIP3   OH211267   4.123   0.898   3.940 -0.4760 -0.2566 -0.3111
 3754TIP3    H111268   4.039   0.864   3.909 -0.4195 -0.5745 -0.1243
 3754TIP3    H211269   4.101   0.950   4.018 -0.2939 -2.1600  1.0942
 3755TIP3   OH211270   1.657   3.345   3.738 -0.0181 -0.4523  0.0032
 3755TIP3    H111271   1.645   3.253   3.762 -0.4409 -0.4631 -0.2451
 3755TIP3    H211272   1.635   3.349   3.645  0.9167 -0.2789 -0.2235
 3756TIP3   OH211273   5.773   1.445   4.620  0.7725  0.1370 -0.0411
 3756TIP3    H111274   5.840   1.384   4.589  0.9703  0.5066 -0.3424
 3756TIP3    H211275   5.793   1.459   4.712  0.6111 -0.4011  0.0847
 3757TIP3   OH211276   5.931   5.494   4.150  0.2759 -0.6492 -0.4893
 3757TIP3    H111277   5.845   5.465   4.181  0.4728  0.3297  1.0820
 3757TIP3    H211278   5.919   5.587   4.131  1.0960 -0.3956  0.1870
 3758TIP3   OH211279   3.988   3.921   3.275  0.2131  0.4024  0.4649
 3758TIP3    H111280   3.942   4.004   3.289  0.1075  0.1608  1.6042
 3758TIP3    H211281   3.988   3.878   3.361  1.7914 -0.0133  0.2889
 3759TIP3   OH211282   1.623   2.154   1.455  0.1882 -0.0826  0.6348
 3759TIP3    H111283   1.652   2.240   1.427 -0.0686  0.4199  1.8547
 3759TIP3    H211284   1.587   2.114   1.377 -1.0558  1.4889  0.3625
 3760TIP3   OH211285   0.519   5.111   0.573  0.1636 -0.0502  0.7750
 3760TIP3    H111286   0.497   5.065   0.653  1.7953  0.8084  1.7768
 3760TIP3    H211287   0.614   5.102   0.565  0.4049  2.1113  0.4293
 3761TIP3   OH211288   5.311   3.953   1.524 -0.3067  1.0236  0.0603
 3761TIP3    H111289   5.321   4.048   1.526  0.5170  0.9399  0.1866
 3761TIP3    H211290   5.284   3.930   1.613  1.3730  0.9527  0.5756
 3762TIP3   OH211291   0.867   2.579   0.548  0.3700  0.7272 -0.5139
 3762TIP3    H111292   0.911   2.660   0.522  0.3564  0.6443 -0.8009
 3762TIP3    H211293   0.898   2.563   0.637 -0.3653  1.5580 -0.0853
 3763TIP3   OH211294   6.009   3.851   4.087  0.2852 -0.1318 -0.3440
 3763TIP3    H111295   6.043   3.935   4.116 -1.3797  1.4859 -2.6917
 3763TIP3    H211296   6.082   3.809   4.041  0.4948  1.1643 -1.2419
 3764TIP3   OH211297   1.300   0.752   4.402 -1.2914 -0.0673  0.7851
 3764TIP3    H111298   1.242   0.782   4.473 -0.4574 -0.1655  1.5251
 3764TIP3    H211299   1.298   0.656   4.409 -0.4809 -0.0581  1.2909
 3765TIP3   OH211300   3.081   0.982   0.937  0.2189 -0.3087  0.3914
 3765TIP3    H111301   3.044   0.935   0.863 -0.4579  0.3933  0.2733
 3765TIP3    H211302   3.056   1.073   0.923 -2.9830 -0.5493  3.2334
 3766TIP3   OH211303   6.117   3.733   3.524 -0.5205  0.3497  0.1001
 3766TIP3    H111304   6.203   3.691   3.520 -0.2397  0.4156  2.9507
 3766TIP3    H211305   6.058   3.663   3.553 -1.4532  0.3366 -1.7041
 3767TIP3   OH211306   5.720   3.226   4.200  0.1758  0.2760 -0.3400
 3767TIP3    H111307   5.625   3.218   4.209  0.3094  0.0808  1.0108
 3767TIP3    H211308   5.752   3.136   4.210  0.4336  0.1352 -2.0717
 3768TIP3   OH211309   4.438   3.483   2.602 -0.0177 -0.3629 -0.0991
 3768TIP3    H111310   4.416   3.499   2.510  0.9737  0.5479 -0.1905
 3768TIP3    H211311   4.533   3.480   2.604  0.0318  0.9376  1.0911
 3769TIP3   OH211312   3.660   2.632   5.186  0.3024 -0.2319 -0.4290
 3769TIP3    H111313   3.671   2.538   5.172  0.9752 -0.2143 -0.0373
 3769TIP3    H211314   3.589   2.656   5.126 -0.9911 -1.2904  0.6084
 3770TIP3   OH211315   4.016   4.046   0.865 -0.4698 -0.1364  0.0093
 3770TIP3    H111316   4.012   4.117   0.929  1.9987  1.7373 -1.7106
 3770TIP3    H211317   3.931   4.049   0.820 -0.7298  1.1941  0.5333
 3771TIP3   OH211318   1.543   5.492   4.935 -0.1658  0.0021 -0.3399
 3771TIP3    H111319   1.529   5.505   5.029  0.8932 -2.4950  0.2598
 3771TIP3    H211320   1.638   5.499   4.924 -0.1832 -0.7185 -1.0147
 3772TIP3   OH211321   0.248   1.390   2.038 -0.1813  0.0566 -0.2021
 3772TIP3    H111322   0.306   1.334   2.090  0.4195  1.5369  0.8110
 3772TIP3    H211323   0.272   1.372   1.947  1.9534  0.6491  0.1887
 3773TIP3   OH211324   1.875   1.209   0.474  0.3287 -0.0758 -0.2739
 3773TIP3    H111325   1.916   1.122   0.479  1.9544  0.7272  2.7494
 3773TIP3    H211326   1.936   1.261   0.421  0.6184 -0.1605 -0.0259
 3774TIP3   OH211327   3.944   4.472   5.009  0.0401 -0.8023 -0.1514
 3774TIP3    H111328   3.983   4.507   4.929  0.8747 -0.2480  0.4716
 3774TIP3    H211329   3.899   4.547   5.049  1.1787 -0.5821  0.7997
 3775TIP3   OH211330   1.723   2.463   4.026  0.0269 -0.2878  0.0525
 3775TIP3    H111331   1.640   2.424   4.054 -1.1935 -0.2706 -3.0485
 3775TIP3    H211332   1.774   2.390   3.992 -0.0447  0.0774 -0.8829
 3776TIP3   OH211333   4.665   2.467   2.654  0.4063 -0.0220  0.5472
 3776TIP3    H111334   4.733   2.500   2.712  0.0895  3.2940 -0.7586
 3776TIP3    H211335   4.712   2.417   2.588  1.2410 -0.1079  1.1878
 3777TIP3   OH211336   5.260   0.389   3.906 -0.1082 -0.0278  0.3735
 3777TIP3    H111337   5.205   0.424   3.976 -0.4465  0.0300  0.0791
 3777TIP3    H211338   5.199   0.345   3.846  0.2265 -0.4726  0.3484
 3778TIP3   OH211339   4.511   5.161   0.313 -0.5104 -0.3974 -0.2356
 3778TIP3    H111340   4.441   5.219   0.343 -0.2601 -0.3936  0.3500
 3778TIP3    H211341   4.584   5.179   0.372  0.8775  1.4070 -2.3282
 3779TIP3   OH211342   3.437   1.426   4.953 -0.3766  0.2685  0.3083
 3779TIP3    H111343   3.448   1.507   5.004  2.4542 -0.1392  0.5519
 3779TIP3    H211344   3.432   1.357   5.020  2.5776 -0.1887  0.2187
 3780TIP3   OH211345   3.435   4.068   0.263 -0.5300 -0.4434 -0.4187
 3780TIP3    H111346   3.507   4.062   0.201 -0.8668  0.1058 -0.8776
 3780TIP3    H211347   3.385   3.988   0.250  0.2018 -1.0057  0.1713
 3781TIP3   OH211348   0.254   2.613   3.554 -0.1513  0.1518  0.6607
 3781TIP3    H111349   0.276   2.530   3.511  0.6541 -0.1983  1.7091
 3781TIP3    H211350   0.294   2.680   3.499 -0.3280 -0.1881  0.1115
 3782TIP3   OH211351   4.273   0.738   4.434 -0.4363 -0.1241 -0.6558
 3782TIP3    H111352   4.210   0.687   4.383 -0.8987  0.0985 -0.3166
 3782TIP3    H211353   4.352   0.740   4.380  0.0778 -2.3294 -0.1290
 3783TIP3   OH211354   1.158   2.456   0.990 -0.1102 -0.0381  0.0492
 3783TIP3    H111355   1.223   2.416   1.049 -0.2495  0.6526  0.6958
 3783TIP3    H211356   1.211   2.497   0.922  0.0051 -2.1335 -1.2045
 3784TIP3   OH211357   0.258   0.708   2.331  0.8438  0.0735  0.3989
 3784TIP3    H111358   0.235   0.694   2.239 -0.0502  0.2882  0.5765
 3784TIP3    H211359   0.232   0.627   2.375  0.9340  0.1107  0.5234
 3785TIP3   OH211360   4.539   0.955   3.366 -0.1963  0.0745 -0.3468
 3785TIP3    H111361   4.623   0.995   3.347 -0.1107  0.5323  0.9244
 3785TIP3    H211362   4.480   1.028   3.381 -0.2804 -0.2380  0.9756
 3786TIP3   OH211363   5.039   1.715   4.792 -0.1196 -0.1192  0.2299
 3786TIP3    H111364   4.984   1.766   4.732 -1.3384 -1.9275 -0.2883
 3786TIP3    H211365   4.991   1.632   4.804  2.0761 -1.4338  0.4755
 3787TIP3   OH211366   3.023   3.423   1.742 -0.4612  0.2186  0.3699
 3787TIP3    H111367   2.954   3.487   1.762 -0.7999 -0.3032  0.8942
 3787TIP3    H211368   3.002   3.347   1.797  0.8836  0.2848  1.0037
 3788TIP3   OH211369   2.768   2.307   1.936  0.2281 -0.0875  0.0071
 3788TIP3    H111370   2.675   2.316   1.954  0.5895  0.6926  1.7209
 3788TIP3    H211371   2.778   2.217   1.907 -0.9623 -0.4132  0.5396
 3789TIP3   OH211372   5.685   4.145   1.120  0.0853 -0.3511  0.2210
 3789TIP3    H111373   5.716   4.095   1.045 -1.3479 -0.9838  0.0202
 3789TIP3    H211374   5.757   4.141   1.183  0.6582 -1.2267 -0.4711
 3790TIP3   OH211375   0.937   3.486   2.274  0.4627 -0.4887 -0.0831
 3790TIP3    H111376   0.980   3.558   2.321  2.4602 -0.1605 -2.2703
 3790TIP3    H211377   0.844   3.500   2.291  0.9691  0.5940  2.3010
 3791TIP3   OH211378   3.333   3.350   0.531  0.4398  0.2401 -0.3407
 3791TIP3    H111379   3.261   3.358   0.469  1.2269 -1.9411 -1.6353
 3791TIP3    H211380   3.331   3.259   0.560  1.0601  0.8118  1.6909
 3792TIP3   OH211381   1.924   4.987   0.893 -0.4837 -0.0398 -0.4919
 3792TIP3    H111382   1.919   5.052   0.964 -0.0077 -1.2508  0.6897
 3792TIP3    H211383   1.993   5.021   0.835  0.0254  0.3435  0.3143
 3793TIP3   OH211384   5.559   5.906   0.572 -0.0282  0.2279  0.2484
 3793TIP3    H111385   5.552   5.854   0.492  1.3854 -1.0072  0.8961
 3793TIP3    H211386   5.535   5.846   0.643  0.9209  0.6451  0.9491
 3794TIP3   OH211387   2.911   5.625   4.760 -0.3225  0.0613 -0.0042
 3794TIP3    H111388   2.973   5.619   4.833 -0.9874 -1.4119  0.4906
 3794TIP3    H211389   2.845   5.557   4.780 -0.7970 -0.0107 -1.7126
 3795TIP3   OH211390   5.519   1.676   1.088 -0.3829  0.1563  0.2728
 3795TIP3    H111391   5.506   1.762   1.048  0.2222 -0.4712 -1.3312
 3795TIP3    H211392   5.540   1.695   1.180 -1.2120  1.6575  0.1783
 3796TIP3   OH211393   0.468   3.009   3.868  0.5493 -0.7510  0.6902
 3796TIP3    H111394   0.550   2.987   3.823  0.4994  0.0570  0.1731
 3796TIP3    H211395   0.483   3.098   3.900  0.4454 -1.1847  1.9704
 3797TIP3   OH211396   6.119   4.038   1.169 -0.4062 -0.2916 -0.0780
 3797TIP3    H111397   6.066   3.971   1.124 -0.7733 -0.1530  0.1477
 3797TIP3    H211398   6.057   4.082   1.227 -0.0004 -0.2509  0.3260
 3798TIP3   OH211399   0.037   3.541   0.198 -0.1509  0.1827  0.5114
 3798TIP3    H111400   0.057   3.447   0.191 -1.1554 -0.1074  1.2195
 3798TIP3    H211401   0.110   3.578   0.247 -0.0930 -0.3794  0.8622
 3799TIP3   OH211402   3.441   3.099   2.568 -0.3427  0.2759 -0.0822
 3799TIP3    H111403   3.463   3.065   2.482 -0.4373  0.3893 -0.1519
 3799TIP3    H211404   3.467   3.030   2.629  0.4683  0.5220 -0.1337
 3800TIP3   OH211405   3.646   4.610   2.067 -0.1466  0.3284  0.1569
 3800TIP3    H111406   3.641   4.541   2.000 -0.6809 -0.5767  1.0860
 3800TIP3    H211407   3.692   4.568   2.140 -1.4729  0.5784  1.1631
 3801TIP3   OH211408   3.078   2.684   4.725 -0.1961  0.1900 -0.1225
 3801TIP3    H111409   3.085   2.779   4.733 -0.7626  0.1819  0.6850
 3801TIP3    H211410   3.076   2.652   4.816  3.2698 -0.9040 -0.2860
 3802TIP3   OH211411   4.153   4.742   3.315  0.5247  0.1970 -0.0514
 3802TIP3    H111412   4.146   4.756   3.221 -0.1661  0.6703  0.0555
 3802TIP3    H211413   4.186   4.653   3.324  1.3652  0.4236 -0.7444
 3803TIP3   OH211414   0.928   3.281   1.651  0.5981  0.0215 -0.2497
 3803TIP3    H111415   0.849   3.304   1.601  0.7273 -0.9603 -0.9427
 3803TIP3    H211416   0.954   3.196   1.616  0.8371 -0.5956  1.3364
 3804TIP3   OH211417   4.952   1.477   1.316  0.5349  0.2276  0.4168
 3804TIP3    H111418   4.996   1.395   1.338 -0.3208 -0.6669 -1.0977
 3804TIP3    H211419   4.864   1.451   1.289  0.3650  1.6139 -0.4318
 3805TIP3   OH211420   4.664   0.009   2.753  0.1139  0.0568  0.1240
 3805TIP3    H111421   4.721  -0.060   2.784 -0.9738 -1.6226 -1.4195
 3805TIP3    H211422   4.723   0.070   2.707  0.9185 -0.4790  0.4299
 3806TIP3   OH211423   5.217   0.754   4.301  0.3829 -0.1830 -0.2335
 3806TIP3    H111424   5.170   0.764   4.384 -2.1064  0.2143 -1.5862
 3806TIP3    H211425   5.247   0.843   4.280  0.7109 -0.2230  0.0491
 3807TIP3   OH211426   5.920   2.275   3.593 -0.3573  0.3682  0.2504
 3807TIP3    H111427   5.825   2.262   3.586 -0.3648  1.2217 -2.0808
 3807TIP3    H211428   5.929   2.361   3.635 -0.7088  1.1902 -1.2737
 3808TIP3   OH211429   0.637   3.952   3.508 -0.3571  0.1860 -0.6301
 3808TIP3    H111430   0.546   3.970   3.482 -0.8095 -1.8309 -0.6259
 3808TIP3    H211431   0.629   3.902   3.589  0.8159  0.7391 -0.1532
 3809TIP3   OH211432   3.713   2.887   2.118 -0.3323 -0.1157  0.5555
 3809TIP3    H111433   3.653   2.877   2.044 -0.6660  1.6596  0.5291
 3809TIP3    H211434   3.788   2.934   2.081  1.7938 -3.3903  0.2740
 3810TIP3   OH211435   5.387   2.423   1.925 -0.3426 -0.0847  0.2836
 3810TIP3    H111436   5.372   2.507   1.968 -0.2828  1.1988 -2.0334
 3810TIP3    H211437   5.300   2.392   1.900 -0.2638  0.0845 -0.2253
 3811TIP3   OH211438   4.150   2.212   1.925  0.4935 -0.3497 -1.0060
 3811TIP3    H111439   4.229   2.251   1.963  0.4789 -0.2817 -1.0453
 3811TIP3    H211440   4.104   2.285   1.884 -0.4555 -0.0559  0.4822
 3812TIP3   OH211441   0.107   3.854   3.638  0.0421 -0.3069 -0.1793
 3812TIP3    H111442   0.162   3.801   3.694  1.7271  0.3586 -1.1214
 3812TIP3    H211443   0.051   3.792   3.592 -0.0108 -0.9975  0.7978
 3813TIP3   OH211444   0.093   3.293   2.000 -0.4701  0.1104 -0.3889
 3813TIP3    H111445   0.087   3.334   1.914 -0.6991  1.4176  0.2234
 3813TIP3    H211446   0.129   3.361   2.057 -2.4193  0.0530  1.0246
 3814TIP3   OH211447   1.893   0.835   3.363 -0.3547  0.6179  0.1379
 3814TIP3    H111448   1.841   0.847   3.284 -1.1749 -0.4142  0.4971
 3814TIP3    H211449   1.933   0.921   3.379 -0.7690  1.0336 -0.9680
 3815TIP3   OH211450   2.470   5.152   1.503 -0.8961 -0.4194  0.0920
 3815TIP3    H111451   2.534   5.149   1.574 -0.7211  0.9170  0.0157
 3815TIP3    H211452   2.463   5.062   1.473  1.5498 -0.5033 -0.4190
 3816TIP3   OH211453   1.147   1.559   1.958 -0.0977 -0.2666  0.0719
 3816TIP3    H111454   1.177   1.517   2.039  0.4803 -0.3528 -0.1734
 3816TIP3    H211455   1.195   1.512   1.889 -0.1262  0.2047 -0.2726
 3817TIP3   OH211456   0.751   1.882   2.694 -0.1848  0.5290  0.8940
 3817TIP3    H111457   0.839   1.846   2.684 -1.2130 -1.7940 -0.6963
 3817TIP3    H211458   0.723   1.902   2.605 -1.7262 -0.0384  1.2062
 3818TIP3   OH211459   4.120   3.589   1.502 -0.1265  0.9312 -0.3036
 3818TIP3    H111460   4.029   3.571   1.525  0.2278  1.5720  1.8011
 3818TIP3    H211461   4.165   3.599   1.586  1.5743  2.1554 -1.2847
 3819TIP3   OH211462   4.320   1.964   4.191  0.1598  0.0567 -0.4469
 3819TIP3    H111463   4.276   1.882   4.214 -2.3233  1.2625 -0.5110
 3819TIP3    H211464   4.250   2.030   4.194  2.3717  2.5256  1.3923
 3820TIP3   OH211465   1.922   3.460   3.457  0.5401  0.1920 -0.0996
 3820TIP3    H111466   1.897   3.414   3.377  1.0852  0.9831 -0.7446
 3820TIP3    H211467   2.013   3.435   3.473  0.0361 -1.0278  1.0603
 3821TIP3   OH211468   3.541   4.739   4.913 -0.9290  0.7402  0.3074
 3821TIP3    H111469   3.486   4.797   4.967 -3.2445 -1.9900  1.1067
 3821TIP3    H211470   3.480   4.702   4.849  0.0015 -2.1460  0.9738
 3822TIP3   OH211471   5.210   2.557   4.318 -0.6723  0.6934  0.4054
 3822TIP3    H111472   5.223   2.643   4.357 -1.1724 -0.2567  2.7996
 3822TIP3    H211473   5.296   2.532   4.284 -0.3332  1.7374  0.4814
 3823TIP3   OH211474   0.931   1.599   3.466  0.3053  0.2729 -0.0064
 3823TIP3    H111475   0.899   1.545   3.539 -2.4068  1.1511 -0.4414
 3823TIP3    H211476   1.025   1.606   3.482  0.4963 -2.9931  1.0838
 3824TIP3   OH211477   2.926   1.455   0.909 -0.4773  0.4254 -0.6867
 3824TIP3    H111478   2.992   1.504   0.958 -1.7899 -0.9600  2.7148
 3824TIP3    H211479   2.935   1.487   0.819  1.1412  4.2399  0.6189
 3825TIP3   OH211480   2.194   0.419   0.677 -0.2066  0.0065 -0.0280
 3825TIP3    H111481   2.100   0.404   0.670 -0.3203  1.2724 -2.2001
 3825TIP3    H211482   2.229   0.390   0.593  0.8339  2.4846 -0.5660
 3826TIP3   OH211483   6.146   5.343   1.712  0.1079  0.5847  0.3165
 3826TIP3    H111484   6.199   5.273   1.675 -1.2517 -0.8764  1.0133
 3826TIP3    H211485   6.149   5.413   1.647  2.3242  0.3111  0.0537
 3827TIP3   OH211486   4.162   0.235   0.611 -0.6136 -0.0041 -0.4181
 3827TIP3    H111487   4.075   0.200   0.633 -1.3260  1.9381  0.0893
 3827TIP3    H211488   4.162   0.323   0.649  1.6689 -0.0238 -0.2545
 3828TIP3   OH211489   1.261   3.362   3.421  0.1474 -0.3139  0.5549
 3828TIP3    H111490   1.277   3.331   3.332 -0.9046  0.5410  0.0419
 3828TIP3    H211491   1.169   3.387   3.421  0.9404  3.0574  0.8107
 3829TIP3   OH211492   2.243   0.428   2.455 -0.4537 -0.3280 -0.5529
 3829TIP3    H111493   2.292   0.486   2.396  0.0388  0.3012  0.4451
 3829TIP3    H211494   2.283   0.441   2.541 -1.8500 -0.4017  0.1493
 3830TIP3   OH211495   3.516   5.223   5.092 -0.0753  0.1630  0.1066
 3830TIP3    H111496   3.510   5.142   5.143 -1.0503  0.6483  0.7881
 3830TIP3    H211497   3.447   5.279   5.127  2.0369  2.2353  1.3033
 3831TIP3   OH211498   1.718   3.738   4.869  0.4212  0.0584  0.1505
 3831TIP3    H111499   1.680   3.757   4.955  0.9559  1.0865  0.1749
 3831TIP3    H211500   1.783   3.807   4.856 -0.7110  0.8547 -1.7257
 3832TIP3   OH211501   1.817   4.862   5.196 -0.2719 -0.3296  0.7804
 3832TIP3    H111502   1.786   4.839   5.108  0.1200 -0.3112  0.6357
 3832TIP3    H211503   1.840   4.778   5.236 -0.2077 -0.3162  0.7723
 3833TIP3   OH211504   1.680   2.268   1.700 -0.2780 -0.1886  0.2850
 3833TIP3    H111505   1.632   2.227   1.629 -2.3427  2.0520  0.2284
 3833TIP3    H211506   1.696   2.197   1.763  0.6755 -1.9825 -1.8657
 3834TIP3   OH211507   5.487   2.235   3.372 -0.0787 -0.3199  0.0273
 3834TIP3    H111508   5.479   2.153   3.421  0.9815  0.0294  0.8247
 3834TIP3    H211509   5.525   2.297   3.435  0.6327  0.3408 -1.0208
 3835TIP3   OH211510   4.882   4.758   2.471 -0.4025  0.2498 -0.2196
 3835TIP3    H111511   4.811   4.713   2.518  1.4988 -1.2455  1.4340
 3835TIP3    H211512   4.914   4.823   2.534  0.4241  0.0780 -0.4457
 3836TIP3   OH211513   4.602   1.872   2.797 -0.1729  0.3497  0.0981
 3836TIP3    H111514   4.535   1.862   2.729  0.0236 -1.2086  0.1090
 3836TIP3    H211515   4.565   1.831   2.874  0.0155  1.2323  0.6749
 3837TIP3   OH211516   5.017   3.280   4.204  0.2749  0.1624  0.0387
 3837TIP3    H111517   4.960   3.343   4.247  0.2247  0.4346 -0.4198
 3837TIP3    H211518   5.100   3.326   4.194  0.5169 -0.1630  0.5232
 3838TIP3   OH211519   3.954   5.439   1.993  0.3264  0.4580  0.3012
 3838TIP3    H111520   4.033   5.490   1.976  3.0795 -3.0915  1.1298
 3838TIP3    H211521   3.944   5.443   2.088 -0.4515  0.7701  0.2111
 3839TIP3   OH211522   5.565   2.149   4.238 -0.0604  0.0986 -0.1929
 3839TIP3    H111523   5.631   2.083   4.260  1.7339  1.9882  0.4280
 3839TIP3    H211524   5.523   2.170   4.322 -1.9948 -1.5394 -0.6730
 3840TIP3   OH211525   1.648   5.589   4.349 -0.4425 -0.1552 -0.3842
 3840TIP3    H111526   1.639   5.513   4.406  1.3898 -1.2059 -1.3932
 3840TIP3    H211527   1.648   5.552   4.261 -0.2482  1.1001 -0.9242
 3841TIP3   OH211528   5.614   3.621   0.011 -0.1057  0.7120  0.7774
 3841TIP3    H111529   5.584   3.589   0.096 -0.0770 -1.9105 -0.1148
 3841TIP3    H211530   5.538   3.664  -0.027 -0.3194  1.2883  1.8140
 3842TIP3   OH211531   4.870   0.828   4.956  0.5996  0.2789 -0.2064
 3842TIP3    H111532   4.862   0.899   5.020  0.0337  0.0086  0.0301
 3842TIP3    H211533   4.963   0.809   4.952  0.6121  0.0739  0.7934
 3843TIP3   OH211534   0.850   0.385   4.186 -0.3562 -0.2214 -0.2650
 3843TIP3    H111535   0.761   0.370   4.218 -0.7001  2.5169  0.3045
 3843TIP3    H211536   0.847   0.473   4.147  1.9586 -0.3160 -0.8105
 3844TIP3   OH211537   1.331   5.246   1.576 -0.4571  0.1408 -0.2930
 3844TIP3    H111538   1.341   5.153   1.556  0.0200  0.3129 -0.8998
 3844TIP3    H211539   1.409   5.287   1.538  0.5691  0.5048  2.0323
 3845TIP3   OH211540   2.798   2.656   3.325  0.4514 -0.4631 -0.0460
 3845TIP3    H111541   2.714   2.672   3.368  0.8154  2.6822 -0.2668
 3845TIP3    H211542   2.834   2.744   3.310  3.1065 -1.6671 -1.2998
 3846TIP3   OH211543   1.890   3.126   4.643 -0.5455 -0.3417 -0.1380
 3846TIP3    H111544   1.916   3.051   4.591 -0.5874 -1.3821  1.2941
 3846TIP3    H211545   1.931   3.112   4.728  0.8461  2.1106 -0.3158
 3847TIP3   OH211546   5.110   0.607   3.129 -0.6783  0.4633  0.1096
 3847TIP3    H111547   5.090   0.524   3.172  0.6639  0.9578  1.8109
 3847TIP3    H211548   5.092   0.674   3.195 -0.1778  1.4043 -0.6692
 3848TIP3   OH211549   5.232   4.435   5.120 -0.1050 -0.4322 -0.6573
 3848TIP3    H111550   5.155   4.378   5.128 -1.0035  0.9479  1.5052
 3848TIP3    H211551   5.199   4.515   5.080  0.2285  0.1064  0.1241
 3849TIP3   OH211552   4.540   1.110   0.587  0.1749  0.5745  0.1271
 3849TIP3    H111553   4.462   1.145   0.630 -0.0484 -0.7174  0.8229
 3849TIP3    H211554   4.510   1.028   0.546  0.8946  0.6719 -0.6163
 3850TIP3   OH211555   3.482   5.965   3.733 -0.2477 -0.2287 -0.0279
 3850TIP3    H111556   3.413   5.964   3.666  1.2739  2.0402 -1.7552
 3850TIP3    H211557   3.543   6.032   3.704  1.7214 -0.7944  2.4713
 3851TIP3   OH211558   3.276   5.959   1.158 -0.1316  0.3876  0.1098
 3851TIP3    H111559   3.361   5.944   1.200 -0.3801  0.4215  0.6260
 3851TIP3    H211560   3.214   5.964   1.230 -0.9188 -1.7843 -0.3328
 3852TIP3   OH211561   5.295   2.251   3.645  0.4423 -0.1007 -0.6706
 3852TIP3    H111562   5.227   2.312   3.673 -0.2553 -0.9375 -0.4859
 3852TIP3    H211563   5.249   2.187   3.591  1.1888 -0.3581 -1.0187
 3853TIP3   OH211564   3.773   3.345   2.345 -0.1894 -0.1952  0.1461
 3853TIP3    H111565   3.805   3.323   2.432  0.7407  0.8343  0.0898
 3853TIP3    H211566   3.678   3.342   2.352 -0.1214 -0.2144  1.1657
 3854TIP3   OH211567   0.102   0.459   1.932 -0.3697 -0.2540 -0.1069
 3854TIP3    H111568   0.166   0.483   1.865  1.8017 -1.3345  1.4561
 3854TIP3    H211569   0.114   0.524   2.001  0.8334 -1.8095  1.2372
 3855TIP3   OH211570   1.800   3.747   0.340  0.2249  0.2961  0.0595
 3855TIP3    H111571   1.756   3.674   0.384 -0.1275 -0.1821 -1.0288
 3855TIP3    H211572   1.796   3.723   0.247  1.4967  0.9600 -0.1804
 3856TIP3   OH211573   1.020   2.100   3.908 -0.2835 -0.2451  0.3797
 3856TIP3    H111574   0.959   2.076   3.839  1.7856 -1.4758 -1.1363
 3856TIP3    H211575   0.967   2.146   3.973 -2.4176  0.4839 -1.7602
 3857TIP3   OH211576   3.171   0.685   3.969 -0.4625 -0.2849  0.3265
 3857TIP3    H111577   3.264   0.664   3.965 -0.7168 -1.2999 -1.0210
 3857TIP3    H211578   3.155   0.706   4.061  1.0325 -0.3717  0.6304
 3858TIP3   OH211579   6.085   4.207   1.852  0.2131 -0.0581 -0.2079
 3858TIP3    H111580   6.048   4.281   1.900 -0.5461  0.5244 -1.6299
 3858TIP3    H211581   6.177   4.205   1.878  0.6712  2.4429 -1.3569
 3859TIP3   OH211582   2.820   2.244   4.561  0.4040  0.3443  0.3019
 3859TIP3    H111583   2.903   2.197   4.553 -0.6938 -1.5236 -1.1614
 3859TIP3    H211584   2.841   2.334   4.535  1.7361 -0.4019 -1.4591
 3860TIP3   OH211585   4.479   4.094   1.071 -0.7607  0.2470 -0.2394
 3860TIP3    H111586   4.538   4.134   1.008  0.4467  0.2380  0.8419
 3860TIP3    H211587   4.402   4.069   1.020  0.4850 -0.4740 -1.8638
 3861TIP3   OH211588   6.121   1.885   4.334 -0.3059  0.0919  0.4070
 3861TIP3    H111589   6.078   1.834   4.402  0.1807 -0.2311  0.4828
 3861TIP3    H211590   6.206   1.909   4.372 -0.7960  1.5342  0.6179
 3862TIP3   OH211591   2.359   3.906   3.757  0.4962 -0.2347 -0.5611
 3862TIP3    H111592   2.306   3.934   3.682  2.9836  0.9395 -2.0156
 3862TIP3    H211593   2.344   3.973   3.823  1.0549  0.7886 -1.4259
 3863TIP3   OH211594   5.954   6.019   4.815  0.8610 -0.4085 -0.2361
 3863TIP3    H111595   5.966   5.949   4.751 -0.6838 -0.4540 -0.5215
 3863TIP3    H211596   5.916   5.975   4.892 -1.1823  0.2315 -0.8224
 3864TIP3   OH211597   0.749   1.816   3.413 -0.1257  0.1720 -0.2604
 3864TIP3    H111598   0.824   1.762   3.437  0.0147  0.2318 -0.5534
 3864TIP3    H211599   0.711   1.772   3.337 -2.1214 -1.4567  1.5743
 3865TIP3   OH211600   1.991   1.445   1.249 -0.3293 -0.2266 -0.3194
 3865TIP3    H111601   2.082   1.439   1.219 -0.7240  0.5907 -1.7609
 3865TIP3    H211602   1.957   1.356   1.241  0.0702 -0.3484 -0.6779
 3866TIP3   OH211603   4.113   0.897   2.427  0.1767 -0.3585 -0.6750
 3866TIP3    H111604   4.114   0.846   2.346  0.7095  0.5135 -1.2343
 3866TIP3    H211605   4.167   0.846   2.488  0.1216 -0.8152 -1.0024
 3867TIP3   OH211606   1.963   4.024   4.321  0.5519  0.1781  0.3559
 3867TIP3    H111607   1.998   3.960   4.258 -1.9222 -0.8335 -0.0962
 3867TIP3    H211608   1.871   4.032   4.297 -0.7826 -0.9413  4.3885
 3868TIP3   OH211609   6.088   5.162   2.116 -0.0929  0.4330  0.3170
 3868TIP3    H111610   6.016   5.186   2.057  0.6310  1.6524 -0.1193
 3868TIP3    H211611   6.077   5.068   2.132 -1.1852  0.4018 -0.5493
 3869TIP3   OH211612   5.703   2.026   1.611 -0.6461 -0.3527  0.3316
 3869TIP3    H111613   5.679   1.936   1.635 -2.5057  0.5089  2.0413
 3869TIP3    H211614   5.623   2.063   1.576  0.0674  0.7083 -0.2208
 3870TIP3   OH211615   6.073   2.730   2.886  0.5831  0.0400  0.2440
 3870TIP3    H111616   6.088   2.661   2.821  1.4418 -0.0519  0.5194
 3870TIP3    H211617   6.024   2.688   2.956  0.5403 -0.1193  0.1188
 3871TIP3   OH211618   1.666   3.120   4.845  0.1536 -0.1066 -0.3518
 3871TIP3    H111619   1.719   3.137   4.766 -0.1341 -0.6305 -0.6657
 3871TIP3    H211620   1.718   3.156   4.917  0.9949 -0.7089 -0.6454
 3872TIP3   OH211621   6.095   5.030   3.858 -0.5712  0.0599  0.5515
 3872TIP3    H111622   6.073   4.952   3.909 -0.7133  0.5077  1.1842
 3872TIP3    H211623   6.119   5.095   3.924  1.0759  0.0906 -0.0224
 3873TIP3   OH211624   2.926   2.445   4.205  0.2905  0.4241  0.2921
 3873TIP3    H111625   2.863   2.517   4.205  0.2697  0.4518 -1.3584
 3873TIP3    H211626   2.998   2.476   4.259  0.1147  1.5582 -0.0973
 3874TIP3   OH211627   5.077   1.060   4.859 -0.5819 -0.0606  0.1267
 3874TIP3    H111628   5.049   1.099   4.942  0.6642 -0.0963  0.5738
 3874TIP3    H211629   5.137   0.989   4.884 -0.8978 -0.6626 -0.7740
 3875TIP3   OH211630   1.532   5.821   4.042  0.2773  0.2883 -0.0648
 3875TIP3    H111631   1.496   5.755   4.102  0.9204  1.0276  1.1898
 3875TIP3    H211632   1.594   5.773   3.988  2.1001  0.1140  2.0479
 3876TIP3   OH211633   0.755   4.004   2.524  0.1870 -0.4690 -0.0121
 3876TIP3    H111634   0.676   3.955   2.503 -0.3032  1.1938 -2.3889
 3876TIP3    H211635   0.742   4.090   2.484  2.2163  0.6577  1.5571
 3877TIP3   OH211636   3.859   5.021   0.243  0.1508 -0.1033  0.2742
 3877TIP3    H111637   3.798   5.057   0.308  0.3264 -0.1212  0.4515
 3877TIP3    H211638   3.832   5.061   0.160 -0.6862 -0.8131  0.1825
 3878TIP3   OH211639   1.201   3.299   4.449  0.2455 -0.2391  0.5070
 3878TIP3    H111640   1.143   3.331   4.380 -1.0295 -0.9152  1.2322
 3878TIP3    H211641   1.271   3.365   4.454  1.2028 -0.8632 -2.3874
 3879TIP3   OH211642   5.590   4.497   2.557 -0.2485 -0.3689  0.6260
 3879TIP3    H111643   5.558   4.501   2.467  0.1890 -1.2172  0.4208
 3879TIP3    H211644   5.522   4.540   2.609  0.1056  1.3131 -0.2517
 3880TIP3   OH211645   1.111   3.859   2.743  0.4233  0.5972 -0.3335
 3880TIP3    H111646   1.041   3.871   2.678  0.0817  0.3386 -0.0189
 3880TIP3    H211647   1.151   3.945   2.751  0.4202  0.6483 -0.8323
 3881TIP3   OH211648   3.967   4.462   4.013 -0.1216  0.5289  0.0796
 3881TIP3    H111649   3.923   4.547   4.022 -1.2260  0.1388 -1.3872
 3881TIP3    H211650   4.060   4.484   4.003 -0.6408  1.7822 -2.9273
 3882TIP3   OH211651   2.957   1.459   0.643 -0.6609  0.0475 -0.0209
 3882TIP3    H111652   2.883   1.404   0.618 -2.5460  2.6245 -0.4767
 3882TIP3    H211653   2.998   1.485   0.561 -0.4391  0.1839  0.1294
 3883TIP3   OH211654   6.077   4.036   3.835 -1.0866  0.5791  0.8772
 3883TIP3    H111655   6.122   4.048   3.751 -1.9602  0.5350  0.3967
 3883TIP3    H211656   6.103   3.948   3.863  1.0484  1.4229  1.8089
 3884TIP3   OH211657   4.463   2.733   0.890 -0.6161 -0.2135 -0.1147
 3884TIP3    H111658   4.453   2.747   0.796  1.9418  0.7616 -0.3243
 3884TIP3    H211659   4.500   2.815   0.923 -0.2458 -0.9921  1.5200
 3885TIP3   OH211660   2.631   5.042   2.595  0.0903  0.1847 -0.5317
 3885TIP3    H111661   2.569   5.023   2.524 -0.1689  0.0621 -0.2740
 3885TIP3    H211662   2.622   4.968   2.656 -0.4541  0.7935  0.1482
 3886TIP3   OH211663   3.703   0.496   3.311  0.0571 -0.2861 -0.4990
 3886TIP3    H111664   3.625   0.537   3.273 -0.1236  0.0482  0.2025
 3886TIP3    H211665   3.674   0.409   3.337  0.6327 -1.1930 -2.6631
 3887TIP3   OH211666   1.431   4.478   0.563 -0.4172  0.5169  0.3437
 3887TIP3    H111667   1.366   4.539   0.531 -0.5013  0.2968  0.0928
 3887TIP3    H211668   1.380   4.408   0.605 -0.3154  0.7254  0.8262
 3888TIP3   OH211669   4.596   0.721   3.841 -0.1378  0.0841  0.3531
 3888TIP3    H111670   4.525   0.696   3.900  0.3048  0.3656  1.0167
 3888TIP3    H211671   4.651   0.780   3.893  0.3999  0.1361 -0.2604
 3889TIP3   OH211672   4.603   1.495   3.113  0.0325  0.6081 -0.2037
 3889TIP3    H111673   4.694   1.520   3.130 -0.2563  0.2412  2.3621
 3889TIP3    H211674   4.600   1.476   3.019  2.5960  0.5816 -0.3586
 3890TIP3   OH211675   2.002   1.521   0.563  0.3768  0.2282  0.4755
 3890TIP3    H111676   2.076   1.511   0.623 -0.8251 -2.3781  1.6776
 3890TIP3    H211677   2.021   1.461   0.491  0.0793  0.5899  0.0894
 3891TIP3   OH211678   1.766   0.778   4.553 -0.0248  0.2618 -0.2445
 3891TIP3    H111679   1.813   0.859   4.533  0.8778  0.3739  1.9577
 3891TIP3    H211680   1.829   0.725   4.603 -1.1958 -0.9881 -0.0137
 3892TIP3   OH211681   5.952   3.321   1.791 -0.1503 -0.2940  0.2881
 3892TIP3    H111682   6.016   3.295   1.725 -0.9947  1.9757 -1.5898
 3892TIP3    H211683   6.002   3.333   1.871  1.8355  1.3493 -1.0979
 3893TIP3   OH211684   0.016   5.597   1.691 -0.4458  0.2266  0.0254
 3893TIP3    H111685   0.044   5.529   1.753  1.7686  0.9191 -0.1496
 3893TIP3    H211686   0.071   5.672   1.711 -2.0976  1.6496 -0.5238
 3894TIP3   OH211687   2.712   5.290   1.337 -0.1551 -0.0069 -0.0633
 3894TIP3    H111688   2.766   5.217   1.308  0.9442  0.4345  0.7765
 3894TIP3    H211689   2.668   5.259   1.416 -0.2941 -0.0221 -0.1473
 3895TIP3   OH211690   3.874   5.088   0.569 -0.2562 -0.0296 -0.5129
 3895TIP3    H111691   3.820   5.155   0.527  0.0748  0.6061  0.0508
 3895TIP3    H211692   3.945   5.072   0.506 -0.5238 -0.1087 -0.7988
 3896TIP3   OH211693   2.303   1.138   3.126  0.3056  0.6022  0.1030
 3896TIP3    H111694   2.285   1.140   3.220 -0.5172 -1.7789  0.0762
 3896TIP3    H211695   2.222   1.169   3.085  0.6183  1.5133  0.1532
 3897TIP3   OH211696   4.291   3.558   0.834 -0.3411  0.3844 -0.1781
 3897TIP3    H111697   4.383   3.561   0.810 -0.3020 -0.4340 -0.1669
 3897TIP3    H211698   4.264   3.467   0.816 -0.8485  0.3007  0.8677
 3898TIP3   OH211699   2.689   4.062   0.250  0.0733 -0.1800 -0.3774
 3898TIP3    H111700   2.597   4.034   0.249 -0.5686  1.7887 -0.9423
 3898TIP3    H211701   2.728   4.017   0.175 -0.6745 -0.2782 -0.7228
 3899TIP3   OH211702   0.546   5.468   2.336  0.3207  0.1666  0.0079
 3899TIP3    H111703   0.632   5.427   2.325  0.3447 -0.6027  2.3707
 3899TIP3    H211704   0.516   5.438   2.422 -1.4043  2.0904  0.1681
 3900TIP3   OH211705   1.628   5.478   2.991  0.1234 -0.0011  0.3962
 3900TIP3    H111706   1.676   5.555   3.022 -0.8685  1.4769 -1.5318
 3900TIP3    H211707   1.673   5.404   3.031  2.5456  1.4456  0.5229
 3901TIP3   OH211708   0.510   5.755   0.518 -0.1191 -0.1855  0.4925
 3901TIP3    H111709   0.551   5.745   0.431  0.8663 -1.1328  1.0295
 3901TIP3    H211710   0.508   5.665   0.553  1.5094  0.4077  2.3108
 3902TIP3   OH211711   1.198   1.205   4.949 -0.3084 -0.2570 -0.7131
 3902TIP3    H111712   1.115   1.236   4.986  0.0746 -1.9124  1.8495
 3902TIP3    H211713   1.173   1.132   4.892 -0.8284  1.5593 -2.8964
 3903TIP3   OH211714   4.353   0.529   2.359  0.1918  0.1273  0.0238
 3903TIP3    H111715   4.421   0.551   2.295 -0.4521  1.4051 -0.2490
 3903TIP3    H211716   4.394   0.544   2.444  0.5826 -0.1557 -0.1096
 3904TIP3   OH211717   2.680   1.951   4.690 -0.3153  0.0854  1.0754
 3904TIP3    H111718   2.642   2.028   4.648 -0.1975 -0.4968 -0.1345
 3904TIP3    H211719   2.774   1.959   4.676 -0.4255 -1.4472 -1.2657
 3905TIP3   OH211720   3.098   1.391   2.732 -0.7161  0.5552 -0.4267
 3905TIP3    H111721   3.022   1.384   2.674 -1.6677 -0.7162  0.9005
 3905TIP3    H211722   3.074   1.460   2.794 -0.7215  0.2613 -0.1005
 3906TIP3   OH211723   0.362   4.738   2.735  0.3175  0.1374 -0.2295
 3906TIP3    H111724   0.451   4.728   2.769 -0.2367 -0.5061  1.0752
 3906TIP3    H211725   0.309   4.759   2.811 -0.4099  2.2668 -1.2395
 3907TIP3   OH211726   5.349   0.823   1.276 -1.0144  0.1358 -0.2683
 3907TIP3    H111727   5.382   0.831   1.187  0.2691 -1.2076  0.0370
 3907TIP3    H211728   5.262   0.864   1.274 -0.5230  1.1848 -1.8213
 3908TIP3   OH211729   4.031   2.842   1.303  0.0456 -0.9752  0.0898
 3908TIP3    H111730   4.033   2.934   1.330  0.0887 -1.2069  0.8948
 3908TIP3    H211731   4.047   2.845   1.208  1.4065 -0.2469  0.3101
 3909TIP3   OH211732   2.574   0.477   3.448  0.0935  0.2938 -0.2375
 3909TIP3    H111733   2.581   0.437   3.361  0.6615  1.6857 -0.8681
 3909TIP3    H211734   2.507   0.425   3.493 -0.9260  0.1330 -1.8476
 3910TIP3   OH211735   2.160   5.842   4.819 -0.2114 -0.7795 -0.0863
 3910TIP3    H111736   2.090   5.780   4.799  0.0442 -2.0588  2.5982
 3910TIP3    H211737   2.241   5.791   4.810  0.0032 -0.9329  2.1043
 3911TIP3   OH211738   4.793   4.137   0.638  0.2241 -0.3408 -0.4639
 3911TIP3    H111739   4.763   4.226   0.652  0.6216 -0.2866  0.1013
 3911TIP3    H211740   4.877   4.146   0.593 -0.0555 -0.4508 -1.0065
 3912TIP3   OH211741   4.115   0.531   4.267 -0.3481 -0.1731 -0.2459
 3912TIP3    H111742   4.077   0.469   4.203  0.7639 -0.3073 -0.7986
 3912TIP3    H211743   4.088   0.496   4.352  0.0781 -1.3183 -0.5569
 3913TIP3   OH211744   4.446   0.623   0.730 -0.5339 -0.7834  0.1426
 3913TIP3    H111745   4.375   0.628   0.794 -1.9091 -0.9815 -1.3206
 3913TIP3    H211746   4.521   0.590   0.781 -1.7909 -1.7448  1.4809
 3914TIP3   OH211747   5.374   4.674   2.702 -0.7666  0.2645  0.6398
 3914TIP3    H111748   5.365   4.581   2.726  0.4834 -0.1821 -0.4757
 3914TIP3    H211749   5.303   4.718   2.748 -1.2039 -1.2099  1.4299
 3915TIP3   OH211750   1.450   5.146   4.528 -0.3574 -0.4845 -0.1034
 3915TIP3    H111751   1.489   5.060   4.514  0.7865 -0.3273  1.6870
 3915TIP3    H211752   1.448   5.156   4.624 -0.3663  1.5007 -0.2596
 3916TIP3   OH211753   3.487   5.938   1.335 -0.0408 -0.2363 -0.2464
 3916TIP3    H111754   3.558   5.998   1.311 -0.8476  1.2254  0.8264
 3916TIP3    H211755   3.529   5.870   1.388  0.2553  2.4406  3.3762
 3917TIP3   OH211756   2.378   1.063   2.204  0.1543 -0.2981  0.2838
 3917TIP3    H111757   2.453   1.008   2.226 -1.7963 -2.9367  0.7899
 3917TIP3    H211758   2.349   1.099   2.288 -0.6714 -1.3945  0.4818
 3918TIP3   OH211759   1.425   2.371   2.580  0.0032  0.3181 -0.0253
 3918TIP3    H111760   1.391   2.407   2.498  0.7962 -0.2787 -0.6339
 3918TIP3    H211761   1.390   2.282   2.583  1.1037 -0.1498 -0.4378
 3919TIP3   OH211762   2.753   0.274   1.182  0.2692  0.1680  0.0659
 3919TIP3    H111763   2.822   0.280   1.248 -0.4739 -1.3824  1.0623
 3919TIP3    H211764   2.799   0.255   1.100  1.0175 -1.8029  0.8829
 3920TIP3   OH211765   5.272   5.666   2.960 -0.2392 -0.2408  0.0754
 3920TIP3    H111766   5.304   5.700   2.877 -1.5074  0.6298 -0.0862
 3920TIP3    H211767   5.280   5.571   2.951  1.9287 -0.0948 -0.0556
 3921TIP3   OH211768   6.310   2.584   3.433  0.2712  0.1590 -0.8070
 3921TIP3    H111769   6.304   2.489   3.420  0.2731 -0.5342  3.0000
 3921TIP3    H211770   6.400   2.597   3.465 -0.3447  1.0503  0.6688
 3922TIP3   OH211771   2.154   4.189   4.377  0.1615  0.3759  0.5330
 3922TIP3    H111772   2.072   4.142   4.363  0.4522 -0.2009  0.7791
 3922TIP3    H211773   2.180   4.217   4.289  0.1022 -0.0979  0.3650
 3923TIP3   OH211774   4.858   4.638   1.921  0.4831  0.0411 -0.4874
 3923TIP3    H111775   4.782   4.692   1.898  0.5927  0.2105 -0.4477
 3923TIP3    H211776   4.871   4.654   2.015  0.6306  0.0871 -0.5160
 3924TIP3   OH211777   1.746   1.921   4.692  0.1903  0.0450  0.1636
 3924TIP3    H111778   1.767   1.829   4.707  0.4010  0.1433  0.4761
 3924TIP3    H211779   1.798   1.969   4.756  1.2756  0.4998 -1.0279
 3925TIP3   OH211780   0.632   0.255   3.093 -0.2910 -0.0788 -0.0501
 3925TIP3    H111781   0.713   0.271   3.141  0.0695  0.5948 -0.8470
 3925TIP3    H211782   0.647   0.172   3.047 -1.2715 -1.6192  2.2541
 3926TIP3   OH211783   1.634   3.436   2.060 -0.3645 -0.4476  0.0273
 3926TIP3    H111784   1.557   3.401   2.014 -0.3726  1.3223 -1.4294
 3926TIP3    H211785   1.706   3.425   1.998 -0.1805  1.1200 -0.0772
 3927TIP3   OH211786   3.316   1.118   1.194  0.0746 -0.0021  0.3500
 3927TIP3    H111787   3.360   1.102   1.111  1.1499 -0.2642  0.9477
 3927TIP3    H211788   3.379   1.168   1.245 -0.6878  0.4152  0.9100
 3928TIP3   OH211789   1.601   1.714   1.388 -0.0258 -0.2581  0.5805
 3928TIP3    H111790   1.579   1.722   1.481 -0.8820 -0.4381  0.3987
 3928TIP3    H211791   1.647   1.630   1.382 -1.0511 -0.8401  0.6549
 3929TIP3   OH211792   5.669   1.848   2.466  0.4324  0.2292  0.6679
 3929TIP3    H111793   5.762   1.832   2.482  0.5896 -0.0101 -0.4045
 3929TIP3    H211794   5.636   1.765   2.432 -0.0712  0.4386  0.6335
 3930TIP3   OH211795   3.312   4.251   1.861  0.4947  0.0564  0.1450
 3930TIP3    H111796   3.309   4.200   1.942 -2.9394  0.1645  0.2584
 3930TIP3    H211797   3.322   4.342   1.889  0.1949  0.0105  0.4046
 3931TIP3   OH211798   3.994   5.647   3.222  0.5681  0.1016  0.1062
 3931TIP3    H111799   3.906   5.611   3.229  0.5827 -0.0538 -0.4592
 3931TIP3    H211800   4.048   5.592   3.279  0.7836 -1.4262 -1.4867
 3932TIP3   OH211801   3.664   4.839   2.541  0.5577 -0.3800  0.2157
 3932TIP3    H111802   3.730   4.901   2.511 -1.2892  0.8453 -1.5908
 3932TIP3    H211803   3.596   4.894   2.580 -1.0508 -1.2145 -1.2717
 3933TIP3   OH211804   3.870   4.964   2.435 -0.9088 -0.8085 -0.1576
 3933TIP3    H111805   3.834   5.025   2.372  1.5812 -1.2273 -2.1668
 3933TIP3    H211806   3.930   5.017   2.488 -2.2793 -0.6509  1.3052
 3934TIP3   OH211807   1.951   4.555   1.973 -0.6360  0.1593 -0.4150
 3934TIP3    H111808   1.908   4.517   2.050  0.5800 -1.7610 -0.6024
 3934TIP3    H211809   2.003   4.628   2.008  0.4590 -1.1074  0.7594
 3935TIP3   OH211810   4.877   2.570   2.896  0.2546 -0.1159  0.2519
 3935TIP3    H111811   4.961   2.597   2.933  0.4525 -0.9365  0.4095
 3935TIP3    H211812   4.896   2.488   2.850 -0.2314  0.2674 -0.6580
 3936TIP3   OH211813   2.287   4.759   3.283  0.2736 -0.1472  0.0333
 3936TIP3    H111814   2.288   4.780   3.376  1.1320  0.8538 -0.1766
 3936TIP3    H211815   2.307   4.665   3.279 -1.3694 -0.5606  0.9142
 3937TIP3   OH211816   4.046   3.695   0.747  0.2300  0.2331  0.2073
 3937TIP3    H111817   4.120   3.649   0.785 -0.0166  0.5177  1.0498
 3937TIP3    H211818   4.037   3.775   0.800  0.3261  1.0012 -0.8883
 3938TIP3   OH211819   2.356   2.689   3.716 -0.3484  0.0176  0.1443
 3938TIP3    H111820   2.337   2.782   3.731  2.6284  0.5667  1.3961
 3938TIP3    H211821   2.282   2.643   3.755 -2.2521  1.8329 -1.1311
 3939TIP3   OH211822   3.605   1.921   4.058 -0.6406  0.4555  0.1257
 3939TIP3    H111823   3.521   1.885   4.086  0.2153  1.1806  4.1584
 3939TIP3    H211824   3.601   2.013   4.083  0.8896  0.8238 -0.8437
 3940TIP3   OH211825   5.828   4.134   0.232 -0.4706  0.3533 -0.2666
 3940TIP3    H111826   5.920   4.156   0.227  0.3572 -2.1718  1.7283
 3940TIP3    H211827   5.804   4.111   0.142  1.5500 -1.3061 -0.4498
 3941TIP3   OH211828   4.515   3.942   0.002 -0.5221  0.0486  0.1324
 3941TIP3    H111829   4.448   3.979  -0.056  1.2239  2.3726 -0.6002
 3941TIP3    H211830   4.496   3.981   0.088 -1.2638 -0.8978  0.4078
 3942TIP3   OH211831   0.068   5.411   1.897  0.2272 -0.1154 -0.3034
 3942TIP3    H111832  -0.022   5.402   1.927  0.2159  1.4691  0.2656
 3942TIP3    H211833   0.121   5.378   1.969  0.1402  1.7430  0.6794
 3943TIP3   OH211834   3.519   1.161   1.753  0.3061  0.7112 -0.3144
 3943TIP3    H111835   3.614   1.149   1.750  0.1414 -0.6058 -1.7086
 3943TIP3    H211836   3.505   1.251   1.724  1.0583  0.2051 -2.4346
 3944TIP3   OH211837   5.914   0.418   0.268  0.1563 -0.0900 -0.7873
 3944TIP3    H111838   5.855   0.393   0.197  0.3794  1.0631 -1.4032
 3944TIP3    H211839   5.976   0.346   0.275 -1.2338 -1.2790 -0.2019
 3945TIP3   OH211840   4.560   3.763   4.956  0.6624 -0.5629 -0.2870
 3945TIP3    H111841   4.583   3.800   5.041  1.1335 -0.0553 -0.6192
 3945TIP3    H211842   4.555   3.840   4.898 -0.1328 -0.8496 -0.6131
 3946TIP3   OH211843   3.598   5.364   2.586 -0.6352  0.3831  0.0237
 3946TIP3    H111844   3.595   5.458   2.571  0.0872  0.2233 -1.2451
 3946TIP3    H211845   3.550   5.326   2.512  0.2310 -0.2935 -0.2067
 3947TIP3   OH211846   4.150   5.147   4.072 -0.2472  0.4717  0.1851
 3947TIP3    H111847   4.225   5.163   4.015 -0.2231 -0.6000 -0.0967
 3947TIP3    H211848   4.185   5.159   4.160  0.1219  0.4944  0.0397
 3948TIP3   OH211849   1.452   4.025   1.954  0.2834 -0.0327 -0.2908
 3948TIP3    H111850   1.486   4.019   2.043  1.1147  3.6021 -0.1908
 3948TIP3    H211851   1.521   3.986   1.900 -0.0952 -1.9990  0.5701
 3949TIP3   OH211852   4.129   1.290   1.312 -0.5025  0.1992 -0.3162
 3949TIP3    H111853   4.066   1.360   1.296 -1.8223 -0.9403 -0.2941
 3949TIP3    H211854   4.123   1.233   1.235  1.3965  0.6819 -0.8710
 3950TIP3   OH211855   0.775   2.262   0.824 -0.7029 -0.3150  0.0359
 3950TIP3    H111856   0.816   2.302   0.747 -2.3481 -0.2696 -0.8652
 3950TIP3    H211857   0.719   2.332   0.859 -3.4424 -1.6071 -1.4205
 3951TIP3   OH211858   1.177   0.324   3.822 -0.6529  0.4200  0.1043
 3951TIP3    H111859   1.157   0.270   3.745 -0.0717  0.5837 -0.1687
 3951TIP3    H211860   1.097   0.374   3.838 -0.7282  0.4884 -0.4755
 3952TIP3   OH211861   0.047   1.665   0.752  0.8184  0.4971 -0.0572
 3952TIP3    H111862   0.041   1.629   0.840 -0.5098  2.1370  0.5718
 3952TIP3    H211863  -0.022   1.620   0.703  0.2004  1.0314  0.3067
 3953TIP3   OH211864   4.438   3.276   5.108  0.6683  0.0150 -0.4213
 3953TIP3    H111865   4.502   3.300   5.175  0.1723  1.9351 -0.5821
 3953TIP3    H211866   4.434   3.352   5.050 -3.7144  1.2663  1.0985
 3954TIP3   OH211867   0.234   2.173   1.322  0.2757 -0.1216  0.3868
 3954TIP3    H111868   0.206   2.172   1.414  1.0764  1.9709  0.7222
 3954TIP3    H211869   0.152   2.175   1.272 -0.2595  1.9291  1.2094
 3955TIP3   OH211870   2.312   5.340   0.278 -0.1741  0.2452  0.6870
 3955TIP3    H111871   2.227   5.369   0.246  0.5768  0.6808 -1.0386
 3955TIP3    H211872   2.353   5.420   0.311  0.7394  0.6884 -1.3577
 3956TIP3   OH211873   4.051   1.017   4.694 -0.3567  0.0732 -0.2400
 3956TIP3    H111874   4.044   0.923   4.709  0.2644  0.1944  0.9825
 3956TIP3    H211875   4.129   1.043   4.742 -0.7972  1.2861 -0.1434
 3957TIP3   OH211876   2.974   3.101   2.725  0.1598  0.6025  0.0294
 3957TIP3    H111877   2.897   3.113   2.668 -0.9431  0.6829  1.4895
 3957TIP3    H211878   2.993   3.188   2.759  0.1822  0.3978  0.5516
 3958TIP3   OH211879   2.323   4.429   4.819  0.7761 -0.2122 -0.6658
 3958TIP3    H111880   2.333   4.520   4.793 -0.3492 -0.3728 -1.7924
 3958TIP3    H211881   2.399   4.384   4.783  1.9084  0.4382  0.8386
 3959TIP3   OH211882   6.296   5.098   2.693 -0.5418  0.2884  0.6632
 3959TIP3    H111883   6.228   5.165   2.692  0.4331  1.3604 -1.9191
 3959TIP3    H211884   6.303   5.069   2.602  1.5476 -0.7456  1.0869
 3960TIP3   OH211885   3.919   1.072   1.478 -0.7399 -0.7537  0.2739
 3960TIP3    H111886   3.886   1.053   1.390  2.5828  0.6341 -1.4704
 3960TIP3    H211887   3.991   1.011   1.490  1.0678  1.2867  0.4540
 3961TIP3   OH211888   3.609   2.233   3.890  0.7119  0.2232  0.6917
 3961TIP3    H111889   3.524   2.246   3.849  0.1721 -2.5445  0.7151
 3961TIP3    H211890   3.591   2.230   3.984  1.0194  0.7495  0.7704
 3962TIP3   OH211891   4.809   4.027   2.290  0.3315  0.5240  0.0083
 3962TIP3    H111892   4.866   4.077   2.349 -0.0626  0.7596  0.1932
 3962TIP3    H211893   4.774   3.956   2.344  1.3701 -0.3278 -0.4129
 3963TIP3   OH211894   4.283   0.769   1.688 -0.2940  0.6427  0.0993
 3963TIP3    H111895   4.357   0.766   1.628 -1.1905  0.6112 -1.0348
 3963TIP3    H211896   4.290   0.688   1.739 -0.7512 -0.4464 -1.4946
 3964TIP3   OH211897   2.427   2.588   0.438  0.5074  0.2292  0.4783
 3964TIP3    H111898   2.340   2.588   0.479  0.1184  0.1995 -0.3323
 3964TIP3    H211899   2.459   2.499   0.450  0.1881  0.0879  0.2931
 3965TIP3   OH211900   6.187   3.991   2.410 -0.7109  0.1388  0.2489
 3965TIP3    H111901   6.116   3.928   2.419  0.7871 -1.9601 -1.5436
 3965TIP3    H211902   6.237   3.982   2.491 -0.1244 -1.5976 -0.2550
 3966TIP3   OH211903   1.624   0.228   0.967 -0.3358 -0.5381  0.5274
 3966TIP3    H111904   1.692   0.293   0.987 -1.0390  0.1608  0.7026
 3966TIP3    H211905   1.586   0.258   0.884 -1.1087 -0.3533  0.9432
 3967TIP3   OH211906   0.011   3.553   1.376  0.0859 -0.1642  0.6159
 3967TIP3    H111907   0.065   3.528   1.301 -1.7044 -1.0854 -0.4457
 3967TIP3    H211908   0.064   3.532   1.452  2.3942  1.7811 -0.3262
 3968TIP3   OH211909   4.996   4.696   3.547  0.2650 -0.5222  0.4089
 3968TIP3    H111910   4.977   4.780   3.505 -0.3406 -0.9613 -0.2346
 3968TIP3    H211911   5.056   4.717   3.618 -0.5984  0.5899  0.8356
 3969TIP3   OH211912   1.185   5.371   5.179 -0.3229 -0.1894  0.5183
 3969TIP3    H111913   1.149   5.460   5.181  1.2853  0.4946  0.3216
 3969TIP3    H211914   1.185   5.348   5.086 -0.7474 -0.4195  0.5704
 3970TIP3   OH211915   3.895   0.398   3.494  0.4741 -0.4315 -0.4811
 3970TIP3    H111916   3.981   0.417   3.532 -0.7432  0.0090  2.2997
 3970TIP3    H211917   3.881   0.468   3.430  0.8821  1.4529  1.3798
 3971TIP3   OH211918   5.016   1.201   3.706  0.0221 -0.0477  0.3430
 3971TIP3    H111919   5.099   1.234   3.670 -0.1796  1.5337  1.2125
 3971TIP3    H211920   4.999   1.120   3.658  1.2985  0.3914 -0.9169
 3972TIP3   OH211921   0.257   0.265   1.696  0.1512  0.3078 -0.1669
 3972TIP3    H111922   0.217   0.340   1.650 -0.0205 -0.4562 -1.3031
 3972TIP3    H211923   0.254   0.194   1.633  0.2491 -0.6977  0.9313
 3973TIP3   OH211924   2.203   4.330   0.751  0.5493 -0.5830 -0.2821
 3973TIP3    H111925   2.238   4.324   0.662  1.5135 -0.7005  0.0997
 3973TIP3    H211926   2.150   4.410   0.750  2.6648  0.9033 -0.2668
 3974TIP3   OH211927   5.025   1.910   2.277  0.0020 -0.0833  0.6523
 3974TIP3    H111928   4.940   1.866   2.267 -0.0259  0.0345  0.3794
 3974TIP3    H211929   5.057   1.879   2.362 -0.4669  0.1388  0.9158
 3975TIP3   OH211930   4.419   2.454   1.802  0.2772 -0.4246 -0.0790
 3975TIP3    H111931   4.502   2.499   1.790 -0.4032  1.3329  1.3260
 3975TIP3    H211932   4.381   2.451   1.714  0.7202  1.0622 -0.3561
 3976TIP3   OH211933   4.150   0.418   0.368  0.2057  0.2980 -0.3657
 3976TIP3    H111934   4.133   0.339   0.420  1.8428 -0.2005 -0.5377
 3976TIP3    H211935   4.178   0.483   0.431 -1.2191  0.8012 -0.2143
 3977TIP3   OH211936   0.000   2.260   0.472  0.1692  0.7531 -0.2843
 3977TIP3    H111937   0.081   2.208   0.473 -0.6381 -0.5404 -0.5871
 3977TIP3    H211938   0.030   2.349   0.451  1.6402  0.5629  0.8087
 3978TIP3   OH211939   4.936   1.708   0.492  0.0095  0.0017 -0.0585
 3978TIP3    H111940   4.952   1.735   0.583  0.5008  3.1495 -0.9866
 3978TIP3    H211941   4.843   1.685   0.490  0.1265 -0.7455  1.3475
 3979TIP3   OH211942   5.554   3.628   3.801  0.3880  0.2714  0.3678
 3979TIP3    H111943   5.605   3.636   3.881 -0.0478 -2.2176  0.9794
 3979TIP3    H211944   5.606   3.571   3.744 -0.6263 -0.4096  0.0862
 3980TIP3   OH211945   1.351   3.353   2.498 -0.7206 -0.0985 -0.3212
 3980TIP3    H111946   1.263   3.342   2.461 -0.6324 -0.7438 -0.3515
 3980TIP3    H211947   1.401   3.395   2.429 -1.1658  0.8393 -0.0823
 3981TIP3   OH211948   1.313   2.940   1.211 -0.0729  0.0404 -0.6273
 3981TIP3    H111949   1.245   3.004   1.193  0.0460  0.3093 -0.1248
 3981TIP3    H211950   1.289   2.901   1.295 -0.4376 -0.9617 -1.1757
 3982TIP3   OH211951   3.703   4.186   2.527 -0.2025 -0.3162 -0.3021
 3982TIP3    H111952   3.728   4.094   2.530 -0.1702 -0.2940  0.0889
 3982TIP3    H211953   3.663   4.203   2.612  0.8478  0.3316  0.0779
 3983TIP3   OH211954   4.111   3.997   3.586  0.9914  0.5888  0.3585
 3983TIP3    H111955   4.197   3.955   3.584  1.9195  2.4244 -0.0402
 3983TIP3    H211956   4.057   3.945   3.527  2.8284  1.4234 -2.1926
 3984TIP3   OH211957   2.161   2.566   2.403 -0.1350  0.1748 -0.5625
 3984TIP3    H111958   2.197   2.635   2.347  1.0632  1.3701  1.5791
 3984TIP3    H211959   2.071   2.593   2.420  0.0046  0.6527 -0.5848
 3985TIP3   OH211960   5.569   2.795   0.444  0.0776  0.1640 -0.4990
 3985TIP3    H111961   5.498   2.817   0.383  0.2930 -0.0208 -0.8230
 3985TIP3    H211962   5.627   2.738   0.393 -1.1717 -2.3450  0.7273
 3986TIP3   OH211963   4.254   5.634   2.838 -0.1796  0.1923  0.3730
 3986TIP3    H111964   4.246   5.710   2.895  1.0414 -1.2265  2.5550
 3986TIP3    H211965   4.348   5.626   2.822 -0.1739 -1.4675  1.0988
 3987TIP3   OH211966   3.288   2.935   0.438 -0.0320 -0.0341 -0.5479
 3987TIP3    H111967   3.223   2.996   0.473  0.3641  0.8737 -1.3326
 3987TIP3    H211968   3.238   2.877   0.381  0.0641  2.1192 -3.0435
 3988TIP3   OH211969   6.203   3.566   2.435  0.2252 -0.1814  0.3331
 3988TIP3    H111970   6.212   3.570   2.339 -1.8884 -1.2293  0.0277
 3988TIP3    H211971   6.120   3.610   2.453  0.9446  0.6546  1.8003
 3989TIP3   OH211972   0.460   5.345   2.574 -0.6362  0.1818  0.1370
 3989TIP3    H111973   0.383   5.289   2.580  1.0919 -2.1992  2.2696
 3989TIP3    H211974   0.454   5.403   2.651 -0.1039 -0.3783  0.6194
 3990TIP3   OH211975   2.210   2.487   3.064 -0.5775  0.2532  0.2622
 3990TIP3    H111976   2.273   2.444   3.007  0.8321  1.4320  0.8558
 3990TIP3    H211977   2.137   2.425   3.071  0.4240 -1.0770 -0.5860
 3991TIP3   OH211978   3.230   0.969   2.597  0.0110 -0.1799 -0.0691
 3991TIP3    H111979   3.307   1.003   2.641  0.4853  1.4087 -2.0038
 3991TIP3    H211980   3.244   0.874   2.593  0.8100 -0.1444  1.4860
 3992TIP3   OH211981   0.527   3.248   0.388 -0.2894 -0.0090  0.4220
 3992TIP3    H111982   0.499   3.338   0.405 -0.4532 -0.2320  1.4136
 3992TIP3    H211983   0.613   3.257   0.346 -0.9419  0.6344 -0.8200
 3993TIP3   OH211984   4.479   0.230   0.917  0.7400  0.0580 -0.1751
 3993TIP3    H111985   4.444   0.200   0.834 -1.5122  0.5570  0.5302
 3993TIP3    H211986   4.528   0.309   0.895 -1.0172  0.9919 -0.8867
 3994TIP3   OH211987   3.028   0.430   4.253  0.2282 -0.0603 -0.4568
 3994TIP3    H111988   3.026   0.466   4.341 -0.1392 -0.5074 -0.2768
 3994TIP3    H211989   2.938   0.441   4.221  0.0757 -0.9460 -0.3422
 3995TIP3   OH211990   5.260   4.067   0.088 -0.1078  0.1947 -0.1882
 3995TIP3    H111991   5.188   4.030   0.138 -1.2503  1.7048 -0.6299
 3995TIP3    H211992   5.339   4.042   0.136 -1.0012 -0.5042  0.9529
 3996TIP3   OH211993   5.606  -0.005   4.267 -0.1410 -0.0389 -0.2261
 3996TIP3    H111994   5.611   0.010   4.362 -0.7039  0.3457 -0.2523
 3996TIP3    H211995   5.681   0.043   4.232 -0.4971  0.6579 -0.0644
 3997TIP3   OH211996   1.017   5.694   2.426 -0.4750  0.9720 -0.0708
 3997TIP3    H111997   1.097   5.746   2.425  0.9007 -0.8593  2.2304
 3997TIP3    H211998   1.031   5.627   2.359  2.3458 -2.2969  3.3123
 3998TIP3   OH211999   2.418   3.574   0.837  0.4553  0.0362 -0.2288
 3998TIP3    H112000   2.360   3.553   0.763  0.3934 -0.1656 -0.1232
 3998TIP3    H212001   2.363   3.627   0.895  0.7161  0.7949 -0.6598
 3999TIP3   OH212002   2.925   0.168   1.520  0.2646  1.1122 -0.1578
 3999TIP3    H112003   2.972   0.186   1.438  0.8746 -0.6602 -0.2319
 3999TIP3    H212004   2.918   0.073   1.523 -2.0219  1.2459  0.6120
 4000TIP3   OH212005   2.829   0.745   4.166 -0.0922  0.0218  0.0258
 4000TIP3    H112006   2.791   0.668   4.126 -0.4061 -0.1441  0.6363
 4000TIP3    H212007   2.780   0.758   4.247  1.1679 -0.2306  0.8639
 4001TIP3   OH212008   1.656   4.963   1.630  0.1990 -0.0610 -0.0527
 4001TIP3    H112009   1.735   4.922   1.594 -0.2057 -1.1897  0.2979
 4001TIP3    H212010   1.591   4.893   1.632 -0.8386  0.8611 -0.3665
 4002TIP3   OH212011   5.493   0.746   2.600 -0.4277 -0.6756 -0.0631
 4002TIP3    H112012   5.496   0.841   2.593 -0.8895 -0.6531  0.0298
 4002TIP3    H212013   5.463   0.729   2.690 -0.1714 -0.9089 -0.0205
 4003TIP3   OH212014   3.670   0.900   1.266  0.0417 -0.4691 -0.1203
 4003TIP3    H112015   3.655   0.917   1.359  0.4310 -2.3124  0.3211
 4003TIP3    H212016   3.718   0.977   1.235 -0.5941  0.4392  1.0500
 4004TIP3   OH212017   1.816   1.649   3.364 -0.1732  0.4618 -0.2102
 4004TIP3    H112018   1.801   1.594   3.441  2.0663  0.3486  0.2235
 4004TIP3    H212019   1.780   1.734   3.388 -0.1094  0.2381  0.7153
 4005TIP3   OH212020   4.995   2.951   0.245 -0.0251 -0.2530  0.2087
 4005TIP3    H112021   4.946   2.879   0.283 -1.7858  1.1307  0.6817
 4005TIP3    H212022   4.940   3.028   0.258  2.2415  1.4088  0.7349
 4006TIP3   OH212023   5.478   1.172   0.946 -0.0767  0.5982  0.1675
 4006TIP3    H112024   5.493   1.109   0.876  1.7697  0.3307  0.7638
 4006TIP3    H212025   5.423   1.240   0.905 -2.8250 -1.6823 -0.2706
 4007TIP3   OH212026   3.037   4.127   4.400 -0.3735 -0.4493 -0.3526
 4007TIP3    H112027   3.008   4.052   4.347 -0.3371 -0.6136 -0.1372
 4007TIP3    H212028   3.057   4.090   4.486  0.6848 -0.3701 -0.5563
 4008TIP3   OH212029   4.612   3.428   0.226 -0.4586  0.0012  0.2919
 4008TIP3    H112030   4.586   3.480   0.303  0.7070 -0.2122  0.8441
 4008TIP3    H212031   4.587   3.483   0.151 -2.6569 -0.2662  0.7484
 4009TIP3   OH212032   3.194   2.118   4.945  0.0938  0.4744  0.1177
 4009TIP3    H112033   3.242   2.044   4.981  0.5314  0.0412 -1.2971
 4009TIP3    H212034   3.102   2.097   4.960  0.2472  1.5552  3.3379
 4010TIP3   OH212035   0.949  -0.023   5.139 -0.0192 -0.1834 -0.0533
 4010TIP3    H112036   0.966  -0.032   5.233 -0.7356 -1.0162  0.0179
 4010TIP3    H212037   0.902   0.059   5.130  1.4704  0.7215  0.0944
 4011TIP3   OH212038   4.128   2.283   5.145 -0.6433  0.5486  0.0581
 4011TIP3    H112039   4.175   2.315   5.068  1.1699 -0.7231  0.5666
 4011TIP3    H212040   4.172   2.325   5.219 -1.7766  1.0599  0.4547
 4012TIP3   OH212041   4.793   1.831   1.476  0.0868  0.0841 -0.6500
 4012TIP3    H112042   4.868   1.774   1.490 -0.3055  0.0864  2.0005
 4012TIP3    H212043   4.720   1.772   1.460  0.0682 -0.0762  0.0076
 4013TIP3   OH212044   0.171   5.790   4.402  0.2613  0.4415 -0.3902
 4013TIP3    H112045   0.116   5.781   4.479  1.9566 -1.5270  0.6837
 4013TIP3    H212046   0.144   5.719   4.344  0.3717  0.6493 -0.6996
 4014TIP3   OH212047   3.508   5.666   4.679  0.0135  0.4124 -0.5501
 4014TIP3    H112048   3.590   5.703   4.646  0.5806 -0.4570 -0.1494
 4014TIP3    H212049   3.504   5.579   4.639 -1.2358  0.8324 -1.3782
 4015TIP3   OH212050   2.205   2.078   1.522  0.5142 -0.0874 -0.0245
 4015TIP3    H112051   2.182   2.029   1.601  0.5263  0.6773  0.4617
 4015TIP3    H212052   2.301   2.084   1.524  0.4441  1.0359  0.5894
 4016TIP3   OH212053   0.578   5.672   3.684  0.0290 -0.3631 -0.7430
 4016TIP3    H112054   0.555   5.653   3.593 -1.0388 -0.2915 -0.4941
 4016TIP3    H212055   0.603   5.588   3.721 -0.9088 -0.6394 -0.7220
 4017TIP3   OH212056   0.302   3.789   1.551  0.0661 -0.3885 -0.3588
 4017TIP3    H112057   0.236   3.854   1.527 -1.2216 -1.4340  0.2152
 4017TIP3    H212058   0.321   3.806   1.643 -0.6771 -1.1355 -0.0548
 4018TIP3   OH212059   5.243   2.640   0.701  0.4415  0.0702 -0.0798
 4018TIP3    H112060   5.314   2.701   0.720  1.7954 -1.4806  0.0696
 4018TIP3    H212061   5.184   2.649   0.776 -0.0931  2.1004 -0.6818
 4019TIP3   OH212062   5.617   3.005   2.945  0.3768 -0.1532  0.1283
 4019TIP3    H112063   5.668   2.925   2.933  0.4359 -0.1546  0.3820
 4019TIP3    H212064   5.526   2.977   2.934  0.4335 -0.1195 -0.4881
 4020TIP3   OH212065   2.768   4.090   5.094 -0.8250 -0.0614 -0.4630
 4020TIP3    H112066   2.704   4.149   5.055 -0.2837  0.6051 -0.3669
 4020TIP3    H212067   2.760   4.009   5.043 -1.2624  0.2391 -0.8873
 4021TIP3   OH212068   6.368   5.101   0.250 -0.6149 -0.0574  0.3772
 4021TIP3    H112069   6.277   5.071   0.246 -0.7961 -0.0970  3.1181
 4021TIP3    H212070   6.363   5.196   0.240 -1.2253  0.1747  2.5445
 4022TIP3   OH212071   3.172   2.365   1.979 -0.2034 -0.1464  0.3289
 4022TIP3    H112072   3.194   2.290   1.923 -0.1962 -1.8106  2.4280
 4022TIP3    H212073   3.257   2.402   2.004 -0.1667 -0.2141  0.3036
 4023TIP3   OH212074   4.075   5.421   3.429 -0.0987  0.0005 -0.0322
 4023TIP3    H112075   4.149   5.366   3.453  1.6759  1.9591 -0.7567
 4023TIP3    H212076   4.016   5.362   3.381  1.1137 -1.5432  0.2992
 4024TIP3   OH212077   4.142   1.521   4.655  0.2251 -0.1554 -0.6601
 4024TIP3    H112078   4.197   1.462   4.604  0.0657 -0.6917 -0.2225
 4024TIP3    H212079   4.203   1.569   4.711  0.2803 -0.4841 -0.4390
 4025TIP3   OH212080   4.538   3.933   4.321 -0.1684 -0.2875 -0.3068
 4025TIP3    H112081   4.604   3.935   4.251  2.3553 -0.9395  1.8528
 4025TIP3    H212082   4.520   4.025   4.340 -0.1381 -0.0980 -1.1890
 4026TIP3   OH212083   3.640   2.532   0.706  0.5228 -0.2823  0.6302
 4026TIP3    H112084   3.619   2.515   0.797 -2.3007 -0.3773  0.0381
 4026TIP3    H212085   3.677   2.620   0.706 -0.0665 -0.0194  1.7783
 4027TIP3   OH212086   5.935   1.744   1.814  0.4625 -0.1490 -0.2993
 4027TIP3    H112087   6.004   1.688   1.778 -1.1489 -2.0829 -0.5527
 4027TIP3    H212088   5.855   1.714   1.771 -0.6763  1.4684  0.5866
 4028TIP3   OH212089   0.269   3.299   3.314  0.5318  0.6782  0.0601
 4028TIP3    H112090   0.332   3.371   3.312  1.3629 -0.0558 -0.8100
 4028TIP3    H212091   0.275   3.258   3.228  1.3819 -1.5295  1.0882
 4029TIP3   OH212092   5.640   4.799   4.517 -0.0693  0.1457 -0.3929
 4029TIP3    H112093   5.577   4.732   4.545 -1.1614  0.1446 -2.6199
 4029TIP3    H212094   5.619   4.875   4.571  1.3402 -1.2440  2.3493
 4030TIP3   OH212095   5.680   5.545   4.257  0.0830 -0.0412 -0.3012
 4030TIP3    H112096   5.606   5.560   4.316 -0.8084  0.3052 -1.4597
 4030TIP3    H212097   5.670   5.612   4.190  0.6929 -0.8320 -1.2027
 4031TIP3   OH212098   1.736   4.592   1.081 -0.5830 -0.2396  0.2898
 4031TIP3    H112099   1.772   4.680   1.087 -0.6382 -0.2398  0.6293
 4031TIP3    H212100   1.752   4.566   0.990  2.0404 -0.9749  0.8769
 4032TIP3   OH212101   3.247   0.723   5.121  0.1820  0.6993  0.3265
 4032TIP3    H112102   3.177   0.785   5.101 -0.5931  0.3327  1.7766
 4032TIP3    H212103   3.202   0.641   5.140  1.1768 -0.2647 -1.2415
 4033TIP3   OH212104   3.537   2.572   3.320  0.0204 -0.4617 -0.1060
 4033TIP3    H112105   3.629   2.599   3.318 -0.0642 -0.1725 -0.1328
 4033TIP3    H212106   3.539   2.479   3.301  0.3918 -0.6759  0.9107
 4034TIP3   OH212107   1.451   3.044   0.344 -0.6064  0.0368 -0.3519
 4034TIP3    H112108   1.424   3.036   0.252 -0.2327 -1.6945 -0.3262
 4034TIP3    H212109   1.369   3.041   0.393 -0.9338  2.2114 -0.6342
 4035TIP3   OH212110   5.178   5.793   3.360 -0.5185  0.6848  0.1009
 4035TIP3    H112111   5.085   5.806   3.380 -0.4218  1.1067  0.2833
 4035TIP3    H212112   5.180   5.712   3.310 -0.8488  0.0191  1.1387
 4036TIP3   OH212113   0.744   2.137   2.059 -0.2948  0.1954 -0.4668
 4036TIP3    H112114   0.796   2.113   2.135 -0.2897  2.2527  0.2391
 4036TIP3    H212115   0.721   2.053   2.019 -0.1402 -0.9599  1.6800
 4037TIP3   OH212116   5.009   1.960   1.999  0.3107 -0.8568  0.0704
 4037TIP3    H112117   5.033   1.935   2.088  0.3749 -1.0677 -0.0063
 4037TIP3    H212118   5.052   1.895   1.943 -0.3824 -1.1971 -0.0741
 4038TIP3   OH212119   4.738   3.984   3.027 -0.1296  0.5017  0.0350
 4038TIP3    H112120   4.807   3.930   2.988  2.2193  2.2183  1.4679
 4038TIP3    H212121   4.656   3.941   3.003  1.3975 -1.3893 -2.2120
 4039TIP3   OH212122   1.091   5.336   3.582 -0.3806 -0.4828 -0.2461
 4039TIP3    H112123   1.165   5.298   3.629 -0.6771 -2.3470 -1.1774
 4039TIP3    H212124   1.125   5.357   3.496  0.0355  2.4617  0.5410
 4040TIP3   OH212125   5.128   3.802   3.422  0.3932  0.0305 -0.2308
 4040TIP3    H112126   5.194   3.820   3.355  1.2645 -0.9841  0.3166
 4040TIP3    H212127   5.098   3.888   3.451  1.1010  0.4978 -0.8707
 4041TIP3   OH212128   0.623   4.741   2.205 -0.6622 -1.0304 -0.0520
 4041TIP3    H112129   0.701   4.714   2.253 -0.7027  0.2750  0.8101
 4041TIP3    H212130   0.570   4.789   2.269 -0.7295  0.7482 -1.3550
 4042TIP3   OH212131   5.645   5.516   3.361  0.1790  0.5649 -0.4033
 4042TIP3    H112132   5.586   5.489   3.291  1.4271 -0.1458 -1.2207
 4042TIP3    H212133   5.668   5.435   3.406  0.1532  0.8968  0.2161
 4043TIP3   OH212134   1.901   1.619   0.809 -0.3892  0.3739 -0.1191
 4043TIP3    H112135   1.965   1.565   0.762  0.9029  1.4286  0.3696
 4043TIP3    H212136   1.942   1.637   0.893 -2.4489 -1.0630  1.2829
 4044TIP3   OH212137   2.073   1.228   2.971 -0.0189 -0.2752  0.3528
 4044TIP3    H112138   1.977   1.238   2.972 -0.2193 -2.0028  0.9510
 4044TIP3    H212139   2.103   1.296   2.910 -1.7364 -0.5972 -0.9222
 4045TIP3   OH212140   1.775   1.779   2.054 -0.5459 -0.0398  0.1794
 4045TIP3    H112141   1.682   1.766   2.032 -0.3724 -0.6940 -0.1811
 4045TIP3    H212142   1.782   1.749   2.144 -0.5078 -0.8524 -0.0840
 4046TIP3   OH212143   0.380   2.481   2.116  0.3102  0.3198 -0.1282
 4046TIP3    H112144   0.321   2.549   2.150 -1.0370 -0.8498 -0.0502
 4046TIP3    H212145   0.336   2.399   2.135  3.1721 -0.8436  2.3638
 4047TIP3   OH212146   6.070   4.843   3.088 -0.2810 -0.4125  0.8640
 4047TIP3    H112147   6.099   4.804   3.006 -1.4506 -1.1868  0.7931
 4047TIP3    H212148   6.141   4.902   3.113 -0.8176  1.6364 -1.8802
 4048TIP3   OH212149   2.300   5.616   3.283 -0.3384  0.2180  0.5849
 4048TIP3    H112150   2.235   5.549   3.305  1.7287 -2.5067 -1.0030
 4048TIP3    H212151   2.319   5.660   3.367 -2.1360 -0.8180  1.5798
 4049TIP3   OH212152   5.908   2.697   2.223  0.0375  0.3904  0.3097
 4049TIP3    H112153   5.931   2.632   2.157  1.1590  1.3726 -0.3156
 4049TIP3    H212154   5.884   2.646   2.300  3.9831 -0.8762  0.9252
 4050TIP3   OH212155   1.471   5.145   3.111 -0.5147 -0.0728 -0.3371
 4050TIP3    H112156   1.446   5.180   3.197  2.1683  2.8441 -0.5882
 4050TIP3    H212157   1.557   5.106   3.125 -1.4376 -2.6424 -1.1311
 4051TIP3   OH212158   2.656   4.850   1.817 -0.3062  0.2624 -0.7060
 4051TIP3    H112159   2.567   4.881   1.835  0.6530  1.5015  2.5350
 4051TIP3    H212160   2.695   4.919   1.763 -0.4769  1.0961  0.2238
 4052TIP3   OH212161   2.090   3.283   1.826  1.1501  0.0605 -0.3346
 4052TIP3    H112162   2.087   3.196   1.865  0.2441  0.8470  1.4771
 4052TIP3    H212163   2.181   3.310   1.835  2.3914 -2.0617 -4.3145
 4053TIP3   OH212164   3.926   0.716   4.084 -0.2945 -0.1073  0.7530
 4053TIP3    H112165   3.957   0.634   4.122 -0.5776 -0.2291  0.7239
 4053TIP3    H212166   3.985   0.783   4.119  0.7472 -0.4888 -0.2530
 4054TIP3   OH212167   5.100   3.239   0.635 -0.4026 -0.1857  0.3381
 4054TIP3    H112168   5.008   3.220   0.619 -0.5048 -1.1099  1.8006
 4054TIP3    H212169   5.147   3.167   0.594 -0.1976  1.0335 -1.6741
 4055TIP3   OH212170   1.038   2.223   0.183  0.0799  0.5151 -0.4353
 4055TIP3    H112171   1.054   2.318   0.178 -1.4504  0.7831 -0.9350
 4055TIP3    H212172   0.949   2.216   0.219 -0.2037 -0.6876 -1.3087
 4056TIP3   OH212173   6.314   2.316   3.367 -0.0275  0.6385  0.1574
 4056TIP3    H112174   6.280   2.249   3.308 -1.4328 -0.0878  1.7149
 4056TIP3    H212175   6.408   2.299   3.370 -0.1317 -0.2055 -0.7762
 4057TIP3   OH212176   0.930   2.276   0.570  0.5007 -0.9045 -0.1400
 4057TIP3    H112177   0.979   2.211   0.621 -1.0693 -2.6121 -0.6653
 4057TIP3    H212178   0.997   2.331   0.530  1.8384 -1.0893  1.7536
 4058TIP3   OH212179   5.276   5.395   1.570  0.9630 -0.2855 -0.3135
 4058TIP3    H112180   5.234   5.464   1.518  2.1659  1.6071  1.0756
 4058TIP3    H212181   5.272   5.317   1.515 -0.1220  0.9834 -2.1283
 4059TIP3   OH212182   2.791   4.732   4.546 -0.3825 -0.0817 -1.0921
 4059TIP3    H112183   2.824   4.659   4.493  1.0591 -0.0141 -0.3209
 4059TIP3    H212184   2.816   4.811   4.498 -0.2167 -0.0507 -0.9555
 4060TIP3   OH212185   5.126   5.540   3.804  0.1284  0.1072 -0.1573
 4060TIP3    H112186   5.120   5.624   3.849 -0.3941  0.7120 -1.3189
 4060TIP3    H212187   5.129   5.475   3.875 -1.7993  0.9412  0.7539
 4061TIP3   OH212188   5.705   5.622   2.179  0.5293  0.2956  0.5083
 4061TIP3    H112189   5.626   5.569   2.193  1.1191 -1.5661 -2.4120
 4061TIP3    H212190   5.777   5.559   2.183  1.4622  1.2042 -1.1056
 4062TIP3   OH212191   5.974   4.650   4.578 -0.0004 -0.0238 -0.4153
 4062TIP3    H112192   5.910   4.580   4.590  0.2554 -0.0372  1.0148
 4062TIP3    H212193   6.058   4.605   4.569 -0.0583  0.0362 -1.3714
 4063TIP3   OH212194   0.829   2.079   3.686  0.1981  0.0558 -0.0991
 4063TIP3    H112195   0.763   2.120   3.743  3.1343  2.7297  1.7573
 4063TIP3    H212196   0.889   2.151   3.665  3.3749 -2.4475 -0.2970
 4064TIP3   OH212197   4.421   0.282   2.614 -0.4012 -0.6608  0.3165
 4064TIP3    H112198   4.493   0.337   2.645  0.0887 -1.0639 -0.0879
 4064TIP3    H212199   4.350   0.344   2.595 -0.8241 -0.4130  2.4416
 4065TIP3   OH212200   0.472   5.636   1.388  0.1366 -0.6292  0.1721
 4065TIP3    H112201   0.433   5.661   1.472  0.7433  0.0071  0.2693
 4065TIP3    H212202   0.397   5.621   1.331 -0.2839 -0.9833  0.7980
 4066TIP3   OH212203   2.736   2.768   1.347 -0.3737 -0.3128 -0.1989
 4066TIP3    H112204   2.694   2.786   1.432  0.7239 -1.4101  0.6151
 4066TIP3    H212205   2.720   2.675   1.332  0.4495 -0.3995 -0.6017
 4067TIP3   OH212206   4.574   2.978   4.864 -0.7958  0.0060 -0.0798
 4067TIP3    H112207   4.568   2.883   4.872 -0.9959 -0.2303 -2.3284
 4067TIP3    H212208   4.503   3.011   4.919  0.5975 -0.9812  2.4574
 4068TIP3   OH212209   4.611   3.570   1.104 -0.6255 -0.5728  0.7219
 4068TIP3    H112210   4.633   3.655   1.067 -0.3167 -0.5714  0.9061
 4068TIP3    H212211   4.579   3.519   1.030  1.2730 -1.0237  0.1535
 4069TIP3   OH212212   0.349   5.952   5.168 -0.1487  0.1351 -0.4191
 4069TIP3    H112213   0.390   5.866   5.175  0.5047  0.5283  0.8354
 4069TIP3    H212214   0.343   5.968   5.074  0.8921 -0.7251 -0.6487
 4070TIP3   OH212215   1.484   4.336   2.875  0.4432 -0.3496 -0.5600
 4070TIP3    H112216   1.571   4.373   2.860  0.3991  0.8194  1.6583
 4070TIP3    H212217   1.456   4.374   2.958 -2.4387 -0.2381 -1.4648
 4071TIP3   OH212218   4.899   4.679   2.201  0.4987  0.0169  0.1932
 4071TIP3    H112219   4.889   4.733   2.280 -0.5929  0.4983 -0.2616
 4071TIP3    H212220   4.915   4.591   2.234 -1.4542 -0.0865  0.9979
 4072TIP3   OH212221   1.628   2.643   1.147 -0.4440  0.1561 -0.1442
 4072TIP3    H112222   1.666   2.691   1.220 -0.9738  0.9983 -0.4098
 4072TIP3    H212223   1.539   2.675   1.140 -0.3645  0.2016 -1.2484
 4073TIP3   OH212224   5.324   3.083   4.536  0.3146 -0.1686  0.3314
 4073TIP3    H112225   5.263   3.157   4.528 -0.5949 -1.0407 -1.3472
 4073TIP3    H212226   5.408   3.117   4.505 -0.6886 -0.4534 -3.1149
 4074TIP3   OH212227   5.662   1.468   1.302 -0.2691 -0.1407  0.0900
 4074TIP3    H112228   5.675   1.433   1.390 -3.0908 -2.2054 -0.2014
 4074TIP3    H212229   5.674   1.563   1.312  0.4904 -0.4162  2.4330
 4075TIP3   OH212230   4.849   0.740   0.047 -0.2205  0.9315  0.1698
 4075TIP3    H112231   4.855   0.835   0.057 -1.3476  0.8884  1.5337
 4075TIP3    H212232   4.894   0.704   0.123 -1.7707  0.4392  0.9016
 4076TIP3   OH212233   5.590   4.206   2.454 -0.2462  0.0322 -0.0799
 4076TIP3    H112234   5.526   4.148   2.495 -0.8272  0.6159 -0.1326
 4076TIP3    H212235   5.574   4.291   2.495  0.7716  0.1039  0.1899
 4077TIP3   OH212236   5.695   4.082   4.646  0.8811  0.3838 -0.0562
 4077TIP3    H112237   5.717   3.995   4.611  1.3343  0.0794  0.9487
 4077TIP3    H212238   5.604   4.096   4.620  0.1460 -1.2529  1.4168
 4078TIP3   OH212239   6.023   5.043   3.385 -0.4929 -0.3779 -0.7132
 4078TIP3    H112240   6.056   5.100   3.455 -3.0597 -0.4381  0.6641
 4078TIP3    H212241   5.992   5.103   3.318 -1.0282 -0.1846 -0.3062
 4079TIP3   OH212242   2.726   1.904   3.050  0.5222 -0.1283 -0.1757
 4079TIP3    H112243   2.765   1.863   3.127  1.8719  2.8281  0.8616
 4079TIP3    H212244   2.800   1.919   2.991  0.2839  1.5369 -0.1086
 4080TIP3   OH212245   3.522   3.572   3.179 -0.1054  0.4825 -0.3106
 4080TIP3    H112246   3.563   3.486   3.175 -0.8167  0.0998  0.3486
 4080TIP3    H212247   3.583   3.625   3.232  0.1437  0.2761 -0.3902
 4081TIP3   OH212248   0.468   4.175   2.524 -0.1163  0.1432 -0.0993
 4081TIP3    H112249   0.538   4.225   2.566  2.0271 -0.5476 -2.5936
 4081TIP3    H212250   0.458   4.214   2.438 -1.3426 -1.1042 -0.5640
 4082TIP3   OH212251   2.850   1.097   3.535 -0.0001  0.3308 -0.1110
 4082TIP3    H112252   2.811   1.146   3.608  1.4986  0.4404  0.6461
 4082TIP3    H212253   2.793   1.117   3.461 -1.1155  0.8491  0.8424
 4083TIP3   OH212254   1.109   5.838   2.004 -0.4474 -0.3477 -0.2575
 4083TIP3    H112255   1.129   5.749   1.976 -0.4519 -0.4366  0.0186
 4083TIP3    H212256   1.144   5.894   1.935 -1.2813 -0.6020 -0.9025
 4084TIP3   OH212257   1.958   5.520   4.470 -0.2904  0.0715  0.4053
 4084TIP3    H112258   1.867   5.535   4.443  0.0792  1.9044  0.0420
 4084TIP3    H212259   2.005   5.502   4.388 -0.0049  0.9432  0.3751
 4085TIP3   OH212260   2.949   4.692   1.268 -0.4274 -0.2814  0.0456
 4085TIP3    H112261   2.867   4.737   1.287 -0.3354 -0.5687  1.2521
 4085TIP3    H212262   2.968   4.713   1.177 -1.3785  0.5183  0.0135
 4086TIP3   OH212263   0.644   6.007   4.570  0.2717  0.5937  0.6685
 4086TIP3    H112264   0.708   5.937   4.587  0.8647  0.6556 -1.1433
 4086TIP3    H212265   0.587   5.971   4.503 -0.7042  1.1067  1.2042
 4087TIP3   OH212266   0.415   0.327   1.916 -0.2639 -0.4559 -0.3578
 4087TIP3    H112267   0.370   0.288   1.841 -1.3649 -0.5590  0.3419
 4087TIP3    H212268   0.384   0.418   1.918  1.7089  0.3224 -1.5235
 4088TIP3   OH212269   3.591   0.387   4.387  0.4862 -0.2760 -0.2231
 4088TIP3    H112270   3.511   0.440   4.379  0.3979 -0.6290 -2.2961
 4088TIP3    H212271   3.559   0.297   4.398  0.5980 -0.2822  0.0409
 4089TIP3   OH212272   0.266   0.943   2.480  0.5199 -0.0006 -0.7287
 4089TIP3    H112273   0.266   0.855   2.443  1.2264  0.5142 -2.0283
 4089TIP3    H212274   0.263   1.001   2.403  1.1300  1.1175  0.0638
 4090TIP3   OH212275   0.411   0.724   1.423 -0.2502 -0.1769 -0.1945
 4090TIP3    H112276   0.421   0.817   1.404  0.2617 -0.3514 -0.8487
 4090TIP3    H212277   0.500   0.694   1.441 -0.4058 -0.5437 -0.0346
 4091TIP3   OH212278   1.015   0.814   0.612  0.7386  0.3256  0.1044
 4091TIP3    H112279   1.030   0.749   0.543  2.0099  0.0220  0.6357
 4091TIP3    H212280   1.025   0.765   0.693 -0.6060  0.7118  0.5314
 4092TIP3   OH212281   2.843   0.613   4.680 -0.3674 -0.5816 -0.6457
 4092TIP3    H112282   2.903   0.668   4.730  0.9969 -0.3362 -2.4106
 4092TIP3    H212283   2.836   0.532   4.730 -1.0951  0.5397  1.1670
 4093TIP3   OH212284   5.997   4.116   0.549  0.0651  0.5206 -0.0350
 4093TIP3    H112285   5.976   4.098   0.640 -0.2837  2.4718  0.3113
 4093TIP3    H212286   5.970   4.037   0.502 -1.2918  0.1228  1.3332
 4094TIP3   OH212287   5.290   3.965   1.240  0.3322 -0.5129 -0.0451
 4094TIP3    H112288   5.196   3.978   1.227  0.4739  0.3142 -0.3418
 4094TIP3    H212289   5.301   3.957   1.335 -0.0524 -0.7839 -0.0215
 4095TIP3   OH212290   4.046   2.916   3.496  0.5688  0.3328  0.1144
 4095TIP3    H112291   4.081   2.952   3.415 -0.4628  0.2003 -0.3980
 4095TIP3    H212292   4.107   2.846   3.520  1.3971  0.9863 -0.0302
 4096TIP3   OH212293   2.899   1.825   4.481  0.2250 -0.1541  0.0061
 4096TIP3    H112294   2.834   1.766   4.519 -0.2219  0.4948  0.2587
 4096TIP3    H212295   2.849   1.885   4.426  0.4332  1.2002  1.2557
 4097TIP3   OH212296   2.836   0.906   2.835 -0.1829  0.0504  0.2705
 4097TIP3    H112297   2.794   0.985   2.868 -0.0008  0.9536 -1.5699
 4097TIP3    H212298   2.775   0.835   2.857 -1.3178  0.9609  0.1316
 4098TIP3   OH212299   0.737   2.055   2.423 -0.0433 -0.3220  0.4089
 4098TIP3    H112300   0.660   2.060   2.367  0.5529  0.4329 -0.3669
 4098TIP3    H212301   0.781   1.975   2.395  0.1683 -0.0312 -0.0920
 4099TIP3   OH212302   5.553   5.660   2.624  0.0715 -0.1252  0.3742
 4099TIP3    H112303   5.486   5.712   2.669  0.2747 -0.7205  1.3788
 4099TIP3    H212304   5.562   5.703   2.539  0.1869  1.4424  1.1456
 4100TIP3   OH212305   3.534   2.232   0.862  0.0546  0.4231 -0.2416
 4100TIP3    H112306   3.601   2.180   0.819  0.5837  2.0881 -1.5479
 4100TIP3    H212307   3.451   2.199   0.827  0.2755 -0.5819  0.1691
 4101TIP3   OH212308   2.788   5.007   2.027  0.7150 -0.6417  0.6648
 4101TIP3    H112309   2.696   5.024   2.048  0.5776 -1.1456  0.4904
 4101TIP3    H212310   2.789   4.992   1.933  1.2063  0.7878  0.4290
 4102TIP3   OH212311   2.608   3.258   2.312 -0.1049 -0.3903 -0.3290
 4102TIP3    H112312   2.573   3.225   2.229 -1.2774 -0.2610  0.0896
 4102TIP3    H212313   2.543   3.321   2.341  1.3003  1.1150 -0.3087
 4103TIP3   OH212314   3.589   5.223   1.044  0.5687  0.2164 -0.1910
 4103TIP3    H112315   3.582   5.238   0.949  1.0701 -3.2968 -0.9095
 4103TIP3    H212316   3.679   5.193   1.057 -0.7144 -4.1186  0.4129
 4104TIP3   OH212317   4.433   4.780   2.083 -0.0425 -0.5457 -0.9744
 4104TIP3    H112318   4.404   4.745   2.167  1.3733 -0.5782 -0.4722
 4104TIP3    H212319   4.365   4.754   2.021 -0.8307 -1.0033  0.0539
 4105TIP3   OH212320   2.945   4.907   4.402 -0.5378 -0.0019 -0.3321
 4105TIP3    H112321   2.969   4.821   4.369 -2.9262 -0.2946 -1.5334
 4105TIP3    H212322   2.970   4.968   4.332 -1.2707 -0.0695 -0.6685
 4106TIP3   OH212323   1.271   5.830   4.222  0.4947 -0.1027  0.2638
 4106TIP3    H112324   1.189   5.819   4.271  0.6615 -1.0330  0.3685
 4106TIP3    H212325   1.293   5.741   4.194  2.6576 -0.2620  2.1628
 4107TIP3   OH212326   4.006   4.591   4.776  0.3539 -0.4381 -0.3377
 4107TIP3    H112327   3.912   4.603   4.766 -0.0424 -0.8418  2.0933
 4107TIP3    H212328   4.045   4.671   4.741 -0.9835  0.2373 -0.3508
 4108TIP3   OH212329   0.051   3.273   0.185 -0.2872  0.3653  0.0760
 4108TIP3    H112330   0.069   3.283   0.092 -0.7718  0.7884  0.0233
 4108TIP3    H212331   0.040   3.178   0.197 -1.0818  0.3782 -0.4617
 4109TIP3   OH212332   3.664   1.583   2.528 -0.0024  0.1606 -0.0398
 4109TIP3    H112333   3.722   1.659   2.525 -1.2237  1.0959 -1.5641
 4109TIP3    H212334   3.592   1.609   2.584  0.0512 -0.2458  0.2216
 4110TIP3   OH212335   0.140   2.816   4.875 -0.7295  0.3774  0.3971
 4110TIP3    H112336   0.097   2.848   4.795 -1.0501  1.9978  1.1619
 4110TIP3    H212337   0.201   2.749   4.844  0.4691  2.1929 -1.4764
 4111TIP3   OH212338   3.755   2.836   2.950 -0.3128 -0.1398  0.3230
 4111TIP3    H112339   3.764   2.745   2.924 -0.1976 -0.3104  0.9376
 4111TIP3    H212340   3.838   2.877   2.926  0.1749 -0.5188  1.2818
 4112TIP3   OH212341   2.866   4.570   4.341  0.0976  0.5133 -0.0256
 4112TIP3    H112342   2.858   4.479   4.371 -0.2747  0.3402 -0.6286
 4112TIP3    H212343   2.957   4.578   4.312  0.0604  0.2586 -0.2109
 4113TIP3   OH212344   1.481   1.147   5.026  0.1092 -0.1086 -0.2469
 4113TIP3    H112345   1.500   1.153   5.120  0.4961  0.4516 -0.3573
 4113TIP3    H212346   1.389   1.174   5.019 -0.1097 -0.7577  0.0373
 4114TIP3   OH212347   0.167   0.993   3.781 -0.2768  0.1339  0.6932
 4114TIP3    H112348   0.110   1.038   3.718 -1.4534 -0.9007  0.9838
 4114TIP3    H212349   0.117   0.917   3.809  1.4330 -1.0457  0.6749
 4115TIP3   OH212350   0.693   4.881   4.330 -0.0245 -0.0064 -0.0293
 4115TIP3    H112351   0.651   4.966   4.320  1.2342  0.9078  1.7869
 4115TIP3    H212352   0.622   4.822   4.354 -0.9804  0.4025 -1.6978
 4116TIP3   OH212353   3.998   4.853   2.097  0.3437  0.3815 -0.2438
 4116TIP3    H112354   3.969   4.906   2.171  0.8118 -0.6662  0.7285
 4116TIP3    H212355   3.921   4.845   2.041 -0.4020  0.1385  0.7840
 4117TIP3   OH212356   2.718   4.163   4.679 -0.7666 -0.1383  0.1109
 4117TIP3    H112357   2.717   4.069   4.698 -0.8422  0.0015  0.7990
 4117TIP3    H212358   2.811   4.186   4.676 -0.7545 -0.1682  0.2691
 4118TIP3   OH212359   6.273   5.419   4.534  0.6134 -0.9234 -0.0664
 4118TIP3    H112360   6.241   5.436   4.445 -1.7385  2.2809  1.1601
 4118TIP3    H212361   6.208   5.359   4.571  1.4164 -2.0028 -0.3720
 4119TIP3   OH212362   2.349   4.126   4.587 -0.3974  0.4053 -0.4358
 4119TIP3    H112363   2.409   4.059   4.555  1.2218  2.5602 -2.2096
 4119TIP3    H212364   2.293   4.146   4.512  1.2214  3.1608 -1.0171
 4120TIP3   OH212365   3.693   4.498   3.590 -0.2725 -0.3357  0.0148
 4120TIP3    H112366   3.681   4.405   3.571  0.1216 -0.1717 -1.1562
 4120TIP3    H212367   3.783   4.504   3.622 -0.0658 -0.2702 -0.5725
 4121TIP3   OH212368   2.329   1.862   3.768  0.2936 -0.7982  0.3312
 4121TIP3    H112369   2.241   1.868   3.804 -0.1464 -0.6832 -0.7244
 4121TIP3    H212370   2.386   1.897   3.837 -0.7918  2.2952 -0.1993
 4122TIP3   OH212371   2.993   5.478   3.523  0.2985  0.3872  0.9472
 4122TIP3    H112372   3.050   5.505   3.450 -0.6621 -0.7243 -0.2731
 4122TIP3    H212373   2.906   5.506   3.496 -0.5862 -2.7749  0.1267
 4123TIP3   OH212374   0.953   4.770   2.743  0.1432 -0.2668  0.3169
 4123TIP3    H112375   1.029   4.758   2.686  0.7185  1.4627  0.6717
 4123TIP3    H212376   0.940   4.685   2.784  2.4768 -0.3713  0.9481
 4124TIP3   OH212377   0.820   5.882   1.471  0.3540 -0.0111 -0.0692
 4124TIP3    H112378   0.885   5.825   1.431  0.2038  0.7780 -1.5240
 4124TIP3    H212379   0.746   5.825   1.493  0.5763 -0.5142 -0.6324
 4125TIP3   OH212380   3.620   3.463   0.320  0.1262 -0.0777  0.2393
 4125TIP3    H112381   3.652   3.407   0.391 -0.0783 -1.3451 -0.6297
 4125TIP3    H212382   3.569   3.404   0.265  0.2739  0.8817 -0.9551
 4126TIP3   OH212383   0.951   2.032   5.114  0.1469  0.4681 -0.0927
 4126TIP3    H112384   0.895   1.974   5.063  1.0707 -0.1643 -0.4135
 4126TIP3    H212385   0.894   2.066   5.184 -0.5288 -0.4505 -0.1888
 4127TIP3   OH212386   2.851   1.764   0.787 -0.2080 -0.3072  0.3319
 4127TIP3    H112387   2.763   1.786   0.757 -0.9022 -0.0766  2.4373
 4127TIP3    H212388   2.881   1.697   0.725 -1.4700  0.2630 -0.9673
 4128TIP3   OH212389   2.001   1.967   2.000 -0.1592  0.3939  0.2485
 4128TIP3    H112390   1.914   1.986   2.035  0.2439 -0.6832  1.9630
 4128TIP3    H212391   2.022   1.880   2.035  0.8507 -0.1737 -1.6551
 4129TIP3   OH212392   5.340   5.029   1.425 -0.0454 -0.8339  0.1155
 4129TIP3    H112393   5.427   5.017   1.462 -0.1763 -1.0933  0.3349
 4129TIP3    H212394   5.328   4.954   1.367 -0.2314 -0.9335  0.2864
 4130TIP3   OH212395   0.783   4.417   5.106  0.4850 -0.2377 -0.5289
 4130TIP3    H112396   0.772   4.452   5.017  1.6499  1.8512  0.0825
 4130TIP3    H212397   0.858   4.465   5.141  0.0971 -1.0781  1.5771
 4131TIP3   OH212398   1.440   5.948   2.057  0.3102 -0.0741 -0.2490
 4131TIP3    H112399   1.427   5.858   2.087  0.4195 -0.0768 -0.2123
 4131TIP3    H212400   1.496   5.988   2.123  1.5818 -0.4381 -1.0753
 4132TIP3   OH212401   1.743   4.677   4.837 -0.1321  0.4430 -0.1746
 4132TIP3    H112402   1.814   4.699   4.897 -0.2490 -0.5926  0.3577
 4132TIP3    H212403   1.669   4.727   4.869  0.0906  0.7367 -0.1136
 4133TIP3   OH212404   0.378   1.692   0.832  0.2765  0.6923 -0.9278
 4133TIP3    H112405   0.296   1.655   0.867  1.7039 -1.1737  0.6720
 4133TIP3    H212406   0.369   1.684   0.737 -0.9757 -0.4251 -0.7529
 4134TIP3   OH212407   2.883   2.574   3.064 -0.1702 -1.1783 -0.1872
 4134TIP3    H112408   2.898   2.594   3.156 -0.0653  0.7780 -0.5738
 4134TIP3    H212409   2.969   2.584   3.023 -0.4047 -1.0353 -0.6509
 4135TIP3   OH212410   1.586   5.504   2.271  1.0258  0.4830 -0.4331
 4135TIP3    H112411   1.672   5.483   2.233  0.9210 -0.0841 -0.3673
 4135TIP3    H212412   1.548   5.419   2.293  0.8370  0.7764  0.4141
 4136TIP3   OH212413   5.259   0.943   2.265 -0.4981 -0.0234 -0.3772
 4136TIP3    H112414   5.329   0.877   2.266  0.5607  1.0475 -0.9450
 4136TIP3    H212415   5.218   0.935   2.351 -0.4928 -1.4887 -0.4726
 4137TIP3   OH212416   5.046   5.793   3.891 -0.9402  0.1488 -0.6417
 4137TIP3    H112417   5.066   5.887   3.887  0.3311 -0.0180  0.6139
 4137TIP3    H212418   5.021   5.778   3.982 -1.5822 -0.6647 -0.9374
 4138TIP3   OH212419   3.392   1.047   3.141  0.3635 -0.0190 -0.0196
 4138TIP3    H112420   3.340   0.997   3.078 -0.8657 -2.9765  3.0436
 4138TIP3    H212421   3.481   1.044   3.106 -0.7675  2.4780 -3.7967
 4139TIP3   OH212422   2.801   5.022   1.269  0.3601 -0.0467 -0.2109
 4139TIP3    H112423   2.768   5.036   1.180  2.9172  2.2463 -0.9090
 4139TIP3    H212424   2.806   4.927   1.277 -0.5322 -0.3372 -2.2733
 4140TIP3   OH212425   5.047   1.979   1.591 -0.3427 -0.4422  0.0257
 4140TIP3    H112426   5.034   1.885   1.589  0.2821 -0.5708  1.2959
 4140TIP3    H212427   4.974   2.013   1.642 -0.3126 -0.2756 -0.0394
 4141TIP3   OH212428   4.427   2.731   4.869  0.3739 -0.6809 -0.6658
 4141TIP3    H112429   4.396   2.729   4.779 -0.9577 -0.1215 -0.2362
 4141TIP3    H212430   4.452   2.640   4.887  0.1828 -0.8946 -1.4365
 4142TIP3   OH212431   6.258   4.134   3.092 -0.5852 -0.3321  0.3690
 4142TIP3    H112432   6.270   4.176   3.177 -1.2630  0.6914 -0.0252
 4142TIP3    H212433   6.213   4.052   3.112 -2.8957  0.9461  0.8529
 4143TIP3   OH212434   5.516   1.053   3.045  0.8028 -0.2442  0.3834
 4143TIP3    H112435   5.522   0.960   3.070  2.9963 -0.2668 -0.0475
 4143TIP3    H212436   5.449   1.055   2.977  0.5935 -1.4921  0.5283
 4144TIP3   OH212437   1.037   5.063   2.654  0.1279 -0.0781  0.1742
 4144TIP3    H112438   1.129   5.034   2.654 -0.2619 -1.4487 -1.4047
 4144TIP3    H212439   1.020   5.090   2.564 -1.4233 -1.2586  0.0762
 4145TIP3   OH212440   0.819   3.081   1.858 -0.0465  0.1436  0.6892
 4145TIP3    H112441   0.755   3.052   1.792  0.2114 -0.2346  0.6042
 4145TIP3    H212442   0.844   3.169   1.830 -0.1199  0.0784  0.4159
 4146TIP3   OH212443   2.483   4.428   3.786 -0.4054 -0.6991 -0.1838
 4146TIP3    H112444   2.423   4.380   3.842 -2.3410  1.0279 -0.6597
 4146TIP3    H212445   2.510   4.364   3.720 -4.2192 -0.9194 -1.8280
 4147TIP3   OH212446   3.639   3.150   4.657 -0.0038  0.3510 -0.1081
 4147TIP3    H112447   3.565   3.204   4.628 -1.0228 -0.0955  1.5143
 4147TIP3    H212448   3.618   3.062   4.625 -0.3001  0.1843  0.5214
 4148TIP3   OH212449   3.146   1.160   1.769 -0.0053  0.6245 -0.1920
 4148TIP3    H112450   3.071   1.193   1.819  0.8861  1.6840  0.5018
 4148TIP3    H212451   3.199   1.114   1.833  0.6007  1.0272 -0.4023
 4149TIP3   OH212452   5.056   2.271   2.083 -0.5115 -0.1319  0.1633
 4149TIP3    H112453   5.087   2.298   1.997  0.5923 -0.5907  0.4002
 4149TIP3    H212454   5.037   2.178   2.075 -1.2910  0.0186  0.1811
 4150TIP3   OH212455   2.476   2.321   4.242  0.1807  0.3464  0.0449
 4150TIP3    H112456   2.487   2.237   4.197 -1.9679  1.2005 -2.3390
 4150TIP3    H212457   2.459   2.298   4.333  2.7955 -1.5850  0.1312
 4151TIP3   OH212458   5.382   2.667   3.247  0.0539  0.4806 -0.0270
 4151TIP3    H112459   5.476   2.686   3.243 -0.0683  1.3981  0.7901
 4151TIP3    H212460   5.340   2.744   3.208 -0.3653  0.2042 -0.1308
 4152TIP3   OH212461   4.540   1.475   2.832 -0.4008  0.2387  0.0379
 4152TIP3    H112462   4.466   1.533   2.813 -0.9849 -0.0735  1.2518
 4152TIP3    H212463   4.500   1.390   2.851  0.2781  0.0389  0.6286
 4153TIP3   OH212464   4.645   3.123   3.773  0.3410  0.1428 -0.3262
 4153TIP3    H112465   4.691   3.157   3.850  1.4277  0.4342 -1.0834
 4153TIP3    H212466   4.623   3.201   3.722  1.2166 -0.1549 -1.1754
 4154TIP3   OH212467   6.095   5.705   1.323 -0.1431  0.0678 -0.2495
 4154TIP3    H112468   6.115   5.729   1.233  0.3621 -2.1107 -0.7754
 4154TIP3    H212469   6.000   5.693   1.325 -0.0529 -0.8576 -0.7889
 4155TIP3   OH212470   1.646   3.892   2.682  0.4360 -0.4773  0.1608
 4155TIP3    H112471   1.690   3.976   2.672  0.0261 -0.3302 -0.4767
 4155TIP3    H212472   1.654   3.849   2.597  2.8797 -2.2302  1.1687
 4156TIP3   OH212473   5.993   5.788   2.309 -0.2534  0.1875 -0.0515
 4156TIP3    H112474   6.047   5.723   2.264  0.2447  0.9845 -0.6357
 4156TIP3    H212475   6.043   5.811   2.387 -0.9062 -0.8623  0.6995
 4157TIP3   OH212476   1.684   2.391   1.347 -0.1613 -0.2714  0.2838
 4157TIP3    H112477   1.629   2.454   1.301  0.8477 -0.1373 -0.7667
 4157TIP3    H212478   1.757   2.443   1.380 -0.2641 -0.5822  1.0372
 4158TIP3   OH212479   3.810   3.003   0.839  0.3636 -0.3293  0.7931
 4158TIP3    H112480   3.805   3.097   0.827 -0.2058 -0.3622  0.7774
 4158TIP3    H212481   3.844   2.970   0.755 -0.4549 -0.2375  0.4199
 4159TIP3   OH212482   5.019   0.247   0.615  0.5294 -0.3516 -0.2004
 4159TIP3    H112483   5.101   0.229   0.568  1.0738  2.4196 -0.4652
 4159TIP3    H212484   4.952   0.247   0.547  0.5799 -0.9104 -0.2530
 4160TIP3   OH212485   5.796   1.991   3.684  0.9510  0.5049  0.4672
 4160TIP3    H112486   5.817   1.944   3.764 -0.8707  2.1899  2.0540
 4160TIP3    H212487   5.808   2.083   3.706 -1.5905  1.1525 -0.4675
 4161TIP3   OH212488   1.605   5.131   1.008  0.1092  0.2291  0.2814
 4161TIP3    H112489   1.686   5.180   1.021 -0.1073  0.6119  0.1971
 4161TIP3    H212490   1.631   5.054   0.958  0.3446  0.5818 -0.1435
 4162TIP3   OH212491   2.348   1.509   1.320 -0.4403  0.4824 -0.0948
 4162TIP3    H112492   2.307   1.435   1.367  0.0615  0.5518  0.4618
 4162TIP3    H212493   2.352   1.579   1.385 -0.9768  1.0385 -0.6425
 4163TIP3   OH212494   1.497   3.352   1.241 -0.2833  0.1833  0.1855
 4163TIP3    H112495   1.501   3.298   1.162 -1.0183 -1.2500  1.0972
 4163TIP3    H212496   1.412   3.396   1.236  0.0367  0.7809 -0.2252
 4164TIP3   OH212497   5.814   5.666   0.494 -0.1851  0.1892 -0.1768
 4164TIP3    H112498   5.834   5.760   0.486 -3.8195  1.1280  0.1516
 4164TIP3    H212499   5.843   5.644   0.583 -0.8010  1.4627  0.3737
 4165TIP3   OH212500   0.322   5.347   4.963  0.6674 -0.0260  0.1439
 4165TIP3    H112501   0.269   5.328   5.040  1.8719 -0.1312  0.9805
 4165TIP3    H212502   0.273   5.415   4.916  0.1072  0.3420  1.2249
 4166TIP3   OH212503   3.094   5.221   1.887 -0.0404 -0.0073 -0.1083
 4166TIP3    H112504   3.047   5.288   1.937  0.6923  0.1305  0.4087
 4166TIP3    H212505   3.096   5.145   1.944  2.8506  0.8644  1.1376
 4167TIP3   OH212506   0.304   5.049   3.524 -0.2629  0.0693 -0.1644
 4167TIP3    H112507   0.357   4.996   3.584 -0.3827  1.2957  1.0704
 4167TIP3    H212508   0.214   5.039   3.556 -0.1838  1.7173  0.6772
 4168TIP3   OH212509   3.398   3.460   2.656  0.6179  0.1980 -0.0929
 4168TIP3    H112510   3.324   3.488   2.710  0.4143  0.0352 -0.2886
 4168TIP3    H212511   3.420   3.373   2.689  1.5616  0.7755  0.8405
 4169TIP3   OH212512   5.456   2.160   1.977  0.0344 -0.2728  0.4558
 4169TIP3    H112513   5.533   2.161   1.919 -0.3525  0.1914 -0.0615
 4169TIP3    H212514   5.424   2.250   1.973 -0.6993 -0.5346  0.4535
 4170TIP3   OH212515   3.522   2.857   1.911 -0.0078 -0.1794 -0.2743
 4170TIP3    H112516   3.459   2.926   1.893  0.4397 -0.1527 -1.9307
 4170TIP3    H212517   3.598   2.879   1.857  0.2832 -1.7694 -0.5705
 4171TIP3   OH212518   2.511   5.583   0.099 -0.1287 -1.0813  0.1157
 4171TIP3    H112519   2.459   5.663   0.088 -0.9858 -1.2772  2.3533
 4171TIP3    H212520   2.482   5.546   0.182  0.9929 -3.1919 -0.3639
 4172TIP3   OH212521   0.390   0.687   3.478 -0.0857  0.7725 -0.2320
 4172TIP3    H112522   0.316   0.736   3.443 -0.4121 -0.2053 -0.9746
 4172TIP3    H212523   0.457   0.694   3.410  0.1578  0.8881  0.0243
 4173TIP3   OH212524   3.906   3.994   2.135  0.4143 -0.2645  0.0323
 4173TIP3    H112525   3.913   4.058   2.063  0.5913 -0.7417 -0.3818
 4173TIP3    H212526   3.828   3.943   2.114  0.0915  0.0180  0.5331
 4174TIP3   OH212527   3.424   5.016   2.690  0.3740 -0.0325 -0.2352
 4174TIP3    H112528   3.441   5.106   2.718 -0.0954 -0.1217  0.3630
 4174TIP3    H212529   3.461   4.962   2.760  3.0961 -0.4304 -1.8351
 4175TIP3   OH212530   1.263   5.702   0.893 -0.8623 -0.1599  0.0059
 4175TIP3    H112531   1.200   5.685   0.964 -1.0975 -0.2738 -0.2274
 4175TIP3    H212532   1.338   5.646   0.914 -1.3648 -1.0018 -0.4037
 4176TIP3   OH212533   1.388   5.666   2.146  0.2899  0.0049  0.4835
 4176TIP3    H112534   1.390   5.622   2.061 -1.3920  1.2370 -0.2764
 4176TIP3    H212535   1.442   5.612   2.203  2.8015 -0.0336 -1.7332
 4177TIP3   OH212536   2.945   3.528   4.274  0.0028  0.0590 -0.5274
 4177TIP3    H112537   2.863   3.574   4.290 -0.3446 -0.5184 -0.6624
 4177TIP3    H212538   2.930   3.478   4.194  0.0536 -1.0465  0.1275
 4178TIP3   OH212539   4.951   4.997   3.587  0.2690  0.5816  0.4263
 4178TIP3    H112540   4.986   5.017   3.500  0.6903 -0.3408  0.3805
 4178TIP3    H212541   4.856   5.000   3.575  0.3053  1.9490  0.2944
 4179TIP3   OH212542   0.399   0.436   3.576 -0.0963 -0.0806  0.3400
 4179TIP3    H112543   0.488   0.451   3.608  0.0684 -0.4211  0.0489
 4179TIP3    H212544   0.374   0.519   3.535  0.1073 -0.0018  0.3769
 4180TIP3   OH212545   1.349   0.777   3.104  0.3767  0.2368 -0.8981
 4180TIP3    H112546   1.307   0.772   3.190  0.1133 -0.2413 -1.0473
 4180TIP3    H212547   1.283   0.744   3.043  0.9635 -0.5099 -1.1433
 4181TIP3   OH212548   4.256   3.072   0.659  0.0895  0.1163 -0.8122
 4181TIP3    H112549   4.188   3.054   0.594 -0.4602 -0.1332 -0.1771
 4181TIP3    H212550   4.282   2.986   0.691  0.5720  0.2233 -0.9061
 4182TIP3   OH212551   3.597   0.351   2.395 -0.2692  0.2056 -0.1400
 4182TIP3    H112552   3.544   0.393   2.326  0.2424  0.4360 -0.4008
 4182TIP3    H212553   3.542   0.356   2.473 -1.1519 -0.6852 -0.6758
 4183TIP3   OH212554   1.311   3.331   3.747 -0.2056 -0.4401  0.1198
 4183TIP3    H112555   1.225   3.295   3.728 -0.4996 -0.3804  1.2297
 4183TIP3    H212556   1.295   3.423   3.770  0.2715 -0.1742 -0.5932
 4184TIP3   OH212557  -0.000   2.896   0.894  0.2756  0.3814  0.9357
 4184TIP3    H112558  -0.018   2.802   0.894 -1.2825  0.6374 -0.1891
 4184TIP3    H212559   0.085   2.904   0.936  0.5940 -1.5633  0.7595
 4185TIP3   OH212560   5.341   5.267   2.622  0.2010  0.3719  0.3586
 4185TIP3    H112561   5.255   5.307   2.617 -0.4035 -0.6763  1.6934
 4185TIP3    H212562   5.336   5.208   2.697  1.9081 -0.1360  0.1268
 4186TIP3   OH212563   1.228   0.245   0.070 -0.1187  0.3640  0.9661
 4186TIP3    H112564   1.188   0.332   0.068 -2.9211 -0.8406 -0.4582
 4186TIP3    H212565   1.230   0.217  -0.021  2.8009 -0.2973  1.1172
 4187TIP3   OH212566   6.222   3.789   1.935 -0.2716  0.0786  0.6320
 4187TIP3    H112567   6.197   3.872   1.894 -0.9504  0.9260  2.6203
 4187TIP3    H212568   6.203   3.723   1.869  0.1732  1.4719 -0.9674
 4188TIP3   OH212569   6.176   5.448   0.723  0.5144  0.2649 -0.4533
 4188TIP3    H112570   6.111   5.511   0.755  0.9366 -0.1563  1.3403
 4188TIP3    H212571   6.161   5.444   0.628 -0.0986  2.3875 -0.4960
 4189TIP3   OH212572   0.303   1.502   0.308  0.3712  0.3940 -0.3096
 4189TIP3    H112573   0.222   1.519   0.261  0.3935  0.1184 -0.4492
 4189TIP3    H212574   0.342   1.427   0.263  0.8964  0.7693 -0.4897
 4190TIP3   OH212575   2.329   3.003   3.053  0.1774 -0.4013  0.1620
 4190TIP3    H112576   2.375   3.058   2.990 -0.6581  0.1898  0.0546
 4190TIP3    H212577   2.241   3.041   3.059 -0.1391 -1.1946  0.7508
 4191TIP3   OH212578   4.618   1.316   0.049  0.6021 -0.1833 -0.2388
 4191TIP3    H112579   4.562   1.249   0.088 -0.6903  1.2734  0.5144
 4191TIP3    H212580   4.586   1.398   0.085  3.0489  0.7701 -0.0250
 4192TIP3   OH212581   2.376   1.050   2.840 -0.6900 -0.1382 -0.1198
 4192TIP3    H112582   2.280   1.058   2.842 -0.7666 -1.0960  0.8243
 4192TIP3    H212583   2.396   0.987   2.909  0.6098 -0.1409 -0.4820
 4193TIP3   OH212584   2.728   3.303   5.039 -0.0117  0.4947 -0.8450
 4193TIP3    H112585   2.691   3.221   5.007  0.3991  0.4916 -1.3250
 4193TIP3    H212586   2.763   3.346   4.961  1.2834  0.3464 -0.3752
 4194TIP3   OH212587   4.391   4.264   3.425 -0.1591 -0.2107  0.0551
 4194TIP3    H112588   4.332   4.269   3.350  0.5903  0.2873 -0.5174
 4194TIP3    H212589   4.419   4.173   3.428  0.1747 -0.1301 -0.5584
 4195TIP3   OH212590   0.282   0.475   4.221  0.1116 -0.7212 -0.2907
 4195TIP3    H112591   0.236   0.417   4.281 -0.0130  0.3611  0.7058
 4195TIP3    H212592   0.295   0.556   4.272  0.3153  0.0992 -1.6067
 4196TIP3   OH212593   0.385   3.990   3.396  0.1477 -0.2973 -0.7520
 4196TIP3    H112594   0.344   4.014   3.313 -0.5466  0.7807 -0.1281
 4196TIP3    H212595   0.377   3.895   3.401  0.9564 -0.4835 -2.2930
 4197TIP3   OH212596   5.946   5.768   0.128 -0.4506  0.3002 -0.0785
 4197TIP3    H112597   5.887   5.739   0.058 -1.4265  1.2057  0.3403
 4197TIP3    H212598   5.957   5.862   0.112 -2.7457  1.1059  2.3886
 4198TIP3   OH212599   4.454   4.615   1.671  0.2181  0.6555 -0.2781
 4198TIP3    H112600   4.509   4.601   1.593 -0.7109  0.6890 -0.9545
 4198TIP3    H212601   4.386   4.674   1.641 -1.9654 -1.7130 -0.3481
 4199TIP3   OH212602   4.367   5.852   4.248 -0.2442 -0.2432  0.2821
 4199TIP3    H112603   4.354   5.758   4.239 -0.1014 -0.2749  0.4081
 4199TIP3    H212604   4.457   5.867   4.217  0.0847 -0.2855  1.1775
 4200TIP3   OH212605   4.613   5.435   5.130  0.6196 -0.0545 -0.4255
 4200TIP3    H112606   4.534   5.398   5.091  0.7319 -0.0013 -0.7038
 4200TIP3    H212607   4.643   5.500   5.067  0.9046 -0.0990 -0.3370
 4201TIP3   OH212608   0.240   4.358   3.437 -0.3145 -0.3385 -0.3810
 4201TIP3    H112609   0.224   4.265   3.451  0.8507 -0.4440  0.4245
 4201TIP3    H212610   0.259   4.392   3.525 -2.3974  1.0166 -0.3929
 4202TIP3   OH212611   3.414   0.434   2.582  0.4061 -0.1143 -0.2231
 4202TIP3    H112612   3.319   0.421   2.586  0.4841 -1.0946 -1.1726
 4202TIP3    H212613   3.444   0.420   2.671 -0.4998  1.6902  0.4120
 4203TIP3   OH212614   5.556   1.999   2.704 -0.9105 -0.4505  0.7811
 4203TIP3    H112615   5.521   2.061   2.639  0.6634  0.0455  0.3706
 4203TIP3    H212616   5.608   1.937   2.653 -2.4696 -2.1758  1.1863
 4204TIP3   OH212617   0.872   2.874   4.953  0.2427 -0.3639 -0.1649
 4204TIP3    H112618   0.835   2.963   4.947  1.2115  0.1679  1.1685
 4204TIP3    H212619   0.957   2.881   4.910  0.2414 -0.7025 -0.2219
 4205TIP3   OH212620   4.763   3.124   4.717  0.0517 -0.3638 -0.6910
 4205TIP3    H112621   4.698   3.069   4.760 -0.5770 -1.1538 -2.5742
 4205TIP3    H212622   4.810   3.165   4.789 -0.4222 -2.2216  0.7546
 4206TIP3   OH212623   2.465   5.565   0.825 -0.7272 -0.0989 -0.3431
 4206TIP3    H112624   2.550   5.606   0.813 -1.4695  1.0558 -1.9059
 4206TIP3    H212625   2.443   5.580   0.918  1.2499 -1.4550  0.4019
 4207TIP3   OH212626   3.349   3.633   1.017 -0.0217  0.3835 -0.7128
 4207TIP3    H112627   3.289   3.674   0.955 -1.1015 -0.0339  0.0456
 4207TIP3    H212628   3.390   3.707   1.062 -1.6855  0.6725  0.3863
 4208TIP3   OH212629   2.030   0.703   0.944  0.3639  0.3296  0.1128
 4208TIP3    H112630   2.079   0.703   0.862  1.0008 -1.7182  0.4467
 4208TIP3    H212631   1.942   0.676   0.920  0.6926 -0.8321  0.1343
 4209TIP3   OH212632   4.497   5.048   3.738  0.2179  0.4178 -0.1407
 4209TIP3    H112633   4.492   4.953   3.735 -0.3311  0.4362  0.1501
 4209TIP3    H212634   4.479   5.071   3.830  1.3077  0.7489  0.0139
 4210TIP3   OH212635   2.515   0.947   1.077 -0.5346  0.0454 -0.2285
 4210TIP3    H112636   2.465   0.868   1.060  1.3247 -1.1497 -0.4351
 4210TIP3    H212637   2.583   0.919   1.138  1.3117  1.0013 -1.7502
 4211TIP3   OH212638   0.658   3.715   4.520  0.1243 -0.1975  0.0281
 4211TIP3    H112639   0.570   3.738   4.550  0.4309  0.0468  0.7549
 4211TIP3    H212640   0.715   3.737   4.594  0.7335 -0.8531 -0.2378
 4212TIP3   OH212641   5.611   2.559   2.825 -0.0084 -0.5723  0.0330
 4212TIP3    H112642   5.647   2.491   2.881  1.0011  0.1003  0.2279
 4212TIP3    H212643   5.655   2.640   2.853  0.2081 -0.1489 -1.4306
 4213TIP3   OH212644   2.959   2.350   2.199 -0.0053 -0.0851  1.0259
 4213TIP3    H112645   2.882   2.304   2.166  0.8823 -0.1405 -1.1270
 4213TIP3    H212646   3.015   2.361   2.122  1.3128  1.6067  2.1519
 4214TIP3   OH212647   2.690   3.313   0.146 -0.0385 -0.0860 -0.4293
 4214TIP3    H112648   2.669   3.256   0.072  0.1939 -0.3387 -0.2983
 4214TIP3    H212649   2.677   3.402   0.111  0.5813 -0.1861 -0.9334
 4215TIP3   OH212650   1.647   5.714   2.452  0.0105 -0.0125 -0.2083
 4215TIP3    H112651   1.663   5.660   2.375  2.6558  1.0064 -0.4787
 4215TIP3    H212652   1.694   5.669   2.523 -1.0738 -0.1120  0.4605
 4216TIP3   OH212653   0.706   4.340   0.413  0.2212  0.0355  1.1907
 4216TIP3    H112654   0.748   4.256   0.395 -0.6948 -0.9408  3.2844
 4216TIP3    H212655   0.615   4.317   0.434 -1.0781  1.9223 -1.6220
 4217TIP3   OH212656   3.098   0.379   0.063  0.3135  0.0009 -0.2193
 4217TIP3    H112657   3.143   0.463   0.064  0.2959  0.0204 -0.7756
 4217TIP3    H212658   3.111   0.344   0.151  1.2512  0.0924 -0.3107
 4218TIP3   OH212659   1.580   4.360   4.514  0.0561  0.0553  0.0154
 4218TIP3    H112660   1.665   4.324   4.541 -0.1964 -0.7058 -0.1943
 4218TIP3    H212661   1.541   4.394   4.595 -0.2129 -1.2025  0.4278
 4219TIP3   OH212662   1.503   4.727   0.372 -0.1294  0.2771 -0.5139
 4219TIP3    H112663   1.443   4.682   0.313 -0.2749  0.5987 -0.6130
 4219TIP3    H212664   1.590   4.693   0.350 -0.4359 -1.6035  0.8761
 4220TIP3   OH212665   1.114   4.369   3.308 -0.9830  0.6443 -0.1094
 4220TIP3    H112666   1.167   4.313   3.365  0.4112 -0.8275 -2.6685
 4220TIP3    H212667   1.070   4.429   3.368  1.6996  0.3644  2.3584
 4221TIP3   OH212668   1.632   0.192   3.795 -0.1071 -0.7151 -0.3309
 4221TIP3    H112669   1.615   0.275   3.839  2.6767  0.2627 -0.8946
 4221TIP3    H212670   1.653   0.217   3.705 -0.2669 -2.1424 -0.7846
 4222TIP3   OH212671   4.700   0.952   4.777 -0.0847 -0.1050  0.5378
 4222TIP3    H112672   4.756   0.897   4.831  1.2758  1.3554  0.7103
 4222TIP3    H212673   4.638   0.991   4.839  0.6319  0.5562  0.8484
 4223TIP3   OH212674   1.455   4.985   0.237  0.6553  0.4255 -0.3023
 4223TIP3    H112675   1.515   4.962   0.166  0.3357  0.1135 -0.4740
 4223TIP3    H212676   1.481   4.927   0.309  1.2445  1.0254 -0.0276
 4224TIP3   OH212677   2.809   5.311   4.649 -0.1115  0.2930  0.1889
 4224TIP3    H112678   2.899   5.301   4.682  0.6067 -0.0084 -1.7651
 4224TIP3    H212679   2.819   5.328   4.556 -2.0815  1.0577  0.0734
 4225TIP3   OH212680   2.764   1.556   0.348  0.1904  0.6543 -0.3841
 4225TIP3    H112681   2.794   1.492   0.412  0.2744 -0.2792 -1.3185
 4225TIP3    H212682   2.708   1.506   0.288 -0.2151  1.5809 -0.8017
 4226TIP3   OH212683   6.165   5.327   2.337  0.1001 -0.9303 -0.4205
 4226TIP3    H112684   6.124   5.253   2.294 -2.0837 -0.5439  0.8796
 4226TIP3    H212685   6.128   5.404   2.293  1.9701 -0.5213 -1.4210
 4227TIP3   OH212686   2.396   0.354   4.153  0.1300 -0.0058 -0.9330
 4227TIP3    H112687   2.411   0.432   4.206  1.4101 -0.4371 -0.6179
 4227TIP3    H212688   2.468   0.295   4.176 -0.8823 -1.3472 -1.0468
 4228TIP3   OH212689   1.747   3.150   0.768  0.0713  0.8379  0.2593
 4228TIP3    H112690   1.721   3.135   0.859  0.5403 -0.9054  0.1471
 4228TIP3    H212691   1.830   3.198   0.775  0.0217  0.8607  0.7411
 4229TIP3   OH212692   2.599   3.205   1.125 -0.3929 -0.3935 -0.0348
 4229TIP3    H112693   2.610   3.127   1.071 -0.0469 -0.2475 -0.1759
 4229TIP3    H212694   2.554   3.267   1.067 -0.0370 -0.2426 -0.1487
 4230TIP3   OH212695   0.334   3.025   3.629  0.5087 -0.7823  0.0623
 4230TIP3    H112696   0.282   3.104   3.646 -1.2498 -1.7292 -0.5847
 4230TIP3    H212697   0.362   2.995   3.715  1.8183  0.9080  0.2687
 4231TIP3   OH212698   2.846   1.037   4.859 -0.0610  0.6515 -0.1897
 4231TIP3    H112699   2.926   1.065   4.903 -0.2230  0.3776  0.2838
 4231TIP3    H212700   2.775   1.072   4.912 -0.2567  0.3903 -0.2758
 4232TIP3   OH212701   0.846   4.452   2.317 -0.2051 -0.5284  0.1031
 4232TIP3    H112702   0.815   4.524   2.372  1.7129 -1.4321  2.5422
 4232TIP3    H212703   0.898   4.496   2.248 -0.6223  0.5065  0.4232
 4233TIP3   OH212704   3.017   1.586   5.093 -0.6738  0.1121 -0.5036
 4233TIP3    H112705   3.088   1.530   5.063 -0.2392 -0.0728  0.8305
 4233TIP3    H212706   2.942   1.527   5.101 -0.6287  0.0377 -0.6249
 4234TIP3   OH212707   4.756   1.021   1.742  0.3237  0.2418  0.4496
 4234TIP3    H112708   4.773   1.105   1.699  0.8528 -0.7679 -1.4138
 4234TIP3    H212709   4.687   1.041   1.806 -0.1499  1.9420 -0.5169
 4235TIP3   OH212710   0.314   5.303   2.912 -0.0504 -0.1851  0.2213
 4235TIP3    H112711   0.244   5.355   2.952 -0.4510  1.0148 -1.8593
 4235TIP3    H212712   0.389   5.362   2.909  0.0531 -0.3429 -0.4760
 4236TIP3   OH212713   4.884   0.024   3.910 -0.1866  0.2688 -0.3799
 4236TIP3    H112714   4.966   0.074   3.904  0.5464 -0.8861 -0.2813
 4236TIP3    H212715   4.822   0.085   3.950  1.1974  0.5093  1.5217
 4237TIP3   OH212716   1.597   1.200   3.931  0.0890  0.2694 -0.0447
 4237TIP3    H112717   1.575   1.126   3.987 -0.0891  0.4244  0.0942
 4237TIP3    H212718   1.545   1.187   3.851  0.2563  0.1077 -0.1257
 4238TIP3   OH212719   5.153   1.074   3.363 -0.3756 -0.2778 -0.1656
 4238TIP3    H112720   5.112   1.113   3.285 -0.0072  2.2910  0.8406
 4238TIP3    H212721   5.081   1.030   3.408 -0.9713 -0.1840 -0.9929
 4239TIP3   OH212722   6.075   2.488   2.731 -0.3820  0.1216  0.2507
 4239TIP3    H112723   5.994   2.437   2.730 -0.2995 -0.0191  0.7104
 4239TIP3    H212724   6.116   2.469   2.646 -0.3728 -0.5510  0.3978
 4240TIP3   OH212725  -0.024   4.145   0.353 -0.1039 -0.3014 -0.3364
 4240TIP3    H112726   0.058   4.160   0.306  0.4736 -1.8733  0.0816
 4240TIP3    H212727  -0.029   4.217   0.416  1.0120 -0.2239 -0.3083
 4241TIP3   OH212728   4.325   2.202   0.576  0.2704  0.3340 -0.1282
 4241TIP3    H112729   4.245   2.155   0.596  0.9762 -0.7427  0.2182
 4241TIP3    H212730   4.320   2.282   0.629 -0.6588  0.3870 -0.2816
 4242TIP3   OH212731   0.898   0.279   1.352 -0.0004 -0.3286 -0.5960
 4242TIP3    H112732   0.957   0.264   1.278 -1.2780  0.4275 -1.8088
 4242TIP3    H212733   0.862   0.192   1.370  1.3982 -0.7893  0.1209
 4243TIP3   OH212734   4.755   1.927   4.922  0.3030 -0.1262  0.1569
 4243TIP3    H112735   4.660   1.935   4.913  0.1742 -1.7830 -0.2536
 4243TIP3    H212736   4.769   1.912   5.015  0.0024 -1.4544  0.0057
 4244TIP3   OH212737   0.929   0.925   2.763  0.8661 -0.2663  0.6107
 4244TIP3    H112738   0.967   0.998   2.812 -0.7103  0.9899  0.0397
 4244TIP3    H212739   0.952   0.942   2.672 -0.1418 -0.0313  0.3815
 4245TIP3   OH212740   4.372   0.435   4.539  0.8865 -0.0408  0.5060
 4245TIP3    H112741   4.388   0.523   4.505  0.1042 -0.6243 -1.5576
 4245TIP3    H212742   4.458   0.404   4.568  1.2905  1.1346  0.6217
 4246TIP3   OH212743   1.235   1.042   2.601  0.7983  0.0268 -0.4879
 4246TIP3    H112744   1.270   1.081   2.521  0.7029  0.2509 -0.4209
 4246TIP3    H212745   1.255   0.948   2.592 -1.6288 -0.4248 -2.0656
 4247TIP3   OH212746   0.468   4.828   2.473 -0.0628  0.2747 -0.1034
 4247TIP3    H112747   0.405   4.827   2.546 -3.1259 -1.7023 -2.5206
 4247TIP3    H212748   0.500   4.918   2.471 -2.5442  1.3195  1.5790
 4248TIP3   OH212749   0.520   1.071   0.484 -0.1396  0.1278 -0.8115
 4248TIP3    H112750   0.453   1.003   0.474 -0.5664  0.3489  0.4708
 4248TIP3    H212751   0.509   1.103   0.573 -0.9131  2.9104 -1.8095
 4249TIP3   OH212752   3.265   4.408   1.642 -0.2098  0.3589  0.7490
 4249TIP3    H112753   3.303   4.394   1.556 -0.6430 -0.3342  0.6645
 4249TIP3    H212754   3.295   4.334   1.694 -0.0761  0.6908  1.1541
 4250TIP3   OH212755   1.373   1.743   1.651  0.8069  0.1862  0.4952
 4250TIP3    H112756   1.384   1.819   1.709  3.4081 -0.7774  1.4172
 4250TIP3    H212757   1.454   1.693   1.662 -0.6575 -2.5676 -0.3477
 4251TIP3   OH212758   5.075   0.121   0.068 -0.0644 -0.4401  0.6440
 4251TIP3    H112759   5.081   0.127  -0.027 -0.8089  0.6492  0.6401
 4251TIP3    H212760   5.124   0.197   0.100 -1.2284  0.1726  1.0486
 4252TIP3   OH212761   4.397   1.937   3.537 -0.0865 -0.0996  0.2915
 4252TIP3    H112762   4.342   2.007   3.501 -0.0499 -0.5021 -0.5779
 4252TIP3    H212763   4.468   1.984   3.582  1.0545  0.4972 -1.9690
 4253TIP3   OH212764   5.853   1.776   3.844  0.0005 -0.4142 -0.4006
 4253TIP3    H112765   5.815   1.797   3.929  0.1434  3.0540 -1.0532
 4253TIP3    H212766   5.947   1.792   3.854 -0.0528  0.5925 -1.3130
 4254TIP3   OH212767   1.939   4.405   0.614 -0.2154 -0.3526  0.1326
 4254TIP3    H112768   1.910   4.350   0.542  0.6087 -1.1350  0.3825
 4254TIP3    H212769   1.869   4.399   0.679 -1.1113  0.6026 -0.6887
 4255TIP3   OH212770   0.478   3.204   4.268 -0.1341 -0.9865  0.6240
 4255TIP3    H112771   0.526   3.136   4.316  1.4382 -0.0418  0.4785
 4255TIP3    H212772   0.547   3.257   4.229 -1.2520  1.4259  1.7538
 4256TIP3   OH212773   1.063   1.886   4.743  0.5036 -0.0987 -0.1452
 4256TIP3    H112774   1.046   1.980   4.745 -0.6309 -0.2961  0.1517
 4256TIP3    H212775   0.991   1.847   4.794  0.9233 -1.1259 -0.3125
 4257TIP3   OH212776   4.907   2.302   0.883 -0.0263 -0.2176  0.4514
 4257TIP3    H112777   4.984   2.261   0.844 -0.3148  0.7257 -1.1937
 4257TIP3    H212778   4.859   2.230   0.924  1.5907 -0.8500  1.3210
 4258TIP3   OH212779   5.467   1.808   3.772  0.3003  0.4219  0.0532
 4258TIP3    H112780   5.510   1.841   3.850  0.0324  1.7303 -0.3219
 4258TIP3    H212781   5.533   1.813   3.703 -0.0343  1.2275 -0.2360
 4259TIP3   OH212782   3.514   5.705   1.492  0.2980 -0.1445 -0.1059
 4259TIP3    H112783   3.581   5.639   1.513  0.1277  0.2345  1.8095
 4259TIP3    H212784   3.431   5.662   1.513  0.0758  0.1237 -0.4279
 4260TIP3   OH212785   5.081   2.035   4.968  0.0169  0.2283  0.3227
 4260TIP3    H112786   5.101   2.084   4.888  0.8580 -0.9719 -0.2332
 4260TIP3    H212787   5.034   1.958   4.937  0.3342 -0.2388  0.9826
 4261TIP3   OH212788   6.156   0.384   1.624  0.2342 -0.2160  0.5284
 4261TIP3    H112789   6.092   0.390   1.553 -1.4732  1.7726  2.1174
 4261TIP3    H212790   6.203   0.468   1.620  1.2035 -0.7351  0.7908
 4262TIP3   OH212791   5.051   3.779   4.997  0.1625 -0.1060 -0.5688
 4262TIP3    H112792   4.985   3.785   5.066  0.3115  0.0775 -0.4420
 4262TIP3    H212793   5.126   3.827   5.031  1.4517 -2.7220  0.5215
 4263TIP3   OH212794   0.701   5.428   0.391  0.0624 -0.0975 -0.4114
 4263TIP3    H112795   0.772   5.479   0.430  0.1955 -1.3357  1.0342
 4263TIP3    H212796   0.744   5.373   0.326  0.2863 -0.1288 -0.2379
 4264TIP3   OH212797   1.121   0.084   3.063 -0.6905  0.3935  0.2460
 4264TIP3    H112798   1.174   0.149   3.111 -0.5146  0.4546 -0.0246
 4264TIP3    H212799   1.145   0.000   3.102 -0.5744  0.4463  0.2905
 4265TIP3   OH212800   2.236   0.543   1.540 -0.2152 -0.2934 -0.9924
 4265TIP3    H112801   2.191   0.489   1.605  1.6424  0.5228  1.1159
 4265TIP3    H212802   2.316   0.495   1.520  1.8792  1.8215  1.5312
 4266TIP3   OH212803   3.979   4.452   1.928 -0.0713 -0.6211 -0.2747
 4266TIP3    H112804   3.974   4.466   2.023 -1.6505  2.3934 -0.6846
 4266TIP3    H212805   4.071   4.427   1.912  0.8227  1.0323  1.8288
 4267TIP3   OH212806   0.869   4.391   1.869 -0.6169 -0.3726  0.0766
 4267TIP3    H112807   0.787   4.403   1.918 -0.6768 -1.9261  0.4216
 4267TIP3    H212808   0.842   4.387   1.777 -0.8922 -0.5531  0.1644
 4268TIP3   OH212809   3.845   1.785   2.550 -0.4082 -0.2563 -0.0213
 4268TIP3    H112810   3.901   1.845   2.599  2.0557 -1.5428 -1.0768
 4268TIP3    H212811   3.882   1.786   2.461 -2.1092 -1.1664 -0.7868
 4269TIP3   OH212812   4.652   3.646   0.410  0.7419  0.4895  0.2413
 4269TIP3    H112813   4.609   3.709   0.468  1.7890  1.9722 -0.5107
 4269TIP3    H212814   4.717   3.603   0.466  0.7036  0.8076  0.5355
 4270TIP3   OH212815   2.465   5.181   2.888 -0.1673 -0.3502 -0.0305
 4270TIP3    H112816   2.413   5.221   2.958 -0.6141  0.1956 -0.6626
 4270TIP3    H212817   2.408   5.113   2.852 -1.0695  1.1627 -1.6542
 4271TIP3   OH212818   0.364   5.880   2.965  0.3107  0.8557 -0.0992
 4271TIP3    H112819   0.277   5.857   2.933  0.3494 -2.1785  1.5918
 4271TIP3    H212820   0.419   5.880   2.886 -0.6719 -0.2508 -0.8264
 4272TIP3   OH212821   5.520   1.184   1.239 -0.0073  0.0654 -0.3853
 4272TIP3    H112822   5.466   1.252   1.279  0.0537  0.5225 -1.0744
 4272TIP3    H212823   5.507   1.194   1.145  1.7460  0.5979 -0.6190
 4273TIP3   OH212824   5.744   0.528   2.723  0.0447 -0.1173  0.4682
 4273TIP3    H112825   5.736   0.620   2.750 -0.3826 -0.0778  0.2155
 4273TIP3    H212826   5.790   0.532   2.638 -0.3641 -0.1077  0.2477
 4274TIP3   OH212827   6.352   4.535   3.000 -0.5864 -0.3939 -0.1615
 4274TIP3    H112828   6.332   4.546   2.907 -0.1990  0.1895 -0.1800
 4274TIP3    H212829   6.340   4.441   3.017 -0.5739 -0.5141 -0.8172
 4275TIP3   OH212830   2.562   2.142   1.049 -0.4558  0.1981 -0.0636
 4275TIP3    H112831   2.562   2.062   0.997  1.7270 -0.2897  0.5782
 4275TIP3    H212832   2.517   2.206   0.994 -0.7647 -1.0375 -1.3127
 4276TIP3   OH212833   5.425   5.570   0.028 -0.3947 -0.1425  0.4395
 4276TIP3    H112834   5.468   5.556  -0.057  0.3541 -0.5729  0.8750
 4276TIP3    H212835   5.449   5.493   0.080 -0.2390  0.4632  1.2826
 4277TIP3   OH212836   1.818   2.476   4.811  0.4585  0.2509  0.1617
 4277TIP3    H112837   1.731   2.446   4.782  0.7338 -0.1375 -0.2757
 4277TIP3    H212838   1.827   2.563   4.773  1.0311 -0.4488 -1.4305
 4278TIP3   OH212839   3.714   5.313   3.603  0.4463 -0.0494  0.0919
 4278TIP3    H112840   3.776   5.353   3.664 -0.5130 -0.6398  1.5110
 4278TIP3    H212841   3.768   5.259   3.546  1.5039  1.4697 -0.3967
 4279TIP3   OH212842   2.344   0.112   0.153 -0.2074  0.1829  0.1841
 4279TIP3    H112843   2.406   0.122   0.225  3.2050 -0.3600 -2.4136
 4279TIP3    H212844   2.377   0.037   0.103 -2.0387  0.8856 -2.2859
 4280TIP3   OH212845   4.238   2.778   0.655  0.1478  0.5762 -0.3367
 4280TIP3    H112846   4.238   2.743   0.566  0.9917 -1.2691  0.3283
 4280TIP3    H212847   4.176   2.723   0.702  1.2938  0.1030  0.6857
 4281TIP3   OH212848   4.699   2.935   3.371 -0.5324  0.2508 -0.1560
 4281TIP3    H112849   4.748   2.929   3.453  1.5694  0.5530 -1.3304
 4281TIP3    H212850   4.609   2.954   3.399  0.2604  1.1049  2.0515
 4282TIP3   OH212851   4.492   2.161   4.407 -0.0626  0.0149  0.9744
 4282TIP3    H112852   4.576   2.204   4.392 -0.0789 -0.3703 -0.2513
 4282TIP3    H212853   4.431   2.204   4.347 -0.1929 -1.3722  0.0808
 4283TIP3   OH212854   1.573   0.686   0.535  0.2248 -0.3071 -0.1913
 4283TIP3    H112855   1.655   0.643   0.560  0.1707 -0.6219 -0.5549
 4283TIP3    H212856   1.514   0.670   0.609 -0.3010 -2.2079 -0.9574
 4284TIP3   OH212857   4.259   1.771   3.897 -0.2844 -0.3004  0.1360
 4284TIP3    H112858   4.258   1.707   3.968  1.0041 -0.1339  0.3345
 4284TIP3    H212859   4.181   1.752   3.845 -0.5658 -1.2334  0.8896
 4285TIP3   OH212860   0.414   3.851   0.971  0.1417 -0.1569  0.2631
 4285TIP3    H112861   0.334   3.835   1.021  0.2859  0.8571  0.8579
 4285TIP3    H212862   0.398   3.934   0.926  0.7370 -0.0968  0.1552
 4286TIP3   OH212863   3.388   0.351   3.738  0.5285  0.0813  0.4856
 4286TIP3    H112864   3.451   0.286   3.707 -1.0127 -2.3616  2.1155
 4286TIP3    H212865   3.389   0.340   3.833 -2.3107 -0.0800  0.5586
 4287TIP3   OH212866   3.809   1.230   0.806 -0.9139  0.3150 -1.0549
 4287TIP3    H112867   3.862   1.204   0.731  1.0481 -2.0484  0.9660
 4287TIP3    H212868   3.872   1.243   0.877 -2.7931  0.4333  0.7017
 4288TIP3   OH212869   1.972   1.790   4.874  0.2783 -0.2747  0.0333
 4288TIP3    H112870   1.974   1.764   4.966  1.0441  1.2838  0.5028
 4288TIP3    H212871   1.914   1.726   4.831  0.5335 -1.4848  1.4334
 4289TIP3   OH212872   2.021   3.474   4.796 -0.1434 -0.0870 -0.9671
 4289TIP3    H112873   2.079   3.398   4.799  0.0618  0.0804 -0.7179
 4289TIP3    H212874   2.047   3.521   4.716  0.9203  0.6663 -0.2005
 4290TIP3   OH212875   2.951   2.791   3.963  0.4415  0.3944  0.0671
 4290TIP3    H112876   2.975   2.770   4.053 -1.3582 -0.1183  0.4744
 4290TIP3    H212877   2.913   2.710   3.929  2.0826  0.2397 -1.5653
 4291TIP3   OH212878   3.007   5.577   5.018 -0.3657 -0.3549 -0.1648
 4291TIP3    H112879   3.040   5.488   5.002 -0.4451 -0.6443  1.1251
 4291TIP3    H212880   2.985   5.577   5.112 -0.4561  1.0021 -0.1744
 4292TIP3   OH212881   2.357   0.502   2.110 -0.1233 -0.0107 -0.7752
 4292TIP3    H112882   2.425   0.561   2.142 -1.2908 -0.3459  2.7465
 4292TIP3    H212883   2.403   0.423   2.082  1.0635  0.5871 -0.5469
 4293TIP3   OH212884   5.899   4.361   4.193 -0.2706 -0.2085 -0.6948
 4293TIP3    H112885   5.986   4.399   4.178 -0.8322  1.1956 -0.5573
 4293TIP3    H212886   5.844   4.436   4.216 -1.9706 -0.7840 -2.6005
 4294TIP3   OH212887   2.739   2.987   3.059 -0.7270 -0.0662 -0.3220
 4294TIP3    H112888   2.740   3.082   3.071 -0.6861 -0.1193  0.1177
 4294TIP3    H212889   2.826   2.967   3.024 -0.9772  0.1362 -1.0695
 4295TIP3   OH212890   0.126   5.815   4.862  0.1416  0.2783  0.7964
 4295TIP3    H112891   0.168   5.736   4.894 -0.9485 -1.0122 -0.7910
 4295TIP3    H212892   0.174   5.839   4.783 -1.4611 -0.7360 -0.5663
 4296TIP3   OH212893   5.578   0.967   0.796  0.6640  0.5834  0.1829
 4296TIP3    H112894   5.659   0.971   0.847  0.3478  0.0786  0.7359
 4296TIP3    H212895   5.556   0.874   0.793  0.5849  0.6199 -0.7391
 4297TIP3   OH212896   1.389   5.988   2.370  0.5324 -0.4234  0.1900
 4297TIP3    H112897   1.331   5.917   2.343  0.6365  0.2143 -1.8126
 4297TIP3    H212898   1.459   5.989   2.305  0.2126  1.8886 -0.2184
 4298TIP3   OH212899   0.604   4.793   5.008  0.2871  0.2119  0.1518
 4298TIP3    H112900   0.674   4.734   4.979  0.2308 -0.1049  0.6428
 4298TIP3    H212901   0.649   4.869   5.043  0.4122 -0.2250  0.9687
 4299TIP3   OH212902   4.672   0.725   1.057  0.2530 -0.2581 -0.1023
 4299TIP3    H112903   4.761   0.744   1.087  0.7066  0.5336 -1.8457
 4299TIP3    H212904   4.677   0.731   0.962 -1.4874 -1.0819 -0.2738
 4300TIP3   OH212905   0.840   0.904   1.049  0.1254  0.3041  0.6831
 4300TIP3    H112906   0.764   0.919   1.105 -0.0629 -1.4522  0.9392
 4300TIP3    H212907   0.817   0.946   0.966 -2.8579 -3.2896 -0.5831
 4301TIP3   OH212908   1.992   2.270   0.106 -0.4939 -0.3564 -0.3129
 4301TIP3    H112909   1.974   2.191   0.158  0.8512 -0.3853  0.1293
 4301TIP3    H212910   1.905   2.299   0.079 -1.2170 -0.7046  1.4273
 4302TIP3   OH212911   3.729   4.866   3.544  0.2086 -0.2208 -0.0473
 4302TIP3    H112912   3.818   4.831   3.546  0.9266  1.4734 -0.6609
 4302TIP3    H212913   3.679   4.799   3.498  0.9681 -1.5782  1.0318
 4303TIP3   OH212914   3.637   1.974   3.495  0.3189  0.0980 -0.0504
 4303TIP3    H112915   3.703   1.966   3.427  1.5821  3.5708  0.5318
 4303TIP3    H212916   3.680   2.024   3.565 -1.7793 -0.8521  2.0679
 4304TIP3   OH212917   3.965   4.208   3.102  0.1109 -0.3826  0.3429
 4304TIP3    H112918   3.950   4.148   3.029 -0.5106 -0.1437  0.2720
 4304TIP3    H212919   3.900   4.183   3.167 -0.5126  0.5496  0.1006
 4305TIP3   OH212920   5.873   2.871   3.956 -0.0476  0.2505  0.2507
 4305TIP3    H112921   5.818   2.796   3.980  0.2136  0.5726  1.9885
 4305TIP3    H212922   5.961   2.846   3.983  0.3263  0.5358 -0.6801
 4306TIP3   OH212923   0.584   5.500   4.375  0.2475  0.6920 -0.0254
 4306TIP3    H112924   0.555   5.442   4.446 -1.2707 -0.1936 -1.2884
 4306TIP3    H212925   0.679   5.488   4.371  0.0074 -1.7128 -0.1763
 4307TIP3   OH212926   2.588   1.178   2.458 -0.0744  0.0489 -0.3158
 4307TIP3    H112927   2.497   1.205   2.463  0.1249  0.7301 -0.2294
 4307TIP3    H212928   2.623   1.192   2.546  0.1522 -0.0611 -0.3854
 4308TIP3   OH212929   3.296   2.126   0.763  0.7569 -0.2090  0.0976
 4308TIP3    H112930   3.307   2.035   0.791  0.5711 -0.0517  0.7033
 4308TIP3    H212931   3.202   2.142   0.770  0.7567 -0.0459 -0.2594
 4309TIP3   OH212932   1.024   0.839   3.261  0.1621 -0.6741  1.2530
 4309TIP3    H112933   0.945   0.786   3.256 -0.0149 -0.3216 -1.8911
 4309TIP3    H212934   1.088   0.794   3.205  1.3904  0.2719  1.8284
 4310TIP3   OH212935   0.008   0.949   0.827 -0.0774 -0.2261  0.3472
 4310TIP3    H112936   0.101   0.970   0.839 -0.0410 -1.4117  2.4923
 4310TIP3    H212937  -0.033   0.973   0.910 -1.3851 -1.2952  0.0348
 4311TIP3   OH212938   0.710   3.988   4.802  0.1477 -0.1321 -0.2146
 4311TIP3    H112939   0.759   4.034   4.870 -0.6283 -0.3116  0.4696
 4311TIP3    H212940   0.778   3.947   4.748  0.9130  2.2990 -1.2297
 4312TIP3   OH212941   1.220   4.915   0.118 -0.5534 -0.1440 -0.1289
 4312TIP3    H112942   1.230   4.843   0.055 -0.5731 -1.3422  1.1837
 4312TIP3    H212943   1.308   4.928   0.154 -0.4253  0.9267 -0.7952
 4313TIP3   OH212944   2.241   4.983   1.391 -0.2383  0.1369  0.1943
 4313TIP3    H112945   2.208   5.029   1.314 -2.6757 -4.1236 -1.6885
 4313TIP3    H212946   2.334   4.971   1.374 -0.4935  0.3086 -1.5185
 4314TIP3   OH212947   0.367   4.573   1.662  0.1003 -0.0521  0.0002
 4314TIP3    H112948   0.452   4.619   1.665  0.7030 -1.1695  0.7004
 4314TIP3    H212949   0.354   4.541   1.751 -0.9022 -0.1962 -0.1921
 4315TIP3   OH212950   4.106   0.060   1.545  0.4778  0.3211  0.1617
 4315TIP3    H112951   4.029   0.042   1.600  0.1659  0.6609 -0.1552
 4315TIP3    H212952   4.181   0.035   1.599  0.1241 -0.5116  0.2810
 4316TIP3   OH212953   3.106   4.926   2.052  0.1455 -0.1959 -0.1146
 4316TIP3    H112954   3.096   4.985   2.127  0.9204 -1.0852  0.7242
 4316TIP3    H212955   3.166   4.858   2.083  0.6095 -0.5090 -1.6030
 4317TIP3   OH212956   1.453   0.085   2.227 -0.5936  0.6292  0.1670
 4317TIP3    H112957   1.441   0.160   2.286  2.4135  1.4880 -0.1542
 4317TIP3    H212958   1.545   0.061   2.236 -0.9710 -1.7302 -1.3215
 4318TIP3   OH212959   2.460   1.330   2.978  0.5264 -0.1153 -0.2914
 4318TIP3    H112960   2.394   1.272   3.015  0.2715  0.4951  0.2343
 4318TIP3    H212961   2.538   1.314   3.030  0.7628 -0.7421 -0.8282
 4319TIP3   OH212962   2.888   0.233   4.446 -0.2373  0.0648  0.2046
 4319TIP3    H112963   2.865   0.161   4.505 -0.4899 -0.2535 -0.2744
 4319TIP3    H212964   2.927   0.191   4.370 -0.9097  0.3837 -0.3292
 4320TIP3   OH212965   5.479   1.725   5.064  0.0911  0.2049  0.2206
 4320TIP3    H112966   5.521   1.723   4.978 -1.3058 -4.3356 -0.6589
 4320TIP3    H212967   5.390   1.756   5.047  0.6670  2.2073  0.6595
 4321TIP3   OH212968   3.965   2.125   1.271  0.3287  0.1332  0.2225
 4321TIP3    H112969   3.944   2.154   1.182 -0.1672  1.0150  0.6083
 4321TIP3    H212970   3.970   2.030   1.265  0.0360  0.1637 -0.6945
 4322TIP3   OH212971   6.098   0.175   4.087  0.4146  0.2869  0.6852
 4322TIP3    H112972   6.111   0.251   4.029  0.3199  0.1140  0.4378
 4322TIP3    H212973   6.187   0.144   4.106  0.3847 -1.0433 -1.1989
 4323TIP3   OH212974   5.214   4.111   3.767  0.1401  0.4669  0.1466
 4323TIP3    H112975   5.173   4.197   3.758 -2.8191 -0.6315  1.5932
 4323TIP3    H212976   5.283   4.124   3.832 -0.9065  1.5924  1.0934
 4324TIP3   OH212977   4.480   2.362   2.821  0.2679 -0.2849  0.2329
 4324TIP3    H112978   4.538   2.399   2.754 -1.1128  0.3879 -0.6320
 4324TIP3    H212979   4.520   2.278   2.843  0.8768 -0.4300 -1.2784
 4325TIP3   OH212980   5.767   3.800   4.779  1.0066  0.3245 -0.0942
 4325TIP3    H112981   5.834   3.868   4.780  0.3102  1.0150  0.4470
 4325TIP3    H212982   5.766   3.769   4.688  1.7046  0.6538 -0.2170
 4326TIP3   OH212983   3.758   0.700   1.554  0.0847  0.2763 -0.0106
 4326TIP3    H112984   3.836   0.674   1.504 -0.3777 -1.0084 -0.0992
 4326TIP3    H212985   3.787   0.701   1.645  0.3549  0.3885 -0.0968
 4327TIP3   OH212986   0.422   4.165   4.710 -0.1672 -0.0852  0.0616
 4327TIP3    H112987   0.422   4.072   4.731 -2.3778 -0.3524 -0.9391
 4327TIP3    H212988   0.360   4.204   4.772 -0.6242  0.4135 -0.6970
 4328TIP3   OH212989   2.301   5.787   0.112  0.3266 -0.0720  0.4575
 4328TIP3    H112990   2.352   5.863   0.140  1.0398 -0.2698 -0.2631
 4328TIP3    H212991   2.265   5.813   0.027 -1.5453  0.4043  1.3649
 4329TIP3   OH212992   1.027   4.071   2.542  0.0778 -0.1695  0.0933
 4329TIP3    H112993   0.940   4.062   2.502  0.0757 -0.5663  0.1876
 4329TIP3    H212994   1.068   4.142   2.493  0.2009 -0.8721 -0.8499
 4330TIP3   OH212995   0.612   4.639   1.806 -0.0743 -0.5420 -0.1311
 4330TIP3    H112996   0.621   4.576   1.877 -0.4414 -1.8681 -1.2405
 4330TIP3    H212997   0.697   4.684   1.803 -0.2525 -0.0146  1.5216
 4331TIP3   OH212998   4.521   1.910   4.728 -0.0391  0.8420  0.1443
 4331TIP3    H112999   4.431   1.914   4.696  0.6107  0.4686 -1.8596
 4331TIP3    H213000   4.539   1.816   4.739 -0.1231  0.9423  1.3451
 4332TIP3   OH213001   5.922   2.915   3.654 -0.5605  0.1455 -0.5324
 4332TIP3    H113002   5.946   3.004   3.629 -4.8181  1.3684 -1.0125
 4332TIP3    H213003   5.915   2.918   3.749  0.9308 -0.2518 -0.3767
 4333TIP3   OH213004   3.445   4.012   2.671 -0.2312  0.7042 -0.9237
 4333TIP3    H113005   3.535   4.014   2.704 -0.7591  0.6833  0.6005
 4333TIP3    H213006   3.417   4.104   2.674 -0.4978  0.6161 -0.6829
 4334TIP3   OH213007   3.098   5.543   0.839 -0.5383  0.0387 -0.1284
 4334TIP3    H113008   3.037   5.531   0.913 -0.0805  0.2262  0.2878
 4334TIP3    H213009   3.106   5.638   0.831 -0.8571  0.0239 -0.6518
 4335TIP3   OH213010   0.549   1.190   2.438 -0.0910  0.7843  0.4743
 4335TIP3    H113011   0.511   1.226   2.518 -1.3867  1.6692 -0.5049
 4335TIP3    H213012   0.611   1.124   2.468 -2.8578 -1.2367  2.1561
 4336TIP3   OH213013   5.994   5.893   2.592 -0.2387  0.4057  0.0954
 4336TIP3    H113014   5.922   5.856   2.643 -0.2051 -0.9819 -0.8109
 4336TIP3    H213015   6.070   5.887   2.650 -0.4298 -0.0651  0.3044
 4337TIP3   OH213016   4.617   0.725   0.346  0.6063  0.5387 -0.1969
 4337TIP3    H113017   4.681   0.668   0.388  1.2369  0.7230 -0.8881
 4337TIP3    H213018   4.556   0.748   0.416  0.9372 -0.1432  0.3261
 4338TIP3   OH213019   1.503   3.000   2.229 -0.4309 -0.0078 -0.9667
 4338TIP3    H113020   1.439   3.064   2.199 -0.0046  0.6729 -0.4739
 4338TIP3    H213021   1.462   2.958   2.305  0.0506  1.0989 -0.0583
 4339TIP3   OH213022   2.796   5.763   3.993  0.4279  0.3521  0.3537
 4339TIP3    H113023   2.722   5.764   4.053 -0.7428  1.2139 -1.0417
 4339TIP3    H213024   2.812   5.855   3.972  0.8464  0.0793 -0.5996
 4340TIP3   OH213025   2.922   5.045   4.993  0.6308  0.1633 -0.3230
 4340TIP3    H113026   2.967   5.046   4.909  1.7141  0.0223  0.2361
 4340TIP3    H213027   2.858   4.975   4.986 -0.8711  1.6073 -1.8141
 4341TIP3   OH213028   3.499   5.353   3.751  0.5457  0.4651  0.3866
 4341TIP3    H113029   3.574   5.329   3.696  1.1297  3.1077 -0.0694
 4341TIP3    H213030   3.469   5.436   3.715 -0.3536  1.2558  2.8241
 4342TIP3   OH213031   4.239   4.279   3.177  0.3365  0.1644  0.1402
 4342TIP3    H113032   4.274   4.196   3.144  0.6655  0.0832  0.6882
 4342TIP3    H213033   4.144   4.272   3.161  0.3879 -0.2293 -0.0122
 4343TIP3   OH213034   3.025   4.292   2.669  0.4780  0.0765 -0.0303
 4343TIP3    H113035   3.005   4.376   2.627 -0.2406 -0.0700  0.0116
 4343TIP3    H213036   3.112   4.305   2.708  0.5571  0.6608 -0.3851
 4344TIP3   OH213037   2.778   5.825   3.353  0.9036 -0.0945 -0.2310
 4344TIP3    H113038   2.761   5.731   3.365 -0.0009  0.2223  1.1160
 4344TIP3    H213039   2.836   5.829   3.276 -1.8289 -1.5082 -2.5351
 4345TIP3   OH213040   6.019   3.060   1.063 -0.2295  0.2835 -0.4355
 4345TIP3    H113041   5.997   3.040   1.154  2.1204  0.2749  0.1779
 4345TIP3    H213042   5.973   2.993   1.012  2.9736 -3.5016  1.1607
 4346TIP3   OH213043   4.860   1.804   2.697 -0.5438 -0.3562 -0.0448
 4346TIP3    H113044   4.861   1.721   2.743 -0.3292 -1.1241 -1.3663
 4346TIP3    H213045   4.768   1.833   2.700 -0.4594 -0.1633  1.1922
 4347TIP3   OH213046   5.741   5.267   0.775  0.2626 -0.1914  0.7634
 4347TIP3    H113047   5.823   5.283   0.821  0.2093  3.0734 -0.0076
 4347TIP3    H213048   5.767   5.231   0.690  1.2264  2.7138 -0.3064
 4348TIP3   OH213049   0.934   2.681   2.305 -0.5410 -0.1579  0.2673
 4348TIP3    H113050   0.847   2.647   2.286  0.1740 -1.7054 -0.3926
 4348TIP3    H213051   0.992   2.605   2.304  1.1623  1.0427 -1.3976
 4349TIP3   OH213052   4.630   2.783   4.300  0.5982 -0.4244  0.4915
 4349TIP3    H113053   4.614   2.820   4.386 -3.3583  0.0929 -0.3140
 4349TIP3    H213054   4.601   2.850   4.238 -0.4532 -2.2512 -1.1263
 4350TIP3   OH213055   5.808   2.805   4.745 -0.2085 -0.3346  0.6994
 4350TIP3    H113056   5.829   2.751   4.669  0.2742 -1.1678  1.4095
 4350TIP3    H213057   5.878   2.870   4.750 -0.6036  0.1552  0.0498
 4351TIP3   OH213058   0.266   4.957   4.117 -0.5254  1.3269 -0.1459
 4351TIP3    H113059   0.345   4.962   4.064  0.7792 -2.9191  0.9939
 4351TIP3    H213060   0.195   4.946   4.054  0.0861  2.6293 -1.0980
 4352TIP3   OH213061   4.728   4.736   1.142  0.0531  0.0325  0.3816
 4352TIP3    H113062   4.770   4.815   1.177  0.0120 -0.6014  1.9871
 4352TIP3    H213063   4.784   4.664   1.174 -1.8945 -0.8082  2.1551
 4353TIP3   OH213064   2.350   3.303   3.326  0.1374 -0.0550 -0.3113
 4353TIP3    H113065   2.363   3.303   3.231 -0.9440  2.7217 -0.5585
 4353TIP3    H213066   2.268   3.257   3.339  1.2112 -2.1484 -0.4539
 4354TIP3   OH213067   3.071   3.500   1.222 -0.1572  0.5457 -0.2958
 4354TIP3    H113068   3.141   3.436   1.214 -0.7948 -0.7226  2.7340
 4354TIP3    H213069   3.114   3.582   1.247  0.4143  0.5144 -1.1502
 4355TIP3   OH213070   1.059   4.952   2.941 -0.0461  0.4735 -0.4397
 4355TIP3    H113071   1.096   5.016   3.002 -1.2893  0.6028  0.1942
 4355TIP3    H213072   1.131   4.889   2.927  0.0511 -0.0305  1.8072
 4356TIP3   OH213073   4.419   3.535   2.324 -0.1654 -0.0523 -0.2943
 4356TIP3    H113074   4.429   3.626   2.354 -1.3523 -0.3689  1.1726
 4356TIP3    H213075   4.415   3.541   2.229 -0.2241  1.4362 -0.2195
 4357TIP3   OH213076   1.020   1.412   3.030  0.3557 -0.4248 -0.1104
 4357TIP3    H113077   0.994   1.323   3.009  0.3538 -0.6465  0.7780
 4357TIP3    H213078   0.958   1.468   2.984 -0.9182 -0.9172  0.9712
 4358TIP3   OH213079   1.349   5.251   3.341 -0.0727 -0.1463  0.6316
 4358TIP3    H113080   1.340   5.176   3.400 -0.2529 -1.6373 -1.2038
 4358TIP3    H213081   1.278   5.310   3.366 -1.4620 -1.7221  0.5604
 4359TIP3   OH213082   0.460   4.411   1.424  0.2799  1.0403  0.4871
 4359TIP3    H113083   0.517   4.344   1.461 -0.7376  1.2974  2.6694
 4359TIP3    H213084   0.409   4.443   1.498 -1.3868  2.1224 -1.0450
 4360TIP3   OH213085   2.177   5.089   3.669 -0.3534 -0.1900  0.6702
 4360TIP3    H113086   2.246   5.070   3.606 -0.8417  2.0502 -0.6602
 4360TIP3    H213087   2.222   5.130   3.743 -0.2837  2.6433 -0.8181
 4361TIP3   OH213088   1.597   0.958   0.180  0.1202 -0.1306 -0.3528
 4361TIP3    H113089   1.521   0.918   0.138 -0.9446  0.8829  0.5203
 4361TIP3    H213090   1.583   0.944   0.274 -0.2891  2.1317 -0.0072
 4362TIP3   OH213091   2.822   5.798   1.414 -0.3489 -0.3473  0.1038
 4362TIP3    H113092   2.896   5.801   1.474  0.9982  1.6448 -1.5304
 4362TIP3    H213093   2.749   5.837   1.463  0.9442  2.0669  0.2651
 4363TIP3   OH213094   3.438   0.994   5.132  0.0605 -0.3314  0.1902
 4363TIP3    H113095   3.375   0.928   5.102  0.5338 -0.7737  0.1595
 4363TIP3    H213096   3.524   0.955   5.115  0.5441  1.9387 -3.7931
 4364TIP3   OH213097   3.579   4.768   4.236 -0.0100 -0.1340 -0.1212
 4364TIP3    H113098   3.590   4.676   4.212 -0.1819  0.1492 -1.3399
 4364TIP3    H213099   3.496   4.769   4.285 -0.0247 -0.6265 -0.1249
 4365TIP3   OH213100   1.315   2.609   2.175  0.2634 -0.1168 -0.5091
 4365TIP3    H113101   1.404   2.631   2.150  1.0113  0.2202  2.1006
 4365TIP3    H213102   1.267   2.691   2.171  0.9973  0.4626  1.3491
 4366TIP3   OH213103   1.054   2.143   0.945  0.2638 -0.4825 -0.0171
 4366TIP3    H113104   0.965   2.163   0.916 -0.1329 -0.5298  1.1007
 4366TIP3    H213105   1.096   2.229   0.954  0.5624 -0.4899 -1.1911
 4367TIP3   OH213106   3.615   1.936   2.648  0.5128 -0.3122 -0.2756
 4367TIP3    H113107   3.590   1.905   2.735 -0.0354 -0.5106 -0.4999
 4367TIP3    H213108   3.665   1.864   2.610  0.2586 -0.4542 -0.3426
 4368TIP3   OH213109   1.840   5.959   1.752  0.3413  0.1398  0.1964
 4368TIP3    H113110   1.754   5.920   1.739  0.0331  0.9693 -0.3256
 4368TIP3    H213111   1.841   5.985   1.843 -0.1266  0.5144  0.0969
 4369TIP3   OH213112   5.992   4.314   4.930 -0.1918 -0.3658  0.1040
 4369TIP3    H113113   5.916   4.363   4.961  0.2089  1.7121 -1.9053
 4369TIP3    H213114   5.969   4.289   4.841  0.2736 -2.5368  0.5447
 4370TIP3   OH213115   1.250   5.598   4.543 -0.7612 -0.2961 -0.3351
 4370TIP3    H113116   1.303   5.677   4.557 -0.8355  0.1826 -2.4894
 4370TIP3    H213117   1.200   5.589   4.625 -0.6264  1.7833  0.0518
 4371TIP3   OH213118   1.033   1.796   4.241  0.4146 -0.2518 -0.4573
 4371TIP3    H113119   0.976   1.737   4.291  1.9547 -1.4566 -0.0483
 4371TIP3    H213120   0.976   1.833   4.173 -0.5435 -2.5246 -0.9779
 4372TIP3   OH213121   0.717   1.170   4.622  0.4543  0.0990  0.6258
 4372TIP3    H113122   0.757   1.168   4.708 -0.2836  2.4488  1.1045
 4372TIP3    H213123   0.641   1.227   4.632 -0.6972 -1.0014 -1.1750
 4373TIP3   OH213124   3.908   1.427   0.462 -0.0718  0.6593  0.1696
 4373TIP3    H113125   3.826   1.420   0.511 -0.5023  0.5317 -0.5545
 4373TIP3    H213126   3.957   1.495   0.508 -0.4960  0.5869  0.7377
 4374TIP3   OH213127   6.050   1.489   5.139  0.4433  0.4548  0.1517
 4374TIP3    H113128   6.027   1.455   5.053 -1.0721  0.3533  0.5680
 4374TIP3    H213129   6.048   1.413   5.197 -0.6013  0.8369  0.6449
 4375TIP3   OH213130   2.672   5.483   4.041 -0.3099  0.0183  0.7922
 4375TIP3    H113131   2.716   5.560   4.005 -0.9657 -0.5009 -1.2179
 4375TIP3    H213132   2.639   5.513   4.126  1.5083  1.2165  1.1558
 4376TIP3   OH213133   1.160   3.198   1.906 -1.0220  0.1954  0.1889
 4376TIP3    H113134   1.141   3.186   1.813  0.1025 -1.6447  0.1424
 4376TIP3    H213135   1.090   3.255   1.937 -2.3701 -0.4637 -1.4421
 4377TIP3   OH213136   6.271   5.641   2.401 -0.2326  0.3660 -0.0109
 4377TIP3    H113137   6.256   5.622   2.308 -0.8992 -0.0276  0.1628
 4377TIP3    H213138   6.285   5.735   2.405 -1.8056  0.6509 -0.3451
 4378TIP3   OH213139   3.444   5.880   0.703 -0.3906 -0.1304  0.5435
 4378TIP3    H113140   3.465   5.900   0.794 -2.6710  0.0875  1.0789
 4378TIP3    H213141   3.392   5.954   0.673  1.0853  0.2473 -1.2871
 4379TIP3   OH213142   5.040   4.859   1.855 -0.4092 -0.2558 -0.2774
 4379TIP3    H113143   4.978   4.787   1.846  0.0845 -0.6825 -0.2443
 4379TIP3    H213144   5.081   4.845   1.940  1.9673 -1.7470 -1.5528
 4380TIP3   OH213145   1.243   0.521   1.611  0.1264  0.4410 -0.1666
 4380TIP3    H113146   1.203   0.443   1.572  2.7153 -0.8851 -0.3864
 4380TIP3    H213147   1.299   0.486   1.681  0.2897  2.2501  0.6578
 4381TIP3   OH213148   6.360   5.468   3.848 -0.7730  0.0564 -0.8941
 4381TIP3    H113149   6.292   5.526   3.883 -0.5535 -0.2679  0.0838
 4381TIP3    H213150   6.319   5.382   3.843 -0.7418  0.0596 -1.2649
 4382TIP3   OH213151   6.055   4.039   2.139  0.3076  0.2603  0.5375
 4382TIP3    H113152   6.072   4.084   2.056 -2.0719 -0.4556 -0.4238
 4382TIP3    H213153   6.141   4.034   2.181  1.2915  2.2918 -1.0091
 4383TIP3   OH213154   4.535   2.852   4.542 -0.1443  0.6820  0.0020
 4383TIP3    H113155   4.443   2.827   4.533  0.1679 -0.2353 -0.7483
 4383TIP3    H213156   4.534   2.923   4.606 -1.4399  1.0825 -0.4302
 4384TIP3   OH213157   3.359   2.512   2.820 -0.2146  0.0652 -0.6674
 4384TIP3    H113158   3.282   2.465   2.788  0.7476 -1.1194 -1.3118
 4384TIP3    H213159   3.395   2.555   2.742 -0.7750  1.5036 -0.1830
 4385TIP3   OH213160   1.711   2.124   4.472 -0.1015  0.0547  0.3796
 4385TIP3    H113161   1.748   2.045   4.511  0.6337 -0.4866 -1.3190
 4385TIP3    H213162   1.784   2.185   4.466  0.5170 -0.8086 -2.4449
 4386TIP3   OH213163   4.275   2.655   1.084  0.5740  0.3104 -0.6656
 4386TIP3    H113164   4.235   2.742   1.089  0.9854  0.5116 -0.8073
 4386TIP3    H213165   4.336   2.661   1.011  1.8932  0.4455  0.4046
 4387TIP3   OH213166   2.531   5.928   3.207  0.1043  0.2532  0.0340
 4387TIP3    H113167   2.510   5.857   3.146  1.3488  0.2818 -0.4778
 4387TIP3    H213168   2.608   5.896   3.255 -0.2965  0.6147  0.9374
 4388TIP3   OH213169   5.856   5.257   4.438 -0.6907 -0.7765 -0.1188
 4388TIP3    H113170   5.796   5.310   4.491  0.2712  0.7023 -0.4400
 4388TIP3    H213171   5.915   5.218   4.502  1.7511  2.5988  0.0031
 4389TIP3   OH213172   4.452   6.001   5.145  0.2940 -0.2870  0.8321
 4389TIP3    H113173   4.457   5.907   5.163  0.0143 -0.1132  1.8867
 4389TIP3    H213174   4.460   6.043   5.231  0.2631  0.6542  0.3962
 4390TIP3   OH213175   1.873   4.269   0.363 -0.5684 -0.3108  0.4207
 4390TIP3    H113176   1.889   4.176   0.380  0.4834 -0.1791  0.2468
 4390TIP3    H213177   1.778   4.279   0.371 -0.7147 -1.4239  0.3057
 4391TIP3   OH213178   3.276   1.670   1.253  0.1048 -0.1884  0.4663
 4391TIP3    H113179   3.276   1.648   1.346 -0.1176 -0.2312  0.4569
 4391TIP3    H213180   3.222   1.749   1.248  0.6397  0.1844  0.4586
 4392TIP3   OH213181   1.969   3.800   3.671  0.7151 -0.2434  0.4475
 4392TIP3    H113182   1.955   3.779   3.578  0.2758 -0.2162  0.5053
 4392TIP3    H213183   1.883   3.788   3.711  0.9614 -0.5234  0.9052
 4393TIP3   OH213184   3.913   5.831   2.200  0.1668  0.0792 -0.0309
 4393TIP3    H113185   4.004   5.855   2.185  0.4312  0.0636  1.3750
 4393TIP3    H213186   3.863   5.882   2.136  1.1769 -0.1824 -1.0534
 4394TIP3   OH213187   0.119   1.752   0.498 -0.1387 -0.0293  0.0712
 4394TIP3    H113188   0.097   1.763   0.590  1.0851 -0.8741  0.4860
 4394TIP3    H213189   0.070   1.675   0.470  1.2623 -1.1817  0.6699
 4395TIP3   OH213190   2.946   2.508   4.567  0.6207 -0.0452 -0.3241
 4395TIP3    H113191   2.988   2.443   4.624 -0.5380 -0.1073  0.4995
 4395TIP3    H213192   2.967   2.593   4.608  1.1476  0.0326 -0.7392
 4396TIP3   OH213193   5.425   4.728   1.592 -0.4539 -0.3351 -0.0461
 4396TIP3    H113194   5.389   4.686   1.514 -1.3825  1.4634 -0.6489
 4396TIP3    H213195   5.362   4.710   1.661  0.1009 -1.4768  0.1894
 4397TIP3   OH213196   2.029   4.609   0.430 -0.3055 -0.1801  0.2731
 4397TIP3    H113197   2.021   4.695   0.471 -1.0757  0.1870 -0.5856
 4397TIP3    H213198   2.033   4.547   0.502  2.6497  0.7033  0.9951
 4398TIP3   OH213199   4.947   0.738   3.295 -0.9799  0.0081  0.1285
 4398TIP3    H113200   4.926   0.723   3.387 -1.0468 -0.2967  0.0662
 4398TIP3    H213201   4.866   0.721   3.248 -1.3702  1.6684  0.1413
 4399TIP3   OH213202   1.005   3.773   4.338 -0.4272 -0.0862  0.4131
 4399TIP3    H113203   0.940   3.838   4.314  0.0076  0.0403 -0.4958
 4399TIP3    H213204   1.050   3.809   4.414 -2.5018 -0.9324  2.1337
 4400TIP3   OH213205   1.696   0.712   2.522 -0.4831 -0.2486 -0.0698
 4400TIP3    H113206   1.692   0.719   2.617  2.2380 -1.3582  0.2250
 4400TIP3    H213207   1.636   0.780   2.490 -1.2586  0.3330  2.4012
 4401TIP3   OH213208   5.477   0.298   3.692 -0.1692  0.0419 -0.7857
 4401TIP3    H113209   5.435   0.264   3.771  0.1165 -0.6540 -0.9286
 4401TIP3    H213210   5.506   0.386   3.717 -2.6040  0.9835 -1.0179
 4402TIP3   OH213211   5.571   0.552   3.466  0.1109 -0.3015  0.0536
 4402TIP3    H113212   5.629   0.477   3.456  0.6971  0.3658 -2.1310
 4402TIP3    H213213   5.506   0.543   3.396 -0.2434  0.8262  0.2059
 4403TIP3   OH213214   5.177   1.609   2.392 -0.9721  0.5218  0.0162
 4403TIP3    H113215   5.136   1.526   2.416  0.7575 -0.2331  0.5255
 4403TIP3    H213216   5.158   1.667   2.465  0.3061 -0.3508  1.0869
 4404TIP3   OH213217   5.958   1.911   2.610  0.0229  0.0171 -0.2492
 4404TIP3    H113218   5.907   1.983   2.648 -1.2666 -1.2414  0.5468
 4404TIP3    H213219   6.047   1.924   2.643 -0.2185  1.1569 -0.0087
 4405TIP3   OH213220   4.593   4.230   0.871  0.1787 -0.3360 -0.4452
 4405TIP3    H113221   4.627   4.319   0.861 -0.3378 -0.2409 -1.4819
 4405TIP3    H213222   4.516   4.227   0.815 -0.5876 -1.0480  0.5996
 4406TIP3   OH213223   3.542   3.269   3.153  0.5798  0.2560 -0.4151
 4406TIP3    H113224   3.587   3.186   3.163  0.6914  0.3474 -0.1509
 4406TIP3    H213225   3.475   3.252   3.087 -0.1559 -0.3554  0.4634
 4407TIP3   OH213226   5.833   4.910   4.976 -0.3739  0.1740 -0.0526
 4407TIP3    H113227   5.744   4.889   4.949 -0.2967  2.0784 -2.0892
 4407TIP3    H213228   5.824   4.945   5.064 -1.5898  0.0047 -0.0959
 4408TIP3   OH213229   3.178   0.696   0.132  0.3521  0.2187 -0.0542
 4408TIP3    H113230   3.208   0.781   0.166  0.7143  0.5898 -1.2386
 4408TIP3    H213231   3.188   0.636   0.206 -0.6271  1.3479  1.0432
 4409TIP3   OH213232   3.304   0.138   3.039  0.3304  0.1096 -0.3749
 4409TIP3    H113233   3.265   0.052   3.050  0.4838 -0.2099 -1.9952
 4409TIP3    H213234   3.333   0.140   2.947 -0.9604  2.3885 -0.8305
 4410TIP3   OH213235   3.891   5.312   2.365  0.1231 -0.0553  0.5297
 4410TIP3    H113236   3.887   5.398   2.324  0.6673 -0.2419  0.0744
 4410TIP3    H213237   3.807   5.271   2.344  1.2010 -0.9937 -2.3113
 4411TIP3   OH213238   1.982   5.258   3.598 -0.0080  0.3468  0.0395
 4411TIP3    H113239   2.045   5.207   3.649  0.5777 -0.5724 -1.5185
 4411TIP3    H213240   1.963   5.204   3.522 -0.6984  1.7279 -0.8228
 4412TIP3   OH213241   2.796   3.018   0.236  0.1975  0.5852  0.4190
 4412TIP3    H113242   2.770   2.943   0.184 -0.0342 -0.7976  2.4137
 4412TIP3    H213243   2.723   3.080   0.228  0.7200  0.9777 -1.8400
 4413TIP3   OH213244   2.126   2.286   4.258  0.7955  0.5679  0.0983
 4413TIP3    H113245   2.181   2.283   4.336 -0.0588  2.5898  0.8472
 4413TIP3    H213246   2.037   2.301   4.291  0.0269 -0.8936 -1.1727
 4414TIP3   OH213247   5.282   5.041   0.947  0.4810  0.6650  0.1650
 4414TIP3    H113248   5.374   5.034   0.971  0.2765 -0.1744  0.7631
 4414TIP3    H213249   5.281   5.037   0.851  1.0162  0.0152  0.1811
 4415TIP3   OH213250   6.189   2.291   0.223  0.3326 -0.2810  0.1806
 4415TIP3    H113251   6.228   2.291   0.311  0.2886  0.5501  0.2133
 4415TIP3    H213252   6.145   2.206   0.216 -0.3336 -0.0455  1.2749
 4416TIP3   OH213253   2.921   3.323   3.309 -0.0220  0.7705 -0.6364
 4416TIP3    H113254   2.832   3.322   3.345 -0.4527  0.3535 -1.6933
 4416TIP3    H213255   2.965   3.249   3.352  0.1919  1.6626  0.7563
 4417TIP3   OH213256   0.688   0.744   1.491  0.1284  0.0804  0.0605
 4417TIP3    H113257   0.663   0.804   1.420  0.0888 -0.2053 -0.1676
 4417TIP3    H213258   0.736   0.674   1.447 -1.0455 -0.7917  0.1246
 4418TIP3   OH213259   2.251   3.176   1.053  0.0924 -0.2992  0.4052
 4418TIP3    H113260   2.328   3.207   1.006  1.0848  0.3082  2.3109
 4418TIP3    H213261   2.275   3.089   1.083 -0.4622 -0.6106 -0.0350
 4419TIP3   OH213262   3.191   5.651   2.871  0.1440 -0.0788 -0.3923
 4419TIP3    H113263   3.161   5.560   2.869 -0.7119 -0.0777  3.7072
 4419TIP3    H213264   3.283   5.646   2.896  0.1092  0.1631 -0.2115
 4420TIP3   OH213265   3.469   5.731   4.962  0.2644 -0.3177 -0.1553
 4420TIP3    H113266   3.479   5.726   4.868 -0.8883  1.5811 -0.4509
 4420TIP3    H213267   3.539   5.677   4.998  0.5466 -1.2851 -2.0886
 4421TIP3   OH213268   0.080   0.897   4.448 -0.5047 -0.0639 -0.2293
 4421TIP3    H113269   0.074   0.984   4.407 -0.8153  0.4822  0.9120
 4421TIP3    H213270  -0.010   0.866   4.453 -0.4689 -0.1329  0.0117
 4422TIP3   OH213271   5.065   5.996   1.393  0.1705 -0.0418 -0.3608
 4422TIP3    H113272   5.020   5.958   1.469  0.1108 -0.3999 -0.5738
 4422TIP3    H213273   5.158   5.995   1.417  0.0255  1.4273  0.4092
 4423TIP3   OH213274   2.960   1.758   1.322 -0.0809  0.6191 -0.3112
 4423TIP3    H113275   2.900   1.773   1.395 -0.5035 -2.2533  0.0471
 4423TIP3    H213276   3.019   1.690   1.353 -1.4407 -2.1346 -3.1714
 4424TIP3   OH213277   3.929   1.825   2.278 -0.2540  0.3786  0.2211
 4424TIP3    H113278   3.986   1.748   2.278  0.8343  1.1281  2.1617
 4424TIP3    H213279   3.954   1.874   2.200 -3.5096 -2.8796 -3.3256
 4425TIP3   OH213280   1.561   0.067   1.192 -0.0320  0.5882  0.2002
 4425TIP3    H113281   1.583   0.126   1.263 -0.5693 -0.6417  1.4229
 4425TIP3    H213282   1.583   0.116   1.112 -2.1030  3.0980  1.0679
 4426TIP3   OH213283   4.465   2.999   0.442 -0.3121  0.3904  1.0089
 4426TIP3    H113284   4.380   3.041   0.453 -0.2342  0.5261  1.1005
 4426TIP3    H213285   4.502   3.039   0.363 -0.6802 -0.2600  0.4991
 4427TIP3   OH213286   0.730   2.285   1.397 -0.1589 -0.0189  0.1036
 4427TIP3    H113287   0.679   2.205   1.407 -0.9585  0.7475  2.9242
 4427TIP3    H213288   0.666   2.351   1.371  0.4270 -0.1457 -1.8051
 4428TIP3   OH213289   6.114   5.803   1.692  0.3478 -0.0621  0.1315
 4428TIP3    H113290   6.084   5.856   1.765  1.5339  0.5514  0.2036
 4428TIP3    H213291   6.121   5.715   1.727  0.6452  0.1778  0.6880
 4429TIP3   OH213292   5.045   4.480   2.551 -0.3424  0.3575 -0.0780
 4429TIP3    H113293   5.067   4.562   2.594  0.4949  0.0754  0.0635
 4429TIP3    H213294   5.015   4.423   2.623 -2.9262  1.1530 -0.4406
 4430TIP3   OH213295   3.936   5.391   0.217  0.1931  0.7661 -0.0133
 4430TIP3    H113296   3.989   5.330   0.268  1.6674  1.8902 -0.1159
 4430TIP3    H213297   3.985   5.473   0.221  0.3696  0.9231 -3.1645
 4431TIP3   OH213298   0.060   4.284   3.798 -0.0438  0.8942  0.1639
 4431TIP3    H113299   0.082   4.221   3.866 -1.3852 -1.2694 -1.2825
 4431TIP3    H213300   0.070   4.370   3.840  0.2892 -0.2995  2.6979
 4432TIP3   OH213301   2.770   3.471   1.429 -0.1416  0.1482  0.6281
 4432TIP3    H113302   2.703   3.449   1.364  0.2750 -0.3948  0.3751
 4432TIP3    H213303   2.721   3.478   1.511 -0.8679  2.1020  0.0761
 4433TIP3   OH213304   2.639   1.676   4.300  0.4060  0.1607  0.2055
 4433TIP3    H113305   2.564   1.628   4.264 -1.3227  0.0751  3.5075
 4433TIP3    H213306   2.712   1.615   4.292 -0.2396 -0.4433 -1.5309
 4434TIP3   OH213307   1.399   2.583   3.261 -0.5108  0.6316 -0.2987
 4434TIP3    H113308   1.440   2.533   3.191 -1.5600 -1.2005  0.3409
 4434TIP3    H213309   1.316   2.613   3.224 -0.1133  1.5382 -0.5083
 4435TIP3   OH213310   3.341   2.996   0.797 -0.1128 -0.3886  0.4996
 4435TIP3    H113311   3.381   3.052   0.865  0.9529 -0.2870 -0.1877
 4435TIP3    H213312   3.346   2.908   0.833 -0.1064 -0.2627  0.8105
 4436TIP3   OH213313   5.485   1.208   3.381 -0.0315 -0.2188  0.7398
 4436TIP3    H113314   5.463   1.119   3.355 -0.1427  0.7582 -3.3636
 4436TIP3    H213315   5.579   1.216   3.362  0.4248  0.0636  2.9157
 4437TIP3   OH213316   2.519   4.803   1.114 -0.5307 -0.2125  0.2701
 4437TIP3    H113317   2.456   4.854   1.062 -1.2367 -2.2330 -0.9643
 4437TIP3    H213318   2.568   4.752   1.050  1.6846  0.4940  1.2977
 4438TIP3   OH213319   3.325   0.200   4.368 -0.2697  0.2328 -0.3394
 4438TIP3    H113320   3.262   0.152   4.422 -1.0241 -0.1688 -1.5117
 4438TIP3    H213321   3.309   0.292   4.388 -1.1009  0.1247 -0.4561
 4439TIP3   OH213322   4.814   0.225   1.692 -0.6761 -0.0282 -0.2803
 4439TIP3    H113323   4.731   0.187   1.721 -1.1767  0.6384 -0.7802
 4439TIP3    H213324   4.878   0.156   1.705 -1.3357 -0.6075 -0.0072
 4440TIP3   OH213325   3.933   0.154   1.359 -0.8802 -0.0204  0.0826
 4440TIP3    H113326   3.998   0.134   1.426 -0.1971 -2.0666 -1.1117
 4440TIP3    H213327   3.975   0.221   1.304 -0.2678 -0.4179  0.0558
 4441TIP3   OH213328   0.910   1.965   2.197  0.3103  0.0075 -0.3599
 4441TIP3    H113329   0.857   1.897   2.154 -1.0796  0.5483  0.4316
 4441TIP3    H213330   0.976   1.989   2.132 -1.1817  0.1839 -1.8768
 4442TIP3   OH213331   1.920   3.431   3.756  0.8522 -1.0934 -0.0950
 4442TIP3    H113332   1.923   3.455   3.663  0.5950 -0.4818  0.0498
 4442TIP3    H213333   1.829   3.405   3.772  0.4679  0.4531  0.3758
 4443TIP3   OH213334   1.479   0.113   0.655  0.1642 -0.5637  0.4987
 4443TIP3    H113335   1.435   0.041   0.609 -0.2623  1.5528 -2.7284
 4443TIP3    H213336   1.410   0.151   0.710  0.0898 -1.8506  1.3435
 4444TIP3   OH213337   3.229   3.372   4.142 -0.6590  0.1188 -0.1495
 4444TIP3    H113338   3.152   3.419   4.111 -0.2326  0.6758 -0.3816
 4444TIP3    H213339   3.293   3.441   4.161 -0.4555 -0.2910  0.6956
 4445TIP3   OH213340   0.680   0.892   0.245 -0.1350  0.5366 -0.1739
 4445TIP3    H113341   0.748   0.893   0.313  0.4596 -4.0068 -0.4333
 4445TIP3    H213342   0.607   0.844   0.284 -1.0595  0.5960 -1.7296
 4446TIP3   OH213343   5.452   0.033   3.505 -0.5382 -0.8446 -0.2491
 4446TIP3    H113344   5.501   0.103   3.461  0.3971 -0.3708  1.4818
 4446TIP3    H213345   5.360   0.052   3.483 -0.1055 -1.2106 -2.7529
 4447TIP3   OH213346   5.868   5.288   1.083 -0.1689 -0.7027  0.3591
 4447TIP3    H113347   5.842   5.198   1.063  1.7114 -1.2265  0.1363
 4447TIP3    H213348   5.910   5.282   1.169 -0.8241  0.1445  0.7574
 4448TIP3   OH213349   4.136   3.876   0.174  0.1036  0.4002  0.7883
 4448TIP3    H113350   4.145   3.922   0.258  1.4636  1.6631 -0.0152
 4448TIP3    H213351   4.136   3.946   0.109  1.2640 -0.6828 -0.4068
 4449TIP3   OH213352   4.841   0.351   3.708 -0.6001  0.3804 -0.4560
 4449TIP3    H113353   4.769   0.324   3.651 -0.9761 -0.6835  0.4732
 4449TIP3    H213354   4.802   0.356   3.795  0.1024  1.3557 -0.1741
 4450TIP3   OH213355   0.291   3.011   1.782 -0.0919 -0.4077  0.0707
 4450TIP3    H113356   0.333   2.971   1.858 -1.4978  0.5078  1.3976
 4450TIP3    H213357   0.262   2.937   1.729  1.2346 -1.0581  0.2217
 4451TIP3   OH213358   1.509   5.524   0.970 -0.0406 -0.6650 -0.0184
 4451TIP3    H113359   1.512   5.580   0.892  2.1454 -0.4808  0.1341
 4451TIP3    H213360   1.600   5.518   0.998 -0.4119 -3.0068  0.9106
 4452TIP3   OH213361   3.741   1.351   4.077 -0.5838  0.2255  0.5530
 4452TIP3    H113362   3.812   1.402   4.115  0.3902 -0.8955  0.2832
 4452TIP3    H213363   3.679   1.416   4.045 -0.3249  1.2189  1.9670
 4453TIP3   OH213364   4.405   0.019   2.669  0.2492 -0.6966  0.2250
 4453TIP3    H113365   4.384   0.113   2.673  0.0641 -0.7914  2.1048
 4453TIP3    H213366   4.490   0.011   2.711 -0.7050 -1.6071  2.0866
 4454TIP3   OH213367   3.089   4.102   3.852 -0.2697  0.1251  0.1614
 4454TIP3    H113368   3.038   4.164   3.903  1.5579 -0.5516  2.9938
 4454TIP3    H213369   3.085   4.020   3.902 -0.3382 -1.3100 -2.0425
 4455TIP3   OH213370   4.965   4.270   3.767  0.0611  0.0731 -0.2947
 4455TIP3    H113371   4.937   4.348   3.719 -0.3309  0.4424  0.5116
 4455TIP3    H213372   4.915   4.198   3.727  0.8628  0.1245 -1.4350
 4456TIP3   OH213373   3.340   0.292   3.409  0.2362  0.3062  0.2958
 4456TIP3    H113374   3.365   0.378   3.444  1.0853  0.2666 -0.1862
 4456TIP3    H213375   3.256   0.272   3.451  0.2076  1.2085  0.6856
 4457TIP3   OH213376   6.291   5.030   3.138  0.4167 -0.3849 -0.0969
 4457TIP3    H113377   6.369   4.996   3.181  0.7252 -0.6875 -0.8912
 4457TIP3    H213378   6.286   5.122   3.165 -0.6480 -1.0896  2.3987
 4458TIP3   OH213379   5.255   1.977   3.581  0.3548 -0.0882  0.5670
 4458TIP3    H113380   5.295   1.977   3.494  0.9780  2.3131  0.7882
 4458TIP3    H213381   5.329   1.986   3.641 -0.2516  1.7538  1.1149
 4459TIP3   OH213382   0.870   1.167   4.855  0.6025 -0.0121 -0.1927
 4459TIP3    H113383   0.907   1.080   4.874 -0.3997 -0.3445  0.3424
 4459TIP3    H213384   0.798   1.176   4.917  2.3968  2.3931  1.7498
 4460TIP3   OH213385   4.933   3.069   1.524  0.2391  0.3529 -0.4928
 4460TIP3    H113386   4.967   2.989   1.565 -1.8937  0.3218  1.4403
 4460TIP3    H213387   4.859   3.039   1.471  0.2754  0.9151 -0.8696
 4461TIP3   OH213388   0.510   1.719   4.601  0.2134 -0.2735  0.1393
 4461TIP3    H113389   0.597   1.679   4.595 -0.1876 -1.0627 -0.6835
 4461TIP3    H213390   0.488   1.713   4.694  0.4367 -1.3949  0.1320
 4462TIP3   OH213391   3.018   1.971   3.062  0.4052  0.6380  0.2334
 4462TIP3    H113392   3.068   2.050   3.084  1.6193  0.0336 -0.2912
 4462TIP3    H213393   2.997   1.932   3.147  2.3930 -0.0464  0.4569
 4463TIP3   OH213394   2.007   2.277   2.343 -1.0932 -0.5807 -0.3484
 4463TIP3    H113395   1.947   2.336   2.297 -0.6040  1.5485  1.5461
 4463TIP3    H213396   2.080   2.334   2.368  0.6842 -2.6230 -0.6632
 4464TIP3   OH213397   6.138   3.524   1.021  0.1032 -1.2194 -0.1628
 4464TIP3    H113398   6.143   3.556   1.112  0.0407 -0.8560 -0.2838
 4464TIP3    H213399   6.045   3.527   1.000  0.1817 -0.7029 -0.4471
 4465TIP3   OH213400   1.856   4.328   4.590 -0.2158 -0.2124  0.1337
 4465TIP3    H113401   1.854   4.423   4.578 -0.5271 -0.2611 -0.2157
 4465TIP3    H213402   1.949   4.305   4.590 -0.1615 -0.0179 -0.6679
 4466TIP3   OH213403   3.817   2.245   0.280  0.2624 -0.0949  0.1508
 4466TIP3    H113404   3.804   2.314   0.346 -2.6465  0.6736 -1.0544
 4466TIP3    H213405   3.817   2.164   0.330 -1.9010  0.4618  1.1958
 4467TIP3   OH213406   5.595   3.429   2.464  0.2568  0.0320  0.0575
 4467TIP3    H113407   5.539   3.416   2.387  0.3766  0.1431 -0.0498
 4467TIP3    H213408   5.638   3.345   2.477  0.6487  0.1685 -0.3290
 4468TIP3   OH213409   5.636   3.604   4.640  0.8835 -0.7899  0.3668
 4468TIP3    H113410   5.607   3.518   4.609 -0.2380 -0.1189 -0.4948
 4468TIP3    H213411   5.654   3.654   4.561  0.5316  0.0997  0.8276
 4469TIP3   OH213412   5.577   1.217   4.108  0.0016  0.2065  0.3006
 4469TIP3    H113413   5.639   1.288   4.124  0.3966 -0.0796  0.0497
 4469TIP3    H213414   5.542   1.196   4.195 -1.0500  1.5315  0.2470
 4470TIP3   OH213415   5.743   4.569   4.177 -0.2332  0.2411  0.6644
 4470TIP3    H113416   5.767   4.661   4.192  0.6765  0.3353 -1.0742
 4470TIP3    H213417   5.707   4.540   4.260  0.1829  1.9542  1.4940
 4471TIP3   OH213418   5.876   0.750   3.500 -0.2599  0.2217  0.4729
 4471TIP3    H113419   5.783   0.772   3.491 -0.7225 -1.1665  1.5213
 4471TIP3    H213420   5.881   0.702   3.583  1.2737 -0.3741  0.0583
 4472TIP3   OH213421   1.072   3.158   0.598  0.0269 -0.4085  0.2652
 4472TIP3    H113422   1.067   3.245   0.558 -1.2337 -0.7255 -0.3186
 4472TIP3    H213423   1.049   3.173   0.689  0.1060 -0.0860  0.2347
 4473TIP3   OH213424   1.537   0.611   4.852 -0.4901  0.0452  0.1703
 4473TIP3    H113425   1.526   0.664   4.931  1.2449  1.4318 -0.4420
 4473TIP3    H213426   1.537   0.675   4.781 -0.8797 -1.0694 -0.8580
 4474TIP3   OH213427   5.791   0.296   3.190  0.0278 -0.6094  0.1536
 4474TIP3    H113428   5.864   0.347   3.225  0.1022 -0.1993 -0.5726
 4474TIP3    H213429   5.764   0.345   3.112 -1.5097 -0.3466  0.8224
 4475TIP3   OH213430   4.041   4.503   3.496 -0.5528  0.1892 -0.1979
 4475TIP3    H113431   4.114   4.445   3.520  0.3365  0.3550 -2.2857
 4475TIP3    H213432   3.994   4.517   3.578  0.3339 -1.9007  0.7422
 4476TIP3   OH213433   1.002   2.377   1.371 -0.1355 -0.3068 -0.5200
 4476TIP3    H113434   0.996   2.383   1.466 -1.1592  1.6410 -0.6549
 4476TIP3    H213435   0.915   2.348   1.343 -0.5394  1.2225 -0.9501
 4477TIP3   OH213436   1.298   0.765   2.599 -0.1580  0.3627 -0.3144
 4477TIP3    H113437   1.325   0.698   2.537 -1.5123 -0.1194 -0.4176
 4477TIP3    H213438   1.327   0.733   2.684  0.5825  0.4213 -0.5333
 4478TIP3   OH213439   6.078   0.727   4.714  0.2336 -0.3271 -0.0831
 4478TIP3    H113440   5.991   0.688   4.707 -0.0470  0.2498  0.1193
 4478TIP3    H213441   6.072   0.807   4.662  0.4149  0.0973  0.5424
 4479TIP3   OH213442   5.783   3.350   2.668 -0.0077  0.4290 -0.1554
 4479TIP3    H113443   5.814   3.281   2.609  0.6573  0.5596  0.0310
 4479TIP3    H213444   5.731   3.407   2.612 -0.9363 -0.4482 -0.2259
 4480TIP3   OH213445   6.102   2.599   0.624  0.4129 -0.1421  0.6210
 4480TIP3    H113446   6.042   2.535   0.585  0.7215 -0.1036  0.0609
 4480TIP3    H213447   6.142   2.643   0.548  1.5649 -0.5580  0.9660
 4481TIP3   OH213448   3.353   5.468   1.091 -0.1680  0.8339 -0.3019
 4481TIP3    H113449   3.403   5.409   1.148 -0.1869 -0.1380 -1.2616
 4481TIP3    H213450   3.419   5.525   1.052 -0.1071  1.2292  0.3755
 4482TIP3   OH213451   0.831   0.559   1.364  0.4281 -0.2314 -0.0679
 4482TIP3    H113452   0.846   0.480   1.415 -0.2521  0.5447  1.3953
 4482TIP3    H213453   0.909   0.612   1.379 -0.1532  0.3797  0.9664
 4483TIP3   OH213454   1.259   2.443   5.054  0.0864  0.1880 -0.3789
 4483TIP3    H113455   1.315   2.483   4.987 -0.3603  0.6060 -0.5122
 4483TIP3    H213456   1.239   2.356   5.019  2.6322 -0.9712  0.7898
 4484TIP3   OH213457   1.593   4.741   3.015  0.0860  0.1968  0.3238
 4484TIP3    H113458   1.622   4.818   2.966  0.6471  0.0455  0.4053
 4484TIP3    H213459   1.643   4.744   3.096 -0.6441  0.2990  0.7775
 4485TIP3   OH213460   2.787   0.085   0.438 -0.1202 -0.0809 -0.3874
 4485TIP3    H113461   2.873   0.124   0.452 -0.2873  0.2141 -0.1744
 4485TIP3    H213462   2.805  -0.008   0.422  0.1681 -0.1977  0.5835
 4486TIP3   OH213463   3.898   1.676   4.280  0.4515  0.4591 -0.1368
 4486TIP3    H113464   3.843   1.730   4.225  0.4389  0.6783  0.0889
 4486TIP3    H213465   3.844   1.656   4.356  1.1194  1.7783  0.7228
 4487TIP3   OH213466   6.262   1.172   1.834  0.6456  0.0589  0.2630
 4487TIP3    H113467   6.209   1.249   1.813  0.6928  0.1110  0.3350
 4487TIP3    H213468   6.228   1.142   1.918  2.7601  1.9338  1.9027
 4488TIP3   OH213469   2.398   3.877   1.251  0.6921  0.0584  0.0493
 4488TIP3    H113470   2.331   3.942   1.229  0.1575  0.3033  2.2143
 4488TIP3    H213471   2.351   3.810   1.300  1.8329 -0.3218  0.6625
 4489TIP3   OH213472   1.126   2.914   0.750 -0.2171  0.1858  0.9929
 4489TIP3    H113473   1.125   2.979   0.679 -1.5899  0.8044  1.5460
 4489TIP3    H213474   1.209   2.928   0.794  0.0487  0.7358  0.3400
 4490TIP3   OH213475   5.150   4.570   4.876  0.3684  0.0766 -0.6441
 4490TIP3    H113476   5.157   4.643   4.815 -0.2106  0.2959 -0.4634
 4490TIP3    H213477   5.056   4.549   4.878  0.2326  0.6629  0.8292
 4491TIP3   OH213478   4.667   4.634   4.245  0.2359 -0.1055  0.3387
 4491TIP3    H113479   4.735   4.698   4.263  0.4534 -0.2551  0.0524
 4491TIP3    H213480   4.586   4.686   4.239  0.2533  0.0221  1.0975
 4492TIP3   OH213481   6.272   3.156   4.257  0.3684 -0.2864 -0.5001
 4492TIP3    H113482   6.300   3.068   4.281  0.1242 -0.4721 -0.8794
 4492TIP3    H213483   6.183   3.163   4.292  0.9335  0.3780  0.8882
 4493TIP3   OH213484   0.986   0.717   1.719  0.3624 -0.4688 -0.3693
 4493TIP3    H113485   1.077   0.716   1.688  0.0848  0.2457 -1.2528
 4493TIP3    H213486   0.972   0.630   1.754  1.2510 -0.7365 -0.6445
 4494TIP3   OH213487   4.813   5.818   1.254  0.7912  0.0364  0.5411
 4494TIP3    H113488   4.738   5.767   1.222  0.1901 -0.3862  2.4777
 4494TIP3    H213489   4.889   5.770   1.223  0.2443 -0.4667 -0.0565
 4495TIP3   OH213490   2.911   3.241   1.247 -0.0216 -0.1043  0.3501
 4495TIP3    H113491   2.937   3.322   1.291  2.5117 -0.5588 -0.1451
 4495TIP3    H213492   2.852   3.269   1.178  0.0639  1.2212  0.7826
 4496TIP3   OH213493   1.135   1.412   1.432  0.1649  0.0239  0.0834
 4496TIP3    H113494   1.227   1.396   1.452  0.2330 -0.4135 -0.5457
 4496TIP3    H213495   1.136   1.452   1.346 -0.3097 -1.5023 -0.6734
 4497TIP3   OH213496   3.455   2.135   4.714 -0.5220  0.3155 -0.3166
 4497TIP3    H113497   3.390   2.184   4.663  0.5552  0.5202 -1.5496
 4497TIP3    H213498   3.437   2.044   4.693 -0.1254  0.3952 -1.0431
 4498TIP3   OH213499   3.564   3.061   2.339 -0.2803  0.0264 -0.1490
 4498TIP3    H113500   3.591   2.997   2.274 -2.1761 -1.5077  0.4776
 4498TIP3    H213501   3.581   3.146   2.298 -1.6350 -0.8600 -2.7972
 4499TIP3   OH213502   5.873   3.503   0.990  0.0497  0.0769  0.6643
 4499TIP3    H113503   5.812   3.577   0.990 -1.3663 -1.0212  0.5727
 4499TIP3    H213504   5.853   3.457   1.072 -0.3735 -1.1500 -0.0940
 4500TIP3   OH213505   6.284   0.118   2.745  0.5051 -0.3684 -0.6118
 4500TIP3    H113506   6.230   0.197   2.745  1.3987  0.2707  0.1879
 4500TIP3    H213507   6.266   0.078   2.830  0.9406 -0.3857 -0.5247
 4501TIP3   OH213508   3.443   3.060   0.221 -0.0885  0.6454  0.0371
 4501TIP3    H113509   3.415   3.147   0.194  1.1493  1.3726  1.0050
 4501TIP3    H213510   3.373   3.029   0.278  0.6071  2.0731  1.7351
 4502TIP3   OH213511   0.765   3.682   0.014 -0.1720  0.2597  0.3383
 4502TIP3    H113512   0.823   3.608  -0.006  0.0090 -0.1038  2.0495
 4502TIP3    H213513   0.823   3.756   0.029  0.0439 -0.4432  3.5137
 4503TIP3   OH213514   1.138   3.723   1.947 -0.0137  0.0294  0.3312
 4503TIP3    H113515   1.231   3.741   1.960 -0.1373  2.1506 -1.1896
 4503TIP3    H213516   1.136   3.650   1.885  0.7592  1.8262 -1.9646
 4504TIP3   OH213517   1.424   3.986   4.753 -0.0028  0.6071  0.3162
 4504TIP3    H113518   1.484   3.963   4.681 -2.6759 -0.0143 -1.9050
 4504TIP3    H213519   1.430   4.081   4.760 -0.2882  0.7855 -1.3680
 4505TIP3   OH213520   1.037   4.766   3.634 -0.3436 -0.5736  0.6006
 4505TIP3    H113521   0.958   4.739   3.680 -0.2496  0.6585  1.5445
 4505TIP3    H213522   1.054   4.855   3.665  1.8805 -1.0868  1.0681
 4506TIP3   OH213523   3.321   0.691   2.508  0.8239  0.2873  0.5535
 4506TIP3    H113524   3.357   0.605   2.529 -0.7934 -1.2854 -2.3344
 4506TIP3    H213525   3.393   0.738   2.466  1.2524 -0.3800  0.5317
 4507TIP3   OH213526   3.257   3.838   1.870  0.4928  0.0316 -0.2320
 4507TIP3    H113527   3.314   3.887   1.929 -0.7317  1.2544 -0.0412
 4507TIP3    H213528   3.202   3.904   1.828 -0.3280 -1.0553 -0.9350
 4508TIP3   OH213529   0.707   3.919   2.203  0.3767 -0.1962 -0.2923
 4508TIP3    H113530   0.749   3.843   2.243 -0.5904 -0.4448  0.2825
 4508TIP3    H213531   0.761   3.938   2.127  1.3846 -0.6541  0.2763
 4509TIP3   OH213532   4.325   0.122   3.340 -0.2358 -0.0066  0.0665
 4509TIP3    H113533   4.293   0.080   3.420  0.0629 -0.7147 -0.1777
 4509TIP3    H213534   4.265   0.093   3.272  0.5497 -0.8729 -0.2876
 4510TIP3   OH213535   4.611   5.809   0.634 -0.1830  0.1005 -0.6204
 4510TIP3    H113536   4.656   5.843   0.711 -1.9189 -0.8189  0.8660
 4510TIP3    H213537   4.660   5.844   0.560  1.7570  0.7172  0.8903
 4511TIP3   OH213538   4.456   1.692   4.217  0.8565  0.5607 -0.0134
 4511TIP3    H113539   4.480   1.777   4.180  1.8843  0.1906 -0.2388
 4511TIP3    H213540   4.401   1.650   4.151  1.1980  0.6360 -0.3445
 4512TIP3   OH213541   5.732   3.085   3.824  0.0678 -0.4652  0.1307
 4512TIP3    H113542   5.807   3.144   3.829  0.8323 -1.3621 -0.3290
 4512TIP3    H213543   5.752   3.016   3.887  0.3785 -1.4951 -1.0417
 4513TIP3   OH213544   3.155   0.555   3.625  0.3619 -0.2004 -0.2067
 4513TIP3    H113545   3.196   0.476   3.661 -1.0759 -0.7394  0.3479
 4513TIP3    H213546   3.160   0.543   3.530  0.2959 -0.8987 -0.1281
 4514TIP3   OH213547   3.851   0.319   1.965 -0.3877  0.2517  0.9757
 4514TIP3    H113548   3.873   0.229   1.986 -0.0741 -0.5703 -2.3008
 4514TIP3    H213549   3.755   0.320   1.962 -0.3849 -0.0699  0.7312
 4515TIP3   OH213550   1.060   3.770   0.945  0.1318 -0.1252 -0.1621
 4515TIP3    H113551   1.004   3.816   1.007  0.3021  0.1052 -0.1792
 4515TIP3    H213552   1.004   3.753   0.870  0.2670  0.6973 -0.4555
 4516TIP3   OH213553   3.518   0.922   4.049  0.1862  0.4420 -0.1109
 4516TIP3    H113554   3.591   0.957   4.101  0.7931  0.0493 -0.6900
 4516TIP3    H213555   3.558   0.856   3.993 -0.5418  0.5459 -0.7627
 4517TIP3   OH213556   2.551   3.246   0.383 -0.0464 -0.0646  0.0730
 4517TIP3    H113557   2.477   3.306   0.377 -1.1542 -1.4081 -0.2084
 4517TIP3    H213558   2.586   3.242   0.294 -0.8729 -0.9153 -0.2262
 4518TIP3   OH213559   4.438   0.915   1.240  0.1368 -0.4357 -1.1937
 4518TIP3    H113560   4.367   0.935   1.178  0.6240 -0.6191 -1.8132
 4518TIP3    H213561   4.401   0.939   1.325  0.4815  2.6987 -1.7874
 4519TIP3   OH213562   4.337   2.067   5.158  0.5140 -0.0350  0.2129
 4519TIP3    H113563   4.338   2.059   5.253  2.3895 -0.5807  0.1766
 4519TIP3    H213564   4.260   2.121   5.140  0.4873  0.6216  2.0772
 4520TIP3   OH213565   0.544   2.694   4.576  0.4461 -0.0629 -0.5756
 4520TIP3    H113566   0.487   2.617   4.569  0.8334 -0.7260  2.2770
 4520TIP3    H213567   0.484   2.769   4.564 -0.6675 -0.7750  0.2906
 4521TIP3   OH213568   5.461   2.826   0.712  0.6073 -0.4448 -0.0020
 4521TIP3    H113569   5.499   2.910   0.736 -0.7692 -0.2195  1.5726
 4521TIP3    H213570   5.506   2.801   0.631  0.9089  1.8720 -0.6012
 4522TIP3   OH213571   1.095   0.852   2.311  0.1285  0.4071 -0.0007
 4522TIP3    H113572   1.084   0.789   2.240  2.7721  1.2624 -1.3154
 4522TIP3    H213573   1.098   0.937   2.268  0.4807  1.0883  1.2990
 4523TIP3   OH213574   4.920   0.074   4.807  0.2319 -0.2686  0.2089
 4523TIP3    H113575   4.904  -0.001   4.749  0.2171 -0.0529 -0.0699
 4523TIP3    H213576   4.833   0.113   4.819  0.0112 -1.0804  1.4535
 4524TIP3   OH213577   5.322   0.904   3.511  0.4851 -0.4665 -0.4294
 4524TIP3    H113578   5.283   0.954   3.439  0.0549 -0.1062  0.0474
 4524TIP3    H213579   5.270   0.823   3.515  0.1149 -0.2206 -0.1401
 4525TIP3   OH213580   4.351   5.398   4.711 -0.1870 -0.3459 -0.0560
 4525TIP3    H113581   4.341   5.308   4.680  0.4921 -0.5559  0.3154
 4525TIP3    H213582   4.441   5.420   4.689  0.7125 -0.9081  2.7448
 4526TIP3   OH213583   5.503   2.614   3.570 -0.0317 -0.0261  0.4568
 4526TIP3    H113584   5.522   2.633   3.478 -0.3049  0.8726  0.5738
 4526TIP3    H213585   5.408   2.602   3.573  0.1109 -1.3122  0.4192
 4527TIP3   OH213586   5.273   0.736   3.827 -0.2330  0.3556 -0.5659
 4527TIP3    H113587   5.224   0.745   3.745  1.1594  0.5774 -1.4088
 4527TIP3    H213588   5.214   0.687   3.884 -0.9917 -0.3762 -1.9138
 4528TIP3   OH213589   2.958   3.020   2.136  0.2339 -0.4009  0.1347
 4528TIP3    H113590   2.996   2.944   2.093 -1.3356 -0.2730 -1.6311
 4528TIP3    H213591   2.882   2.986   2.183  0.1799 -0.0867  0.2798
 4529TIP3   OH213592   0.902   4.833   1.826 -0.4279  0.3655 -0.0038
 4529TIP3    H113593   0.986   4.789   1.831 -0.5446  0.2387  1.0255
 4529TIP3    H213594   0.871   4.838   1.917 -0.5284  2.3626 -0.0954
 4530TIP3   OH213595   0.637   2.040   0.962  0.0599  0.4626  0.3552
 4530TIP3    H113596   0.630   2.055   1.056 -0.4488  0.7385  0.2759
 4530TIP3    H213597   0.693   2.111   0.931  0.7296  0.0253  0.5327
 4531TIP3   OH213598   0.472   3.564   2.041 -0.5432  0.5220  0.2832
 4531TIP3    H113599   0.518   3.559   1.957 -0.9497 -1.5387  0.1419
 4531TIP3    H213600   0.523   3.508   2.100 -2.0930 -0.7594  0.4731
 4532TIP3   OH213601   0.792   5.041   0.183 -0.0383 -0.2022  0.4451
 4532TIP3    H113602   0.741   5.019   0.261 -1.1581 -1.7551 -0.6483
 4532TIP3    H213603   0.856   5.105   0.213 -0.6263 -0.5256  2.5587
 4533TIP3   OH213604   3.506   4.392   3.000  0.2172 -0.2097  0.4023
 4533TIP3    H113605   3.459   4.322   3.046 -1.3291  1.1260  0.9515
 4533TIP3    H213606   3.518   4.460   3.066  2.5980 -0.3133  0.1443
 4534TIP3   OH213607   1.119   5.075   4.993  0.0809  0.3275 -0.2219
 4534TIP3    H113608   1.116   5.162   4.955 -1.3997  0.4659  0.1766
 4534TIP3    H213609   1.103   5.016   4.919  2.4747  0.2663 -0.7665
 4535TIP3   OH213610   4.925   0.265   3.044 -0.2422  0.0159  0.1798
 4535TIP3    H113611   4.974   0.295   3.121 -0.2504  0.2172  0.1080
 4535TIP3    H213612   4.986   0.211   2.995 -0.4553 -0.7063  0.6945
 4536TIP3   OH213613   2.581   4.939   3.476 -0.1970 -1.0184  0.1004
 4536TIP3    H113614   2.621   4.863   3.433  2.9039  0.7815 -0.4278
 4536TIP3    H213615   2.582   4.918   3.569 -1.1377 -2.3405 -0.1543
 4537TIP3   OH213616   6.221   3.980   2.702  0.2516  0.2938 -0.2527
 4537TIP3    H113617   6.162   3.905   2.693  0.0702  0.3494  0.3840
 4537TIP3    H213618   6.295   3.946   2.754 -0.1530  0.7149  0.6259
 4538TIP3   OH213619   3.792   3.898   0.765  0.4139 -0.3617  0.0896
 4538TIP3    H113620   3.723   3.834   0.781 -0.1981 -0.2311 -1.7869
 4538TIP3    H213621   3.804   3.898   0.670 -0.1470  2.7843 -0.1004
 4539TIP3   OH213622   6.218   3.113   1.883 -0.3720  0.4940 -0.2502
 4539TIP3    H113623   6.268   3.036   1.857 -1.2002 -0.5047  0.9803
 4539TIP3    H213624   6.282   3.184   1.885  0.4717 -0.2177 -1.0723
 4540TIP3   OH213625   1.223   5.149   1.224 -0.5658  0.6394  0.5756
 4540TIP3    H113626   1.165   5.135   1.299 -0.9477 -2.2110 -0.1542
 4540TIP3    H213627   1.219   5.067   1.175  3.0342  0.7875 -0.2453
 4541TIP3   OH213628   5.651   0.228   1.674  0.0654 -0.2375  0.1672
 4541TIP3    H113629   5.711   0.221   1.600 -0.9031 -2.3472 -0.4901
 4541TIP3    H213630   5.614   0.140   1.684 -2.0311  0.6906  1.2843
 4542TIP3   OH213631   5.287   3.305   4.691  0.1710  0.2345  0.5019
 4542TIP3    H113632   5.221   3.358   4.735  0.8352  1.0945  0.4986
 4542TIP3    H213633   5.298   3.228   4.748  0.4679  0.9629  1.4588
 4543TIP3   OH213634   5.315   2.631   0.072 -0.0241  0.4034  0.8330
 4543TIP3    H113635   5.328   2.715   0.028 -1.1442  0.4717  0.5975
 4543TIP3    H213636   5.220   2.624   0.081  0.0531 -0.9042  0.7231
 4544TIP3   OH213637   5.471   0.037   2.822 -0.1072  0.4078 -0.6248
 4544TIP3    H113638   5.566   0.028   2.834 -0.2271  0.1326  0.2489
 4544TIP3    H213639   5.458   0.035   2.727  0.8172  1.1295 -0.7799
 4545TIP3   OH213640   2.916   4.592   1.842 -0.1492 -0.0057 -0.0141
 4545TIP3    H113641   2.974   4.600   1.766 -0.1119  2.6278  0.2148
 4545TIP3    H213642   2.831   4.570   1.804 -0.2803  1.8875 -0.9566
 4546TIP3   OH213643   1.662   3.665   1.799 -0.0987  0.4354 -0.1549
 4546TIP3    H113644   1.741   3.714   1.822 -0.0542 -0.3116  1.4221
 4546TIP3    H213645   1.668   3.653   1.704  0.5669  2.2530 -0.3764
 4547TIP3   OH213646   1.365   2.560   1.305 -0.4569 -0.0741  0.1418
 4547TIP3    H113647   1.379   2.591   1.394  1.6577 -2.4920  0.7808
 4547TIP3    H213648   1.327   2.473   1.316 -2.4228  0.5077 -1.4405
 4548TIP3   OH213649   2.021   0.561   3.946  0.4680  0.0277 -0.7293
 4548TIP3    H113650   2.012   0.551   3.852 -0.8576 -0.5356 -0.5659
 4548TIP3    H213651   1.962   0.495   3.983  1.7078 -0.4273  0.5088
 4549TIP3   OH213652   2.713   4.223   3.365 -0.0638  0.4465  0.4127
 4549TIP3    H113653   2.780   4.246   3.429 -0.8348  2.6848  0.4897
 4549TIP3    H213654   2.756   4.162   3.305  1.8004  1.2192  0.9177
 4550TIP3   OH213655   5.237   1.798   4.950 -0.3487 -0.1776  0.3580
 4550TIP3    H113656   5.199   1.886   4.951 -0.3746 -0.1746 -0.2693
 4550TIP3    H213657   5.180   1.748   4.891  0.4331 -0.2516 -0.3624
 4551TIP3   OH213658   2.907   0.170   2.766 -0.2980 -0.0005  0.5655
 4551TIP3    H113659   2.948   0.084   2.756 -0.9816 -0.1799 -0.8569
 4551TIP3    H213660   2.912   0.187   2.860  1.8024 -0.6135  0.6332
 4552TIP3   OH213661   3.667   2.527   3.949 -0.2819  0.2237  0.0996
 4552TIP3    H113662   3.592   2.555   3.897  0.5651  1.0536 -0.7142
 4552TIP3    H213663   3.698   2.447   3.907 -0.2300  0.3215 -0.0495
 4553TIP3   OH213664   0.524   5.200   4.863 -0.0576 -0.2328  0.0153
 4553TIP3    H113665   0.457   5.264   4.885 -0.4008 -0.6972  0.3473
 4553TIP3    H213666   0.562   5.175   4.947 -0.0887 -0.6353 -0.0861
 4554TIP3   OH213667   0.104   2.252   2.866  0.7124 -0.2850  0.0188
 4554TIP3    H113668   0.027   2.304   2.889 -0.5200 -2.1846  0.3715
 4554TIP3    H213669   0.178   2.306   2.896 -0.5357  0.6399  1.6710
 4555TIP3   OH213670   6.047   0.198   0.302 -0.0643 -0.0940 -0.1753
 4555TIP3    H113671   6.041   0.131   0.369  0.2679 -0.3956 -0.4455
 4555TIP3    H213672   6.140   0.199   0.276 -0.2901 -0.3815 -1.0310
 4556TIP3   OH213673   0.859   3.230   3.136 -0.5075  0.3768 -0.2232
 4556TIP3    H113674   0.772   3.250   3.102 -0.5459 -2.5040 -2.1497
 4556TIP3    H213675   0.917   3.286   3.086 -0.9482 -0.8953 -2.2743
 4557TIP3   OH213676   1.072   0.065   0.532 -0.1740 -0.1560  0.5155
 4557TIP3    H113677   1.143   0.047   0.594  0.1991  0.2017  0.1973
 4557TIP3    H213678   0.992   0.054   0.584  0.1368  0.3936  1.1334
 4558TIP3   OH213679   2.817   0.232   3.512  0.6185 -0.0044 -0.1069
 4558TIP3    H113680   2.790   0.313   3.468 -0.8376 -0.1275  0.5138
 4558TIP3    H213681   2.845   0.260   3.599 -1.3199 -0.2823  0.6567
 4559TIP3   OH213682   6.121   4.330   4.018  0.3899 -0.4739  0.0695
 4559TIP3    H113683   6.154   4.372   3.939  0.5045  1.3680  1.0451
 4559TIP3    H213684   6.028   4.317   4.002  0.4436 -0.2826 -0.4145
 4560TIP3   OH213685   4.933   4.411   3.513  0.1512 -0.2906 -0.0660
 4560TIP3    H113686   4.888   4.490   3.543 -0.6647 -0.8771  0.2820
 4560TIP3    H213687   4.999   4.444   3.452 -1.6038  0.5246 -1.6525
 4561TIP3   OH213688   0.125   1.646   1.939  0.2647 -0.3519 -0.1584
 4561TIP3    H113689   0.137   1.731   1.983  1.4728 -1.2973  1.4377
 4561TIP3    H213690   0.191   1.589   1.979  0.5587 -1.6339 -2.3540
 4562TIP3   OH213691   5.683   0.007   0.000 -0.4551  0.1700 -0.3257
 4562TIP3    H113692   5.662  -0.031   0.086 -0.6499 -1.9931 -1.2672
 4562TIP3    H213693   5.763   0.058   0.016 -1.6761  1.6473  1.5569
 4563TIP3   OH213694   0.910   2.117   1.499  0.4314  0.0807  0.3448
 4563TIP3    H113695   0.863   2.185   1.450  0.0620 -0.1071  0.4366
 4563TIP3    H213696   0.857   2.038   1.487  1.7528 -0.6422 -1.2265
 4564TIP3   OH213697   3.566   3.373   1.992  0.7269  0.4415 -0.0350
 4564TIP3    H113698   3.618   3.317   1.934  2.6809  0.2142  1.7922
 4564TIP3    H213699   3.478   3.336   1.988  1.1598 -0.5369 -1.6023
 4565TIP3   OH213700   2.076   4.915   0.499 -0.1869  0.2520  0.2812
 4565TIP3    H113701   2.115   4.996   0.468 -1.3400  0.5917 -0.3465
 4565TIP3    H213702   1.994   4.942   0.541 -0.1969 -0.5124  0.7805
 4566TIP3   OH213703   1.367   0.999   3.371  0.2428 -0.2436  0.5217
 4566TIP3    H113704   1.275   0.984   3.391  0.3227 -0.2376  0.8990
 4566TIP3    H213705   1.400   0.913   3.343  0.1141 -0.2349  0.3367
 4567TIP3   OH213706   4.705   5.390   2.848 -0.2128 -0.0284  0.4207
 4567TIP3    H113707   4.771   5.433   2.903  1.2096 -0.6153 -0.7719
 4567TIP3    H213708   4.622   5.429   2.876  0.4289 -0.3039  2.9800
 4568TIP3   OH213709   4.834   3.297   1.357  0.1538  0.3636  0.5758
 4568TIP3    H113710   4.815   3.226   1.417  1.4462 -2.0043 -1.6196
 4568TIP3    H213711   4.912   3.269   1.310  1.6573  3.9487  0.5899
 4569TIP3   OH213712   3.392   4.681   3.753 -0.0092  0.5247  0.1866
 4569TIP3    H113713   3.404   4.768   3.791 -2.6976  0.4351  1.4312
 4569TIP3    H213714   3.449   4.624   3.804  1.9243  1.4976 -0.7647
 4570TIP3   OH213715   0.822   0.218   3.291  0.0763  0.6053  0.1332
 4570TIP3    H113716   0.820   0.146   3.228 -1.2312  0.4024  0.3673
 4570TIP3    H213717   0.868   0.289   3.247  1.4394 -0.3816 -0.0847
 4571TIP3   OH213718   1.583   3.693   4.046  0.0358 -0.3847 -0.1452
 4571TIP3    H113719   1.646   3.753   4.007  0.1722 -0.4400 -0.0075
 4571TIP3    H213720   1.540   3.652   3.971  0.9307 -1.1628 -0.2512
 4572TIP3   OH213721   3.434   0.902   2.311 -0.2135 -0.0798 -0.4817
 4572TIP3    H113722   3.443   0.824   2.256 -0.4323  0.7642 -1.7623
 4572TIP3    H213723   3.524   0.929   2.329  0.0455  1.8682 -3.7950
 4573TIP3   OH213724   1.377   5.595   4.140 -0.2318  0.7993 -0.0892
 4573TIP3    H113725   1.441   5.569   4.206 -1.9531  1.0656  1.8070
 4573TIP3    H213726   1.392   5.535   4.067 -0.7597 -2.2596  2.0981
 4574TIP3   OH213727   0.616   4.043   4.480 -0.0869  0.3709 -0.4652
 4574TIP3    H113728   0.604   4.053   4.574 -0.1292  0.0354 -0.4328
 4574TIP3    H213729   0.603   4.131   4.444  0.0702  0.5265 -0.1436
 4575TIP3   OH213730   5.406   2.122   2.240 -0.0696  0.1200  0.2768
 4575TIP3    H113731   5.418   2.137   2.146  0.6141 -0.0688  0.3221
 4575TIP3    H213732   5.462   2.046   2.258 -0.1894  0.1647  0.8379
 4576TIP3   OH213733   1.164   1.431   2.207 -0.0395  0.4829 -0.0213
 4576TIP3    H113734   1.224   1.373   2.253  0.7791  0.4085 -1.1717
 4576TIP3    H213735   1.151   1.504   2.268  0.3568 -0.0080  0.6721
 4577TIP3   OH213736   0.262   3.884   2.055  0.0134 -0.2860 -0.1178
 4577TIP3    H113737   0.182   3.932   2.077 -0.7547 -1.2429 -0.7019
 4577TIP3    H213738   0.331   3.926   2.106 -1.0922 -0.2729  1.4242
 4578TIP3   OH213739   0.228   1.289   5.050  0.3773 -0.8580 -0.3335
 4578TIP3    H113740   0.316   1.295   5.012 -0.9151  0.1189 -3.4684
 4578TIP3    H213741   0.238   1.322   5.139  2.8382  1.1299 -1.2394
 4579TIP3   OH213742   0.296   5.552   0.023 -0.1049  0.3647  0.2034
 4579TIP3    H113743   0.326   5.478  -0.029  2.4215  1.6091 -0.3032
 4579TIP3    H213744   0.328   5.533   0.112 -1.7248 -0.3180  0.6704
 4580TIP3   OH213745   2.586   2.850   0.103  0.5579  0.2272  0.0675
 4580TIP3    H113746   2.532   2.911   0.152  0.7228  2.0725 -1.8984
 4580TIP3    H213747   2.534   2.770   0.096  0.3585  0.0523  2.7400
 4581TIP3   OH213748   5.655   3.941   4.237  0.3126  0.8132 -0.4215
 4581TIP3    H113749   5.680   4.013   4.180 -0.9560  0.7369 -1.1022
 4581TIP3    H213750   5.570   3.912   4.204  0.1627 -0.0973  0.6941
 4582TIP3   OH213751   5.097   5.072   4.457 -0.4172  0.4296  0.6721
 4582TIP3    H113752   5.046   5.076   4.538 -1.0241 -0.2420  0.3305
 4582TIP3    H213753   5.033   5.086   4.387  0.2141  1.8090  0.3128
 4583TIP3   OH213754   0.974   1.133   2.576  0.4373 -0.8685  0.7024
 4583TIP3    H113755   0.928   1.153   2.494 -0.0995  0.3434  1.2741
 4583TIP3    H213756   1.066   1.155   2.557  0.0352  1.2821  0.9629
 4584TIP3   OH213757   3.013   5.302   5.058  0.1526  0.1304  0.0181
 4584TIP3    H113758   2.929   5.342   5.081  1.3350  2.1435  1.0940
 4584TIP3    H213759   2.998   5.208   5.067 -2.3808  0.3176 -1.2919
 4585TIP3   OH213760   4.851   1.605   2.858  0.0691  0.1683  0.0784
 4585TIP3    H113761   4.899   1.539   2.910 -1.3199 -2.6570 -1.9669
 4585TIP3    H213762   4.775   1.627   2.912 -0.7870 -1.9169 -0.1730
 4586TIP3   OH213763   0.487   0.228   0.902 -0.4926 -0.1318 -0.6738
 4586TIP3    H113764   0.393   0.248   0.900 -0.3919  0.3619 -0.7245
 4586TIP3    H213765   0.510   0.233   0.995 -0.5711 -0.5108 -0.6355
 4587TIP3   OH213766   5.763   2.332   3.233 -0.7526  0.2150 -0.0629
 4587TIP3    H113767   5.850   2.353   3.268 -0.2003  0.5458 -1.5794
 4587TIP3    H213768   5.712   2.307   3.310  1.2518 -2.0934  0.6360
 4588TIP3   OH213769   3.666   4.058   1.162 -0.3366  0.2179 -0.1755
 4588TIP3    H113770   3.760   4.075   1.171  0.1950 -2.8594  2.1904
 4588TIP3    H213771   3.637   4.044   1.252 -2.6407 -0.7082 -1.0028
 4589TIP3   OH213772   3.193   0.319   2.838  0.8466 -0.1632  0.0090
 4589TIP3    H113773   3.136   0.265   2.892 -0.1861 -0.2561 -1.1424
 4589TIP3    H213774   3.229   0.258   2.773 -0.0141  0.4190 -1.0545
 4590TIP3   OH213775   1.292   5.022   3.486 -0.6582 -0.0565  0.1327
 4590TIP3    H113776   1.227   5.062   3.545 -0.9479  0.0030 -0.2243
 4590TIP3    H213777   1.244   4.955   3.438 -0.7070  0.6540 -0.8460
 4591TIP3   OH213778   0.490   5.389   5.162 -0.3613  0.7227  0.4310
 4591TIP3    H113779   0.466   5.324   5.227  0.5174  1.2017  1.2575
 4591TIP3    H213780   0.455   5.355   5.080  0.0824 -0.7815  0.8358
 4592TIP3   OH213781   5.065   2.256   1.338  0.0569  0.1325  0.0968
 4592TIP3    H113782   5.110   2.339   1.322  0.4616 -0.4761 -2.3547
 4592TIP3    H213783   5.129   2.189   1.316 -0.1003 -0.9051  2.5019
 4593TIP3   OH213784   1.475   5.543   1.905  0.0903 -0.2102  0.1500
 4593TIP3    H113785   1.553   5.597   1.918 -0.4606  1.0173 -1.3245
 4593TIP3    H213786   1.499   5.457   1.938  1.7716  0.3652  0.5010
 4594TIP3   OH213787   2.285   1.620   4.883 -0.1181  0.2318  0.5029
 4594TIP3    H113788   2.369   1.625   4.838 -0.8640  3.7414 -0.7618
 4594TIP3    H213789   2.307   1.593   4.973  1.9305 -1.8695 -0.5228
 4595TIP3   OH213790   2.300   2.908   2.284 -0.3040 -0.6034 -0.7079
 4595TIP3    H113791   2.391   2.885   2.263 -0.7002 -1.6802 -1.2713
 4595TIP3    H213792   2.281   2.984   2.229  0.0671 -0.7189 -0.9988
 4596TIP3   OH213793   4.341   5.317   0.815 -0.2503  0.3233 -0.0903
 4596TIP3    H113794   4.297   5.233   0.829 -0.6638  0.7894  1.6711
 4596TIP3    H213795   4.389   5.333   0.897  0.6852  1.3091 -0.7999
 4597TIP3   OH213796   6.062   0.872   0.993  0.3081  0.8308 -0.4795
 4597TIP3    H113797   6.062   0.777   1.003 -0.9097  0.9126  0.4731
 4597TIP3    H213798   5.998   0.890   0.925  0.0137  1.0095 -0.1582
 4598TIP3   OH213799   3.043   0.416   2.204 -0.8685  0.5228  0.2396
 4598TIP3    H113800   3.115   0.479   2.210  0.2063 -0.7119  0.4562
 4598TIP3    H213801   2.996   0.427   2.287 -1.0212  1.4137  0.0505
 4599TIP3   OH213802   1.741   4.392   0.802 -0.4400 -0.2111  0.3108
 4599TIP3    H113803   1.658   4.439   0.810  0.6915  1.8478  0.8590
 4599TIP3    H213804   1.730   4.314   0.855 -1.3183  1.1322  2.2330
 4600TIP3   OH213805   4.540   4.160   2.225  0.1818  0.1020 -0.1847
 4600TIP3    H113806   4.627   4.137   2.258 -1.0725 -2.0811  1.9277
 4600TIP3    H213807   4.514   4.085   2.171 -0.0519  1.1743 -1.6330
 4601TIP3   OH213808   1.748   4.502   1.535  0.0063  0.2471 -0.0324
 4601TIP3    H113809   1.751   4.594   1.508  1.6969  0.3022  0.2557
 4601TIP3    H213810   1.808   4.457   1.475  0.0893 -0.4617  0.5626
 4602TIP3   OH213811   2.369   5.353   4.271 -0.8822 -0.1785  0.2060
 4602TIP3    H113812   2.378   5.258   4.264  1.2333 -0.2058  1.9456
 4602TIP3    H213813   2.301   5.366   4.337 -0.3064 -0.5376  0.8850
 4603TIP3   OH213814   2.546   3.671   3.306 -0.3588 -0.0851 -0.3739
 4603TIP3    H113815   2.584   3.749   3.264  0.6278 -0.0200  0.6009
 4603TIP3    H213816   2.471   3.705   3.355  0.6034  0.4346  0.7912
 4604TIP3   OH213817   6.034   2.172   2.366  0.4350 -0.2116  0.3595
 4604TIP3    H113818   6.072   2.255   2.394  0.4053 -0.0688 -0.0221
 4604TIP3    H213819   6.108   2.111   2.362  0.5180 -0.1056  0.2698
 4605TIP3   OH213820   0.243   4.409   0.373  0.3317 -0.0937 -0.4781
 4605TIP3    H113821   0.174   4.419   0.438  2.0074  0.0810  1.3458
 4605TIP3    H213822   0.199   4.365   0.299 -1.4182 -1.2082  1.1132
 4606TIP3   OH213823   1.867   2.677   2.200  0.6526 -0.3316 -0.7158
 4606TIP3    H113824   1.857   2.673   2.295  0.8863  0.3051 -0.6588
 4606TIP3    H213825   1.955   2.712   2.186  0.0351  1.1113 -1.1414
 4607TIP3   OH213826   0.355   1.081   3.083 -0.3315 -0.1647 -0.2690
 4607TIP3    H113827   0.438   1.103   3.125 -0.2798  1.9173 -1.3428
 4607TIP3    H213828   0.378   1.021   3.013  0.0241 -0.8606  0.4229
 4608TIP3   OH213829   1.714   4.578   0.260 -0.0945  0.4589 -0.8624
 4608TIP3    H113830   1.702   4.498   0.312  3.0161  0.3290 -0.1330
 4608TIP3    H213831   1.756   4.547   0.180  0.7565  1.2928 -0.7514
 4609TIP3   OH213832   1.611   0.601   3.720  0.1382  0.1057  0.6275
 4609TIP3    H113833   1.537   0.544   3.697  0.6462 -0.1670 -0.4272
 4609TIP3    H213834   1.648   0.561   3.799  1.4995 -2.1025 -0.9900
 4610TIP3   OH213835   0.675   2.850   2.331 -0.1759  0.0699 -0.4569
 4610TIP3    H113836   0.650   2.942   2.337 -0.1112  0.1288 -1.0712
 4610TIP3    H213837   0.770   2.850   2.345 -0.2502  0.0387  0.0607
 4611TIP3   OH213838   4.169   0.378   3.808 -0.6563 -0.1349  0.0910
 4611TIP3    H113839   4.082   0.413   3.828 -1.1486 -0.8917 -0.6560
 4611TIP3    H213840   4.176   0.383   3.713  0.0777 -0.1811  0.1372
 4612TIP3   OH213841   0.441   2.532   0.045 -0.1899 -0.5170  0.1070
 4612TIP3    H113842   0.387   2.499  -0.026 -1.4969 -0.6786  1.1474
 4612TIP3    H213843   0.430   2.627   0.041 -1.9577 -0.6313  1.3573
 4613TIP3   OH213844   0.198   1.683   3.601  0.5716  0.3895 -0.2962
 4613TIP3    H113845   0.149   1.654   3.525 -0.7289  0.2751  0.5588
 4613TIP3    H213846   0.136   1.735   3.652  2.0408  2.3744 -0.3972
 4614TIP3   OH213847   2.242   2.562   4.090  0.9663  0.0095 -0.3775
 4614TIP3    H113848   2.201   2.572   4.005 -0.2705 -1.3508  0.0134
 4614TIP3    H213849   2.209   2.478   4.123  3.7656 -1.0099  0.1423
 4615TIP3   OH213850   2.943   3.679   4.533  0.1239 -0.1697 -0.3538
 4615TIP3    H113851   2.948   3.655   4.440 -2.9091  0.5461 -0.8229
 4615TIP3    H213852   2.889   3.610   4.573  1.7740 -0.7142  1.0204
 4616TIP3   OH213853   1.239   4.075   2.834  0.3434 -0.1859  0.1910
 4616TIP3    H113854   1.230   4.142   2.901  0.9377 -0.3288  0.4190
 4616TIP3    H213855   1.285   4.118   2.762  0.0678 -0.1444  0.0404
 4617TIP3   OH213856   0.635   2.112   3.898  0.2809 -0.5334  0.4377
 4617TIP3    H113857   0.550   2.069   3.912 -0.6082  0.3286 -1.8512
 4617TIP3    H213858   0.622   2.200   3.933 -0.5744  0.2989 -1.7820
 4618TIP3   OH213859   2.902   0.309   2.507  0.4249 -0.3992 -0.6269
 4618TIP3    H113860   2.918   0.287   2.598  0.6024 -1.8521 -0.9773
 4618TIP3    H213861   2.903   0.224   2.462 -1.1461  0.1331 -1.7476
 4619TIP3   OH213862   2.050   4.933   4.363  0.0382  0.3716  0.3901
 4619TIP3    H113863   1.963   4.972   4.373 -0.6918 -1.1754  0.3869
 4619TIP3    H213864   2.036   4.860   4.303  1.7320  1.2474 -1.1475
 4620TIP3   OH213865   3.460   5.304   1.279  0.0674 -0.3160  0.2030
 4620TIP3    H113866   3.522   5.331   1.347  1.4205  0.0709 -1.1337
 4620TIP3    H213867   3.510   5.243   1.224 -0.0203  1.5243 -2.0686
 4621TIP3   OH213868   5.474   4.279   4.240  0.0611 -0.1786 -0.7256
 4621TIP3    H113869   5.543   4.233   4.192 -1.2147 -1.2420 -1.6208
 4621TIP3    H213870   5.501   4.274   4.331  1.8285  0.6231 -1.1600
 4622TIP3   OH213871   4.018   2.340   4.501  0.3545 -0.1161 -0.4177
 4622TIP3    H113872   3.989   2.283   4.429 -1.4749 -0.1143  0.2640
 4622TIP3    H213873   4.098   2.298   4.534  0.4140 -0.9117 -1.5112
 4623TIP3   OH213874   1.484   2.752   4.862 -0.0196  0.0151  0.0815
 4623TIP3    H113875   1.516   2.712   4.943 -1.1664  0.5603  0.8367
 4623TIP3    H213876   1.426   2.686   4.823 -1.3054  0.5853  0.9350
 4624TIP3   OH213877   5.399   5.723   3.935 -0.7157  0.1400  0.0187
 4624TIP3    H113878   5.333   5.694   3.998  0.5795 -0.3654  1.1924
 4624TIP3    H213879   5.369   5.811   3.909 -1.0987  0.5387  1.6515
 4625TIP3   OH213880   5.243   1.024   0.457 -0.4038 -0.4333  0.6439
 4625TIP3    H113881   5.302   0.953   0.431 -0.7202 -1.1346  1.7724
 4625TIP3    H213882   5.266   1.097   0.400 -0.5708 -1.6581 -1.0660
 4626TIP3   OH213883   4.311   3.788   3.602  0.6383 -0.0872 -0.0345
 4626TIP3    H113884   4.321   3.701   3.563 -0.5573  0.2955 -1.2665
 4626TIP3    H213885   4.342   3.777   3.692  1.6378 -1.4811 -0.5128
 4627TIP3   OH213886   6.257   2.615   4.334 -0.4935  0.0332 -0.0212
 4627TIP3    H113887   6.194   2.579   4.271 -0.3763  0.2844 -0.2887
 4627TIP3    H213888   6.220   2.596   4.420  0.0492 -1.6445 -0.1149
 4628TIP3   OH213889   2.433   5.231   3.690 -0.0345 -0.3038  0.1284
 4628TIP3    H113890   2.434   5.215   3.596 -0.9645  0.8169 -0.0828
 4628TIP3    H213891   2.505   5.178   3.723  0.1660 -0.8904 -1.1798
 4629TIP3   OH213892   2.469   5.495   2.325  0.0564  0.0492  0.0365
 4629TIP3    H113893   2.477   5.410   2.368 -5.3374 -0.4118  0.8809
 4629TIP3    H213894   2.483   5.558   2.396 -0.1299 -0.3279  0.4176
 4630TIP3   OH213895   0.417   3.956   3.075  0.1246 -0.2916 -0.1164
 4630TIP3    H113896   0.470   3.980   2.999  0.1741  0.5720  0.1865
 4630TIP3    H213897   0.329   3.986   3.054  0.6500  2.5156  1.2883
 4631TIP3   OH213898   0.940   4.515   2.848 -0.0267 -0.1326 -0.5025
 4631TIP3    H113899   0.930   4.422   2.829 -1.2111 -0.0614 -0.2818
 4631TIP3    H213900   1.033   4.525   2.871 -0.1739 -1.4965  0.8183
 4632TIP3   OH213901   4.118   2.612   2.501 -0.1155 -0.2740 -0.4637
 4632TIP3    H113902   4.166   2.535   2.532 -0.1982 -0.8427 -1.6653
 4632TIP3    H213903   4.026   2.585   2.503 -0.4252  0.7372  1.6223
 4633TIP3   OH213904   2.210   3.975   0.862  0.0964  0.5827 -0.1708
 4633TIP3    H113905   2.173   4.002   0.779 -0.6723  1.5462  0.4747
 4633TIP3    H213906   2.194   3.880   0.865 -0.3865  0.6355 -0.8478
 4634TIP3   OH213907   1.337  -0.020   1.601  0.0266 -0.0228  0.2353
 4634TIP3    H113908   1.329  -0.003   1.695  1.4244  0.8759  0.2294
 4634TIP3    H213909   1.382   0.057   1.566 -1.1559  0.0113 -1.3180
 4635TIP3   OH213910   5.391   3.690   1.489  0.3359 -0.3214  0.4859
 4635TIP3    H113911   5.350   3.777   1.481 -0.1051 -0.6642 -1.4076
 4635TIP3    H213912   5.483   3.709   1.506  0.5719  0.5906 -1.5528
 4636TIP3   OH213913   0.700   5.689   1.198 -0.0155 -0.0926 -0.1037
 4636TIP3    H113914   0.623   5.669   1.250 -0.9584 -0.2799 -1.5278
 4636TIP3    H213915   0.774   5.656   1.250 -1.1098 -2.8027 -0.1165
 4637TIP3   OH213916   2.692   0.419   4.478  0.2270  0.4509  0.3190
 4637TIP3    H113917   2.746   0.340   4.483  0.5442  0.7361  2.9122
 4637TIP3    H213918   2.602   0.387   4.472  0.4931 -0.0233 -2.9077
 4638TIP3   OH213919   0.723   3.528   1.834  0.7368 -0.5508 -0.2881
 4638TIP3    H113920   0.792   3.564   1.889 -1.8482  1.4407  1.9409
 4638TIP3    H213921   0.721   3.586   1.758 -0.1569  1.1119  0.9347
 4639TIP3   OH213922   4.868   4.531   4.953 -0.2698 -0.1684  0.5122
 4639TIP3    H113923   4.841   4.582   5.029  0.0272  0.0397  0.4831
 4639TIP3    H213924   4.797   4.542   4.890 -0.3204  0.0111  0.6011
 4640TIP3   OH213925   1.055   4.299   4.370 -0.0309 -0.0470  0.4952
 4640TIP3    H113926   0.998   4.285   4.446  0.6205  0.8615  1.1799
 4640TIP3    H213927   1.086   4.211   4.347 -0.4908 -0.3697  1.0770
 4641TIP3   OH213928   4.697   3.284   2.387 -0.1977 -0.7715 -0.6258
 4641TIP3    H113929   4.738   3.364   2.421  0.7694 -1.2614 -0.5983
 4641TIP3    H213930   4.663   3.310   2.301 -0.6992 -0.1004 -0.2346
 4642TIP3   OH213931   1.424   5.843   2.861 -0.9872  0.1847 -0.0129
 4642TIP3    H113932   1.459   5.866   2.947 -3.2633 -0.5798  1.2124
 4642TIP3    H213933   1.500   5.845   2.803  0.7205  0.2951  2.0830
 4643TIP3   OH213934   4.410   5.328   4.987 -0.4158 -0.1880 -0.3774
 4643TIP3    H113935   4.360   5.247   4.985 -4.1044  1.7277  1.9391
 4643TIP3    H213936   4.397   5.367   4.901 -3.8110  0.5237  0.3047
 4644TIP3   OH213937   3.143   0.857   4.497  0.2640 -0.2515  0.0920
 4644TIP3    H113938   3.237   0.844   4.506  0.2241 -0.9558 -0.3778
 4644TIP3    H213939   3.123   0.930   4.555  0.7109 -1.6053  2.0776
 4645TIP3   OH213940   5.032   1.269   2.872  0.1984 -0.0202 -0.7278
 4645TIP3    H113941   5.013   1.200   2.809 -2.0933  0.7140 -0.9311
 4645TIP3    H213942   5.005   1.350   2.828  1.7146  0.9088 -0.0440
 4646TIP3   OH213943   0.652   2.829   1.281 -0.4129  0.1597 -0.3755
 4646TIP3    H113944   0.591   2.872   1.341  0.0261  0.1568  0.0762
 4646TIP3    H213945   0.696   2.763   1.335  1.0415  1.1241 -0.3104
 4647TIP3   OH213946   5.859   5.561   1.029 -0.2851 -0.2276 -0.6280
 4647TIP3    H113947   5.871   5.467   1.044  0.4351  0.2722  2.7227
 4647TIP3    H213948   5.936   5.602   1.068 -0.8376  1.8073 -1.5476
 4648TIP3   OH213949   6.023   2.988   4.745 -0.4573  0.3890  0.4164
 4648TIP3    H113950   6.105   2.941   4.759 -0.5105  0.6061  1.5107
 4648TIP3    H213951   6.031   3.066   4.800 -0.9151  1.0016 -0.3659
 4649TIP3   OH213952   0.669   3.158   2.530 -0.4413 -0.4806  0.1129
 4649TIP3    H113953   0.714   3.224   2.584 -2.5076 -0.4276  1.9038
 4649TIP3    H213954   0.576   3.173   2.547 -1.0764 -1.9763 -1.7725
 4650TIP3   OH213955   3.604   1.706   1.825 -0.6958 -0.6560 -0.1643
 4650TIP3    H113956   3.699   1.701   1.814 -0.6876  0.2430 -0.6303
 4650TIP3    H213957   3.592   1.746   1.911 -0.6466 -0.5144 -0.2227
 4651TIP3   OH213958   1.943   2.230   1.832 -0.0054  0.4863 -0.3204
 4651TIP3    H113959   1.871   2.179   1.869  0.9511 -1.0581 -0.4861
 4651TIP3    H213960   1.924   2.321   1.856  0.1435 -0.2877  3.2884
 4652TIP3   OH213961   0.933   5.939   2.749 -0.4877 -0.1537 -0.2898
 4652TIP3    H113962   1.011   5.899   2.789 -0.0899  0.3326 -0.5680
 4652TIP3    H213963   0.955   5.949   2.657 -1.0350 -0.3648 -0.4501
 4653TIP3   OH213964   3.121   1.188   4.127 -0.3411  0.5978 -0.1487
 4653TIP3    H113965   3.094   1.132   4.054  0.4611  0.5050 -0.3847
 4653TIP3    H213966   3.079   1.150   4.204 -1.4511  0.8817 -0.6076
 4654TIP3   OH213967   6.288   3.296   0.475 -0.2988 -0.0910 -0.3761
 4654TIP3    H113968   6.355   3.349   0.519 -0.0467 -0.3444 -0.4515
 4654TIP3    H213969   6.327   3.273   0.391  1.1632 -3.4415  1.0290
 4655TIP3   OH213970   5.998   1.144   3.415 -0.4418 -0.8855 -0.5016
 4655TIP3    H113971   6.004   1.234   3.384 -0.6741 -0.8287 -0.3802
 4655TIP3    H213972   6.072   1.099   3.372 -0.0557 -0.5371 -0.2106
 4656TIP3   OH213973   1.117   0.400   2.693 -0.0436 -0.3630  0.5993
 4656TIP3    H113974   1.188   0.378   2.752  1.7322  2.5038 -0.2617
 4656TIP3    H213975   1.156   0.395   2.605 -1.9784 -2.3015 -0.2400
 4657TIP3   OH213976   4.647   4.271   2.716 -0.0158 -0.1709 -0.4298
 4657TIP3    H113977   4.702   4.333   2.764  2.0906 -2.0181 -0.3003
 4657TIP3    H213978   4.654   4.299   2.624  1.5587 -0.6291 -0.4742
 4658TIP3   OH213979   1.401   1.766   3.306  0.1981  0.6167  0.0764
 4658TIP3    H113980   1.463   1.741   3.237 -0.8730 -0.2282 -0.6030
 4658TIP3    H213981   1.365   1.850   3.276 -2.5077 -1.1311 -2.0346
 4659TIP3   OH213982   2.250   4.465   2.473  0.4607 -0.0629  0.1704
 4659TIP3    H113983   2.175   4.522   2.455  0.7010 -0.2933 -1.7513
 4659TIP3    H213984   2.212   4.378   2.487  0.3428 -0.1618 -0.7109
 4660TIP3   OH213985   1.855   2.225   2.615  0.5039 -0.2776 -0.4537
 4660TIP3    H113986   1.944   2.253   2.593  1.2535 -2.0757  0.0404
 4660TIP3    H213987   1.853   2.132   2.592  0.3708 -1.5823  3.8670
 4661TIP3   OH213988   5.910   3.469   3.177 -0.1316 -0.0104 -0.1284
 4661TIP3    H113989   5.955   3.398   3.222 -0.1156 -1.3417 -2.1333
 4661TIP3    H213990   5.819   3.442   3.173  0.2873 -1.4974 -3.4538
 4662TIP3   OH213991   1.501   0.198   4.407 -0.1450 -0.1380  0.1345
 4662TIP3    H113992   1.554   0.256   4.461 -0.7250  2.5149 -1.9359
 4662TIP3    H213993   1.564   0.138   4.367  0.7464  0.2830  0.8837
 4663TIP3   OH213994   1.668   5.922   0.979  0.2730  0.0158 -0.1481
 4663TIP3    H113995   1.602   5.953   1.043  0.1090 -0.9198  0.1451
 4663TIP3    H213996   1.630   5.944   0.894  1.1398  2.6151  0.0417
 4664TIP3   OH213997   1.387   3.919   3.823 -0.4654 -0.1017  0.0634
 4664TIP3    H113998   1.386   3.952   3.733 -1.9168  0.2265  0.1748
 4664TIP3    H213999   1.371   3.825   3.814 -3.0341  0.2477  0.0273
 4665TIP3   OH214000   1.981   2.511   3.435  0.3647  0.1056 -0.3657
 4665TIP3    H114001   1.990   2.423   3.397  2.0117 -0.4225  1.1211
 4665TIP3    H214002   1.986   2.570   3.359 -3.7604 -1.0608 -1.7906
 4666TIP3   OH214003   1.978   3.541   4.432 -0.0941  0.1721  0.2284
 4666TIP3    H114004   1.932   3.485   4.496  0.1985 -0.1244  0.1804
 4666TIP3    H214005   1.908   3.573   4.375 -0.5427  1.5093  1.4848
 4667TIP3   OH214006   3.728   4.567   2.583 -0.7983 -0.2814 -0.5409
 4667TIP3    H114007   3.761   4.576   2.672 -2.1813  0.8022 -0.1021
 4667TIP3    H214008   3.693   4.653   2.561 -3.0806 -1.2390 -1.0115
 4668TIP3   OH214009   0.410   1.423   1.396  0.1422  0.0252  0.0484
 4668TIP3    H114010   0.402   1.517   1.379 -0.1121  0.0174  0.1249
 4668TIP3    H214011   0.439   1.418   1.488 -0.0076  0.0226  0.0946
 4669TIP3   OH214012   1.787   0.035   3.047 -0.0913 -0.2300 -0.3978
 4669TIP3    H114013   1.768   0.072   3.134  0.4307 -1.0614  0.0844
 4669TIP3    H214014   1.702   0.008   3.014 -0.5296  1.6053 -0.8763
 4670TIP3   OH214015   0.065   4.118   2.479 -0.2128  0.0394  0.8927
 4670TIP3    H114016  -0.009   4.118   2.417  1.7422 -1.8384 -1.6711
 4670TIP3    H214017   0.081   4.026   2.496  0.6126  0.4789  2.6473
 4671TIP3   OH214018   3.034   0.403   3.359  0.4286  0.0604 -0.1571
 4671TIP3    H114019   3.111   0.383   3.306  0.7357 -1.2639  0.7378
 4671TIP3    H214020   3.031   0.333   3.424 -1.3751  0.2282 -0.0004
 4672TIP3   OH214021   3.422   2.316   0.580 -0.3229 -0.0507 -0.2328
 4672TIP3    H114022   3.488   2.357   0.635 -0.9643 -1.1855  1.4832
 4672TIP3    H214023   3.372   2.260   0.640 -1.4598 -0.8889 -1.8664
 4673TIP3   OH214024   3.599   3.715   0.228  0.1054  0.7157  0.4787
 4673TIP3    H114025   3.608   3.626   0.263  0.8540  0.1005 -1.1740
 4673TIP3    H214026   3.658   3.768   0.281  0.0285  0.1381  1.1593
 4674TIP3   OH214027   3.982   2.494   0.145 -0.3378 -0.2170 -0.1246
 4674TIP3    H114028   4.047   2.426   0.166  1.4794  0.6850 -2.3251
 4674TIP3    H214029   3.930   2.456   0.074  1.3999  0.9180 -2.1485
 4675TIP3   OH214030   4.796   2.009   3.159 -0.6785  0.1927 -0.7740
 4675TIP3    H114031   4.707   1.994   3.127 -1.6024  1.0569  1.2593
 4675TIP3    H214032   4.852   1.997   3.082 -2.5328 -0.4304 -2.0725
 4676TIP3   OH214033   2.673   4.468   0.569 -0.1915  0.5086  0.5884
 4676TIP3    H114034   2.673   4.373   0.555 -0.0508  0.4140  1.1766
 4676TIP3    H214035   2.753   4.485   0.619  0.0620  1.0172  0.0129
 4677TIP3   OH214036   6.071   3.539   0.695 -0.1263  0.3012  0.5555
 4677TIP3    H114037   6.119   3.614   0.660 -0.5485  0.2068 -0.2360
 4677TIP3    H214038   6.093   3.539   0.788  0.7041  0.7827  0.3728
 4678TIP3   OH214039   0.752   4.620   2.598  0.2097  0.2551 -0.1236
 4678TIP3    H114040   0.839   4.649   2.625  0.1871  0.2019  0.0061
 4678TIP3    H214041   0.696   4.638   2.673  0.3449 -0.8648  0.2640
 4679TIP3   OH214042   3.905   0.056   2.018  0.5951  0.1335  0.3642
 4679TIP3    H114043   3.824   0.041   2.066  0.2178  3.5733  1.1121
 4679TIP3    H214044   3.974   0.032   2.080  0.0986  0.7314  1.1804
 4680TIP3   OH214045   1.267   0.652   5.160 -0.4764  0.4119 -0.1790
 4680TIP3    H114046   1.356   0.681   5.180 -0.3793 -0.9157  1.4537
 4680TIP3    H214047   1.278   0.567   5.119 -1.0400 -1.1305  2.6558
 4681TIP3   OH214048   4.428   1.161   0.157  0.0699  0.0168 -0.0738
 4681TIP3    H114049   4.463   1.073   0.168  0.5527  0.3920  1.7715
 4681TIP3    H214050   4.334   1.149   0.146  0.0450 -0.7270  0.8056
 4682TIP3   OH214051   0.791   0.222   0.393  0.3302 -0.2140  0.2621
 4682TIP3    H114052   0.862   0.285   0.405  0.5414 -0.1545 -1.1635
 4682TIP3    H214053   0.818   0.169   0.318 -1.0203 -0.3482 -0.1602
 4683TIP3   OH214054   5.257   2.051   4.125 -0.0417 -0.3212  0.2115
 4683TIP3    H114055   5.239   2.087   4.038  2.4636  1.1977  0.2512
 4683TIP3    H214056   5.209   2.108   4.185 -1.0111 -0.8027 -0.0870
 4684TIP3   OH214057   2.012   2.592   0.215  0.7226  0.1650 -0.2750
 4684TIP3    H114058   1.949   2.528   0.182  1.1559 -0.5821  0.3287
 4684TIP3    H214059   2.025   2.652   0.141 -0.2292 -0.0124 -0.6074
 4685TIP3   OH214060   1.973   1.304   4.844 -0.0144 -0.0397  0.0161
 4685TIP3    H114061   2.019   1.222   4.860 -0.0536  0.1341  1.1494
 4685TIP3    H214062   1.899   1.302   4.906  2.0721  2.4770  2.9319
 4686TIP3   OH214063   6.004   3.283   3.362 -0.5424  0.0500  0.3530
 4686TIP3    H114064   6.063   3.217   3.328  0.0252  0.6607  0.1336
 4686TIP3    H214065   5.956   3.238   3.432 -0.5319 -0.7278 -0.1271
 4687TIP3   OH214066   1.369   5.678   1.653  0.7017 -0.4162 -0.9540
 4687TIP3    H114067   1.413   5.763   1.650 -1.6916  1.0555  1.0983
 4687TIP3    H214068   1.403   5.637   1.733 -2.2596  1.2715  1.3563
 4688TIP3   OH214069   4.145   5.130   3.742  0.2063  0.0148 -0.1057
 4688TIP3    H114070   4.148   5.035   3.755  0.7029 -0.0320 -0.4868
 4688TIP3    H214071   4.065   5.158   3.785  0.5503 -0.4430  0.8693
 4689TIP3   OH214072   4.358   5.602   1.338  0.1166  0.0795 -0.7542
 4689TIP3    H114073   4.406   5.682   1.356  1.7398 -0.9059 -0.4749
 4689TIP3    H214074   4.425   5.539   1.310 -1.2564 -0.8430 -2.1772
 4690TIP3   OH214075   0.079   3.254   5.066  0.0847  0.1870  0.2066
 4690TIP3    H114076   0.060   3.220   5.153 -0.1638 -0.9134 -0.2564
 4690TIP3    H214077   0.003   3.309   5.045 -0.0368  0.1411  0.5252
 4691TIP3   OH214078   1.123   1.928   1.516 -0.3767 -0.5572 -0.3505
 4691TIP3    H114079   1.050   1.990   1.521  0.3642  0.3810 -0.6843
 4691TIP3    H214080   1.200   1.981   1.539  0.3952 -1.1291 -1.5073
 4692TIP3   OH214081   3.537   0.602   0.901 -0.1583 -0.7459 -0.5888
 4692TIP3    H114082   3.602   0.603   0.972  0.3734 -3.4955 -0.9171
 4692TIP3    H214083   3.454   0.622   0.944  0.7130  2.5936 -0.1075
 4693TIP3   OH214084   4.919   1.239   2.355  0.8804 -0.9234  0.4266
 4693TIP3    H114085   4.834   1.201   2.378 -0.6312  2.0887  0.2897
 4693TIP3    H214086   4.918   1.245   2.260  1.0321 -0.4875  0.4479
 4694TIP3   OH214087   5.378   0.161   0.952  0.4013 -0.6334 -0.3484
 4694TIP3    H114088   5.385   0.131   1.043 -1.1534 -1.0054 -0.3181
 4694TIP3    H214089   5.313   0.231   0.955 -0.4500 -1.3439 -1.2924
 4695TIP3   OH214090   1.229   4.311   5.163  0.0994 -0.0902 -0.2071
 4695TIP3    H114091   1.180   4.241   5.207 -0.0276 -1.3656 -2.2773
 4695TIP3    H214092   1.319   4.299   5.192 -0.0331 -0.6772 -0.0211
 4696TIP3   OH214093   4.811   1.907   3.445 -0.2917  0.1597  0.1605
 4696TIP3    H114094   4.791   1.922   3.352 -1.8737  2.2346  0.7566
 4696TIP3    H214095   4.725   1.891   3.485  0.5280 -2.5116  1.0394
 4697TIP3   OH214096   2.350   3.285   2.037 -0.2253  0.5098  0.2405
 4697TIP3    H114097   2.305   3.203   2.019 -2.2472  1.4875  0.5745
 4697TIP3    H214098   2.440   3.270   2.006 -0.3190 -2.0403  0.9422
 4698TIP3   OH214099   0.409   5.932   1.157 -0.4419  0.3644 -0.3826
 4698TIP3    H114100   0.418   5.943   1.062  1.9467  1.7642 -0.1062
 4698TIP3    H214101   0.376   5.844   1.168  0.7951 -0.4627 -2.5278
 4699TIP3   OH214102   0.555   3.314   1.840 -0.1216  0.2386 -0.1179
 4699TIP3    H114103   0.600   3.276   1.916 -0.5227 -1.1537 -0.5393
 4699TIP3    H214104   0.611   3.386   1.813  2.3612 -1.9007 -1.0979
 4700TIP3   OH214105   3.011   0.295   1.280 -0.0360  0.0909 -0.3426
 4700TIP3    H114106   3.074   0.275   1.210  1.0035 -0.9201  0.8304
 4700TIP3    H214107   3.041   0.379   1.315  0.5794 -0.3092  0.1073
 4701TIP3   OH214108   0.603   2.673   4.304  0.4489 -0.4219  0.0359
 4701TIP3    H114109   0.614   2.698   4.396 -2.1309 -1.7966  0.8131
 4701TIP3    H214110   0.516   2.707   4.281 -2.2452 -5.9292  0.4183
 4702TIP3   OH214111   4.456   0.130   0.673  0.0502  0.1985  0.8684
 4702TIP3    H114112   4.519   0.061   0.695 -0.2599 -0.5964 -0.6587
 4702TIP3    H214113   4.404   0.094   0.602 -1.0081  1.5113  0.9378
 4703TIP3   OH214114   2.691   5.321   0.677  0.0582  0.4874 -0.6450
 4703TIP3    H114115   2.773   5.272   0.689  0.3129  0.3261 -2.5732
 4703TIP3    H214116   2.714   5.411   0.700 -0.9046 -0.3719  4.7798
 4704TIP3   OH214117   3.712   4.613   0.891 -0.0664  0.0371 -0.2608
 4704TIP3    H114118   3.764   4.645   0.816  0.9588 -1.6917 -0.3338
 4704TIP3    H214119   3.703   4.690   0.947 -0.8109  1.3747 -2.1015
 4705TIP3   OH214120   2.126   0.413   3.132  0.2836  0.2437  0.6784
 4705TIP3    H114121   2.212   0.370   3.127 -0.7677 -2.0529  1.0956
 4705TIP3    H214122   2.094   0.413   3.042 -0.8304 -2.4158  1.0001
 4706TIP3   OH214123   1.076   0.578   4.784  0.0411  0.7628 -0.3089
 4706TIP3    H114124   1.008   0.631   4.742 -0.0257  0.3890 -0.6803
 4706TIP3    H214125   1.131   0.641   4.830  1.4641  1.4585 -2.8223
 4707TIP3   OH214126   0.174   5.824   3.325  0.1911 -0.2407  0.1540
 4707TIP3    H114127   0.080   5.804   3.329  0.2408 -0.5589 -0.1758
 4707TIP3    H214128   0.203   5.821   3.416 -0.3297  0.8987  0.3731
 4708TIP3   OH214129   4.697   0.464   2.451  0.2502 -0.0241  0.2002
 4708TIP3    H114130   4.683   0.470   2.546  0.4084 -0.4191  0.2479
 4708TIP3    H214131   4.651   0.541   2.416  1.5924  1.0590  0.7431
 4709TIP3   OH214132   0.297   4.772   0.599 -0.6776 -0.1540  0.1591
 4709TIP3    H114133   0.315   4.734   0.513  2.5851  0.0882  0.6189
 4709TIP3    H214134   0.330   4.862   0.593 -0.2611 -0.1800  1.7119
 4710TIP3   OH214135   5.463   2.212   3.981 -0.3668  0.1334  0.4888
 4710TIP3    H114136   5.460   2.165   4.064  1.5164 -0.7149  0.1216
 4710TIP3    H214137   5.374   2.247   3.971 -2.1575 -3.7530  0.5791
 4711TIP3   OH214138   2.250   5.814   1.382  0.1825  0.4433 -0.1912
 4711TIP3    H114139   2.325   5.799   1.440  0.4215  1.1929 -0.2887
 4711TIP3    H214140   2.184   5.751   1.411  0.6249  0.1974  0.3063
 4712TIP3   OH214141   3.137   2.627   2.977  0.0054  0.0852  0.3256
 4712TIP3    H114142   3.203   2.618   2.908  0.5350 -0.9115  0.9403
 4712TIP3    H214143   3.179   2.683   3.043 -0.6226  1.3127 -0.2750
 4713TIP3   OH214144   1.867   1.068   4.516  0.4281 -0.2097  0.4876
 4713TIP3    H114145   1.932   1.130   4.548  1.3775 -1.3739  0.8767
 4713TIP3    H214146   1.865   1.083   4.421  1.1764 -0.0705  0.4850
 4714TIP3   OH214147   0.991   5.865   0.832 -0.6962  0.8335 -0.0831
 4714TIP3    H114148   0.981   5.836   0.923 -0.4261 -0.9855 -0.5827
 4714TIP3    H214149   0.919   5.821   0.786 -0.2781  0.9920 -0.8932
 4715TIP3   OH214150   3.867   0.706   3.377  0.8022  0.3772 -0.4502
 4715TIP3    H114151   3.831   0.624   3.342  1.0189 -0.7427  1.7538
 4715TIP3    H214152   3.822   0.718   3.461  1.3556  2.0966 -0.3642
 4716TIP3   OH214153   2.962   2.934   3.711  0.5930  0.2384 -0.3809
 4716TIP3    H114154   2.918   2.915   3.794  1.0473 -1.5748 -0.5052
 4716TIP3    H214155   2.949   2.855   3.659  1.1429  0.9800 -1.6817
 4717TIP3   OH214156   3.105   4.452   1.980  0.5180  0.4531 -0.0181
 4717TIP3    H114157   3.041   4.499   1.926 -1.2111  1.8248  2.9553
 4717TIP3    H214158   3.190   4.488   1.955 -0.2436  1.2031 -1.6102
 4718TIP3   OH214159   1.903   2.397   4.419  0.0760 -0.3565  0.6541
 4718TIP3    H114160   1.829   2.453   4.442 -0.2974 -0.1603 -0.9136
 4718TIP3    H214161   1.951   2.387   4.501 -1.5127 -0.2553  1.6609
 4719TIP3   OH214162   5.565   1.550   3.267 -0.5563 -0.1989 -0.6306
 4719TIP3    H114163   5.580   1.644   3.271 -0.2577 -0.2877  1.1757
 4719TIP3    H214164   5.484   1.541   3.218 -0.3892  0.9674 -1.1603
 4720TIP3   OH214165   3.402   0.853   4.586  0.7378 -0.0799 -0.5981
 4720TIP3    H114166   3.482   0.801   4.582  1.1877  0.5105  0.3380
 4720TIP3    H214167   3.379   0.855   4.679 -1.5206 -1.9247 -1.0202
 4721TIP3   OH214168  -0.007   1.716   0.152  0.1198 -0.0331  0.4691
 4721TIP3    H114169   0.061   1.752   0.095  0.2344 -0.1730  0.5139
 4721TIP3    H214170   0.006   1.621   0.146 -1.8627 -0.2823 -1.7770
 4722TIP3   OH214171   0.388   2.085   0.342  0.0921 -0.1886 -0.2027
 4722TIP3    H114172   0.405   2.161   0.286  0.3119 -0.7931 -0.9722
 4722TIP3    H214173   0.461   2.084   0.403 -0.0577  0.3828 -0.0126
 4723TIP3   OH214174   1.926   3.729   3.371 -0.1045 -0.2597 -0.4046
 4723TIP3    H114175   1.856   3.733   3.306  0.5031  0.6409 -1.0341
 4723TIP3    H214176   1.930   3.637   3.398 -0.5489 -0.5974 -1.4485
 4724TIP3   OH214177   4.386   4.363   3.907  0.2605 -0.7577 -0.5412
 4724TIP3    H114178   4.328   4.430   3.942  1.2807 -0.1890  0.1197
 4724TIP3    H214179   4.334   4.318   3.840 -0.1810  1.2945 -1.6816
 4725TIP3   OH214180   5.207   5.212   2.139 -0.1720  0.5021 -0.1368
 4725TIP3    H114181   5.281   5.155   2.161 -0.8578 -0.1158  0.6320
 4725TIP3    H214182   5.201   5.208   2.043 -0.7941 -1.5088 -0.0648
 4726TIP3   OH214183   6.260   1.524   4.635 -0.0419 -0.6480 -0.3635
 4726TIP3    H114184   6.260   1.428   4.638  0.0925 -0.6774 -0.9846
 4726TIP3    H214185   6.206   1.545   4.559  0.1986 -0.2410 -0.4230
 4727TIP3   OH214186   3.332   1.298   2.558  0.3350 -0.5126 -0.1844
 4727TIP3    H114187   3.378   1.227   2.604  0.7272 -0.0430  0.1609
 4727TIP3    H214188   3.267   1.328   2.621  0.0352 -0.6930 -0.4051
 4728TIP3   OH214189   0.869   4.365   0.675 -0.2642  0.6427  0.8243
 4728TIP3    H114190   0.813   4.360   0.598  0.7865 -0.4545  0.1003
 4728TIP3    H214191   0.817   4.415   0.739 -1.2506  1.3681 -0.4858
 4729TIP3   OH214192   0.332   2.654   0.309 -0.3428  0.4207  0.6160
 4729TIP3    H114193   0.340   2.658   0.214 -4.5884 -0.3546  0.0197
 4729TIP3    H214194   0.312   2.562   0.328  0.2430  0.5958  2.2484
 4730TIP3   OH214195   1.153   4.057   4.557 -0.0897  0.9878 -0.2023
 4730TIP3    H114196   1.200   4.127   4.603  1.1160  1.4873 -2.0641
 4730TIP3    H214197   1.218   4.019   4.498 -0.3205 -2.6805  1.6295
 4731TIP3   OH214198   3.184   0.449   0.705 -0.2529 -0.4454  0.3738
 4731TIP3    H114199   3.168   0.358   0.682 -0.2193  0.1433 -2.3580
 4731TIP3    H214200   3.101   0.494   0.685  0.8515  0.6708 -2.1884
 4732TIP3   OH214201   6.027   0.390   3.334 -0.3397 -0.4301 -0.6062
 4732TIP3    H114202   6.084   0.314   3.320  0.2682 -0.2231  0.5561
 4732TIP3    H214203   5.999   0.383   3.425 -3.6160 -1.4441 -1.5529
 4733TIP3   OH214204   0.076   1.454   0.189  0.2487  0.2284  0.3640
 4733TIP3    H114205   0.114   1.392   0.128  2.3193 -0.5045  2.2575
 4733TIP3    H214206  -0.006   1.412   0.218 -0.5150  0.3796 -1.4526
 4734TIP3   OH214207   1.616   0.033   1.803  0.1169 -0.2778  0.3110
 4734TIP3    H114208   1.555   0.079   1.860  0.7614  0.7230  0.2160
 4734TIP3    H214209   1.602  -0.060   1.823 -1.6372 -0.0964  0.0597
 4735TIP3   OH214210   4.067   0.095   3.232 -0.2203 -0.5342  0.6044
 4735TIP3    H114211   3.983   0.117   3.272  0.4905  0.5700  1.5663
 4735TIP3    H214212   4.087   0.171   3.177 -0.5717 -1.4766 -0.8672
 4736TIP3   OH214213   1.113   3.715   5.133 -0.1248 -0.0303 -0.2407
 4736TIP3    H114214   1.068   3.798   5.145 -1.7533 -1.1635  2.1601
 4736TIP3    H214215   1.043   3.651   5.120  0.7898 -1.5639  1.7482
 4737TIP3   OH214216   2.541   0.534   2.353 -0.1644  0.6283 -0.6436
 4737TIP3    H114217   2.590   0.456   2.327  0.8475  1.8949 -2.7919
 4737TIP3    H214218   2.607   0.591   2.394 -1.1502 -0.1014  2.1363
 4738TIP3   OH214219   0.713   2.544   2.340 -0.6945 -0.3015  0.3086
 4738TIP3    H114220   0.781   2.508   2.396 -0.6988  2.4722  2.2861
 4738TIP3    H214221   0.645   2.573   2.401 -2.0274  0.2594 -1.3676
 4739TIP3   OH214222   1.493   4.472   0.851 -0.4446  0.5548  0.3232
 4739TIP3    H114223   1.455   4.489   0.764  0.1399 -0.3487 -0.1333
 4739TIP3    H214224   1.446   4.395   0.882 -0.3111  0.5836  0.5936
 4740TIP3   OH214225   1.044   4.389   4.720 -0.4519  0.2936  0.0134
 4740TIP3    H114226   1.054   4.340   4.801 -2.0486  2.4491  1.6186
 4740TIP3    H214227   0.962   4.357   4.683  0.6254 -1.2097 -1.2425
 4741TIP3   OH214228   5.654   3.645   3.260 -0.6364 -0.0899  1.0913
 4741TIP3    H114229   5.710   3.705   3.211 -2.9731  1.9802  0.8163
 4741TIP3    H214230   5.675   3.559   3.223  1.1380  0.7854 -0.1256
 4742TIP3   OH214231   5.677   1.338   3.654  0.0722  0.5958 -0.2283
 4742TIP3    H114232   5.740   1.265   3.651  0.3882  0.8718 -2.2450
 4742TIP3    H214233   5.729   1.413   3.683  0.2760  0.4692 -0.2616
 4743TIP3   OH214234   1.279   0.804   3.799 -0.2038  0.5773  0.6308
 4743TIP3    H114235   1.287   0.763   3.885  0.1516  1.5258  1.0634
 4743TIP3    H214236   1.339   0.878   3.802  0.7552 -0.0859 -0.8837
 4744TIP3   OH214237   1.315   0.751   0.668 -0.0671 -0.0892  0.2833
 4744TIP3    H114238   1.355   0.761   0.755 -1.5234 -0.2511  0.9984
 4744TIP3    H214239   1.306   0.841   0.636 -1.2241  0.1169  1.1186
 4745TIP3   OH214240   5.287   4.437   4.075  0.0548 -0.3072 -0.2388
 4745TIP3    H114241   5.317   4.527   4.080  0.1182 -0.3443  0.0250
 4745TIP3    H214242   5.325   4.394   4.151 -3.2999  0.4064  2.0679
 4746TIP3   OH214243   4.627   2.062   3.677 -0.3959  0.7050 -0.4620
 4746TIP3    H114244   4.705   2.014   3.704 -1.4353 -0.2806  0.9461
 4746TIP3    H214245   4.660   2.139   3.632  1.4017  0.8802  1.0673
 4747TIP3   OH214246   1.770   0.470   2.075  0.5305  0.0041  0.1262
 4747TIP3    H114247   1.754   0.379   2.049 -0.7669 -0.0385  0.9619
 4747TIP3    H214248   1.727   0.478   2.160 -0.5856  1.7876 -0.5582
 4748TIP3   OH214249   4.526   3.845   1.871  0.4734 -0.9414 -0.3669
 4748TIP3    H114250   4.534   3.794   1.791  0.9387 -1.0665 -0.2428
 4748TIP3    H214251   4.541   3.935   1.844 -3.0354 -0.4349 -1.0997
 4749TIP3   OH214252   5.898   4.095   1.319  0.1194  0.2548 -0.7382
 4749TIP3    H114253   5.840   4.020   1.303  2.3131 -1.8631  0.6073
 4749TIP3    H214254   5.890   4.112   1.412 -0.5853  2.0025 -1.0789
 4750TIP3   OH214255   5.264   5.847   3.611  0.6484  0.1758 -0.2038
 4750TIP3    H114256   5.253   5.837   3.517  3.8952 -1.1500 -0.5588
 4750TIP3    H214257   5.232   5.765   3.648 -0.2299  0.5286 -0.1508
 4751TIP3   OH214258   6.165   4.638   1.158 -0.0920  0.4349 -0.3034
 4751TIP3    H114259   6.105   4.612   1.089 -0.9472 -0.1302  0.6204
 4751TIP3    H214260   6.251   4.608   1.129 -0.8147 -2.3477  0.0864
 4752TIP3   OH214261   5.232   5.761   4.183 -0.3446  0.3660 -0.3096
 4752TIP3    H114262   5.278   5.845   4.176  1.0276 -0.4812 -2.7571
 4752TIP3    H214263   5.261   5.724   4.266 -0.2956  1.8900  0.3873
 4753TIP3   OH214264   3.882   0.222   5.008  0.4696 -0.4005  0.6906
 4753TIP3    H114265   3.895   0.262   5.094 -0.0499 -0.2042  0.6875
 4753TIP3    H214266   3.878   0.296   4.948 -2.8048 -0.1755  0.9665
 4754TIP3   OH214267   3.114   1.820   4.687 -0.2228 -0.5703 -0.5161
 4754TIP3    H114268   3.105   1.806   4.782 -0.8286  1.3412 -0.2490
 4754TIP3    H214269   3.040   1.875   4.664 -0.0495 -0.9584 -2.1270
 4755TIP3   OH214270   0.518   1.460   2.915 -0.5881  0.3963  0.7424
 4755TIP3    H114271   0.502   1.544   2.871 -1.0629  0.5384  1.1776
 4755TIP3    H214272   0.569   1.483   2.993  0.0229  0.1748  0.4150
 4756TIP3   OH214273   5.340   3.586   0.450 -0.3711 -0.4053 -0.1661
 4756TIP3    H114274   5.329   3.507   0.396  0.2799 -0.4433 -0.2551
 4756TIP3    H214275   5.291   3.567   0.530  0.8370 -1.4455  0.3621
 4757TIP3   OH214276   5.348   5.770   2.397 -0.2733 -0.2523  0.1934
 4757TIP3    H114277   5.419   5.788   2.336 -0.3680  0.3868  0.2643
 4757TIP3    H214278   5.275   5.822   2.365 -0.2208  0.3677  1.0396
 4758TIP3   OH214279   5.608   4.569   4.938  0.4265 -0.7857 -0.1172
 4758TIP3    H114280   5.515   4.555   4.957 -0.0549 -0.1075 -1.8100
 4758TIP3    H214281   5.616   4.663   4.923  0.9511 -1.0851 -1.9996
 4759TIP3   OH214282   0.602   5.359   1.502  0.5636 -0.1683 -0.2628
 4759TIP3    H114283   0.531   5.312   1.458 -0.5120  1.8093 -0.7558
 4759TIP3    H214284   0.680   5.340   1.449  0.4096 -2.1711  0.1450
 4760TIP3   OH214285   5.448   3.391   2.223 -0.1774  0.5383  0.5218
 4760TIP3    H114286   5.383   3.321   2.213 -0.5142  0.8232  0.6862
 4760TIP3    H214287   5.396   3.472   2.221 -0.0599  0.7114  2.4854
 4761TIP3   OH214288   5.426   2.758   1.438  0.4675  0.0297 -0.1618
 4761TIP3    H114289   5.473   2.712   1.369 -0.7795  0.3681 -1.2827
 4761TIP3    H214290   5.460   2.721   1.519  1.0168 -1.3352 -0.9795
 4762TIP3   OH214291   0.328   4.986   0.793  0.1177 -0.3617  0.3732
 4762TIP3    H114292   0.321   5.016   0.884  0.9242 -0.3432  0.4352
 4762TIP3    H214293   0.238   4.982   0.762 -0.2485 -1.4684  1.5285
 4763TIP3   OH214294   6.132   2.798   2.436 -0.0481  0.6153  0.5883
 4763TIP3    H114295   6.147   2.851   2.358 -0.3280 -0.7364 -0.4176
 4763TIP3    H214296   6.036   2.793   2.443 -0.0407  1.4397  1.5453
 4764TIP3   OH214297   2.452   5.211   0.635  0.7154  0.1789  0.2647
 4764TIP3    H114298   2.472   5.125   0.672 -0.7034  0.7484  2.5293
 4764TIP3    H214299   2.538   5.251   0.620  1.3809 -1.4219 -0.4240
 4765TIP3   OH214300   0.958   2.990   2.844 -0.2585  0.2259  0.0001
 4765TIP3    H114301   0.905   2.973   2.767 -0.4595 -0.0145  0.1908
 4765TIP3    H214302   0.899   3.034   2.905 -0.0211  0.6776 -0.0954
 4766TIP3   OH214303   6.343   4.811   2.419  0.1009 -0.0308 -0.2720
 4766TIP3    H114304   6.377   4.819   2.508  0.9486  1.1101 -0.6692
 4766TIP3    H214305   6.295   4.729   2.419  1.5360 -0.9151  0.7673
 4767TIP3   OH214306   1.171   2.833   2.160  0.0491 -0.4302 -0.6612
 4767TIP3    H114307   1.083   2.802   2.182  0.0517 -0.9719 -1.3724
 4767TIP3    H214308   1.182   2.913   2.211  0.0934 -1.6599  1.3958
 4768TIP3   OH214309   5.663   1.485   2.710 -0.1108  0.6269  1.0891
 4768TIP3    H114310   5.600   1.510   2.643  0.9138  0.2554 -0.0360
 4768TIP3    H214311   5.619   1.414   2.758 -0.1005 -0.4712 -0.4667
 4769TIP3   OH214312   2.641   2.831   2.762  0.2888 -0.3737 -0.1324
 4769TIP3    H114313   2.615   2.868   2.846 -0.1883 -0.0608 -0.4113
 4769TIP3    H214314   2.613   2.739   2.767  1.1980 -0.6318  0.4422
 4770TIP3   OH214315   0.673   2.365   3.987  0.3218 -0.9560 -0.5979
 4770TIP3    H114316   0.747   2.388   3.931  1.7383  0.6421  1.7646
 4770TIP3    H214317   0.603   2.426   3.961  1.1394  0.1434 -0.2859
 4771TIP3   OH214318   2.686   4.693   0.911  0.3798 -0.3135  0.1907
 4771TIP3    H114319   2.624   4.656   0.848  1.5560 -0.3382 -0.9795
 4771TIP3    H214320   2.720   4.616   0.959 -1.3365 -0.2052  1.6925
 4772TIP3   OH214321   5.011   2.179   2.620  0.2996  0.1641  0.4460
 4772TIP3    H114322   5.021   2.090   2.655  2.1031 -0.1385 -0.6931
 4772TIP3    H214323   5.068   2.181   2.543 -0.8316  1.8778 -0.4132
 4773TIP3   OH214324   0.138   5.488   4.777  0.2417  0.0638 -0.2474
 4773TIP3    H114325   0.057   5.486   4.828 -0.8505  1.3027 -1.8514
 4773TIP3    H214326   0.120   5.433   4.701  0.5646  1.0625 -1.0664
 4774TIP3   OH214327   5.686   5.378   4.607  0.3954  0.0232 -0.1068
 4774TIP3    H114328   5.649   5.296   4.641  0.3077 -0.4443 -1.2919
 4774TIP3    H214329   5.645   5.447   4.660  1.2184 -0.7276  1.6032
 4775TIP3   OH214330   3.594   3.367   5.011 -0.0019 -0.0305 -0.2108
 4775TIP3    H114331   3.626   3.297   5.068  1.0144  0.0785 -0.6157
 4775TIP3    H214332   3.650   3.361   4.933 -0.0557  1.0815 -0.3518
 4776TIP3   OH214333   4.640   0.043   1.811 -0.4400 -0.6927  0.1262
 4776TIP3    H114334   4.644   0.000   1.897 -0.4143  1.9889  1.5596
 4776TIP3    H214335   4.547   0.041   1.788 -0.5215 -0.9798  0.4690
 4777TIP3   OH214336   1.569   1.809   0.912 -0.2982 -0.7576 -0.3178
 4777TIP3    H114337   1.569   1.779   1.003 -1.0619 -2.0623 -0.7156
 4777TIP3    H214338   1.476   1.809   0.887 -0.0466 -1.0987 -1.3003
 4778TIP3   OH214339   3.521   5.321   0.771 -0.5700 -0.1954 -0.6512
 4778TIP3    H114340   3.511   5.414   0.752  0.2258  0.0476  0.0523
 4778TIP3    H214341   3.436   5.283   0.749 -1.0442  0.7673 -0.5415
 4779TIP3   OH214342   4.590   5.471   4.587 -0.4533  0.0058 -0.0170
 4779TIP3    H114343   4.649   5.465   4.662 -0.2481  0.6590 -0.1223
 4779TIP3    H214344   4.638   5.524   4.523  0.3851 -2.4613 -1.5860
 4780TIP3   OH214345   6.358   5.185   2.121 -0.1399 -0.4203  0.0768
 4780TIP3    H114346   6.262   5.181   2.127 -0.1136 -0.4868  0.4422
 4780TIP3    H214347   6.384   5.239   2.196  0.1707 -1.1211  0.4789
 4781TIP3   OH214348   4.487   2.774   1.718 -0.5889  0.2729  0.3619
 4781TIP3    H114349   4.404   2.806   1.753  0.7790  2.9617  1.4067
 4781TIP3    H214350   4.485   2.800   1.626 -1.4575 -0.9512  0.0131
 4782TIP3   OH214351   2.857   4.282   2.005  0.1880 -0.3083 -0.1769
 4782TIP3    H114352   2.892   4.193   2.003  0.5490 -0.2061  0.8453
 4782TIP3    H214353   2.931   4.337   1.978 -0.2998 -0.3623 -1.7438
 4783TIP3   OH214354   4.179   3.577   0.182  0.0998  0.1531  0.8664
 4783TIP3    H114355   4.232   3.561   0.104 -1.4034  1.0077 -0.3752
 4783TIP3    H214356   4.187   3.671   0.198  1.3812 -0.1815  2.5374
 4784TIP3   OH214357   3.238   2.642   2.305  0.1194 -0.0812  0.2015
 4784TIP3    H114358   3.160   2.697   2.308  0.8715  1.0772 -0.3260
 4784TIP3    H214359   3.298   2.690   2.247  0.6483 -1.7037 -0.6615
 4785TIP3   OH214360   4.822   3.848   0.746  0.4526 -0.0175  0.0441
 4785TIP3    H114361   4.801   3.934   0.781 -0.8869 -0.1232 -0.4630
 4785TIP3    H214362   4.757   3.833   0.677  0.4668 -1.5516  0.3314
 4786TIP3   OH214363   2.166   0.864   4.456 -0.0032  0.5450 -0.1199
 4786TIP3    H114364   2.136   0.790   4.510 -1.8281  0.9619 -0.5062
 4786TIP3    H214365   2.109   0.862   4.379 -0.1251  2.3957 -0.1072
 4787TIP3   OH214366   1.738   5.875   2.730  0.2414  0.6209 -0.2152
 4787TIP3    H114367   1.746   5.856   2.824  0.1873 -0.7223 -0.4657
 4787TIP3    H214368   1.796   5.811   2.688  0.0854  1.0643 -1.1147
 4788TIP3   OH214369   4.197   0.677   3.024 -0.6478  0.5471  0.2889
 4788TIP3    H114370   4.270   0.727   3.059 -0.8231  1.3670 -0.4688
 4788TIP3    H214371   4.121   0.735   3.034 -0.4278  1.6919 -3.0619
 4789TIP3   OH214372   3.957   0.786   0.079  0.0790  0.4045  0.5794
 4789TIP3    H114373   3.982   0.719   0.142 -1.1006  0.0300  0.6601
 4789TIP3    H214374   3.862   0.791   0.085 -0.0818  0.2279 -1.3156
 4790TIP3   OH214375   0.257   2.784   0.970  0.2595  0.4595  0.3305
 4790TIP3    H114376   0.259   2.690   0.990 -2.2183  0.3593  0.4027
 4790TIP3    H214377   0.295   2.790   0.882  2.0821 -0.3371  1.0092
 4791TIP3   OH214378   1.657   3.774   2.424 -0.1603  0.2133 -0.2600
 4791TIP3    H114379   1.637   3.717   2.350  0.5151  1.5306 -1.5133
 4791TIP3    H214380   1.710   3.845   2.386  3.1469 -0.7790  2.0006
 4792TIP3   OH214381   2.518   3.413   3.648 -0.7050 -0.4482  0.0293
 4792TIP3    H114382   2.470   3.331   3.652 -0.3080 -0.6386  2.2927
 4792TIP3    H214383   2.462   3.476   3.695 -0.5368  0.3369 -0.7845
 4793TIP3   OH214384   3.252   2.370   5.020 -0.1644  0.0522 -0.0284
 4793TIP3    H114385   3.252   2.293   4.964 -1.0291  1.1600 -1.6137
 4793TIP3    H214386   3.302   2.343   5.097  1.1785 -1.4788 -1.3652
 4794TIP3   OH214387   6.165   0.168   3.329  0.2365  0.0804  0.1144
 4794TIP3    H114388   6.130   0.079   3.323 -0.1833  0.2799 -0.5672
 4794TIP3    H214389   6.259   0.156   3.344 -0.0971 -0.4683  2.0813
 4795TIP3   OH214390   0.834   4.868   3.188  0.1405  0.7721 -0.0915
 4795TIP3    H114391   0.873   4.798   3.138 -1.6785 -0.4670  0.1203
 4795TIP3    H214392   0.783   4.918   3.124  1.1924  1.7732 -0.1885
 4796TIP3   OH214393   4.105   0.527   5.048 -0.0135 -0.5520 -0.9170
 4796TIP3    H114394   4.177   0.466   5.058  0.7334  0.5385  0.9574
 4796TIP3    H214395   4.034   0.489   5.101  1.4377  1.4865  2.9187
 4797TIP3   OH214396   2.889   0.734   3.835  0.2821  0.2287 -0.1704
 4797TIP3    H114397   2.822   0.799   3.812  0.1949  0.8530  1.6667
 4797TIP3    H214398   2.847   0.677   3.899  1.4760  0.6384  1.0280
 4798TIP3   OH214399   0.283   0.277   3.357 -0.9304 -0.2522  0.0675
 4798TIP3    H114400   0.216   0.343   3.336  1.0411  1.2890 -1.8859
 4798TIP3    H214401   0.340   0.321   3.421 -1.0835 -1.1196  0.8227
 4799TIP3   OH214402   4.879   4.830   4.865  0.5197 -0.0678  0.0865
 4799TIP3    H114403   4.907   4.753   4.817 -0.1470 -0.5087  0.3813
 4799TIP3    H214404   4.783   4.828   4.860  0.4900  0.6731  0.1981
 4800TIP3   OH214405   2.931   1.081   1.314  0.6913  0.2386  0.1925
 4800TIP3    H114406   2.851   1.102   1.364  0.2383 -0.2671 -0.3102
 4800TIP3    H214407   2.966   1.167   1.290  0.9094  0.4959  1.3522
 4801TIP3   OH214408   4.795   2.308   3.112 -0.2558 -0.1930  0.0994
 4801TIP3    H114409   4.791   2.213   3.125  0.6404 -0.0531  1.6019
 4801TIP3    H214410   4.862   2.320   3.044  0.2525 -0.5989  0.5218
 4802TIP3   OH214411   4.247   4.530   0.614  0.1441 -0.1594 -0.3332
 4802TIP3    H114412   4.326   4.563   0.657  0.2834 -0.9142  0.0040
 4802TIP3    H214413   4.194   4.494   0.685 -0.8103  0.9086 -0.4721
 4803TIP3   OH214414   1.237   0.331   3.442  0.4937  0.0391  0.0313
 4803TIP3    H114415   1.156   0.372   3.414  0.3806  0.1757  0.5552
 4803TIP3    H214416   1.210   0.249   3.483  0.5001  0.7180  1.4477
 4804TIP3   OH214417   0.067   0.290   3.145  0.0694  0.2844  0.5718
 4804TIP3    H114418  -0.025   0.302   3.120  0.5120  1.7524 -0.4496
 4804TIP3    H214419   0.082   0.357   3.212  0.6066  0.5520  0.1813
 4805TIP3   OH214420   2.124   4.745   2.503 -0.4112  0.5232 -0.3879
 4805TIP3    H114421   2.096   4.836   2.495 -0.2006  0.6577  0.3620
 4805TIP3    H214422   2.084   4.715   2.584 -0.6332 -0.1137 -0.7247
 4806TIP3   OH214423   3.862   0.501   4.801  0.2955 -0.0073 -0.1678
 4806TIP3    H114424   3.821   0.536   4.880  1.8583  1.3639  0.0904
 4806TIP3    H214425   3.798   0.517   4.732 -0.6293 -0.2112  0.6152
 4807TIP3   OH214426   2.801   3.468   2.044  0.5115  0.1690 -0.3082
 4807TIP3    H114427   2.834   3.477   2.133 -0.2085 -1.9557  0.2339
 4807TIP3    H214428   2.746   3.545   2.031  2.0301  1.4320  0.3969
 4808TIP3   OH214429   3.627   1.568   2.261 -0.1907  0.0653  0.1457
 4808TIP3    H114430   3.568   1.582   2.335  0.1052 -1.2703  0.6701
 4808TIP3    H214431   3.632   1.472   2.252  0.9808  0.1718 -0.6275
 4809TIP3   OH214432   2.469   4.063   2.644 -0.0567 -0.2411  0.6680
 4809TIP3    H114433   2.394   4.096   2.693  0.0687 -0.7763  1.2284
 4809TIP3    H214434   2.525   4.139   2.631 -1.5166  0.5981 -1.3440
 4810TIP3   OH214435   1.757   4.426   4.136 -0.2748  0.3621  0.4980
 4810TIP3    H114436   1.823   4.457   4.199  0.1949  1.7639 -0.6317
 4810TIP3    H214437   1.673   4.439   4.181 -0.0012  2.1146  0.5811
 4811TIP3   OH214438   5.894   0.513   0.522 -0.8109 -0.2546  0.3355
 4811TIP3    H114439   5.898   0.475   0.434 -0.8577  1.5405 -0.4801
 4811TIP3    H214440   5.803   0.501   0.549 -1.2351  0.7226 -0.6024
 4812TIP3   OH214441   4.527   3.308   3.149  0.3985  0.3094  0.1660
 4812TIP3    H114442   4.505   3.283   3.059 -0.1562  0.1405  0.3420
 4812TIP3    H214443   4.442   3.327   3.189  0.7523  1.9036  0.2144
 4813TIP3   OH214444   1.634   5.298   1.527  0.4771 -0.2765  0.3446
 4813TIP3    H114445   1.704   5.362   1.536  1.9114 -1.7281 -0.0326
 4813TIP3    H214446   1.657   5.228   1.588  0.0263 -1.3352 -0.6687
 4814TIP3   OH214447   1.633   2.428   0.968 -0.6562 -0.3048  0.1796
 4814TIP3    H114448   1.717   2.394   0.936 -0.4793 -0.5871  0.9297
 4814TIP3    H214449   1.657   2.504   1.021 -0.9745  0.3659 -0.6214
 4815TIP3   OH214450   1.163   3.190   4.993 -0.1095  0.2592 -0.1947
 4815TIP3    H114451   1.247   3.147   4.982  0.9275  2.2181 -0.4469
 4815TIP3    H214452   1.185   3.282   5.007 -2.1702  0.6448  0.8954
 4816TIP3   OH214453   1.055   3.629   3.924  0.0113  0.2755 -0.2860
 4816TIP3    H114454   1.018   3.717   3.927 -1.0749 -0.1954  0.6906
 4816TIP3    H214455   1.036   3.598   3.836 -0.6267  0.5845 -0.2590
 4817TIP3   OH214456   2.139   4.746   1.148  0.1055  0.4998 -0.3155
 4817TIP3    H114457   2.146   4.841   1.136  0.9448  0.6930  1.3736
 4817TIP3    H214458   2.196   4.709   1.080 -1.8667  1.0528 -2.3883
 4818TIP3   OH214459   3.101   5.964   1.385  0.5359 -0.4129  0.1103
 4818TIP3    H114460   3.073   5.976   1.476  1.0300  0.9608  0.0947
 4818TIP3    H214461   3.027   5.997   1.333  0.2301 -1.2483 -0.0104
 4819TIP3   OH214462   5.003   2.825   4.042 -0.7082 -0.0022 -0.3484
 4819TIP3    H114463   4.956   2.908   4.045 -0.2701  0.2430  2.2969
 4819TIP3    H214464   4.938   2.759   4.069  0.0888  0.2413  2.5615
 4820TIP3   OH214465   1.451   4.213   4.324 -0.2312 -0.2526 -0.1801
 4820TIP3    H114466   1.515   4.142   4.315 -0.9943 -0.9378 -0.3081
 4820TIP3    H214467   1.492   4.273   4.386  0.6050 -0.5952 -0.3730
 4821TIP3   OH214468  -0.002   3.372   4.434  0.1363 -0.0598  0.1245
 4821TIP3    H114469   0.092   3.371   4.417 -0.1546  1.0468 -1.9597
 4821TIP3    H214470  -0.035   3.291   4.394  0.3005 -1.0073  1.8333
 4822TIP3   OH214471   1.271   1.969   2.206  0.0170  0.0930  0.1222
 4822TIP3    H114472   1.200   2.033   2.214 -0.5512 -0.5357  0.1554
 4822TIP3    H214473   1.252   1.923   2.125  0.1708 -0.3350  0.3279
 4823TIP3   OH214474   0.126   3.836   2.431 -0.5594 -0.1614 -0.0220
 4823TIP3    H114475   0.106   3.745   2.452 -1.9088 -0.4469 -2.2535
 4823TIP3    H214476   0.216   3.834   2.398 -0.6861 -0.7384 -0.3385
 4824TIP3   OH214477   5.793   0.999   1.107  0.1657 -0.0797 -0.2067
 4824TIP3    H114478   5.739   0.956   1.173 -0.8445 -1.0163 -1.5819
 4824TIP3    H214479   5.816   0.929   1.046  0.5274  0.8727 -1.2008
 4825TIP3   OH214480   4.993   5.283   2.621  0.0293 -0.3862  0.7780
 4825TIP3    H114481   4.993   5.346   2.550 -0.4611  0.5871  1.6243
 4825TIP3    H214482   4.910   5.237   2.613  1.5831 -3.1222 -1.6731
 4826TIP3   OH214483   4.818   2.996   1.035 -0.5603 -0.3950 -0.4221
 4826TIP3    H114484   4.871   3.023   0.960 -0.0393  1.9388  0.6937
 4826TIP3    H214485   4.878   2.942   1.087 -0.1065  0.0578 -0.4615
 4827TIP3   OH214486   1.379   2.717   1.078  0.4531 -0.4692 -0.2001
 4827TIP3    H114487   1.341   2.661   1.146 -0.8321 -0.4002 -0.8305
 4827TIP3    H214488   1.344   2.804   1.096  0.0103 -0.4695 -0.9965
 4828TIP3   OH214489   3.261   0.400   3.123 -0.3759  0.0694 -0.8562
 4828TIP3    H114490   3.271   0.309   3.153  0.3545  0.3563 -0.1861
 4828TIP3    H214491   3.263   0.394   3.028  3.3783 -0.3140 -0.9000
 4829TIP3   OH214492   5.379   1.677   1.656 -0.3954 -0.6519  0.0311
 4829TIP3    H114493   5.471   1.678   1.631 -0.3687  0.4428  0.1253
 4829TIP3    H214494   5.378   1.715   1.744 -1.0198  0.1229 -0.2987
 4830TIP3   OH214495   0.143   4.676   0.202  0.0640 -0.2418 -0.7179
 4830TIP3    H114496   0.079   4.612   0.172 -0.2353 -0.4093  0.2484
 4830TIP3    H214497   0.093   4.738   0.256  0.5958 -0.0086 -0.4720
 4831TIP3   OH214498   2.395   0.319   3.157  0.3987 -0.3460  0.2436
 4831TIP3    H114499   2.454   0.357   3.092 -1.4644 -0.3338 -1.5252
 4831TIP3    H214500   2.389   0.227   3.133 -1.5282 -0.0267 -0.6469
 4832TIP3   OH214501   0.028   2.294   0.008 -0.0723  0.3605 -0.5125
 4832TIP3    H114502   0.028   2.201  -0.017  0.3468  0.2645 -0.1618
 4832TIP3    H214503  -0.015   2.296   0.094 -0.0553  0.4909 -0.5066
 4833TIP3   OH214504   4.650   0.907   4.072 -0.6994 -0.2117 -0.1685
 4833TIP3    H114505   4.633   0.868   4.158 -1.9176 -1.4331 -0.9110
 4833TIP3    H214506   4.739   0.942   4.078 -0.3459 -1.2620  1.2318
 4834TIP3   OH214507   2.738   0.911   0.854  0.3614  0.6662  0.3398
 4834TIP3    H114508   2.776   0.988   0.811  1.2986 -0.1387 -0.3050
 4834TIP3    H214509   2.719   0.940   0.943  0.0072  1.8602 -0.1039
 4835TIP3   OH214510   4.648   5.778   4.097  0.1061 -0.2197  0.0269
 4835TIP3    H114511   4.742   5.764   4.090  0.0065 -1.4704  0.7639
 4835TIP3    H214512   4.613   5.758   4.010  0.4175 -0.8053  0.0331
 4836TIP3   OH214513   4.510   4.611   1.040  0.0778 -0.6544  0.0745
 4836TIP3    H114514   4.465   4.662   1.108 -1.3118 -1.2291 -0.3771
 4836TIP3    H214515   4.603   4.623   1.059 -0.2591  0.1535  1.3658
 4837TIP3   OH214516   3.935   2.812   1.042  0.2564 -0.3214 -0.2889
 4837TIP3    H114517   3.846   2.846   1.053  0.7129  0.9557 -0.3496
 4837TIP3    H214518   3.923   2.719   1.025 -1.1595  0.0508 -1.5953
 4838TIP3   OH214519   6.101   0.715   4.230  0.4700  0.3455  0.0131
 4838TIP3    H114520   6.009   0.730   4.210  0.3541 -0.0543  0.2536
 4838TIP3    H214521   6.148   0.748   4.153  0.0959  0.0389 -0.3473
 4839TIP3   OH214522   2.153   5.182   0.428 -0.0736  0.2306 -0.4117
 4839TIP3    H114523   2.148   5.268   0.470  0.5404 -0.2844  0.7921
 4839TIP3    H214524   2.207   5.195   0.351 -2.9240  1.6504 -2.3203
 4840TIP3   OH214525   0.231   0.353   3.769  0.1268 -0.4050  0.3092
 4840TIP3    H114526   0.200   0.284   3.710 -0.3209 -0.6872  0.8632
 4840TIP3    H214527   0.290   0.405   3.715 -1.6499  0.4321 -0.9645
 4841TIP3   OH214528   1.903   3.738   1.280  0.7151 -0.3205 -0.4261
 4841TIP3    H114529   1.873   3.808   1.338  1.0680  0.5537 -1.2753
 4841TIP3    H214530   1.983   3.706   1.320  1.3440  0.7599 -0.7843
 4842TIP3   OH214531   1.716   1.449   1.266 -0.1200  0.0384  0.1746
 4842TIP3    H114532   1.807   1.462   1.292  0.0228 -0.2911 -0.1582
 4842TIP3    H214533   1.683   1.382   1.326  0.1042 -0.4583 -0.2552
 4843TIP3   OH214534   5.173   0.110   3.491  0.0534  0.3685 -0.3696
 4843TIP3    H114535   5.196   0.055   3.417  0.5345  3.5484 -2.8045
 4843TIP3    H214536   5.077   0.107   3.494  0.0863 -1.3517  0.2785
 4844TIP3   OH214537   3.483   3.573   4.767  0.6604  0.5834  0.4726
 4844TIP3    H114538   3.460   3.563   4.859 -0.3831 -1.7264  0.0366
 4844TIP3    H214539   3.569   3.615   4.768 -0.3815  2.9429  2.3827
 4845TIP3   OH214540   1.716   3.631   3.575  0.3912 -0.5586 -0.2733
 4845TIP3    H114541   1.646   3.566   3.562  0.1332  0.1456 -2.9934
 4845TIP3    H214542   1.791   3.594   3.528  0.9942 -0.0126  0.2491
 4846TIP3   OH214543   1.943   0.793   1.694  0.0595  0.6203 -0.0933
 4846TIP3    H114544   1.955   0.858   1.763  0.4758  0.3493  0.0989
 4846TIP3    H214545   1.967   0.839   1.614  0.2116  0.7485  0.0238
 4847TIP3   OH214546   0.419   1.014   2.691  0.4448 -0.2938  0.6447
 4847TIP3    H114547   0.435   0.947   2.758 -1.4384  0.1085  1.5691
 4847TIP3    H214548   0.379   0.966   2.619 -0.6760 -0.2546  1.2089
 4848TIP3   OH214549   5.077   2.688   5.105 -0.6912 -0.0427  0.2763
 4848TIP3    H114550   5.033   2.746   5.043  2.6546  0.8681 -1.5151
 4848TIP3    H214551   5.118   2.748   5.168 -0.1318 -0.6532  0.5012
 4849TIP3   OH214552   3.533   2.686   1.134 -0.2627 -0.8487 -0.2770
 4849TIP3    H114553   3.536   2.693   1.229 -0.4782 -2.5514 -0.1047
 4849TIP3    H214554   3.582   2.606   1.115 -0.1316 -0.4765 -1.6132
 4850TIP3   OH214555   6.114   0.609   3.743  0.3069 -0.0865 -0.2313
 4850TIP3    H114556   6.092   0.560   3.822 -1.9880  1.2213  0.0400
 4850TIP3    H214557   6.127   0.542   3.676 -1.4349 -1.1587  0.4237
 4851TIP3   OH214558   4.434   3.763   3.282 -0.1488  0.1063  0.2037
 4851TIP3    H114559   4.403   3.688   3.331 -0.5488  0.6160  0.7406
 4851TIP3    H214560   4.375   3.769   3.206  0.5773 -0.7833 -0.4479
 4852TIP3   OH214561   1.998   3.108   0.450 -0.3919 -0.8335  0.1172
 4852TIP3    H114562   2.035   3.092   0.363 -0.7965  2.2918 -0.7520
 4852TIP3    H214563   1.910   3.072   0.446 -0.3027 -0.9825 -0.6787
 4853TIP3   OH214564   4.011   2.672   1.717  0.4691 -0.0465 -0.1118
 4853TIP3    H114565   3.966   2.588   1.727  0.1318  0.0386 -0.8458
 4853TIP3    H214566   3.984   2.703   1.630  1.0206  0.5616 -0.0693
 4854TIP3   OH214567   1.568   1.322   2.059 -0.4825 -0.1694  0.1074
 4854TIP3    H114568   1.497   1.267   2.093 -0.2280 -1.7296 -1.7233
 4854TIP3    H214569   1.524   1.387   2.004 -0.5049 -1.2837 -1.2162
 4855TIP3   OH214570   4.685   5.094   1.288 -0.3637 -0.5893  0.0621
 4855TIP3    H114571   4.766   5.043   1.284 -0.6730 -1.0592 -0.3747
 4855TIP3    H214572   4.683   5.129   1.377  0.5913 -0.1184 -0.0902
 4856TIP3   OH214573   5.668   3.552   2.180 -0.5725 -0.1480 -0.3421
 4856TIP3    H114574   5.578   3.524   2.195 -0.1765 -1.5261 -0.3857
 4856TIP3    H214575   5.691   3.516   2.094 -0.0987  0.5048 -0.4959
 4857TIP3   OH214576   4.992   4.327   5.088  0.0063  0.4503  0.7936
 4857TIP3    H114577   4.947   4.390   5.032  0.4343  0.5878  0.5973
 4857TIP3    H214578   4.923   4.289   5.142 -0.5073 -0.0653 -0.1839
 4858TIP3   OH214579   1.772   2.686   3.242 -0.0608 -0.3651  0.0319
 4858TIP3    H114580   1.758   2.592   3.231 -1.0525 -0.2217 -0.0273
 4858TIP3    H214581   1.699   2.716   3.296 -1.4034  0.8427 -2.2995
 4859TIP3   OH214582   2.724   3.252   3.062 -0.5607  0.2774 -0.1646
 4859TIP3    H114583   2.668   3.325   3.088  0.4894  0.7433  0.8807
 4859TIP3    H214584   2.803   3.293   3.028  0.5879 -0.3128  1.6520
 4860TIP3   OH214585   1.238   1.705   0.282 -0.1921 -0.0812 -0.1214
 4860TIP3    H114586   1.284   1.683   0.201  0.6327  1.4606 -0.1138
 4860TIP3    H214587   1.289   1.777   0.319  0.9599 -2.3741  3.1271
 4861TIP3   OH214588   4.347   0.375   4.137  0.1086 -0.3687  0.5139
 4861TIP3    H114589   4.339   0.419   4.052 -2.6954 -2.2728 -0.3044
 4861TIP3    H214590   4.312   0.439   4.200  1.8400  0.8970  0.2790
 4862TIP3   OH214591   4.231   5.435   1.694 -0.3186 -0.2640  0.2237
 4862TIP3    H114592   4.322   5.461   1.704 -0.9452  1.7499  1.2197
 4862TIP3    H214593   4.235   5.344   1.665  1.9947 -0.0700 -0.2378
 4863TIP3   OH214594   6.017   3.707   4.587  0.2803  0.3201 -0.0256
 4863TIP3    H114595   5.961   3.743   4.518 -0.7617 -0.3818  0.4266
 4863TIP3    H214596   6.040   3.782   4.642 -0.7083  0.5391  0.1071
 4864TIP3   OH214597   3.618   0.216   0.992  0.1743 -0.5842  0.3910
 4864TIP3    H114598   3.534   0.254   0.966 -0.1997 -1.9493 -0.4999
 4864TIP3    H214599   3.594   0.136   1.040  0.9103 -2.0922 -1.5901
 4865TIP3   OH214600   3.098   3.931   4.953  0.2975  0.2267 -0.0577
 4865TIP3    H114601   3.180   3.968   4.919 -0.0281  1.6494  0.6452
 4865TIP3    H214602   3.088   3.970   5.040 -0.6758 -0.6409  0.2434
 4866TIP3   OH214603   1.022   1.070   0.277  0.0362 -1.3305 -0.5065
 4866TIP3    H114604   0.966   1.050   0.353 -0.3736 -2.3200 -1.0462
 4866TIP3    H214605   1.070   1.149   0.302 -2.4819  0.2788 -0.4942
 4867TIP3   OH214606   5.966   3.510   5.003 -0.0529 -0.3976  0.1636
 4867TIP3    H114607   5.969   3.515   4.907 -0.3556 -1.2324  0.1114
 4867TIP3    H214608   5.895   3.569   5.028 -0.5911 -0.8940 -0.1846
 4868TIP3   OH214609   4.293   5.594   4.176  1.0539  0.0582  0.2038
 4868TIP3    H114610   4.228   5.548   4.229  0.0327  0.5136 -0.6223
 4868TIP3    H214611   4.252   5.603   4.090  1.8206  1.1975 -0.0624
 4869TIP3   OH214612   0.455   4.697   3.273  0.1824  0.3830 -0.2310
 4869TIP3    H114613   0.368   4.659   3.281 -0.6922  2.5150  1.5727
 4869TIP3    H214614   0.447   4.763   3.205  0.4272  0.5086 -0.1400
 4870TIP3   OH214615   1.190   1.513   3.539 -0.1257  0.1837  0.0191
 4870TIP3    H114616   1.226   1.595   3.573 -2.0839  1.5100 -0.8936
 4870TIP3    H214617   1.229   1.444   3.593  1.4086  1.7237  0.9559
 4871TIP3   OH214618   4.365   2.288   1.328 -0.0726  0.5201 -0.0838
 4871TIP3    H114619   4.350   2.193   1.327  0.8742  0.3513  0.5077
 4871TIP3    H214620   4.426   2.303   1.256 -0.8244  0.8066 -0.6790
 4872TIP3   OH214621   4.775   2.941   3.655  0.2818 -0.1241  0.0427
 4872TIP3    H114622   4.702   2.981   3.702 -0.7122 -0.4323 -1.1756
 4872TIP3    H214623   4.845   3.007   3.658 -0.3575  0.5513  0.4692
 4873TIP3   OH214624   0.112   2.963   3.293 -0.0861 -0.4974  0.0747
 4873TIP3    H114625   0.198   2.923   3.303 -0.1941 -0.3133  2.3519
 4873TIP3    H214626   0.089   2.993   3.381 -1.5598  1.3862 -0.8656
 4874TIP3   OH214627   2.444   1.425   3.601 -0.1244 -0.5624 -0.1954
 4874TIP3    H114628   2.502   1.446   3.528 -0.6877 -0.5324 -0.6457
 4874TIP3    H214629   2.386   1.501   3.608 -0.6857 -0.9675 -0.3397
 4875TIP3   OH214630   5.099   2.362   0.358 -0.3410  0.2587  0.3151
 4875TIP3    H114631   5.074   2.428   0.293 -0.8992 -0.6732 -0.4474
 4875TIP3    H214632   5.044   2.286   0.337  0.2681 -0.4399  1.1853
 4876TIP3   OH214633   3.749   5.187   1.708 -0.8271  0.5932  0.8868
 4876TIP3    H114634   3.722   5.154   1.622  0.3083  0.1186  0.7036
 4876TIP3    H214635   3.822   5.131   1.733 -0.9696  0.9055  2.0476
 4877TIP3   OH214636   5.673   4.904   3.665 -0.0148 -0.2855 -0.2340
 4877TIP3    H114637   5.670   4.878   3.573  0.0962 -0.6752 -0.1310
 4877TIP3    H214638   5.764   4.931   3.680 -0.4908  1.7415 -0.7525
 4878TIP3   OH214639   1.906   0.895   2.378  0.2277 -0.5789 -0.0090
 4878TIP3    H114640   1.985   0.852   2.345 -0.4181 -1.5529 -0.3040
 4878TIP3    H214641   1.886   0.851   2.460 -0.0307 -0.3614  0.0476
 4879TIP3   OH214642   2.522   5.804   0.494  0.2493 -0.4074  0.9498
 4879TIP3    H114643   2.618   5.808   0.492  0.2449 -0.3927  0.7978
 4879TIP3    H214644   2.501   5.800   0.587  0.3382  1.0781  1.0582
 4880TIP3   OH214645   5.710   3.072   4.905  0.2193  0.0761 -0.0079
 4880TIP3    H114646   5.727   3.164   4.886 -0.6626  0.2189 -0.1492
 4880TIP3    H214647   5.764   3.024   4.842  1.4332  0.4688  0.7032
 4881TIP3   OH214648   4.435   0.844   0.577  0.6206  0.2699 -0.1996
 4881TIP3    H114649   4.344   0.870   0.564  0.3800  0.2911  1.3604
 4881TIP3    H214650   4.431   0.772   0.640  1.6022 -0.6005 -1.0807
 4882TIP3   OH214651   0.461   0.664   4.009  0.0792 -0.7539  0.2127
 4882TIP3    H114652   0.519   0.730   4.046  1.3136 -1.2768 -0.7310
 4882TIP3    H214653   0.390   0.656   4.073  0.1657  1.0997  0.5775
 4883TIP3   OH214654   5.345   4.781   3.540  0.0192 -0.0517 -0.3254
 4883TIP3    H114655   5.429   4.735   3.534  0.8760  1.5249 -1.1199
 4883TIP3    H214656   5.352   4.833   3.620 -1.2237 -1.7400  0.9557
 4884TIP3   OH214657   3.076   2.544   2.505  0.2952  0.4871  0.2849
 4884TIP3    H114658   2.997   2.556   2.452  1.0840 -0.7919 -1.2561
 4884TIP3    H214659   3.148   2.564   2.446  1.3133 -3.0030  0.1428
 4885TIP3   OH214660   4.914   3.628   2.274  0.3372  0.5322  0.2782
 4885TIP3    H114661   4.851   3.597   2.339  0.3871 -2.0562 -0.7777
 4885TIP3    H214662   4.861   3.653   2.199  0.4522  0.1857  0.0783
 4886TIP3   OH214663   0.872   1.784   0.628  0.4429 -0.2561 -0.2079
 4886TIP3    H114664   0.921   1.798   0.548  1.5865 -2.0962  0.1035
 4886TIP3    H214665   0.925   1.826   0.696 -0.3251  0.9535 -0.3192
 4887TIP3   OH214666   1.597   4.272   3.430 -0.0509 -0.5506  0.0577
 4887TIP3    H114667   1.648   4.250   3.352 -0.6663 -1.9351  0.0217
 4887TIP3    H214668   1.572   4.187   3.468 -0.8849  0.0943  1.0177
 4888TIP3   OH214669   0.464   5.088   2.793  0.0984  0.2899 -0.2880
 4888TIP3    H114670   0.383   5.037   2.799  1.0576 -1.1443  1.7359
 4888TIP3    H214671   0.445   5.168   2.843  0.5711 -1.1025  2.3084
 4889TIP3   OH214672   1.041   4.547   5.094 -0.2270  0.7048  0.3131
 4889TIP3    H114673   1.060   4.568   5.003 -2.5158 -2.2083 -1.0070
 4889TIP3    H214674   1.099   4.473   5.114 -0.9408  0.2161  0.6117
 4890TIP3   OH214675   3.342   2.563   3.502  0.5472  0.7178 -0.1986
 4890TIP3    H114676   3.408   2.564   3.433 -0.3627 -0.9175 -1.1499
 4890TIP3    H214677   3.385   2.518   3.575  0.3509 -0.8202 -0.9967
 4891TIP3   OH214678   5.532   4.906   2.770 -0.5925  0.3495 -0.1715
 4891TIP3    H114679   5.494   4.896   2.683  1.2482  2.0432 -1.2540
 4891TIP3    H214680   5.542   4.817   2.802 -1.2565 -0.3174 -1.7226
 4892TIP3   OH214681   2.612   4.326   1.897  0.3705  0.0210  0.2075
 4892TIP3    H114682   2.692   4.302   1.944  0.2119 -0.1833  0.3751
 4892TIP3    H214683   2.625   4.418   1.873 -0.3331  0.7289  2.3159
 4893TIP3   OH214684   1.718   2.691   0.187 -0.8614 -0.2494  0.3722
 4893TIP3    H114685   1.666   2.729   0.258 -2.9610  2.3592 -2.3271
 4893TIP3    H214686   1.807   2.722   0.204 -1.6898  2.1216  0.8381
 4894TIP3   OH214687   3.361   4.074   4.968  0.0917  0.4571 -0.3011
 4894TIP3    H114688   3.337   4.123   5.047 -2.4599  0.6827 -1.1475
 4894TIP3    H214689   3.420   4.005   5.000  0.8315  1.8207  1.4479
 4895TIP3   OH214690   0.052   4.939   3.973  0.1067 -0.6813  0.6623
 4895TIP3    H114691   0.004   5.022   3.982 -1.2649 -1.2817 -0.6188
 4895TIP3    H214692   0.003   4.877   4.026  1.1142 -0.7004  1.5926
 4896TIP3   OH214693   6.126   1.594   1.663  0.7136 -0.6590 -0.2760
 4896TIP3    H114694   6.214   1.559   1.679  0.2988 -1.3388  0.5446
 4896TIP3    H214695   6.109   1.573   1.571  1.2823 -0.7934 -0.3575
 4897TIP3   OH214696   5.290   5.364   0.772  0.2272  0.2546 -0.2375
 4897TIP3    H114697   5.208   5.396   0.734 -0.4925 -0.4766  0.6383
 4897TIP3    H214698   5.312   5.287   0.719 -1.0353 -1.0555  1.0381
 4898TIP3   OH214699   3.256   0.869   0.656 -0.0881 -0.0584 -0.7061
 4898TIP3    H114700   3.311   0.821   0.595 -0.4996  0.9136 -1.8765
 4898TIP3    H214701   3.179   0.813   0.669  0.5317 -0.7982 -0.1252
 4899TIP3   OH214702   3.734   5.555   3.203  0.0490  0.0221 -0.4993
 4899TIP3    H114703   3.677   5.493   3.247 -0.3218  0.4184 -0.4240
 4899TIP3    H214704   3.744   5.519   3.114  2.1534 -1.6974  0.3166
 4900TIP3   OH214705   0.508   3.479   1.299 -0.6843 -0.4512 -0.3771
 4900TIP3    H114706   0.440   3.412   1.313 -0.5215 -0.1182  2.7433
 4900TIP3    H214707   0.469   3.560   1.329  0.3524  0.1800 -0.6727
 4901TIP3   OH214708   0.719   3.628   0.844 -0.2984 -0.4546  0.9948
 4901TIP3    H114709   0.695   3.626   0.936  1.3507 -0.8805  1.4568
 4901TIP3    H214710   0.744   3.538   0.824  2.0780  0.1346  0.9647
 4902TIP3   OH214711   2.715   0.564   3.976  0.4690  0.6793  0.2660
 4902TIP3    H114712   2.645   0.532   3.920  2.3236 -1.0429 -1.2275
 4902TIP3    H214713   2.718   0.501   4.049  1.4091 -0.1842 -0.4867
 4903TIP3   OH214714   5.430   5.066   4.823  0.3099  0.1741  0.0221
 4903TIP3    H114715   5.406   5.152   4.788 -0.0259  0.2841  0.5087
 4903TIP3    H214716   5.355   5.041   4.877 -0.1999 -1.0394 -1.1795
 4904TIP3   OH214717   4.800   5.095   0.076 -0.8557  0.3305  0.3242
 4904TIP3    H114718   4.830   5.146   0.151  0.7969  0.8773 -0.6712
 4904TIP3    H214719   4.831   5.006   0.093 -0.4879  0.4525  0.2921
 4905TIP3   OH214720   2.454   0.280   2.861 -0.1848  0.2515 -0.4044
 4905TIP3    H114721   2.390   0.319   2.801 -1.2106  4.4330  2.9355
 4905TIP3    H214722   2.506   0.354   2.892  1.9684 -2.0530  1.9295
 4906TIP3   OH214723   2.231   4.727   0.707  0.1153  0.3173  0.2820
 4906TIP3    H114724   2.297   4.782   0.751  2.1747 -0.6270 -1.4428
 4906TIP3    H214725   2.193   4.784   0.641 -1.0516  0.9441  1.4512
 4907TIP3   OH214726   3.219   3.067   3.683 -0.6038  0.2857  0.4359
 4907TIP3    H114727   3.134   3.024   3.674 -0.6647  0.3661  0.6250
 4907TIP3    H214728   3.255   3.034   3.765  0.8499 -1.9882 -1.0165
 4908TIP3   OH214729   5.581   5.958   4.517 -0.4552 -0.1617  0.2427
 4908TIP3    H114730   5.613   6.048   4.511  0.0579 -0.3246  0.4473
 4908TIP3    H214731   5.631   5.911   4.450 -0.9961 -0.2206 -0.1245
 4909TIP3   OH214732   2.164   4.573   4.599 -0.2244  0.7431 -0.3109
 4909TIP3    H114733   2.210   4.623   4.667 -1.7886  0.2991  1.1523
 4909TIP3    H214734   2.077   4.613   4.595 -1.1861 -1.1744  0.1920
 4910TIP3   OH214735   0.969   3.615   1.395  0.2006  0.0228  0.0275
 4910TIP3    H114736   1.054   3.633   1.356  0.5545 -1.4406  0.0826
 4910TIP3    H214737   0.907   3.624   1.322  0.4316  0.7628 -0.0826
 4911TIP3   OH214738   1.941   2.157   1.125 -0.4802 -0.1228  0.1079
 4911TIP3    H114739   1.954   2.237   1.176  1.1852 -0.2932  0.0138
 4911TIP3    H214740   1.911   2.188   1.040 -0.2130  0.3920  0.1931
 4912TIP3   OH214741   0.855   2.032   4.305  0.5686  0.4548  0.2221
 4912TIP3    H114742   0.942   2.058   4.275 -1.2766  4.8266 -2.2996
 4912TIP3    H214743   0.819   1.981   4.233  0.9595 -1.3561  1.2650
 4913TIP3   OH214744   1.201   4.458   4.519  0.6417  0.4353 -0.5599
 4913TIP3    H114745   1.134   4.436   4.583  1.3497 -2.7143 -0.7352
 4913TIP3    H214746   1.159   4.442   4.434  1.1688 -0.1616 -0.7130
 4914TIP3   OH214747   0.863   1.252   4.113 -0.2006  0.6171 -0.7331
 4914TIP3    H114748   0.862   1.346   4.127 -2.3610  0.8117 -1.7476
 4914TIP3    H214749   0.951   1.232   4.083  0.1228  2.3965 -1.0399
 4915TIP3   OH214750   5.048   5.885   0.321 -0.6677  0.1975  1.2681
 4915TIP3    H114751   5.066   5.954   0.256  0.1221 -0.3822  0.8534
 4915TIP3    H214752   5.105   5.813   0.295 -1.1603 -0.4538  1.9657
 4916TIP3   OH214753   2.428   1.350   1.654  0.1235  0.2470 -0.0930
 4916TIP3    H114754   2.520   1.372   1.640  0.8201 -2.4787 -0.3407
 4916TIP3    H214755   2.396   1.417   1.714  2.0837  1.6375 -0.5214
 4917TIP3   OH214756   4.345   5.629   4.509  0.1821 -0.4277 -0.0396
 4917TIP3    H114757   4.425   5.669   4.474  0.7987  0.8364  2.5814
 4917TIP3    H214758   4.376   5.571   4.578 -1.1430  1.3297  2.1758
 4918TIP3   OH214759   2.111   3.447   2.127  0.3611 -0.1565 -0.2220
 4918TIP3    H114760   2.176   3.376   2.124 -1.3064 -1.8131  0.7796
 4918TIP3    H214761   2.029   3.404   2.151 -1.0345  1.9379 -0.8929
 4919TIP3   OH214762   0.947   0.097   0.178  0.2629 -0.5482 -0.0249
 4919TIP3    H114763   1.034   0.072   0.209  0.1017 -1.7249 -0.4693
 4919TIP3    H214764   0.960   0.123   0.087  0.1000 -1.1017 -0.2112
 4920TIP3   OH214765   0.082   2.978   0.238  0.0883  0.3126 -0.1547
 4920TIP3    H114766   0.101   2.926   0.159  0.8313  0.0703  0.1780
 4920TIP3    H214767  -0.014   2.974   0.246  0.1819 -3.3509  1.3634
 4921TIP3   OH214768   3.368   1.887   4.619 -0.1592 -0.3926  0.2148
 4921TIP3    H114769   3.283   1.850   4.644 -1.3181  2.7789  1.4990
 4921TIP3    H214770   3.367   1.887   4.524 -0.7427 -2.1294  0.1870
 4922TIP3   OH214771   5.544   5.119   4.312 -0.5536  0.7456 -0.3984
 4922TIP3    H114772   5.467   5.077   4.348  0.9088 -1.8097  0.0111
 4922TIP3    H214773   5.616   5.089   4.368  1.3157 -0.5302 -3.2125
 4923TIP3   OH214774   5.237   2.625   3.573 -0.2722 -0.3401 -0.3207
 4923TIP3    H114775   5.195   2.710   3.590  2.1470  0.5385  1.9727
 4923TIP3    H214776   5.167   2.561   3.587 -1.4465  1.1244  0.9375
 4924TIP3   OH214777   2.161   0.707   3.255 -0.8843  0.1781 -0.0244
 4924TIP3    H114778   2.073   0.733   3.283 -0.0854  0.9351  1.9836
 4924TIP3    H214779   2.151   0.615   3.228 -1.8762 -0.5223  2.4374
 4925TIP3   OH214780   5.717   1.994   0.140 -0.4616  0.1612  0.4341
 4925TIP3    H114781   5.796   2.016   0.189 -0.1459  0.6086 -0.2461
 4925TIP3    H214782   5.668   2.076   0.136  0.2475  0.5590 -1.2733
 4926TIP3   OH214783   0.626   3.777   3.160  0.1793  0.5552  0.0224
 4926TIP3    H114784   0.558   3.844   3.151 -0.3765  0.1453  0.9461
 4926TIP3    H214785   0.577   3.695   3.166  0.8675 -0.0064 -1.5576
 4927TIP3   OH214786   1.831   1.340   4.015 -0.1918 -0.1264  0.1794
 4927TIP3    H114787   1.759   1.294   3.972 -0.5063 -0.1605  0.7304
 4927TIP3    H214788   1.878   1.383   3.944 -0.5776 -0.3526 -0.2173
 4928TIP3   OH214789   5.986   0.490   4.496  0.0531  0.0607  0.1148
 4928TIP3    H114790   5.956   0.444   4.574 -0.1238  0.4944  0.3064
 4928TIP3    H214791   5.956   0.580   4.508  0.0848  0.1484 -0.4211
 4929TIP3   OH214792   4.149   4.611   1.011 -0.6173 -0.1853  0.1770
 4929TIP3    H114793   4.236   4.572   1.023 -0.3013  0.9122  1.7796
 4929TIP3    H214794   4.167   4.703   0.995 -1.4998  0.2696  1.6593
 4930TIP3   OH214795   6.209   0.995   4.088  0.7771 -0.1496 -0.1222
 4930TIP3    H114796   6.258   0.919   4.057  1.0211  0.0716 -0.2791
 4930TIP3    H214797   6.128   0.994   4.036  0.7798 -0.3031 -0.1230
 4931TIP3   OH214798   0.755   4.125   4.098  0.1329  0.1324 -0.8262
 4931TIP3    H114799   0.662   4.104   4.102  0.7314 -2.7634  1.9810
 4931TIP3    H214800   0.785   4.082   4.017 -0.7035 -0.1056 -1.0192
 4932TIP3   OH214801   3.192   0.471   5.005  0.4751  0.0957 -0.0734
 4932TIP3    H114802   3.108   0.466   4.960  0.1294 -0.1374  0.5901
 4932TIP3    H214803   3.184   0.412   5.080  1.3359 -0.1652 -0.1684
 4933TIP3   OH214804   2.324   1.928   2.208  0.3317 -0.2871 -0.2193
 4933TIP3    H114805   2.271   1.987   2.261 -1.2802  0.6124 -2.6813
 4933TIP3    H214806   2.414   1.943   2.238 -0.3687  1.0343  1.3853
 4934TIP3   OH214807   1.736   3.018   0.375  0.1143 -0.1506 -0.6072
 4934TIP3    H114808   1.642   3.026   0.361  0.1950 -0.8360 -1.6891
 4934TIP3    H214809   1.745   2.957   0.448 -0.2826  0.8425  0.2960
 4935TIP3   OH214810   0.777   1.004   1.592 -0.0871  0.8267 -0.3140
 4935TIP3    H114811   0.767   0.925   1.539 -3.6497  0.6190  0.4248
 4935TIP3    H214812   0.780   0.972   1.682  1.1660  1.4384 -0.1161
 4936TIP3   OH214813   5.397   5.847   1.239  0.3854  0.1876  0.5252
 4936TIP3    H114814   5.490   5.832   1.221  0.0836 -0.7632 -0.3746
 4936TIP3    H214815   5.364   5.890   1.160 -0.9350 -3.9285 -1.4998
 4937TIP3   OH214816   1.521   2.061   4.998 -0.0383 -0.1621  0.4586
 4937TIP3    H114817   1.450   2.099   5.050 -0.2123 -0.9431  0.7934
 4937TIP3    H214818   1.488   1.976   4.970  0.4114 -0.1379 -0.1680
 4938TIP3   OH214819   0.605   1.254   1.824  0.1695  0.5818  0.0031
 4938TIP3    H114820   0.514   1.251   1.853 -0.2849  0.4328 -1.3649
 4938TIP3    H214821   0.651   1.193   1.881 -0.4515  1.1433  1.1269
 4939TIP3   OH214822   0.627   5.664   0.934  0.1545 -0.2569 -0.0589
 4939TIP3    H114823   0.653   5.666   1.026 -0.0286  1.9503 -0.0107
 4939TIP3    H214824   0.560   5.731   0.926  0.8035  0.2238 -1.9808
 4940TIP3   OH214825   1.036   5.073   3.261 -0.0183 -0.2823  0.5749
 4940TIP3    H114826   1.061   4.981   3.273  1.7232  0.2613  1.3472
 4940TIP3    H214827   1.106   5.110   3.207 -1.3203  0.3306 -0.7593
 4941TIP3   OH214828   0.497   1.422   3.952  0.0093 -0.0861 -0.2237
 4941TIP3    H114829   0.563   1.370   3.998  0.4870 -0.0960 -0.9109
 4941TIP3    H214830   0.413   1.388   3.983  0.2638 -2.3186 -1.7480
 4942TIP3   OH214831   4.600   2.234   3.364  0.2648 -0.0207 -0.2808
 4942TIP3    H114832   4.539   2.257   3.294 -0.2166 -1.2261 -0.2787
 4942TIP3    H214833   4.661   2.172   3.323  1.4620  1.0880 -0.2593
 4943TIP3   OH214834   3.426   2.633   2.516  0.1220  0.4084 -0.7165
 4943TIP3    H114835   3.346   2.617   2.466  0.8151 -0.7172 -1.5046
 4943TIP3    H214836   3.495   2.590   2.466  1.0585  0.4383  0.5005
 4944TIP3   OH214837   4.443   4.884   0.513  0.0825  0.2826  0.0207
 4944TIP3    H114838   4.487   4.856   0.593 -0.7110 -1.0572  0.0199
 4944TIP3    H214839   4.514   4.904   0.452  0.6920 -0.9619  0.3031
 4945TIP3   OH214840   1.962   1.159   0.946  0.4343 -0.0265 -0.0724
 4945TIP3    H114841   1.978   1.122   1.032 -0.6358 -0.4258 -0.0294
 4945TIP3    H214842   1.958   1.253   0.960  1.7264  0.0263  0.0563
 4946TIP3   OH214843   2.975   2.287   1.116  0.7052  0.0640 -0.5657
 4946TIP3    H114844   2.934   2.267   1.200  1.5830 -1.2621 -0.4246
 4946TIP3    H214845   2.919   2.243   1.051  0.8975 -0.2461 -0.5256
 4947TIP3   OH214846   3.968   0.638   1.197  0.2640  0.1216 -0.2365
 4947TIP3    H114847   3.976   0.546   1.173 -3.0682 -0.2053 -0.5216
 4947TIP3    H214848   3.921   0.637   1.281 -2.5468  1.5196 -1.6696
 4948TIP3   OH214849   6.266   5.862   3.395 -0.0562  0.6473  0.1847
 4948TIP3    H114850   6.265   5.947   3.437  2.7857  0.6205  0.4950
 4948TIP3    H214851   6.240   5.800   3.464 -2.2710  1.1841 -0.0833
 4949TIP3   OH214852   3.332   4.300   2.693 -0.5819  0.3971  0.2267
 4949TIP3    H114853   3.313   4.296   2.787  1.7392 -1.6603  0.7229
 4949TIP3    H214854   3.403   4.365   2.685 -1.9718  1.9010 -0.4161
 4950TIP3   OH214855   2.802   2.091   3.574 -0.2653  0.6822 -0.1128
 4950TIP3    H114856   2.826   2.180   3.547  2.0795  0.0818 -0.2006
 4950TIP3    H214857   2.749   2.058   3.502  0.3517  1.4196 -0.9309
 4951TIP3   OH214858   4.858   0.290   0.837 -0.0293  0.1073 -0.6650
 4951TIP3    H114859   4.851   0.213   0.893 -0.5008 -0.0539 -0.9399
 4951TIP3    H214860   4.905   0.259   0.760  0.2080  0.2141 -0.5634
 4952TIP3   OH214861   4.921   2.623   1.554  0.5593 -0.1417  0.5403
 4952TIP3    H114862   4.895   2.703   1.599  1.7706 -0.0038  1.0418
 4952TIP3    H214863   5.011   2.639   1.526  0.0348 -0.4207 -1.5014
 4953TIP3   OH214864   1.729   1.956   3.210  0.7884  0.0191 -0.0544
 4953TIP3    H114865   1.648   2.004   3.227  1.2199  0.7816 -0.0687
 4953TIP3    H214866   1.759   1.928   3.297  0.8417  0.3061  0.0221
 4954TIP3   OH214867   5.380   3.304   0.434 -0.5953  0.0299  0.2159
 4954TIP3    H114868   5.343   3.224   0.396  1.2873 -0.9254  0.2696
 4954TIP3    H214869   5.330   3.318   0.514 -0.7458 -1.2976  0.3772
 4955TIP3   OH214870   3.115   3.980   1.702  0.2382 -0.0701 -0.3705
 4955TIP3    H114871   3.030   3.936   1.713  0.3598  0.1753  2.2939
 4955TIP3    H214872   3.138   3.965   1.611 -2.5557 -0.3511 -1.1320
 4956TIP3   OH214873   4.863   3.401   3.479 -0.0658 -0.0730  0.0965
 4956TIP3    H114874   4.845   3.350   3.399 -2.2175  1.1648 -0.2893
 4956TIP3    H214875   4.791   3.379   3.538  2.2336 -2.0683  2.3879
 4957TIP3   OH214876   4.719   1.273   2.954 -0.1193  0.4903 -0.0107
 4957TIP3    H114877   4.761   1.335   2.895  0.3868  1.4674  1.3312
 4957TIP3    H214878   4.783   1.258   3.023 -0.3593 -1.3029 -0.1375
 4958TIP3   OH214879   0.306   3.227   2.342  0.4711  0.4302  0.0189
 4958TIP3    H114880   0.367   3.277   2.287  1.1383 -0.8417 -0.4200
 4958TIP3    H214881   0.221   3.238   2.299  0.6332  1.0594 -0.1572
 4959TIP3   OH214882   1.805   0.924   1.323 -0.3137  0.2660  0.1080
 4959TIP3    H114883   1.805   0.848   1.264  0.0249  0.4208 -0.0932
 4959TIP3    H214884   1.818   0.886   1.410  0.8405  0.1666 -0.0968
 4960TIP3   OH214885   1.349   4.629   3.394 -0.1406 -0.2061  0.0460
 4960TIP3    H114886   1.343   4.536   3.415  0.2704 -0.4311 -0.8059
 4960TIP3    H214887   1.261   4.663   3.411 -0.3955 -0.8220 -0.0155
 4961TIP3   OH214888   4.253   2.174   4.533  0.1575 -0.5291  0.0182
 4961TIP3    H114889   4.235   2.082   4.511 -0.9011 -0.2425 -0.3950
 4961TIP3    H214890   4.337   2.193   4.491 -0.4974 -0.7920 -1.4513
 4962TIP3   OH214891   5.996   4.374   2.098  0.1701 -0.3811 -0.0223
 4962TIP3    H114892   5.999   4.450   2.156  0.1899  0.1148 -0.6723
 4962TIP3    H214893   5.997   4.299   2.158 -2.4826  0.1252  0.7909
 4963TIP3   OH214894   2.843   3.905   3.535 -0.4741 -0.7027 -0.6331
 4963TIP3    H114895   2.788   3.826   3.531 -2.8014  0.8371 -0.8205
 4963TIP3    H214896   2.839   3.932   3.626  1.1493 -1.2920 -0.3519
 4964TIP3   OH214897   2.664   2.292   0.827 -0.3148  0.6198  0.0810
 4964TIP3    H114898   2.631   2.368   0.779 -1.0551  0.2299 -0.0278
 4964TIP3    H214899   2.748   2.272   0.785  1.2228  2.9536  1.7366
 4965TIP3   OH214900   5.599   0.624   4.990  0.4580  0.2575  0.1436
 4965TIP3    H114901   5.550   0.638   4.909  0.8403  0.7225 -0.0102
 4965TIP3    H214902   5.547   0.559   5.038 -0.7674  1.3731  0.3811
 4966TIP3   OH214903   5.384   5.825   3.160 -0.3359 -0.4148  0.0364
 4966TIP3    H114904   5.341   5.763   3.102 -0.6715 -1.3291  1.2313
 4966TIP3    H214905   5.355   5.801   3.248  1.2012  0.0861  0.7254
 4967TIP3   OH214906   1.761   2.159   5.107 -0.2426 -0.4478 -0.4160
 4967TIP3    H114907   1.675   2.124   5.086 -0.2069  0.7420 -2.9488
 4967TIP3    H214908   1.811   2.150   5.026  0.5057  3.1274 -0.5184
 4968TIP3   OH214909   4.286   1.466   0.161  0.0491  0.4047 -0.7273
 4968TIP3    H114910   4.376   1.458   0.193 -0.0156  1.0059 -0.3797
 4968TIP3    H214911   4.255   1.375   0.153  0.2613  0.2191  0.3717
 4969TIP3   OH214912   4.757   2.657   4.879  0.1505 -0.0994  0.3102
 4969TIP3    H114913   4.687   2.605   4.838 -0.3738  0.4844  0.4343
 4969TIP3    H214914   4.806   2.595   4.931  0.2242 -0.6765 -0.4308
 4970TIP3   OH214915   5.935   5.405   2.928 -0.0822 -0.0512 -0.4901
 4970TIP3    H114916   5.914   5.490   2.967  2.2157  0.6170 -0.5744
 4970TIP3    H214917   5.891   5.406   2.843 -0.1562  1.0155 -0.4514
 4971TIP3   OH214918   4.509   4.354   1.804  0.2127  0.3110  0.4516
 4971TIP3    H114919   4.551   4.365   1.889 -0.7131 -0.0732  0.9728
 4971TIP3    H214920   4.556   4.414   1.746  2.8743 -1.5791  0.4812
 4972TIP3   OH214921   1.410   2.505   4.808  0.5883 -0.3094  0.1056
 4972TIP3    H114922   1.428   2.412   4.792  0.1862 -0.9263  2.8426
 4972TIP3    H214923   1.325   2.520   4.766  0.9660 -0.9624 -0.9468
 4973TIP3   OH214924   1.539   3.560   1.043 -0.2475  0.1933 -0.2373
 4973TIP3    H114925   1.452   3.534   1.013  0.2942 -0.9478 -0.8977
 4973TIP3    H214926   1.592   3.562   0.963  0.7181 -0.7600  0.3438
 4974TIP3   OH214927   1.930   5.129   0.171  0.1165  0.2455  0.6493
 4974TIP3    H114928   1.887   5.067   0.229  0.7629 -2.3792 -1.4935
 4974TIP3    H214929   2.015   5.089   0.150 -0.3870  0.6372 -2.6470
 4975TIP3   OH214930   5.004   0.187   4.483  0.6419 -0.0134 -0.6264
 4975TIP3    H114931   5.024   0.218   4.394  0.6276 -1.1518 -1.0426
 4975TIP3    H214932   4.993   0.267   4.534  3.1812  0.6893 -1.0521
 4976TIP3   OH214933   2.100   1.444   2.747  0.5886 -0.0153  0.3150
 4976TIP3    H114934   2.183   1.418   2.707  0.6901  1.3781 -0.4393
 4976TIP3    H214935   2.116   1.531   2.782 -0.9297  0.8905 -1.0996
 4977TIP3   OH214936   4.497   0.332   1.984  0.2593  0.5094  0.0707
 4977TIP3    H114937   4.580   0.304   2.023  0.7705  1.2846 -0.4156
 4977TIP3    H214938   4.434   0.326   2.056  0.3852 -1.5114  0.0731
 4978TIP3   OH214939   1.603   3.771   5.139  0.6746  0.7181  0.6032
 4978TIP3    H114940   1.623   3.761   5.232 -1.2431 -1.2560  0.8790
 4978TIP3    H214941   1.576   3.862   5.129  1.0638  0.9939  1.9185
 4979TIP3   OH214942   2.251   0.523   5.118 -0.5562  0.1779  0.4969
 4979TIP3    H114943   2.319   0.554   5.057 -0.5625  0.2070  0.5046
 4979TIP3    H214944   2.277   0.433   5.138 -0.8520 -0.0144  0.0257
 4980TIP3   OH214945   3.153   4.090   3.286  0.3044 -0.3590 -0.3045
 4980TIP3    H114946   3.137   3.996   3.275 -0.4435 -0.2308 -0.3928
 4980TIP3    H214947   3.140   4.105   3.380  0.6310 -0.3814 -0.2563
 4981TIP3   OH214948   3.052   0.905   5.051  0.7001  0.3414 -0.2063
 4981TIP3    H114949   3.071   0.998   5.064 -2.7960  1.2747 -0.7517
 4981TIP3    H214950   2.997   0.881   5.125  0.8921 -1.0958 -0.4969
 4982TIP3   OH214951   1.805   0.669   0.786  0.4041  0.0862 -0.3815
 4982TIP3    H114952   1.728   0.613   0.797 -0.0966  0.8008 -0.1720
 4982TIP3    H214953   1.822   0.669   0.692 -0.1778  0.3481 -0.4894
 4983TIP3   OH214954   6.316   2.532   1.470 -0.2412 -0.0762 -0.6972
 4983TIP3    H114955   6.362   2.549   1.552  0.7418  0.4783 -1.3367
 4983TIP3    H214956   6.235   2.582   1.476 -1.6874 -2.4241  1.1766
 4984TIP3   OH214957   5.426   3.124   2.587 -0.1488  0.3183  0.0772
 4984TIP3    H114958   5.518   3.127   2.615 -0.1899 -0.1408  0.2648
 4984TIP3    H214959   5.414   3.035   2.554 -1.2022 -0.4843  2.4163
 4985TIP3   OH214960   2.645   1.217   4.461 -0.4509 -0.1977 -0.3697
 4985TIP3    H114961   2.611   1.160   4.393  1.4511 -1.8386 -0.0239
 4985TIP3    H214962   2.733   1.239   4.432 -0.7155  1.6459  0.0983
 4986TIP3   OH214963   2.007   2.307   3.042 -0.4439 -0.6760 -0.3846
 4986TIP3    H114964   2.056   2.238   2.998 -1.6234 -1.0670 -1.1449
 4986TIP3    H214965   1.921   2.307   2.999 -0.7748  0.6633  0.2052
 4987TIP3   OH214966   1.553   3.405   0.206 -1.0053 -0.0171 -0.2223
 4987TIP3    H114967   1.505   3.362   0.136 -1.4310  0.4792 -0.2376
 4987TIP3    H214968   1.616   3.339   0.236 -0.7288 -0.1943 -1.1496
 4988TIP3   OH214969   0.701   1.647   0.344 -0.8892 -0.3648  0.1690
 4988TIP3    H114970   0.770   1.588   0.314  0.1766  1.5299 -1.3363
 4988TIP3    H214971   0.669   1.607   0.425  3.6614 -0.1475  2.3719
 4989TIP3   OH214972   5.434   5.553   3.715  0.6084 -0.0231 -0.0784
 4989TIP3    H114973   5.411   5.583   3.803  2.1225 -0.8437  0.6351
 4989TIP3    H214974   5.350   5.528   3.676  0.0769 -1.6281  1.9121
 4990TIP3   OH214975   1.780   3.846   1.067 -0.0160  0.4574  0.2483
 4990TIP3    H114976   1.827   3.928   1.083 -1.9067  1.3549  1.6054
 4990TIP3    H214977   1.803   3.790   1.142  0.7043 -0.0028 -0.3040
 4991TIP3   OH214978   2.292   2.308   4.760 -0.1981  0.1132 -0.4207
 4991TIP3    H114979   2.385   2.316   4.741 -0.6561  1.0323 -2.5904
 4991TIP3    H214980   2.279   2.362   4.838  1.2151 -0.8823  0.5676
 4992TIP3   OH214981   4.721   5.584   3.546  0.7067 -0.4221 -0.5823
 4992TIP3    H114982   4.728   5.496   3.582  0.3567 -0.0479  0.4346
 4992TIP3    H214983   4.764   5.640   3.610  1.5172  0.0877 -1.5391
 4993TIP3   OH214984   0.674   4.268   4.747 -0.1557 -0.3046  0.3901
 4993TIP3    H114985   0.578   4.258   4.751 -0.2528 -0.1626 -1.1685
 4993TIP3    H214986   0.708   4.181   4.767 -0.6284 -0.4926  0.3845
 4994TIP3   OH214987   4.370   4.943   2.758  0.4991 -0.3153 -0.6726
 4994TIP3    H114988   4.463   4.947   2.735  0.7791  0.3936  0.4526
 4994TIP3    H214989   4.352   5.029   2.798 -0.4946 -0.6479 -0.3840
 4995TIP3   OH214990   2.920   5.233   1.064  0.3315  0.2806  0.2401
 4995TIP3    H114991   2.997   5.204   1.015 -0.3506  1.6307 -1.7379
 4995TIP3    H214992   2.851   5.172   1.039 -0.2610  1.5299 -1.3112
 4996TIP3   OH214993   1.771   2.504   0.716 -0.4329 -0.1074 -0.3438
 4996TIP3    H114994   1.851   2.491   0.665  0.6929 -0.3658  1.4009
 4996TIP3    H214995   1.794   2.569   0.782 -1.3244 -0.9869  0.8793
 4997TIP3   OH214996   4.579   0.285   0.349  0.0442  0.6300 -0.6374
 4997TIP3    H114997   4.540   0.315   0.431  0.3122  0.0531 -0.2949
 4997TIP3    H214998   4.568   0.359   0.289 -1.4117  0.5641 -0.5079
 4998TIP3   OH214999   3.209   3.112   4.158  0.0094  0.4086  0.1115
 4998TIP3    H115000   3.119   3.106   4.189  0.1124  1.6497  0.7335
 4998TIP3    H215001   3.217   3.202   4.125  1.2390  0.5912  0.8202
 4999TIP3   OH215002   4.825   2.078   4.098  0.3781 -0.4301 -0.4059
 4999TIP3    H115003   4.739   2.041   4.077 -0.4577  0.8516  0.6352
 4999TIP3    H215004   4.850   2.126   4.019  1.0377 -2.2953 -1.4096
 5000TIP3   OH215005   5.938   1.759   3.481  0.2609  0.0411  0.5986
 5000TIP3    H115006   5.953   1.849   3.510 -1.5303  0.3750  0.5804
 5000TIP3    H215007   6.001   1.746   3.411 -0.4336  1.8041 -0.4268
 5001TIP3   OH215008   4.567   1.530   4.984  0.7619 -0.0503 -0.2948
 5001TIP3    H115009   4.599   1.605   5.034  0.2357  0.8284 -1.2340
 5001TIP3    H215010   4.511   1.569   4.917  0.0094 -1.3392 -0.4316
 5002TIP3   OH215011   1.884   3.320   2.216 -0.0802 -0.0882 -0.2010
 5002TIP3    H115012   1.812   3.280   2.168  0.3442 -1.1505  0.0336
 5002TIP3    H215013   1.862   3.306   2.308  1.7396 -2.9589 -0.0817
 5003TIP3   OH215014   3.621   2.313   3.238  0.7041 -0.1318 -0.8630
 5003TIP3    H115015   3.658   2.319   3.326  0.6724 -0.1925 -0.8454
 5003TIP3    H215016   3.693   2.337   3.180  0.6536  0.1577 -0.8071
 5004TIP3   OH215017   5.499   3.526   3.447  0.3113  0.4884  0.5485
 5004TIP3    H115018   5.543   3.555   3.367  2.8943 -2.4932  0.7021
 5004TIP3    H215019   5.556   3.554   3.518  0.2663 -0.5577  1.0140
 5005TIP3   OH215020   2.706   1.957   4.299  0.1704 -0.3704  0.0683
 5005TIP3    H115021   2.785   1.957   4.246  0.5275  1.0416  0.5501
 5005TIP3    H215022   2.662   1.874   4.278  0.2847  0.1273 -2.4318
 5006TIP3   OH215023   3.112   3.500   2.029  0.3604  0.3489  0.1976
 5006TIP3    H115024   3.071   3.559   2.093  1.0592 -0.4274  1.4142
 5006TIP3    H215025   3.065   3.418   2.040  0.5922  0.1657 -0.1838
 5007TIP3   OH215026   5.619   0.032   0.947 -0.2373 -0.4218  0.6027
 5007TIP3    H115027   5.540   0.086   0.944  0.7418  1.0188 -1.0973
 5007TIP3    H215028   5.675   0.074   1.012  1.1830  1.7846 -1.8007
 5008TIP3   OH215029   0.188   0.827   3.350 -0.1682 -0.1522 -0.3649
 5008TIP3    H115030   0.141   0.854   3.271  0.0680  1.4051  0.0088
 5008TIP3    H215031   0.217   0.908   3.390  1.0301 -0.9924  0.5382
 5009TIP3   OH215032   3.862   1.606   0.055  0.1141 -0.4086  0.1895
 5009TIP3    H115033   3.834   1.649   0.136 -2.4660 -0.7951 -0.4336
 5009TIP3    H215034   3.888   1.518   0.082 -1.3512 -0.7524  0.5560
 5010TIP3   OH215035   4.873   0.823   3.677  0.3287 -0.4741 -0.5034
 5010TIP3    H115036   4.916   0.817   3.762 -1.5851  1.1950  0.6947
 5010TIP3    H215037   4.792   0.774   3.688 -0.3381  0.4583 -1.0576
 5011TIP3   OH215038   0.495   2.157   1.239 -0.8325 -0.1257  0.2943
 5011TIP3    H115039   0.403   2.184   1.238 -1.1749 -1.2193 -0.7728
 5011TIP3    H215040   0.544   2.239   1.243 -1.8160  0.6789 -2.1083
 5012TIP3   OH215041   4.516   0.791   2.402  0.1922 -0.0174  0.1356
 5012TIP3    H115042   4.525   0.755   2.314  0.6219 -0.6541  0.4289
 5012TIP3    H215043   4.526   0.885   2.391 -1.5792  0.0945 -0.7398
 5013TIP3   OH215044   1.432   3.149   1.722  0.5340 -0.1045 -0.6295
 5013TIP3    H115045   1.464   3.239   1.716 -0.3011  0.2524  0.1042
 5013TIP3    H215046   1.500   3.102   1.771  1.8043 -0.3148 -2.4577
 5014TIP3   OH215047   3.371   2.987   4.838 -0.2846 -0.3909  0.0254
 5014TIP3    H115048   3.295   2.949   4.883  0.4902 -0.9816  0.8758
 5014TIP3    H215049   3.368   2.949   4.751 -0.9755 -0.3937  0.0437
 5015TIP3   OH215050   2.415   4.350   0.116  0.6097  0.1614  0.0712
 5015TIP3    H115051   2.372   4.314   0.193 -0.7372 -0.4459 -0.9358
 5015TIP3    H215052   2.437   4.440   0.141 -2.0690  0.8189  0.3663
 5016TIP3   OH215053   5.498   0.386   0.790 -0.2956 -0.7211 -0.5011
 5016TIP3    H115054   5.559   0.354   0.856 -0.7352 -0.3651  0.0860
 5016TIP3    H215055   5.553   0.429   0.725  0.1936 -1.5785 -0.6789
 5017TIP3   OH215056   2.562   5.301   2.502  0.0516  0.4413 -0.3745
 5017TIP3    H115057   2.575   5.218   2.549  1.2959  0.4248 -0.7052
 5017TIP3    H215058   2.642   5.310   2.449 -0.1198  1.8088 -0.4124
 5018TIP3   OH215059   2.058   2.212   3.985 -0.5388 -0.6661  0.5196
 5018TIP3    H115060   2.115   2.236   3.912 -0.6136  0.9185  0.9353
 5018TIP3    H215061   2.093   2.262   4.059 -2.1608 -0.0436  0.9064
 5019TIP3   OH215062   5.035   4.120   0.541  0.2792 -0.1191  0.1417
 5019TIP3    H115063   5.054   4.170   0.461  0.9118  0.1875  0.4724
 5019TIP3    H215064   5.020   4.031   0.510  0.3137  0.0362 -0.3432
 5020TIP3   OH215065   5.333   5.294   3.863  0.1461 -0.2726  0.6762
 5020TIP3    H115066   5.426   5.299   3.884 -0.0344  0.9639  1.2457
 5020TIP3    H215067   5.328   5.303   3.768  0.5319  0.9596  0.7623
 5021TIP3   OH215068   5.242   3.526   0.099  0.1582 -0.2741  0.2467
 5021TIP3    H115069   5.276   3.436   0.102  0.0636 -0.4365 -1.9522
 5021TIP3    H215070   5.149   3.517   0.118  0.2728 -0.5578  0.6878
 5022TIP3   OH215071   6.291   1.695   2.497  0.0383 -0.5579  0.1460
 5022TIP3    H115072   6.348   1.625   2.467 -1.0608 -1.7532  0.7610
 5022TIP3    H215073   6.256   1.733   2.416  2.5785  1.0361 -0.3096
 5023TIP3   OH215074   5.228   3.271   2.465  0.2791  0.2558  0.3200
 5023TIP3    H115075   5.296   3.220   2.509 -0.0122 -0.8439 -0.4608
 5023TIP3    H215076   5.172   3.302   2.535  0.4373 -0.5410  0.8130
 5024TIP3   OH215077   5.151   0.811   0.897 -0.5240  0.4914  0.0127
 5024TIP3    H115078   5.114   0.723   0.898 -1.0080  0.6741 -0.8647
 5024TIP3    H215079   5.126   0.847   0.812 -0.0105  1.3412  0.2064
 5025TIP3   OH215080   5.493   4.302   4.528  0.1376  0.2669 -0.0396
 5025TIP3    H115081   5.552   4.318   4.602 -1.3652  4.5239  0.5640
 5025TIP3    H215082   5.429   4.240   4.561 -0.0729  1.5029  2.1101
 5026TIP3   OH215083   0.419   3.024   4.798 -0.0086  0.0537  0.0665
 5026TIP3    H115084   0.420   3.007   4.892 -1.0617  0.0166  0.0866
 5026TIP3    H215085   0.498   3.075   4.782 -0.5695  1.3584  1.2425
 5027TIP3   OH215086   4.308   1.377   4.477  0.4163  0.0748  0.1020
 5027TIP3    H115087   4.274   1.342   4.395  1.1129 -1.8353  0.5870
 5027TIP3    H215088   4.361   1.452   4.450 -1.0676  0.7973 -0.9702
 5028TIP3   OH215089   0.335   2.848   3.408  0.0716  0.0010 -0.4933
 5028TIP3    H115090   0.415   2.890   3.375 -0.6600  1.3616 -0.6138
 5028TIP3    H215091   0.328   2.876   3.499  0.5551 -1.4355  0.0288
 5029TIP3   OH215092   4.328   1.370   1.065  0.2273  0.1079  0.6036
 5029TIP3    H115093   4.391   1.300   1.079  0.2665  0.4833  2.4608
 5029TIP3    H215094   4.244   1.326   1.054  0.6590 -0.3574 -1.3083
 5030TIP3   OH215095   1.420   5.306   0.550 -0.2729 -0.0516 -0.1590
 5030TIP3    H115096   1.414   5.275   0.460 -1.4723 -1.3467  0.3374
 5030TIP3    H215097   1.369   5.386   0.552 -0.6284 -0.2698 -0.5287
 5031TIP3   OH215098   6.297   1.555   0.475  0.3467 -0.2401 -0.3438
 5031TIP3    H115099   6.223   1.566   0.536  1.0012  0.4589  0.3382
 5031TIP3    H215100   6.277   1.473   0.429 -0.2773 -0.6769  0.6553
 5032TIP3   OH215101   5.166   1.552   4.052 -0.0033  0.0225  0.5227
 5032TIP3    H115102   5.189   1.601   3.973 -1.4959 -0.1188 -0.0258
 5032TIP3    H215103   5.102   1.488   4.022  0.9771 -1.4573  1.4592
 5033TIP3   OH215104   4.311   0.343   3.136 -0.0616  0.1158 -0.1101
 5033TIP3    H115105   4.356   0.324   3.054  1.6212  2.4727  0.1719
 5033TIP3    H215106   4.322   0.263   3.189 -0.8579 -1.2967 -1.9719
 5034TIP3   OH215107   4.173   5.598   4.777  0.0586 -0.3750  0.1776
 5034TIP3    H115108   4.229   5.530   4.739 -0.4999 -0.4448 -0.5331
 5034TIP3    H215109   4.101   5.550   4.818 -1.4030 -0.1750 -2.0347
 5035TIP3   OH215110   2.853   4.443   3.777  0.0839 -0.1494  0.0515
 5035TIP3    H115111   2.875   4.526   3.818  0.8776 -0.3747  0.1157
 5035TIP3    H215112   2.884   4.377   3.840 -1.4475 -0.5013  0.4683
 5036TIP3   OH215113   0.199   4.660   2.172  0.0645  0.1151 -0.1056
 5036TIP3    H115114   0.271   4.606   2.204  0.3919  1.4291  1.4941
 5036TIP3    H215115   0.239   4.745   2.155 -1.0163  0.7442  0.3760
 5037TIP3   OH215116   5.441   4.403   0.251 -0.0390  0.7003 -1.0206
 5037TIP3    H115117   5.458   4.359   0.168 -0.8742  0.9215 -1.3129
 5037TIP3    H215118   5.454   4.496   0.232  1.1230  0.6533 -0.5543
 5038TIP3   OH215119   0.190   1.942   0.836 -0.1492 -0.4773  0.0908
 5038TIP3    H115120   0.195   1.871   0.772 -1.0269 -1.6087  1.2189
 5038TIP3    H215121   0.269   1.994   0.821  0.1904 -1.3172 -1.1910
 5039TIP3   OH215122   3.945   4.366   1.483  0.0360  0.4051  0.3273
 5039TIP3    H115123   3.951   4.285   1.534  0.7606 -0.1804 -0.6568
 5039TIP3    H215124   3.940   4.435   1.548 -0.0964 -0.3965  1.1891
 5040TIP3   OH215125   3.004   3.632   1.004  0.4751 -0.2530  0.3987
 5040TIP3    H115126   3.014   3.577   1.082  0.5037 -0.2847  0.3726
 5040TIP3    H215127   2.962   3.712   1.036  0.5707 -0.2284  0.4629
 5041TIP3   OH215128   0.360   3.835   4.221 -0.5464  0.1766 -0.4086
 5041TIP3    H115129   0.285   3.867   4.271  1.1376  0.8918  1.8281
 5041TIP3    H215130   0.401   3.914   4.186  0.4789  0.0205  0.4002
 5042TIP3   OH215131   1.158   2.397   0.474 -0.1016 -0.2227  0.2998
 5042TIP3    H115132   1.186   2.371   0.386 -1.3215 -1.7748  0.3327
 5042TIP3    H215133   1.141   2.491   0.467  2.9413  0.4159 -0.2473
 5043TIP3   OH215134   2.857   4.668   5.179  0.5612  0.1759  0.2854
 5043TIP3    H115135   2.782   4.690   5.235  2.2112  0.5628  2.4867
 5043TIP3    H215136   2.824   4.602   5.118 -1.6270  0.5646  0.9883
 5044TIP3   OH215137   4.110   1.621   2.351 -0.0433 -0.0512  0.2062
 5044TIP3    H115138   4.195   1.579   2.359 -0.0511  0.0311  0.7735
 5044TIP3    H215139   4.048   1.557   2.386 -0.3398 -0.4984 -1.0767
 5045TIP3   OH215140   2.068   1.933   0.058  0.3599 -0.2106 -0.5699
 5045TIP3    H115141   2.016   1.955   0.136  1.6724 -2.2414  0.9831
 5045TIP3    H215142   2.023   1.858   0.020  0.1304  0.3308 -1.4039
 5046TIP3   OH215143   4.138   3.378   1.981 -0.5963  0.3444  0.0111
 5046TIP3    H115144   4.220   3.356   2.024  0.3163  0.9858 -1.3241
 5046TIP3    H215145   4.070   3.345   2.039  0.6115 -0.3914  1.0384
 5047TIP3   OH215146   4.874   2.603   2.405 -0.0905  0.0732 -0.1467
 5047TIP3    H115147   4.949   2.589   2.464  1.6182  1.2940 -1.8821
 5047TIP3    H215148   4.883   2.535   2.338  0.0475  0.7988 -0.8845
 5048TIP3   OH215149   3.081   0.301   4.007 -0.2798  0.5919  0.0271
 5048TIP3    H115150   3.082   0.206   4.014 -1.0371  0.5191 -0.7278
 5048TIP3    H215151   3.079   0.332   4.098 -1.5884 -0.1548  0.2824
 5049TIP3   OH215152   3.642   5.799   3.295  0.3634 -0.3984  0.0852
 5049TIP3    H115153   3.645   5.727   3.232 -0.8250 -0.4261  0.0338
 5049TIP3    H215154   3.665   5.877   3.244  1.0133 -0.6499 -0.0082
 5050TIP3   OH215155   3.403   2.143   1.452 -0.0595 -0.3619 -0.0079
 5050TIP3    H115156   3.430   2.098   1.372  0.9595 -0.6629  0.4970
 5050TIP3    H215157   3.481   2.191   1.480 -0.6743  0.4715  0.3232
 5051TIP3   OH215158   1.281   4.502   1.752 -0.3575 -0.0664  0.0221
 5051TIP3    H115159   1.367   4.544   1.747 -1.0098  1.6535  1.8797
 5051TIP3    H215160   1.293   4.430   1.814 -0.0105 -0.5569 -0.6037
 5052TIP3   OH215161   2.788   0.593   5.145 -0.8232  0.1185 -0.0174
 5052TIP3    H115162   2.698   0.624   5.155 -1.1559 -1.1342  1.2150
 5052TIP3    H215163   2.791   0.513   5.198  0.4267 -1.0364 -1.7597
 5053TIP3   OH215164   2.091   1.004   4.012 -0.4175  0.2510 -0.2989
 5053TIP3    H115165   2.095   1.093   4.048 -0.8168 -0.1847  0.8931
 5053TIP3    H215166   1.997   0.987   4.002 -0.3259  0.1345 -0.9648
 5054TIP3   OH215167   1.557   4.054   5.119  0.2020  0.0187  0.3482
 5054TIP3    H115168   1.633   4.054   5.061  0.2935 -0.4766  0.4634
 5054TIP3    H215169   1.544   4.146   5.142  0.0738  0.2466 -0.5726
 5055TIP3   OH215170   5.117   4.556   3.336 -0.2921 -0.0571 -0.0996
 5055TIP3    H115171   5.192   4.504   3.363 -1.4246 -1.4948  0.4420
 5055TIP3    H215172   5.101   4.616   3.410  1.3943  1.5795 -0.9832
 5056TIP3   OH215173   1.890   1.115   3.467  0.1670  0.4782  0.1124
 5056TIP3    H115174   1.823   1.161   3.518 -0.9412 -1.3210  0.3839
 5056TIP3    H215175   1.973   1.139   3.509 -0.5175  0.8608  1.3008
 5057TIP3   OH215176   2.952   0.296   0.533  0.2450  0.0913 -0.2560
 5057TIP3    H115177   2.894   0.330   0.601 -0.8105  0.6457 -1.3880
 5057TIP3    H215178   2.972   0.372   0.478  0.3214 -0.5101 -1.0837
 5058TIP3   OH215179   1.235   0.568   0.135  0.8086  0.2820 -0.4552
 5058TIP3    H115180   1.303   0.585   0.200  0.3921 -1.6121  0.5532
 5058TIP3    H215181   1.158   0.614   0.167  0.9047  0.2506 -0.1822
 5059TIP3   OH215182   4.157   5.405   2.477  0.2305  0.8166 -0.1560
 5059TIP3    H115183   4.063   5.390   2.463  0.3707 -1.0905  0.6795
 5059TIP3    H215184   4.161   5.490   2.521 -1.0726  1.0625 -0.4526
 5060TIP3   OH215185   2.916   3.098   4.016  0.0580 -0.2245 -1.1426
 5060TIP3    H115186   2.923   3.094   4.112 -0.0417  0.1201 -1.1216
 5060TIP3    H215187   2.944   3.011   3.987 -0.6388 -0.5875 -0.7581
 5061TIP3   OH215188   5.154   3.059   3.871 -0.6081  0.1100 -0.1802
 5061TIP3    H115189   5.077   3.115   3.876  0.3033  1.3732  0.3325
 5061TIP3    H215190   5.227   3.120   3.861  0.3207 -1.0570 -0.7556
 5062TIP3   OH215191   3.363   0.224   0.931 -0.2663  0.0208 -0.0229
 5062TIP3    H115192   3.340   0.186   1.016  0.7356  0.7005  0.5723
 5062TIP3    H215193   3.365   0.150   0.871  0.9779 -0.8003  0.9717
 5063TIP3   OH215194   1.584   0.756   3.001  0.0332  0.1415  0.8661
 5063TIP3    H115195   1.616   0.666   2.988 -1.7196 -0.3035 -0.7623
 5063TIP3    H215196   1.499   0.745   3.042 -1.4085  0.8351 -1.7091
 5064TIP3   OH215197   2.165   1.698   2.847  0.1142 -0.2476 -0.0527
 5064TIP3    H115198   2.249   1.728   2.815 -0.4406  0.4196 -0.9345
 5064TIP3    H215199   2.151   1.746   2.928  0.2557  0.1752 -0.2789
 5065TIP3   OH215200   1.868   0.237   5.149  0.4138  0.2240 -0.2847
 5065TIP3    H115201   1.879   0.332   5.145  2.5771 -0.0116 -1.5613
 5065TIP3    H215202   1.874   0.215   5.242 -1.1899  1.3907  0.1401
 5066TIP3   OH215203   5.670   2.936   2.570  0.3972 -0.0101 -0.1419
 5066TIP3    H115204   5.745   2.908   2.622 -0.3870  0.3631  1.2568
 5066TIP3    H215205   5.605   2.866   2.582 -0.0175  0.3766 -0.0858
 5067TIP3   OH215206   1.438   1.084   2.834 -0.1931  0.4325 -0.5794
 5067TIP3    H115207   1.403   1.068   2.746  1.1575 -0.1645 -1.0428
 5067TIP3    H215208   1.532   1.098   2.819  0.2207 -0.6462  0.8623
 5068TIP3   OH215209   3.875   1.362   0.189  0.2314 -0.5477 -0.0664
 5068TIP3    H115210   3.860   1.395   0.277  1.0287  2.1992 -0.8600
 5068TIP3    H215211   3.840   1.273   0.190  0.1761 -0.5744  2.9660
 5069TIP3   OH215212   4.302   2.543   3.986  0.8735  0.5123  0.4274
 5069TIP3    H115213   4.312   2.460   3.940 -0.2533  0.7103 -0.2018
 5069TIP3    H215214   4.363   2.602   3.942  1.2967  0.1679  0.5390
 5070TIP3   OH215215   0.096   4.502   1.100 -0.5490 -0.1436  0.1446
 5070TIP3    H115216   0.139   4.460   1.026  3.5296 -0.4741  2.4254
 5070TIP3    H215217   0.061   4.429   1.152 -1.1999 -0.0668 -0.1717
 5071TIP3   OH215218   3.966   3.345   3.648 -0.1228 -0.0326 -0.2163
 5071TIP3    H115219   3.978   3.277   3.714 -1.0867  0.5266  0.5466
 5071TIP3    H215220   3.882   3.324   3.607 -0.0184  0.2172 -0.5653
 5072TIP3   OH215221   0.502   1.033   3.639 -0.0783 -0.0138 -0.2158
 5072TIP3    H115222   0.424   1.067   3.595 -1.2591 -0.3265  1.5484
 5072TIP3    H215223   0.474   0.949   3.676  0.7381  0.3832  1.3879
 5073TIP3   OH215224   3.778   5.554   0.946 -0.2444 -0.2858  0.1791
 5073TIP3    H115225   3.762   5.622   0.880  1.3418 -0.0866 -0.0307
 5073TIP3    H215226   3.703   5.561   1.006  1.2920  3.8297  1.9923
 5074TIP3   OH215227   1.386   1.827   4.963 -0.4565  0.1429 -0.0728
 5074TIP3    H115228   1.355   1.780   4.886  1.4181 -0.0469 -0.7731
 5074TIP3    H215229   1.310   1.832   5.021 -1.2889 -1.8562 -0.9044
 5075TIP3   OH215230   1.424   5.422   4.411  1.3233 -0.5409  0.0795
 5075TIP3    H115231   1.429   5.351   4.475  1.5100  0.0533  0.7509
 5075TIP3    H215232   1.359   5.482   4.448  2.0190  0.2068  0.1395
 5076TIP3   OH215233   5.525   4.538   0.965  0.4628  0.4685  0.9454
 5076TIP3    H115234   5.527   4.622   1.011 -1.1703 -0.0110  1.9769
 5076TIP3    H215235   5.440   4.536   0.923  0.8734 -0.2765  0.1280
 5077TIP3   OH215236   0.086   2.617   4.643  0.3625  0.0694 -0.3437
 5077TIP3    H115237   0.151   2.595   4.709  0.5430 -0.2310 -0.6151
 5077TIP3    H215238   0.132   2.676   4.583  0.5953 -0.6789 -0.9094
 5078TIP3   OH215239   1.911   3.397   1.422  0.1947 -0.0571  0.2703
 5078TIP3    H115240   1.979   3.358   1.366  0.2889 -0.7683  0.8581
 5078TIP3    H215241   1.840   3.420   1.361  1.0051  0.8151 -0.3672
 5079TIP3   OH215242   5.605   0.218   3.392  0.3298 -0.4472 -0.3392
 5079TIP3    H115243   5.639   0.277   3.458  1.6550 -0.8372 -0.6408
 5079TIP3    H215244   5.667   0.223   3.320  0.0833 -1.6451 -0.6690
 5080TIP3   OH215245   4.772   3.521   4.664 -0.4429  0.0072  0.0549
 5080TIP3    H115246   4.780   3.594   4.725 -1.9452  0.5529 -0.3601
 5080TIP3    H215247   4.859   3.481   4.663 -0.1795  0.4189  1.9830
 5081TIP3   OH215248   2.210   3.481   5.174  0.0169 -0.0274 -0.0144
 5081TIP3    H115249   2.128   3.455   5.133  0.3022  1.2697 -1.4915
 5081TIP3    H215250   2.271   3.410   5.152 -0.3225 -0.2707 -0.1859
 5082TIP3   OH215251   5.489   1.562   3.522 -0.1629  0.6383  0.1386
 5082TIP3    H115252   5.522   1.556   3.433  1.6262 -1.0110  0.8428
 5082TIP3    H215253   5.540   1.632   3.562  2.4868 -1.6841  1.1271
 5083TIP3   OH215254   1.267   5.577   4.858  0.1140 -0.2655  0.2493
 5083TIP3    H115255   1.360   5.573   4.880  0.2128 -1.0833 -0.2977
 5083TIP3    H215256   1.238   5.661   4.895  1.1071  0.0898  0.2558
 5084TIP3   OH215257   0.991   1.913   3.214 -0.0301 -0.4484 -0.0990
 5084TIP3    H115258   1.048   1.847   3.174  0.1810  0.0587 -0.6668
 5084TIP3    H215259   0.903   1.878   3.203 -0.2465  0.7585 -3.3318
 5085TIP3   OH215260   6.235   4.742   0.284 -0.4046  0.1471  0.2028
 5085TIP3    H115261   6.176   4.667   0.291 -1.8896  1.2454 -0.1638
 5085TIP3    H215262   6.216   4.780   0.198  2.1190 -0.4733 -0.7380
 5086TIP3   OH215263   3.194   4.286   2.938 -0.0411  0.2933  0.0365
 5086TIP3    H115264   3.242   4.249   3.012  0.3101 -1.2945 -0.9241
 5086TIP3    H215265   3.114   4.232   2.933 -0.5698  1.0809 -0.0946
 5087TIP3   OH215266   1.634   2.920   2.925  0.3087 -0.6117  0.2568
 5087TIP3    H115267   1.588   2.887   2.848  0.8201 -0.5948 -0.0604
 5087TIP3    H215268   1.707   2.860   2.938  1.2935  0.4120 -0.3761
 5088TIP3   OH215269   4.160   3.636   2.132  0.5652 -0.2688 -0.4663
 5088TIP3    H115270   4.163   3.730   2.119 -0.2031 -0.1010  0.4818
 5088TIP3    H215271   4.067   3.614   2.131  0.7503 -1.0756 -1.0355
 5089TIP3   OH215272   5.435   5.932   4.188  0.2625  0.1151  0.1018
 5089TIP3    H115273   5.482   6.010   4.219 -0.5698  1.5317 -2.0066
 5089TIP3    H215274   5.493   5.896   4.121 -0.1377 -0.1076 -0.1200
 5090TIP3   OH215275   2.763   3.837   4.673  0.0402 -0.6376  0.0852
 5090TIP3    H115276   2.825   3.790   4.617  0.9388  0.2750  0.2648
 5090TIP3    H215277   2.789   3.815   4.762  0.9346  0.6868  0.1944
 5091TIP3   OH215278   0.753   5.291   3.950 -0.5598  0.2381 -0.0367
 5091TIP3    H115279   0.798   5.361   3.998 -2.3377  1.0200  0.5570
 5091TIP3    H215280   0.711   5.239   4.018 -1.7759  0.4119 -0.6381
 5092TIP3   OH215281   5.017   0.032   1.205  0.3517  0.3966  0.0676
 5092TIP3    H115282   4.933   0.030   1.251  0.0858 -0.2405 -0.4233
 5092TIP3    H215283   4.994   0.012   1.114  1.0000  0.5319 -0.1270
 5093TIP3   OH215284   2.260   1.619   3.648  0.1773  0.6395 -0.2734
 5093TIP3    H115285   2.184   1.646   3.597  0.1303  0.8886 -0.0679
 5093TIP3    H215286   2.270   1.685   3.716 -0.2080 -0.0780  0.5048
 5094TIP3   OH215287   4.493   1.509   0.591  0.2141 -0.2900 -0.6580
 5094TIP3    H115288   4.467   1.498   0.682  0.7790  0.7601 -0.3597
 5094TIP3    H215289   4.576   1.461   0.583  0.8445  0.7177 -0.2731
 5095TIP3   OH215290   0.592   0.147   1.609  0.2832  0.2442 -0.5041
 5095TIP3    H115291   0.560   0.058   1.594  0.6042  0.0213  0.0770
 5095TIP3    H215292   0.575   0.193   1.527  1.9614 -0.9123 -1.5918
 5096TIP3   OH215293   5.775   3.033   3.212 -0.2437 -0.5654  0.4886
 5096TIP3    H115294   5.803   3.028   3.120 -1.3211  1.6430 -0.0059
 5096TIP3    H215295   5.856   3.021   3.261  0.5228 -0.7790 -0.7673
 5097TIP3   OH215296   5.409   3.520   1.087  0.0986 -0.0703 -0.3775
 5097TIP3    H115297   5.380   3.605   1.055 -0.6453 -0.3004 -0.3462
 5097TIP3    H215298   5.328   3.468   1.093  0.3696 -0.3725  0.8191
 5098TIP3   OH215299   4.451   1.490   0.864 -0.7236 -0.3467  0.4174
 5098TIP3    H115300   4.387   1.447   0.922  0.7751 -0.7927  1.8303
 5098TIP3    H215301   4.520   1.520   0.923  0.6889 -0.4517 -1.1067
 5099TIP3   OH215302   4.682   2.340   3.665 -0.4750 -0.5345  0.2501
 5099TIP3    H115303   4.718   2.417   3.622  0.4045 -0.8464  0.4035
 5099TIP3    H215304   4.587   2.348   3.654 -0.3407  0.1010 -0.5125
 5100TIP3   OH215305   4.805   4.723   0.866  0.5106 -0.6240 -0.1189
 5100TIP3    H115306   4.795   4.701   0.959 -0.2553  0.0034 -0.0366
 5100TIP3    H215307   4.885   4.776   0.862  0.0199  0.1688  0.3446
 5101TIP3   OH215308   4.436   5.120   2.079  0.6368 -0.5214  0.3012
 5101TIP3    H115309   4.405   5.142   2.167 -3.2596  2.5037 -1.5075
 5101TIP3    H215310   4.368   5.063   2.043  1.4391 -0.5955 -1.1924
 5102TIP3   OH215311   3.398   4.223   3.602 -0.2531  0.6825  0.3443
 5102TIP3    H115312   3.442   4.253   3.682  0.2734  0.3877  0.1687
 5102TIP3    H215313   3.385   4.130   3.616  0.9663  0.3752 -0.4216
 5103TIP3   OH215314   4.444   5.820   0.089 -0.0046  0.2217  0.6250
 5103TIP3    H115315   4.378   5.861   0.033 -0.8719 -1.7775  0.0860
 5103TIP3    H215316   4.526   5.862   0.063 -0.8298  1.6717  0.2294
 5104TIP3   OH215317   0.111   3.822   0.326  0.5598  0.0629 -0.4065
 5104TIP3    H115318   0.186   3.784   0.372 -0.7728 -2.1004  0.1225
 5104TIP3    H215319   0.080   3.891   0.385  1.0203 -0.2536  0.2170
 5105TIP3   OH215320   2.585   2.737   0.894 -0.1711 -0.7362 -0.0785
 5105TIP3    H115321   2.525   2.802   0.931 -0.6630 -0.8748 -0.6287
 5105TIP3    H215322   2.567   2.737   0.800  2.0717  0.6696 -0.5986
 5106TIP3   OH215323   2.125   2.145   0.799 -0.4118 -0.0922 -0.5932
 5106TIP3    H115324   2.156   2.193   0.876  0.2151 -0.2747 -0.7248
 5106TIP3    H215325   2.179   2.178   0.727 -2.7337  2.0516 -1.5157
 5107TIP3   OH215326   6.345   3.773   2.947  0.3053  0.0313 -0.0536
 5107TIP3    H115327   6.252   3.779   2.926  0.5150  1.5094 -0.6809
 5107TIP3    H215328   6.351   3.700   3.009 -1.2855  0.0103  0.1139
 5108TIP3   OH215329   0.872   1.467   4.923  0.7750  0.3300  0.1048
 5108TIP3    H115330   0.867   1.465   5.019 -0.3592  1.1546  0.0785
 5108TIP3    H215331   0.892   1.377   4.899  2.8498  0.4308  1.1765
 5109TIP3   OH215332   3.073   0.874   1.199  0.0165 -0.2249  0.0910
 5109TIP3    H115333   3.029   0.939   1.253  1.1699  0.0407  0.7458
 5109TIP3    H215334   3.095   0.920   1.118 -0.0754 -0.0970  0.1380
 5110TIP3   OH215335   3.376   1.988   0.452  0.5454 -0.1658 -0.3505
 5110TIP3    H115336   3.397   2.071   0.410  1.8775 -0.6730 -0.7402
 5110TIP3    H215337   3.454   1.968   0.505 -0.9404  0.3120  2.1805
 5111TIP3   OH215338   3.199   3.408   2.925  0.3216 -0.5843 -0.1829
 5111TIP3    H115339   3.115   3.401   2.970  0.2404 -0.7642 -0.3576
 5111TIP3    H215340   3.198   3.495   2.886 -0.0325 -0.7910 -0.6596
 5112TIP3   OH215341   3.479   1.360   3.726 -0.0861  0.3104 -0.3349
 5112TIP3    H115342   3.413   1.427   3.742 -0.0409 -0.1307  2.0306
 5112TIP3    H215343   3.445   1.310   3.651 -2.2148  0.3903  0.5078
 5113TIP3   OH215344   4.122   4.810   3.778  0.0217 -0.1460 -0.2639
 5113TIP3    H115345   4.081   4.797   3.692 -0.4001 -1.5211  0.1136
 5113TIP3    H215346   4.207   4.766   3.771 -0.3651 -1.0119  0.2620
 5114TIP3   OH215347   1.764   0.898   0.942 -0.1774  0.0570  0.0789
 5114TIP3    H115348   1.762   0.838   0.868 -1.9502 -0.0263  0.1429
 5114TIP3    H215349   1.855   0.899   0.970 -0.2412 -3.8186  1.0329
 5115TIP3   OH215350   2.580   3.862   1.590 -0.0551  0.4437  0.3747
 5115TIP3    H115351   2.652   3.811   1.552 -0.3283  0.7432 -0.5812
 5115TIP3    H215352   2.590   3.950   1.551 -1.9841  0.0254 -1.2574
 5116TIP3   OH215353   0.580   1.510   0.540  0.2047 -0.4742 -0.0892
 5116TIP3    H115354   0.487   1.489   0.541  0.1752 -0.4900 -1.3716
 5116TIP3    H215355   0.623   1.425   0.554  0.0289 -0.4929  0.3454
 5117TIP3   OH215356   2.891   4.947   1.599 -0.3614 -0.0851  0.3246
 5117TIP3    H115357   2.889   5.040   1.621 -2.0868 -0.5160  2.3256
 5117TIP3    H215358   2.943   4.907   1.669 -0.7248 -0.7847  0.2028
 5118TIP3   OH215359   5.927   3.864   0.357 -0.1203 -0.1323  0.4755
 5118TIP3    H115360   5.957   3.948   0.323  0.5622  0.6828  2.8614
 5118TIP3    H215361   5.837   3.856   0.326 -0.0647  1.2948 -0.1250
 5119TIP3   OH215362   0.805   0.701   3.325 -0.0314 -0.4881  0.0251
 5119TIP3    H115363   0.785   0.743   3.409 -1.4969 -0.0062 -0.5373
 5119TIP3    H215364   0.719   0.680   3.288  0.6179 -1.5514 -0.9376
 5120TIP3   OH215365   0.855   1.447   1.547  0.2693  0.2389  0.0631
 5120TIP3    H115366   0.949   1.435   1.530  0.4041  1.0824  0.1685
 5120TIP3    H215367   0.819   1.473   1.462  0.0536 -0.4668 -0.0690
 5121TIP3   OH215368   4.610   2.506   4.181  0.2953 -0.2625  0.0550
 5121TIP3    H115369   4.634   2.592   4.217  0.4773 -0.1035 -0.4375
 5121TIP3    H215370   4.521   2.490   4.214 -0.0616  0.4883 -0.5019
 5122TIP3   OH215371   3.633   5.376   4.769 -0.3365 -0.3459  0.5668
 5122TIP3    H115372   3.553   5.345   4.727 -0.1685 -0.4144  0.2954
 5122TIP3    H215373   3.690   5.403   4.697 -0.0014 -0.5767  0.7406
 5123TIP3   OH215374   5.635   0.329   2.309  0.1604 -0.7800 -0.2056
 5123TIP3    H115375   5.587   0.399   2.266 -0.7337 -0.2294  1.5756
 5123TIP3    H215376   5.711   0.373   2.349 -0.1004 -0.9143  0.4482
 5124TIP3   OH215377   5.022   5.410   3.597 -0.0712  0.4069 -0.2585
 5124TIP3    H115378   4.951   5.364   3.642 -0.3935  0.8646 -0.2834
 5124TIP3    H215379   5.035   5.489   3.649 -0.8333  1.2278 -1.2639
 5125TIP3   OH215380   5.714   4.433   4.411 -0.4190 -0.0995  0.5636
 5125TIP3    H115381   5.629   4.434   4.454 -0.4815  0.0858  0.4355
 5125TIP3    H215382   5.767   4.372   4.463 -0.0830  1.1005  1.6657
 5126TIP3   OH215383   5.783   4.003   0.907  0.9500 -0.2660 -0.0483
 5126TIP3    H115384   5.723   4.021   0.835  2.4804  1.5351 -0.9446
 5126TIP3    H215385   5.865   4.046   0.883  2.2342 -1.5124  1.7402
 5127TIP3   OH215386   1.199   2.839   2.862 -0.4247  0.4704 -0.0438
 5127TIP3    H115387   1.193   2.758   2.913  0.6081 -0.0409 -0.7086
 5127TIP3    H215388   1.108   2.869   2.855 -0.7181 -0.0918  1.0527
 5128TIP3   OH215389   5.853   2.359   2.653 -0.7482  0.3398  1.0301
 5128TIP3    H115390   5.784   2.340   2.717 -2.1126  0.5907 -0.3060
 5128TIP3    H215391   5.852   2.284   2.593  2.4903 -1.3469  2.7984
 5129TIP3   OH215392   4.677   4.638   0.465  0.5180  0.2364 -0.9239
 5129TIP3    H115393   4.652   4.730   0.464  3.1267  1.0222 -0.1853
 5129TIP3    H215394   4.698   4.617   0.374 -0.3635  0.2420 -1.1420
 5130TIP3   OH215395   1.746   0.282   1.396  0.0579 -0.1257  0.1796
 5130TIP3    H115396   1.781   0.203   1.436  1.2805  1.1710  1.8429
 5130TIP3    H215397   1.818   0.317   1.344  0.0505  0.6723  0.6872
 5131TIP3   OH215398   0.002   4.145   4.926  0.4079  0.1067  0.4886
 5131TIP3    H115399  -0.038   4.229   4.947  2.0517  0.4438  2.6402
 5131TIP3    H215400   0.095   4.157   4.946  0.6849 -2.1960  0.8478
 5132TIP3   OH215401   5.963   3.019   1.864 -0.0938 -0.2138  0.3191
 5132TIP3    H115402   5.912   3.081   1.916 -0.3721  0.9728 -1.2954
 5132TIP3    H215403   6.054   3.049   1.872 -0.2298  0.4389 -0.4718
 5133TIP3   OH215404   2.859   4.898   3.083  0.3361  0.5643  0.6398
 5133TIP3    H115405   2.891   4.857   3.164 -0.5480  1.4972  1.4893
 5133TIP3    H215406   2.820   4.825   3.034  2.0101 -0.2454  0.4412
 5134TIP3   OH215407   4.073   0.287   2.179  0.0250  0.1119 -0.0245
 5134TIP3    H115408   4.100   0.198   2.156 -0.0400  0.3214 -0.9797
 5134TIP3    H215409   3.994   0.275   2.231  0.2582 -0.4007  0.2258
 5135TIP3   OH215410   2.820   2.841   4.908  0.5475  0.0303 -0.1385
 5135TIP3    H115411   2.877   2.831   4.984  0.6821  2.3015  0.1383
 5135TIP3    H215412   2.879   2.867   4.837 -0.0614  2.3614  0.1382
 5136TIP3   OH215413   1.013   0.492   3.425  0.3429 -0.4281  0.8025
 5136TIP3    H115414   1.049   0.574   3.459 -0.8578  0.5401 -0.1438
 5136TIP3    H215415   0.939   0.519   3.370 -0.2938 -2.1733  0.7243
 5137TIP3   OH215416   4.496   4.808   3.931  0.6388  0.3157 -0.4853
 5137TIP3    H115417   4.456   4.812   4.018 -0.8182  1.2967 -1.1747
 5137TIP3    H215418   4.590   4.817   3.948  0.4219  0.0650  1.0091
 5138TIP3   OH215419   2.393   1.123   3.424 -0.0661  0.2607  0.0808
 5138TIP3    H115420   2.366   1.033   3.407  0.9919 -0.1018  0.2680
 5138TIP3    H215421   2.364   1.140   3.513 -0.3733  0.1543  0.0041
 5139TIP3   OH215422   5.693   0.040   0.462  0.2437 -0.1208  0.1464
 5139TIP3    H115423   5.748  -0.030   0.427  0.9509  0.2673  0.4796
 5139TIP3    H215424   5.742   0.076   0.536 -1.3246 -1.0745  1.7270
 5140TIP3   OH215425   2.912   0.219   0.936  0.3070 -0.4654 -0.3119
 5140TIP3    H115426   2.864   0.143   0.903 -2.5103  0.1568  1.8885
 5140TIP3    H215427   2.882   0.292   0.881 -1.2000 -0.1267  0.8833
 5141TIP3   OH215428   1.647   0.003   1.491  0.1296 -0.0235  0.4913
 5141TIP3    H115429   1.658  -0.060   1.562 -0.2979  1.5586  2.0038
 5141TIP3    H215430   1.578   0.062   1.521  1.1757  1.7538 -0.4352
 5142TIP3   OH215431   3.492   1.444   1.835  0.4226  0.3975  0.5132
 5142TIP3    H115432   3.582   1.412   1.840  0.8658  0.8414 -2.5379
 5142TIP3    H215433   3.500   1.531   1.794 -1.4207 -0.2552 -1.4398
 5143TIP3   OH215434   1.578   5.206   3.512  0.6056  0.3074  0.8408
 5143TIP3    H115435   1.495   5.253   3.499 -0.0092 -0.4303  1.9921
 5143TIP3    H215436   1.641   5.256   3.460 -0.6021  0.7340 -0.2738
 5144TIP3   OH215437   3.878   0.230   4.475 -0.7705 -0.5900 -0.3224
 5144TIP3    H115438   3.878   0.171   4.399  0.4702 -0.8574 -0.1346
 5144TIP3    H215439   3.809   0.293   4.455  2.2687  2.1183 -3.9276
 5145TIP3   OH215440   4.438   4.190   4.374  0.3114 -0.1733  0.1593
 5145TIP3    H115441   4.482   4.275   4.377  0.3235 -0.1636  3.4209
 5145TIP3    H215442   4.367   4.198   4.438 -0.0760 -2.4076  0.0766
 5146TIP3   OH215443   0.426   5.930   0.875  0.4654  0.1900  0.3254
 5146TIP3    H115444   0.508   5.949   0.831  1.6377 -1.3404  1.7322
 5146TIP3    H215445   0.381   5.867   0.818  1.1480 -0.4125  0.4413
 5147TIP3   OH215446   0.825   5.550   1.877  0.0805  0.1833  0.3345
 5147TIP3    H115447   0.844   5.522   1.788  0.5282 -0.4606  0.6212
 5147TIP3    H215448   0.731   5.566   1.878  0.0041 -0.2163 -0.1420
 5148TIP3   OH215449   3.323   4.850   5.037  0.1490 -0.1850 -0.4355
 5148TIP3    H115450   3.251   4.832   5.098  0.2794 -0.0749 -0.2524
 5148TIP3    H215451   3.286   4.913   4.975  0.6955  1.3931  0.8034
 5149TIP3   OH215452   1.880   5.265   4.208  0.7735 -0.0200  0.2763
 5149TIP3    H115453   1.945   5.329   4.179 -0.1248  0.4611 -0.7047
 5149TIP3    H215454   1.869   5.206   4.134  1.1751 -1.0094  0.9697
 5150TIP3   OH215455   3.809   3.821   1.822 -0.6596  0.6262  0.1488
 5150TIP3    H115456   3.765   3.819   1.907 -3.5782 -0.0519 -1.2635
 5150TIP3    H215457   3.871   3.749   1.825 -0.9068  0.4562  1.6045
 5151TIP3   OH215458   0.769   1.565   1.262 -0.1566 -0.0974 -0.0195
 5151TIP3    H115459   0.723   1.620   1.198 -0.9354  1.1532  1.5305
 5151TIP3    H215460   0.720   1.483   1.264 -0.1440 -0.1343 -0.9809
 5152TIP3   OH215461   0.898   0.012   0.838 -0.0263 -0.1169 -0.2390
 5152TIP3    H115462   0.825  -0.019   0.891  0.4730 -0.5680  0.1939
 5152TIP3    H215463   0.886   0.107   0.833  0.0981 -0.0209  0.9720
 5153TIP3   OH215464   4.039   3.582   3.757  0.3821 -0.2293  0.0692
 5153TIP3    H115465   4.024   3.508   3.698  2.3228 -1.3800  0.9227
 5153TIP3    H215466   3.994   3.559   3.838 -0.5490  0.3996 -0.2545
 5154TIP3   OH215467   2.007   3.042   2.259  0.1147 -0.0444 -0.6274
 5154TIP3    H115468   1.925   3.072   2.299 -0.8126 -2.3146 -0.6787
 5154TIP3    H215469   2.067   3.028   2.333 -0.7599 -1.7767 -0.1901
 5155TIP3   OH215470   3.903   5.630   2.635  0.9139  0.4323 -0.4291
 5155TIP3    H115471   3.984   5.660   2.593  0.9952 -1.1945 -1.4910
 5155TIP3    H215472   3.912   5.535   2.640 -0.3670  0.3403  0.6793
 5156TIP3   OH215473   4.943   4.427   2.302  0.3902  0.4709 -0.2405
 5156TIP3    H115474   4.978   4.469   2.381  0.0907  0.2534  0.0074
 5156TIP3    H215475   4.940   4.334   2.323  2.6804  0.0525 -1.3754
 5157TIP3   OH215476   4.077   4.844   3.035  0.0550  0.5342  0.2414
 5157TIP3    H115477   4.057   4.904   2.963  0.9702 -0.1243 -0.5839
 5157TIP3    H215478   4.052   4.758   3.001  1.4514  0.0815  0.2919
 5158TIP3   OH215479   3.783   3.794   0.507  0.5644 -0.3380  0.1741
 5158TIP3    H115480   3.872   3.771   0.479  0.5947  0.3063 -0.2844
 5158TIP3    H215481   3.749   3.714   0.546  1.0295 -0.8610 -0.4571
 5159TIP3   OH215482   0.664   5.153   4.157 -0.6374 -0.4736  0.2929
 5159TIP3    H115483   0.747   5.154   4.205 -0.4521  2.6705  0.1334
 5159TIP3    H215484   0.598   5.141   4.224 -0.1280 -3.0549  0.4192
 5160TIP3   OH215485   2.057   3.181   3.674 -0.4480  0.3303  0.3740
 5160TIP3    H115486   2.086   3.260   3.627 -1.4046  1.3509  1.4114
 5160TIP3    H215487   2.110   3.180   3.754 -0.6694  0.1244  0.5215
 5161TIP3   OH215488   2.079   5.657   0.258  0.4852  0.1241 -0.2294
 5161TIP3    H115489   2.171   5.680   0.264  0.4129  1.6211 -3.2139
 5161TIP3    H215490   2.079   5.568   0.223  0.6691 -1.6892  3.7606
 5162TIP3   OH215491   2.238   5.993   2.395  0.5565 -0.4137  0.6680
 5162TIP3    H115492   2.228   5.999   2.490  2.3008 -2.1651  1.0226
 5162TIP3    H215493   2.298   5.920   2.381 -0.3286 -0.7786 -1.8401
 5163TIP3   OH215494   2.817   0.449   2.063  0.2666 -0.3259  0.1211
 5163TIP3    H115495   2.910   0.436   2.082  0.3418  0.4491  0.3227
 5163TIP3    H215496   2.771   0.392   2.125  0.6085 -0.9424 -0.1832
 5164TIP3   OH215497   5.126   2.547   0.928 -0.6861  0.6922 -0.7417
 5164TIP3    H115498   5.117   2.460   0.967 -1.6020  0.9113 -0.4431
 5164TIP3    H215499   5.058   2.599   0.970 -1.3193  1.0997 -2.2078
 5165TIP3   OH215500   0.659   4.918   0.381  0.2128 -0.0615 -0.6372
 5165TIP3    H115501   0.711   4.958   0.451 -0.2763 -0.0220 -0.2848
 5165TIP3    H215502   0.673   4.824   0.393  1.3910 -0.0155 -1.4884
 5166TIP3   OH215503   0.858   4.129   4.985  0.9828 -0.2657 -1.0618
 5166TIP3    H115504   0.950   4.151   4.974  1.3065 -1.4003 -0.7703
 5166TIP3    H215505   0.830   4.181   5.061  1.3403  0.1965 -1.2425
 5167TIP3   OH215506   1.437   2.190   2.188  0.1046 -0.0186  0.1653
 5167TIP3    H115507   1.514   2.174   2.243 -0.6706  1.1298  1.6471
 5167TIP3    H215508   1.386   2.109   2.195 -0.8459  0.6913  2.6696
 5168TIP3   OH215509   1.450   0.521   1.358 -0.2832 -0.2017 -0.5169
 5168TIP3    H115510   1.531   0.547   1.401 -0.6594 -2.1256  1.5786
 5168TIP3    H215511   1.413   0.603   1.326  1.7705  0.9012 -0.2616
 5169TIP3   OH215512   5.608   1.672   1.941 -0.3114 -0.9612  0.4745
 5169TIP3    H115513   5.626   1.679   1.848  0.1000 -1.4086  0.5151
 5169TIP3    H215514   5.560   1.590   1.951  0.3942 -1.3475  0.7548
 5170TIP3   OH215515   4.749   0.677   1.955  0.1746 -0.3126 -0.2965
 5170TIP3    H115516   4.817   0.610   1.968  1.6540  1.1155 -0.3881
 5170TIP3    H215517   4.722   0.666   1.864 -0.4255 -1.5105  0.0100
 5171TIP3   OH215518   4.452   3.170   2.468 -0.0218 -0.0831 -0.0491
 5171TIP3    H115519   4.401   3.208   2.397 -0.6949 -0.6817  0.1019
 5171TIP3    H215520   4.530   3.225   2.474  0.5275 -0.5908 -1.8943
 5172TIP3   OH215521   5.514   4.435   1.894 -0.0212  0.0292 -0.0772
 5172TIP3    H115522   5.458   4.375   1.943  0.6334 -0.4377  0.1083
 5172TIP3    H215523   5.466   4.517   1.893  1.4110  1.1819  4.4131
 5173TIP3   OH215524   3.508   1.977   1.253  0.0113  0.3986  0.0960
 5173TIP3    H115525   3.570   2.038   1.294  0.2257 -0.1217  0.5493
 5173TIP3    H215526   3.503   1.904   1.314  2.2910 -1.6298 -1.9499
 5174TIP3   OH215527   5.058   4.153   4.353  0.7510 -0.4359  0.1180
 5174TIP3    H115528   4.965   4.171   4.367  0.7930  1.9143 -1.9969
 5174TIP3    H215529   5.068   4.059   4.373 -1.7288 -0.4272  1.7568
 5175TIP3   OH215530   0.086   0.968   1.945 -0.2062 -0.3077 -0.4241
 5175TIP3    H115531   0.010   1.026   1.953  0.3834  0.5384 -0.7896
 5175TIP3    H215532   0.161   1.025   1.962  0.3490 -1.1317 -0.0717
 5176TIP3   OH215533   2.641   3.865   1.130  0.0525 -0.8157 -0.0367
 5176TIP3    H115534   2.581   3.886   1.202 -1.2772  0.2653 -1.4137
 5176TIP3    H215535   2.588   3.874   1.051  2.1136  0.6043 -1.3487
 5177TIP3   OH215536   0.677   4.527   4.860  0.1259  0.4950  0.1524
 5177TIP3    H115537   0.713   4.450   4.816  0.5865  1.0042 -0.3839
 5177TIP3    H215538   0.587   4.502   4.882 -0.6574  0.7163 -2.4591
 5178TIP3   OH215539   4.245   4.263   3.657  0.3785 -0.0365  0.0775
 5178TIP3    H115540   4.284   4.270   3.570  1.6391 -0.2031  0.5995
 5178TIP3    H215541   4.167   4.209   3.644  1.4163 -1.4064 -0.6999
 5179TIP3   OH215542   3.449   0.753   0.473 -0.4419 -0.0548  0.2249
 5179TIP3    H115543   3.509   0.746   0.547  0.0645 -2.3517 -0.3341
 5179TIP3    H215544   3.503   0.786   0.401 -0.1810 -0.6820  0.1215
 5180TIP3   OH215545   4.394   0.071   4.962  0.5990 -0.0098 -0.2609
 5180TIP3    H115546   4.375  -0.003   4.904 -0.8324  0.4798 -0.4582
 5180TIP3    H215547   4.364   0.043   5.048  0.9049 -0.0066 -0.1551
 5181TIP3   OH215548   5.949   1.229   1.695  0.0503 -0.4667  0.3158
 5181TIP3    H115549   6.019   1.231   1.629 -0.2202 -0.1459  0.0351
 5181TIP3    H215550   5.881   1.285   1.659  0.0496  0.0085  1.0331
 5182TIP3   OH215551   3.996   5.047   1.393  0.0959 -0.0168 -0.2873
 5182TIP3    H115552   4.084   5.084   1.396  0.1454 -0.0900 -0.7640
 5182TIP3    H215553   3.959   5.067   1.479  0.1473  1.0811 -0.4977
 5183TIP3   OH215554   1.219   0.359   1.258  0.3181 -0.1897  0.0123
 5183TIP3    H115555   1.287   0.408   1.304 -0.4203 -0.1375  1.1038
 5183TIP3    H215556   1.137   0.392   1.295 -0.2458 -1.2439 -0.2495
 5184TIP3   OH215557   3.574   1.547   3.268  0.3826 -0.3423 -0.2392
 5184TIP3    H115558   3.666   1.542   3.241  0.8926 -2.2374  1.5824
 5184TIP3    H215559   3.577   1.543   3.364 -1.4265  3.9793  0.2387
 5185TIP3   OH215560   2.174   3.885   1.698 -0.1791  0.0840 -0.3272
 5185TIP3    H115561   2.184   3.882   1.603 -0.9901 -1.0978 -0.3870
 5185TIP3    H215562   2.162   3.794   1.724  0.5673  0.3426  0.9781
 5186TIP3   OH215563   1.366   1.451   4.908  0.7337 -1.0492  0.4274
 5186TIP3    H115564   1.355   1.430   5.001 -1.1359 -0.0189  0.4914
 5186TIP3    H215565   1.358   1.367   4.863 -0.6483 -1.2924  1.0668
 5187TIP3   OH215566   4.654   4.842   1.924  0.1429  0.1921 -0.6541
 5187TIP3    H115567   4.575   4.828   1.976  1.3009 -0.7449  0.9361
 5187TIP3    H215568   4.623   4.884   1.844 -1.6275  2.5623  1.1202
 5188TIP3   OH215569   6.211   2.411   2.945 -0.5819  0.0408 -0.3032
 5188TIP3    H115570   6.155   2.458   2.882 -1.3504 -1.2499 -0.6081
 5188TIP3    H215571   6.170   2.325   2.954  2.0812 -1.4655 -1.5539
 5189TIP3   OH215572   3.456   0.751   3.686 -0.8967  0.2161 -0.9801
 5189TIP3    H115573   3.436   0.679   3.745 -1.0493  0.1143 -1.1581
 5189TIP3    H215574   3.408   0.826   3.723 -0.1778  0.4079 -0.3891
 5190TIP3   OH215575   6.276   0.409   4.839  0.2728 -0.0068 -0.4522
 5190TIP3    H115576   6.292   0.476   4.772  2.7239 -1.4212 -1.4082
 5190TIP3    H215577   6.185   0.383   4.826  0.5536  0.0400 -3.0323
 5191TIP3   OH215578   4.064   5.187   4.504 -0.2317  0.1135 -0.4979
 5191TIP3    H115579   3.987   5.209   4.556  0.0907 -1.0076  0.4876
 5191TIP3    H215580   4.051   5.097   4.477  2.5967 -1.7879  3.4292
 5192TIP3   OH215581   0.871   3.999   0.835 -0.3147 -0.1850  0.2605
 5192TIP3    H115582   0.890   3.920   0.784  1.7121  0.3397  0.1058
 5192TIP3    H215583   0.957   4.033   0.860 -1.1264  1.9744  0.3435
 5193TIP3   OH215584   5.632   2.897   3.512  0.2788  0.3520 -0.0362
 5193TIP3    H115585   5.717   2.932   3.540  2.1745 -3.0373 -0.9660
 5193TIP3    H215586   5.616   2.825   3.572 -1.8537  0.7236 -0.1003
 5194TIP3   OH215587   2.286   2.197   4.475  0.4457  0.7896 -0.0123
 5194TIP3    H115588   2.258   2.227   4.562 -1.3034 -2.7873  0.8830
 5194TIP3    H215589   2.361   2.140   4.493  0.5520  0.6277 -0.9530
 5195TIP3   OH215590   0.525   0.960   4.654 -0.3022  0.0334  0.2407
 5195TIP3    H115591   0.581   1.035   4.634 -0.0306 -0.2020  0.1119
 5195TIP3    H215592   0.492   0.932   4.569 -0.5694  0.1348  0.3108
 5196TIP3   OH215593   2.364   2.033   1.951  0.3022  0.5728  0.2805
 5196TIP3    H115594   2.296   2.000   1.892  0.5227  0.5013  0.0636
 5196TIP3    H215595   2.346   1.992   2.035  0.8023 -0.4125 -0.0800
 5197TIP3   OH215596   3.292   0.208   1.191  0.3890  1.1835 -0.2372
 5197TIP3    H115597   3.299   0.153   1.268  1.2587  0.3992 -0.8472
 5197TIP3    H215598   3.373   0.260   1.191  0.4990  1.0208 -0.7270
 5198TIP3   OH215599   2.545   1.228   1.324 -0.2539 -0.0781  0.0160
 5198TIP3    H115600   2.605   1.232   1.249 -1.8252  0.2937 -1.2849
 5198TIP3    H215601   2.547   1.317   1.361 -0.2389  0.0224 -0.2249
 5199TIP3   OH215602   3.550   4.881   2.895 -0.6610 -0.2472 -0.3314
 5199TIP3    H115603   3.625   4.917   2.847 -2.4023  1.4318 -1.9781
 5199TIP3    H215604   3.568   4.902   2.987  0.1051  1.7010 -0.8650
 5200TIP3   OH215605   4.289   5.005   3.177 -0.7130  0.7461 -0.2715
 5200TIP3    H115606   4.327   5.077   3.127 -0.5474  1.0209  0.2397
 5200TIP3    H215607   4.253   4.947   3.111 -0.5593  1.1353 -0.7083
 5201TIP3   OH215608   1.024   1.128   2.941 -0.6383  0.3110 -0.2564
 5201TIP3    H115609   1.103   1.094   2.981 -0.7104  0.9963  0.4951
 5201TIP3    H215610   0.953   1.095   2.995 -0.7797  0.7019 -0.1971
 5202TIP3   OH215611   3.583   2.513   4.214 -0.4151 -0.0055 -0.9272
 5202TIP3    H115612   3.607   2.523   4.122 -1.4996  2.7397 -0.9969
 5202TIP3    H215613   3.536   2.429   4.217  1.4637 -1.1948 -2.3966
 5203TIP3   OH215614   3.818   2.752   0.706 -0.3897  0.2325  0.2847
 5203TIP3    H115615   3.908   2.730   0.730 -0.1011  1.6881  0.6824
 5203TIP3    H215616   3.787   2.805   0.780 -1.7108 -0.5584  0.3253
 5204TIP3   OH215617   6.175   4.105   4.554  0.4960  0.5555  0.3518
 5204TIP3    H115618   6.123   4.067   4.483  0.0161  0.7210  0.6098
 5204TIP3    H215619   6.236   4.164   4.510  0.5519  0.2647  0.0352
 5205TIP3   OH215620   4.222   4.089   4.212 -0.3463  0.5615  0.0872
 5205TIP3    H115621   4.227   4.038   4.131 -1.0824  1.1185 -0.3183
 5205TIP3    H215622   4.313   4.099   4.240 -0.1498 -0.4287 -0.1671
 5206TIP3   OH215623   4.295   0.051   0.473 -0.2254  0.6863  0.0562
 5206TIP3    H115624   4.220   0.013   0.427 -0.1655 -0.3243  0.7548
 5206TIP3    H215625   4.257   0.120   0.528 -0.6404  0.2277  0.3498
 5207TIP3   OH215626   4.359   3.114   2.021 -0.5718 -0.2506 -0.2107
 5207TIP3    H115627   4.378   3.197   2.066 -0.1427 -0.3049 -0.2830
 5207TIP3    H215628   4.312   3.140   1.942 -0.3200 -0.0580 -0.3020
 5208TIP3   OH215629   4.081   0.211   2.873  0.5014 -0.3370  0.0383
 5208TIP3    H115630   4.004   0.168   2.910  1.3274 -0.8296  1.2541
 5208TIP3    H215631   4.101   0.282   2.935  1.4959 -0.7382  0.2081
 5209TIP3   OH215632   3.659   3.610   3.655 -0.1775 -0.0194 -0.8849
 5209TIP3    H115633   3.648   3.580   3.746  1.6822  0.2838 -0.5024
 5209TIP3    H215634   3.583   3.665   3.639 -0.6420 -0.2216  0.4307
 5210TIP3   OH215635   1.005   3.482   4.318  0.5937 -0.3664  0.0149
 5210TIP3    H115636   1.002   3.578   4.322 -1.7644 -0.4097  1.0430
 5210TIP3    H215637   1.032   3.463   4.228  1.1903  1.2277 -0.1931
 5211TIP3   OH215638   0.858   0.052   3.058  0.1277  0.3137 -0.7551
 5211TIP3    H115639   0.940   0.025   3.100  0.4903 -0.6490 -2.0238
 5211TIP3    H215640   0.848  -0.009   2.985 -0.7908  1.5731 -1.7071
 5212TIP3   OH215641   4.768   2.258   2.496  0.0600  0.2705 -0.0061
 5212TIP3    H115642   4.714   2.233   2.571 -0.2619 -1.3758 -0.7585
 5212TIP3    H215643   4.856   2.227   2.519  0.3122  1.2375  0.3832
 5213TIP3   OH215644   4.973   3.918   0.045  0.1120  0.1687 -0.3237
 5213TIP3    H115645   4.945   3.827   0.055 -0.5070  0.3952  0.1233
 5213TIP3    H215646   4.901   3.960  -0.002  0.3254  0.4596 -0.3920
 5214TIP3   OH215647   3.594   1.836   0.537 -0.0781  0.5802  0.5073
 5214TIP3    H115648   3.649   1.884   0.598 -0.1644 -1.0311  1.9380
 5214TIP3    H215649   3.609   1.744   0.560  0.2774 -0.1446 -2.2435
 5215TIP3   OH215650   3.106   1.130   0.535 -0.0135 -0.1393 -0.5374
 5215TIP3    H115651   3.058   1.135   0.452 -0.8444 -1.9084 -0.2087
 5215TIP3    H215652   3.112   1.036   0.554 -1.3671  0.2388  2.2649
 5216TIP3   OH215653   5.768   3.908   3.125 -0.1419 -0.3785 -0.2174
 5216TIP3    H115654   5.780   4.003   3.130  0.9913 -0.4623 -1.0167
 5216TIP3    H215655   5.840   3.872   3.176  0.7977 -0.8323 -1.8005
 5217TIP3   OH215656   0.170   3.261   2.810 -0.0025 -0.4030 -0.7326
 5217TIP3    H115657   0.094   3.309   2.779 -0.4492 -0.6556 -0.0255
 5217TIP3    H215658   0.145   3.226   2.895  0.7030 -0.9603 -0.7399
 5218TIP3   OH215659   3.069   1.298   2.035  0.2553 -0.2929 -0.2483
 5218TIP3    H115660   3.078   1.212   2.077  0.9221  0.5230  1.3279
 5218TIP3    H215661   3.154   1.339   2.046 -0.2912  0.8802 -0.3302
 5219TIP3   OH215662   1.912   5.550   3.420 -0.8085  0.5893  0.8451
 5219TIP3    H115663   1.943   5.542   3.330 -2.5456  0.3467  0.2437
 5219TIP3    H215664   1.982   5.597   3.464  0.3029  0.2723 -0.5032
 5220TIP3   OH215665   6.140   5.450   0.341 -0.4380 -0.2698 -0.9507
 5220TIP3    H115666   6.161   5.531   0.387 -0.7308 -1.4844  1.4586
 5220TIP3    H215667   6.052   5.465   0.306 -0.6699  0.2900 -0.1442
 5221TIP3   OH215668   1.638   5.538   3.309  0.9861 -0.3519 -0.2670
 5221TIP3    H115669   1.591   5.617   3.282 -0.1617 -0.5518  1.0219
 5221TIP3    H215670   1.704   5.569   3.370  1.2250 -0.2758 -0.5647
 5222TIP3   OH215671   0.641   0.455   4.803  0.3545 -0.3875 -0.2758
 5222TIP3    H115672   0.720   0.412   4.769 -0.4240 -0.3001 -2.3625
 5222TIP3    H215673   0.652   0.547   4.777 -0.2748 -0.3124 -0.2707
 5223TIP3   OH215674   2.592   5.226   4.068  0.0728 -0.2386 -0.1349
 5223TIP3    H115675   2.606   5.320   4.063 -0.0978 -0.2683 -4.0502
 5223TIP3    H215676   2.680   5.189   4.055 -0.2192 -0.5521 -1.3290
 5224TIP3   OH215677   1.968   5.248   2.983 -0.1563 -0.2210 -0.3473
 5224TIP3    H115678   2.047   5.194   2.988  0.2520  0.4144  3.9850
 5224TIP3    H215679   1.995   5.325   2.932  1.8530 -0.3401  0.4537
 5225TIP3   OH215680   1.980   0.800   4.839 -0.2764 -0.2418  0.3391
 5225TIP3    H115681   1.998   0.714   4.877 -0.7073 -0.6122 -0.2790
 5225TIP3    H215682   2.066   0.840   4.830 -0.2047  0.1512  2.3438
 5226TIP3   OH215683   1.526   0.741   5.123  0.0088 -0.5378  0.2050
 5226TIP3    H115684   1.598   0.776   5.071 -0.4376 -0.4485 -0.3557
 5226TIP3    H215685   1.538   0.780   5.210 -0.0158  0.3699 -0.1918
 5227TIP3   OH215686   0.425   2.923   2.036  0.5074  0.2655 -0.2595
 5227TIP3    H115687   0.438   3.015   2.057  1.9887  0.4531 -1.7893
 5227TIP3    H215688   0.508   2.881   2.059  0.0181 -0.6036 -0.0283
 5228TIP3   OH215689   5.757   0.668   1.811 -0.1248  0.1782 -0.1646
 5228TIP3    H115690   5.732   0.614   1.736  0.0157  0.1701 -0.2061
 5228TIP3    H215691   5.851   0.682   1.801 -0.1352  0.3195 -0.0817
 5229TIP3   OH215692   1.740   0.076   4.476 -0.5577  0.3692 -0.0727
 5229TIP3    H115693   1.695   0.114   4.551 -2.3331  0.3041 -1.0333
 5229TIP3    H215694   1.761  -0.014   4.503 -1.9772  0.0611  0.0716
 5230TIP3   OH215695   1.165   0.438   0.820  0.0033 -0.4133 -0.2426
 5230TIP3    H115696   1.222   0.507   0.853  0.9025 -1.6872  0.9850
 5230TIP3    H215697   1.086   0.445   0.875 -0.2271  0.1033 -0.6304
 5231TIP3   OH215698   4.773   2.536   0.886  0.4207 -0.7456 -0.0196
 5231TIP3    H115699   4.828   2.458   0.881 -0.9753 -1.7536 -0.3347
 5231TIP3    H215700   4.835   2.609   0.890  1.7692 -1.8676  0.5592
 5232TIP3   OH215701   3.496   5.401   4.224 -0.5292  0.1410  0.3700
 5232TIP3    H115702   3.417   5.361   4.261 -0.4175  0.2149  0.6926
 5232TIP3    H215703   3.563   5.387   4.291  0.2096 -1.5620 -0.6626
 5233TIP3   OH215704   3.870   3.336   2.055 -0.2337 -0.3324 -0.3533
 5233TIP3    H115705   3.797   3.334   2.116 -0.7587 -1.0530 -0.9948
 5233TIP3    H215706   3.830   3.331   1.969  0.4508  1.4582 -0.8272
 5234TIP3   OH215707   1.118   0.705   3.595 -0.1237  0.1342 -0.5855
 5234TIP3    H115708   1.036   0.684   3.640  0.9340 -0.0123  1.4243
 5234TIP3    H215709   1.177   0.732   3.666  1.6213  0.0457 -1.9415
 5235TIP3   OH215710   0.767   5.295   0.649  0.1685  0.5125  0.1381
 5235TIP3    H115711   0.738   5.346   0.724  1.0704 -0.8325  1.4586
 5235TIP3    H215712   0.705   5.317   0.580 -2.6794 -0.4884  2.1598
 5236TIP3   OH215713   6.287   4.101   3.642 -0.0566 -0.3609 -0.2288
 5236TIP3    H115714   6.358   4.038   3.650  0.8764  0.5204 -1.1593
 5236TIP3    H215715   6.315   4.175   3.696  0.1734  0.3464 -1.2869
 5237TIP3   OH215716   1.626   5.752   3.731 -0.1108  0.0946  0.3915
 5237TIP3    H115717   1.599   5.666   3.764  2.9051 -1.4011 -0.6282
 5237TIP3    H215718   1.561   5.774   3.664 -0.8835 -1.4488  0.5815
 5238TIP3   OH215719   2.844   0.126   0.151  0.4839 -0.1457  0.1863
 5238TIP3    H115720   2.804   0.102   0.234 -2.1935  1.9773 -0.3583
 5238TIP3    H215721   2.868   0.218   0.162  1.8515 -0.3540 -0.7942
 5239TIP3   OH215722   1.492   0.149   0.016 -0.4051 -0.4029  0.5245
 5239TIP3    H115723   1.421   0.141   0.080  0.1965 -1.7293  1.0685
 5239TIP3    H215724   1.571   0.127   0.065  0.9814  4.2774  0.8405
 5240TIP3   OH215725   4.863   1.725   0.763  0.7710  0.5495  0.1640
 5240TIP3    H115726   4.886   1.642   0.806 -2.2103 -2.0623 -2.6972
 5240TIP3    H215727   4.785   1.756   0.809  1.3631  1.3517  0.6582
 5241TIP3   OH215728   2.261   3.832   2.272  0.1070  0.1227 -0.3017
 5241TIP3    H115729   2.327   3.859   2.335  0.8499 -0.2939 -0.8853
 5241TIP3    H215730   2.240   3.741   2.297 -1.7080  0.8570  1.0892
 5242TIP3   OH215731   3.626   0.117   3.991 -0.2245  0.4052 -0.3841
 5242TIP3    H115732   3.646   0.024   3.994  0.9312  0.6158 -1.0109
 5242TIP3    H215733   3.652   0.145   3.903 -0.7383  1.2790 -0.2736
 5243TIP3   OH215734   5.174   3.690   2.420  0.2307  0.7033  0.3110
 5243TIP3    H115735   5.111   3.623   2.392  1.2450 -0.1920  0.0927
 5243TIP3    H215736   5.223   3.648   2.490  0.0054  1.7127  1.0848
 5244TIP3   OH215737   0.301   3.289   1.759 -0.1257  0.1678  0.3401
 5244TIP3    H115738   0.380   3.302   1.812  0.8255  0.3171 -1.0631
 5244TIP3    H215739   0.268   3.204   1.787 -0.4968  0.8582  2.1976
 5245TIP3   OH215740   0.053   5.313   0.868 -0.2489  0.0212 -0.2907
 5245TIP3    H115741  -0.022   5.372   0.876 -1.0607 -1.2365  1.9612
 5245TIP3    H215742   0.039   5.246   0.934  2.1079 -1.1279 -0.8485
 5246TIP3   OH215743   5.677   4.425   4.703  0.2403  0.2517 -0.2271
 5246TIP3    H115744   5.656   4.479   4.779 -0.1807 -0.7282  0.3789
 5246TIP3    H215745   5.773   4.429   4.697  0.3372 -0.1705  0.7629
 5247TIP3   OH215746   0.479   4.746   4.516 -0.1471  0.3916 -0.3267
 5247TIP3    H115747   0.422   4.778   4.586 -0.6381 -0.1667 -0.4551
 5247TIP3    H215748   0.562   4.727   4.560 -0.5411 -0.2399  0.1835
 5248TIP3   OH215749   5.208   0.651   3.539 -0.0682 -0.4132 -0.4112
 5248TIP3    H115750   5.265   0.574   3.541 -0.9547 -1.0860 -0.3114
 5248TIP3    H215751   5.119   0.615   3.532 -0.7288  0.4873  2.2237
 5249TIP3   OH215752   3.429   4.484   5.171  0.0405  0.3256 -0.5506
 5249TIP3    H115753   3.463   4.395   5.157 -0.0143 -0.1938  2.2114
 5249TIP3    H215754   3.342   4.482   5.131  0.4615 -0.5025 -1.4825
 5250TIP3   OH215755   6.101   5.817   3.651 -0.2213  0.4370  0.2104
 5250TIP3    H115756   6.172   5.814   3.715  1.6830  1.0560 -1.7204
 5250TIP3    H215757   6.075   5.909   3.649 -0.4801  0.3643  0.3323
 5251TIP3   OH215758   4.460   2.835   2.188  0.4923  0.3162 -0.1697
 5251TIP3    H115759   4.465   2.741   2.170 -0.5138  0.1955  0.1141
 5251TIP3    H215760   4.411   2.871   2.114  0.8389  0.6115 -0.2556
 5252TIP3   OH215761   1.079   1.941   0.766 -0.1715  0.6279  0.1919
 5252TIP3    H115762   1.063   1.985   0.849  0.1562 -1.1962  1.2698
 5252TIP3    H215763   1.137   2.001   0.718 -1.6665  2.4536  0.5554
 5253TIP3   OH215764   5.604   1.735   0.608  0.1113  0.1865  0.8628
 5253TIP3    H115765   5.557   1.653   0.595  1.9709 -1.0146  1.2709
 5253TIP3    H215766   5.581   1.762   0.697  0.8413 -0.8774  1.4032
 5254TIP3   OH215767   0.973   5.627   3.393  0.1690  0.4816  0.5101
 5254TIP3    H115768   0.899   5.608   3.335 -0.5549  0.5236  1.3972
 5254TIP3    H215769   0.936   5.681   3.462  0.2168 -2.1777  2.7957
 5255TIP3   OH215770   3.634   0.394   4.680  0.2383 -0.0435 -0.7216
 5255TIP3    H115771   3.648   0.299   4.681  2.3166  0.2336  0.0673
 5255TIP3    H215772   3.560   0.407   4.740 -1.4675 -1.2878 -2.4029
 5256TIP3   OH215773   4.749   4.357   3.292 -0.3007  0.1429  0.2241
 5256TIP3    H115774   4.745   4.430   3.354  0.8682  0.0530  0.4263
 5256TIP3    H215775   4.829   4.310   3.315 -0.1922 -0.2738 -0.9397
 5257TIP3   OH215776   4.617   4.925   3.070  0.0869 -0.2883  0.4783
 5257TIP3    H115777   4.640   4.834   3.087 -1.3185 -0.6519  0.5710
 5257TIP3    H215778   4.521   4.924   3.063  0.2130  0.7455 -2.1154
 5258TIP3   OH215779   5.819   2.577   2.440 -0.1377 -0.5532 -0.9228
 5258TIP3    H115780   5.730   2.603   2.462 -0.1647 -0.9260 -0.5852
 5258TIP3    H215781   5.839   2.505   2.499  0.9917  0.5926  0.1718
 5259TIP3   OH215782   1.429   3.269   4.716 -0.5235 -0.2542  0.1764
 5259TIP3    H115783   1.500   3.221   4.758 -0.7502 -0.4440  0.3442
 5259TIP3    H215784   1.463   3.290   4.629  0.1781  0.6548  0.6446
 5260TIP3   OH215785   0.721   3.120   2.907 -0.3319 -0.4540 -0.4141
 5260TIP3    H115786   0.643   3.082   2.866 -1.7078 -0.0796  1.7109
 5260TIP3    H215787   0.699   3.213   2.916  0.1083 -0.4511  0.7344
 5261TIP3   OH215788   4.058   2.710   0.272  0.2713  0.8883  0.2811
 5261TIP3    H115789   4.027   2.636   0.220  0.0363  1.8568 -1.0052
 5261TIP3    H215790   3.985   2.732   0.328 -0.2943  1.2284 -0.5708
 5262TIP3   OH215791   1.970   1.162   1.250  0.1414  0.0924  0.4816
 5262TIP3    H115792   2.048   1.138   1.299  0.2516 -0.0432  0.2413
 5262TIP3    H215793   1.905   1.096   1.273  1.2367 -2.1450 -2.2440
 5263TIP3   OH215794   5.061   3.376   5.029 -0.1717  0.1440  0.0159
 5263TIP3    H115795   5.037   3.465   5.055  0.9988 -0.2764  2.9630
 5263TIP3    H215796   5.120   3.346   5.098  2.4453 -1.6592 -2.7472
 5264TIP3   OH215797   0.715   0.797   3.584 -0.2982 -0.2389  0.0742
 5264TIP3    H115798   0.738   0.785   3.676  0.3831  0.5056  0.0055
 5264TIP3    H215799   0.651   0.868   3.584 -0.3031 -0.2430 -0.0328
 5265TIP3   OH215800   3.980   3.596   1.844 -0.1713  0.4872 -0.4758
 5265TIP3    H115801   4.069   3.607   1.811  0.8537 -2.9330  0.6653
 5265TIP3    H215802   3.987   3.524   1.908 -3.6519  0.4660  0.0817
 5266TIP3   OH215803   4.098   0.816   1.402  0.1399  0.1667 -0.3397
 5266TIP3    H115804   4.076   0.730   1.366  0.7713 -0.2501  0.2565
 5266TIP3    H215805   4.193   0.815   1.412  0.2043  1.0998 -0.7304
 5267TIP3   OH215806   2.892   2.777   0.078  0.3625 -0.6013  0.4158
 5267TIP3    H115807   2.972   2.771   0.132  0.7782  2.8150  0.4483
 5267TIP3    H215808   2.913   2.728  -0.001  2.1287 -0.6232  0.8354
 5268TIP3   OH215809   0.166   3.681   0.715 -0.0260  0.6521 -0.1695
 5268TIP3    H115810   0.181   3.769   0.682 -0.2778  0.6037 -0.4172
 5268TIP3    H215811   0.080   3.685   0.757  0.6181  0.9145  1.1844
 5269TIP3   OH215812   0.592   2.324   4.284  0.7902  0.5890 -0.1135
 5269TIP3    H115813   0.568   2.389   4.350  1.9355  0.9787 -0.0760
 5269TIP3    H215814   0.646   2.372   4.221  1.7159 -0.3316 -0.0432
 5270TIP3   OH215815   2.261   5.265   3.132  0.3749  0.1737 -0.6946
 5270TIP3    H115816   2.258   5.172   3.154  0.9131 -0.1222 -1.8339
 5270TIP3    H215817   2.197   5.305   3.192 -0.5853 -1.0568 -0.8462
 5271TIP3   OH215818   0.558   1.602   4.328 -0.0039 -0.9269  0.0200
 5271TIP3    H115819   0.525   1.681   4.284 -2.8329 -2.5587 -1.1114
 5271TIP3    H215820   0.496   1.588   4.400  0.7993 -1.8011  0.5537
 5272TIP3   OH215821   1.757   1.501   0.372 -0.2522 -0.4931  0.3027
 5272TIP3    H115822   1.682   1.511   0.430  0.5170 -1.4759  1.5463
 5272TIP3    H215823   1.828   1.474   0.431  0.5922 -1.4233 -1.0818
 5273TIP3   OH215824   5.031   0.276   4.195  0.3416  0.1883  0.0723
 5273TIP3    H115825   5.006   0.367   4.178 -1.2675 -0.1409  0.5702
 5273TIP3    H215826   4.964   0.224   4.152  2.0390 -0.8518 -1.4902
 5274TIP3   OH215827   2.881   2.557   3.790 -0.4679  0.1656  0.1247
 5274TIP3    H115828   2.924   2.552   3.705 -0.5466 -1.5041  0.1522
 5274TIP3    H215829   2.788   2.550   3.771 -0.5712  0.9814  0.2793
 5275TIP3   OH215830   0.877   3.381   1.078  0.4641  0.2675  0.7174
 5275TIP3    H115831   0.895   3.344   1.165 -0.6853  1.3617  1.4576
 5275TIP3    H215832   0.825   3.460   1.096 -2.1333 -0.8955 -1.0392
 5276TIP3   OH215833   3.139   5.632   3.351 -0.0497  0.1979  0.0931
 5276TIP3    H115834   3.110   5.712   3.308 -2.2503 -0.9695 -0.7396
 5276TIP3    H215835   3.226   5.654   3.385 -0.0218  2.5084 -1.2204
 5277TIP3   OH215836  -0.012   5.972   0.154 -0.3314 -0.3891  0.0627
 5277TIP3    H115837   0.075   6.012   0.146 -2.2122  3.8832 -2.3258
 5277TIP3    H215838  -0.014   5.906   0.085  0.6849  0.2888 -0.6600
 5278TIP3   OH215839   0.162   3.628   4.213 -0.0580 -0.0476  0.4887
 5278TIP3    H115840   0.148   3.657   4.123 -1.3129 -2.0064 -0.0280
 5278TIP3    H215841   0.249   3.660   4.236 -0.7357  2.7408 -0.4514
 5279TIP3   OH215842   3.333   1.255   0.614  0.2696 -0.3307 -0.8186
 5279TIP3    H115843   3.257   1.203   0.588 -0.3625 -1.7507  3.1565
 5279TIP3    H215844   3.296   1.333   0.654  0.5950 -1.8228  2.7478
 5280TIP3   OH215845   2.412   2.419   0.824 -0.2972  0.0086 -0.5320
 5280TIP3    H115846   2.373   2.392   0.741  0.5553 -0.1095 -0.9046
 5280TIP3    H215847   2.365   2.499   0.848  0.1332  0.6018 -1.6357
 5281TIP3   OH215848   1.368   5.574   3.000 -0.0241  0.4237  0.1240
 5281TIP3    H115849   1.439   5.523   3.037 -1.1103 -1.0160  0.3397
 5281TIP3    H215850   1.390   5.582   2.907  0.1298 -0.5837  0.0530
 5282TIP3   OH215851   5.675   2.057   0.744 -0.6836  0.5003  0.5778
 5282TIP3    H115852   5.709   1.990   0.684 -1.5097 -0.5609  1.2567
 5282TIP3    H215853   5.751   2.111   0.764 -0.5900  1.5301 -2.1994
 5283TIP3   OH215854   1.912   2.521   1.459 -0.4813 -0.1522 -0.1155
 5283TIP3    H115855   1.953   2.437   1.478 -1.7352 -0.9845 -0.9379
 5283TIP3    H215856   1.935   2.538   1.367 -0.5579  0.2234 -0.0658
 5284TIP3   OH215857   5.212   5.565   2.568  0.4238  0.2275  0.3117
 5284TIP3    H115858   5.242   5.495   2.511 -0.0705 -0.2754  0.6601
 5284TIP3    H215859   5.253   5.644   2.532  1.5869 -0.3359  0.3658
 5285TIP3   OH215860   4.302   1.135   3.701 -0.0237  0.3060  0.3119
 5285TIP3    H115861   4.345   1.064   3.749 -1.0244  1.3502  2.9419
 5285TIP3    H215862   4.374   1.179   3.655  0.9569 -0.9464  0.5790
 5286TIP3   OH215863   5.370   4.736   5.118  0.0266 -0.3363 -0.5144
 5286TIP3    H115864   5.306   4.794   5.160 -0.7294 -1.2765 -0.3391
 5286TIP3    H215865   5.369   4.657   5.173  3.3635  0.6195  1.1660
 5287TIP3   OH215866   4.428   3.190   4.671 -0.0320 -0.1979 -0.8899
 5287TIP3    H115867   4.502   3.217   4.617  0.7590 -3.2809 -1.5516
 5287TIP3    H215868   4.467   3.141   4.744 -1.3119  0.2064  0.1120
 5288TIP3   OH215869   1.585   2.504   3.048 -0.1395 -0.1601 -0.2448
 5288TIP3    H115870   1.539   2.575   3.004 -0.0305 -0.1044 -0.2690
 5288TIP3    H215871   1.600   2.438   2.980 -0.1535 -0.1639 -0.2443
 5289TIP3   OH215872   3.707   3.336   3.550 -0.1490  0.3188 -0.2972
 5289TIP3    H115873   3.631   3.278   3.558 -1.5516  2.0102 -0.8969
 5289TIP3    H215874   3.674   3.423   3.572  1.9263  0.9351  0.7073
 5290TIP3   OH215875   4.161   1.304   4.924 -0.2598 -0.3989 -0.6946
 5290TIP3    H115876   4.116   1.378   4.884 -1.6653  0.4846  2.2506
 5290TIP3    H215877   4.251   1.312   4.892 -0.6378  1.8668 -1.4066
 5291TIP3   OH215878   4.500   4.567   4.680  0.2735  0.1394  0.0522
 5291TIP3    H115879   4.498   4.658   4.710  0.8935 -0.2934  1.4685
 5291TIP3    H215880   4.423   4.527   4.721  1.2472 -0.5118  1.3169
 5292TIP3   OH215881   0.193   4.962   4.823 -0.5485 -0.5308  0.5710
 5292TIP3    H115882   0.161   5.032   4.879  1.4182 -0.7899  2.1219
 5292TIP3    H215883   0.279   4.991   4.794  0.0385 -2.0007  0.7232
 5293TIP3   OH215884   2.924   5.205   3.222 -0.2265 -0.5797 -0.0567
 5293TIP3    H115885   2.849   5.167   3.177 -0.4904 -1.2241  0.8931
 5293TIP3    H215886   2.998   5.191   3.162 -0.8746  0.2307 -1.0793
 5294TIP3   OH215887   3.847   1.294   3.766  0.1724 -0.3398 -0.2991
 5294TIP3    H115888   3.799   1.368   3.804 -0.9363 -0.0749 -2.1007
 5294TIP3    H215889   3.850   1.229   3.836 -0.8991  0.5061  0.5722
 5295TIP3   OH215890   4.076   3.313   2.382 -0.3874 -0.4549  0.2154
 5295TIP3    H115891   4.013   3.364   2.433  0.1543  0.5540 -0.1074
 5295TIP3    H215892   4.024   3.242   2.344 -1.0464 -0.4670  1.1016
 5296TIP3   OH215893   0.598   0.713   4.413  0.1434  0.1319  0.1823
 5296TIP3    H115894   0.626   0.782   4.353  1.0111  0.7830  1.2960
 5296TIP3    H215895   0.510   0.739   4.440  0.7780  1.2826  1.2352
 5297TIP3   OH215896   3.766   1.869   2.954 -0.4382 -0.1429  0.2543
 5297TIP3    H115897   3.683   1.853   2.908 -0.2817  1.7598 -0.7891
 5297TIP3    H215898   3.777   1.964   2.951  1.6734 -0.3291  0.5851
 5298TIP3   OH215899   3.296   3.821   2.555 -0.2509 -0.1382  0.1139
 5298TIP3    H115900   3.357   3.887   2.589 -0.9937  2.0703 -2.5300
 5298TIP3    H215901   3.353   3.752   2.521  0.5993 -0.1020  1.3751
 5299TIP3   OH215902   6.191   0.528   1.336 -0.3974  0.0355  0.1428
 5299TIP3    H115903   6.100   0.550   1.316 -0.0722  0.8895 -0.4101
 5299TIP3    H215904   6.230   0.610   1.365  0.8434  0.2498 -1.9754
 5300TIP3   OH215905   1.017   0.049   2.811  0.0851 -0.0331 -0.6151
 5300TIP3    H115906   1.033   0.125   2.755  0.6992 -0.4964 -1.0820
 5300TIP3    H215907   1.049   0.076   2.897 -0.3789  0.4948 -0.6033
 5301TIP3   OH215908   1.657   3.340   2.608 -0.1595  0.2730  0.4623
 5301TIP3    H115909   1.588   3.373   2.550 -0.4070 -2.3344 -0.8730
 5301TIP3    H215910   1.617   3.338   2.695 -0.6856  1.7228  0.2806
 5302TIP3   OH215911   0.759   1.552   4.710  1.3230 -0.4453 -0.0680
 5302TIP3    H115912   0.786   1.529   4.798  1.4759 -0.2393 -0.0580
 5302TIP3    H215913   0.838   1.541   4.657  1.7324  1.1636  0.1471
 5303TIP3   OH215914   0.583   1.456   2.065  0.1159  0.2108 -0.3098
 5303TIP3    H115915   0.676   1.464   2.085 -0.1565 -0.6404  1.4435
 5303TIP3    H215916   0.539   1.512   2.129 -0.6776 -1.0003  0.2450
 5304TIP3   OH215917   5.178   2.255   3.948  0.5276 -0.3133 -0.0553
 5304TIP3    H115918   5.179   2.349   3.969  0.6502 -0.3390  0.0574
 5304TIP3    H215919   5.089   2.237   3.920  0.6844 -0.0029 -0.7808
 5305TIP3   OH215920   0.169   5.918   2.619 -0.5430  0.3372  0.1227
 5305TIP3    H115921   0.181   6.011   2.636 -0.4457  0.9230 -2.7250
 5305TIP3    H215922   0.147   5.912   2.526  0.6586 -2.5781 -0.1126
 5306TIP3   OH215923   2.279   2.752   2.891 -0.0416 -0.3067 -0.2126
 5306TIP3    H115924   2.317   2.679   2.940 -0.6073 -0.3687  0.1572
 5306TIP3    H215925   2.309   2.830   2.937  0.7504 -0.2872 -0.7449
 5307TIP3   OH215926   2.071   1.843   4.623 -0.0876 -0.2192 -0.3304
 5307TIP3    H115927   2.059   1.822   4.716  0.3833 -0.0204 -0.2256
 5307TIP3    H215928   2.030   1.769   4.577 -0.9501  0.0213  0.0251
 5308TIP3   OH215929   5.793   0.388   1.212  0.3210 -0.2250  0.0099
 5308TIP3    H115930   5.701   0.381   1.234  0.3320  1.0302  0.5191
 5308TIP3    H215931   5.832   0.439   1.283  1.1993  0.1687 -0.7236
 5309TIP3   OH215932   1.811   1.098   2.020 -0.1889  0.0521  0.3410
 5309TIP3    H115933   1.792   1.190   2.038  0.9537  0.8185 -1.9137
 5309TIP3    H215934   1.906   1.091   2.028  0.1485 -0.0644 -2.5377
 5310TIP3   OH215935   2.989   2.361   4.845 -0.6066  0.1490 -0.5439
 5310TIP3    H115936   3.062   2.317   4.888  0.8129  1.0018 -2.0224
 5310TIP3    H215937   2.950   2.415   4.914  1.5861  1.4440 -0.2401
 5311TIP3   OH215938   5.918   5.392   2.195  0.3710 -0.1261  0.0632
 5311TIP3    H115939   5.898   5.315   2.248 -1.6028 -0.4686 -1.1149
 5311TIP3    H215940   5.874   5.377   2.112  1.0905  1.6677 -0.6919
 5312TIP3   OH215941   0.925   0.351   3.058 -0.1740  0.5098 -0.0371
 5312TIP3    H115942   0.962   0.284   3.000 -0.7959  0.3752 -0.2797
 5312TIP3    H215943   0.924   0.431   3.005 -1.8785  0.1164 -0.6423
 5313TIP3   OH215944   3.145   5.859   3.860 -0.3098  0.4452  0.5049
 5313TIP3    H115945   3.159   5.832   3.951  0.2192  1.0980  0.6163
 5313TIP3    H215946   3.105   5.945   3.866 -0.6021  0.3409  0.1166
 5314TIP3   OH215947   3.245   5.964   4.767  0.5680  0.5569  0.1009
 5314TIP3    H115948   3.206   6.024   4.704 -0.7289 -0.7361 -0.3734
 5314TIP3    H215949   3.245   5.879   4.723  1.3113 -0.0303  1.1803
 5315TIP3   OH215950   1.860   5.721   0.964 -0.0595 -0.0247 -0.1227
 5315TIP3    H115951   1.812   5.647   1.000 -0.6274  1.5300  2.6008
 5315TIP3    H215952   1.792   5.785   0.943  0.5770  0.8073  0.3027
 5316TIP3   OH215953   0.814   4.228   3.421 -0.1753 -0.1680  0.0490
 5316TIP3    H115954   0.749   4.160   3.405 -1.0176  0.8590 -1.0489
 5316TIP3    H215955   0.765   4.299   3.463  0.3738  0.3555 -0.1812
 5317TIP3   OH215956   1.677   3.971   1.765 -0.0770  0.0861  0.0370
 5317TIP3    H115957   1.744   3.927   1.713  0.9052  0.7923  0.6726
 5317TIP3    H215958   1.709   4.061   1.776 -0.2585 -0.0156  1.8001
 5318TIP3   OH215959   3.902   3.009   1.969  0.4837 -0.0845 -0.4943
 5318TIP3    H115960   3.929   3.064   1.896  0.9888 -0.3171 -0.4835
 5318TIP3    H215961   3.977   3.010   2.029  0.3840 -0.5595 -0.3632
 5319TIP3   OH215962   6.264   1.301   0.343 -0.1003 -0.1386  0.3125
 5319TIP3    H115963   6.309   1.234   0.395 -2.2171 -0.3460  1.9887
 5319TIP3    H215964   6.209   1.251   0.283 -0.7938  0.0936  0.7516
 5320TIP3   OH215965   5.754   3.830   5.182 -0.4247 -0.0919 -0.2902
 5320TIP3    H115966   5.782   3.894   5.116  0.8243 -0.8762 -0.5581
 5320TIP3    H215967   5.711   3.762   5.131 -1.6131  0.4277 -0.0198
 5321TIP3   OH215968   2.252   0.256   5.120 -0.7777 -0.5242 -0.2538
 5321TIP3    H115969   2.246   0.200   5.197 -2.6815  0.0645  0.0782
 5321TIP3    H215970   2.240   0.196   5.046 -0.2955 -0.8925 -0.0393
 5322TIP3   OH215971   5.900   4.104   3.266  0.6915  0.0957  0.1678
 5322TIP3    H115972   5.983   4.147   3.288 -0.5798  1.7717  2.0191
 5322TIP3    H215973   5.870   4.067   3.349 -0.2136 -0.9072 -0.5858
 5323TIP3   OH215974   0.731   5.827   0.294 -0.0901 -0.1258 -0.7173
 5323TIP3    H115975   0.654   5.848   0.241  0.9555  0.4480 -2.0778
 5323TIP3    H215976   0.801   5.811   0.229  1.4374  1.3300  0.4731
 5324TIP3   OH215977   5.819   4.548   0.986  0.1323 -0.1659  0.0718
 5324TIP3    H115978   5.852   4.474   1.037 -0.1090  0.4901  1.2349
 5324TIP3    H215979   5.724   4.543   0.996  0.1149  0.3018  0.1764
 5325TIP3   OH215980   4.363   1.837   5.021 -0.1406  0.5323 -0.0885
 5325TIP3    H115981   4.420   1.786   5.078 -0.9927 -1.4591 -0.8939
 5325TIP3    H215982   4.346   1.918   5.069 -0.0081 -0.6218  2.0132
 5326TIP3   OH215983   3.458   4.998   0.771  0.1432 -0.1616  0.2037
 5326TIP3    H115984   3.504   5.076   0.742 -0.0056 -0.3397 -0.5558
 5326TIP3    H215985   3.463   5.000   0.866  2.0287 -0.3702  0.1355
 5327TIP3   OH215986   3.687   3.803   1.558  0.1519  0.6969 -0.5434
 5327TIP3    H115987   3.616   3.739   1.567  1.1286 -0.4125 -0.4337
 5327TIP3    H215988   3.737   3.796   1.639  0.1822  1.7346 -0.4616
 5328TIP3   OH215989   1.154   1.000   1.716 -0.1862  0.2535  0.5048
 5328TIP3    H115990   1.082   0.937   1.728 -0.8534  0.9852  0.4130
 5328TIP3    H215991   1.124   1.058   1.647  0.4722  0.6127  0.5134
 5329TIP3   OH215992   5.765   3.760   3.982  0.0457  0.4474  0.3498
 5329TIP3    H115993   5.780   3.700   4.056 -0.0770  0.8293  0.6880
 5329TIP3    H215994   5.819   3.837   4.002  0.4224  0.3375 -0.2249
 5330TIP3   OH215995   2.785   0.412   3.199 -0.0117 -0.3597 -0.2493
 5330TIP3    H115996   2.862   0.427   3.254  0.4308 -1.6998 -0.4688
 5330TIP3    H215997   2.753   0.326   3.226 -0.7376 -0.3309 -0.9924
 5331TIP3   OH215998   2.907   3.907   4.253 -0.3737  0.0222  0.1965
 5331TIP3    H115999   2.814   3.925   4.241 -0.4439  0.0191  0.7095
 5331TIP3    H216000   2.914   3.811   4.250 -0.3146  0.0421 -0.3368
 5332TIP3   OH216001   1.932   3.945   4.599  0.2231  0.4163  0.0029
 5332TIP3    H116002   1.867   3.985   4.656  2.6870  3.2086  1.1606
 5332TIP3    H216003   1.924   3.992   4.516 -0.2965 -0.3962 -0.4171
 5333TIP3   OH216004   4.159   5.187   2.854 -0.4076  0.5210 -0.6096
 5333TIP3    H116005   4.134   5.273   2.821  0.3144  1.4189  1.0453
 5333TIP3    H216006   4.160   5.197   2.950  1.1702 -0.8905 -0.4334
 5334TIP3   OH216007   2.865   3.398   0.949 -0.0017 -0.5334  0.0886
 5334TIP3    H116008   2.777   3.433   0.933 -0.3927 -0.4246  2.1458
 5334TIP3    H216009   2.921   3.475   0.955 -0.2652 -0.4047  1.2921
 5335TIP3   OH216010   0.427   2.035   0.742 -0.4827  0.0571  0.2091
 5335TIP3    H116011   0.479   2.040   0.822  0.5138 -0.0636 -0.4085
 5335TIP3    H216012   0.490   2.011   0.674 -1.2698  0.3648 -0.6546
 5336TIP3   OH216013   0.653   5.758   3.948  0.1394  0.6899  0.1343
 5336TIP3    H116014   0.619   5.745   3.859  1.4656  1.8841 -0.5867
 5336TIP3    H216015   0.742   5.790   3.935  0.7613 -0.1855  1.9308
 5337TIP3   OH216016   3.317   3.902   0.878  0.2571  0.9439 -0.0855
 5337TIP3    H116017   3.241   3.941   0.834  0.1168  0.5289 -0.2225
 5337TIP3    H216018   3.387   3.907   0.814  0.2820  1.1153 -0.0448
 5338TIP3   OH216019   0.420   4.440   4.962  0.6939 -0.3069 -0.3450
 5338TIP3    H116020   0.405   4.445   5.056 -0.0791 -0.1656 -0.4682
 5338TIP3    H216021   0.391   4.525   4.928  0.2110 -0.6425 -0.7993
 5339TIP3   OH216022   3.801   4.694   5.053 -0.0868  0.4663  0.4242
 5339TIP3    H116023   3.826   4.760   4.989 -0.6279  0.5429  0.2867
 5339TIP3    H216024   3.714   4.667   5.026 -0.2828  0.4376  1.0753
 5340TIP3   OH216025   3.001   1.168   0.281  0.3202 -0.4980 -0.1356
 5340TIP3    H116026   3.086   1.164   0.238  0.3977  0.5657 -0.1162
 5340TIP3    H216027   2.955   1.089   0.253  0.4795  0.0142 -1.9432
 5341TIP3   OH216028   6.117   2.710   1.488 -0.0673  0.1456 -0.4011
 5341TIP3    H116029   6.140   2.797   1.454 -0.0543  1.3661  2.4883
 5341TIP3    H216030   6.022   2.706   1.479 -0.4325  1.6747  1.8391
 5342TIP3   OH216031   0.366   1.089   3.940 -0.1824  0.0031  0.3648
 5342TIP3    H116032   0.460   1.095   3.921 -0.3549  1.1673 -0.1960
 5342TIP3    H216033   0.332   1.028   3.875  0.2379 -0.7290  0.8165
 5343TIP3   OH216034   6.114   1.980   1.804 -0.2537  0.3385 -0.1987
 5343TIP3    H116035   6.183   1.947   1.747 -0.3558  1.4683 -0.9976
 5343TIP3    H216036   6.040   1.921   1.788 -0.4718  0.9858 -1.7035
 5344TIP3   OH216037   1.380   0.428   4.970  0.1512 -0.2492  0.2812
 5344TIP3    H116038   1.439   0.482   4.918 -0.1495 -0.8496 -0.7333
 5344TIP3    H216039   1.437   0.376   5.026  0.5147  0.1191  0.2522
 5345TIP3   OH216040   2.756   3.120   1.512 -0.1245 -0.2509 -0.2730
 5345TIP3    H116041   2.767   3.151   1.422 -0.8532 -0.8126 -0.5661
 5345TIP3    H216042   2.825   3.056   1.524 -1.0072 -1.3862 -1.0081
 5346TIP3   OH216043   2.186   5.772   2.575 -0.1352  0.4606 -0.6215
 5346TIP3    H116044   2.231   5.847   2.613  0.4456  0.3344 -1.0479
 5346TIP3    H216045   2.248   5.699   2.586 -0.4109  0.1914 -0.8272
 5347TIP3   OH216046   4.664   1.905   0.857  0.4357 -0.0851 -0.7496
 5347TIP3    H116047   4.619   1.985   0.828  0.3244  0.3412  0.5204
 5347TIP3    H216048   4.603   1.834   0.834 -0.9132  0.4826  0.8927
 5348TIP3   OH216049   3.177   4.572   1.030  0.1825 -0.4031  0.9833
 5348TIP3    H116050   3.100   4.614   0.992  0.0082 -0.4828  1.2466
 5348TIP3    H216051   3.249   4.632   1.011  0.3529 -1.0836 -0.7025
 5349TIP3   OH216052   4.795   2.657   1.315  0.3174 -0.8743 -0.1362
 5349TIP3    H116053   4.789   2.582   1.256 -0.7005 -0.6572 -0.3242
 5349TIP3    H216054   4.817   2.619   1.400 -0.5491 -1.4235 -0.1516
 5350TIP3   OH216055   0.005   1.166   3.571 -0.2820 -0.1973 -0.2749
 5350TIP3    H116056  -0.039   1.101   3.516 -0.2819 -0.3652 -0.0753
 5350TIP3    H216057   0.045   1.226   3.508 -0.4352 -0.2857 -0.4588
 5351TIP3   OH216058   2.414   2.848   4.969 -0.0858  0.2133 -0.0351
 5351TIP3    H116059   2.460   2.799   5.037  0.2713  0.9631  0.2807
 5351TIP3    H216060   2.460   2.828   4.888  2.2321  2.5817  0.5498
 5352TIP3   OH216061   2.108   4.290   2.792 -0.1866  0.2726  0.5673
 5352TIP3    H116062   2.119   4.276   2.698 -0.3181 -0.5166  0.6670
 5352TIP3    H216063   2.153   4.217   2.834 -1.3012 -0.1507  1.0818
 5353TIP3   OH216064   3.998   1.676   3.771  0.0920  0.8128 -0.0301
 5353TIP3    H116065   3.906   1.673   3.743 -0.1666 -3.3389  0.6254
 5353TIP3    H216066   4.033   1.591   3.745  3.5843  1.9610  0.4721
 5354TIP3   OH216067   5.003   1.365   3.954  0.2460  0.4608 -0.6804
 5354TIP3    H116068   4.911   1.369   3.981  0.6936  2.0353  0.8246
 5354TIP3    H216069   5.003   1.313   3.874 -1.9340  0.3455 -0.6537
 5355TIP3   OH216070   0.842   4.048   3.798  0.0725  0.2785  0.2197
 5355TIP3    H116071   0.912   4.112   3.809 -1.0053  1.7955 -1.2740
 5355TIP3    H216072   0.884   3.973   3.755  1.0574  0.5274  0.7166
 5356TIP3   OH216073   2.249   2.787   1.867  0.2517 -0.7233 -0.3789
 5356TIP3    H116074   2.181   2.737   1.821  0.4152 -1.1007 -0.2189
 5356TIP3    H216075   2.295   2.721   1.919 -0.8908 -0.0847  1.5209
 5357TIP3   OH216076   5.976   3.287   1.398  0.4940 -0.4971  0.0635
 5357TIP3    H116077   5.943   3.214   1.346  1.5447 -1.5374  0.8190
 5357TIP3    H216078   5.963   3.364   1.342 -0.1448 -1.3245 -0.9571
 5358TIP3   OH216079   2.832   1.836   1.097 -0.1437 -0.3467 -0.1245
 5358TIP3    H116080   2.881   1.799   1.023 -0.5230 -0.4604 -0.3223
 5358TIP3    H216081   2.869   1.793   1.174  0.6025  0.1474 -0.1977
 5359TIP3   OH216082   3.439   0.032   4.689 -0.1960 -0.0593 -0.1589
 5359TIP3    H116083   3.437  -0.028   4.614 -1.8376  0.4679 -0.5821
 5359TIP3    H216084   3.528   0.068   4.688  0.8306 -2.4298  0.1104
 5360TIP3   OH216085   3.291   3.963   4.325 -0.9912 -0.1472 -0.2604
 5360TIP3    H116086   3.372   3.934   4.367 -1.3383  0.4260  0.8502
 5360TIP3    H216087   3.221   3.928   4.381 -1.4399  2.0542  0.6583
 5361TIP3   OH216088   5.566   4.541   3.565 -0.0715  0.0334 -0.1282
 5361TIP3    H116089   5.543   4.557   3.656 -0.9664 -2.0326  0.0512
 5361TIP3    H216090   5.654   4.579   3.556 -1.0206  2.7227  0.7893
 5362TIP3   OH216091   4.499   5.498   1.717  0.1759  0.1647 -0.1574
 5362TIP3    H116092   4.524   5.431   1.781 -0.4116  1.4957  1.5347
 5362TIP3    H216093   4.556   5.572   1.736  0.3128  0.4280 -1.5130
 5363TIP3   OH216094   5.201   4.205   3.299  0.2727 -0.2373  0.5517
 5363TIP3    H116095   5.160   4.157   3.371  0.7310  0.1100  1.0609
 5363TIP3    H216096   5.138   4.201   3.228 -0.1039 -0.7678  0.9046
 5364TIP3   OH216097   5.126   2.221   0.741  0.1124  0.4298 -0.0862
 5364TIP3    H116098   5.203   2.264   0.779 -1.4704  1.3351  2.3987
 5364TIP3    H216099   5.160   2.144   0.696  2.5389  1.3512  0.0655
 5365TIP3   OH216100   1.750   1.638   2.293 -0.5631  0.1606  0.1145
 5365TIP3    H116101   1.781   1.550   2.310 -0.8524  0.0163 -0.1021
 5365TIP3    H216102   1.657   1.636   2.317 -1.1918 -0.2554 -2.1600
 5366TIP3   OH216103   5.273   5.302   4.778  0.3108  0.2270 -0.1859
 5366TIP3    H116104   5.182   5.326   4.756 -0.2508 -1.4069  0.1812
 5366TIP3    H216105   5.316   5.293   4.693 -0.6737 -1.7493 -0.5434
 5367TIP3   OH216106   0.436   4.369   4.092  0.8088  0.4244 -0.1858
 5367TIP3    H116107   0.470   4.455   4.069 -0.6341  1.1661  0.3840
 5367TIP3    H216108   0.405   4.332   4.010  0.2925  0.9750 -0.2458
 5368TIP3   OH216109   4.470   4.510   2.701 -0.3652  0.2750 -0.4517
 5368TIP3    H116110   4.444   4.421   2.680 -1.1466  0.3748  0.0421
 5368TIP3    H216111   4.392   4.562   2.686 -0.4363  0.6063  0.9469
 5369TIP3   OH216112   1.714   1.306   3.593  0.4423  0.0681  0.4261
 5369TIP3    H116113   1.629   1.296   3.550  0.8157  0.2862 -0.3866
 5369TIP3    H216114   1.735   1.399   3.585  1.5081 -0.2360 -0.9085
 5370TIP3   OH216115   0.272   2.509   1.868 -0.2138  0.6937  0.5106
 5370TIP3    H116116   0.206   2.551   1.923  0.9715  1.5210  1.3701
 5370TIP3    H216117   0.347   2.496   1.926  1.3541  2.2559 -1.0072
 5371TIP3   OH216118   6.312   1.474   5.037  0.1068 -0.1740 -0.5031
 5371TIP3    H116119   6.258   1.505   5.110  0.3558  1.4389 -0.9578
 5371TIP3    H216120   6.376   1.416   5.078  0.8096  1.3849  0.7358
 5372TIP3   OH216121   0.702   2.556   1.717 -0.0008  0.0574 -1.0079
 5372TIP3    H116122   0.692   2.482   1.776  0.3287 -0.6968 -1.8738
 5372TIP3    H216123   0.644   2.624   1.753  1.9285  0.5256  1.5562
 5373TIP3   OH216124   5.313   3.130   2.894 -0.2472 -0.5396  0.0601
 5373TIP3    H116125   5.222   3.120   2.866 -0.8354  0.6663  1.4436
 5373TIP3    H216126   5.357   3.169   2.818 -1.4493  1.2252  0.2182
 5374TIP3   OH216127   6.001   2.580   3.082  0.1186  0.1283 -0.1092
 5374TIP3    H116128   6.063   2.508   3.095  1.6075  1.2450 -0.7338
 5374TIP3    H216129   5.949   2.582   3.163 -0.0465 -1.6835 -0.1247
 5375TIP3   OH216130   5.656   4.066   4.966  0.7455 -0.4375 -0.3357
 5375TIP3    H116131   5.665   4.056   4.871  1.0782  2.3286 -0.6773
 5375TIP3    H216132   5.562   4.066   4.982  0.6153  0.8795 -0.9561
 5376TIP3   OH216133   0.075   4.617   3.657  0.1350  0.7695  0.9138
 5376TIP3    H116134   0.017   4.671   3.605 -1.0484  0.4870  1.8911
 5376TIP3    H216135   0.017   4.561   3.708  1.2717  0.1833  1.6248
 5377TIP3   OH216136   0.767   1.040   4.369  0.6604 -0.5776  0.1789
 5377TIP3    H116137   0.809   1.107   4.315 -0.2992  1.4841  1.8256
 5377TIP3    H216138   0.797   1.060   4.458 -0.7152 -1.5089  0.8804
 5378TIP3   OH216139   1.421   0.401   1.772 -0.1402  0.4211 -0.4544
 5378TIP3    H116140   1.512   0.382   1.748 -0.2563  1.6114 -1.9455
 5378TIP3    H216141   1.412   0.366   1.861  1.4566 -0.6619 -0.6904
 5379TIP3   OH216142   0.444   3.743   5.014 -0.3553  0.5391 -0.2677
 5379TIP3    H116143   0.410   3.656   5.035  0.1549 -0.5902 -3.5278
 5379TIP3    H216144   0.514   3.757   5.077 -0.3581 -1.4830  0.2629
 5380TIP3   OH216145   0.081   4.081   3.343  1.0301  0.6050 -0.0424
 5380TIP3    H116146   0.004   4.095   3.399  0.2897  0.0974 -0.9017
 5380TIP3    H216147   0.105   3.989   3.358  0.4080  0.2597 -1.0290
 5381TIP3   OH216148   4.653   1.978   2.472 -0.2017 -0.1801 -0.6156
 5381TIP3    H116149   4.714   2.003   2.402  2.1244 -3.6793 -0.0856
 5381TIP3    H216150   4.671   2.041   2.542  2.2352 -0.5179 -0.8423
 5382TIP3   OH216151   6.065   0.700   3.257 -0.3468 -0.6812 -0.3342
 5382TIP3    H116152   6.057   0.783   3.304  0.4317  0.2264 -1.7201
 5382TIP3    H216153   6.034   0.634   3.319  0.7424  0.4239  1.4684
 5383TIP3   OH216154   3.797   3.050   1.555 -0.2931  0.4775  0.6555
 5383TIP3    H116155   3.830   2.994   1.485 -0.4670  0.4363  0.6072
 5383TIP3    H216156   3.815   3.001   1.635  0.2989  0.7119  0.6765
 5384TIP3   OH216157   5.544   0.717   3.811 -0.0057 -0.0402 -0.2122
 5384TIP3    H116158   5.582   0.794   3.769 -1.0862 -0.2511 -1.7061
 5384TIP3    H216159   5.450   0.736   3.814 -0.1476 -0.8089  0.4908
 5385TIP3   OH216160   3.830   3.376   2.622 -0.4378 -0.1846 -0.6875
 5385TIP3    H116161   3.772   3.436   2.669  1.9337  1.2052  0.6512
 5385TIP3    H216162   3.830   3.296   2.675 -0.1556  0.2663  0.0040
 5386TIP3   OH216163   3.041   0.802   4.792 -0.1568  0.7809 -0.2931
 5386TIP3    H116164   3.048   0.891   4.757  0.3017  0.7086 -0.3898
 5386TIP3    H216165   3.018   0.814   4.885  0.5750  1.0184 -0.1375
 5387TIP3   OH216166   3.562   5.525   1.953  0.0627 -0.9085 -0.1205
 5387TIP3    H116167   3.500   5.490   1.889  1.7936 -1.7530 -1.4197
 5387TIP3    H216168   3.529   5.613   1.972 -2.0181 -1.6501 -0.0401
 5388TIP3   OH216169   6.047   0.218   1.322  0.0384  0.2660  0.0240
 5388TIP3    H116170   6.017   0.309   1.322  0.5650  0.4550 -0.7922
 5388TIP3    H216171   6.127   0.220   1.269 -0.3500 -0.8005 -0.6195
 5389TIP3   OH216172   1.603   5.872   0.441 -0.2383 -0.2793 -0.2966
 5389TIP3    H116173   1.559   5.933   0.383 -0.0080 -1.4907 -1.7990
 5389TIP3    H216174   1.628   5.799   0.385  1.7850 -0.6018  0.9234
 5390TIP3   OH216175   2.690   1.082   2.982 -0.4367  0.3586  0.2295
 5390TIP3    H116176   2.613   1.043   3.023 -1.6372  1.8022 -0.5818
 5390TIP3    H216177   2.712   1.156   3.038 -0.3396  0.6516 -0.1938
 5391TIP3   OH216178   0.556   4.100   2.884  0.7078  0.4704 -0.1503
 5391TIP3    H116179   0.602   4.170   2.930 -0.3849  1.4958 -0.5683
 5391TIP3    H216180   0.490   4.145   2.831 -0.3252 -0.9049 -0.0934
 5392TIP3   OH216181   0.823   4.535   1.408 -0.3123 -0.0872 -0.5643
 5392TIP3    H116182   0.898   4.595   1.408 -0.8838  0.6505  0.3744
 5392TIP3    H216183   0.747   4.592   1.404 -0.8952 -0.6754  1.2643
 5393TIP3   OH216184   2.412   3.007   0.265 -0.4964  0.2588  0.0082
 5393TIP3    H116185   2.345   2.946   0.296 -0.3022  0.0879  0.0965
 5393TIP3    H216186   2.423   3.070   0.335 -0.5495  0.2719  0.0040
 5394TIP3   OH216187   2.988   4.742   0.960 -0.4726 -0.2865  0.0701
 5394TIP3    H116188   2.983   4.829   0.922 -0.0639 -0.2718  0.0440
 5394TIP3    H216189   2.952   4.684   0.892  0.3411 -0.2708 -0.3867
 5395TIP3   OH216190   4.470   1.070   4.956 -0.5299  0.2387  0.4480
 5395TIP3    H116191   4.534   1.079   5.026 -0.5588  0.7706  0.4085
 5395TIP3    H216192   4.461   1.158   4.919 -0.7790  0.0358  0.0083
 5396TIP3   OH216193   6.105   1.844   4.657  0.0172  0.1092  0.2852
 5396TIP3    H116194   6.014   1.876   4.653  0.5157  1.5493 -0.3185
 5396TIP3    H216195   6.097   1.749   4.662 -1.5328  0.1894 -0.1322
 5397TIP3   OH216196   2.535   3.482   2.776 -0.5768  0.5339 -0.2497
 5397TIP3    H116197   2.532   3.402   2.828 -0.4974  1.3329  1.0190
 5397TIP3    H216198   2.523   3.452   2.686 -0.9055 -0.8647  0.2314
 5398TIP3   OH216199   5.952   1.336   2.129  0.3328 -0.0229 -0.1815
 5398TIP3    H116200   5.912   1.360   2.045  0.1780  1.8826  0.4077
 5398TIP3    H216201   5.943   1.414   2.184 -0.2522 -1.4612  1.9013
 5399TIP3   OH216202   1.668   3.889   0.097 -0.2358  0.3157  0.0334
 5399TIP3    H116203   1.610   3.813   0.106 -0.6014  0.6584  0.6009
 5399TIP3    H216204   1.680   3.921   0.186  1.9770 -0.5926  0.1289
 5400TIP3   OH216205   0.600   2.440   0.936 -0.3156  0.0119 -0.2702
 5400TIP3    H116206   0.626   2.509   0.996  0.4050 -0.7733  0.3423
 5400TIP3    H216207   0.513   2.412   0.967  0.3785 -0.9272  0.9353
 5401TIP3   OH216208   4.386   1.242   1.363  0.7777  0.1633  0.6224
 5401TIP3    H116209   4.295   1.269   1.346  0.8223  0.3207  0.6315
 5401TIP3    H216210   4.379   1.155   1.402  0.6627 -0.1395 -0.0592
 5402TIP3   OH216211   5.483   0.145   2.528  0.1614 -0.1582  0.4303
 5402TIP3    H116212   5.497   0.161   2.435  0.8123  0.9270  0.6903
 5402TIP3    H216213   5.472   0.233   2.566  0.0679 -0.5687  1.3942
 5403TIP3   OH216214   0.899   4.469   3.919 -0.1109  0.1344 -0.0083
 5403TIP3    H116215   0.994   4.475   3.923 -0.1789  1.0179  0.7112
 5403TIP3    H216216   0.871   4.466   4.010 -0.7071 -1.7014 -0.2224
 5404TIP3   OH216217   0.074   3.983   0.896 -0.0662  0.0088  0.4012
 5404TIP3    H116218   0.103   3.929   0.970  1.6074  1.2314  0.6834
 5404TIP3    H216219   0.150   4.035   0.873 -1.9518  3.2699  0.9919
 5405TIP3   OH216220   3.850   2.377   3.088 -0.5881  0.7881 -0.0242
 5405TIP3    H116221   3.881   2.457   3.047  0.0695 -0.3306 -1.8276
 5405TIP3    H216222   3.927   2.320   3.092 -1.4176 -0.4109 -0.4846
 5406TIP3   OH216223   0.842   5.229   2.500 -0.0779  0.2687  0.2286
 5406TIP3    H116224   0.770   5.180   2.540 -0.1939  0.2949  0.0540
 5406TIP3    H216225   0.893   5.261   2.574  1.1485 -1.7858  0.3533
 5407TIP3   OH216226   1.528   5.238   0.312  0.1478  0.5901 -0.6216
 5407TIP3    H116227   1.616   5.246   0.277  1.1336 -0.3354  1.4628
 5407TIP3    H216228   1.504   5.146   0.298  0.7925  0.0483  1.4774
 5408TIP3   OH216229   1.697   1.403   3.288  0.1334 -0.2985 -0.1443
 5408TIP3    H116230   1.601   1.399   3.291  0.0957  0.4094  3.2058
 5408TIP3    H216231   1.716   1.496   3.272  0.2019 -0.0741  1.1519
 5409TIP3   OH216232   5.940   0.646   1.372 -0.2263  0.2126 -0.3610
 5409TIP3    H116233   5.972   0.705   1.440 -0.1142  0.3978 -0.5762
 5409TIP3    H216234   5.848   0.672   1.359 -0.4301 -0.2333  0.1629
 5410TIP3   OH216235   2.409   2.185   0.072  0.0529  0.3745  0.1187
 5410TIP3    H116236   2.344   2.178   0.003  1.3430 -0.5880 -1.0559
 5410TIP3    H216237   2.358   2.197   0.152 -1.4972  1.0124 -0.9083
 5411TIP3   OH216238   4.653   1.662   0.315 -0.0707 -0.0268  0.1362
 5411TIP3    H116239   4.708   1.682   0.240 -0.9750  0.6160 -0.3769
 5411TIP3    H216240   4.646   1.745   0.362  0.4000 -0.3969  0.8875
 5412TIP3   OH216241   0.054   0.175   3.604 -0.3051  0.1967 -0.1482
 5412TIP3    H116242   0.087   0.137   3.522 -2.6585 -0.2209 -0.9644
 5412TIP3    H216243   0.050   0.102   3.665  1.2620  0.4700  0.3253
 5413TIP3   OH216244   1.064   0.793   0.247 -0.3077  0.3382 -0.1985
 5413TIP3    H116245   1.044   0.886   0.235  0.6405  0.3380 -2.1526
 5413TIP3    H216246   0.985   0.748   0.220  0.4393  0.5117 -3.0073
 5414TIP3   OH216247   2.848   3.977   0.543 -0.0130  0.4540  0.0158
 5414TIP3    H116248   2.832   3.890   0.507  0.8898  0.3179 -0.0641
 5414TIP3    H216249   2.866   3.962   0.635 -0.8866  0.6684  0.2349
 5415TIP3   OH216250   1.454   3.674   0.150  0.0510  0.1070  0.1494
 5415TIP3    H116251   1.362   3.649   0.155 -0.5116  2.1451  1.0611
 5415TIP3    H216252   1.502   3.592   0.161 -1.6248 -1.1640 -1.4510
 5416TIP3   OH216253   3.398   2.747   0.145  0.7580 -0.0900  0.0471
 5416TIP3    H116254   3.303   2.750   0.137  0.6179 -1.9824  0.5908
 5416TIP3    H216255   3.430   2.759   0.055  0.1148  2.0006  0.0380
 5417TIP3   OH216256   1.420   4.290   1.325 -0.3874  0.7785  1.0005
 5417TIP3    H116257   1.445   4.377   1.293 -0.5134 -0.3554 -2.5975
 5417TIP3    H216258   1.325   4.287   1.314 -0.1807 -0.4440 -0.9160
 5418TIP3   OH216259   1.411   0.343   2.055 -0.4013  0.1131 -0.2697
 5418TIP3    H116260   1.469   0.268   2.067 -1.9646 -1.0966 -0.0218
 5418TIP3    H216261   1.456   0.415   2.100  2.7013  0.2550 -3.1855
 5419TIP3   OH216262   0.022   2.108   4.008  0.2419 -0.1013 -0.6734
 5419TIP3    H116263   0.069   2.029   4.036  0.2037  0.0504 -0.1840
 5419TIP3    H216264  -0.066   2.097   4.044  0.0521 -0.1317 -1.1410
 5420TIP3   OH216265   0.022   1.822   1.640  0.1365 -0.1201 -0.0841
 5420TIP3    H116266  -0.025   1.820   1.557  2.1838  0.2079 -1.3225
 5420TIP3    H216267   0.032   1.730   1.665  1.2903 -0.3587 -1.3110
 5421TIP3   OH216268   3.759   2.518   3.518 -0.3204  0.4337  0.0184
 5421TIP3    H116269   3.674   2.483   3.543 -0.0533  0.1945  0.6057
 5421TIP3    H216270   3.750   2.613   3.526 -1.4843  0.6874 -2.8973
 5422TIP3   OH216271   5.725   3.845   3.717  0.3353 -0.2186 -0.2501
 5422TIP3    H116272   5.754   3.815   3.803  0.7537  1.2417  0.1580
 5422TIP3    H216273   5.641   3.801   3.703  0.2958 -0.5404  0.8745
 5423TIP3   OH216274   2.881   1.243   3.778 -0.4177 -0.6915 -0.3206
 5423TIP3    H116275   2.971   1.222   3.802 -1.0398 -1.5600  1.4013
 5423TIP3    H216276   2.884   1.335   3.752  1.5022 -1.4836 -3.3966
 5424TIP3   OH216277   2.587   1.080   1.866 -0.2219  0.2798  0.5245
 5424TIP3    H116278   2.681   1.078   1.848 -0.5241  0.5395 -1.3605
 5424TIP3    H216279   2.569   0.995   1.907  0.7880  0.1034  0.6277
 5425TIP3   OH216280   5.834   4.667   1.331  0.5053  0.1537 -0.2705
 5425TIP3    H116281   5.868   4.728   1.266  0.0896 -0.7335 -1.3692
 5425TIP3    H216282   5.887   4.682   1.409 -0.2569  2.6200 -0.1336
 5426TIP3   OH216283   3.791   2.780   3.910  0.0896  0.1878  0.1309
 5426TIP3    H116284   3.726   2.723   3.950 -0.4433  1.0769  0.5524
 5426TIP3    H216285   3.865   2.722   3.890 -0.5677 -0.7051  0.2458
 5427TIP3   OH216286   3.599   4.486   4.202  0.4113 -0.1868 -0.1676
 5427TIP3    H116287   3.661   4.482   4.275  1.2170 -0.1835 -0.8318
 5427TIP3    H216288   3.565   4.397   4.195  0.5460 -0.2556  0.0296
 5428TIP3   OH216289   3.954   5.901   2.478 -0.2824 -0.2362  0.0169
 5428TIP3    H116290   4.018   5.849   2.527  1.0293  0.4847 -0.8498
 5428TIP3    H216291   3.924   5.843   2.408 -0.8296 -0.6848  0.6180
 5429TIP3   OH216292   4.287   3.238   3.407  0.5406  0.0769 -0.0425
 5429TIP3    H116293   4.270   3.326   3.372  0.1975  0.0833  0.1416
 5429TIP3    H216294   4.277   3.248   3.502  1.5724  0.0846  0.0748
 5430TIP3   OH216295   3.561   3.134   3.706  0.7966  0.0892 -0.0058
 5430TIP3    H116296   3.583   3.077   3.779 -0.5896  0.0213  0.3854
 5430TIP3    H216297   3.473   3.105   3.678  0.8391  0.8311 -0.9795
 5431TIP3   OH216298   5.774   1.615   5.148  0.0742  0.4319 -0.0215
 5431TIP3    H116299   5.765   1.523   5.170 -0.2677  0.2456 -0.8911
 5431TIP3    H216300   5.866   1.625   5.124  0.2031  0.4098  0.4546
 5432TIP3   OH216301   0.119   5.251   4.594  0.0615 -0.0571 -0.9507
 5432TIP3    H116302   0.027   5.260   4.570 -0.4102 -1.9445 -0.0907
 5432TIP3    H216303   0.146   5.167   4.556  1.0786 -0.0994 -0.2017
 5433TIP3   OH216304   4.877   1.656   2.102  0.5689  0.6730 -0.0664
 5433TIP3    H116305   4.877   1.636   2.195 -1.3702 -1.3456 -0.4120
 5433TIP3    H216306   4.964   1.691   2.084  1.8173 -1.1478  2.0371
 5434TIP3   OH216307   3.824   2.098   4.330 -0.1815  0.3598  0.0655
 5434TIP3    H116308   3.737   2.128   4.304 -0.0423  1.0518  0.3736
 5434TIP3    H216309   3.872   2.089   4.247 -0.5410 -0.0228 -0.1047
 5435TIP3   OH216310   3.389   5.073   4.213 -0.2478 -0.3852 -0.2778
 5435TIP3    H116311   3.339   4.996   4.185  1.7709 -0.9302 -2.8004
 5435TIP3    H216312   3.394   5.128   4.135  0.3320  1.2087  0.8290
 5436TIP3   OH216313   2.153   5.561   1.266  0.2279  0.5202 -0.5041
 5436TIP3    H116314   2.226   5.500   1.257  0.1298  0.4929 -1.2093
 5436TIP3    H216315   2.139   5.594   1.177 -2.2158 -1.3365 -0.8976
 5437TIP3   OH216316   1.411   4.555   5.068  0.2067  0.4766  0.6271
 5437TIP3    H116317   1.339   4.542   5.129  0.6946 -1.4750  0.8639
 5437TIP3    H216318   1.465   4.477   5.078  1.8614  1.4550 -0.2191
 5438TIP3   OH216319   2.478   2.121   1.567  0.2943  0.0987 -0.2478
 5438TIP3    H116320   2.470   2.213   1.591  0.1106 -0.0058  0.1005
 5438TIP3    H216321   2.522   2.122   1.482  0.6629  0.4912 -0.0555
 5439TIP3   OH216322   5.803   2.140   5.095  0.0194 -0.0546  0.7041
 5439TIP3    H116323   5.786   2.133   5.001  1.1921 -0.0604  0.4750
 5439TIP3    H216324   5.766   2.061   5.132 -1.5745  0.5328  0.4365
 5440TIP3   OH216325   0.167   5.542   0.736  0.1505 -0.1637 -0.1852
 5440TIP3    H116326   0.168   5.532   0.641 -0.2918 -1.3874 -0.0753
 5440TIP3    H216327   0.135   5.459   0.769  1.0652 -0.0454  1.0866
 5441TIP3   OH216328   2.597   0.452   4.799  0.4131  0.1452  0.5037
 5441TIP3    H116329   2.598   0.472   4.706 -1.6117 -1.2143  0.1101
 5441TIP3    H216330   2.633   0.363   4.805  0.6768  0.2817  1.0357
 5442TIP3   OH216331   2.586   1.747   3.971 -0.1051 -0.0470 -0.0057
 5442TIP3    H116332   2.541   1.831   3.978 -3.0905 -1.3752 -1.6337
 5442TIP3    H216333   2.539   1.689   4.031  0.1526 -1.2170 -0.8835
 5443TIP3   OH216334   2.648   1.421   0.130  0.3806  0.3046  0.5077
 5443TIP3    H116335   2.554   1.433   0.116  0.4118  1.5721  1.2233
 5443TIP3    H216336   2.663   1.328   0.115 -0.8163  0.2582 -0.5789
 5444TIP3   OH216337   6.378   1.208   1.031 -0.1102 -0.0274  0.3762
 5444TIP3    H116338   6.322   1.264   1.084 -0.9660  0.0175 -0.5430
 5444TIP3    H216339   6.355   1.119   1.057  0.8075  0.0052  1.3905
 5445TIP3   OH216340   3.862   2.010   0.448  0.1281 -0.1134 -0.1658
 5445TIP3    H116341   3.940   2.033   0.498  0.1568  0.7601 -0.5865
 5445TIP3    H216342   3.791   2.012   0.511  0.4419 -0.9546  0.2305
 5446TIP3   OH216343   1.296   1.321   3.708  0.0347  0.2879 -0.3049
 5446TIP3    H116344   1.361   1.286   3.647 -0.5625 -0.6065 -0.4539
 5446TIP3    H216345   1.244   1.245   3.733 -0.4813  0.8608  0.3936
 5447TIP3   OH216346   4.347   4.363   1.118 -0.1177  0.1995 -0.0725
 5447TIP3    H116347   4.400   4.334   1.193 -1.3842 -2.1759  0.0010
 5447TIP3    H216348   4.403   4.426   1.072  2.1272 -0.9722  0.8951
 5448TIP3   OH216349   1.844   0.586   0.521  0.5078 -0.0951  0.0526
 5448TIP3    H116350   1.899   0.512   0.548 -0.9197 -1.2067 -0.0060
 5448TIP3    H216351   1.897   0.633   0.456  0.7306 -2.1395 -1.3316
 5449TIP3   OH216352   5.100   4.870   1.572  0.1977 -0.6457  0.4517
 5449TIP3    H116353   5.075   4.879   1.664  2.2571  1.3732  0.9212
 5449TIP3    H216354   5.167   4.937   1.559 -1.0795  0.1845 -2.9376
 5450TIP3   OH216355   0.273   0.948   0.910  0.2362  0.0798  0.4138
 5450TIP3    H116356   0.344   0.981   0.964 -0.1879  0.0601  0.9903
 5450TIP3    H216357   0.261   0.857   0.938  0.9529 -0.3861 -0.7020
 5451TIP3   OH216358   4.359   2.542   4.589 -0.1964  0.4632 -0.3173
 5451TIP3    H116359   4.355   2.498   4.504  0.5711 -0.5135  0.1220
 5451TIP3    H216360   4.306   2.621   4.578 -1.2477 -0.3403 -1.2756
 5452TIP3   OH216361   3.870   3.063   4.752  0.2962 -0.9086 -0.4712
 5452TIP3    H116362   3.840   3.021   4.833  2.0361  0.4105  0.9268
 5452TIP3    H216363   3.791   3.104   4.716 -0.2312 -0.1375  1.4314
 5453TIP3   OH216364   2.632   1.889   1.256 -0.0158 -0.2900  0.5770
 5453TIP3    H116365   2.624   1.972   1.303  0.2564 -1.1371  2.1680
 5453TIP3    H216366   2.719   1.892   1.217  0.2057 -0.0682  1.0852
 5454TIP3   OH216367   1.784   0.649   1.254  0.0941  0.3472  0.1527
 5454TIP3    H116368   1.851   0.590   1.289  0.9044  1.6483  0.8932
 5454TIP3    H216369   1.705   0.595   1.250  0.4984 -0.4884  1.9834
 5455TIP3   OH216370   3.507   3.327   2.402 -0.5828  0.4301 -0.4511
 5455TIP3    H116371   3.442   3.393   2.424  0.5434  0.8167  2.2039
 5455TIP3    H216372   3.496   3.259   2.470  0.6318 -0.3214 -0.9564
 5456TIP3   OH216373   0.558   5.426   3.835 -0.5653 -0.2974  0.1190
 5456TIP3    H116374   0.513   5.356   3.787 -0.3526  0.4758 -1.2778
 5456TIP3    H216375   0.650   5.399   3.837 -0.3205  0.3314 -1.2409
 5457TIP3   OH216376   2.478   0.200   1.196 -0.1363  0.3189  0.2947
 5457TIP3    H116377   2.567   0.233   1.186  0.2043 -0.3749  0.9498
 5457TIP3    H216378   2.486   0.106   1.182 -0.8755  0.3322 -0.2630
 5458TIP3   OH216379   5.167   4.836   4.042 -0.3991 -0.0097  0.3552
 5458TIP3    H116380   5.172   4.929   4.023 -1.8737 -0.0554 -0.4529
 5458TIP3    H216381   5.176   4.793   3.957  0.0665 -0.6020  0.6924
 5459TIP3   OH216382   2.969   1.026   2.139  0.4032  0.0758 -0.5218
 5459TIP3    H116383   2.902   1.080   2.182 -0.2377  0.2700 -1.7042
 5459TIP3    H216384   3.034   1.009   2.207 -0.2679  0.8671  0.3454
 5460TIP3   OH216385   2.694   3.626   0.201 -0.2022  0.2420 -0.3172
 5460TIP3    H116386   2.612   3.585   0.175 -0.3728 -1.3465  2.4066
 5460TIP3    H216387   2.736   3.650   0.118 -2.7277 -0.1853 -1.8262
 5461TIP3   OH216388   4.976   0.430   4.628 -0.1381 -0.4284  0.2121
 5461TIP3    H116389   4.992   0.441   4.722  0.8767  0.4281 -0.0509
 5461TIP3    H216390   4.934   0.511   4.601  2.3946  0.7121 -0.6500
 5462TIP3   OH216391   0.484   1.841   1.767  0.1523 -0.1517  0.5805
 5462TIP3    H116392   0.505   1.755   1.730 -0.3599 -0.9471  2.0498
 5462TIP3    H216393   0.408   1.871   1.717  0.5497 -0.3775 -0.1800
 5463TIP3   OH216394   2.274   0.961   0.080 -0.2857  0.0424 -0.1896
 5463TIP3    H116395   2.351   0.918   0.044  0.5094  1.2555  0.0173
 5463TIP3    H216396   2.296   0.977   0.172 -1.3710 -0.8985  0.2609
 5464TIP3   OH216397   6.183   1.801   2.263 -0.1627 -0.3999 -0.4688
 5464TIP3    H116398   6.204   1.874   2.205  0.7857 -1.2407 -1.2244
 5464TIP3    H216399   6.089   1.791   2.257 -0.3355  0.8746 -0.2070
 5465TIP3   OH216400   0.625   2.911   3.305  0.4924 -0.1756 -0.1745
 5465TIP3    H116401   0.710   2.913   3.262  0.0860  0.5793 -0.9739
 5465TIP3    H216402   0.561   2.907   3.233 -0.1467 -3.5256  0.3990
 5466TIP3   OH216403   4.111   4.316   4.287  0.2286  0.3252 -0.4392
 5466TIP3    H116404   4.153   4.244   4.239  0.1219  0.5099 -0.8138
 5466TIP3    H216405   4.032   4.335   4.237 -0.8939 -0.7319  0.8326
 5467TIP3   OH216406   0.298   5.754   1.650 -0.3147 -0.3723 -0.0423
 5467TIP3    H116407   0.361   5.688   1.679  0.3335  0.1346 -0.2617
 5467TIP3    H216408   0.300   5.821   1.719  0.1228  0.1180 -0.5228
 5468TIP3   OH216409   3.094   2.096   1.871  0.1112  0.5492  0.2855
 5468TIP3    H116410   3.176   2.054   1.894 -0.2174  0.4559  1.3608
 5468TIP3    H216411   3.104   2.120   1.779  1.6624  1.3231  0.6249
 5469TIP3   OH216412   4.614   2.179   3.929 -0.4336  0.4862 -0.1154
 5469TIP3    H116413   4.695   2.229   3.920 -0.0328  0.0142  0.7405
 5469TIP3    H216414   4.603   2.137   3.844  0.7258 -0.1762  0.0361
 5470TIP3   OH216415   5.676   4.197   3.141 -0.4002 -0.4612  0.1090
 5470TIP3    H116416   5.653   4.289   3.158  0.3243  0.0644 -1.5432
 5470TIP3    H216417   5.762   4.186   3.182 -0.1179 -0.1459 -0.3843
 5471TIP3   OH216418   4.603   3.636   0.804 -0.1652  0.1799 -0.0294
 5471TIP3    H116419   4.570   3.683   0.727 -0.2026 -1.1252 -0.8533
 5471TIP3    H216420   4.632   3.705   0.864 -0.7124  1.2496 -0.9495
 5472TIP3   OH216421   1.680   1.108   2.709  0.3171  0.4310  0.0136
 5472TIP3    H116422   1.691   1.015   2.728 -0.1113  0.3939  0.0901
 5472TIP3    H216423   1.693   1.114   2.614 -1.2262  0.0393 -0.2492
 5473TIP3   OH216424   4.886   0.276   1.394  0.2586  0.1282 -0.1727
 5473TIP3    H116425   4.810   0.298   1.449 -0.0563  1.8436 -1.2048
 5473TIP3    H216426   4.860   0.197   1.348 -0.5877  0.2240  0.1151
 5474TIP3   OH216427   6.100   5.826   0.829  0.0374 -0.0130  0.2927
 5474TIP3    H116428   6.133   5.904   0.784 -0.0737 -0.6511 -0.9268
 5474TIP3    H216429   6.005   5.841   0.837 -0.3686 -1.0199 -2.0618
 5475TIP3   OH216430   0.128   5.347   4.167 -0.3466  0.3550 -0.6377
 5475TIP3    H116431   0.185   5.295   4.110 -0.5293 -2.0042  1.1382
 5475TIP3    H216432   0.093   5.283   4.229 -1.5948  2.4607  0.9556
 5476TIP3   OH216433   2.177   0.762   2.057  0.4070  0.2255  0.2885
 5476TIP3    H116434   2.154   0.698   2.124  2.6584 -1.2519 -0.2351
 5476TIP3    H216435   2.108   0.754   1.992 -0.3309 -0.3291  1.1226
 5477TIP3   OH216436   0.620   4.185   3.728  0.3439 -0.5463 -0.3840
 5477TIP3    H116437   0.682   4.117   3.755  0.7176 -0.4936 -1.0747
 5477TIP3    H216438   0.674   4.249   3.682 -0.3469 -0.9307 -1.7859
 5478TIP3   OH216439   3.414   3.797   3.576 -0.2294 -0.3775  0.0280
 5478TIP3    H116440   3.330   3.755   3.558  0.2238 -0.4005 -2.3387
 5478TIP3    H216441   3.403   3.839   3.661 -2.2468 -1.3265  0.2779
 5479TIP3   OH216442   3.346   3.790   3.088  0.0130 -0.1900  0.5292
 5479TIP3    H116443   3.372   3.714   3.140 -1.1887 -0.1766  1.1871
 5479TIP3    H216444   3.363   3.865   3.145  1.6726  0.1121 -0.3044
 5480TIP3   OH216445   0.582   1.052   3.274 -0.4015  0.0684  0.3936
 5480TIP3    H116446   0.580   0.958   3.293  0.8933  0.2171  1.4575
 5480TIP3    H216447   0.676   1.073   3.272 -0.6789  1.7060  2.1604
 5481TIP3   OH216448   3.791   3.207   2.922  0.0283  0.0691  0.3548
 5481TIP3    H116449   3.759   3.151   2.852 -0.0231 -0.5286  0.8426
 5481TIP3    H216450   3.748   3.292   2.907  2.5462  1.0455 -2.2979
 5482TIP3   OH216451   3.681   4.092   0.102 -0.5694 -0.3104  0.2556
 5482TIP3    H116452   3.731   4.012   0.088  0.6246  0.5990 -0.8922
 5482TIP3    H216453   3.730   4.139   0.170 -1.2980 -0.5635  0.9674
 5483TIP3   OH216454   5.330   3.772   3.206  0.3735  0.0460  0.1702
 5483TIP3    H116455   5.400   3.707   3.214  0.1535 -0.3158 -0.7389
 5483TIP3    H216456   5.369   3.843   3.155 -0.4161 -0.9392 -1.9116
 5484TIP3   OH216457   4.896   4.694   3.065 -0.1495 -0.3259  0.2652
 5484TIP3    H116458   4.907   4.788   3.054  1.7426 -0.4809  0.5706
 5484TIP3    H216459   4.805   4.684   3.096  0.3969  1.6255  2.8206
 5485TIP3   OH216460   0.894   3.898   1.140 -0.2420  0.1222  0.7756
 5485TIP3    H116461   0.872   3.951   1.216 -2.3382  1.7046 -0.7929
 5485TIP3    H216462   0.849   3.941   1.067  0.1763 -2.3345 -1.0699
 5486TIP3   OH216463   2.822   1.357   5.142  0.2558 -0.0551  0.3818
 5486TIP3    H116464   2.909   1.325   5.117  0.8960  1.4693  0.6008
 5486TIP3    H216465   2.801   1.308   5.222  0.6297 -0.8772 -0.0082
 5487TIP3   OH216466   4.398   1.012   3.946 -0.6626  0.6736 -0.1739
 5487TIP3    H116467   4.481   0.971   3.970 -0.2415  1.1254 -0.8263
 5487TIP3    H216468   4.374   1.062   4.024  1.4333  3.3050 -1.0374
 5488TIP3   OH216469   0.213   4.616   3.320 -0.1099 -0.6034  0.2833
 5488TIP3    H116470   0.192   4.538   3.372 -3.1394  0.8282  1.4502
 5488TIP3    H216471   0.129   4.644   3.285  0.8666  2.1592 -0.0505
 5489TIP3   OH216472   0.315   2.858   1.266  0.1182 -0.5740  0.3810
 5489TIP3    H116473   0.316   2.762   1.276  0.9060 -0.7418 -0.9897
 5489TIP3    H216474   0.336   2.872   1.174 -2.5433  0.8781 -0.0854
 5490TIP3   OH216475   1.863   1.723   4.469  0.2286 -0.2069 -0.9094
 5490TIP3    H116476   1.815   1.803   4.486  0.1221 -0.4445 -0.0708
 5490TIP3    H216477   1.807   1.653   4.503  0.4195 -0.6239 -1.4256
 5491TIP3   OH216478   2.665   2.647   4.763  0.5844  0.0117 -0.0291
 5491TIP3    H116479   2.728   2.674   4.830  1.0230 -0.6006 -0.1906
 5491TIP3    H216480   2.656   2.552   4.775  2.0837 -0.4615 -1.9982
 5492TIP3   OH216481   5.761   2.653   4.516  0.2398  0.3345 -0.0053
 5492TIP3    H116482   5.767   2.710   4.439  0.7113 -1.2556 -1.2032
 5492TIP3    H216483   5.703   2.582   4.489  1.8269 -1.2060  0.4490
 5493TIP3   OH216484   0.784   5.745   4.385  0.4714  0.2411  0.0728
 5493TIP3    H116485   0.770   5.825   4.333  0.2929  0.3942  0.3528
 5493TIP3    H216486   0.697   5.709   4.399  0.2685  1.3352  2.0350
 5494TIP3   OH216487   0.619   0.509   2.010 -0.3306 -0.5994 -0.0573
 5494TIP3    H116488   0.559   0.581   2.031  0.1038 -0.0499 -0.6335
 5494TIP3    H216489   0.562   0.438   1.980 -0.6991 -0.0552 -0.6852
 5495TIP3   OH216490   1.945   5.019   4.887  0.9971  0.0100 -0.1693
 5495TIP3    H116491   1.866   5.062   4.918  0.4602 -0.7566 -0.4494
 5495TIP3    H216492   1.959   5.054   4.799  1.3937  0.6832  0.1462
 5496TIP3   OH216493   4.031   4.583   2.630 -0.2887  0.0359 -0.1015
 5496TIP3    H116494   3.958   4.626   2.586  0.4671 -0.2850 -1.7385
 5496TIP3    H216495   4.104   4.643   2.620  0.3806 -0.9007 -1.0448
 5497TIP3   OH216496   5.790   4.620   2.963  0.7940 -0.3196 -0.1176
 5497TIP3    H116497   5.719   4.684   2.952  1.5223  0.2283 -2.0607
 5497TIP3    H216498   5.780   4.560   2.890  1.7797 -0.8115  0.1347
 5498TIP3   OH216499   2.108   2.548   3.823 -0.3414  0.2760  0.0589
 5498TIP3    H116500   2.075   2.626   3.778 -1.6675 -0.8959 -1.0782
 5498TIP3    H216501   2.084   2.475   3.766  1.7918 -0.9150  0.5687
 5499TIP3   OH216502   4.151   3.354   0.575  0.5827  0.0094 -0.4674
 5499TIP3    H116503   4.157   3.259   0.567  0.7716  0.0834 -1.2478
 5499TIP3    H216504   4.148   3.370   0.670  1.9687 -0.6789 -0.2880
 5500TIP3   OH216505   1.535   3.781   2.945  0.0819  0.1703 -0.5843
 5500TIP3    H116506   1.537   3.811   2.854 -0.5032 -2.9665 -1.7312
 5500TIP3    H216507   1.623   3.801   2.978 -0.5324  3.9641 -0.7926
 5501TIP3   OH216508   0.936   2.426   2.455  0.2711  0.8381  0.6056
 5501TIP3    H116509   0.915   2.338   2.484 -0.2680  0.1438 -1.6441
 5501TIP3    H216510   1.026   2.420   2.422  0.1630  1.0539  0.2579
 5502TIP3   OH216511   5.801   4.121   1.580 -0.2019  0.4819  0.4053
 5502TIP3    H116512   5.720   4.152   1.620 -1.0339  0.8808 -1.4634
 5502TIP3    H216513   5.839   4.061   1.645 -1.8604  0.4737  1.4210
 5503TIP3   OH216514   1.823   1.445   4.542 -0.4069 -0.0548 -0.2409
 5503TIP3    H116515   1.818   1.454   4.447  1.0292  0.6594 -0.2739
 5503TIP3    H216516   1.896   1.385   4.557 -0.9205 -0.5399  0.4138
 5504TIP3   OH216517   2.456   1.979   4.009  0.2539 -0.4697  0.0898
 5504TIP3    H116518   2.420   1.982   4.098  0.8972  0.2674  0.3412
 5504TIP3    H216519   2.474   2.071   3.988 -0.8528 -0.5139 -1.2177
 5505TIP3   OH216520   1.596   5.691   0.773 -0.0469  0.4255  0.4878
 5505TIP3    H116521   1.550   5.775   0.769  0.8191  0.9724  1.4456
 5505TIP3    H216522   1.642   5.685   0.689  0.5983  1.3524  0.7559
 5506TIP3   OH216523   1.455   1.231   3.492 -0.7412  0.1683  0.2313
 5506TIP3    H116524   1.445   1.149   3.443  1.0382  0.6565 -1.0569
 5506TIP3    H216525   1.411   1.297   3.437 -2.9279  0.0246  1.6732
 5507TIP3   OH216526   1.637   1.062   4.668  0.1691 -0.4450  0.5811
 5507TIP3    H116527   1.630   0.967   4.659  1.0433 -0.3606 -1.4047
 5507TIP3    H216528   1.718   1.085   4.624  0.0105  1.2384  1.0889
 5508TIP3   OH216529   3.550   3.989   1.414  0.3558  0.3990  0.6024
 5508TIP3    H116530   3.505   4.028   1.490 -0.6855 -1.6109  1.0793
 5508TIP3    H216531   3.610   3.926   1.452  0.6193  0.1471 -0.2168
 5509TIP3   OH216532   0.503   2.405   0.274 -0.1502  0.2538  0.8132
 5509TIP3    H116533   0.587   2.433   0.309 -0.4236  1.6472  0.4119
 5509TIP3    H216534   0.507   2.428   0.181 -0.8897  0.1266  0.7418
 5510TIP3   OH216535   3.176   3.876   2.307 -0.1984  0.0316 -0.5239
 5510TIP3    H116536   3.252   3.862   2.251  0.3492  0.0662  0.1872
 5510TIP3    H216537   3.210   3.866   2.396 -0.7296  1.3866 -0.1337
 5511TIP3   OH216538   1.788   2.466   0.037  0.3951 -0.5015 -0.1070
 5511TIP3    H116539   1.768   2.546   0.085  0.2291 -0.6829  0.1306
 5511TIP3    H216540   1.725   2.402   0.071 -0.8045 -0.2169 -1.7012
 5512TIP3   OH216541   0.609   3.294   5.097 -0.1737 -0.5667 -0.1043
 5512TIP3    H116542   0.530   3.248   5.123 -1.4643  2.0821  0.9609
 5512TIP3    H216543   0.658   3.307   5.178  0.0441  0.1481 -0.3431
 5513TIP3   OH216544   1.220   5.655   1.437 -0.2978  1.2798 -0.2621
 5513TIP3    H116545   1.252   5.607   1.361 -1.1832  0.5500 -0.1972
 5513TIP3    H216546   1.288   5.643   1.503  0.0517  1.1324 -0.6488
 5514TIP3   OH216547   1.493   3.134   3.000 -0.2520 -0.0972 -0.2611
 5514TIP3    H116548   1.533   3.064   2.948 -1.2728 -0.4735 -0.5717
 5514TIP3    H216549   1.485   3.207   2.939 -2.4234 -0.8768 -1.0161
 5515TIP3   OH216550   0.945   4.260   2.743 -0.0039  0.4648 -0.2200
 5515TIP3    H116551   0.996   4.196   2.694 -2.3397 -0.6691 -1.2978
 5515TIP3    H216552   0.861   4.264   2.698 -0.2829  3.6838  0.3316
 5516TIP3   OH216553   1.996   3.647   1.015 -0.1959  0.1281  0.1547
 5516TIP3    H116554   1.969   3.669   1.104 -0.0433  0.6220  0.0793
 5516TIP3    H216555   1.919   3.666   0.961 -0.5720 -0.9524  0.2800
 5517TIP3   OH216556   4.800   3.203   3.055 -0.0593  0.2490  0.4586
 5517TIP3    H116557   4.854   3.273   3.018  1.9852 -1.7756 -0.6426
 5517TIP3    H216558   4.762   3.241   3.134  0.3281  2.8215 -0.5034
 5518TIP3   OH216559   0.977   4.855   4.269 -0.0378  0.1746 -0.1796
 5518TIP3    H116560   0.912   4.793   4.302  0.6403 -0.2463  0.3895
 5518TIP3    H216561   1.016   4.811   4.193  1.5045 -0.8005  1.1039
 5519TIP3   OH216562   4.567   5.480   2.452 -0.1421 -0.0378 -0.2112
 5519TIP3    H116563   4.608   5.548   2.506  1.5513 -0.2744 -1.1429
 5519TIP3    H216564   4.566   5.517   2.363 -1.4490 -0.2754 -0.3173
 5520TIP3   OH216565   1.898   0.072   3.897 -0.3234  0.1969 -0.0353
 5520TIP3    H116566   1.912   0.104   3.808 -0.3113  1.6782  0.4754
 5520TIP3    H216567   1.803   0.061   3.903 -0.4865  1.6287  0.2526
 5521TIP3   OH216568   0.273   3.557   4.461  0.7901  0.1207 -0.2807
 5521TIP3    H116569   0.198   3.570   4.402 -1.7603 -1.3506  2.3740
 5521TIP3    H216570   0.294   3.644   4.493 -1.2653  0.3714  0.5199
 5522TIP3   OH216571   2.885   1.932   1.906 -0.4041  0.2545 -0.6872
 5522TIP3    H116572   2.807   1.938   1.850 -0.4476  0.2286 -0.6290
 5522TIP3    H216573   2.949   1.990   1.864 -1.0802  1.7864  0.3322
 5523TIP3   OH216574   5.367   1.390   2.643  0.0654  0.3388  0.5542
 5523TIP3    H116575   5.327   1.467   2.683 -1.6881  0.8385 -1.9060
 5523TIP3    H216576   5.294   1.333   2.620  0.8978  0.0664 -1.7522
 5524TIP3   OH216577   1.967   4.706   4.987  0.5085 -0.2731  0.3617
 5524TIP3    H116578   1.996   4.797   4.979  0.2172 -0.3229 -2.4226
 5524TIP3    H216579   2.042   4.659   5.022  1.2133  0.7782  0.2897
 5525TIP3   OH216580   1.762   0.857   2.143 -0.1082  0.1291  0.5636
 5525TIP3    H116581   1.815   0.885   2.218 -0.8589  0.7452  0.8830
 5525TIP3    H216582   1.786   0.918   2.073  0.9552 -0.7532  0.1383
 5526TIP3   OH216583   2.034   0.491   2.889  0.0785 -0.1334  0.0742
 5526TIP3    H116584   2.021   0.585   2.902 -0.3082 -0.1700 -0.0281
 5526TIP3    H216585   1.946   0.457   2.875  0.1767 -0.5741  0.5003
 5527TIP3   OH216586   0.513   3.344   2.199 -0.6991 -0.1979  0.0294
 5527TIP3    H116587   0.553   3.257   2.195  0.1882  0.2090 -0.0546
 5527TIP3    H216588   0.535   3.377   2.286  0.4156  0.6092 -0.5278
 5528TIP3   OH216589   3.948   5.008   1.784 -0.2534 -0.0003  0.3592
 5528TIP3    H116590   3.960   5.043   1.872 -2.6231  1.5300  0.1496
 5528TIP3    H216591   3.893   4.930   1.796  0.4436 -0.5108  0.3157
 5529TIP3   OH216592   6.137   4.313   2.902 -0.2492  0.1235 -0.0971
 5529TIP3    H116593   6.088   4.358   2.972 -1.2766 -1.9607  0.5921
 5529TIP3    H216594   6.183   4.242   2.947  0.9470  0.1384 -1.2317
 5530TIP3   OH216595   3.861   1.524   2.737 -0.2086  0.1413 -0.0208
 5530TIP3    H116596   3.802   1.536   2.662  0.1237  1.0776 -0.1479
 5530TIP3    H216597   3.809   1.552   2.813 -0.2507  0.0354 -0.0101
 5531TIP3   OH216598   0.661   4.338   2.651 -0.0483  0.5587  0.2709
 5531TIP3    H116599   0.655   4.359   2.744 -0.7833  0.1751  0.3103
 5531TIP3    H216600   0.691   4.420   2.610  1.5552  0.3795  0.9853
 5532TIP3   OH216601   2.843   2.726   2.134  0.5339 -0.3127 -1.0417
 5532TIP3    H116602   2.911   2.715   2.068  2.2540  2.4298  0.0684
 5532TIP3    H216603   2.843   2.645   2.184  1.2600 -1.2822 -2.5776
 5533TIP3   OH216604   4.610   4.922   2.350  0.3770 -0.0387 -0.1851
 5533TIP3    H116605   4.689   4.974   2.332  0.9294 -1.1638 -1.1490
 5533TIP3    H216606   4.568   4.912   2.265  1.1213 -2.4544 -0.3384
 5534TIP3   OH216607   2.183   2.659   3.271 -0.3190 -0.0057  0.5357
 5534TIP3    H116608   2.198   2.587   3.210  0.9527  0.1612  0.6418
 5534TIP3    H216609   2.194   2.738   3.218  0.5665  0.1357  0.9226
 5535TIP3   OH216610   2.187   3.458   3.526  0.5512 -0.4578 -0.3113
 5535TIP3    H116611   2.214   3.536   3.575 -0.2916  0.1690 -0.8162
 5535TIP3    H216612   2.267   3.424   3.487  0.9561  0.0444  0.0754
 5536TIP3   OH216613   0.343   0.505   0.479  0.1872 -0.5746 -0.4998
 5536TIP3    H116614   0.306   0.593   0.479  2.6872  0.5557  0.2985
 5536TIP3    H216615   0.347   0.481   0.571 -1.0824 -1.8661 -0.7367
 5537TIP3   OH216616   3.093   0.830   4.220  0.0811  0.1290 -0.3574
 5537TIP3    H116617   3.105   0.854   4.312  0.0343 -0.5437 -0.1661
 5537TIP3    H216618   3.009   0.784   4.218  0.0836  0.1380 -0.7352
 5538TIP3   OH216619   4.108   3.222   3.864 -0.4766  0.6717  0.2964
 5538TIP3    H116620   4.086   3.146   3.811  1.4280  1.0786 -1.2122
 5538TIP3    H216621   4.129   3.187   3.950 -0.2698 -0.4316 -0.1889
 5539TIP3   OH216622   4.873   2.451   2.154 -0.0952  0.0210 -0.2163
 5539TIP3    H116623   4.873   2.501   2.073  1.6598 -0.5357 -0.6044
 5539TIP3    H216624   4.946   2.390   2.145 -0.3250 -0.5694  1.4756
 5540TIP3   OH216625   5.538   0.531   1.311  0.9618 -0.2246 -0.1312
 5540TIP3    H116626   5.455   0.540   1.357  1.1243  2.7974 -0.2452
 5540TIP3    H216627   5.515   0.528   1.218  0.9261  1.3538 -0.2114
 5541TIP3   OH216628   5.702   0.721   2.447  0.2394 -0.1114 -0.0314
 5541TIP3    H116629   5.617   0.700   2.486  0.6260 -1.0478  0.3355
 5541TIP3    H216630   5.740   0.636   2.424  0.6375  0.3460 -1.1525
 5542TIP3   OH216631   4.229   2.795   1.854 -0.3662  0.5595 -0.2273
 5542TIP3    H116632   4.164   2.748   1.803 -0.0431 -1.3477  0.9817
 5542TIP3    H216633   4.241   2.741   1.932  0.5894  2.3311  0.9200
 5543TIP3   OH216634   0.493   1.100   1.129 -0.2135  0.3872 -0.2511
 5543TIP3    H116635   0.554   1.164   1.092 -0.6948  1.4072  0.6749
 5543TIP3    H216636   0.411   1.148   1.139 -0.7536 -0.5532 -0.1068
 5544TIP3   OH216637   2.976   2.441   1.794 -0.7476  1.0103  0.8049
 5544TIP3    H116638   3.058   2.407   1.827  0.6633  2.2330 -1.2101
 5544TIP3    H216639   2.908   2.390   1.839  1.1004 -3.3031 -0.8030
 5545TIP3   OH216640   2.324   0.527   2.705  0.5155  0.1919  0.3839
 5545TIP3    H116641   2.250   0.584   2.684  0.4025 -0.6525 -1.7408
 5545TIP3    H216642   2.400   0.584   2.700  0.3793  0.2936 -1.4962
 5546TIP3   OH216643   5.441   1.654   2.331  0.0816 -0.2292 -0.4137
 5546TIP3    H116644   5.420   1.729   2.275 -1.4269  1.0651  1.7418
 5546TIP3    H216645   5.361   1.638   2.381  1.2165 -1.5529  1.0910
 5547TIP3   OH216646   3.156   5.879   0.280 -0.5288  0.0211 -0.0229
 5547TIP3    H116647   3.221   5.943   0.309  0.5476 -1.0226 -0.0495
 5547TIP3    H216648   3.167   5.875   0.185  0.3942 -1.1876  0.1068
 5548TIP3   OH216649   0.375   4.270   3.832  0.5695 -0.2299  0.2220
 5548TIP3    H116650   0.464   4.251   3.801  0.3502  0.1231 -0.6569
 5548TIP3    H216651   0.339   4.331   3.766 -1.4312 -2.7540 -1.1939
 5549TIP3   OH216652   6.190   1.246   4.577  0.0206  0.4440 -0.4704
 5549TIP3    H116653   6.220   1.175   4.635  0.1034  0.1940 -0.8175
 5549TIP3    H216654   6.094   1.240   4.580  0.0345 -0.2469 -1.1853
 5550TIP3   OH216655   0.999   2.408   1.645 -0.1140  1.0785 -0.1913
 5550TIP3    H116656   0.966   2.463   1.717 -1.7523 -0.3745  0.2429
 5550TIP3    H216657   1.056   2.344   1.688  0.4459  1.3950 -0.4595
 5551TIP3   OH216658   1.911   4.548   3.124 -0.1317  0.0922  0.3457
 5551TIP3    H116659   1.927   4.615   3.190  2.0821 -0.0429  0.0296
 5551TIP3    H216660   1.902   4.466   3.173  2.0863 -0.1012  0.5306
 5552TIP3   OH216661   3.173   0.222   1.901 -0.2237  0.5330  0.6911
 5552TIP3    H116662   3.250   0.266   1.936  1.3501 -1.8160  0.4025
 5552TIP3    H216663   3.185   0.225   1.806 -1.0432  1.0426  0.5919
 5553TIP3   OH216664   4.431   3.485   3.389  0.0546 -0.3521  0.3880
 5553TIP3    H116665   4.459   3.394   3.376 -0.5021 -0.3868 -0.6116
 5553TIP3    H216666   4.350   3.478   3.440 -1.6799 -0.6218 -2.2425
 5554TIP3   OH216667   5.912   1.784   2.086  0.3607 -0.3895  0.1211
 5554TIP3    H116668   5.914   1.769   1.992  0.9168 -0.6794  0.1738
 5554TIP3    H216669   5.870   1.870   2.096  1.9263  0.4929 -0.4993
 5555TIP3   OH216670   1.738   1.540   2.992  0.2236  0.2257  0.8905
 5555TIP3    H116671   1.666   1.477   2.993  0.8501 -0.6068 -0.8082
 5555TIP3    H216672   1.781   1.525   2.907 -0.3364  3.7974 -0.2037
 5556TIP3   OH216673   3.762   4.873   1.976 -0.0987 -0.2471 -0.0105
 5556TIP3    H116674   3.707   4.795   1.988  0.5340 -0.7269 -0.1393
 5556TIP3    H216675   3.701   4.942   1.951 -0.6481 -0.7626 -0.1286
 5557TIP3   OH216676   2.837   4.434   2.408  0.0958  0.1832 -0.0785
 5557TIP3    H116677   2.822   4.522   2.442  0.6077 -0.9468  3.4741
 5557TIP3    H216678   2.932   4.428   2.398  0.0253  0.1759 -0.7585
 5558TIP3   OH216679   1.242   2.996   1.645  0.7221 -0.4211  0.5892
 5558TIP3    H116680   1.251   2.939   1.720  0.5417  0.9491  1.6957
 5558TIP3    H216681   1.298   3.071   1.665 -0.6545  0.7764  0.1930
 5559TIP3   OH216682   2.045   2.381   4.657 -0.4332  0.6477  0.1971
 5559TIP3    H116683   2.116   2.338   4.704 -1.0990 -1.6425 -0.7494
 5559TIP3    H216684   1.994   2.425   4.725 -0.3778 -1.0973  1.4134
 5560TIP3   OH216685   1.901   3.054   1.010  0.3299  0.0028  0.4617
 5560TIP3    H116686   1.814   3.014   1.019 -0.0151  0.8544  0.9474
 5560TIP3    H216687   1.942   3.005   0.938 -1.5239  1.2767 -1.5809
 5561TIP3   OH216688   1.181   3.643   1.215  0.5743  0.4382 -0.0140
 5561TIP3    H116689   1.202   3.718   1.270  1.9408 -0.0214  0.1242
 5561TIP3    H216690   1.182   3.678   1.126 -0.0176  0.8352  0.1294
 5562TIP3   OH216691   3.184   4.555   1.316 -0.1935  0.7375 -0.6612
 5562TIP3    H116692   3.146   4.640   1.338  2.7449  2.2231 -0.7747
 5562TIP3    H216693   3.202   4.560   1.222  0.6683  0.2920 -0.5316
 5563TIP3   OH216694   4.697   5.319   3.638  0.6188 -0.2606  0.2502
 5563TIP3    H116695   4.752   5.306   3.715 -0.1502 -0.0430  0.8414
 5563TIP3    H216696   4.611   5.287   3.664 -0.2022  1.7948  0.2201
 5564TIP3   OH216697   0.573   4.933   0.009  0.4799 -0.5002 -0.0211
 5564TIP3    H116698   0.662   4.933   0.044  0.6564  0.2989 -0.4435
 5564TIP3    H216699   0.529   5.004   0.054  0.0640 -0.8674  0.1547
 5565TIP3   OH216700   0.762   0.087   3.848 -0.3614  0.4200 -0.5326
 5565TIP3    H116701   0.733   0.110   3.759 -0.6718  1.0114 -0.2874
 5565TIP3    H216702   0.697   0.128   3.905 -0.1588  0.0468 -0.0300
 5566TIP3   OH216703   4.817   2.629   4.026  0.1306  0.5025 -0.0360
 5566TIP3    H116704   4.747   2.570   4.055 -2.5637  0.4868 -5.3707
 5566TIP3    H216705   4.772   2.711   4.007  1.8014  0.9581 -2.3523
 5567TIP3   OH216706   4.223   1.666   3.180 -0.4954 -0.6976 -0.3664
 5567TIP3    H116707   4.145   1.625   3.141  0.2007 -2.2581 -0.1902
 5567TIP3    H216708   4.189   1.743   3.225 -1.7538 -0.6207 -1.3923
 5568TIP3   OH216709   2.337   4.699   4.798  0.1892  0.0386 -0.5007
 5568TIP3    H116710   2.346   4.687   4.892  0.1085  0.0820 -0.4879
 5568TIP3    H216711   2.376   4.784   4.780  0.6104 -0.1671 -0.5688
 5569TIP3   OH216712   5.103   0.257   3.740 -0.3489  0.3860  0.1928
 5569TIP3    H116713   5.020   0.294   3.713  0.1373  0.6695 -0.9788
 5569TIP3    H216714   5.124   0.193   3.672  0.9259  1.1267 -0.1537
 5570TIP3   OH216715   1.158   2.348   3.819  0.0686  0.0433 -0.2165
 5570TIP3    H116716   1.171   2.265   3.865 -0.4836  0.0905  0.0324
 5570TIP3    H216717   1.226   2.405   3.853  0.4519 -0.3096 -0.3892
 5571TIP3   OH216718   0.471   4.689   3.546  0.3629  0.0434 -0.0224
 5571TIP3    H116719   0.487   4.717   3.456  0.2139  0.4384  0.0716
 5571TIP3    H216720   0.450   4.770   3.593 -1.7514 -0.4000 -0.0967
 5572TIP3   OH216721   2.172   2.981   3.429  0.0197  0.3355  0.2750
 5572TIP3    H116722   2.108   2.996   3.360  0.0516  2.0264  0.5626
 5572TIP3    H216723   2.120   2.967   3.508  0.0048  0.5956  0.3099
 5573TIP3   OH216724   0.178   4.053   4.238 -0.3046 -0.8039 -0.0776
 5573TIP3    H116725   0.246   4.107   4.279 -0.8189  0.3638 -0.7502
 5573TIP3    H216726   0.165   4.091   4.152 -1.7953 -1.0440  0.0190
 5574TIP3   OH216727   4.835   1.903   3.828  0.4207  0.5905 -0.0999
 5574TIP3    H116728   4.862   1.897   3.920  0.2937  0.2459 -0.0844
 5574TIP3    H216729   4.792   1.819   3.810 -0.1450  0.9103 -0.2812
 5575TIP3   OH216730   1.329   0.199   0.334  0.9902 -0.9823  0.4087
 5575TIP3    H116731   1.282   0.232   0.257 -0.3695 -0.7734  1.2790
 5575TIP3    H216732   1.302   0.108   0.341 -0.3800 -0.5210  1.6556
 5576TIP3   OH216733   4.063   5.325   1.000 -0.2659 -0.0908  0.7219
 5576TIP3    H116734   4.002   5.296   0.932  1.3529 -0.2053 -0.7800
 5576TIP3    H216735   4.101   5.244   1.034 -2.3669 -0.1562  3.1473
 5577TIP3   OH216736   6.303   1.051   2.322 -0.1020 -0.8779 -0.2953
 5577TIP3    H116737   6.256   0.968   2.322  0.8187 -1.4136 -0.5129
 5577TIP3    H216738   6.266   1.100   2.395 -1.1675 -1.1796 -0.6267
 5578TIP3   OH216739   0.976   3.389   3.423 -0.1340 -0.0938  0.6506
 5578TIP3    H116740   0.945   3.317   3.368 -0.3835  0.3466  0.2063
 5578TIP3    H216741   0.980   3.464   3.364  0.4532  0.1781  1.0325
 5579TIP3   OH216742   2.695   3.654   4.268  0.2635  0.1871  0.3767
 5579TIP3    H116743   2.636   3.651   4.192 -0.3242 -0.6997  0.8508
 5579TIP3    H216744   2.639   3.630   4.343  1.1931 -0.5593  0.8590
 5580TIP3   OH216745   3.506   1.739   4.825  0.4067 -0.6456 -0.0043
 5580TIP3    H116746   3.581   1.790   4.853 -0.5325  0.3471  0.7580
 5580TIP3    H216747   3.456   1.798   4.769  0.5754 -1.5487 -1.1374
 5581TIP3   OH216748   1.772   5.093   4.390 -0.5679  0.3988  0.4821
 5581TIP3    H116749   1.694   5.054   4.350  0.6548 -1.6882 -0.0282
 5581TIP3    H216750   1.801   5.159   4.328 -0.8726 -0.1361 -0.2437
 5582TIP3   OH216751   0.502   5.901   3.286 -0.0355  0.5204 -0.5735
 5582TIP3    H116752   0.529   5.827   3.342 -1.5771 -0.2958 -0.8453
 5582TIP3    H216753   0.551   5.888   3.205  0.5051  0.4052 -0.2365
 5583TIP3   OH216754   0.927   3.357   0.046 -0.2089  0.0665  0.8975
 5583TIP3    H116755   0.931   3.263   0.062  2.0369 -0.0587  0.0105
 5583TIP3    H216756   0.901   3.395   0.130  1.7234 -1.1797  2.1340
 5584TIP3   OH216757   6.235   4.391   5.044  0.5522  0.3197  0.2104
 5584TIP3    H116758   6.257   4.475   5.002 -0.4793  0.8898  0.7630
 5584TIP3    H216759   6.142   4.379   5.023  0.6302 -0.5633  0.3614
 5585TIP3   OH216760   2.273   5.517   2.969  0.3504 -0.0337  0.1861
 5585TIP3    H116761   2.274   5.594   3.026  0.2840  1.6878 -2.0041
 5585TIP3    H216762   2.317   5.449   3.019 -3.6627 -0.1387  4.1730
 5586TIP3   OH216763   5.533   2.801   4.968  0.6311  0.0399  0.0830
 5586TIP3    H116764   5.448   2.758   4.960  0.5996 -0.2590  1.7543
 5586TIP3    H216765   5.543   2.849   4.885 -1.0984 -0.0233 -0.2039
 5587TIP3   OH216766   2.015   5.503   4.206  0.0394 -0.0694 -0.0128
 5587TIP3    H116767   2.106   5.535   4.199  0.8050 -2.1544 -0.1620
 5587TIP3    H216768   1.965   5.566   4.154  1.6784  0.1087 -1.4880
 5588TIP3   OH216769   1.295   5.926   1.348 -0.3299 -0.0514 -0.3608
 5588TIP3    H116770   1.327   5.837   1.363  0.2912  0.1815 -0.2375
 5588TIP3    H216771   1.209   5.928   1.389 -0.4982 -0.6975 -0.6735
 5589TIP3   OH216772   5.210   3.718   4.152 -0.5632 -0.5887 -0.7742
 5589TIP3    H116773   5.217   3.788   4.217 -1.9754  0.2461 -1.4451
 5589TIP3    H216774   5.295   3.716   4.109  0.0594 -0.4807  0.4126
 5590TIP3   OH216775   5.767   5.873   4.296 -0.6663  0.1149 -0.2757
 5590TIP3    H116776   5.855   5.839   4.311 -0.3008  1.0375 -0.2330
 5590TIP3    H216777   5.729   5.814   4.232  0.3363  0.2417 -1.0149
 5591TIP3   OH216778   1.123   0.345   4.913 -0.4620 -0.4258 -0.5607
 5591TIP3    H116779   1.085   0.432   4.897 -0.3683  0.0083  1.3197
 5591TIP3    H216780   1.217   0.361   4.919 -0.6101 -0.2234  2.0190
 5592TIP3   OH216781   3.428   1.035   3.536 -0.2765  0.0134 -0.5549
 5592TIP3    H116782   3.452   1.053   3.627 -0.5908  0.7623 -0.6093
 5592TIP3    H216783   3.501   0.984   3.501 -0.7787 -1.4990  0.5084
 5593TIP3   OH216784   1.865   4.222   2.961  0.6271 -0.2551 -0.6529
 5593TIP3    H116785   1.921   4.240   2.886  1.7137 -0.4335  0.0876
 5593TIP3    H216786   1.796   4.287   2.956  0.5805 -0.3798 -1.9025
 5594TIP3   OH216787   3.028   5.167   4.270 -0.3200  0.1992  0.0020
 5594TIP3    H116788   3.065   5.216   4.197 -1.6472  2.3964  0.6988
 5594TIP3    H216789   2.990   5.234   4.327 -0.0976 -1.4836  2.2816
 5595TIP3   OH216790   6.135   1.366   4.343 -0.1635  0.5699  0.0671
 5595TIP3    H116791   6.182   1.305   4.401  0.5598 -0.0141 -1.0803
 5595TIP3    H216792   6.087   1.309   4.283 -1.1452  1.1643  0.2831
 5596TIP3   OH216793   1.460   1.515   3.841 -0.2674  0.1051  0.3032
 5596TIP3    H116794   1.494   1.578   3.778 -0.4560  0.1806  0.2755
 5596TIP3    H216795   1.398   1.462   3.791 -0.2483  0.0175  0.3708
 5597TIP3   OH216796   0.211   3.245   4.815 -0.1392  0.3037  0.3357
 5597TIP3    H116797   0.179   3.251   4.905 -3.7667 -0.0442 -0.8008
 5597TIP3    H216798   0.230   3.152   4.802 -0.4860  0.2140  0.4733
 5598TIP3   OH216799   2.460   4.527   5.105  0.1611  0.7376 -0.0821
 5598TIP3    H116800   2.439   4.471   5.030 -2.3802 -0.2039  1.1904
 5598TIP3    H216801   2.493   4.467   5.171 -0.7496  1.0089  0.6372
 5599TIP3   OH216802   4.159   4.796   4.493 -0.2551  0.5225 -0.0067
 5599TIP3    H116803   4.113   4.757   4.419  0.9796  0.3009 -0.6902
 5599TIP3    H216804   4.095   4.797   4.564 -0.8076 -1.3560 -0.4093
 5600TIP3   OH216805   0.780   3.624   1.184  0.2674  0.2294 -0.2234
 5600TIP3    H116806   0.790   3.718   1.199 -2.6972  0.2292  3.2008
 5600TIP3    H216807   0.698   3.616   1.134  0.7930 -0.5621 -1.0001
 5601TIP3   OH216808   4.402   2.006   0.364  0.6908 -0.2966  0.0528
 5601TIP3    H116809   4.498   2.010   0.363  0.7187 -0.8675  0.2887
 5601TIP3    H216810   4.378   2.051   0.445  0.9390 -3.2136  1.8709
 5602TIP3   OH216811   1.124   4.847   4.534  0.8884 -0.5254 -0.9810
 5602TIP3    H116812   1.064   4.861   4.460  1.1742  1.1761 -0.9441
 5602TIP3    H216813   1.071   4.866   4.611  1.5561  1.5707 -0.9741
 5603TIP3   OH216814   1.239   1.722   3.991 -0.3974  0.2954  0.2487
 5603TIP3    H116815   1.192   1.674   4.060 -1.0424  0.5839  0.0157
 5603TIP3    H216816   1.223   1.670   3.912 -1.4357  1.0825 -0.0853
 5604TIP3   OH216817   0.787   4.990   3.451  0.2360 -0.5639 -0.9900
 5604TIP3    H116818   0.756   4.947   3.372 -0.6696 -0.5796 -0.6392
 5604TIP3    H216819   0.863   5.041   3.423 -1.5498  1.4786 -2.4053
 5605TIP3   OH216820   5.950   5.306   3.236  0.3547 -0.5312 -0.0880
 5605TIP3    H116821   5.906   5.382   3.199 -1.7752 -1.3413  0.5864
 5605TIP3    H216822   6.036   5.304   3.195  0.1234  1.7112 -0.7672
 5606TIP3   OH216823   6.143   1.512   1.413 -0.2936  0.5763  0.2321
 5606TIP3    H116824   6.060   1.532   1.369 -0.5517 -0.2263  0.3394
 5606TIP3    H216825   6.207   1.569   1.370 -0.1505 -1.4724 -2.5584
 5607TIP3   OH216826   5.550   0.969   1.412  0.5196 -0.2833 -0.5075
 5607TIP3    H116827   5.465   0.927   1.397  0.3806  0.1021 -0.8124
 5607TIP3    H216828   5.553   1.040   1.349  1.4166 -0.7835 -1.0466
 5608TIP3   OH216829   4.670   3.942   2.736  0.2696  0.2150 -0.0737
 5608TIP3    H116830   4.577   3.954   2.717  0.1033  1.4080  1.3881
 5608TIP3    H216831   4.700   4.028   2.766  1.6454 -0.3824  0.3266
 5609TIP3   OH216832   2.818   2.065   3.961  0.2597 -0.9592  0.7767
 5609TIP3    H116833   2.881   2.131   3.931 -0.3732  0.4306  2.3323
 5609TIP3    H216834   2.740   2.115   3.983 -1.5753 -2.6532 -1.3410
 5610TIP3   OH216835   3.119   5.379   2.839 -0.0300 -0.1435 -0.1811
 5610TIP3    H116836   3.027   5.380   2.814 -0.5152 -0.4684  1.4617
 5610TIP3    H216837   3.119   5.342   2.928  1.8966 -2.2507 -0.9659
 5611TIP3   OH216838   0.650   1.106   4.035  0.4230 -0.4394  0.3813
 5611TIP3    H116839   0.744   1.126   4.040  0.0432  1.3203  2.3181
 5611TIP3    H216840   0.615   1.139   4.118 -1.9147 -1.0996 -0.2731
 5612TIP3   OH216841   1.246   0.908   1.413  0.0723  0.3149 -0.9533
 5612TIP3    H116842   1.269   0.961   1.489 -0.6681  1.5252 -1.5271
 5612TIP3    H216843   1.162   0.943   1.384 -1.2028 -2.1651 -0.5122
 5613TIP3   OH216844   4.071   5.499   2.999  0.2821 -0.2384  0.2656
 5613TIP3    H116845   4.060   5.579   3.050  0.7860  0.8655 -1.2560
 5613TIP3    H216846   4.143   5.520   2.938 -0.0392 -1.5977 -0.6208
 5614TIP3   OH216847   0.732   3.367   4.198  0.3650  0.1551  0.9015
 5614TIP3    H116848   0.762   3.453   4.169 -1.3277  0.6002  0.3617
 5614TIP3    H216849   0.756   3.364   4.291  2.1649  0.3929  0.4737
 5615TIP3   OH216850   5.193   1.733   0.114 -0.3111 -0.3371 -0.1293
 5615TIP3    H116851   5.223   1.672   0.046  3.8661 -0.4209  1.5519
 5615TIP3    H216852   5.226   1.818   0.085 -0.5589  0.0268  0.6482
 5616TIP3   OH216853   1.092   5.756   1.656  0.2394  0.1527 -0.0358
 5616TIP3    H116854   1.098   5.813   1.579  0.0374  2.4516  1.5697
 5616TIP3    H216855   1.183   5.731   1.673  0.3542  0.1199 -0.6567
 5617TIP3   OH216856   4.884   3.510   4.340 -0.0083 -0.0337 -0.1643
 5617TIP3    H116857   4.849   3.479   4.424 -0.7310 -0.1007 -0.4808
 5617TIP3    H216858   4.866   3.604   4.340 -0.9346 -0.1963 -0.6655
 5618TIP3   OH216859   2.413   2.793   4.437  0.1519 -0.1545  0.0831
 5618TIP3    H116860   2.437   2.716   4.386  1.5354  0.6694 -0.5827
 5618TIP3    H216861   2.408   2.864   4.373  0.1764  0.5611  0.8546
 5619TIP3   OH216862   5.934   3.022   1.334 -0.2050  0.1680  0.5233
 5619TIP3    H116863   5.870   3.026   1.405 -0.4405 -1.9958  0.5007
 5619TIP3    H216864   6.018   3.012   1.378 -0.1196  0.9161  0.5275
 5620TIP3   OH216865   4.525   3.401   0.664  0.0576 -0.0407 -0.6643
 5620TIP3    H116866   4.584   3.468   0.698 -0.0962  0.6545 -1.7362
 5620TIP3    H216867   4.468   3.448   0.603 -1.2400 -0.8021 -0.0800
 5621TIP3   OH216868   3.785   2.803   4.216 -0.4241  0.1107 -0.0252
 5621TIP3    H116869   3.698   2.839   4.198 -1.2111 -1.9225 -0.4763
 5621TIP3    H216870   3.816   2.853   4.292 -1.7507  1.2070 -0.1632
 5622TIP3   OH216871   0.134   0.508   3.338  0.0323 -0.2904 -0.1434
 5622TIP3    H116872   0.071   0.517   3.409 -1.9985  0.9502 -1.9730
 5622TIP3    H216873   0.198   0.577   3.353  0.2801 -0.7637  1.0644
 5623TIP3   OH216874   1.238   1.820   3.058 -0.3452 -0.6797  0.0037
 5623TIP3    H116875   1.313   1.779   3.015 -0.9378 -0.5179 -1.2264
 5623TIP3    H216876   1.212   1.891   2.998 -0.0654  0.7507  1.5156
 5624TIP3   OH216877   6.117   2.305   3.928  0.3164 -0.3407  0.0095
 5624TIP3    H116878   6.187   2.298   3.863 -1.5227 -1.3397 -1.9765
 5624TIP3    H216879   6.051   2.360   3.886 -1.0561 -1.2403  0.9071
 5625TIP3   OH216880   0.343   3.982   3.733 -0.2978 -0.6906  0.1305
 5625TIP3    H116881   0.352   4.076   3.720  0.9462 -0.8665 -0.3791
 5625TIP3    H216882   0.262   3.959   3.688  0.5324 -0.2086 -1.6689
 5626TIP3   OH216883   3.046   1.195   5.033 -0.4064  0.3263  0.2200
 5626TIP3    H116884   3.085   1.268   4.984  0.9036 -1.1738 -1.0991
 5626TIP3    H216885   3.100   1.188   5.112  0.3442 -0.0425 -0.3094
 5627TIP3   OH216886   2.669   3.411   3.396  0.1273  0.3262  0.1068
 5627TIP3    H116887   2.614   3.475   3.350 -0.2750 -0.8730 -1.1554
 5627TIP3    H216888   2.628   3.404   3.483 -0.4497  0.9942 -0.0937
 5628TIP3   OH216889   1.669   1.420   2.475 -0.2890  0.0845 -0.0220
 5628TIP3    H116890   1.673   1.329   2.446  1.2855 -0.1179  0.7198
 5628TIP3    H216891   1.680   1.415   2.570 -2.2002  0.9447  0.3047
 5629TIP3   OH216892   2.346   3.479   4.867  0.1573 -0.0997 -0.4725
 5629TIP3    H116893   2.321   3.487   4.959 -1.2112  1.2836 -0.9261
 5629TIP3    H216894   2.381   3.390   4.860  1.3778  0.1421  1.6063
 5630TIP3   OH216895   0.437   4.981   4.699 -0.3371 -0.1294 -0.3038
 5630TIP3    H116896   0.470   5.063   4.735  0.2539 -0.0941 -0.9119
 5630TIP3    H216897   0.398   5.006   4.615 -3.8910  0.2097  1.2637
 5631TIP3   OH216898   3.367   2.702   2.062 -0.0857 -1.3437  0.4491
 5631TIP3    H116899   3.428   2.629   2.071  0.2856 -1.1458 -0.3134
 5631TIP3    H216900   3.417   2.769   2.014 -0.8921 -1.1784 -0.1883
 5632TIP3   OH216901   0.292   1.874   1.580  0.6902 -0.2565 -0.0259
 5632TIP3    H116902   0.272   1.966   1.596  0.7369  0.3992 -3.0244
 5632TIP3    H216903   0.207   1.830   1.585  0.1665  0.5178 -1.3915
 5633TIP3   OH216904   2.913   0.832   3.130  0.4851  0.4339  0.5155
 5633TIP3    H116905   2.918   0.763   3.197  0.3862  0.2191  0.3046
 5633TIP3    H216906   2.970   0.801   3.060 -2.4167 -1.3471 -1.2851
 5634TIP3   OH216907   1.164   3.944   4.829  0.0893 -0.4882 -0.0238
 5634TIP3    H116908   1.260   3.944   4.832  0.1039  1.2121  0.6429
 5634TIP3    H216909   1.143   3.987   4.746 -0.1209 -1.6276 -0.5786
 5635TIP3   OH216910   4.221   5.641   2.309 -0.4808  0.1798 -0.5165
 5635TIP3    H116911   4.272   5.721   2.320  0.0658 -0.2773  0.3225
 5635TIP3    H216912   4.264   5.595   2.238 -1.6826  1.3050 -2.0383
 5636TIP3   OH216913   2.459   4.634   2.070 -0.2679  0.2462 -0.0027
 5636TIP3    H116914   2.449   4.614   1.977  0.1335  0.1319 -0.0211
 5636TIP3    H216915   2.505   4.559   2.106 -2.4702 -0.8415  0.7558
 5637TIP3   OH216916   3.423   4.752   4.629  0.8621  0.0993  0.5378
 5637TIP3    H116917   3.349   4.701   4.663 -0.0729  1.6012  0.8457
 5637TIP3    H216918   3.382   4.828   4.586  2.1959  0.3804 -0.2941
 5638TIP3   OH216919   0.307   0.862   5.172  1.0998 -0.2982  0.1018
 5638TIP3    H116920   0.253   0.784   5.161  1.1823 -0.4925  0.9944
 5638TIP3    H216921   0.325   0.892   5.083 -1.2982  0.3535 -0.2236
 5639TIP3   OH216922   1.218   2.572   2.980  0.0153 -0.0131 -0.0575
 5639TIP3    H116923   1.137   2.587   3.028  0.8469  1.7783  0.8889
 5639TIP3    H216924   1.228   2.477   2.978 -2.2881 -0.2920 -0.5754
 5640TIP3   OH216925   3.706   5.763   4.196  0.5122 -0.3239  0.2034
 5640TIP3    H116926   3.633   5.825   4.204 -0.6030 -1.5191 -0.4815
 5640TIP3    H216927   3.784   5.819   4.186 -0.0792  1.0066  2.3680
 5641TIP3   OH216928   1.493   4.801   4.948 -0.0965 -0.2888 -0.2353
 5641TIP3    H116929   1.422   4.809   4.885  0.0228 -0.6506 -0.4189
 5641TIP3    H216930   1.485   4.712   4.983  0.0077 -0.1860  0.0545
 5642TIP3   OH216931   3.937   0.188   3.875  0.3194 -0.2180 -0.5571
 5642TIP3    H116932   3.969   0.151   3.792 -1.4894 -1.1361 -0.8983
 5642TIP3    H216933   3.852   0.226   3.853  0.2241  0.3340  0.7048
 5643TIP3   OH216934   1.063   4.279   3.584 -0.2512 -0.6366  0.0527
 5643TIP3    H116935   1.007   4.278   3.507 -1.8422  0.4651  1.1406
 5643TIP3    H216936   1.061   4.369   3.615  3.3839 -0.1179 -0.6592
 5644TIP3   OH216937   3.679   5.241   0.436 -0.0077  0.2833  0.3301
 5644TIP3    H116938   3.598   5.292   0.431  0.2379  0.5680 -2.3886
 5644TIP3    H216939   3.749   5.307   0.441  0.2549  0.2960 -2.2378
 5645TIP3   OH216940   2.063   2.746   3.620 -0.4878 -0.4797 -0.0998
 5645TIP3    H116941   1.973   2.751   3.586  0.1730 -2.1412 -2.3425
 5645TIP3    H216942   2.113   2.707   3.548  1.6276 -1.6214  1.8761
 5646TIP3   OH216943   3.961   0.141   2.618 -0.5387 -0.3219 -0.0193
 5646TIP3    H116944   3.911   0.085   2.678 -0.9333  1.3649  1.3026
 5646TIP3    H216945   4.033   0.174   2.670  1.0936 -1.4333 -1.4663
 5647TIP3   OH216946   2.276   0.042   0.525  0.0176 -0.5802  0.6656
 5647TIP3    H116947   2.350   0.084   0.480  0.8747 -1.0876  1.5590
 5647TIP3    H216948   2.315  -0.032   0.572 -1.3219 -1.8915 -0.1797
 5648TIP3   OH216949   1.521   3.999   2.210  0.4580 -0.4309 -0.1862
 5648TIP3    H116950   1.612   4.024   2.228  0.4202 -0.2759 -0.2152
 5648TIP3    H216951   1.470   4.040   2.280  0.5469 -1.5165  0.5392
 5649TIP3   OH216952   0.234   4.909   1.538  0.4000 -0.1741 -0.3778
 5649TIP3    H116953   0.286   4.952   1.605 -2.2944  2.5857  0.2051
 5649TIP3    H216954   0.202   4.829   1.580  1.6691 -0.3548  0.2855
 5650TIP3   OH216955   2.221   0.488   4.427 -0.5959 -0.6308 -0.1756
 5650TIP3    H116956   2.244   0.527   4.343 -0.1612  0.6720  0.5165
 5650TIP3    H216957   2.164   0.553   4.469 -0.6973 -1.1984  0.5874
 5651TIP3   OH216958   0.960   3.749   1.640 -0.1579  0.3790  0.3186
 5651TIP3    H116959   0.988   3.682   1.703 -1.1958 -1.5994 -1.2214
 5651TIP3    H216960   0.978   3.712   1.554  1.2127  3.0128 -0.6470
 5652TIP3   OH216961   5.731   3.596   3.556  0.0835  0.0124 -0.2033
 5652TIP3    H116962   5.764   3.685   3.548  0.3458 -0.1368 -0.8710
 5652TIP3    H216963   5.807   3.541   3.537 -0.3726 -0.3395 -1.0209
 5653TIP3   OH216964   5.377   3.760   4.426  0.0755 -0.4056  0.2171
 5653TIP3    H116965   5.290   3.724   4.441  0.7751 -2.7405 -0.8705
 5653TIP3    H216966   5.411   3.778   4.514 -1.4157  0.4560  0.6550
 5654TIP3   OH216967   0.778   4.916   2.053  0.0266  0.1978 -0.5254
 5654TIP3    H116968   0.694   4.877   2.075 -0.4270 -0.0382 -2.4799
 5654TIP3    H216969   0.793   4.981   2.121 -2.1970  0.8930 -0.6259
 5655TIP3   OH216970   3.956   1.213   2.584  0.1146 -0.7368 -0.0000
 5655TIP3    H116971   3.959   1.143   2.519 -2.2324 -0.6075 -0.3400
 5655TIP3    H216972   3.864   1.238   2.588  0.6100  1.0944  1.4541
 5656TIP3   OH216973   0.375   1.863   3.908  0.4568  0.3855 -0.6338
 5656TIP3    H116974   0.391   1.770   3.888 -0.2521  0.1132  0.0059
 5656TIP3    H216975   0.386   1.907   3.824  0.6466 -0.3037 -0.9846
 5657TIP3   OH216976   2.984   3.710   1.880  0.1753 -0.0946 -0.4556
 5657TIP3    H116977   3.040   3.659   1.939  0.1294 -0.5851 -0.8230
 5657TIP3    H216978   2.999   3.801   1.905  0.7498 -0.2503 -0.2054
 5658TIP3   OH216979   6.328   4.639   4.985 -0.2492  0.0514 -0.1917
 5658TIP3    H116980   6.327   4.705   4.916  0.7725  0.3432  0.0594
 5658TIP3    H216981   6.281   4.680   5.058  1.1714  0.8871  0.2886
 5659TIP3   OH216982   3.503   4.319   0.726 -0.6304  0.4805 -0.4673
 5659TIP3    H116983   3.580   4.271   0.759 -0.3338  0.7947 -0.6902
 5659TIP3    H216984   3.446   4.327   0.802 -1.1297 -1.0701 -0.6531
 5660TIP3   OH216985   6.251   5.889   3.117  0.1461  0.0000 -0.2128
 5660TIP3    H116986   6.262   5.880   3.212 -0.7818 -2.3967 -0.2682
 5660TIP3    H216987   6.171   5.940   3.106  0.2412  0.2616  0.2633
 5661TIP3   OH216988   5.371   5.810   1.743 -0.3276 -0.3275 -0.2244
 5661TIP3    H116989   5.435   5.881   1.744 -1.1000  0.3924 -0.5062
 5661TIP3    H216990   5.348   5.798   1.835 -1.5026  1.0404 -0.2891
 5662TIP3   OH216991   3.619   4.259   2.779 -0.4532 -1.0937  0.2356
 5662TIP3    H116992   3.695   4.291   2.827 -0.0181 -1.1952 -0.3729
 5662TIP3    H216993   3.544   4.303   2.821  0.0703  0.2571 -0.1851
 5663TIP3   OH216994   4.082   5.807   4.621  0.0649  0.3426 -0.3530
 5663TIP3    H116995   4.074   5.787   4.528 -1.8392  1.0909 -0.3943
 5663TIP3    H216996   4.127   5.732   4.659  0.7569 -0.0204 -1.8456
 5664TIP3   OH216997   3.829   1.147   3.538 -0.3439  0.8651 -0.1985
 5664TIP3    H116998   3.845   1.218   3.600 -0.1591  0.6610 -0.0086
 5664TIP3    H216999   3.912   1.099   3.534 -0.6319  0.3288  0.1059
 5665TIP3   OH217000   4.126   5.859   5.172  1.1019  0.3239 -0.0882
 5665TIP3    H117001   4.200   5.807   5.138  0.2426 -0.6444 -0.5203
 5665TIP3    H217002   4.112   5.926   5.105  0.6222 -0.4300 -0.7624
 5666TIP3   OH217003   1.011   5.435   3.978  0.4257  0.5861  0.3608
 5666TIP3    H117004   1.068   5.374   4.026 -0.6335  0.7292  1.8515
 5666TIP3    H217005   1.073   5.492   3.931  1.4954 -0.0005  0.9995
 5667TIP3   OH217006   2.314   2.446   3.594 -0.3826  0.5317 -0.5673
 5667TIP3    H117007   2.350   2.399   3.518  0.0634  0.4795 -0.3228
 5667TIP3    H217008   2.347   2.535   3.586 -2.7512  1.3716 -2.0824
 5668TIP3   OH217009   0.786   2.198   4.527 -0.4938  0.2082  0.6145
 5668TIP3    H117010   0.846   2.252   4.475  0.8382 -1.5285  0.2378
 5668TIP3    H217011   0.778   2.116   4.477 -2.1263 -0.1207  1.3513
 5669TIP3   OH217012   2.041   1.274   4.563 -0.4446 -0.3994 -0.2491
 5669TIP3    H117013   2.131   1.251   4.541 -0.8914 -0.3884 -2.3681
 5669TIP3    H217014   2.040   1.281   4.658  0.9818 -3.8426  0.1728
 5670TIP3   OH217015   2.405   0.074   3.495  0.0311  0.6539 -0.4881
 5670TIP3    H117016   2.453  -0.000   3.531 -1.2417 -0.1767 -0.4357
 5670TIP3    H217017   2.407   0.061   3.401 -1.8248 -0.5575 -0.4117
 5671TIP3   OH217018   0.151   3.516   1.148 -0.4836 -0.0710  0.0897
 5671TIP3    H117019   0.105   3.508   1.065 -2.4673 -1.0385  1.1962
 5671TIP3    H217020   0.222   3.452   1.143  0.4035  0.9934 -1.4221
 5672TIP3   OH217021   1.491   3.443   4.462  0.2469 -0.4474  0.2478
 5672TIP3    H117022   1.523   3.514   4.518  2.4215  0.5997 -2.1161
 5672TIP3    H217023   1.553   3.372   4.475  1.2344  0.0793 -1.2858
 5673TIP3   OH217024   2.955   5.263   0.486  0.3713  0.1557  0.7698
 5673TIP3    H117025   2.964   5.228   0.575  2.2105 -2.5773 -0.3788
 5673TIP3    H217026   2.876   5.223   0.452  0.2976  0.3003  0.7676
 5674TIP3   OH217027   6.205   4.906   1.206  0.1507  0.0630  0.0544
 5674TIP3    H117028   6.202   4.812   1.187 -2.2851  0.3677 -1.6219
 5674TIP3    H217029   6.265   4.914   1.280  2.0425 -2.5466 -1.0564
 5675TIP3   OH217030   1.654   3.999   4.271 -0.1531  0.4526  0.7188
 5675TIP3    H117031   1.661   3.980   4.177 -0.1346  1.5111  0.4949
 5675TIP3    H217032   1.671   3.915   4.313  2.3941  0.4394 -0.1539
 5676TIP3   OH217033   3.566   3.464   1.635  0.1846 -0.3090  0.5110
 5676TIP3    H117034   3.527   3.429   1.555  1.6954 -0.7611 -0.0633
 5676TIP3    H217035   3.495   3.512   1.678 -0.4998  0.4392 -1.3839
 5677TIP3   OH217036   0.949   4.243   3.130 -0.0759 -0.1628 -0.3026
 5677TIP3    H117037   0.992   4.285   3.205  1.0964  0.1511 -1.1265
 5677TIP3    H217038   1.017   4.188   3.091 -0.9824 -1.1774 -0.5213
 5678TIP3   OH217039   2.321   1.939   4.643  0.0439 -0.7675 -0.4206
 5678TIP3    H117040   2.230   1.910   4.651  0.5383 -2.0052  1.9270
 5678TIP3    H217041   2.363   1.872   4.589  0.1458 -1.9771  1.0535
 5679TIP3   OH217042   5.509   2.185   2.513 -0.5973  0.4939 -0.5550
 5679TIP3    H117043   5.603   2.201   2.516 -0.9840  3.1428 -0.2183
 5679TIP3    H217044   5.486   2.195   2.420 -0.8203  1.9278 -0.3623
 5680TIP3   OH217045   2.055   2.038   4.429  0.2587  0.0722 -0.5166
 5680TIP3    H117046   2.099   2.122   4.444 -0.4862  0.7056 -1.6845
 5680TIP3    H217047   2.038   2.003   4.516  1.5643  0.5994 -0.0254
 5681TIP3   OH217048   3.131   1.122   3.548 -0.1927 -0.6981  0.5273
 5681TIP3    H117049   3.126   1.175   3.628  1.5438 -0.9113  0.8240
 5681TIP3    H217050   3.040   1.111   3.520 -0.7379  0.5330  1.7102
 5682TIP3   OH217051   4.633   4.835   0.709  0.3631  0.2762  0.0405
 5682TIP3    H117052   4.704   4.807   0.767 -0.0697 -0.3825  0.2590
 5682TIP3    H217053   4.597   4.913   0.752  0.9947  0.6681 -0.1139
 5683TIP3   OH217054   4.343   2.626   0.306  0.1053 -0.1417 -0.4136
 5683TIP3    H117055   4.250   2.622   0.327  0.6060 -0.2243  2.1333
 5683TIP3    H217056   4.377   2.540   0.332  1.1537  0.4655  0.3030
 5684TIP3   OH217057   6.093   2.261   4.804 -0.3881 -0.5669  0.1816
 5684TIP3    H117058   6.169   2.251   4.861  0.0261  1.1935  0.0057
 5684TIP3    H217059   6.129   2.292   4.721 -1.3447  1.3912  0.4440
 5685TIP3   OH217060   2.723   2.613   4.160  0.3292 -0.3538  0.2367
 5685TIP3    H117061   2.699   2.612   4.067 -1.5586 -0.6463  0.6741
 5685TIP3    H217062   2.639   2.605   4.206  1.3535 -1.9384  1.9659
 5686TIP3   OH217063   3.759   0.347   3.740  0.6077  0.4228 -0.1473
 5686TIP3    H117064   3.809   0.380   3.665 -1.5782 -0.8540 -2.3309
 5686TIP3    H217065   3.755   0.421   3.800  0.1886  2.4714 -2.5143
 5687TIP3   OH217066   3.234   0.641   2.237 -0.2161  0.0594 -0.7372
 5687TIP3    H117067   3.239   0.685   2.322  1.5568 -1.5618  0.0843
 5687TIP3    H217068   3.221   0.712   2.174 -2.6631  1.2086  0.9187
 5688TIP3   OH217069   0.209   3.564   2.057 -0.3950 -0.4006  0.2777
 5688TIP3    H117070   0.302   3.551   2.038 -0.5644  0.5385 -1.3705
 5688TIP3    H217071   0.202   3.656   2.080 -1.1542 -0.0398 -1.3158
 5689TIP3   OH217072   5.874   0.074   3.764 -0.0948 -0.4286  0.9870
 5689TIP3    H117073   5.913  -0.010   3.789  0.0781 -0.4397  0.6779
 5689TIP3    H217074   5.871   0.124   3.846  1.9414  0.1271  0.7599
 5690TIP3   OH217075   5.666   3.346   3.195 -0.0878  0.0881 -0.3934
 5690TIP3    H117076   5.616   3.288   3.252  0.4228 -0.5143 -0.5468
 5690TIP3    H217077   5.690   3.291   3.120  1.9872 -0.0706  0.3129
 5691TIP3   OH217078   5.695   4.170   0.504 -0.4333  0.2821  0.1770
 5691TIP3    H117079   5.762   4.230   0.538 -1.2311  0.0085  2.4720
 5691TIP3    H217080   5.722   4.150   0.415  1.6738  1.3955  0.5122
 5692TIP3   OH217081   0.141   1.301   3.372  0.2062 -0.1726  0.2290
 5692TIP3    H117082   0.130   1.283   3.279 -0.6109  0.4720  0.1811
 5692TIP3    H217083   0.137   1.396   3.379  0.5273 -0.2002  0.8903
 5693TIP3   OH217084   4.448   0.729   3.485 -0.3993 -0.0999 -0.3989
 5693TIP3    H117085   4.385   0.741   3.556 -2.0237 -1.0030 -1.6137
 5693TIP3    H217086   4.475   0.818   3.462  0.3668  0.1925  1.4837
 5694TIP3   OH217087   2.003   0.568   4.969  0.5025  0.4700  0.4821
 5694TIP3    H117088   1.932   0.540   5.026 -0.9433  1.0373 -0.9701
 5694TIP3    H217089   2.082   0.555   5.021 -0.7702  1.4698  2.7922
 5695TIP3   OH217090   2.526   0.158   0.384  0.2430  0.2412 -0.4907
 5695TIP3    H117091   2.611   0.128   0.414 -0.0227  1.4211  1.6754
 5695TIP3    H217092   2.534   0.253   0.377 -0.7557  0.3259 -0.7501
 5696TIP3   OH217093   2.985   3.269   1.994  0.1097 -0.0699  0.3196
 5696TIP3    H117094   2.897   3.304   2.008 -0.1199 -0.5978  0.2016
 5696TIP3    H217095   2.978   3.177   2.017  0.7668  0.0051  0.8325
 5697TIP3   OH217096   2.062   2.967   1.220 -0.0484 -0.3583 -0.1936
 5697TIP3    H117097   2.058   3.040   1.158 -0.7256 -0.8825 -0.7881
 5697TIP3    H217098   2.006   2.994   1.293  0.2144 -0.0145 -0.1224
 5698TIP3   OH217099   1.822   1.455   1.762 -0.2094  0.3430 -0.2702
 5698TIP3    H117100   1.849   1.427   1.850  0.2657 -1.2516 -0.8869
 5698TIP3    H217101   1.902   1.446   1.709 -1.5203 -3.6147 -1.9521
 5699TIP3   OH217102   3.861   2.560   1.022 -0.3104  0.4795  0.7365
 5699TIP3    H117103   3.903   2.490   1.073  0.5481  0.1244 -0.4141
 5699TIP3    H217104   3.786   2.517   0.981  0.8038 -0.1069 -0.8123
 5700TIP3   OH217105   1.548   1.446   4.594  0.2924 -0.6073 -0.3603
 5700TIP3    H117106   1.640   1.442   4.565  0.5825 -0.0183  0.4356
 5700TIP3    H217107   1.535   1.364   4.641  0.2272 -0.9532 -0.9659
 5701TIP3   OH217108   1.139   2.943   2.504  0.2801  0.3422  0.0663
 5701TIP3    H117109   1.145   3.018   2.563 -0.0628  0.1870  0.2990
 5701TIP3    H217110   1.046   2.921   2.503  0.1487  0.8443 -1.1591
 5702TIP3   OH217111   0.188   3.453   1.576 -0.1109 -0.2008 -0.6285
 5702TIP3    H117112   0.240   3.399   1.636 -1.3530 -0.6460  0.0724
 5702TIP3    H217113   0.228   3.540   1.581 -0.7474  0.0158  1.5894
 5703TIP3   OH217114   5.791   5.901   2.940  0.4787 -0.1639 -0.2153
 5703TIP3    H117115   5.763   5.856   3.019  1.3443  0.7800  0.6489
 5703TIP3    H217116   5.802   5.831   2.875  2.5975 -1.3491  1.2960
 5704TIP3   OH217117   3.152   3.172   1.688  0.0253  0.2702  0.0158
 5704TIP3    H117118   3.148   3.177   1.593 -2.5781 -0.9051 -0.0421
 5704TIP3    H217119   3.154   3.263   1.718 -0.2631  0.6762 -1.1686
 5705TIP3   OH217120   6.306   0.607   1.618  0.5477  0.1897 -0.1370
 5705TIP3    H117121   6.336   0.674   1.679 -0.1947  2.6776 -2.2643
 5705TIP3    H217122   6.378   0.597   1.555 -0.0556  0.4232 -0.8883
 5706TIP3   OH217123   5.178   3.529   1.438 -0.4561  0.2779 -0.2633
 5706TIP3    H117124   5.243   3.599   1.447 -0.4807  0.2802 -0.1085
 5706TIP3    H217125   5.125   3.555   1.362  0.4285 -0.2835 -1.0911
 5707TIP3   OH217126   4.743   0.846   4.470  0.5307 -0.1856 -0.0021
 5707TIP3    H117127   4.660   0.884   4.499  0.6900  0.7096 -0.6377
 5707TIP3    H217128   4.777   0.909   4.406  0.6371 -1.5947 -1.4012
 5708TIP3   OH217129   6.172   3.200   2.798 -0.0539  0.6587  0.0751
 5708TIP3    H117130   6.209   3.242   2.876  1.3927  1.5200 -1.0314
 5708TIP3    H217131   6.199   3.108   2.806 -2.7495 -0.0532  2.2160
 5709TIP3   OH217132   1.385   1.330   1.515  1.2165 -0.0196 -0.1925
 5709TIP3    H117133   1.466   1.333   1.566  1.7038  0.0937 -0.9531
 5709TIP3    H217134   1.399   1.258   1.453 -1.1660 -3.3319  2.7560
 5710TIP3   OH217135   4.971   5.756   0.817 -0.6646 -0.5006  0.0715
 5710TIP3    H117136   5.056   5.714   0.804 -0.8913 -1.1397  0.5541
 5710TIP3    H217137   4.917   5.687   0.856 -1.6425 -0.3543 -0.9717
 5711TIP3   OH217138   5.867   2.661   1.407 -0.3880  0.5847  0.0271
 5711TIP3    H117139   5.865   2.677   1.313  0.9677  1.5156  0.1355
 5711TIP3    H217140   5.793   2.710   1.442 -2.2777 -1.5538 -0.7593
 5712TIP3   OH217141   3.842   3.758   3.051  0.5145 -0.0592 -0.0328
 5712TIP3    H117142   3.758   3.741   3.009  0.7403  3.6749 -2.5022
 5712TIP3    H217143   3.906   3.710   2.998  0.2271 -0.1881 -0.2602
 5713TIP3   OH217144   2.742   1.682   2.229  0.3736  0.8339 -0.1988
 5713TIP3    H117145   2.704   1.768   2.246 -1.6367 -0.1375  0.5445
 5713TIP3    H217146   2.827   1.684   2.273  0.2753  2.3522 -0.0337
 5714TIP3   OH217147   1.206   2.010   0.274 -0.4354 -0.3180 -0.4871
 5714TIP3    H117148   1.279   2.017   0.213 -0.9128 -0.2889 -1.0616
 5714TIP3    H217149   1.146   2.080   0.248 -0.2831  0.2069  0.5163
 5715TIP3   OH217150   0.826   0.173   2.135 -0.6362  0.2863 -0.1544
 5715TIP3    H117151   0.798   0.152   2.046  0.4768  0.0284 -0.4585
 5715TIP3    H217152   0.775   0.251   2.158 -1.6690 -0.2297 -0.6289
 5716TIP3   OH217153   2.673   5.123   5.196  0.0770 -0.6370  0.2527
 5716TIP3    H117154   2.726   5.057   5.152  0.6380 -0.7364  1.0677
 5716TIP3    H217155   2.582   5.096   5.178  0.2906 -0.6855 -0.8055
 5717TIP3   OH217156   3.150   3.982   1.426  0.3119  0.0285  0.5616
 5717TIP3    H117157   3.210   4.051   1.397 -1.6433  1.1725 -1.0998
 5717TIP3    H217158   3.165   3.911   1.364  1.1564 -0.4166  1.2516
 5718TIP3   OH217159   1.809   4.381   2.640 -0.2028  0.1164 -0.1248
 5718TIP3    H117160   1.796   4.454   2.581 -0.5499  0.0200 -0.1710
 5718TIP3    H217161   1.814   4.421   2.727  0.9307  0.3177 -0.2713
 5719TIP3   OH217162   3.041   2.715   2.690 -0.0485 -0.4475 -0.7318
 5719TIP3    H117163   3.045   2.641   2.629 -0.9804  0.0083 -1.3820
 5719TIP3    H217164   3.129   2.752   2.688  0.3270 -1.3047 -0.6903
 5720TIP3   OH217165   3.675   3.472   2.821  0.3395 -0.0568  0.1385
 5720TIP3    H117166   3.661   3.549   2.877  1.6487  0.0991  0.2730
 5720TIP3    H217167   3.603   3.413   2.844 -0.8180  1.2090 -0.1298
 5721TIP3   OH217168   2.851   2.825   4.517 -0.3566 -0.2248  0.1014
 5721TIP3    H117169   2.872   2.747   4.466  1.0500 -0.3973  0.8919
 5721TIP3    H217170   2.790   2.795   4.584 -4.8049  0.5912 -3.1893
 5722TIP3   OH217171   4.455   2.189   0.063 -0.0722 -0.3279  0.0637
 5722TIP3    H117172   4.525   2.231   0.113 -0.4949 -1.6661  1.8517
 5722TIP3    H217173   4.478   2.096   0.064 -1.8985 -0.7983  0.7405
 5723TIP3   OH217174   0.580   3.118   3.506  0.2094 -0.6676  0.0694
 5723TIP3    H117175   0.500   3.090   3.550 -0.6107  0.2447 -0.8150
 5723TIP3    H217176   0.597   3.049   3.443 -2.0729  0.8671 -2.4345
 5724TIP3   OH217177   5.322   2.440   3.052  0.3146  0.1119 -0.2048
 5724TIP3    H117178   5.415   2.449   3.072  0.5316  1.4447 -1.5677
 5724TIP3    H217179   5.279   2.500   3.113  0.5233  0.6624 -0.5831
 5725TIP3   OH217180   1.271   3.020   4.055  0.5297 -0.0006 -0.5088
 5725TIP3    H117181   1.353   3.049   4.095 -0.1908 -0.1777  1.1531
 5725TIP3    H217182   1.236   3.099   4.013  1.7699 -0.0388 -1.6932
 5726TIP3   OH217183   0.648   4.669   4.112 -0.3568  0.3956  0.1457
 5726TIP3    H117184   0.683   4.758   4.120 -0.3917  0.3190  1.3783
 5726TIP3    H217185   0.560   4.681   4.078 -0.7478  0.9224  1.3012
 5727TIP3   OH217186   1.778   2.086   0.749 -0.2007 -0.3627 -0.2438
 5727TIP3    H117187   1.740   2.152   0.691  0.0143 -1.6563 -1.9509
 5727TIP3    H217188   1.751   2.002   0.710  0.9915 -1.2844  0.8316
 5728TIP3   OH217189   0.645   3.974   0.993 -0.4544  0.1308  0.6923
 5728TIP3    H117190   0.569   3.921   0.967 -0.0301  0.2957 -0.9547
 5728TIP3    H217191   0.701   3.977   0.916  0.6806  1.0112  1.5061
 5729TIP3   OH217192   6.165   1.626   4.858  0.5378  0.1984 -0.0426
 5729TIP3    H117193   6.218   1.561   4.905 -1.0007 -1.0185  0.0637
 5729TIP3    H217194   6.185   1.612   4.766 -0.9656 -1.5730 -0.1498
 5730TIP3   OH217195   1.825   5.784   2.236 -0.2530 -0.3582  0.5354
 5730TIP3    H117196   1.865   5.820   2.316 -1.5622 -1.1874  1.6071
 5730TIP3    H217197   1.899   5.758   2.182  0.6965  1.6968  0.7632
 5731TIP3   OH217198   3.107   0.990   1.504  0.2440 -0.1442  0.1069
 5731TIP3    H117199   3.045   1.041   1.451  1.7993  0.8808 -0.8375
 5731TIP3    H217200   3.104   1.030   1.591  0.3793  0.6429 -0.2393
 5732TIP3   OH217201   0.887   2.572   1.999 -0.2555  0.4452 -0.3257
 5732TIP3    H117202   0.901   2.656   1.955  0.4289 -0.3332 -1.6808
 5732TIP3    H217203   0.974   2.531   1.999 -0.6697 -0.4503 -0.1032
 5733TIP3   OH217204   4.937   2.006   1.333 -0.4801  0.1560  0.6240
 5733TIP3    H117205   4.964   2.092   1.366  0.3046 -0.0088  0.4306
 5733TIP3    H217206   4.876   1.973   1.400 -0.7944  0.8620  0.6950
 5734TIP3   OH217207   2.712   1.316   4.698  0.7158 -0.3685  0.1795
 5734TIP3    H117208   2.729   1.403   4.662  1.6388 -0.2822  0.7993
 5734TIP3    H217209   2.694   1.261   4.621  2.3870 -0.1295 -0.4161
 5735TIP3   OH217210   4.652   4.376   4.830  0.4145 -0.0100 -0.1494
 5735TIP3    H117211   4.604   4.434   4.771  0.5959  1.2166  0.8635
 5735TIP3    H217212   4.732   4.354   4.783 -1.0227 -2.0070 -1.8215
 5736TIP3   OH217213   5.183   2.297   1.804 -0.2208 -0.0589  0.4973
 5736TIP3    H117214   5.205   2.213   1.764 -0.5718 -0.1789  0.5522
 5736TIP3    H217215   5.128   2.341   1.740  0.4121  0.3666  0.2354
 5737TIP3   OH217216   0.565   0.753   1.068  0.3603 -0.0487  0.2781
 5737TIP3    H117217   0.606   0.765   0.983 -0.5313 -0.3817 -0.2038
 5737TIP3    H217218   0.599   0.668   1.098 -0.4346 -0.6204 -0.3975
 5738TIP3   OH217219   3.853   3.835   0.105  0.2519  0.2958  0.5344
 5738TIP3    H117220   3.800   3.765   0.143  0.7283 -1.2094 -1.3790
 5738TIP3    H217221   3.940   3.822   0.144  0.5294 -0.7064 -0.3562
 5739TIP3   OH217222   4.351   3.478   0.472  0.4682  0.3071 -0.5442
 5739TIP3    H117223   4.339   3.572   0.459  1.3035  0.4090 -0.5911
 5739TIP3    H217224   4.261   3.443   0.478  0.1408  0.9974 -1.2557
 5740TIP3   OH217225   4.263   3.561   1.281 -0.1111 -0.6404  0.4220
 5740TIP3    H117226   4.318   3.640   1.275 -0.0682 -0.7268 -0.4277
 5740TIP3    H217227   4.214   3.573   1.362 -0.2975  0.3867  0.1774
 5741TIP3   OH217228   4.190   2.296   0.189  0.4185 -0.5194 -0.6567
 5741TIP3    H117229   4.266   2.323   0.241 -0.9055  0.5871  0.7960
 5741TIP3    H217230   4.165   2.211   0.225 -0.2950  0.0947  0.3440
 5742TIP3   OH217231   6.103   5.613   3.891  0.4023  0.7287  0.4596
 5742TIP3    H117232   6.051   5.669   3.948 -0.0508  0.5771  0.2005
 5742TIP3    H217233   6.052   5.607   3.810  1.4593  1.6819 -0.3067
 5743TIP3   OH217234   1.307   4.976   4.337  0.2851  0.7731 -0.4454
 5743TIP3    H117235   1.221   4.937   4.354  0.0748  0.6007 -1.7564
 5743TIP3    H217236   1.311   5.052   4.395 -0.4594  0.3829  0.1332
 5744TIP3   OH217237   5.358   3.224   3.141 -0.4619  0.4542 -0.3137
 5744TIP3    H117238   5.357   3.320   3.137 -0.6289  0.5265  1.1690
 5744TIP3    H217239   5.353   3.197   3.049  2.4837  1.8858 -1.0218
 5745TIP3   OH217240   4.033   3.695   0.468 -0.0539  0.3040  0.2598
 5745TIP3    H117241   4.128   3.704   0.461  0.1965 -2.3159 -0.9373
 5745TIP3    H217242   4.017   3.682   0.561  1.0069 -1.0808  0.2709
 5746TIP3   OH217243   0.085   4.999   1.329 -0.1002  0.3127 -0.1169
 5746TIP3    H117244   0.090   4.922   1.273  0.5464  0.5524 -0.4014
 5746TIP3    H217245   0.157   4.986   1.392 -0.0909  0.6025 -0.0677
 5747TIP3   OH217246   4.849   4.831   4.551 -0.2470  0.4446  0.0019
 5747TIP3    H117247   4.878   4.742   4.573 -0.2867  1.0420  2.8797
 5747TIP3    H217248   4.904   4.856   4.477  0.6639 -1.4896 -0.0590
 5748TIP3   OH217249   2.157   4.279   4.123  0.0024 -0.6084 -0.4539
 5748TIP3    H117250   2.185   4.343   4.057  0.8659  0.9159  1.3005
 5748TIP3    H217251   2.082   4.235   4.084 -0.4024  1.2409 -1.8792
 5749TIP3   OH217252   3.332   1.000   1.899 -0.4418 -0.5220  0.1885
 5749TIP3    H117253   3.386   1.064   1.852 -0.6894  0.5661  1.3365
 5749TIP3    H217254   3.389   0.925   1.912  0.1963 -0.1225 -0.2327
 5750TIP3   OH217255   4.725   5.206   3.379  0.1218 -0.4858 -0.9729
 5750TIP3    H117256   4.702   5.115   3.398  1.2606 -0.9593 -1.7887
 5750TIP3    H217257   4.720   5.250   3.464 -1.5696 -1.0258 -0.7436
 5751TIP3   OH217258   5.809   2.407   4.270  0.4006  0.1538  0.3450
 5751TIP3    H117259   5.792   2.377   4.181 -0.1905 -0.4407  0.6415
 5751TIP3    H217260   5.873   2.344   4.305  0.6077  0.3669  0.3517
 5752TIP3   OH217261   6.332   4.690   3.216  0.7818 -0.7137  0.4146
 5752TIP3    H117262   6.327   4.620   3.151 -0.7361 -2.9392  2.7264
 5752TIP3    H217263   6.242   4.725   3.220  1.6447  1.9708 -1.1835
 5753TIP3   OH217264   3.983   0.384   1.146  0.1847 -0.4260 -0.2064
 5753TIP3    H117265   4.034   0.308   1.115 -0.1048 -2.3344  3.4324
 5753TIP3    H217266   3.892   0.360   1.129  0.1508 -0.2622 -0.2563
 5754TIP3   OH217267   5.449   0.590   0.342 -0.2472 -0.2124 -0.6280
 5754TIP3    H117268   5.365   0.634   0.349 -0.1181  0.1382 -1.2075
 5754TIP3    H217269   5.506   0.654   0.299  0.6537  0.0218  0.8596
 5755TIP3   OH217270   1.503   4.749   2.430  0.1367 -0.4272  0.2795
 5755TIP3    H117271   1.531   4.760   2.521 -0.6587 -1.3987  0.6638
 5755TIP3    H217272   1.570   4.793   2.379  0.4913  0.3105  1.3482
 5756TIP3   OH217273   4.294   2.724   5.212  0.1509 -0.0960 -0.3227
 5756TIP3    H117274   4.205   2.705   5.183  0.0586  0.0668 -0.1504
 5756TIP3    H217275   4.349   2.665   5.161 -0.0018  0.2114 -0.8485
 5757TIP3   OH217276   1.682   3.630   1.512  0.0241 -0.5630 -0.0356
 5757TIP3    H117277   1.638   3.715   1.503  0.9248 -0.1357 -0.6010
 5757TIP3    H217278   1.721   3.614   1.426 -0.3454 -1.6831 -0.0057
 5758TIP3   OH217279   5.841   4.585   2.395 -0.0206 -0.6637  0.6481
 5758TIP3    H117280   5.918   4.584   2.339  0.1924  0.7547  0.8839
 5758TIP3    H217281   5.876   4.593   2.484 -0.4183  1.7176  0.6541
 5759TIP3   OH217282   1.771   2.299   2.870  0.1792  0.2958  0.1753
 5759TIP3    H117283   1.791   2.280   2.779  0.8629  0.5339  0.2607
 5759TIP3    H217284   1.680   2.273   2.882 -0.4044  1.6349 -0.9709
 5760TIP3   OH217285   0.110   3.009   2.681  0.3036 -0.4007  0.2416
 5760TIP3    H117286   0.130   3.089   2.728 -0.3519  0.7424 -1.3309
 5760TIP3    H217287   0.044   3.035   2.617  1.1478 -1.8549 -1.3017
 5761TIP3   OH217288   3.454   5.225   2.387 -0.1398 -0.4333  0.6498
 5761TIP3    H117289   3.418   5.136   2.378  0.0048 -0.5982  1.6173
 5761TIP3    H217290   3.449   5.261   2.299 -1.6129 -0.8588  0.5275
 5762TIP3   OH217291   4.083   5.923   0.620 -0.2651  0.3888 -0.0429
 5762TIP3    H117292   4.073   6.007   0.664 -0.2457  0.1064  0.5015
 5762TIP3    H217293   4.175   5.899   0.635 -0.5181 -0.1861  0.6225
 5763TIP3   OH217294   0.328   1.511   4.763  0.3091  0.9062  0.1885
 5763TIP3    H117295   0.249   1.460   4.775  1.5348 -0.9934  0.5769
 5763TIP3    H217296   0.368   1.515   4.850  2.2586 -1.0194 -0.5423
 5764TIP3   OH217297   4.326   4.494   4.249  0.3972 -0.1372 -0.3322
 5764TIP3    H117298   4.255   4.441   4.285  1.2632  0.6483  2.8497
 5764TIP3    H217299   4.385   4.509   4.323  1.9323  2.4226 -1.9097
 5765TIP3   OH217300   4.786   0.120   4.173 -0.2790  0.1698  0.2409
 5765TIP3    H117301   4.758   0.044   4.225 -0.6761 -0.5761 -1.0203
 5765TIP3    H217302   4.733   0.193   4.205 -0.7861 -0.3628  0.6220
 5766TIP3   OH217303   1.792   3.139   3.062  0.3257 -0.5591 -0.0167
 5766TIP3    H117304   1.720   3.077   3.050  0.7618 -1.0096 -0.3607
 5766TIP3    H217305   1.824   3.157   2.974  0.0930  0.3014  0.0668
 5767TIP3   OH217306   0.947   0.792   4.672 -0.0349  0.0668  0.5645
 5767TIP3    H117307   0.853   0.772   4.680 -0.0309  0.2042  1.0056
 5767TIP3    H217308   0.950   0.867   4.612 -0.1070 -0.7251 -0.4560
 5768TIP3   OH217309   0.867   0.633   0.123 -0.5746 -0.1453 -0.4768
 5768TIP3    H117310   0.836   0.662   0.037  1.0758 -0.1573 -1.1255
 5768TIP3    H217311   0.894   0.542   0.109 -1.1305 -0.4396  0.2998
 5769TIP3   OH217312   3.668   4.018   4.814  0.2495 -0.2754 -0.5609
 5769TIP3    H117313   3.606   4.057   4.876 -1.2340 -1.6190 -1.1484
 5769TIP3    H217314   3.700   3.939   4.858  0.1698 -0.5433 -0.9774
 5770TIP3   OH217315   5.278   0.532   1.443  0.1352  0.1170 -0.1095
 5770TIP3    H117316   5.189   0.567   1.444  0.1895  0.2514  1.2183
 5770TIP3    H217317   5.275   0.456   1.501  0.8648  0.0621 -0.1302
 5771TIP3   OH217318   1.711   2.124   1.957  0.7267 -0.2067 -0.1837
 5771TIP3    H117319   1.739   2.122   2.048  0.0196  1.0774  0.0890
 5771TIP3    H217320   1.615   2.115   1.961  0.6787 -0.0385 -0.7848
 5772TIP3   OH217321   2.817   5.668   1.180 -0.3617  0.2538  0.0639
 5772TIP3    H117322   2.785   5.723   1.251 -2.0392 -1.8718  1.1093
 5772TIP3    H217323   2.899   5.632   1.212 -0.9684 -0.4663  0.8777
 5773TIP3   OH217324   5.840   4.183   5.138 -0.5148 -0.4596 -0.9027
 5773TIP3    H117325   5.819   4.277   5.133 -1.4253 -0.6525 -0.7684
 5773TIP3    H217326   5.780   4.142   5.076 -0.3010 -0.9908 -0.7585
 5774TIP3   OH217327   0.491   0.603   0.164  0.1722  0.1897 -0.3149
 5774TIP3    H117328   0.567   0.627   0.113 -1.6592 -0.0611 -3.4129
 5774TIP3    H217329   0.480   0.674   0.227  2.0211  0.9937 -0.8612
 5775TIP3   OH217330   2.403   3.483   1.558 -0.2680 -0.3759  0.4282
 5775TIP3    H117331   2.486   3.437   1.574 -0.5942 -1.2440 -0.2945
 5775TIP3    H217332   2.367   3.441   1.480 -0.8078  0.8217  0.0161
 5776TIP3   OH217333   5.156   1.527   2.134  0.3308  0.1753  0.1113
 5776TIP3    H117334   5.193   1.559   2.217 -0.7494  1.2984  0.1912
 5776TIP3    H217335   5.122   1.440   2.156 -0.6240  0.7631  1.0685
 5777TIP3   OH217336   3.473   0.422   0.706 -0.0811 -0.0614 -0.0663
 5777TIP3    H117337   3.506   0.477   0.777  0.9150 -0.3575 -0.2924
 5777TIP3    H217338   3.382   0.451   0.695 -0.0785  0.3849  0.9329
 5778TIP3   OH217339   4.891   4.439   4.002 -0.2936  0.2349  0.0094
 5778TIP3    H117340   4.867   4.348   4.017 -2.3804  0.6536 -0.4645
 5778TIP3    H217341   4.810   4.488   4.016  0.2533  1.7867 -1.8073
 5779TIP3   OH217342   0.800   4.905   1.054 -0.2189 -0.5767  0.2013
 5779TIP3    H117343   0.717   4.952   1.055  0.1488  0.0922  0.6006
 5779TIP3    H217344   0.830   4.906   1.145 -0.3920 -1.9637  0.2918
 5780TIP3   OH217345   2.917   0.657   3.355 -0.7327  0.0779  0.2912
 5780TIP3    H117346   2.972   0.578   3.356 -0.4210  0.2782 -0.4899
 5780TIP3    H217347   2.958   0.715   3.420 -1.0944 -0.4852  1.0300
 5781TIP3   OH217348   4.174   3.132   0.358  0.1421  0.4416 -0.0755
 5781TIP3    H117349   4.133   3.207   0.317 -0.8182 -1.1264 -2.1631
 5781TIP3    H217350   4.213   3.083   0.286 -0.8952 -2.0336  0.9298
 5782TIP3   OH217351   5.559   4.843   4.937 -0.0079  0.3009  0.1963
 5782TIP3    H117352   5.512   4.907   4.884 -0.5049 -0.1101  0.1395
 5782TIP3    H217353   5.497   4.819   5.006 -0.3750 -1.2217 -0.6269
 5783TIP3   OH217354   6.080   3.639   1.280  0.2590  0.3134  0.0060
 5783TIP3    H117355   6.003   3.614   1.330  0.3433  0.0166 -0.0069
 5783TIP3    H217356   6.154   3.604   1.331  0.3916  0.7041  0.0844
 5784TIP3   OH217357   3.600   2.306   4.531 -0.3838 -0.6249 -0.3165
 5784TIP3    H117358   3.592   2.223   4.579  0.4852 -1.2895 -1.2761
 5784TIP3    H217359   3.620   2.280   4.441  0.8615  0.6341 -0.4427
 5785TIP3   OH217360   4.149   5.730   2.574 -0.5405  0.6098  0.6024
 5785TIP3    H117361   4.214   5.710   2.642  0.6377  2.4328  0.0866
 5785TIP3    H217362   4.201   5.742   2.495 -1.8547 -1.1129 -0.5939
 5786TIP3   OH217363   1.422   0.017   3.650  0.6269 -0.2708 -0.4448
 5786TIP3    H117364   1.390  -0.070   3.674 -1.8265  0.7965  0.4146
 5786TIP3    H217365   1.445   0.059   3.733 -0.8429  0.8311 -0.5511
 5787TIP3   OH217366   1.513   1.014   4.123 -0.2301 -0.3967 -0.4465
 5787TIP3    H117367   1.427   0.995   4.084 -0.1644 -0.9161 -0.3500
 5787TIP3    H217368   1.535   0.934   4.171  0.5728 -0.4905 -0.9560
 5788TIP3   OH217369   2.105   1.553   4.679  0.1479 -0.1635 -0.2688
 5788TIP3    H117370   2.037   1.496   4.715  1.0407 -0.8927  0.2869
 5788TIP3    H217371   2.168   1.564   4.750  1.0493 -0.2053 -1.0421
 5789TIP3   OH217372   1.304   2.124   2.554 -0.0864  0.5730 -0.2587
 5789TIP3    H117373   1.290   2.070   2.632  0.7914  0.0057 -0.4762
 5789TIP3    H217374   1.235   2.097   2.494 -0.2626  0.4113  0.0112
 5790TIP3   OH217375   3.961   0.530   1.471  0.0804 -0.0557 -0.7332
 5790TIP3    H117376   3.939   0.481   1.550  0.7902  0.4789 -0.1824
 5790TIP3    H217377   4.056   0.518   1.462  0.3320  1.4978 -0.3740
 5791TIP3   OH217378   6.348   2.517   1.186 -0.0052  0.4695 -0.1446
 5791TIP3    H117379   6.341   2.516   1.281 -0.1034 -0.2701 -0.1508
 5791TIP3    H217380   6.342   2.609   1.162 -0.4932  0.6179  0.5282
 5792TIP3   OH217381   5.338   0.972   1.912 -0.1261  0.1261  0.2307
 5792TIP3    H117382   5.263   0.957   1.969  0.9337  0.6527  1.8299
 5792TIP3    H217383   5.370   0.885   1.890  0.6310 -0.1227  2.1218
 5793TIP3   OH217384   5.008   2.168   4.257  0.0791  0.0576  0.7254
 5793TIP3    H117385   4.934   2.128   4.211  0.6011  0.9480 -0.9708
 5793TIP3    H217386   4.998   2.262   4.239  2.3742  0.0833 -0.7388
 5794TIP3   OH217387   0.835   1.227   2.345 -0.0031 -0.0289  0.3000
 5794TIP3    H117388   0.810   1.298   2.287  0.3082 -0.7699 -0.7818
 5794TIP3    H217389   0.756   1.206   2.394 -0.7406 -0.4512 -1.0296
 5795TIP3   OH217390   1.302   3.871   3.044  0.2344 -0.4091  0.3061
 5795TIP3    H117391   1.396   3.852   3.046  0.6584  1.5403  2.4436
 5795TIP3    H217392   1.293   3.938   2.977  0.4873 -0.1066  0.5715
 5796TIP3   OH217393   1.286   5.971   0.374  0.6402  0.5250 -0.2802
 5796TIP3    H117394   1.308   5.880   0.390 -0.8751 -0.4355 -2.9901
 5796TIP3    H217395   1.361   6.007   0.326  0.7613  0.3437 -0.2232
 5797TIP3   OH217396   3.589   0.642   4.561 -0.7455 -0.5315  0.0405
 5797TIP3    H117397   3.611   0.549   4.554 -1.7615 -0.7507 -0.3065
 5797TIP3    H217398   3.622   0.680   4.480  2.2419 -0.0109  1.3452
 5798TIP3   OH217399   3.195   2.013   2.601 -0.3158  0.5346  0.7201
 5798TIP3    H117400   3.193   1.969   2.517  0.7339 -0.6468  1.2733
 5798TIP3    H217401   3.134   2.086   2.592 -1.2167 -0.3378 -0.6187
 5799TIP3   OH217402   4.902   2.205   3.844 -0.4046  0.3477 -0.7110
 5799TIP3    H117403   4.901   2.137   3.777  1.4017 -0.7426  0.2703
 5799TIP3    H217404   4.903   2.287   3.796 -0.2355 -0.3831 -1.9878
 5800TIP3   OH217405   5.652   5.832   3.164 -0.1013  0.8818  0.4971
 5800TIP3    H117406   5.556   5.831   3.155 -0.1455 -1.5112  0.6713
 5800TIP3    H217407   5.668   5.787   3.247  1.1804  1.7185  0.7216
 5801TIP3   OH217408   2.019   2.512   2.673 -0.2300 -0.4143  0.0553
 5801TIP3    H117409   2.046   2.422   2.654 -0.8192 -0.9447  1.5082
 5801TIP3    H217410   1.941   2.501   2.728 -1.1804  1.0141 -0.9442
 5802TIP3   OH217411   3.703   0.579   2.582 -0.3267  0.0713 -0.0160
 5802TIP3    H117412   3.651   0.638   2.637 -1.7258 -0.2426 -0.9371
 5802TIP3    H217413   3.714   0.500   2.634 -1.8612 -0.3225 -0.2456
 5803TIP3   OH217414   2.881   2.368   3.455  0.2424  0.1523 -0.6588
 5803TIP3    H117415   2.824   2.406   3.388 -0.1364  1.0988  0.1846
 5803TIP3    H217416   2.968   2.401   3.434 -0.0091  1.1027 -0.2070
 5804TIP3   OH217417   2.946   2.300   3.949  0.1368  0.2649 -0.2141
 5804TIP3    H117418   2.902   2.384   3.938 -0.0772 -0.0122 -1.6571
 5804TIP3    H217419   2.986   2.304   4.036 -0.8556  1.3919  0.1999
 5805TIP3   OH217420   0.827   5.307   2.011 -0.6101 -0.6628  0.0672
 5805TIP3    H117421   0.839   5.400   1.993  0.4260 -1.0083 -1.1941
 5805TIP3    H217422   0.805   5.303   2.104  1.2795  0.7141  0.6289
 5806TIP3   OH217423   2.786   4.572   0.066 -0.6527 -0.0489 -0.6153
 5806TIP3    H117424   2.750   4.490   0.098 -2.1525  1.1984  1.1004
 5806TIP3    H217425   2.847   4.600   0.134  1.4579 -0.6877 -2.1449
 5807TIP3   OH217426   5.861   5.030   0.947  0.3505  0.1519 -0.2204
 5807TIP3    H117427   5.918   5.098   0.909  1.0287 -0.0943  0.3382
 5807TIP3    H217428   5.842   4.972   0.874 -0.4589  1.0771 -0.7723
 5808TIP3   OH217429   0.879   5.203   4.630 -0.1550 -0.3886  0.0691
 5808TIP3    H117430   0.973   5.206   4.617 -0.4287 -0.5780 -2.2692
 5808TIP3    H217431   0.857   5.110   4.625 -0.6723 -0.2087 -1.2091
 5809TIP3   OH217432   5.855   5.937   0.861 -0.7326 -0.1724  0.3114
 5809TIP3    H117433   5.783   5.967   0.806 -0.7825  1.1098  1.0499
 5809TIP3    H217434   5.891   6.016   0.900 -0.9970 -1.0648  2.5152
 5810TIP3   OH217435   2.163   2.348   2.085 -0.1991  0.4378 -0.1685
 5810TIP3    H117436   2.100   2.349   2.013 -0.5422  0.9454  0.1265
 5810TIP3    H217437   2.134   2.277   2.142  0.7743 -0.7585 -1.1240
 5811TIP3   OH217438   4.599   3.836   1.024 -0.5120  0.0374  0.2489
 5811TIP3    H117439   4.684   3.878   1.040  0.0033 -0.6992 -0.4687
 5811TIP3    H217440   4.543   3.908   0.993  0.6246  0.0979 -1.9131
 5812TIP3   OH217441   5.824   5.777   1.898 -1.3036  0.2287  0.5662
 5812TIP3    H117442   5.760   5.730   1.952  1.4943 -1.5345  2.6497
 5812TIP3    H217443   5.877   5.709   1.858 -0.2240  1.5934 -0.4500
 5813TIP3   OH217444   1.437   4.538   3.093  0.3987 -0.3587 -0.4206
 5813TIP3    H117445   1.494   4.606   3.059 -0.0773 -0.9345 -2.5151
 5813TIP3    H217446   1.424   4.561   3.185  0.1267  2.4609 -1.0866
 5814TIP3   OH217447   3.931   3.258   5.110 -0.0752  0.2151 -0.6096
 5814TIP3    H117448   3.855   3.224   5.158  0.1264 -0.3827 -0.6998
 5814TIP3    H217449   3.996   3.276   5.178  0.0674 -0.2504 -0.6214
 5815TIP3   OH217450   0.983   2.471   2.721  0.1418  0.2924  0.5333
 5815TIP3    H117451   0.893   2.451   2.695 -0.3448  0.9831  1.6206
 5815TIP3    H217452   1.029   2.483   2.639 -0.4815 -1.2141 -0.0717
 5816TIP3   OH217453   2.085   3.197   3.251  0.1553  0.5369 -0.7103
 5816TIP3    H117454   2.064   3.133   3.183  0.6588  0.7462 -1.0723
 5816TIP3    H217455   2.035   3.275   3.227  0.0807  0.5043 -0.6597
 5817TIP3   OH217456   1.371   3.688   4.243 -0.1303 -0.2110 -0.0603
 5817TIP3    H117457   1.447   3.686   4.184  0.0731  0.8726  0.1363
 5817TIP3    H217458   1.358   3.597   4.269  0.7796 -0.4853 -0.5209
 5818TIP3   OH217459   2.353   1.482   3.241  0.5313  0.0682 -0.1050
 5818TIP3    H117460   2.434   1.497   3.289 -0.1095  0.0648  1.0054
 5818TIP3    H217461   2.367   1.527   3.157  1.7629 -0.1408 -0.0340
 5819TIP3   OH217462   5.527   1.283   1.663 -0.2139  0.6730 -0.7536
 5819TIP3    H117463   5.488   1.333   1.592 -1.1088 -0.3411 -0.9995
 5819TIP3    H217464   5.510   1.336   1.741 -0.9191  0.8725 -1.0362
 5820TIP3   OH217465   3.669   2.433   2.229 -0.6211  0.2703  0.3323
 5820TIP3    H117466   3.735   2.465   2.168 -1.2127  1.2520  0.1810
 5820TIP3    H217467   3.715   2.426   2.313 -0.0697 -0.0638 -0.0016
 5821TIP3   OH217468   3.039   4.176   0.917 -0.6237  0.0128 -0.1517
 5821TIP3    H117469   3.107   4.197   0.854 -0.0287 -0.6043  0.2722
 5821TIP3    H217470   2.980   4.117   0.870 -1.4329  1.3236 -0.8367
 5822TIP3   OH217471   6.178   2.689   4.602 -0.0880 -0.6205 -0.2999
 5822TIP3    H117472   6.138   2.691   4.689 -0.1692 -1.1175 -0.3246
 5822TIP3    H217473   6.272   2.687   4.620 -0.0501  0.8220 -0.2447
 5823TIP3   OH217474   2.486   3.183   2.936 -0.2535  0.3408 -0.5419
 5823TIP3    H117475   2.572   3.177   2.977 -0.4997  0.0389 -0.0512
 5823TIP3    H217476   2.437   3.243   2.991 -0.5252  0.0946 -0.5144
 5824TIP3   OH217477   3.322   3.056   2.203  0.2032 -0.6709 -0.4280
 5824TIP3    H117478   3.285   2.987   2.258 -0.0688  0.0030  0.2502
 5824TIP3    H217479   3.398   3.088   2.251 -0.9145  0.9701  0.3404
 5825TIP3   OH217480   6.206   2.434   5.072  0.4680 -0.0106  0.1901
 5825TIP3    H117481   6.236   2.347   5.046 -0.9656 -0.4096 -0.1880
 5825TIP3    H217482   6.233   2.492   5.001  1.1478 -0.1886  0.2964
 5826TIP3   OH217483   0.761   4.203   2.286  0.0127 -0.1091  0.9082
 5826TIP3    H117484   0.786   4.295   2.289  2.4883 -0.7329  1.2278
 5826TIP3    H217485   0.767   4.180   2.193  1.8887 -0.5317  1.1015
 5827TIP3   OH217486   0.837   2.642   3.887  0.1011 -0.3468  0.3242
 5827TIP3    H117487   0.822   2.660   3.794  1.5965 -1.1697 -0.1246
 5827TIP3    H217488   0.881   2.720   3.920  0.1055 -0.2903  0.1851
 5828TIP3   OH217489   2.371   0.210   4.750 -0.4866  0.2979 -0.0785
 5828TIP3    H117490   2.283   0.196   4.716 -1.1146  1.5844  0.9315
 5828TIP3    H217491   2.407   0.281   4.696 -0.0967 -0.1420 -0.4107
 5829TIP3   OH217492   4.603   0.202   0.020 -0.1346  0.6183  0.0488
 5829TIP3    H117493   4.617   0.174   0.110  0.1290  0.9276  0.1074
 5829TIP3    H217494   4.519   0.248   0.022  1.0067  2.8363  0.6802
 5830TIP3   OH217495   2.506   4.865   3.732 -0.5252  0.2928  0.1458
 5830TIP3    H117496   2.500   4.928   3.803  0.3069  0.6576 -0.0992
 5830TIP3    H217497   2.571   4.802   3.760  0.8249  1.1907 -0.8362
 5831TIP3   OH217498   6.031   1.213   2.756 -0.3665 -0.1654  0.2363
 5831TIP3    H117499   6.063   1.230   2.844 -1.5441 -1.4615  0.9561
 5831TIP3    H217500   6.035   1.298   2.712  0.2112  0.5104  1.5382
 5832TIP3   OH217501   3.882   2.817   2.325 -0.1513  0.4074  0.2047
 5832TIP3    H117502   3.937   2.748   2.288  0.6062 -0.1692  2.2866
 5832TIP3    H217503   3.812   2.829   2.260 -1.2431 -3.4112  0.4363
 5833TIP3   OH217504   5.007   4.092   3.145  0.0245 -0.0115  1.0606
 5833TIP3    H117505   4.976   4.004   3.124 -1.3167  0.8974 -1.1574
 5833TIP3    H217506   4.937   4.150   3.114  0.9191  1.8687  2.3428
 5834TIP3   OH217507   4.629   5.680   4.392  0.1070 -0.2426  0.0865
 5834TIP3    H117508   4.664   5.760   4.353  0.2881 -0.9718 -1.3169
 5834TIP3    H217509   4.611   5.623   4.317  0.9089 -1.8901  1.0880
 5835TIP3   OH217510   4.993   2.324   1.599  0.2751 -0.0531 -0.4632
 5835TIP3    H117511   4.957   2.411   1.582 -0.4157  0.1456  1.6618
 5835TIP3    H217512   5.003   2.285   1.513 -0.6156  1.6483 -1.4046
 5836TIP3   OH217513   1.287   2.279   4.439  0.1263 -0.3328 -0.6855
 5836TIP3    H117514   1.210   2.319   4.481  0.9615  0.4305  0.1574
 5836TIP3    H217515   1.361   2.330   4.471  1.1034 -1.7438 -0.6165
 5837TIP3   OH217516   0.869   1.290   1.180 -0.7876  0.3825 -0.6428
 5837TIP3    H117517   0.807   1.287   1.253 -1.3807  1.1896 -1.0898
 5837TIP3    H217518   0.920   1.370   1.195  0.1113 -0.2338 -0.3237
 5838TIP3   OH217519   4.359   3.608   3.804 -0.2343 -1.0340 -0.5597
 5838TIP3    H117520   4.264   3.612   3.806 -0.3804 -2.9570 -1.3629
 5838TIP3    H217521   4.381   3.526   3.848  0.9836 -1.0899 -1.2264
 5839TIP3   OH217522   5.092   3.619   3.155  0.2500  0.0442  0.0520
 5839TIP3    H117523   5.116   3.551   3.218 -0.0479  0.8305  1.0323
 5839TIP3    H217524   5.157   3.688   3.167  1.7541 -0.8434 -2.3239
 5840TIP3   OH217525   6.306   4.106   1.623 -0.3743 -0.0136 -0.1601
 5840TIP3    H117526   6.242   4.038   1.600 -1.4520  0.8019  0.3025
 5840TIP3    H217527   6.391   4.069   1.598 -0.9444 -1.4449 -0.0887
 5841TIP3   OH217528   0.172   4.936   3.288 -0.5213  0.3439  0.3109
 5841TIP3    H117529   0.225   4.941   3.208 -0.8171 -0.0805  0.0808
 5841TIP3    H217530   0.230   4.967   3.358  0.1054 -0.3214  0.0971
 5842TIP3   OH217531   5.923   3.722   4.327 -0.5188  0.1373 -0.3040
 5842TIP3    H117532   5.910   3.752   4.237  0.9333  0.8335 -0.3216
 5842TIP3    H217533   5.989   3.653   4.319 -0.4844  0.1083  0.2092
 5843TIP3   OH217534   2.556   5.704   4.855  0.5644 -0.7049 -0.2541
 5843TIP3    H117535   2.469   5.683   4.821  0.0573 -0.0863  0.6237
 5843TIP3    H217536   2.599   5.619   4.865 -0.0531 -1.0389 -0.3974
 5844TIP3   OH217537   4.950   2.424   4.208  0.1582 -0.7775 -0.0451
 5844TIP3    H117538   5.015   2.478   4.251 -1.2035  0.1617  0.9207
 5844TIP3    H217539   4.903   2.484   4.150  0.3213 -1.4903 -0.9265
 5845TIP3   OH217540   2.154   3.828   3.226  0.1688  0.4711 -0.6295
 5845TIP3    H117541   2.113   3.900   3.177  1.9459  0.4426 -2.2805
 5845TIP3    H217542   2.081   3.785   3.270 -1.2591  1.8327 -1.5473
 5846TIP3   OH217543   3.795   1.678   4.529  0.0250 -0.2911 -0.2019
 5846TIP3    H117544   3.827   1.592   4.557 -0.9707 -0.2623  1.1515
 5846TIP3    H217545   3.701   1.665   4.517  0.1429  0.1748 -1.8518
 5847TIP3   OH217546   4.965   5.773   2.463  0.3047 -0.0438  0.0718
 5847TIP3    H117547   4.881   5.817   2.450 -0.0285 -1.0415 -1.3083
 5847TIP3    H217548   5.026   5.821   2.407 -0.1234 -1.4318 -1.6770
 5848TIP3   OH217549   3.128   1.603   1.015 -0.3114 -0.1819 -0.2735
 5848TIP3    H117550   3.151   1.617   1.107 -0.5361  3.3513 -0.6246
 5848TIP3    H217551   3.127   1.691   0.977 -0.3026 -1.5130 -3.6705
 5849TIP3   OH217552   1.919   0.377   2.451  0.1713  0.0185 -0.1108
 5849TIP3    H117553   1.999   0.421   2.481  0.5596 -0.0025 -1.0504
 5849TIP3    H217554   1.901   0.312   2.518 -0.4298  1.5889  1.3376
 5850TIP3   OH217555   3.999   0.906   0.867  0.3671  0.3607 -0.0455
 5850TIP3    H117556   3.917   0.928   0.910  1.1560  0.1046  1.6771
 5850TIP3    H217557   4.050   0.987   0.870 -0.0652  0.7309 -1.7749
 5851TIP3   OH217558   4.144   4.277   0.416  0.1389  0.2178  0.0633
 5851TIP3    H117559   4.076   4.341   0.394 -2.5747 -1.1712  3.4608
 5851TIP3    H217560   4.180   4.308   0.499 -0.0504 -1.6728  0.9112
 5852TIP3   OH217561   2.743   0.133   3.248 -0.1966 -0.3521 -0.3324
 5852TIP3    H117562   2.667   0.077   3.256  0.4925 -1.2378  0.2177
 5852TIP3    H217563   2.809   0.093   3.305 -0.0336  1.6348  0.9622
 5853TIP3   OH217564   5.422   0.290   3.164 -0.3005  0.2501  0.6622
 5853TIP3    H117565   5.445   0.383   3.177  2.4018 -0.5114  2.0679
 5853TIP3    H217566   5.456   0.246   3.242  0.9474 -2.3095 -1.1924
 5854TIP3   OH217567   4.051   0.379   3.093  0.0585  0.0071 -0.2096
 5854TIP3    H117568   4.060   0.439   3.019  1.7725  0.4601  0.3069
 5854TIP3    H217569   4.141   0.364   3.123 -0.4923 -1.1803  0.9852
 5855TIP3   OH217570   0.878   0.290   0.763 -0.1837 -0.6737 -0.2505
 5855TIP3    H117571   0.915   0.351   0.827 -0.7454 -2.2710  1.6939
 5855TIP3    H217572   0.787   0.316   0.755 -1.1058 -2.6337  2.5023
 5856TIP3   OH217573   2.114   2.977   1.591  0.4370  0.3676 -0.0605
 5856TIP3    H117574   2.159   3.033   1.527  0.5316  1.5535  1.0058
 5856TIP3    H217575   2.183   2.953   1.654  0.2844 -0.5653 -0.2288
 5857TIP3   OH217576   0.192   0.009   3.911  0.0269  0.7662 -0.3252
 5857TIP3    H117577   0.218   0.042   3.997 -1.6622 -1.6615  1.2288
 5857TIP3    H217578   0.111   0.056   3.891 -0.5518  0.0402  0.2817
 5858TIP3   OH217579   4.690   5.242   2.607 -0.2356 -0.2489  0.1988
 5858TIP3    H117580   4.691   5.288   2.691 -2.1280 -0.8054  0.5902
 5858TIP3    H217581   4.652   5.305   2.546  0.5278 -0.0715 -0.1006
 5859TIP3   OH217582   0.492   1.323   4.224  0.1840 -0.2413  0.6466
 5859TIP3    H117583   0.485   1.293   4.315  1.0731 -0.8684  0.5249
 5859TIP3    H217584   0.533   1.409   4.230  0.3656 -0.3395  0.8347
 5860TIP3   OH217585   3.656   4.039   3.025 -0.2982  0.2634  0.3557
 5860TIP3    H117586   3.653   3.976   2.953  0.5813 -0.6173  1.0569
 5860TIP3    H217587   3.567   4.039   3.060 -0.1771 -1.1168  0.7474
 5861TIP3   OH217588   3.041   1.584   2.929  0.3391 -0.0095 -0.3697
 5861TIP3    H117589   3.093   1.661   2.905 -0.0098  0.8234  1.3767
 5861TIP3    H217590   2.951   1.609   2.912  0.0879  0.5867  1.5962
 5862TIP3   OH217591   4.680   4.914   0.323 -0.4158 -0.1839  0.0488
 5862TIP3    H117592   4.765   4.871   0.318 -0.6262 -0.6369  0.2861
 5862TIP3    H217593   4.699   5.000   0.360  0.1414  0.3188 -1.3434
 5863TIP3   OH217594   6.025   5.216   0.780  0.5235 -0.3542  0.0427
 5863TIP3    H117595   6.065   5.292   0.822  0.7651 -0.0479 -0.7136
 5863TIP3    H217596   6.090   5.188   0.715 -0.0747 -0.4437 -0.5310
 5864TIP3   OH217597   2.078   4.548   3.870 -0.6777 -0.5865 -0.0248
 5864TIP3    H117598   2.114   4.559   3.958 -1.3311 -0.8065  0.2784
 5864TIP3    H217599   1.984   4.566   3.880 -0.7885 -0.8065 -0.6349
 5865TIP3   OH217600   1.798   3.422   4.641  0.4465  0.0673  0.5640
 5865TIP3    H117601   1.784   3.335   4.604 -2.3701  0.6266  0.0883
 5865TIP3    H217602   1.844   3.406   4.723 -0.1714 -1.9092  0.5748
 5866TIP3   OH217603   5.776   3.833   1.369 -0.3002  0.3101  0.1710
 5866TIP3    H117604   5.700   3.854   1.316 -1.1960 -1.2664  0.7881
 5866TIP3    H217605   5.742   3.821   1.458  0.3715 -1.9403  0.1870
 5867TIP3   OH217606   4.581   3.853   0.569  0.3802  0.3573  0.2112
 5867TIP3    H117607   4.508   3.889   0.620  0.6748  1.0538  0.1614
 5867TIP3    H217608   4.590   3.913   0.495 -0.0174 -0.6267 -0.6505
 5868TIP3   OH217609   0.739   1.215   3.651  0.2603 -0.1060  0.0369
 5868TIP3    H117610   0.649   1.182   3.661 -0.4204  1.8019  0.5798
 5868TIP3    H217611   0.756   1.211   3.557 -1.5108  2.1523 -0.4571
 5869TIP3   OH217612   3.524   2.743   3.061  0.2542 -0.2293  0.3961
 5869TIP3    H117613   3.567   2.714   2.981 -0.1269 -1.9461  0.7674
 5869TIP3    H217614   3.572   2.699   3.131 -1.6339 -1.6957  0.8554
 5870TIP3   OH217615   3.153   1.903   0.948  0.3422  0.2299  0.6060
 5870TIP3    H117616   3.136   1.990   0.985  0.5567 -0.1034  1.5285
 5870TIP3    H217617   3.165   1.918   0.855 -1.5346  0.9331  0.4520
 5871TIP3   OH217618   4.352   4.353   2.325  0.2297 -0.5414  0.0633
 5871TIP3    H117619   4.292   4.314   2.389 -0.2393  0.0494 -0.0098
 5871TIP3    H217620   4.392   4.277   2.282 -1.2008 -0.9835 -0.5698
 5872TIP3   OH217621   3.161   4.653   3.939 -0.5617 -0.1412  0.0827
 5872TIP3    H117622   3.184   4.577   3.993 -2.1253 -0.5770  0.1847
 5872TIP3    H217623   3.245   4.695   3.920  0.1934 -1.0356  1.2826
 5873TIP3   OH217624   0.315   2.598   1.363  0.2552 -0.9006  0.1736
 5873TIP3    H117625   0.229   2.561   1.385 -0.7614  0.4683 -1.2651
 5873TIP3    H217626   0.358   2.610   1.448 -0.5805 -2.4467  0.8682
 5874TIP3   OH217627   3.452   1.902   1.672  0.1203  0.1013 -0.0237
 5874TIP3    H117628   3.499   1.820   1.688  0.0576 -0.0450 -0.5845
 5874TIP3    H217629   3.388   1.880   1.605 -0.9369  0.2365  0.9225
 5875TIP3   OH217630   3.998   4.015   2.425  0.0135  0.0194 -0.2703
 5875TIP3    H117631   3.970   4.006   2.334  0.3904  0.7005 -0.4656
 5875TIP3    H217632   4.076   3.960   2.432 -0.3417 -0.4778 -0.2047
 5876TIP3   OH217633   4.995   0.408   3.270 -0.1381 -0.2457  0.4079
 5876TIP3    H117634   4.952   0.479   3.317  0.3033  0.5000 -0.2980
 5876TIP3    H217635   4.946   0.329   3.295  0.7442 -0.0566  2.9622
 5877TIP3   OH217636   0.842   3.997   4.337  0.3637  0.3791 -0.2312
 5877TIP3    H117637   0.752   4.012   4.368 -0.4012 -1.0833 -1.6217
 5877TIP3    H217638   0.847   4.047   4.256  0.0261 -1.2662 -1.3189
 5878TIP3   OH217639   1.737   2.183   3.897  0.4874  0.0247 -0.0029
 5878TIP3    H117640   1.790   2.125   3.842  0.8275  0.2700  0.0628
 5878TIP3    H217641   1.717   2.130   3.975  2.3962  0.6015  0.9288
 5879TIP3   OH217642   4.681   4.405   2.467  0.3300  0.3248  0.1994
 5879TIP3    H117643   4.648   4.495   2.468  0.2416  0.2921  0.2187
 5879TIP3    H217644   4.767   4.411   2.426  0.0669  0.3251 -0.3497
 5880TIP3   OH217645   0.640   4.645   0.414 -0.5362  0.4828  0.4984
 5880TIP3    H117646   0.645   4.549   0.411 -0.4664  0.4059  2.0057
 5880TIP3    H217647   0.548   4.665   0.401 -0.5123  0.2298 -0.0847
 5881TIP3   OH217648   1.145   5.295   4.349  0.5974 -0.2070 -0.0356
 5881TIP3    H117649   1.174   5.306   4.439 -0.4010  0.0021  0.2721
 5881TIP3    H217650   1.110   5.381   4.324  2.2672  0.2154 -1.1766
 5882TIP3   OH217651   2.512   1.680   1.753 -0.5816  0.2028 -0.0237
 5882TIP3    H117652   2.604   1.670   1.779 -0.0348  1.0221 -1.4615
 5882TIP3    H217653   2.462   1.640   1.823  0.9082 -0.8839  0.4739
 5883TIP3   OH217654   3.430   2.113   2.100 -0.0492  0.3751  0.5103
 5883TIP3    H117655   3.395   2.202   2.102  1.1567  0.8497  1.6103
 5883TIP3    H217656   3.387   2.069   2.174  0.7087  0.5906  1.0881
 5884TIP3   OH217657   0.487   3.709   0.720 -0.4059 -0.0111 -0.6757
 5884TIP3    H117658   0.430   3.729   0.794 -0.7409  0.1679 -0.9846
 5884TIP3    H217659   0.571   3.687   0.761 -0.2700  1.1726 -0.2855
 5885TIP3   OH217660   2.029   1.464   1.582  0.0662  0.0113 -0.4671
 5885TIP3    H117661   2.077   1.387   1.553  0.0540  0.0673 -0.6331
 5885TIP3    H217662   2.034   1.525   1.509  0.9732  0.5818  0.0484
 5886TIP3   OH217663   5.072   1.254   2.104 -0.1957  0.6561  0.2252
 5886TIP3    H117664   5.021   1.192   2.052  1.0563  0.8983 -1.3740
 5886TIP3    H217665   5.159   1.215   2.111  0.4289  1.9035 -0.2317
 5887TIP3   OH217666   3.199   4.755   3.032 -0.6197  0.7454 -0.0351
 5887TIP3    H117667   3.220   4.842   3.067  0.7368  0.1412  0.7529
 5887TIP3    H217668   3.261   4.742   2.960  2.5983 -1.3778  2.8062
 5888TIP3   OH217669   5.432   5.693   0.386  0.7809  0.2976  0.2020
 5888TIP3    H117670   5.344   5.689   0.425 -0.0275  0.9566 -1.4605
 5888TIP3    H217671   5.463   5.602   0.388 -0.2160 -0.0569  0.2026
 5889TIP3   OH217672   4.679   4.680   5.127  0.1946 -0.4160 -0.7044
 5889TIP3    H117673   4.626   4.638   5.194  1.2219 -0.3798  0.1565
 5889TIP3    H217674   4.624   4.750   5.093 -0.8513 -1.2994 -0.8841
 5890TIP3   OH217675   4.933   2.464   4.896 -0.4767  0.1184  0.2857
 5890TIP3    H117676   4.966   2.443   4.983  0.0753 -0.5120 -0.0648
 5890TIP3    H217677   4.894   2.382   4.866  0.0539  0.1012 -0.3758
 5891TIP3   OH217678   4.204   4.224   4.530 -0.1626  0.6025  0.0213
 5891TIP3    H117679   4.178   4.273   4.451 -1.7124  1.7269  1.1615
 5891TIP3    H217680   4.164   4.273   4.602 -0.8145 -1.7060  1.3327
 5892TIP3   OH217681   1.610   4.339   0.408  0.0299  0.0225 -0.1025
 5892TIP3    H117682   1.564   4.388   0.476  0.5076 -0.4839  0.5976
 5892TIP3    H217683   1.543   4.280   0.372 -0.2925  0.4822 -0.2709
 5893TIP3   OH217684   3.555   4.498   1.122 -0.3186 -0.1426  0.8547
 5893TIP3    H117685   3.626   4.451   1.167 -1.9558 -2.1653  1.4893
 5893TIP3    H217686   3.591   4.517   1.035  0.1626 -3.6338  0.1347
 5894TIP3   OH217687   2.135   4.839   1.911 -0.0549 -0.1247  0.4078
 5894TIP3    H117688   2.107   4.831   1.820 -0.2419 -0.2524  0.4747
 5894TIP3    H217689   2.207   4.902   1.909  0.3399 -0.5800  0.0916
 5895TIP3   OH217690   5.388   4.001   5.022 -0.3309  0.8779  0.3173
 5895TIP3    H117691   5.419   3.996   5.112 -1.4995 -0.4656  0.6794
 5895TIP3    H217692   5.299   4.037   5.030  0.4774  3.3282 -0.5717
 5896TIP3   OH217693   6.265   4.673   4.104  0.1033 -0.1102 -0.5041
 5896TIP3    H117694   6.291   4.609   4.170 -0.5865 -0.8373 -0.9164
 5896TIP3    H217695   6.177   4.646   4.078 -0.0247  0.7535 -0.9980
 5897TIP3   OH217696   2.416   4.658   0.500  0.3532 -0.5527 -0.5966
 5897TIP3    H117697   2.351   4.657   0.571 -0.2214 -0.7195 -1.1117
 5897TIP3    H217698   2.430   4.566   0.480 -0.0034 -0.4945 -1.1496
 5898TIP3   OH217699   2.411   3.584   4.477  0.0398  0.3754 -0.4001
 5898TIP3    H117700   2.338   3.634   4.437 -0.7736  0.4854  1.1592
 5898TIP3    H217701   2.425   3.627   4.561  1.9848  0.3794 -0.6956
 5899TIP3   OH217702   2.587   2.907   3.653 -0.3313 -0.2388 -0.1859
 5899TIP3    H117703   2.565   2.976   3.591 -1.1804 -0.2635  0.0820
 5899TIP3    H217704   2.506   2.889   3.700  0.0285 -0.9909  0.1752
 5900TIP3   OH217705   3.667   1.377   1.139  0.3295 -0.2750  0.3657
 5900TIP3    H117706   3.637   1.446   1.198  0.3879 -0.7985  1.0080
 5900TIP3    H217707   3.625   1.398   1.055 -1.6315 -0.8186  1.1480
 5901TIP3   OH217708   3.843   1.230   3.287 -0.1870  0.1564 -0.1250
 5901TIP3    H117709   3.838   1.197   3.376 -1.4575  1.2057  0.2138
 5901TIP3    H217710   3.872   1.321   3.296  0.9426 -0.0996 -0.8854
 5902TIP3   OH217711   6.174   4.509   3.782 -0.0346  0.2727  0.1753
 5902TIP3    H117712   6.121   4.585   3.807 -1.8546 -1.4205  1.8111
 5902TIP3    H217713   6.118   4.460   3.722  1.0000  0.0075 -0.6128
 5903TIP3   OH217714   5.200   1.726   0.464 -0.1431 -0.2695 -0.7708
 5903TIP3    H117715   5.236   1.660   0.523  0.0745  0.0763 -0.5112
 5903TIP3    H217716   5.106   1.710   0.463 -0.0780 -0.6497 -0.7939
 5904TIP3   OH217717   5.794   5.127   4.098 -0.3979  0.0514 -0.8339
 5904TIP3    H117718   5.743   5.167   4.169 -1.5767  0.1565 -1.6947
 5904TIP3    H217719   5.775   5.182   4.022  0.1722 -0.5473 -1.4184
 5905TIP3   OH217720   0.846   2.563   4.197  0.0791 -0.8384  0.7697
 5905TIP3    H117721   0.855   2.603   4.111  0.2341 -0.3527  1.0072
 5905TIP3    H217722   0.761   2.593   4.229  0.3321 -0.4290  1.0786
 5906TIP3   OH217723   2.904   3.472   4.914 -0.0801 -0.2595 -0.0165
 5906TIP3    H117724   2.899   3.567   4.927  0.7029 -0.1841 -0.2298
 5906TIP3    H217725   2.985   3.446   4.958 -0.9889 -1.0527  1.2900
 5907TIP3   OH217726   0.598   5.613   4.662 -0.2020  0.0264  0.3859
 5907TIP3    H117727   0.608   5.519   4.670 -0.2795 -0.0709 -0.5752
 5907TIP3    H217728   0.505   5.626   4.643 -0.3002  0.3384  1.0461
 5908TIP3   OH217729   4.465   2.177   3.120  0.0441 -0.0914  0.0377
 5908TIP3    H117730   4.422   2.213   3.043  3.1199  1.0028 -1.3531
 5908TIP3    H217731   4.489   2.088   3.095 -0.3156 -0.2633  0.3107
 5909TIP3   OH217732   3.868   4.070   1.563  0.1486  0.1164  0.5149
 5909TIP3    H117733   3.948   4.023   1.584 -0.4323  0.0471  3.0063
 5909TIP3    H217734   3.813   4.005   1.519  0.8683 -0.3216  0.2475
 5910TIP3   OH217735   4.740   5.105   3.992  0.3299 -0.2297  0.0402
 5910TIP3    H117736   4.724   5.010   3.988 -1.1144  0.0030 -0.1967
 5910TIP3    H217737   4.807   5.115   4.059 -0.2249 -1.3447  0.7877
 5911TIP3   OH217738   6.275   0.746   0.591 -0.4002 -0.1364  0.0913
 5911TIP3    H117739   6.282   0.776   0.682 -0.8641  0.0115  0.0788
 5911TIP3    H217740   6.240   0.822   0.544  2.0707  0.6485 -0.6711
 5912TIP3   OH217741   0.490   5.102   4.347 -0.4780  0.4758  0.3096
 5912TIP3    H117742   0.412   5.047   4.342  0.3253 -0.9393  1.8906
 5912TIP3    H217743   0.466   5.173   4.407 -0.4573 -0.1744  1.1055
 5913TIP3   OH217744   5.178   2.670   1.452 -0.1617 -0.5587  0.0651
 5913TIP3    H117745   5.220   2.588   1.478  1.0526 -0.0863 -0.3519
 5913TIP3    H217746   5.247   2.720   1.409 -1.5819 -0.4665 -2.2414
 5914TIP3   OH217747   4.309   5.666   1.058  0.2636 -0.0156  0.0636
 5914TIP3    H117748   4.338   5.575   1.053  0.6749  0.1591 -1.0241
 5914TIP3    H217749   4.216   5.661   1.081  0.3531 -0.6945  0.2744
 5915TIP3   OH217750   5.505   0.795   2.270 -0.7367 -0.0442  0.1745
 5915TIP3    H117751   5.544   0.804   2.357 -2.1345 -0.1896  0.8501
 5915TIP3    H217752   5.578   0.803   2.210 -0.1173  3.4198  1.1753
 5916TIP3   OH217753   3.582   2.010   0.156 -0.2234 -0.2298  0.0730
 5916TIP3    H117754   3.658   2.053   0.118  0.0582  0.2616  1.1673
 5916TIP3    H217755   3.534   2.080   0.200  0.0812 -0.9653  1.6242
 5917TIP3   OH217756   6.353   5.164   1.108  0.1293  0.0944 -0.6944
 5917TIP3    H117757   6.345   5.085   1.054 -0.7384 -0.8840  0.7622
 5917TIP3    H217758   6.309   5.141   1.190 -0.6180  2.3020 -0.4102
 5918TIP3   OH217759   2.201   4.697   0.220 -0.4501  0.4359 -0.6926
 5918TIP3    H117760   2.170   4.637   0.151  0.2811  1.2086 -1.7255
 5918TIP3    H217761   2.135   4.690   0.289 -1.1096 -0.5088 -1.3828
 5919TIP3   OH217762   1.454   5.261   2.275  0.0048 -0.7058  0.0799
 5919TIP3    H117763   1.379   5.253   2.333 -0.4210 -1.4064 -0.5414
 5919TIP3    H217764   1.516   5.194   2.305  0.1472 -0.5008  0.2472
 5920TIP3   OH217765   4.823   0.891   2.613  1.1533 -0.1365  0.5322
 5920TIP3    H117766   4.813   0.806   2.655 -2.3106 -0.0711  0.1755
 5920TIP3    H217767   4.848   0.872   2.523  0.9022 -0.7483  0.5912
 5921TIP3   OH217768   1.846   4.685   3.976 -0.0091  0.4299 -0.0214
 5921TIP3    H117769   1.760   4.717   4.003  1.0320  1.7455  1.9742
 5921TIP3    H217770   1.843   4.688   3.880 -1.9995  0.8824  0.0017
 5922TIP3   OH217771   0.475   5.980   3.976  0.0192 -0.2260 -0.4130
 5922TIP3    H117772   0.525   6.014   3.903 -0.9860  0.2626 -0.9021
 5922TIP3    H217773   0.517   5.897   3.999  1.5538  0.5617 -0.2356
 5923TIP3   OH217774   2.960   0.064   2.004 -0.4781 -0.6353  0.1495
 5923TIP3    H117775   2.960   0.006   1.928 -1.5869 -0.1336 -0.2525
 5923TIP3    H217776   3.044   0.109   2.000 -0.1052 -1.3423 -0.2024
 5924TIP3   OH217777   2.471   2.470   3.308  0.4262  0.2136  0.1668
 5924TIP3    H117778   2.431   2.482   3.222 -3.4050 -0.5671  1.6669
 5924TIP3    H217779   2.489   2.559   3.339 -2.0322  0.7757  0.1494
 5925TIP3   OH217780   2.348   0.205   0.932 -0.4389 -0.1199 -0.7403
 5925TIP3    H117781   2.321   0.290   0.898  1.4927  0.0737 -1.8766
 5925TIP3    H217782   2.378   0.224   1.021 -0.0011  0.3947 -0.9924
 5926TIP3   OH217783   3.448   5.440   4.548 -0.0312  0.1936 -0.3679
 5926TIP3    H117784   3.449   5.364   4.489  0.6755 -0.6955  0.7416
 5926TIP3    H217785   3.361   5.478   4.537 -0.5005 -0.9437 -0.7616
 5927TIP3   OH217786   5.984   3.301   5.213  0.3816  0.0655 -0.3487
 5927TIP3    H117787   6.009   3.361   5.143  0.7642  2.8384  1.9769
 5927TIP3    H217788   5.895   3.274   5.191  0.8465  0.0013 -2.3641
 5928TIP3   OH217789   3.538   5.577   2.281  0.0928 -0.3311 -0.3157
 5928TIP3    H117790   3.577   5.589   2.367 -0.1285  0.6021 -0.3393
 5928TIP3    H217791   3.530   5.665   2.245 -0.0020 -0.6949 -1.2103
 5929TIP3   OH217792   4.245   3.965   4.686 -0.8190 -0.0270 -1.1052
 5929TIP3    H117793   4.238   4.051   4.645 -0.5731  1.4343  1.6515
 5929TIP3    H217794   4.190   3.972   4.765  0.7028 -1.7329  0.1920
 5930TIP3   OH217795   0.455   3.573   3.153 -0.1392 -0.6858  0.1852
 5930TIP3    H117796   0.418   3.531   3.076  1.0338 -0.7965 -0.3489
 5930TIP3    H217797   0.496   3.502   3.202 -0.3464 -0.5272  0.5906
 5931TIP3   OH217798   3.758   4.687   4.754  0.1730 -0.1137 -0.1117
 5931TIP3    H117799   3.751   4.762   4.696 -2.0101  0.9188  1.3644
 5931TIP3    H217800   3.693   4.703   4.823  0.2419 -2.9259  0.7464
 5932TIP3   OH217801   0.987   0.049   4.860  0.6380  0.2321 -0.2037
 5932TIP3    H117802   1.048   0.017   4.794 -0.4379 -1.2211 -0.5335
 5932TIP3    H217803   1.043   0.095   4.923  1.9162 -0.0312 -1.0868
 5933TIP3   OH217804   4.769   5.572   0.032 -0.0621  0.3850  0.1127
 5933TIP3    H117805   4.749   5.582   0.125  1.0579 -0.1884  0.4305
 5933TIP3    H217806   4.692   5.529  -0.005  0.2457 -1.1023  1.1435
 5934TIP3   OH217807   4.946   5.319   1.297 -0.1585  0.2007  0.1970
 5934TIP3    H117808   4.917   5.402   1.335 -1.1034 -0.1046  0.1819
 5934TIP3    H217809   5.035   5.307   1.330 -0.2131  0.9531  0.6396
 5935TIP3   OH217810   4.367   4.619   2.293 -0.0379 -0.1068  0.1529
 5935TIP3    H117811   4.354   4.525   2.298 -0.3304 -0.0067  1.6444
 5935TIP3    H217812   4.280   4.656   2.300  0.0870  0.2865 -0.3173
 5936TIP3   OH217813   5.441   0.686   0.750  0.8005 -0.8408 -0.4616
 5936TIP3    H117814   5.401   0.731   0.676  2.3990 -0.0654 -0.8889
 5936TIP3    H217815   5.415   0.594   0.739 -2.7459 -0.1396  0.5777
 5937TIP3   OH217816   0.394   1.016   4.270  0.0744 -0.2126 -0.0658
 5937TIP3    H117817   0.339   1.064   4.208 -0.7369 -0.3450  0.5204
 5937TIP3    H217818   0.394   1.071   4.349  0.7361 -0.2494 -0.0357
 5938TIP3   OH217819   1.493   4.478   4.752  0.0361  0.3669 -0.1439
 5938TIP3    H117820   1.443   4.546   4.796  0.1773 -0.7028  1.8007
 5938TIP3    H217821   1.583   4.491   4.783 -0.2399 -1.7789  1.8192
 5939TIP3   OH217822   2.388   4.612   1.254  0.5668  0.8045 -0.6971
 5939TIP3    H117823   2.317   4.663   1.295  0.1118  0.7064 -1.3570
 5939TIP3    H217824   2.438   4.677   1.204  0.4834  0.7425 -0.8605
 5940TIP3   OH217825   6.001   3.805   2.492  0.5911 -0.8121  0.0267
 5940TIP3    H117826   5.924   3.756   2.462  0.0324  0.1007 -0.0612
 5940TIP3    H217827   5.977   3.838   2.578  1.2021 -1.2003  0.3560
 5941TIP3   OH217828   4.682   2.845   3.985 -0.2832  0.6967 -0.0739
 5941TIP3    H117829   4.644   2.920   4.031  1.2669  1.5900 -0.2021
 5941TIP3    H217830   4.752   2.882   3.932  0.8462 -0.9127  0.2313
 5942TIP3   OH217831   3.488   3.639   1.992 -0.1023 -0.0885 -0.1238
 5942TIP3    H117832   3.508   3.548   2.014  0.8981  0.5874  2.0835
 5942TIP3    H217833   3.433   3.634   1.914 -2.0365 -2.7355  1.2461
 5943TIP3   OH217834   2.977   0.150   2.274 -0.0770 -0.2165 -0.2446
 5943TIP3    H117835   3.035   0.217   2.238 -0.3410  0.2489  0.1892
 5943TIP3    H217836   2.955   0.095   2.198 -0.8444  0.9033 -0.8627
 5944TIP3   OH217837   0.190   3.803   1.110 -0.4613  0.6980 -0.1202
 5944TIP3    H117838   0.107   3.830   1.148 -0.2122  1.0238  0.2015
 5944TIP3    H217839   0.208   3.717   1.149 -1.1246  0.1714 -0.9440
 5945TIP3   OH217840   5.844   2.262   4.781  0.2910 -0.3942 -0.2505
 5945TIP3    H117841   5.937   2.242   4.792  0.3853 -0.8732 -1.7702
 5945TIP3    H217842   5.839   2.358   4.787  0.8805 -0.3651 -0.2337
 5946TIP3   OH217843   0.963   5.667   1.347 -0.4720  0.2230  0.1440
 5946TIP3    H117844   0.941   5.578   1.376 -1.1766  0.4700  0.4121
 5946TIP3    H217845   1.050   5.684   1.382 -0.9706  0.2056  1.4583
 5947TIP3   OH217846   5.361   3.469   3.036 -0.1526 -0.5424  0.2477
 5947TIP3    H117847   5.363   3.543   3.096 -2.4879  0.7671 -1.1754
 5947TIP3    H217848   5.415   3.497   2.962  0.6301 -1.1419  0.5677
 5948TIP3   OH217849   6.000   5.167   0.039 -0.0135 -0.1297 -0.4106
 5948TIP3    H117850   5.939   5.240   0.045  0.8657  0.6881 -1.0294
 5948TIP3    H217851   6.081   5.206   0.007  0.5223 -1.3577 -0.6315
 5949TIP3   OH217852   5.686   3.650   1.845  0.2047 -0.0893 -0.1269
 5949TIP3    H117853   5.689   3.555   1.857  0.9743  0.0784  1.1577
 5949TIP3    H217854   5.624   3.680   1.911  0.8299  0.4129  0.2302
 5950TIP3   OH217855   2.047   4.394   1.777  0.1278  0.1390  0.4553
 5950TIP3    H117856   2.077   4.460   1.714 -0.2376 -0.4337 -0.3520
 5950TIP3    H217857   2.020   4.443   1.854  2.6844  0.7215  1.0770
 5951TIP3   OH217858   0.290   2.032   3.275  0.2535 -0.5046  0.4865
 5951TIP3    H117859   0.374   2.057   3.312  0.0035  0.3644  0.4998
 5951TIP3    H217860   0.231   2.027   3.351 -0.0363  0.3279  0.3230
 5952TIP3   OH217861   2.027   4.982   2.760  0.8089  0.1483  0.4870
 5952TIP3    H117862   2.115   4.989   2.723  0.2909 -0.9341 -1.0359
 5952TIP3    H217863   2.034   4.913   2.826  1.2946  0.7004  1.0228
 5953TIP3   OH217864   1.607   5.932   1.479  0.2924  0.1971  0.0521
 5953TIP3    H117865   1.610   6.001   1.546 -1.3490 -1.3832  1.9033
 5953TIP3    H217866   1.670   5.867   1.510 -0.0763 -0.2979 -0.2239
 5954TIP3   OH217867   0.375   0.885   4.907 -0.3193  0.3782  0.2224
 5954TIP3    H117868   0.324   0.900   4.827 -2.5487  1.1289  1.6892
 5954TIP3    H217869   0.466   0.881   4.877 -1.2180 -2.6316 -2.7708
 5955TIP3   OH217870   5.382   0.090   0.672  0.1794  0.0300 -0.1736
 5955TIP3    H117871   5.432   0.140   0.607  0.7207 -1.3788 -0.8912
 5955TIP3    H217872   5.391   0.140   0.753  1.4028  0.6536 -0.6691
 5956TIP3   OH217873   4.169   3.501   3.475 -0.1300  0.1520 -0.8151
 5956TIP3    H117874   4.109   3.440   3.520 -0.1056  0.8830  0.2652
 5956TIP3    H217875   4.143   3.497   3.383 -1.5964  0.1359 -0.4388
 5957TIP3   OH217876   1.453   0.158   4.722 -0.0395 -0.4077 -0.1851
 5957TIP3    H117877   1.362   0.184   4.716  0.0320  0.2328  1.2550
 5957TIP3    H217878   1.459   0.107   4.803  1.1047  0.5763  0.3861
 5958TIP3   OH217879   3.794   2.916   3.402 -0.2451 -0.0265  0.4390
 5958TIP3    H117880   3.889   2.923   3.413 -0.1767  1.2101 -0.6659
 5958TIP3    H217881   3.763   2.873   3.482  0.8794  2.6008  2.4276
 5959TIP3   OH217882   3.287   5.388   5.139 -0.0180  0.1433  0.7969
 5959TIP3    H117883   3.261   5.442   5.214 -0.1734 -0.4364  1.1597
 5959TIP3    H217884   3.213   5.330   5.123  0.7196 -0.9934  1.3568
 5960TIP3   OH217885   1.683   4.198   0.972  0.3466  0.4528  0.1610
 5960TIP3    H117886   1.758   4.141   0.988 -0.4904 -0.2316  1.9161
 5960TIP3    H217887   1.615   4.165   1.030 -1.0291  1.6300 -0.7114
 5961TIP3   OH217888   5.779   2.123   2.524  0.2613  0.4637 -0.3484
 5961TIP3    H117889   5.740   2.038   2.501  1.1842 -0.5013  1.4107
 5961TIP3    H217890   5.847   2.137   2.458  0.6874 -0.6174 -0.1644
 5962TIP3   OH217891   0.154   0.501   3.994  0.1559  0.2883  0.5697
 5962TIP3    H117892   0.183   0.446   3.920  1.1625  2.4598 -0.7617
 5962TIP3    H217893   0.216   0.480   4.064  2.4356  1.6874 -0.8582
 5963TIP3   OH217894   0.569   4.408   3.433  0.4055  0.4582  0.3852
 5963TIP3    H117895   0.484   4.409   3.388  0.9211  3.0296 -0.6685
 5963TIP3    H217896   0.547   4.421   3.525 -0.4406 -1.4677  0.5124
 5964TIP3   OH217897   1.898   0.914   0.476  0.0889 -0.2111 -0.3988
 5964TIP3    H117898   1.807   0.900   0.501 -0.2294  0.6602 -1.0233
 5964TIP3    H217899   1.894   0.942   0.384  0.8841  1.1727 -0.0310
 5965TIP3   OH217900   5.706   4.379   2.071  0.4129  0.1046 -0.1167
 5965TIP3    H117901   5.679   4.394   1.980 -0.3411 -2.3201 -0.3655
 5965TIP3    H217902   5.796   4.413   2.075  0.3603  0.5262 -1.6803
 5966TIP3   OH217903   3.719   1.358   4.719 -0.6368  0.3168  0.1912
 5966TIP3    H117904   3.755   1.293   4.780 -0.4328 -0.4505 -0.7234
 5966TIP3    H217905   3.794   1.385   4.666  0.0281  3.6299  2.4648
 5967TIP3   OH217906   1.693   4.065   3.986 -0.2149  0.1112 -0.4230
 5967TIP3    H117907   1.670   4.022   3.903  1.5893  0.5953 -1.2248
 5967TIP3    H217908   1.777   4.107   3.968  0.5879 -0.3873  1.8868
 5968TIP3   OH217909   4.320   5.358   0.383 -0.4869 -0.3406 -0.2086
 5968TIP3    H117910   4.269   5.288   0.342 -0.4604 -0.1158 -0.6305
 5968TIP3    H217911   4.337   5.420   0.312 -0.0227 -0.1861  0.0329
 5969TIP3   OH217912   0.138   5.087   2.402  0.6355  0.1764 -0.2841
 5969TIP3    H117913   0.097   5.002   2.386  1.3531 -0.4955  1.2450
 5969TIP3    H217914   0.201   5.097   2.331  3.1043 -2.2963  1.3655
 5970TIP3   OH217915   3.614   2.845   0.278 -0.1582  0.3765 -0.0594
 5970TIP3    H117916   3.526   2.809   0.275  0.5804 -1.4723 -0.7608
 5970TIP3    H217917   3.617   2.909   0.207 -0.1539 -1.5675 -1.9179
 5971TIP3   OH217918   4.037   2.685   3.909 -0.4081  0.0903 -0.0900
 5971TIP3    H117919   4.063   2.682   4.002 -0.7308 -0.5274 -0.0138
 5971TIP3    H217920   4.100   2.629   3.865 -1.0223 -0.6481 -0.0475
 5972TIP3   OH217921   3.545   2.636   1.499 -0.1009  0.2222  0.2325
 5972TIP3    H117922   3.559   2.714   1.447  0.9933 -0.6057 -0.7814
 5972TIP3    H217923   3.464   2.652   1.548 -0.9158  1.1975 -1.3966
 5973TIP3   OH217924   3.535   1.907   0.980 -0.1854  0.3377  0.3245
 5973TIP3    H117925   3.576   1.975   0.926 -0.4162 -0.4298 -0.8525
 5973TIP3    H217926   3.500   1.954   1.055  0.9376  1.3155  0.2747
 5974TIP3   OH217927   1.146   5.013   3.938 -0.3024 -0.1750  0.6538
 5974TIP3    H117928   1.242   5.018   3.929 -0.2303 -1.7872  0.1866
 5974TIP3    H217929   1.131   4.928   3.979 -1.7092 -2.2168 -3.5900
 5975TIP3   OH217930   3.460   5.731   3.895 -0.0468  0.6990 -0.4100
 5975TIP3    H117931   3.459   5.816   3.851  0.0336  0.0523 -1.6776
 5975TIP3    H217932   3.428   5.669   3.830  0.5460 -0.3668  0.2796
 5976TIP3   OH217933   3.974   2.365   1.672  0.4419  0.4217 -0.3794
 5976TIP3    H117934   3.905   2.309   1.636  0.8668  0.5552 -1.4219
 5976TIP3    H217935   4.056   2.324   1.642  0.7701  1.1862 -0.5411
 5977TIP3   OH217936   1.242   3.748   0.697 -0.4834  0.4026 -0.2747
 5977TIP3    H117937   1.194   3.734   0.615 -0.8943 -0.4996  0.1000
 5977TIP3    H217938   1.195   3.694   0.761  2.5842 -2.8600 -0.4646
 5978TIP3   OH217939   2.000   5.367   0.878  0.3034 -0.1017 -0.1505
 5978TIP3    H117940   1.925   5.363   0.820 -0.6564 -1.9003  1.1282
 5978TIP3    H217941   2.069   5.319   0.833  0.6691  1.3229 -1.2046
 5979TIP3   OH217942   4.214   5.894   0.944 -0.1624  0.0076 -0.6904
 5979TIP3    H117943   4.308   5.914   0.952 -0.4312  1.0680  0.0449
 5979TIP3    H217944   4.211   5.798   0.943  0.8256 -0.1086  1.1660
 5980TIP3   OH217945   1.574   1.465   4.106 -0.4789 -0.6101 -0.7368
 5980TIP3    H117946   1.546   1.493   4.019 -0.9606 -0.5736 -0.5690
 5980TIP3    H217947   1.652   1.412   4.090  0.4884  0.8630 -1.0551
 5981TIP3   OH217948   4.432   3.431   1.764 -0.4371  0.1639  0.2252
 5981TIP3    H117949   4.447   3.449   1.671  0.7996  0.4014  0.4490
 5981TIP3    H217950   4.516   3.399   1.796 -0.8038  0.2256  1.2964
 5982TIP3   OH217951   4.409   0.490   3.812  0.1132 -0.1821 -0.6436
 5982TIP3    H117952   4.385   0.573   3.770 -0.2176  0.3161  0.5047
 5982TIP3    H217953   4.326   0.444   3.823  0.1538 -0.1651 -0.2462
 5983TIP3   OH217954   0.284   0.131   4.157 -0.1503  0.6903  0.0444
 5983TIP3    H117955   0.260   0.214   4.197  0.8449  0.5346  1.0065
 5983TIP3    H217956   0.350   0.094   4.215  0.2742 -0.2320 -0.9802
 5984TIP3   OH217957   5.395   5.014   1.765 -0.2314 -0.0137 -0.5450
 5984TIP3    H117958   5.441   5.010   1.681  1.0002  0.5204  0.0735
 5984TIP3    H217959   5.372   4.923   1.785  2.6687 -0.6776  0.2155
 5985TIP3   OH217960   0.822   3.134   4.045 -0.5048 -0.6778 -0.2981
 5985TIP3    H117961   0.761   3.124   3.973 -1.2258  0.1278  0.1754
 5985TIP3    H217962   0.805   3.222   4.079  2.2941  0.3983 -1.4109
 5986TIP3   OH217963   5.634   1.802   4.819  0.1301  0.2131  0.7469
 5986TIP3    H117964   5.600   1.892   4.819 -1.0742 -0.2045 -0.6511
 5986TIP3    H217965   5.723   1.811   4.853  0.7652  2.2642 -1.1687
 5987TIP3   OH217966   4.854   5.600   4.026  0.1096  0.2172 -0.2143
 5987TIP3    H117967   4.910   5.522   4.028  0.2595  0.2843 -1.2449
 5987TIP3    H217968   4.889   5.657   4.095 -0.3007 -0.8130  0.8815
 5988TIP3   OH217969   0.099   1.042   5.001 -0.2336  0.0125 -0.2250
 5988TIP3    H117970   0.104   1.017   4.909 -3.5970  0.8673 -0.7764
 5988TIP3    H217971   0.169   1.106   5.013  0.7505 -0.6805 -1.9516
 5989TIP3   OH217972   1.704   0.136   0.190  0.3466  0.1287 -0.3275
 5989TIP3    H117973   1.750   0.092   0.262 -0.4752  0.4207  0.3900
 5989TIP3    H217974   1.649   0.201   0.233 -0.5894 -0.0681 -1.1858
 5990TIP3   OH217975   3.701   0.785   3.042  0.0266 -0.0345 -0.2080
 5990TIP3    H117976   3.764   0.849   3.009 -0.2893  1.1015  1.2614
 5990TIP3    H217977   3.750   0.702   3.045  0.6388  0.2483 -1.5322
 5991TIP3   OH217978   0.690   0.495   3.625 -0.1640  0.5054  0.1971
 5991TIP3    H117979   0.704   0.474   3.718 -2.2762 -1.4822  0.1586
 5991TIP3    H217980   0.732   0.580   3.613  1.5668  0.0915  2.5669
 5992TIP3   OH217981   2.514   5.161   0.268  0.4676  0.7526  0.2902
 5992TIP3    H117982   2.503   5.069   0.289 -0.6359  0.1668 -2.4170
 5992TIP3    H217983   2.428   5.200   0.283  0.2115  0.7374 -1.0308
 5993TIP3   OH217984   1.090   5.175   0.156  0.0821  0.2838 -0.1968
 5993TIP3    H117985   1.116   5.087   0.129 -0.9522 -1.0603  2.6886
 5993TIP3    H217986   1.161   5.231   0.128  1.4092 -1.6913 -1.0131
 5994TIP3   OH217987   2.438   0.628   4.947  0.1501  0.1270 -0.4147
 5994TIP3    H117988   2.483   0.565   4.891 -0.8829 -1.9133  0.8946
 5994TIP3    H217989   2.386   0.681   4.887 -0.1353 -1.3074 -1.5023
 5995TIP3   OH217990   2.456   4.145   0.448 -0.2312 -0.2162 -0.4637
 5995TIP3    H117991   2.492   4.083   0.511  0.2280 -0.6045 -1.1023
 5995TIP3    H217992   2.423   4.090   0.376 -1.1255  0.1923 -0.3806
 5996TIP3   OH217993   0.558   1.148   0.214 -0.2265 -0.5794  0.2313
 5996TIP3    H117994   0.618   1.100   0.157  1.2709  0.9530  0.4093
 5996TIP3    H217995   0.581   1.121   0.303 -0.6779 -0.9333  0.2423
 5997TIP3   OH217996   5.264   5.252   4.227  0.0078 -1.1363 -0.0782
 5997TIP3    H117997   5.173   5.230   4.249  0.0814  0.1698  1.7599
 5997TIP3    H217998   5.299   5.173   4.186 -1.8030 -1.8372 -0.3516
 5998TIP3   OH217999   2.677   4.352   1.346 -0.3379 -0.4085 -0.1391
 5998TIP3    H118000   2.725   4.323   1.423 -0.5333  0.4700  0.3265
 5998TIP3    H218001   2.663   4.272   1.295  0.6909 -0.8404  0.2224
 5999TIP3   OH218002   4.963   5.144   1.768  0.0081 -0.6717  0.6697
 5999TIP3    H118003   4.967   5.055   1.803  1.4495 -0.7068  0.4973
 5999TIP3    H218004   5.044   5.185   1.799 -0.7617  0.6712  0.9689
 6000TIP3   OH218005   0.316   5.810   3.604 -0.1774 -0.5001  0.6259
 6000TIP3    H118006   0.274   5.727   3.623  0.6693 -1.3134 -0.8658
 6000TIP3    H218007   0.375   5.825   3.678  0.5179 -1.8240  0.3646
 6001TIP3   OH218008   2.044   5.473   2.851 -0.3824  0.3332  0.6525
 6001TIP3    H118009   2.132   5.498   2.879 -0.9992  2.1162  1.0866
 6001TIP3    H218010   2.055   5.442   2.761  0.6640  0.6648  0.6522
 6002TIP3   OH218011   2.637   4.155   2.311  0.2457 -0.6106 -0.6190
 6002TIP3    H118012   2.706   4.205   2.267  1.1934 -1.3027  0.0450
 6002TIP3    H218013   2.661   4.063   2.298  1.3647 -0.8654  2.4759
 6003TIP3   OH218014   1.399   1.953   1.863 -0.1536  0.4281 -0.0817
 6003TIP3    H118015   1.400   2.048   1.871  1.0726  0.5108 -0.8982
 6003TIP3    H218016   1.311   1.927   1.891 -0.0333  1.6592  1.5796
 6004TIP3   OH218017   1.550   0.946   2.352  0.1675 -0.2431 -0.7008
 6004TIP3    H118018   1.494   0.968   2.277  1.6096 -0.8767 -2.0061
 6004TIP3    H218019   1.613   0.883   2.317  0.4772 -1.0627  1.2209
 6005TIP3   OH218020   0.503   1.950   2.013  0.1922 -0.0073  0.3317
 6005TIP3    H118021   0.481   2.041   1.992 -1.8869 -0.6383 -0.4556
 6005TIP3    H218022   0.485   1.902   1.932 -0.8262 -1.4126  1.3383
 6006TIP3   OH218023   4.199   4.944   1.648 -0.9015 -0.0247 -0.5813
 6006TIP3    H118024   4.118   4.976   1.688  0.0540  2.0991 -0.1912
 6006TIP3    H218025   4.265   4.951   1.718 -0.4003 -2.0705 -0.7763
 6007TIP3   OH218026   6.244   2.360   4.561  0.3859  0.1403  0.4737
 6007TIP3    H118027   6.247   2.456   4.564  1.0681  0.1600 -0.3644
 6007TIP3    H218028   6.327   2.332   4.599 -0.9639 -0.2385  3.3991
 6008TIP3   OH218029   2.031   2.963   4.483 -0.0372 -0.3025 -0.0146
 6008TIP3    H118030   2.036   2.884   4.430  1.5782 -0.9351  1.0300
 6008TIP3    H218031   2.044   3.035   4.420  4.0126 -1.0966 -0.3303
 6009TIP3   OH218032   6.086   1.338   0.826  0.1195 -0.1466  0.1036
 6009TIP3    H118033   6.037   1.420   0.825 -0.3449 -0.4180 -0.7577
 6009TIP3    H218034   6.108   1.324   0.918  0.2822  0.9808  0.2457
 6010TIP3   OH218035   3.457   1.655   1.024 -0.8864 -0.4596  1.0431
 6010TIP3    H118036   3.414   1.674   1.107 -1.4286  0.2948  0.6021
 6010TIP3    H218037   3.474   1.741   0.986  0.1764 -0.7724  0.7785
 6011TIP3   OH218038   5.952   2.852   5.154 -0.0083  0.3305 -0.0801
 6011TIP3    H118039   6.040   2.847   5.192 -0.6855  1.2643  1.7470
 6011TIP3    H218040   5.935   2.763   5.122  1.4485  0.0467 -0.1472
 6012TIP3   OH218041   5.352   5.217   4.516  0.5837 -0.0287 -0.4806
 6012TIP3    H118042   5.288   5.162   4.471 -1.8624  1.1847  1.2447
 6012TIP3    H218043   5.403   5.257   4.446 -0.9303 -0.6453 -1.9875
 6013TIP3   OH218044   3.881   2.223   3.431  0.0053 -0.1141  0.4741
 6013TIP3    H118045   3.877   2.190   3.521  2.2456  0.3449  0.8134
 6013TIP3    H218046   3.941   2.297   3.436 -1.0400  0.8836 -1.1645
 6014TIP3   OH218047   0.307   5.296   3.695  0.0352  0.1421  0.2057
 6014TIP3    H118048   0.325   5.228   3.630 -0.3985  0.5199 -0.3187
 6014TIP3    H218049   0.243   5.353   3.652  0.8926  1.2610  0.3870
 6015TIP3   OH218050   3.072   4.456   3.351 -0.5803  0.4182 -0.3021
 6015TIP3    H118051   3.012   4.392   3.390 -1.1283  0.5442 -0.9285
 6015TIP3    H218052   3.151   4.451   3.406 -0.3317 -1.3020 -0.7430
 6016TIP3   OH218053   4.805   5.714   3.770  0.2542  0.1359 -0.7046
 6016TIP3    H118054   4.891   5.753   3.755 -0.8763  2.4103 -1.8183
 6016TIP3    H218055   4.806   5.688   3.862  2.8556 -1.9745 -1.2046
 6017TIP3   OH218056   1.096   3.874   3.461  0.5542  0.2610  0.1524
 6017TIP3    H118057   1.012   3.916   3.443  0.9568  0.9792 -0.1094
 6017TIP3    H218058   1.146   3.887   3.381  0.2975 -1.7623 -0.3847
 6018TIP3   OH218059   1.189   0.306   4.657  0.7562 -0.3847  0.2304
 6018TIP3    H118060   1.153   0.337   4.740  1.3064 -0.9728  0.7038
 6018TIP3    H218061   1.123   0.245   4.623  0.5782 -0.2217  0.2826
 6019TIP3   OH218062   0.181   5.888   4.115 -0.0974 -0.0002 -0.4243
 6019TIP3    H118063   0.255   5.886   4.175 -1.5976  0.8209  1.5780
 6019TIP3    H218064   0.157   5.797   4.103 -0.4946 -0.1561  1.2535
 6020TIP3   OH218065   4.631   2.135   1.967 -0.1776 -0.0871  0.3413
 6020TIP3    H118066   4.680   2.201   1.918 -0.9349 -0.3279 -0.7847
 6020TIP3    H218067   4.639   2.056   1.913 -1.6631 -0.1717  0.2148
 6021TIP3   OH218068   0.174   0.292   4.864 -0.2282 -0.1650  0.0410
 6021TIP3    H118069   0.093   0.344   4.863  0.6913  1.3235 -1.2295
 6021TIP3    H218070   0.196   0.285   4.957 -0.3860  1.7751  0.2741
 6022TIP3   OH218071   2.397   2.696   4.683  0.2468  0.3815  0.4408
 6022TIP3    H118072   2.486   2.664   4.694  0.9058  1.8050 -0.4566
 6022TIP3    H218073   2.386   2.706   4.589  0.0051  2.3830  0.6179
 6023TIP3   OH218074   0.659   5.360   4.687 -0.0273 -0.3473 -0.0650
 6023TIP3    H118075   0.736   5.304   4.675  0.0543 -0.1119 -0.6733
 6023TIP3    H218076   0.599   5.308   4.740  0.7390 -0.3541  0.8218
 6024TIP3   OH218077   3.084   1.557   4.622  0.2365  0.3618 -0.0605
 6024TIP3    H118078   3.180   1.564   4.619  0.3351  0.0214  1.3913
 6024TIP3    H218079   3.053   1.647   4.612  0.8491  0.8831  2.1214
 6025TIP3   OH218080   1.672   5.725   0.217  0.3807 -0.0715 -0.1879
 6025TIP3    H118081   1.626   5.647   0.185 -1.3097  0.1180  1.5483
 6025TIP3    H218082   1.669   5.786   0.144 -1.3155 -0.4351 -0.4812
 6026TIP3   OH218083   2.528   4.311   3.555  0.1762 -0.1723  0.1372
 6026TIP3    H118084   2.603   4.288   3.499  0.6924 -0.0310  0.7558
 6026TIP3    H218085   2.451   4.286   3.504  0.6523 -0.4969 -0.4324
 6027TIP3   OH218086   0.249   5.483   0.463  0.0452 -0.3770 -0.1292
 6027TIP3    H118087   0.215   5.533   0.389 -1.5154 -1.7595 -0.4068
 6027TIP3    H218088   0.231   5.391   0.441 -1.1430 -0.8106  2.2303
 6028TIP3   OH218089   3.136   0.465   2.571 -0.5056  0.5009 -0.0040
 6028TIP3    H118090   3.058   0.420   2.539  0.6413 -1.3449 -0.4075
 6028TIP3    H218091   3.105   0.549   2.603 -2.8019 -0.5796  0.8035
 6029TIP3   OH218092   4.479   4.834   0.133  0.0104  0.9689  0.1259
 6029TIP3    H118093   4.403   4.866   0.182  1.3132  1.1944  2.0993
 6029TIP3    H218094   4.555   4.870   0.179  1.3618 -0.3709 -0.9546
 6030TIP3   OH218095   4.512   0.736   4.666  0.4780 -0.4319 -0.1015
 6030TIP3    H118096   4.445   0.772   4.608 -0.9050  0.1922  1.7897
 6030TIP3    H218097   4.580   0.804   4.670  0.0963 -0.0429 -0.2008
 6031TIP3   OH218098   6.306   4.789   3.472  0.0560 -0.3088  0.1210
 6031TIP3    H118099   6.317   4.879   3.503 -0.5938  0.2900 -1.3143
 6031TIP3    H218100   6.358   4.784   3.392 -0.2166 -1.0992 -0.0248
 6032TIP3   OH218101   5.982   2.039   3.391 -0.4798 -0.6168 -0.0207
 6032TIP3    H118102   6.006   2.091   3.467  0.1956  2.6029 -2.2193
 6032TIP3    H218103   5.887   2.045   3.387 -0.3841  1.2773 -0.6488
 6033TIP3   OH218104   3.599   3.717   2.942  0.1356 -0.3894 -0.2692
 6033TIP3    H118105   3.549   3.678   3.014 -1.7398  2.0089 -0.1547
 6033TIP3    H218106   3.532   3.751   2.882  1.6623  0.0705 -1.7831
 6034TIP3   OH218107   1.264   2.508   3.520 -0.0167 -0.1170  0.3315
 6034TIP3    H118108   1.170   2.493   3.522 -0.1205  0.2423 -1.1906
 6034TIP3    H218109   1.281   2.551   3.436  1.2207  1.7500  1.4547
 6035TIP3   OH218110   3.213   3.125   1.192 -0.9257  0.0470  0.0549
 6035TIP3    H118111   3.129   3.157   1.159 -0.9446 -0.7996 -0.7816
 6035TIP3    H218112   3.251   3.199   1.238 -2.4264  0.2518  1.0308
 6036TIP3   OH218113   5.404   3.187   5.112  0.0273 -0.1963  0.2121
 6036TIP3    H118114   5.338   3.237   5.159  1.5755  2.1175  0.0916
 6036TIP3    H218115   5.413   3.105   5.162 -0.9390  0.6274  1.8061
 6037TIP3   OH218116   0.849   0.973   3.096 -0.0286 -0.6610 -0.0155
 6037TIP3    H118117   0.882   0.962   3.185  1.0285 -0.0741 -0.3144
 6037TIP3    H218118   0.843   0.884   3.061  1.4818 -0.7889 -0.0160
 6038TIP3   OH218119   0.347   4.736   0.023 -0.1513  0.1026 -0.3998
 6038TIP3    H118120   0.418   4.790   0.058 -0.9627  1.5072 -0.8610
 6038TIP3    H218121   0.293   4.716   0.099  0.8153 -1.1476 -0.0087
 6039TIP3   OH218122   4.391   2.319   3.812 -0.0476 -0.2240  0.1199
 6039TIP3    H118123   4.340   2.240   3.831 -0.4058  0.2502  1.2676
 6039TIP3    H218124   4.471   2.309   3.863  1.0529 -0.9560 -1.6651
 6040TIP3   OH218125   0.077   5.872   2.064 -0.3164 -0.0638  0.2932
 6040TIP3    H118126   0.088   5.962   2.095 -0.0191  0.2642 -0.7320
 6040TIP3    H218127   0.162   5.850   2.026 -1.1232  0.1144 -1.7017
 6041TIP3   OH218128   0.704   3.918   1.915  0.3219 -1.2294 -0.1941
 6041TIP3    H118129   0.623   3.869   1.905 -0.2348 -0.7132  1.3638
 6041TIP3    H218130   0.692   3.996   1.861 -0.7628 -0.5671  0.9380
 6042TIP3   OH218131   3.868   5.717   1.242  0.1521 -0.2105  0.6082
 6042TIP3    H118132   3.894   5.807   1.262 -0.3584 -0.1984  1.2258
 6042TIP3    H218133   3.925   5.663   1.296  1.3593 -0.3207 -0.7253
 6043TIP3   OH218134   1.203   1.169   4.306 -0.2538  0.0057  0.3077
 6043TIP3    H118135   1.178   1.173   4.214 -1.4627  2.9317  0.6737
 6043TIP3    H218136   1.248   1.251   4.323  1.0907 -1.0126  2.0776
 6044TIP3   OH218137   2.751   5.820   4.672  0.3077 -0.1717 -0.0917
 6044TIP3    H118138   2.824   5.760   4.688 -0.8708 -1.6140  0.1192
 6044TIP3    H218139   2.685   5.795   4.737 -0.3368  1.1671 -0.2093
 6045TIP3   OH218140   5.565   2.635   2.522  0.9789  0.2491  0.0517
 6045TIP3    H118141   5.582   2.597   2.608 -0.6515 -0.7050 -0.0107
 6045TIP3    H218142   5.470   2.629   2.511  0.6744  3.5692 -0.3628
 6046TIP3   OH218143   0.810   1.896   0.243  0.1002 -0.2731  0.1009
 6046TIP3    H118144   0.857   1.921   0.323 -0.0757  0.4396 -0.0118
 6046TIP3    H218145   0.769   1.812   0.265  1.1883 -0.7761  0.2880
 6047TIP3   OH218146   2.744   2.947   2.326  0.1072  1.0092  0.6479
 6047TIP3    H118147   2.737   2.893   2.405  2.3945 -0.0734  0.1824
 6047TIP3    H218148   2.676   3.014   2.337 -3.3292 -2.1657  1.0005
 6048TIP3   OH218149   3.011   1.305   4.547 -0.7175  0.0715 -0.6985
 6048TIP3    H118150   3.043   1.317   4.458 -1.0427  1.0918 -0.6833
 6048TIP3    H218151   3.057   1.371   4.599 -0.1560 -0.8355 -0.0005
 6049TIP3   OH218152   5.735   0.394   0.055  0.2241 -0.1741 -0.2811
 6049TIP3    H118153   5.725   0.333  -0.017  3.6837 -1.1527 -0.1463
 6049TIP3    H218154   5.677   0.467   0.034 -2.0639 -2.2730 -1.7901
 6050TIP3   OH218155   4.041   4.673   4.270 -0.3809 -0.0040  0.4061
 6050TIP3    H118156   4.062   4.590   4.227  0.5382  1.1153 -1.4194
 6050TIP3    H218157   4.034   4.736   4.198  1.0818  1.9356  1.8618
 6051TIP3   OH218158   6.377   3.495   0.905  0.3875  0.3302  0.1109
 6051TIP3    H118159   6.362   3.435   0.831  1.7621 -0.1587  0.1964
 6051TIP3    H218160   6.290   3.507   0.943 -0.4516  0.9754 -1.8477
 6052TIP3   OH218161   5.752   1.335   0.005  0.1059  0.5205 -0.0383
 6052TIP3    H118162   5.737   1.307   0.096  3.6078 -0.0203  0.4962
 6052TIP3    H218163   5.833   1.385   0.008 -0.4739  1.7845 -2.6991
 6053TIP3   OH218164   3.958   3.991   1.153  0.7479  0.2699 -0.2036
 6053TIP3    H118165   4.025   3.955   1.211  1.2636  1.2685 -0.1412
 6053TIP3    H218166   3.986   4.082   1.138 -0.7831  0.8366  0.1302
 6054TIP3   OH218167   0.329   4.163   1.325 -0.1318  0.2564 -0.0242
 6054TIP3    H118168   0.401   4.100   1.318 -0.7932 -0.9250  2.5390
 6054TIP3    H218169   0.370   4.248   1.309  1.5155 -0.5128 -0.1229
 6055TIP3   OH218170   3.615   3.002   3.942  0.5518 -0.0352 -0.0533
 6055TIP3    H118171   3.646   3.087   3.973  1.6498 -0.5152  0.2301
 6055TIP3    H218172   3.683   2.941   3.970 -0.6828 -1.1510  0.6159
 6056TIP3   OH218173   2.034   2.291   1.578  0.5285  0.1522 -0.0442
 6056TIP3    H118174   1.995   2.265   1.661 -0.7973 -0.1448 -0.7228
 6056TIP3    H218175   2.105   2.228   1.564  1.7161  1.0831  1.5202
 6057TIP3   OH218176   2.797   2.535   0.541 -0.3422  0.4019 -0.1471
 6057TIP3    H118177   2.722   2.475   0.541  1.8918 -2.6538 -1.9592
 6057TIP3    H218178   2.792   2.581   0.457 -0.2981  0.3755 -0.1641
 6058TIP3   OH218179   1.094   5.577   1.951  0.0649  0.3054 -0.1523
 6058TIP3    H118180   1.009   5.599   1.912 -0.2012  0.5454  0.5544
 6058TIP3    H218181   1.136   5.520   1.886 -0.0683  1.2741 -1.1177
 6059TIP3   OH218182   5.599   4.930   1.533  0.3523 -0.4934 -0.1900
 6059TIP3    H118183   5.672   4.926   1.595 -1.5332  0.0623  2.2060
 6059TIP3    H218184   5.547   4.853   1.553 -1.2179  0.6183  0.2260
 6060TIP3   OH218185   3.971   2.952   0.143  0.1211  0.0514 -0.3462
 6060TIP3    H118186   4.015   2.883   0.192 -1.2217 -1.6471 -1.3938
 6060TIP3    H218187   3.970   2.919   0.053 -2.3101  0.5030 -0.5320
 6061TIP3   OH218188   6.108   5.015   2.407 -0.0309 -0.2175 -0.5042
 6061TIP3    H118189   6.134   4.944   2.348 -1.2154 -0.3525 -0.9044
 6061TIP3    H218190   6.022   4.987   2.441 -0.3957  0.9027 -0.4666
 6062TIP3   OH218191   0.515   0.216   2.752 -0.2248  0.3442  0.0338
 6062TIP3    H118192   0.561   0.132   2.755 -0.7072  0.1196  1.1586
 6062TIP3    H218193   0.423   0.194   2.740 -0.3806  0.7018  0.5288
 6063TIP3   OH218194   3.661   3.835   2.065 -0.6305  0.1537  0.2140
 6063TIP3    H118195   3.592   3.775   2.036 -1.2709  0.4896  1.0056
 6063TIP3    H218196   3.652   3.838   2.160 -0.5384  1.4021  0.2079
 6064TIP3   OH218197   4.652   1.097   2.683  0.0721  0.2366 -0.0226
 6064TIP3    H118198   4.721   1.031   2.680 -0.1918 -0.0905  0.8534
 6064TIP3    H218199   4.605   1.085   2.600 -0.6970 -1.5115  0.5992
 6065TIP3   OH218200   1.406   4.106   4.029  0.1521  0.3817  0.1924
 6065TIP3    H118201   1.398   4.037   3.964  1.7025  0.9567 -0.6547
 6065TIP3    H218202   1.498   4.105   4.055 -0.0528  1.3466  1.0439
 6066TIP3   OH218203   4.671   4.419   0.652 -0.6669 -0.1354  0.1491
 6066TIP3    H118204   4.708   4.446   0.567 -1.7416  1.5520  0.1703
 6066TIP3    H218205   4.644   4.501   0.693  0.1058 -0.8798  2.2923
 6067TIP3   OH218206   2.691   5.353   0.131  0.0883  0.0256 -0.4864
 6067TIP3    H118207   2.634   5.297   0.184 -0.7483 -1.6275 -2.9439
 6067TIP3    H218208   2.641   5.434   0.118 -0.4095 -0.2243 -0.1284
 6068TIP3   OH218209   2.656   1.165   0.311  0.0472 -0.3534 -0.5710
 6068TIP3    H118210   2.562   1.147   0.315  0.2243 -1.0698  1.4791
 6068TIP3    H218211   2.687   1.115   0.236 -1.0960 -0.6775 -0.8360
 6069TIP3   OH218212   1.438   1.203   1.227  0.1566  0.5239 -0.0916
 6069TIP3    H118213   1.392   1.160   1.155  1.7510 -0.3826 -0.6258
 6069TIP3    H218214   1.476   1.130   1.277  0.0191  1.1964  1.0296
 6070TIP3   OH218215   0.211   0.323   0.895 -0.0459  0.4877  0.4213
 6070TIP3    H118216   0.199   0.229   0.885 -0.2133  0.4734  0.7588
 6070TIP3    H218217   0.123   0.359   0.900  0.0005  0.7479 -0.4511
 6071TIP3   OH218218   0.505   2.994   2.753  0.4191 -0.2460  0.0602
 6071TIP3    H118219   0.441   2.955   2.812  0.7034 -0.3263  0.3167
 6071TIP3    H218220   0.459   3.070   2.716  0.3398 -0.0073  0.6250
 6072TIP3   OH218221   0.482   0.191   5.102  0.0101 -0.1779 -0.0313
 6072TIP3    H118222   0.387   0.203   5.107  0.0751  0.0697  0.6591
 6072TIP3    H218223   0.495   0.096   5.102 -0.2050 -0.2096  0.5607
 6073TIP3   OH218224   1.119   5.269   0.709  0.1329 -0.4707 -0.3320
 6073TIP3    H118225   1.060   5.216   0.762  0.6023 -0.2209  0.4561
 6073TIP3    H218226   1.112   5.232   0.621 -3.1987  1.1355 -0.9327
 6074TIP3   OH218227   5.646   4.473   0.695  0.2103  0.0548 -0.3554
 6074TIP3    H118228   5.674   4.535   0.762  0.9878 -0.2616 -0.3709
 6074TIP3    H218229   5.715   4.477   0.629 -0.1543 -0.2132 -0.7576
 6075TIP3   OH218230   1.205   5.830   2.277  0.1678  0.0994  0.8811
 6075TIP3    H118231   1.246   5.759   2.228  0.0750  0.3579  0.4200
 6075TIP3    H218232   1.141   5.867   2.216  0.1705  0.5385  1.1392
 6076TIP3   OH218233   2.303   1.197   2.444 -0.2165 -0.0875 -0.6051
 6076TIP3    H118234   2.232   1.147   2.485 -0.7388  0.0902 -1.2594
 6076TIP3    H218235   2.270   1.287   2.440 -0.3554 -0.1715 -1.7517
 6077TIP3   OH218236   3.481   0.119   1.577 -0.5742  0.2878  0.4688
 6077TIP3    H118237   3.574   0.109   1.595 -0.4864  1.4463  0.7845
 6077TIP3    H218238   3.464   0.063   1.501  0.3617  0.0276  0.4412
 6078TIP3   OH218239   2.528   1.571   2.050  0.8375 -0.6578  0.1086
 6078TIP3    H118240   2.568   1.487   2.027  0.7444 -0.9448  0.9875
 6078TIP3    H218241   2.599   1.620   2.093  0.3063 -1.1273  1.5770
 6079TIP3   OH218242   5.232   5.261   1.327  0.0893  0.6852  0.0688
 6079TIP3    H118243   5.275   5.176   1.339  1.2654  1.3857  1.0391
 6079TIP3    H218244   5.267   5.294   1.245  1.5663  1.3133  0.9221
 6080TIP3   OH218245   5.836   1.182   1.404 -0.1858  0.0346 -0.3397
 6080TIP3    H118246   5.794   1.123   1.466  2.2987 -0.3391  1.1281
 6080TIP3    H218247   5.815   1.270   1.434  0.7898 -0.1459  0.9380
 6081TIP3   OH218248   1.620   4.816   4.083 -0.1340  0.2887 -0.3292
 6081TIP3    H118249   1.582   4.893   4.124  1.4449  1.3686 -0.7878
 6081TIP3    H218250   1.551   4.782   4.027 -1.2604  0.6370  0.7961
 6082TIP3   OH218251   6.125   1.725   3.065  0.4695 -0.4048 -0.1549
 6082TIP3    H118252   6.060   1.796   3.067 -0.8243 -1.5328  1.2984
 6082TIP3    H218253   6.143   1.711   2.973 -0.3358  0.8684 -0.5324
 6083TIP3   OH218254   3.156   5.754   3.618 -0.6918 -0.3129  0.3112
 6083TIP3    H118255   3.062   5.741   3.607 -0.6791 -1.0439  1.0619
 6083TIP3    H218256   3.164   5.805   3.698 -0.5067  0.9543 -0.4766
 6084TIP3   OH218257   0.584   0.368   4.191 -0.2282  0.4106  0.2887
 6084TIP3    H118258   0.555   0.282   4.162  0.9811  0.3365 -0.8197
 6084TIP3    H218259   0.526   0.390   4.264 -0.4498 -1.4067  0.7084
 6085TIP3   OH218260   5.036   5.059   3.317  0.4430 -0.0904  0.4594
 6085TIP3    H118261   5.121   5.021   3.295 -1.0963 -2.3085 -2.2540
 6085TIP3    H218262   5.039   5.148   3.283  1.0624 -0.7823 -1.4083
 6086TIP3   OH218263   6.369   0.299   0.457 -0.1874  0.2303 -0.2105
 6086TIP3    H118264   6.382   0.215   0.500  1.5021  0.3988 -0.3008
 6086TIP3    H218265   6.303   0.343   0.510 -1.2045 -1.1836 -0.2400
 6087TIP3   OH218266   2.193   2.151   5.040  0.6024 -0.1998  0.5826
 6087TIP3    H118267   2.225   2.079   4.987 -1.3492 -0.1762 -0.7308
 6087TIP3    H218268   2.256   2.159   5.111  2.4259 -1.2918 -0.8442
 6088TIP3   OH218269   3.005   3.562   2.527 -0.0296 -0.1457  0.0523
 6088TIP3    H118270   2.984   3.649   2.493 -1.3302 -0.6366 -0.4686
 6088TIP3    H218271   2.944   3.504   2.482  0.0412 -1.1752  1.2374
 6089TIP3   OH218272   0.268   5.150   0.999 -0.1276 -0.5352 -0.1744
 6089TIP3    H118273   0.287   5.231   1.047  1.5453 -0.7178 -0.4605
 6089TIP3    H218274   0.174   5.138   1.010  0.1091 -0.5350  3.0516
 6090TIP3   OH218275   1.805   1.697   2.570 -0.4596 -0.2176  0.5524
 6090TIP3    H118276   1.775   1.685   2.480  0.1503 -2.2825  0.5750
 6090TIP3    H218277   1.790   1.612   2.612 -0.1398  0.5108  2.2357
 6091TIP3   OH218278   2.230   0.904   4.750  0.1952  0.2420  0.0970
 6091TIP3    H118279   2.175   0.914   4.672 -0.9493 -1.3971  0.6423
 6091TIP3    H218280   2.315   0.877   4.716 -0.0579  0.3432 -0.6358
 6092TIP3   OH218281   0.934   5.946   3.500 -0.3593  0.3205 -0.1418
 6092TIP3    H118282   0.969   5.886   3.566  0.3478  2.1808  1.2655
 6092TIP3    H218283   0.846   5.966   3.532 -0.4534  0.3316 -0.4090
 6093TIP3   OH218284   5.166   0.398   2.203  0.1519 -0.3630 -0.0657
 6093TIP3    H118285   5.138   0.320   2.155  1.6138 -1.0293  0.1162
 6093TIP3    H218286   5.166   0.371   2.295  1.5514 -0.4672 -0.0735
 6094TIP3   OH218287   1.767   4.879   0.250  0.2852  0.0990 -0.1979
 6094TIP3    H118288   1.771   4.853   0.158 -2.4132 -1.1223 -0.0828
 6094TIP3    H218289   1.794   4.800   0.298 -0.5282 -0.0407  0.0499
 6095TIP3   OH218290   0.775   2.661   1.439 -0.3196  0.3593 -0.0630
 6095TIP3    H118291   0.729   2.596   1.492  0.4461 -0.0594  0.1053
 6095TIP3    H218292   0.845   2.693   1.496  0.3065  0.1508 -0.6975
 6096TIP3   OH218293   4.576   3.763   3.003  0.0910 -0.4498  0.2279
 6096TIP3    H118294   4.485   3.781   2.978  0.4242 -0.8175 -1.2817
 6096TIP3    H218295   4.573   3.757   3.099 -2.1901 -4.1671  0.1180
 6097TIP3   OH218296   4.054   0.878   4.261  0.4958 -0.2942 -0.1025
 6097TIP3    H118297   4.120   0.924   4.313  1.2553 -0.4483 -0.9164
 6097TIP3    H218298   3.985   0.857   4.324 -0.0379  2.1902  0.2694
 6098TIP3   OH218299   1.427   2.286   0.832  0.2458  0.4182  0.1939
 6098TIP3    H118300   1.493   2.263   0.767 -0.2500  0.6844 -0.4034
 6098TIP3    H218301   1.472   2.348   0.890  0.1837  1.5093 -0.8849
 6099TIP3   OH218302   5.830   3.408   0.442  0.2382 -0.1025  0.4849
 6099TIP3    H118303   5.777   3.348   0.495 -0.1714 -0.4516 -0.3014
 6099TIP3    H218304   5.806   3.495   0.472  0.4210 -0.3076  1.2519
 6100TIP3   OH218305   2.172   4.247   2.180 -0.1752 -0.2657  0.1049
 6100TIP3    H118306   2.253   4.210   2.212 -0.8843 -1.5989  0.4174
 6100TIP3    H218307   2.139   4.184   2.116 -0.9945  0.2272  0.0173
 6101TIP3   OH218308   5.894   4.975   2.025  0.3751  0.2695  0.1529
 6101TIP3    H118309   5.969   4.960   1.967 -0.4694  2.0460 -1.5110
 6101TIP3    H218310   5.829   4.910   1.999  0.2884  0.5679 -0.3878
 6102TIP3   OH218311   4.568   2.371   5.023  0.0623  0.2649  0.3418
 6102TIP3    H118312   4.539   2.414   4.943 -1.0965  0.1774  0.6836
 6102TIP3    H218313   4.631   2.305   4.994 -0.5022  0.0883 -0.5214
 6103TIP3   OH218314   2.209   1.912   0.651 -0.0661 -0.4378  0.3140
 6103TIP3    H118315   2.203   1.983   0.714  0.8783  0.0573 -0.1413
 6103TIP3    H218316   2.286   1.861   0.679 -1.1024 -1.6969  1.0306
 6104TIP3   OH218317   0.292   5.827   0.659 -0.2837  0.3599  0.1900
 6104TIP3    H118318   0.236   5.752   0.676  0.5335 -0.5798 -1.1302
 6104TIP3    H218319   0.355   5.797   0.595  0.2841  2.0833 -0.1264
 6105TIP3   OH218320   4.935   4.166   0.168  0.0916  0.4960  0.2607
 6105TIP3    H118321   4.909   4.074   0.167 -2.0503  1.0362  0.9411
 6105TIP3    H218322   5.016   4.168   0.218  1.4533 -1.2654 -1.6792
 6106TIP3   OH218323   4.998   3.198   4.495  0.4102  0.1966 -0.2070
 6106TIP3    H118324   5.021   3.208   4.402  1.6905  1.3760  0.1954
 6106TIP3    H218325   4.972   3.107   4.504  2.7280 -0.6623 -1.2604
 6107TIP3   OH218326   3.854   0.108   3.023  0.7159 -0.2245  0.1243
 6107TIP3    H118327   3.827   0.016   3.021  0.8005 -0.2417 -0.4652
 6107TIP3    H218328   3.817   0.142   3.104 -1.9228  0.0186 -1.0671
 6108TIP3   OH218329   1.116   3.135   0.072  0.0939 -0.0488  0.1547
 6108TIP3    H118330   1.103   3.122  -0.022  0.6935 -1.2298  0.2237
 6108TIP3    H218331   1.133   3.048   0.107 -0.2016  0.3587  1.3850
 6109TIP3   OH218332   4.470   4.486   3.616 -0.3818  0.3101  0.1929
 6109TIP3    H118333   4.442   4.472   3.525 -0.6371  0.9190  0.1718
 6109TIP3    H218334   4.488   4.398   3.649 -0.6293  0.0525 -0.3368
 6110TIP3   OH218335   6.112   4.926   1.864  0.3965 -0.3983 -0.0424
 6110TIP3    H118336   6.198   4.966   1.870  0.4511 -0.1869 -1.9060
 6110TIP3    H218337   6.128   4.837   1.832 -0.0004 -0.7609  0.7289
 6111TIP3   OH218338   2.887   4.420   0.336  0.1097 -0.1408  0.0231
 6111TIP3    H118339   2.909   4.464   0.417  0.7440 -1.8910  0.8500
 6111TIP3    H218340   2.843   4.339   0.363 -0.3115 -0.4330 -1.3983
 6112TIP3   OH218341   5.542   4.982   4.031 -0.2983  0.6370  0.4009
 6112TIP3    H118342   5.622   5.034   4.046 -0.3430  0.1601  2.7822
 6112TIP3    H218343   5.475   5.026   4.084 -0.5280 -1.3145  1.8606
 6113TIP3   OH218344   5.743   0.919   4.211  0.4334  0.1908 -0.4999
 6113TIP3    H118345   5.652   0.910   4.184 -0.1993 -0.4333  1.6333
 6113TIP3    H218346   5.789   0.852   4.160 -0.8162 -1.4252  0.3739
 6114TIP3   OH218347   4.844   4.265   4.688  0.1813 -0.0463  0.1089
 6114TIP3    H118348   4.841   4.222   4.603 -0.8060  0.0291  0.0938
 6114TIP3    H218349   4.882   4.200   4.747 -1.4355 -1.0299  0.1175
 6115TIP3   OH218350   6.155   3.226   1.602  0.0112  0.5678  0.0761
 6115TIP3    H118351   6.201   3.144   1.582  0.6416  0.4453  1.8291
 6115TIP3    H218352   6.109   3.248   1.522 -0.1584 -1.4958 -0.4443
 6116TIP3   OH218353   0.083   1.144   1.395 -0.2025  0.3184 -0.1050
 6116TIP3    H118354   0.111   1.197   1.470 -1.5695  2.0130 -0.7269
 6116TIP3    H218355   0.070   1.208   1.325 -0.0774 -1.1045 -1.4634
 6117TIP3   OH218356   3.087   1.255   1.175  0.6402 -0.2608  0.0734
 6117TIP3    H118357   3.164   1.200   1.190  0.4695 -0.3150  0.8169
 6117TIP3    H218358   3.072   1.250   1.081 -0.6268 -3.2725  0.2993
 6118TIP3   OH218359   3.882   3.585   2.166  0.5623 -0.3190  0.1704
 6118TIP3    H118360   3.842   3.549   2.245 -2.9053  0.1703 -1.1745
 6118TIP3    H218361   3.876   3.515   2.101 -0.6019  0.6093 -0.7773
 6119TIP3   OH218362   2.984   4.373   1.111 -0.1575  0.4667 -0.3638
 6119TIP3    H118363   2.986   4.334   1.024  1.1373 -2.0876  0.7106
 6119TIP3    H218364   3.065   4.424   1.116  0.0551  0.1362 -0.4402
 6120TIP3   OH218365   0.408   0.002   3.312 -0.0913  0.0240 -0.1241
 6120TIP3    H118366   0.472  -0.018   3.380  0.5682 -1.0158 -1.0345
 6120TIP3    H218367   0.371   0.087   3.339  0.9647  0.1801  0.9142
 6121TIP3   OH218368   5.682   4.901   0.139 -0.1880  0.2258 -0.5173
 6121TIP3    H118369   5.605   4.847   0.156 -2.4486  1.8206 -4.4775
 6121TIP3    H218370   5.722   4.861   0.062  1.9839  0.5042  0.3908
 6122TIP3   OH218371   3.683   5.015   1.459 -0.3407  0.4000 -0.3782
 6122TIP3    H118372   3.712   4.925   1.477  1.1006  1.2452  2.0670
 6122TIP3    H218373   3.588   5.012   1.469 -0.2005 -0.6436  1.0703
 6123TIP3   OH218374   5.856   4.493   0.503 -0.4060 -0.4484  0.0246
 6123TIP3    H118375   5.912   4.450   0.568  1.6637  2.7402  0.5779
 6123TIP3    H218376   5.912   4.504   0.427 -1.3430 -0.0637 -0.6294
 6124TIP3   OH218377   1.022   4.080   1.517 -0.1614  0.5376 -0.5514
 6124TIP3    H118378   1.056   4.143   1.454 -0.1374  0.6488 -0.4274
 6124TIP3    H218379   1.076   4.093   1.595  1.3492 -1.1310 -1.2153
 6125TIP3   OH218380   4.202   3.288   4.837 -0.4651  0.5586 -0.2764
 6125TIP3    H118381   4.169   3.231   4.906 -0.5803  0.3671 -0.4884
 6125TIP3    H218382   4.295   3.268   4.831 -0.9450 -1.5110 -2.1180
 6126TIP3   OH218383   2.166   5.394   2.566  0.0691  0.3676 -0.3347
 6126TIP3    H118384   2.251   5.423   2.600  0.2471  0.4563 -0.8600
 6126TIP3    H218385   2.188   5.340   2.490 -0.1838 -1.9010  1.0764
 6127TIP3   OH218386   1.747   4.489   2.899  0.0019  0.0017 -0.2525
 6127TIP3    H118387   1.663   4.534   2.902 -0.4497 -0.8449  0.1858
 6127TIP3    H218388   1.790   4.512   2.981 -0.5301 -0.8920  0.3030
 6128TIP3   OH218389   4.238   3.903   2.513 -0.2592  0.4130 -0.1160
 6128TIP3    H118390   4.327   3.884   2.485 -0.5999  1.4748 -2.1450
 6128TIP3    H218391   4.239   3.995   2.537 -0.8551  0.5197 -0.4638
 6129TIP3   OH218392   5.286   5.709   1.488 -0.5515  0.0348 -0.1214
 6129TIP3    H118393   5.317   5.763   1.561  0.0367 -1.1053  0.5053
 6129TIP3    H218394   5.366   5.676   1.447 -0.9027 -0.5007 -0.3828
 6130TIP3   OH218395   4.929   1.026   1.957 -0.1617  0.0106 -0.0015
 6130TIP3    H118396   4.974   0.945   1.982  0.1034 -0.1561 -0.9489
 6130TIP3    H218397   4.851   0.996   1.910  0.1390  0.2887 -0.6982
 6131TIP3   OH218398   1.431   1.015   4.394  0.2159  0.2416  0.1227
 6131TIP3    H118399   1.335   1.016   4.399  0.1436 -1.6569 -0.1657
 6131TIP3    H218400   1.451   1.070   4.319 -0.8306 -1.1517 -1.2663
 6132TIP3   OH218401   1.319   3.558   5.124 -0.1928  0.1796  0.0202
 6132TIP3    H118402   1.305   3.529   5.034  0.1031  0.3015 -0.0669
 6132TIP3    H218403   1.244   3.615   5.143 -0.7295 -0.5605  0.1640
 6133TIP3   OH218404   1.497   2.095   0.262  0.2175 -0.0069 -0.1159
 6133TIP3    H118405   1.486   2.050   0.178 -1.4670 -1.0857  0.6189
 6133TIP3    H218406   1.541   2.030   0.317 -2.0158 -0.8054  0.8828
 6134TIP3   OH218407   4.041   2.741   3.199 -0.0103 -0.2784  0.4247
 6134TIP3    H118408   4.125   2.758   3.157 -0.7896 -0.2535 -1.2104
 6134TIP3    H218409   3.995   2.825   3.194  0.2206 -0.0128  2.2223
 6135TIP3   OH218410   1.498   2.536   4.226 -0.3838 -0.2441 -0.2953
 6135TIP3    H118411   1.484   2.443   4.247 -2.1831  0.1088  0.2447
 6135TIP3    H218412   1.452   2.550   4.143  2.2777 -0.4174 -1.9250
 6136TIP3   OH218413   5.208   3.460   4.108  0.3946 -0.0866  0.1126
 6136TIP3    H118414   5.185   3.550   4.132 -0.8297  0.3108 -2.2095
 6136TIP3    H218415   5.268   3.469   4.034  0.1444 -1.1742 -0.2493
 6137TIP3   OH218416   4.027   3.098   1.359 -0.1753  0.3350  0.3519
 6137TIP3    H118417   4.025   3.136   1.447 -2.3335  0.4616  0.3063
 6137TIP3    H218418   4.039   3.174   1.301 -0.6114  0.4859  0.4545
 6138TIP3   OH218419   0.849   2.428   3.187 -0.2779  0.4236  0.0561
 6138TIP3    H118420   0.790   2.501   3.208  0.0887  0.6786  0.2198
 6138TIP3    H218421   0.797   2.371   3.130 -0.3756  1.1247 -0.5848
 6139TIP3   OH218422   0.430   4.885   3.710  0.3597  0.2623 -0.1319
 6139TIP3    H118423   0.488   4.913   3.781 -0.7515  2.9725 -0.2032
 6139TIP3    H218424   0.370   4.823   3.751  0.8936  0.3682  0.8337
 6140TIP3   OH218425   4.639   2.332   2.252 -0.2752 -0.2766 -0.3268
 6140TIP3    H118426   4.696   2.369   2.185  0.3754 -2.2661 -0.9508
 6140TIP3    H218427   4.697   2.307   2.323 -0.8341  0.7933  0.5501
 6141TIP3   OH218428   3.081   1.983   3.507 -0.9930  0.1486  0.2144
 6141TIP3    H118429   3.108   1.991   3.416  3.2999  1.6884  1.4078
 6141TIP3    H218430   3.049   2.070   3.531 -0.2151  0.3216  0.6562
 6142TIP3   OH218431   2.273   4.633   0.958  0.0202 -0.4335  0.0479
 6142TIP3    H118432   2.355   4.596   0.924  1.0378  1.9879 -0.2794
 6142TIP3    H218433   2.226   4.662   0.880  0.4047  1.2108  0.3879
 6143TIP3   OH218434   5.074   5.377   4.012  0.0752  0.4513 -0.1042
 6143TIP3    H118435   5.167   5.360   4.025 -0.0147 -0.7236 -0.8192
 6143TIP3    H218436   5.030   5.305   4.057 -0.4109  0.0981 -1.0990
 6144TIP3   OH218437   2.339   3.455   3.898  0.5546 -0.1567  0.5618
 6144TIP3    H118438   2.261   3.400   3.904  0.5912 -0.3172 -0.3070
 6144TIP3    H218439   2.307   3.538   3.862  1.2150 -1.3096 -3.1044
 6145TIP3   OH218440   1.165   1.304   4.665 -0.4487 -0.4594 -0.1952
 6145TIP3    H118441   1.166   1.216   4.702  0.2209  0.2369  1.5454
 6145TIP3    H218442   1.257   1.320   4.640 -0.5127 -0.1394 -0.2278
 6146TIP3   OH218443   5.298   2.069   1.658 -0.0650 -0.1769  0.1129
 6146TIP3    H118444   5.211   2.038   1.633  0.1128 -0.4439 -0.1754
 6146TIP3    H218445   5.341   1.992   1.697 -0.2612  0.1762  1.0483
 6147TIP3   OH218446   2.669   4.660   3.474  0.2102 -0.2642 -0.0813
 6147TIP3    H118447   2.627   4.596   3.531 -0.7744  1.9137  1.8252
 6147TIP3    H218448   2.735   4.702   3.529 -0.0453  1.1972 -0.8353
 6148TIP3   OH218449   5.261   1.242   0.177 -0.0350 -0.2244 -0.0087
 6148TIP3    H118450   5.173   1.206   0.180 -0.8436  1.5994 -0.4850
 6148TIP3    H218451   5.251   1.333   0.205  1.6560  0.0911 -0.3193
 6149TIP3   OH218452   5.339   3.970   0.569 -0.3682 -0.5584  0.4005
 6149TIP3    H118453   5.331   4.048   0.514  2.3891  0.8048  1.7266
 6149TIP3    H218454   5.278   3.985   0.642 -1.1961 -0.5478 -0.2837
 6150TIP3   OH218455   4.050   4.722   2.369  0.3924  0.2346 -0.9356
 6150TIP3    H118456   4.030   4.801   2.419 -0.7254 -0.7514  0.2540
 6150TIP3    H218457   4.010   4.738   2.283  2.1957  1.8790 -1.5615
 6151TIP3   OH218458   4.960   1.471   2.525  0.2868  0.1992 -0.0863
 6151TIP3    H118459   4.913   1.405   2.475  1.7777  0.5136 -1.9941
 6151TIP3    H218460   4.962   1.436   2.615 -1.8656 -0.6866 -0.3231
 6152TIP3   OH218461   4.704   0.778   0.789  0.3700 -0.0789  0.5006
 6152TIP3    H118462   4.692   0.870   0.813 -0.1646  0.2580 -0.9599
 6152TIP3    H218463   4.655   0.768   0.707  0.4111 -1.6716  0.6435
 6153TIP3   OH218464   1.400   0.439   3.641 -0.5590  0.3993 -0.0167
 6153TIP3    H118465   1.352   0.397   3.570 -1.4695  0.2944  0.6483
 6153TIP3    H218466   1.342   0.433   3.716  0.6070  0.0295  0.8881
 6154TIP3   OH218467   3.946   0.754   2.694  0.1894  0.0532 -0.3436
 6154TIP3    H118468   3.920   0.759   2.602 -0.3550  0.6998 -0.1599
 6154TIP3    H218469   3.904   0.829   2.735  0.8455  0.0587  0.3381
 6155TIP3   OH218470   3.868   3.757   4.170 -0.0470  0.3529 -0.0567
 6155TIP3    H118471   3.899   3.742   4.259  0.0747  1.0683  0.0311
 6155TIP3    H218472   3.925   3.703   4.116 -0.3574 -0.3680  0.3222
 6156TIP3   OH218473   1.298   1.397   4.069  0.2038 -0.4215 -0.3212
 6156TIP3    H118474   1.341   1.443   3.996  0.3550 -2.8871 -1.9200
 6156TIP3    H218475   1.364   1.396   4.139  0.0780  1.9429 -0.0889
 6157TIP3   OH218476   0.199   1.175   4.147 -0.1964  0.3123  0.1245
 6157TIP3    H118477   0.236   1.154   4.061  0.0642 -1.5280  0.6526
 6157TIP3    H218478   0.238   1.260   4.170  1.6765 -0.3409 -0.4715
 6158TIP3   OH218479   2.055   2.473   0.746  0.4997  0.0051  0.6397
 6158TIP3    H118480   2.097   2.510   0.823  1.3437  0.9121 -0.2190
 6158TIP3    H218481   2.128   2.438   0.694 -0.1892 -2.1136  0.9920
 6159TIP3   OH218482   2.205   5.219   1.605  0.5075  0.2786 -0.2673
 6159TIP3    H118483   2.274   5.170   1.561 -0.0224  0.5463 -1.4436
 6159TIP3    H218484   2.222   5.207   1.698  0.1543 -2.4630 -0.4921
 6160TIP3   OH218485   4.321   2.950   2.399 -0.0841  0.1306  0.0455
 6160TIP3    H118486   4.389   2.998   2.447  0.6098 -0.0792 -0.6870
 6160TIP3    H218487   4.369   2.909   2.326 -1.3565  1.8435 -1.8531
 6161TIP3   OH218488   2.017   0.981   0.225  0.1186  0.0745 -0.7571
 6161TIP3    H118489   2.089   0.990   0.164  0.5429 -0.1036 -0.2869
 6161TIP3    H218490   1.955   1.049   0.199  0.3212  0.0400 -1.3419
 6162TIP3   OH218491   5.928   1.215   4.576 -0.1610  0.2268  0.2111
 6162TIP3    H118492   5.935   1.176   4.489  0.3369 -0.0688  0.3798
 6162TIP3    H218493   5.857   1.166   4.618 -0.1951  0.1605  0.0772
 6163TIP3   OH218494   2.871   0.673   0.928  0.1426  0.8442 -0.4773
 6163TIP3    H118495   2.817   0.637   0.998  0.0911  0.0880 -0.8873
 6163TIP3    H218496   2.829   0.756   0.905  1.5689  2.3961  2.0693
 6164TIP3   OH218497   2.769   3.231   2.608  0.2446  1.1887  0.6247
 6164TIP3    H118498   2.779   3.296   2.677 -1.1358  2.7514 -0.5523
 6164TIP3    H218499   2.804   3.273   2.529 -1.2416  0.7937 -0.2958
 6165TIP3   OH218500   1.186   3.094   0.374  0.1539 -0.2718  0.2016
 6165TIP3    H118501   1.215   3.180   0.342 -0.1160 -0.8946 -1.8748
 6165TIP3    H218502   1.147   3.112   0.459 -0.9537  1.8713 -0.6838
 6166TIP3   OH218503   4.305   3.244   4.279  0.5579  0.1543  0.0426
 6166TIP3    H118504   4.330   3.258   4.370 -0.9197 -0.4840  0.5640
 6166TIP3    H218505   4.251   3.165   4.280 -0.2796  0.6771 -1.2438
 6167TIP3   OH218506   2.312   3.735   0.372 -0.3865 -0.0170 -0.5489
 6167TIP3    H118507   2.294   3.751   0.280 -0.4131  1.2922 -0.3425
 6167TIP3    H218508   2.235   3.769   0.418 -0.9464 -1.7898 -0.0898
 6168TIP3   OH218509   1.952   4.080   1.106 -0.2592 -0.2204  0.1088
 6168TIP3    H118510   1.975   4.127   1.025 -0.2109 -1.6267 -0.7316
 6168TIP3    H218511   2.035   4.065   1.150 -0.2361  0.1007  0.1832
 6169TIP3   OH218512   2.009   3.274   1.194 -0.3556 -0.7043 -0.1694
 6169TIP3    H118513   1.940   3.225   1.150 -0.7768 -1.3183  1.1215
 6169TIP3    H218514   2.081   3.277   1.130 -0.4579 -2.6672 -0.4637
 6170TIP3   OH218515   0.835   2.128   3.391 -0.0642 -0.1540  0.3407
 6170TIP3    H118516   0.861   2.081   3.311  1.5095  0.7382  0.2802
 6170TIP3    H218517   0.879   2.081   3.461  0.1547  0.2240  0.4599
 6171TIP3   OH218518   4.850   0.215   3.376  0.0324 -0.0522 -0.0229
 6171TIP3    H118519   4.862   0.155   3.450 -1.4877  0.1400  0.4133
 6171TIP3    H218520   4.759   0.204   3.351  0.5645 -0.2466 -2.0325
 6172TIP3   OH218521   4.895   3.990   1.812 -0.2376 -0.0755 -0.1204
 6172TIP3    H118522   4.956   4.064   1.809 -0.3919  0.4458  3.8992
 6172TIP3    H218523   4.808   4.031   1.817 -0.5729 -0.6697 -0.9038
 6173TIP3   OH218524   5.101   3.945   2.201  0.0330  0.2310  0.2806
 6173TIP3    H118525   5.079   3.917   2.290  0.9932 -0.7590  0.2318
 6173TIP3    H218526   5.050   4.024   2.188 -0.3564  0.2329  1.6096
 6174TIP3   OH218527   2.011   0.579   2.201  0.2238 -0.6315  0.0583
 6174TIP3    H118528   1.971   0.541   2.280  0.4327 -1.2414 -0.1264
 6174TIP3    H218529   1.962   0.541   2.128  0.6663 -0.8194 -0.1431
 6175TIP3   OH218530   0.165   4.340   4.186 -0.1451  0.6262  0.3670
 6175TIP3    H118531   0.234   4.379   4.132 -1.0178  2.3352  0.3933
 6175TIP3    H218532   0.094   4.323   4.124 -0.2201  0.2270  0.5650
 6176TIP3   OH218533   3.932   3.603   1.239  0.1988 -0.6803 -0.1313
 6176TIP3    H118534   3.902   3.674   1.182 -0.1065  0.5862  1.5474
 6176TIP3    H218535   3.929   3.640   1.327 -0.9040 -3.0614  0.9179
 6177TIP3   OH218536   5.035   3.915   3.956  0.2401 -0.4523  0.2313
 6177TIP3    H118537   5.097   3.951   3.892  1.4149 -3.2412 -0.3301
 6177TIP3    H218538   4.989   3.845   3.909 -2.8870  1.0022  0.8768
 6178TIP3   OH218539   2.646   5.760   0.986  0.3279  0.0356  0.2126
 6178TIP3    H118540   2.729   5.755   1.033 -0.1490 -0.7589  1.0183
 6178TIP3    H218541   2.580   5.765   1.056 -0.3426 -0.2178 -0.3968
 6179TIP3   OH218542   1.446   2.626   1.561 -0.2940  0.3364  0.1108
 6179TIP3    H118543   1.529   2.594   1.597 -0.8133 -1.3324 -0.0803
 6179TIP3    H218544   1.459   2.720   1.552  2.0819 -0.0206 -1.1513
 6180TIP3   OH218545   4.429   5.729   5.115  0.0831 -0.2378 -0.0765
 6180TIP3    H118546   4.504   5.717   5.057  0.6370  2.1387  0.0294
 6180TIP3    H218547   4.455   5.689   5.198  0.8153 -0.3622 -0.3661
 6181TIP3   OH218548   3.132   3.668   0.757 -0.3032 -0.1679 -0.1219
 6181TIP3    H118549   3.074   3.609   0.708  0.9551 -0.1542 -1.7123
 6181TIP3    H218550   3.108   3.655   0.849 -1.1258 -1.9986 -0.5511
 6182TIP3   OH218551   2.136   0.305   3.793  0.4712  0.0303 -0.0694
 6182TIP3    H118552   2.162   0.229   3.740  0.3523 -0.0675  0.0105
 6182TIP3    H218553   2.196   0.304   3.868  0.7832  0.2987 -0.3154
 6183TIP3   OH218554   3.050   4.305   2.258  0.0424 -0.2331  0.9098
 6183TIP3    H118555   3.016   4.304   2.168  0.1132  1.0296  0.8489
 6183TIP3    H218556   3.017   4.224   2.297  1.7297 -1.8781 -0.8560
 6184TIP3   OH218557   6.353   4.937   0.930  0.1524 -0.1895 -0.5227
 6184TIP3    H118558   6.305   4.854   0.922 -1.1041  0.5782 -1.1514
 6184TIP3    H218559   6.369   4.964   0.839  1.3953 -0.1931 -0.3249
 6185TIP3   OH218560   0.683   0.694   4.669  0.0126  0.5857  0.0946
 6185TIP3    H118561   0.662   0.674   4.578 -0.7738  1.1369  0.1443
 6185TIP3    H218562   0.637   0.777   4.687 -0.6347  0.0040  1.2654
 6186TIP3   OH218563   0.942   0.868   4.210  0.0680 -0.1314 -0.2011
 6186TIP3    H118564   0.958   0.863   4.305 -0.7652 -2.1844 -0.1227
 6186TIP3    H218565   0.870   0.931   4.201 -0.4580 -0.6054  0.6186
 6187TIP3   OH218566   1.014   1.280   5.140  0.1117  0.0458 -0.5571
 6187TIP3    H118567   1.021   1.196   5.185  0.0954  0.9911  1.2734
 6187TIP3    H218568   1.037   1.345   5.206 -0.2528  1.5205 -1.8270
 6188TIP3   OH218569   0.417   0.949   1.714  0.5011 -0.2292 -0.1182
 6188TIP3    H118570   0.494   0.895   1.730  1.5940  0.7477 -1.8663
 6188TIP3    H218571   0.428   0.982   1.625 -1.4072  0.8180 -0.0247
 6189TIP3   OH218572   1.452   1.913   3.912 -0.1549  0.0729  0.0209
 6189TIP3    H118573   1.470   1.874   3.997 -1.0957  1.3296  0.8245
 6189TIP3    H218574   1.374   1.868   3.881 -0.3589  0.2675  0.2522
 6190TIP3   OH218575   6.281   2.139   3.177  0.5816  0.0335  0.0672
 6190TIP3    H118576   6.243   2.065   3.224  2.3273 -2.8070 -2.5198
 6190TIP3    H218577   6.223   2.152   3.102  1.6884 -0.6473 -0.9519
 6191TIP3   OH218578   3.043   3.119   5.086 -0.3494 -0.5452  0.3113
 6191TIP3    H118579   2.952   3.092   5.099  0.0301 -1.0906  2.1108
 6191TIP3    H218580   3.073   3.066   5.012 -1.7561  0.3490 -0.9453
 6192TIP3   OH218581   2.540   2.791   0.601  0.4596 -0.3577  0.1402
 6192TIP3    H118582   2.494   2.727   0.547  1.1874 -0.4244 -0.4080
 6192TIP3    H218583   2.482   2.867   0.603  0.3726 -0.4048 -0.6319
 6193TIP3   OH218584   0.167   5.307   1.262 -0.7772  0.5607  0.4397
 6193TIP3    H118585   0.101   5.246   1.228 -0.7414  1.2052 -0.8393
 6193TIP3    H218586   0.117   5.384   1.288 -0.6665  0.5179  0.7941
 6194TIP3   OH218587   3.799   3.518   0.554 -0.1878  0.2046  0.2281
 6194TIP3    H118588   3.834   3.458   0.488  0.2415  0.3232  0.3391
 6194TIP3    H218589   3.737   3.465   0.604 -1.0378  0.3065 -0.6967
 6195TIP3   OH218590   4.176   0.546   3.315 -0.5090 -0.2566 -0.3275
 6195TIP3    H118591   4.194   0.471   3.259 -0.6309 -0.0184 -0.6875
 6195TIP3    H218592   4.144   0.614   3.256  1.1109  0.6278 -0.2430
 6196TIP3   OH218593   0.531   1.513   2.499 -0.2998  0.4815  0.5365
 6196TIP3    H118594   0.499   1.439   2.551  0.9619 -0.5890 -0.1321
 6196TIP3    H218595   0.573   1.571   2.564  0.0673 -0.1705  0.9036
 6197TIP3   OH218596   0.557   1.616   3.538 -0.4357 -0.4054  0.1698
 6197TIP3    H118597   0.522   1.613   3.627  1.8052  0.5438  1.1655
 6197TIP3    H218598   0.511   1.689   3.497 -0.4154  0.1336  1.0684
 6198TIP3   OH218599   3.142   1.791   3.263  0.4770  0.0445 -0.0131
 6198TIP3    H118600   3.150   1.711   3.210  1.5751  0.2564 -0.1857
 6198TIP3    H218601   3.225   1.836   3.252 -0.4049  1.6253 -0.5484
 6199TIP3   OH218602   5.341   1.095   3.967 -0.0119 -0.0601  0.7338
 6199TIP3    H118603   5.289   1.160   4.015  1.4542  1.7337  0.0389
 6199TIP3    H218604   5.429   1.102   4.004  0.8093  0.3164 -1.1332
 6200TIP3   OH218605   1.635   1.169   0.634 -0.5198  0.5930 -0.3598
 6200TIP3    H118606   1.667   1.164   0.724 -2.0609  2.1580  0.3387
 6200TIP3    H218607   1.713   1.185   0.581  0.4576 -0.6883  0.6373
 6201TIP3   OH218608   1.526   1.408   1.080  0.0121  0.3535  0.3971
 6201TIP3    H118609   1.477   1.337   1.121  0.0667  0.3637  0.4801
 6201TIP3    H218610   1.587   1.437   1.148  1.7800 -1.2261 -0.4057
 6202TIP3   OH218611   2.737   0.189   4.813  0.1321 -0.7676  0.1885
 6202TIP3    H118612   2.816   0.163   4.861 -0.2960 -2.6401 -0.0672
 6202TIP3    H218613   2.742   0.142   4.730 -0.6985 -0.0059 -0.3123
 6203TIP3   OH218614   4.443   5.948   4.561  0.3593 -0.3439  0.2729
 6203TIP3    H118615   4.490   5.951   4.478 -2.5661 -0.5153 -1.5586
 6203TIP3    H218616   4.418   5.856   4.572  1.1617 -0.4253  1.6591
 6204TIP3   OH218617   5.058   0.098   2.847 -0.2485  0.5099  0.7842
 6204TIP3    H118618   5.143   0.056   2.862 -0.8707 -1.2744 -0.3213
 6204TIP3    H218619   4.995   0.026   2.851 -1.3008  1.1271 -2.0783
 6205TIP3   OH218620   0.073   4.248   2.733  0.1109 -0.4120 -0.5110
 6205TIP3    H118621   0.019   4.214   2.662 -0.0408 -0.3916 -0.4085
 6205TIP3    H218622   0.028   4.218   2.813  0.4888 -0.7630 -0.4240
 6206TIP3   OH218623   5.233   3.460   3.350  0.1108  0.2682 -0.2022
 6206TIP3    H118624   5.226   3.365   3.346 -2.5220  0.1365  3.0816
 6206TIP3    H218625   5.319   3.477   3.386  0.5721 -0.8506 -0.7460
 6207TIP3   OH218626   2.142   2.729   2.191  0.3871 -0.2705 -0.4317
 6207TIP3    H118627   2.217   2.682   2.154  0.9038  1.3272 -1.5433
 6207TIP3    H218628   2.180   2.807   2.231 -0.3888 -1.0192  1.9197
 6208TIP3   OH218629   0.674   3.342   0.867  0.3277 -0.3141  0.1863
 6208TIP3    H118630   0.750   3.295   0.900 -0.3823 -0.3731  1.8058
 6208TIP3    H218631   0.613   3.346   0.941 -2.1490 -2.0459 -1.5628
 6209TIP3   OH218632   5.442   1.801   3.130  0.1445  0.1539  0.0344
 6209TIP3    H118633   5.349   1.784   3.116 -0.1025  1.2786  0.2285
 6209TIP3    H218634   5.483   1.784   3.045 -0.5352  1.5392 -0.5892
 6210TIP3   OH218635   6.038   0.941   3.605  0.5340 -0.0075  0.3962
 6210TIP3    H118636   6.006   1.009   3.546  1.5921 -1.1108 -1.5659
 6210TIP3    H218637   6.003   0.860   3.569  1.7494 -0.7762  0.8929
 6211TIP3   OH218638   6.376   5.073   3.633  0.1141 -0.2625 -0.0317
 6211TIP3    H118639   6.364   5.109   3.721 -1.1419 -0.1940 -0.2179
 6211TIP3    H218640   6.301   5.105   3.583  1.3284  0.5568 -1.4241
 6212TIP3   OH218641   1.883   3.798   1.729  0.2914 -0.4046  0.4491
 6212TIP3    H118642   1.902   3.748   1.650 -0.4514  2.0684 -1.3949
 6212TIP3    H218643   1.967   3.841   1.751 -0.1023  0.9626 -0.5893
 6213TIP3   OH218644   1.501   3.810   1.147 -0.3599 -0.7404 -0.2126
 6213TIP3    H118645   1.500   3.722   1.109  1.8336 -1.8765  2.1248
 6213TIP3    H218646   1.576   3.852   1.106 -0.7785 -0.2964 -0.5362
 6214TIP3   OH218647   2.446   0.825   1.985 -0.1519  0.0016  0.2535
 6214TIP3    H118648   2.489   0.866   2.060  0.6641  0.9038 -0.6728
 6214TIP3    H218649   2.364   0.792   2.020  0.6005 -0.3830  1.7340
 6215TIP3   OH218650   1.391   2.515   3.775  0.0408  0.2610  0.5142
 6215TIP3    H118651   1.339   2.523   3.695  3.6596  0.2586 -2.1205
 6215TIP3    H218652   1.435   2.430   3.766  1.2285  0.6809  2.0328
 6216TIP3   OH218653   1.974   0.220   0.820  0.2602  0.5185 -0.5865
 6216TIP3    H118654   1.992   0.273   0.897 -1.9887 -0.3534  0.6285
 6216TIP3    H218655   1.933   0.281   0.758  0.5267  0.8539 -0.4374
 6217TIP3   OH218656   4.390   5.495   2.146 -0.2971  0.7877  0.0452
 6217TIP3    H118657   4.387   5.415   2.198 -2.1871  1.2935  0.7958
 6217TIP3    H218658   4.481   5.523   2.151  0.1344 -0.6347  0.8111
 6218TIP3   OH218659   4.064   1.173   5.134  0.2681 -0.0065  0.0155
 6218TIP3    H118660   4.127   1.101   5.144  0.5655  0.0923 -1.0126
 6218TIP3    H218661   4.091   1.217   5.053 -1.6042 -0.4650 -0.9153
 6219TIP3   OH218662   5.538   4.692   4.023 -0.2771  0.0341 -0.5556
 6219TIP3    H118663   5.624   4.656   4.043 -1.0012 -0.2617  2.5119
 6219TIP3    H218664   5.552   4.786   4.018  0.2319  0.0006  0.0637
 6220TIP3   OH218665   5.698   2.310   2.928 -0.1341 -0.4409 -0.9317
 6220TIP3    H118666   5.681   2.219   2.904  1.1577 -0.6608 -1.0545
 6220TIP3    H218667   5.705   2.309   3.024 -0.2729 -0.4415 -0.9214
 6221TIP3   OH218668   3.926   1.866   1.161 -0.5726 -0.0681  0.2734
 6221TIP3    H118669   3.880   1.830   1.085  1.2102  0.8762 -1.3377
 6221TIP3    H218670   3.918   1.798   1.228 -0.3786 -1.8953 -1.4529
 6222TIP3   OH218671   5.612   2.333   1.258  0.3611  0.1519 -0.0522
 6222TIP3    H118672   5.700   2.344   1.222  1.2145 -2.4185  1.0156
 6222TIP3    H218673   5.560   2.301   1.185  1.0481 -1.0267 -0.0544
 6223TIP3   OH218674   3.697   0.566   5.022 -0.4838 -0.1367  0.1555
 6223TIP3    H118675   3.631   0.598   4.960 -0.2081  0.9689  0.4119
 6223TIP3    H218676   3.659   0.582   5.108 -0.3055 -0.4405  0.2924
 6224TIP3   OH218677   6.146   1.830   3.784 -0.1422  0.2037  0.0319
 6224TIP3    H118678   6.159   1.829   3.879  1.6657  0.5709 -0.1837
 6224TIP3    H218679   6.126   1.921   3.763 -1.9394 -0.1182  0.1928
 6225TIP3   OH218680   2.833   0.437   0.249  0.3297  0.1681  0.2919
 6225TIP3    H118681   2.758   0.492   0.273  0.0456 -0.0280 -0.1411
 6225TIP3    H218682   2.899   0.457   0.316 -0.8780 -1.3138  2.0308
 6226TIP3   OH218683   5.365   1.455   1.016 -0.0852 -0.1754 -0.7559
 6226TIP3    H118684   5.290   1.502   1.054 -1.1279  0.4319 -3.3489
 6226TIP3    H218685   5.436   1.519   1.015 -0.5679  0.3581 -1.3910
 6227TIP3   OH218686   4.206   2.172   3.341 -0.1528 -0.7711 -0.6251
 6227TIP3    H118687   4.156   2.213   3.411 -2.2078 -1.4739 -1.6084
 6227TIP3    H218688   4.280   2.232   3.326 -1.2969  0.8948  0.1423
 6228TIP3   OH218689   1.723   0.833   4.931 -0.4795 -0.2859  0.3558
 6228TIP3    H118690   1.688   0.905   4.877 -0.0976 -0.4396 -0.1068
 6228TIP3    H218691   1.810   0.816   4.894 -0.5986 -1.0358  0.4182
 6229TIP3   OH218692   1.867   4.564   3.508 -0.3796 -0.5390 -0.1533
 6229TIP3    H118693   1.922   4.604   3.441  1.1060 -0.3616  1.1039
 6229TIP3    H218694   1.778   4.593   3.487  0.2964  1.1378 -0.8765
 6230TIP3   OH218695   0.953   2.743   1.610 -0.4204  0.2318 -0.5129
 6230TIP3    H118696   0.903   2.681   1.663  1.7913 -0.8646  0.4290
 6230TIP3    H218697   0.986   2.808   1.673 -1.1779  1.3386 -1.2184
 6231TIP3   OH218698   3.243   5.300   1.477  0.3372  0.4672  0.3634
 6231TIP3    H118699   3.181   5.274   1.408  0.2120  2.3084 -0.2917
 6231TIP3    H218700   3.329   5.278   1.441  0.2510  1.1119 -0.2740
 6232TIP3   OH218701   6.035   0.640   1.761  0.6082 -0.0513 -0.2959
 6232TIP3    H118702   6.050   0.706   1.694  0.3333 -0.2140 -0.5215
 6232TIP3    H218703   6.061   0.558   1.720  1.4459 -0.0185  0.1638
 6233TIP3   OH218704   4.701   5.755   4.716 -0.0584 -0.7037  0.2437
 6233TIP3    H118705   4.614   5.796   4.720 -0.2847 -1.1727  0.1085
 6233TIP3    H218706   4.757   5.815   4.766 -0.3313 -0.0886 -0.1824
 6234TIP3   OH218707   4.635   4.608   1.412  0.0830 -0.0601  0.4412
 6234TIP3    H118708   4.698   4.538   1.423 -0.5052 -0.6049  0.4169
 6234TIP3    H218709   4.685   4.689   1.424  0.9549 -0.4555 -0.4719
 6235TIP3   OH218710   2.292   4.810   3.557 -0.1037 -0.2123 -0.4499
 6235TIP3    H118711   2.285   4.717   3.578 -0.6077 -0.4122 -1.4604
 6235TIP3    H218712   2.358   4.843   3.617  0.3784 -1.3071 -0.3560
 6236TIP3   OH218713   4.445   4.481   5.026 -0.7082 -0.1202 -0.1075
 6236TIP3    H118714   4.535   4.457   5.006 -1.0707 -1.3811 -0.2846
 6236TIP3    H218715   4.395   4.456   4.949 -1.0627  1.7164 -0.5304
 6237TIP3   OH218716   3.365   2.907   1.379  0.3409 -0.3050  0.9844
 6237TIP3    H118717   3.280   2.864   1.384  0.2364 -0.1137  0.8846
 6237TIP3    H218718   3.346   2.993   1.340  0.5876 -0.2851  0.9080
 6238TIP3   OH218719   1.401   0.642   2.083  0.4605 -0.3928 -0.1746
 6238TIP3    H118720   1.496   0.629   2.086  0.5792  0.2679 -0.8410
 6238TIP3    H218721   1.387   0.697   2.006 -0.4338 -0.2069  0.1156
 6239TIP3   OH218722   3.072   4.104   3.545 -0.6211 -0.0067 -0.0345
 6239TIP3    H118723   2.993   4.050   3.537 -0.5254 -0.2765  0.6896
 6239TIP3    H218724   3.115   4.071   3.624 -1.5413  2.3673  1.5729
 6240TIP3   OH218725   5.777   5.303   1.981 -0.3250 -0.5052  0.2222
 6240TIP3    H118726   5.784   5.314   1.887  1.1062 -1.9088  0.1198
 6240TIP3    H218727   5.702   5.245   1.994 -0.4266 -0.4371 -0.0677
 6241TIP3   OH218728   1.017   5.416   1.395  0.4941  0.0145 -0.3581
 6241TIP3    H118729   0.934   5.369   1.387  1.3108 -1.7871  1.0802
 6241TIP3    H218730   1.083   5.352   1.371  1.7538 -0.1623  3.0524
 6242TIP3   OH218731   4.839   4.057   3.598  0.0613 -0.2323  0.0516
 6242TIP3    H118732   4.822   4.034   3.506  0.1665 -0.9106  0.1932
 6242TIP3    H218733   4.758   4.099   3.627  0.1595  0.3086 -0.4530
 6243TIP3   OH218734   3.417   4.644   2.851 -0.9299 -0.2888  0.4657
 6243TIP3    H118735   3.459   4.726   2.876  0.0727 -0.5132 -0.4405
 6243TIP3    H218736   3.479   4.576   2.877 -2.0384 -0.8337  1.8286
 6244TIP3   OH218737   2.785   5.052   0.433  0.4387 -0.0457  0.3918
 6244TIP3    H118738   2.718   5.001   0.480  1.8750 -0.6741  1.8443
 6244TIP3    H218739   2.746   5.069   0.348 -2.0066  0.5090  1.5316
 6245TIP3   OH218740   5.748   0.800   2.791  0.2776  0.1645  0.0054
 6245TIP3    H118741   5.783   0.889   2.792 -0.8035  0.6132 -0.2598
 6245TIP3    H218742   5.659   0.808   2.825  0.5028 -0.9921  0.9592
 6246TIP3   OH218743   0.291   1.493   4.449 -0.9772 -0.4163 -0.3544
 6246TIP3    H118744   0.314   1.507   4.541  0.6108  1.0511 -0.9205
 6246TIP3    H218745   0.276   1.582   4.415 -1.9357 -0.9680 -1.4414
 6247TIP3   OH218746   5.068   1.766   3.641 -0.1391  0.1090 -0.1307
 6247TIP3    H118747   4.985   1.807   3.666 -0.1956  0.9493 -1.5838
 6247TIP3    H218748   5.121   1.838   3.607 -0.2404 -0.9338 -2.7702
 6248TIP3   OH218749   2.987   4.049   2.049  0.4921 -0.0778 -0.5190
 6248TIP3    H118750   2.949   4.014   2.130  0.4666 -1.5664 -1.1441
 6248TIP3    H218751   3.082   4.042   2.062  0.4871 -0.4273 -0.6487
 6249TIP3   OH218752   0.486   3.857   2.775 -0.7979  0.1839 -0.2850
 6249TIP3    H118753   0.495   3.951   2.791 -1.3177  0.4188 -1.3417
 6249TIP3    H218754   0.468   3.849   2.682 -1.4812 -0.9251 -0.0806
 6250TIP3   OH218755   0.664   3.151   4.749 -0.2548  0.1343 -0.4201
 6250TIP3    H118756   0.669   3.244   4.771  0.5907 -0.0755  0.3923
 6250TIP3    H218757   0.752   3.130   4.716 -0.6875 -0.1987 -1.3955
 6251TIP3   OH218758   0.541   2.836   0.187 -0.2551  0.2669 -0.8558
 6251TIP3    H118759   0.539   2.863   0.279  3.9773 -2.1220  0.1728
 6251TIP3    H218760   0.576   2.912   0.141  2.3571 -0.0264  0.4436
 6252TIP3   OH218761   6.139   2.095   3.660 -0.4305  0.4496 -0.1934
 6252TIP3    H118762   6.053   2.136   3.649 -0.7700  0.8904  3.1450
 6252TIP3    H218763   6.193   2.164   3.698  1.0297 -0.2255 -1.0012
 6253TIP3   OH218764   4.753   4.143   5.202  0.0140  0.4168 -0.2173
 6253TIP3    H118765   4.682   4.142   5.138 -0.9549  1.6088  0.7951
 6253TIP3    H218766   4.767   4.050   5.223 -0.7843  0.1213 -0.9266
 6254TIP3   OH218767   3.189   5.234   0.985 -0.5225  0.3122  0.1272
 6254TIP3    H118768   3.233   5.159   1.026 -0.4238  0.1559 -0.2628
 6254TIP3    H218769   3.252   5.305   0.990 -0.6531  0.3994  0.5883
 6255TIP3   OH218770   2.861   5.488   0.957 -0.2680  0.3221  0.4580
 6255TIP3    H118771   2.819   5.532   1.031 -1.0268  1.1199 -0.4226
 6255TIP3    H218772   2.876   5.399   0.988 -1.7966  0.2690  1.1318
 6256TIP3   OH218773   6.285   0.111   2.455 -0.3933 -0.1745 -0.0923
 6256TIP3    H118774   6.194   0.101   2.429 -0.7611 -0.7932  1.3192
 6256TIP3    H218775   6.282   0.110   2.551  1.1624 -0.8017 -0.0284
 6257TIP3   OH218776   4.405   4.728   1.270 -0.0681 -0.7606 -0.6307
 6257TIP3    H118777   4.476   4.681   1.314  0.3589 -0.4707 -1.0067
 6257TIP3    H218778   4.330   4.718   1.329  1.2875  2.5423  2.0590
 6258TIP3   OH218779   3.815   4.535   0.566 -0.3997 -0.1405 -0.2707
 6258TIP3    H118780   3.831   4.629   0.570 -0.1206 -0.1952 -0.0534
 6258TIP3    H218781   3.849   4.509   0.480 -1.1051  0.0683 -0.6191
 6259TIP3   OH218782   4.229   3.631   1.776  1.2017  0.0841  0.4122
 6259TIP3    H118783   4.290   3.559   1.762  1.9126  1.0592 -2.2719
 6259TIP3    H218784   4.285   3.706   1.796  0.7096  0.5211  0.1656
 6260TIP3   OH218785   2.400   2.658   1.518  0.1748 -0.1449  0.0520
 6260TIP3    H118786   2.353   2.705   1.448  0.3280  1.6952  1.1100
 6260TIP3    H218787   2.331   2.626   1.575  0.1093  0.0175  0.0650
 6261TIP3   OH218788   3.317   5.291   3.406  0.3278  0.3507 -0.0559
 6261TIP3    H118789   3.341   5.199   3.418 -0.7353  0.1989  1.0672
 6261TIP3    H218790   3.281   5.318   3.490  0.2883  1.6990 -0.4847
 6262TIP3   OH218791   4.708   1.143   2.157 -0.5063 -0.0147  0.2792
 6262TIP3    H118792   4.739   1.233   2.142  0.2441 -0.2858  0.1519
 6262TIP3    H218793   4.689   1.110   2.070 -1.5386  0.2793  0.3884
 6263TIP3   OH218794   5.920   4.994   0.248  0.3852 -0.0906  0.6805
 6263TIP3    H118795   5.942   5.057   0.180 -1.0150  1.2840  1.4194
 6263TIP3    H218796   5.833   4.962   0.225 -0.4856  1.0301  2.1833
 6264TIP3   OH218797   3.669   5.498   1.529 -0.4490  0.4369  0.0165
 6264TIP3    H118798   3.742   5.501   1.590 -0.7710  1.8027  0.3621
 6264TIP3    H218799   3.683   5.418   1.478  0.9519  0.3804  0.4703
 6265TIP3   OH218800   2.121   4.590   1.626 -0.7487  0.6147  0.0102
 6265TIP3    H118801   2.142   4.672   1.670 -2.2405  0.4322  1.1642
 6265TIP3    H218802   2.127   4.609   1.533  1.3743  1.3381  0.2475
 6266TIP3   OH218803   4.149   3.692   1.054 -0.1052  0.2647  0.7419
 6266TIP3    H118804   4.228   3.648   1.022 -0.3132  0.6726 -0.4113
 6266TIP3    H218805   4.130   3.651   1.138  0.8424 -0.4316  0.6315
 6267TIP3   OH218806   4.614   0.206   2.363 -0.2647  0.2971 -0.2987
 6267TIP3    H118807   4.525   0.185   2.394 -0.4496  1.0462 -0.3077
 6267TIP3    H218808   4.644   0.274   2.423  0.5779 -0.4199  0.1196
 6268TIP3   OH218809   3.819   5.742   5.046  0.5571 -0.0154 -0.5968
 6268TIP3    H118810   3.774   5.657   5.047  0.6153 -0.0441 -0.0322
 6268TIP3    H218811   3.803   5.778   5.133 -0.4572  1.0739 -1.1962
 6269TIP3   OH218812   3.346   0.392   4.061  0.0177 -0.5967 -0.0963
 6269TIP3    H118813   3.257   0.373   4.032 -0.8636  2.4150  0.3235
 6269TIP3    H218814   3.337   0.406   4.156  0.5969  1.1633 -0.2626
 6270TIP3   OH218815   3.700   0.680   3.591 -0.3245 -0.8037  0.2400
 6270TIP3    H118816   3.658   0.614   3.537 -1.8445  0.3078 -0.0100
 6270TIP3    H218817   3.629   0.716   3.645  0.3289  0.9911 -0.0409
 6271TIP3   OH218818   3.144   4.062   1.123 -0.0707  0.2619  0.6516
 6271TIP3    H118819   3.118   4.123   1.053 -1.3459 -0.3441  0.5580
 6271TIP3    H218820   3.152   3.978   1.079 -0.5001 -0.0503  1.1621
 6272TIP3   OH218821   3.544   3.994   3.999 -0.1608 -0.3299 -0.2683
 6272TIP3    H118822   3.563   4.068   4.057 -1.1949  0.8166 -1.3307
 6272TIP3    H218823   3.522   3.922   4.059  0.6232  0.2774  0.7838
 6273TIP3   OH218824   4.105   4.369   0.815  0.0084  0.1407  0.5391
 6273TIP3    H118825   4.079   4.437   0.878 -0.3012 -0.5235  1.1381
 6273TIP3    H218826   4.022   4.337   0.779  0.1852  0.5601 -0.2723
 6274TIP3   OH218827   3.910   1.757   1.871  0.2770 -0.3854  0.2727
 6274TIP3    H118828   3.894   1.826   1.934 -1.1738 -0.8003  0.3998
 6274TIP3    H218829   3.985   1.709   1.906  1.4511  1.2259  0.0602
 6275TIP3   OH218830   3.420   3.628   2.260 -0.0281 -0.4141  0.0230
 6275TIP3    H118831   3.372   3.545   2.266  0.0258 -0.3989  0.7459
 6275TIP3    H218832   3.423   3.647   2.166  1.1456 -1.9121 -0.2824
 6276TIP3   OH218833   6.132   2.796   1.954 -0.1881  0.4613  0.0771
 6276TIP3    H118834   6.063   2.843   1.908 -0.6997 -0.9848 -0.6858
 6276TIP3    H218835   6.172   2.862   2.011 -1.1370  1.7026 -0.6471
 6277TIP3   OH218836   5.197   1.639   0.860  0.0961  0.4494 -0.2208
 6277TIP3    H118837   5.137   1.644   0.934  2.6344  1.2073  1.9347
 6277TIP3    H218838   5.185   1.550   0.826 -1.4641  0.2431  0.7586
 6278TIP3   OH218839   5.615   4.800   2.057  0.2698  0.3777  0.1551
 6278TIP3    H118840   5.675   4.755   1.998  0.5009  1.4211 -0.4292
 6278TIP3    H218841   5.614   4.746   2.136  0.8231 -0.4431 -0.3905
 6279TIP3   OH218842   4.033   5.036   3.344 -0.4666 -0.2415  0.1382
 6279TIP3    H118843   4.095   5.000   3.281 -1.8629  0.2414 -1.6078
 6279TIP3    H218844   4.012   5.123   3.310 -2.9359 -0.8134 -0.0085
 6280TIP3   OH218845   1.295   4.792   2.915 -0.3881 -0.1409  0.3679
 6280TIP3    H118846   1.359   4.836   2.971  0.0700  0.7949 -0.8481
 6280TIP3    H218847   1.345   4.761   2.840 -1.4968  1.6733 -1.2042
 6281TIP3   OH218848   0.834   3.212   2.263  0.3348 -0.0383 -0.1080
 6281TIP3    H118849   0.900   3.180   2.325 -1.6154 -0.8557  1.6554
 6281TIP3    H218850   0.852   3.306   2.256  1.3974 -0.1533  0.6967
 6282TIP3   OH218851   1.296   2.927   4.295  0.1998 -0.9383  0.3911
 6282TIP3    H118852   1.204   2.928   4.322 -0.1926 -3.4979 -0.6174
 6282TIP3    H218853   1.295   2.948   4.202  0.6762 -0.8142  0.4069
 6283TIP3   OH218854   3.873   1.068   0.138 -0.0265  0.1160  0.2550
 6283TIP3    H118855   3.824   1.111   0.068  0.2424  0.5950  0.3556
 6283TIP3    H218856   3.914   0.993   0.095  0.2907  0.5139 -0.1453
 6284TIP3   OH218857   2.072   5.738   1.583 -0.5250  0.4359  0.0874
 6284TIP3    H118858   2.117   5.808   1.631  1.2787  0.9613 -2.1945
 6284TIP3    H218859   2.104   5.657   1.622  1.1635  0.8395 -0.3683
 6285TIP3   OH218860   3.392   0.300   0.426  0.2102  0.5179  0.1998
 6285TIP3    H118861   3.471   0.350   0.450  0.1900  0.2250  0.8939
 6285TIP3    H218862   3.408   0.212   0.460 -0.4375  0.4717  0.4007
 6286TIP3   OH218863   3.377   2.049   2.988 -0.2704 -0.3212 -0.3281
 6286TIP3    H118864   3.390   2.132   2.942 -3.0555  0.2229 -0.2886
 6286TIP3    H218865   3.380   2.073   3.081 -1.8085 -0.0798 -0.3173
 6287TIP3   OH218866   5.415   4.910   3.768  0.0919 -0.0431 -0.0731
 6287TIP3    H118867   5.432   4.915   3.862 -0.0978  1.2342 -0.0877
 6287TIP3    H218868   5.493   4.948   3.727  0.3620 -0.9886 -0.4601
 6288TIP3   OH218869   0.004   1.373   2.248 -0.0509 -0.0678  0.6684
 6288TIP3    H118870  -0.047   1.436   2.198  0.9423  0.1914 -0.0572
 6288TIP3    H218871   0.087   1.417   2.265  1.3766 -1.7475 -1.3733
 6289TIP3   OH218872   0.012   1.560   0.996 -0.2767 -0.1699  0.0871
 6289TIP3    H118873   0.092   1.587   1.040 -1.0855  1.0263  0.8736
 6289TIP3    H218874  -0.022   1.488   1.049 -0.3786  0.1661  0.4822
 6290TIP3   OH218875  -0.017   3.194   2.254  0.1855  0.1720 -0.6781
 6290TIP3    H118876   0.012   3.279   2.288  0.2549  1.0543 -2.8173
 6290TIP3    H218877   0.015   3.191   2.164 -0.0793 -2.0134 -0.7619
 6291TIP3   OH218878   6.033   4.550   0.288 -0.0478 -0.1387  0.2629
 6291TIP3    H118879   6.026   4.486   0.217 -0.4462 -0.0335  0.2055
 6291TIP3    H218880   5.972   4.619   0.264  1.1160  0.7655 -0.1822
 6292TIP3   OH218881   4.290   0.027   2.947  0.2500  0.3815  0.0415
 6292TIP3    H118882   4.347  -0.016   2.884  0.1445  0.5365 -0.1597
 6292TIP3    H218883   4.220   0.066   2.895 -1.1000 -1.3918  0.4310
 6293TIP3   OH218884   1.694   5.146   4.937 -0.2917  0.0514 -0.0573
 6293TIP3    H118885   1.672   5.125   4.846 -1.9624 -0.4845  0.4275
 6293TIP3    H218886   1.614   5.126   4.986  0.3963  0.8412  1.4609
 6294TIP3   OH218887   5.096   2.375   4.518  0.0483 -0.0355  0.3949
 6294TIP3    H118888   5.114   2.354   4.426  2.5325  2.0502  0.2909
 6294TIP3    H218889   5.045   2.457   4.514 -1.1542 -0.7281  0.9075
 6295TIP3   OH218890   2.422   3.055   0.577  0.4831  0.0001 -0.0009
 6295TIP3    H118891   2.352   3.107   0.617  1.1348 -0.0640  1.3004
 6295TIP3    H218892   2.482   3.121   0.541 -0.8167  0.0341 -2.2164
 6296TIP3   OH218893   5.910   2.423   1.785 -0.2342  0.1688  0.3531
 6296TIP3    H118894   5.926   2.430   1.691  2.1027 -0.3083  0.6530
 6296TIP3    H218895   5.850   2.349   1.794 -1.8304  1.2434 -0.8197
 6297TIP3   OH218896   2.113   1.947   3.074 -0.0790  0.2486  0.2929
 6297TIP3    H118897   2.126   1.884   3.145 -1.2132  0.1606  0.4394
 6297TIP3    H218898   2.020   1.969   3.079 -0.0064  0.8018 -0.7044
 6298TIP3   OH218899   3.522   4.849   0.144  0.2681  0.5192 -0.2087
 6298TIP3    H118900   3.496   4.913   0.078 -1.3143  1.2690  1.0676
 6298TIP3    H218901   3.468   4.869   0.220  1.2573 -0.9960  0.9717
 6299TIP3   OH218902   0.099   5.379   3.505 -0.1307  0.3853  0.0791
 6299TIP3    H118903   0.007   5.359   3.490 -0.0216  0.3726 -0.5845
 6299TIP3    H218904   0.144   5.348   3.427  0.4305  0.4618  0.3630
 6300TIP3   OH218905   3.093   0.159   4.677  0.3525 -0.3118 -0.6181
 6300TIP3    H118906   3.047   0.236   4.643  1.0264  0.3202 -0.1358
 6300TIP3    H218907   3.038   0.127   4.747 -0.3454 -0.7719 -1.3684
 6301TIP3   OH218908   5.358   3.771   0.245  0.3222  0.6398  0.5592
 6301TIP3    H118909   5.360   3.722   0.327 -0.1802 -0.4493 -0.0595
 6301TIP3    H218910   5.335   3.706   0.179  1.7402  1.2939 -0.6125
 6302TIP3   OH218911   2.454   4.311   4.028 -0.1762 -0.3639 -0.1520
 6302TIP3    H118912   2.542   4.343   4.007  0.0289 -0.2773  0.7932
 6302TIP3    H218913   2.434   4.351   4.112 -1.1370 -0.3674 -0.3662
 6303TIP3   OH218914   4.124   1.990   2.974 -0.7468  0.2695 -0.3972
 6303TIP3    H118915   4.116   2.080   3.006  0.0988 -0.5489  2.4456
 6303TIP3    H218916   4.201   1.991   2.918  0.9246  0.8799  1.7562
 6304TIP3   OH218917   5.553   5.364   3.114 -0.0023 -0.7996  0.4509
 6304TIP3    H118918   5.502   5.380   3.035  0.3883 -0.1207  0.3222
 6304TIP3    H218919   5.604   5.286   3.095 -0.4517 -1.0630  0.3105
 6305TIP3   OH218920   0.299   4.932   3.053 -0.1893  0.7391  0.8653
 6305TIP3    H118921   0.244   4.982   2.993  0.0076  0.0021  0.0600
 6305TIP3    H218922   0.271   4.841   3.041  0.2350  0.5251  1.4852
 6306TIP3   OH218923   1.634   3.052   4.086 -0.5430  0.1700  0.0717
 6306TIP3    H118924   1.593   3.075   4.003  0.0596 -0.9757 -0.5676
 6306TIP3    H218925   1.700   2.986   4.063 -0.1583  0.0470  1.4202
 6307TIP3   OH218926   3.989   2.230   4.105 -0.5811  0.6000  0.0295
 6307TIP3    H118927   3.944   2.311   4.131  0.2727  0.7379  1.1938
 6307TIP3    H218928   4.012   2.243   4.013 -1.6219  1.1187 -0.1710
 6308TIP3   OH218929   4.645   3.704   4.041 -0.7947  0.0458  0.0058
 6308TIP3    H118930   4.739   3.687   4.041 -0.9501 -1.1135 -2.0991
 6308TIP3    H218931   4.623   3.718   3.949 -2.7472 -0.0381  0.4168
 6309TIP3   OH218932   4.158   0.468   1.994 -0.3426 -0.5237 -0.3633
 6309TIP3    H118933   4.147   0.403   2.064 -1.8138 -0.9165 -0.9143
 6309TIP3    H218934   4.169   0.415   1.915  1.9384 -0.0870 -0.3801
 6310TIP3   OH218935   3.825   5.781   0.736  0.3917  0.0263  0.1414
 6310TIP3    H118936   3.782   5.864   0.759  0.8753  0.0930  0.8319
 6310TIP3    H218937   3.918   5.803   0.728  0.5388 -0.4665  0.4450
 6311TIP3   OH218938   1.469   1.642   3.545 -0.3679  0.5796 -0.2031
 6311TIP3    H118939   1.469   1.645   3.450 -2.6801 -3.1411 -0.5460
 6311TIP3    H218940   1.392   1.691   3.571 -1.9672 -1.5203 -0.6790
 6312TIP3   OH218941   0.736   4.750   3.658 -0.4407  0.2003  0.2303
 6312TIP3    H118942   0.762   4.779   3.571  0.7618 -0.9560  0.1667
 6312TIP3    H218943   0.652   4.706   3.645 -0.0173 -0.4359 -0.4572
 6313TIP3   OH218944   5.230   2.464   1.249 -0.9351 -0.2042 -0.0089
 6313TIP3    H118945   5.184   2.548   1.249 -1.6027 -0.5181  2.3440
 6313TIP3    H218946   5.295   2.473   1.318  0.8463 -0.7199 -1.5345
 6314TIP3   OH218947   2.370   1.996   3.257  0.2078 -0.0277  0.5573
 6314TIP3    H118948   2.308   1.983   3.329  0.9385 -1.0435  1.0331
 6314TIP3    H218949   2.325   1.965   3.179 -1.4946  3.1924  0.0671
 6315TIP3   OH218950   4.522   0.054   3.854 -0.4430  0.0915  0.0665
 6315TIP3    H118951   4.563   0.086   3.774 -0.3630 -0.8258 -0.2702
 6315TIP3    H218952   4.441   0.105   3.862 -0.7225 -0.1649 -0.8960
 6316TIP3   OH218953   0.056   2.424   4.051 -0.2235 -0.0747 -0.3118
 6316TIP3    H118954   0.032   2.427   4.144  0.1423 -0.3864 -0.2054
 6316TIP3    H218955   0.078   2.332   4.035  0.2135  0.0751 -0.5809
 6317TIP3   OH218956   5.635   2.576   0.067 -0.6315  0.2934 -0.2031
 6317TIP3    H118957   5.677   2.512   0.125 -1.1673  0.3300  0.2408
 6317TIP3    H218958   5.543   2.548   0.064 -1.1887  1.7932  1.1047
 6318TIP3   OH218959   5.331   1.345   3.204 -0.0865  0.0342 -0.3546
 6318TIP3    H118960   5.378   1.316   3.282  0.5414  0.8242 -0.4203
 6318TIP3    H218961   5.262   1.279   3.191  0.4791 -0.6954  0.2315
 6319TIP3   OH218962   2.603   2.242   3.970  0.5967  0.2063 -0.1073
 6319TIP3    H118963   2.600   2.224   3.876  0.1781  0.1069 -0.0786
 6319TIP3    H218964   2.553   2.323   3.980 -0.0037 -0.1783  0.1140
 6320TIP3   OH218965   0.994   1.775   0.014 -0.2637  0.4226  0.1994
 6320TIP3    H118966   0.909   1.748  -0.022 -0.0376  1.0925 -0.8798
 6320TIP3    H218967   0.973   1.841   0.080 -0.5338  1.4709 -0.9135
 6321TIP3   OH218968   2.810   2.342   2.650 -0.1059  0.0755  0.0932
 6321TIP3    H118969   2.825   2.429   2.614 -1.8841  0.0435 -0.8712
 6321TIP3    H218970   2.784   2.358   2.741 -2.0590  0.7514 -0.5239
 6322TIP3   OH218971   5.623   0.273   4.716  0.3429  0.0862  0.0672
 6322TIP3    H118972   5.602   0.294   4.625  1.2270 -1.9218 -0.6684
 6322TIP3    H218973   5.712   0.307   4.728  0.5593 -0.4168 -0.1041
 6323TIP3   OH218974   0.648   0.635   0.546 -0.3903 -0.5232 -0.1269
 6323TIP3    H118975   0.735   0.622   0.509  1.1007 -1.1445  3.1983
 6323TIP3    H218976   0.606   0.549   0.538  0.7312 -1.2623  1.3850
 6324TIP3   OH218977   5.632   0.017   4.835  0.7110  0.1409  0.3272
 6324TIP3    H118978   5.554  -0.039   4.838  0.8920 -0.0846  2.7185
 6324TIP3    H218979   5.599   0.103   4.811 -0.0138 -0.3021 -0.3230
 6325TIP3   OH218980   3.708   2.113   2.012  0.1613 -0.9457 -0.4052
 6325TIP3    H118981   3.690   2.142   1.922  1.1205 -0.9876 -0.6158
 6325TIP3    H218982   3.622   2.089   2.046 -0.3767  0.1055 -0.9436
 6326TIP3   OH218983   1.993   3.691   3.993  0.5426  0.3218 -0.0542
 6326TIP3    H118984   2.012   3.608   3.949 -0.9647 -0.4607  0.7142
 6326TIP3    H218985   1.923   3.730   3.941  0.5014  0.5980  0.2067
 6327TIP3   OH218986   1.789   4.014   0.404  0.0770  0.6465 -0.0720
 6327TIP3    H118987   1.723   4.045   0.465  1.2381  0.8845  1.1178
 6327TIP3    H218988   1.773   3.920   0.395 -0.4037  0.7003  0.1964
 6328TIP3   OH218989   4.927   4.529   1.176 -0.0623 -0.3907 -0.0557
 6328TIP3    H118990   4.955   4.445   1.140  1.8573  0.0923  0.2207
 6328TIP3    H218991   4.984   4.542   1.252  1.1376  2.1134 -1.2918
 6329TIP3   OH218992   1.150   5.184   4.636 -0.0380 -0.3720  0.2113
 6329TIP3    H118993   1.222   5.209   4.693  1.1809 -0.7074 -1.1132
 6329TIP3    H218994   1.182   5.108   4.588 -1.2810 -0.5292 -0.4249
 6330TIP3   OH218995   4.519   2.964   1.194 -0.2089 -0.0151 -0.3422
 6330TIP3    H118996   4.463   2.888   1.175  0.3894 -0.2247 -1.3593
 6330TIP3    H218997   4.520   3.014   1.112 -0.3561  0.9391  0.2289
 6331TIP3   OH218998   0.900   2.963   3.297 -0.3805 -0.4111  0.6679
 6331TIP3    H118999   0.914   3.048   3.255  1.6240 -1.2659 -0.5785
 6331TIP3    H219000   0.912   2.980   3.390  2.2622  0.3554  0.2768
 6332TIP3   OH219001   4.874   1.068   1.242 -0.0992  0.0835 -0.0291
 6332TIP3    H119002   4.864   0.995   1.303 -0.1759 -1.1998 -1.4944
 6332TIP3    H219003   4.965   1.095   1.250  0.1240 -0.6657  0.0344
 6333TIP3   OH219004   3.381   4.524   1.951  0.3200 -0.1133  0.1474
 6333TIP3    H119005   3.373   4.617   1.970 -0.6838 -0.2073  0.2874
 6333TIP3    H219006   3.469   4.513   1.916  0.6121  0.8065  0.5743
 6334TIP3   OH219007   1.964   5.087   1.738  0.2627 -0.2177  0.0232
 6334TIP3    H119008   2.031   5.116   1.801 -0.5575 -1.1577  1.3955
 6334TIP3    H219009   1.892   5.149   1.750 -0.2250 -0.8876  0.6463
 6335TIP3   OH219010   2.006   2.210   0.462  0.1337 -0.0556  0.0678
 6335TIP3    H119011   1.969   2.181   0.546 -1.9588  3.4961  0.6261
 6335TIP3    H219012   2.098   2.228   0.482  0.3525 -1.8135  0.8135
 6336TIP3   OH219013   1.220   4.263   0.501  0.1355 -0.4327  0.2596
 6336TIP3    H119014   1.163   4.189   0.519 -0.3632 -0.9394 -2.8790
 6336TIP3    H219015   1.168   4.340   0.525 -1.6499 -0.9238 -1.7447
 6337TIP3   OH219016   5.789   4.162   3.567 -0.2475 -0.1246 -0.1374
 6337TIP3    H119017   5.715   4.128   3.516  0.0037  0.8391 -1.1964
 6337TIP3    H219018   5.840   4.084   3.590 -1.7177 -0.8415  0.8727
 6338TIP3   OH219019   0.692   3.320   3.632 -0.4091  0.1371  0.3751
 6338TIP3    H119020   0.641   3.307   3.712 -0.4649 -0.5765  0.2229
 6338TIP3    H219021   0.665   3.249   3.574 -0.1154  0.4513 -0.1540
 6339TIP3   OH219022   3.298   4.341   0.276  0.0842 -0.5726 -0.4650
 6339TIP3    H119023   3.338   4.255   0.262  0.7412 -0.1761 -1.0913
 6339TIP3    H219024   3.311   4.358   0.369 -0.1887 -1.2210 -0.3032
 6340TIP3   OH219025   1.633   0.336   4.623 -0.7832 -0.0002  0.0639
 6340TIP3    H119026   1.569   0.314   4.691 -1.2195  0.7393 -0.0968
 6340TIP3    H219027   1.698   0.390   4.667 -0.4223 -0.4930  0.1534
 6341TIP3   OH219028   4.932   2.671   3.756 -0.0846 -0.1592  0.0591
 6341TIP3    H119029   4.880   2.630   3.686 -1.6310  1.3384  0.2732
 6341TIP3    H219030   4.875   2.668   3.833  1.6176 -1.8361  1.3523
 6342TIP3   OH219031   0.917   5.910   0.087 -0.1395 -0.1759 -0.4378
 6342TIP3    H119032   0.866   5.985   0.118  1.0787  0.8585 -0.8121
 6342TIP3    H219033   1.006   5.928   0.117  0.3657 -0.9614 -1.4113
 6343TIP3   OH219034   1.142   3.453   0.716 -0.0002 -0.0459 -0.2151
 6343TIP3    H119035   1.115   3.511   0.644 -0.2922  1.0270  0.7300
 6343TIP3    H219036   1.235   3.437   0.699  0.4315  1.7844  0.1873
 6344TIP3   OH219037   3.817   2.474   1.884  0.8463  0.3333 -0.1277
 6344TIP3    H119038   3.872   2.420   1.828 -1.2421 -0.5322 -1.4776
 6344TIP3    H219039   3.840   2.449   1.973  2.0087 -0.6014 -0.6690
 6345TIP3   OH219040   2.758   5.910   0.046 -0.3729  0.2072  0.1820
 6345TIP3    H119041   2.775   5.864   0.129  0.7845  0.1060 -0.1020
 6345TIP3    H219042   2.813   5.988   0.050 -0.7287  0.4878 -0.2716
 6346TIP3   OH219043   3.312   3.347   3.597 -0.3155 -0.7985  0.4405
 6346TIP3    H119044   3.372   3.290   3.548 -0.4311 -0.2639 -0.3431
 6346TIP3    H219045   3.248   3.287   3.636 -0.5460 -1.1889 -0.5225
 6347TIP3   OH219046   4.673   0.639   3.585  0.0384 -0.2534 -0.1036
 6347TIP3    H119047   4.603   0.675   3.530  0.6674  0.8543 -0.2042
 6347TIP3    H219048   4.636   0.637   3.673  0.5429  2.3945  0.2549
 6348TIP3   OH219049   4.838   3.054   0.609 -0.5349 -0.1085 -0.2665
 6348TIP3    H119050   4.840   3.089   0.519  1.4984  2.8787  0.7701
 6348TIP3    H219051   4.751   3.078   0.641  0.3309  3.1881 -0.0393
 6349TIP3   OH219052   3.057   3.684   0.468 -0.1858 -0.0383 -0.0427
 6349TIP3    H119053   3.011   3.615   0.515  0.5088 -0.2982  0.2723
 6349TIP3    H219054   3.149   3.672   0.493 -0.2504  2.0774  1.4033
 6350TIP3   OH219055   0.481   3.218   1.540 -0.4019  0.7247 -0.1760
 6350TIP3    H119056   0.429   3.252   1.467 -0.1594 -0.2917 -0.8325
 6350TIP3    H219057   0.431   3.245   1.618  0.5133  3.8347 -0.5364
 6351TIP3   OH219058   5.282   1.603   2.804 -0.8196 -0.7360 -0.1483
 6351TIP3    H119059   5.289   1.603   2.900 -1.7695 -0.8626 -0.0675
 6351TIP3    H219060   5.285   1.695   2.779 -3.1740 -0.4755  0.2495
 6352TIP3   OH219061   5.644   5.744   4.064  0.3591  0.2910  0.1089
 6352TIP3    H119062   5.563   5.724   4.016  0.5607  0.6509 -0.3900
 6352TIP3    H219063   5.714   5.717   4.004  0.6097 -0.3652  0.6876
 6353TIP3   OH219064   4.314   0.733   4.044 -0.0098  1.1137  0.6514
 6353TIP3    H119065   4.299   0.821   4.011  0.5543  1.4460  1.2471
 6353TIP3    H219066   4.229   0.703   4.075 -0.5633  0.7754 -1.1012
 6354TIP3   OH219067   4.720   1.663   3.753 -0.2106  0.2470  0.4305
 6354TIP3    H119068   4.749   1.575   3.777  0.7618  0.2961 -0.4857
 6354TIP3    H219069   4.644   1.650   3.697 -0.4605  0.0249  0.8146
 6355TIP3   OH219070   2.135   3.026   2.502 -0.0566  0.0362 -0.6052
 6355TIP3    H119071   2.204   3.001   2.441 -1.6982 -1.0090 -2.0931
 6355TIP3    H219072   2.136   2.957   2.569  1.1399  0.7102  0.1235
 6356TIP3   OH219073   6.319   2.046   2.382 -0.4177  0.2200 -0.3545
 6356TIP3    H119074   6.389   2.046   2.447 -0.4691  0.9046 -0.2921
 6356TIP3    H219075   6.335   1.967   2.329 -0.3742 -0.3449  0.4779
 6357TIP3   OH219076   1.742   5.200   2.115  0.2385 -0.2990 -0.1921
 6357TIP3    H119077   1.682   5.125   2.115 -0.1188 -0.0204 -0.8860
 6357TIP3    H219078   1.819   5.168   2.069 -0.6011  0.2711 -2.0864
 6358TIP3   OH219079   5.105   4.074   3.510 -0.2321 -0.1160  0.0261
 6358TIP3    H119080   5.017   4.101   3.536  0.3985  1.3206  0.8240
 6358TIP3    H219081   5.157   4.084   3.590  0.5626 -1.4795 -0.2837
 6359TIP3   OH219082   5.431   5.416   1.983  0.5241  0.3665  0.1764
 6359TIP3    H119083   5.463   5.436   2.071  1.6781 -1.1025  0.1338
 6359TIP3    H219084   5.350   5.467   1.975 -0.9307 -1.2061  3.0021
 6360TIP3   OH219085   5.975   2.583   5.135  0.0341  0.1103  0.2323
 6360TIP3    H119086   6.056   2.545   5.102  0.7147  0.2716  1.6477
 6360TIP3    H219087   5.934   2.512   5.184 -0.3508  0.2248  0.0764
 6361TIP3   OH219088   0.262   0.222   2.628 -0.4170 -0.9926  0.3203
 6361TIP3    H119089   0.223   0.136   2.644  1.8137 -2.1450  0.0208
 6361TIP3    H219090   0.205   0.263   2.563 -3.9896 -0.3455  3.4829
 6362TIP3   OH219091   6.198   0.464   0.622 -0.4459  0.0744 -0.4964
 6362TIP3    H119092   6.122   0.479   0.567 -0.3399  0.2310 -0.6024
 6362TIP3    H219093   6.242   0.550   0.626 -0.6233  0.1430  0.0885
 6363TIP3   OH219094   3.882   2.824   4.939  0.2653  0.1364  0.5548
 6363TIP3    H119095   3.790   2.850   4.941  0.5211  1.1038  0.5572
 6363TIP3    H219096   3.881   2.733   4.910 -0.6230  0.4800 -0.5827
 6364TIP3   OH219097   3.549   5.228   2.809  0.3426  0.2723 -0.3090
 6364TIP3    H119098   3.564   5.269   2.724  1.5815 -1.0657 -0.7686
 6364TIP3    H219099   3.636   5.222   2.849 -0.1958  0.7297  1.0057
 6365TIP3   OH219100   1.400   3.251   3.216 -0.0095  0.3774 -0.7334
 6365TIP3    H119101   1.429   3.317   3.153  1.1212  0.1423 -0.4816
 6365TIP3    H219102   1.409   3.168   3.170 -0.7160  0.3287 -0.7953
 6366TIP3   OH219103   2.206   1.075   0.796  0.0156  0.2534 -0.1322
 6366TIP3    H119104   2.288   1.100   0.839  0.0933  0.0112 -0.1400
 6366TIP3    H219105   2.138   1.119   0.847  0.2851  2.6088 -1.6530
 6367TIP3   OH219106   0.765   1.266   0.492  0.0446 -0.4467 -0.2372
 6367TIP3    H119107   0.741   1.175   0.474  0.6481 -0.5424 -0.5975
 6367TIP3    H219108   0.795   1.299   0.407 -0.0781  0.0598 -0.0845
 6368TIP3   OH219109   0.204   1.578   2.374  0.1242  0.2412  0.1239
 6368TIP3    H119110   0.298   1.570   2.357  0.2925 -1.5096  1.5760
 6368TIP3    H219111   0.185   1.670   2.358  1.4326  0.0921 -3.1139
 6369TIP3   OH219112   1.599   3.961   3.235 -0.0572 -0.2761 -0.1842
 6369TIP3    H119113   1.569   4.029   3.174 -1.7522  0.0003  0.8922
 6369TIP3    H219114   1.619   3.886   3.179  1.4815  0.9355 -1.3618
 6370TIP3   OH219115   4.299   2.365   1.041  0.3348 -0.0893 -0.2834
 6370TIP3    H119116   4.228   2.339   1.100 -0.4454 -0.1298 -1.2216
 6370TIP3    H219117   4.293   2.461   1.038 -1.2201 -0.1832 -2.1691
 6371TIP3   OH219118   2.307   3.328   3.058  0.0800 -0.2676 -0.6956
 6371TIP3    H119119   2.229   3.277   3.081  0.4883 -1.2053 -1.3048
 6371TIP3    H219120   2.277   3.418   3.054 -0.1623 -0.0515  2.8846
 6372TIP3   OH219121   3.454   5.144   3.929  0.2146  0.1506 -0.3065
 6372TIP3    H119122   3.544   5.113   3.944 -0.4575 -1.8467 -0.0809
 6372TIP3    H219123   3.465   5.224   3.877  2.1420  0.5378  0.5780
 6373TIP3   OH219124   0.839   1.780   4.894  0.1980 -0.2454 -0.2626
 6373TIP3    H119125   0.774   1.726   4.850  2.2156 -1.3856 -2.0379
 6373TIP3    H219126   0.870   1.726   4.967  1.6571 -1.2569 -1.5720
 6374TIP3   OH219127   0.762   2.162   0.213  0.1481 -0.1806 -0.2832
 6374TIP3    H119128   0.793   2.072   0.205  0.8619  0.1922 -2.3649
 6374TIP3    H219129   0.677   2.161   0.169 -1.2812 -0.4156  2.2813
 6375TIP3   OH219130   2.466   0.915   2.618  0.5789 -0.2599  0.4263
 6375TIP3    H119131   2.492   0.836   2.666  1.8977  0.2686  0.6193
 6375TIP3    H219132   2.423   0.970   2.684  0.9696 -0.2036  0.6352
 6376TIP3   OH219133   5.766   5.127   4.821  0.8552  0.2680 -1.1631
 6376TIP3    H119134   5.780   5.044   4.867  0.1178  0.8122  0.1044
 6376TIP3    H219135   5.853   5.165   4.813  0.9264  0.5413  0.5785
 6377TIP3   OH219136   2.704   0.551   1.106 -0.0653 -0.0562 -0.1630
 6377TIP3    H119137   2.713   0.457   1.124  1.6159 -0.0521 -0.8326
 6377TIP3    H219138   2.612   0.570   1.124 -0.5810 -1.9537 -0.6052
 6378TIP3   OH219139   2.698   2.332   0.242 -0.2630 -0.7640 -0.4228
 6378TIP3    H119140   2.709   2.414   0.290 -0.4892 -1.2857  0.5498
 6378TIP3    H219141   2.689   2.266   0.310  0.3867 -1.6679 -1.1856
 6379TIP3   OH219142   4.863   1.218   1.015  0.2436  0.4819  0.3058
 6379TIP3    H119143   4.842   1.147   1.076 -0.0037  0.0491 -0.2715
 6379TIP3    H219144   4.956   1.237   1.032 -0.0342  0.9618  1.4078
 6380TIP3   OH219145   1.699   2.423   2.469  0.3010  0.0036 -0.0009
 6380TIP3    H119146   1.751   2.358   2.515 -0.9709 -1.8179 -1.0291
 6380TIP3    H219147   1.609   2.404   2.494 -0.1012  1.4058 -0.3066
 6381TIP3   OH219148   4.304   1.185   2.576  0.1111 -0.0859  0.1110
 6381TIP3    H119149   4.213   1.192   2.606 -0.1708 -0.5513 -0.6248
 6381TIP3    H219150   4.299   1.198   2.481  0.5089 -2.3974 -0.2851
 6382TIP3   OH219151   4.839   3.533   3.799  0.1613 -0.3115  0.4901
 6382TIP3    H119152   4.911   3.509   3.741 -0.0498 -0.5701  0.3346
 6382TIP3    H219153   4.858   3.623   3.825 -1.3293  0.9500 -2.3889
 6383TIP3   OH219154   5.144   2.745   0.447 -0.1110  0.5123  0.0187
 6383TIP3    H119155   5.052   2.746   0.474  0.2623  0.3278  1.3951
 6383TIP3    H219156   5.187   2.691   0.514  1.1540  1.3933 -0.0634
 6384TIP3   OH219157   3.651   5.538   5.057 -0.3664 -0.0025 -0.0555
 6384TIP3    H119158   3.595   5.556   5.133  2.0439  0.8923  1.6185
 6384TIP3    H219159   3.631   5.448   5.033 -0.9883 -0.4023  1.8156
 6385TIP3   OH219160   4.646   4.659   3.137 -0.1550 -0.2771  0.0699
 6385TIP3    H119161   4.581   4.605   3.092 -3.2846  3.0222  0.1787
 6385TIP3    H219162   4.615   4.662   3.228  1.6453 -0.6241  0.7239
 6386TIP3   OH219163   1.803   5.361   0.698  0.4213  0.6299  0.2415
 6386TIP3    H119164   1.809   5.307   0.618 -0.3701  2.9382 -1.4886
 6386TIP3    H219165   1.720   5.333   0.738  0.7531 -0.4606  0.1979
 6387TIP3   OH219166   1.581   4.733   3.494  0.3999  0.1812  0.0440
 6387TIP3    H119167   1.546   4.780   3.570  0.4388 -0.1506  0.2744
 6387TIP3    H219168   1.504   4.692   3.454  0.4407 -0.0395  0.1884
 6388TIP3   OH219169   5.378   1.533   0.572 -0.1900  0.2221 -0.6321
 6388TIP3    H119170   5.425   1.494   0.645 -0.3817  1.2162  0.0370
 6388TIP3    H219171   5.309   1.470   0.551  0.1724 -0.2940 -0.2761
 6389TIP3   OH219172   0.249   0.754   4.262 -0.5301 -0.3345  0.4219
 6389TIP3    H119173   0.312   0.823   4.241 -0.4380 -0.3929  0.5038
 6389TIP3    H219174   0.175   0.800   4.300 -1.3658 -0.0511 -1.4206
 6390TIP3   OH219175   1.525   3.463   2.308 -0.0931 -0.1783 -0.2277
 6390TIP3    H119176   1.488   3.547   2.282  1.5898  0.7569  0.2778
 6390TIP3    H219177   1.571   3.432   2.230  2.4888  1.2419  0.6085
 6391TIP3   OH219178   1.948   1.641   5.117  0.0435  0.3452 -0.0706
 6391TIP3    H119179   1.943   1.705   5.188  0.7644  0.4872 -0.1384
 6391TIP3    H219180   1.864   1.595   5.120  0.1460  0.1939  1.0213
 6392TIP3   OH219181   5.269   2.637   2.432  0.5184  0.2001 -0.1464
 6392TIP3    H119182   5.226   2.565   2.479  2.7063 -0.9312  0.2973
 6392TIP3    H219183   5.221   2.644   2.350 -1.3181 -0.0505  0.8447
 6393TIP3   OH219184   3.561   0.822   2.619 -0.0074  0.1625 -0.2641
 6393TIP3    H119185   3.594   0.858   2.538 -0.4047  0.4796 -0.2860
 6393TIP3    H219186   3.512   0.893   2.660 -1.6919 -0.6177 -0.8101
 6394TIP3   OH219187   4.547   5.304   1.894  0.1152 -0.3912 -0.5106
 6394TIP3    H119188   4.502   5.253   1.961  0.0313  0.9958  0.5289
 6394TIP3    H219189   4.639   5.304   1.922  0.1731 -0.2664 -0.6966
 6395TIP3   OH219190   4.854   0.538   1.716 -0.1272  0.3973 -0.2003
 6395TIP3    H119191   4.864   0.458   1.769 -2.7825  0.9011  1.2726
 6395TIP3    H219192   4.929   0.592   1.739  0.0776 -0.4289  1.1963
 6396TIP3   OH219193   4.148   1.218   0.078 -0.3568  0.0142 -0.0644
 6396TIP3    H119194   4.180   1.234  -0.010  0.3763  2.0627  0.5188
 6396TIP3    H219195   4.053   1.223   0.071 -0.2591  2.2703 -0.4308
 6397TIP3   OH219196   4.957   4.549   4.630 -0.1745 -0.3823 -0.0957
 6397TIP3    H119197   4.937   4.457   4.649 -0.3159 -0.1899  0.7175
 6397TIP3    H219198   5.011   4.545   4.551 -2.9400 -0.9441 -2.1061
 6398TIP3   OH219199   4.873   0.519   2.946 -0.3839 -0.1002 -0.1016
 6398TIP3    H119200   4.932   0.578   2.993  0.5256 -0.3228 -0.9196
 6398TIP3    H219201   4.885   0.434   2.990  0.0228 -0.1776 -0.3569
 6399TIP3   OH219202   5.553   1.292   4.381 -0.1136 -0.0933  0.1969
 6399TIP3    H119203   5.469   1.290   4.427 -0.5886 -4.1890 -0.4320
 6399TIP3    H219204   5.619   1.283   4.450 -0.5986 -2.0648  0.4799
 6400TIP3   OH219205   0.611   0.419   0.738 -0.0356 -0.2254 -0.0618
 6400TIP3    H119206   0.571   0.506   0.739 -2.0836 -1.0739 -1.4379
 6400TIP3    H219207   0.560   0.369   0.801  0.7266 -0.6032  0.2597
 6401TIP3   OH219208   1.120   4.151   4.126  0.2323 -0.0701 -0.2655
 6401TIP3    H119209   1.096   4.176   4.036  0.3452  0.3402 -0.1818
 6401TIP3    H219210   1.211   4.122   4.119  0.6574  1.1596 -0.0684
 6402TIP3   OH219211   2.669   1.219   4.945 -0.0779  0.2976 -0.2074
 6402TIP3    H119212   2.686   1.256   4.858  0.0402  1.2659  0.2138
 6402TIP3    H219213   2.709   1.281   5.005 -2.2988  0.9974  0.6643
 6403TIP3   OH219214   5.965   2.491   3.787 -0.7908 -0.3064 -0.2161
 6403TIP3    H119215   5.897   2.544   3.830 -1.2829  0.4154 -1.7813
 6403TIP3    H219216   6.020   2.556   3.742 -1.5264 -1.0578 -2.3546
 6404TIP3   OH219217   0.878   3.147   4.990  0.6111 -0.3715 -0.2679
 6404TIP3    H119218   0.969   3.175   4.993  0.2928  0.6716  2.1017
 6404TIP3    H219219   0.830   3.224   4.959  0.5325 -1.0004 -1.7638
 6405TIP3   OH219220   4.916   3.662   4.075  0.0128  0.0810  0.6483
 6405TIP3    H119221   4.940   3.612   4.153  2.1437  0.4210  0.2774
 6405TIP3    H219222   4.987   3.725   4.064 -1.7567  2.1154  0.1440
 6406TIP3   OH219223   4.182   4.958   0.599  0.3371  0.2171  0.4378
 6406TIP3    H119224   4.204   5.051   0.595 -1.3354  0.5983 -0.5349
 6406TIP3    H219225   4.262   4.914   0.572  1.0322  1.3721  0.5230
 6407TIP3   OH219226   1.491   0.625   4.106  0.0861  0.8814  0.6553
 6407TIP3    H119227   1.404   0.592   4.128  0.1597  0.7047  0.6870
 6407TIP3    H219228   1.505   0.698   4.165  0.0904  0.7058  0.8712
 6408TIP3   OH219229   5.761   5.799   1.267 -0.5453 -0.6567 -0.2697
 6408TIP3    H119230   5.772   5.888   1.231 -1.9068 -0.6107 -0.5999
 6408TIP3    H219231   5.756   5.812   1.361  0.2322 -0.4941 -0.2410
 6409TIP3   OH219232   0.610   5.860   1.667  0.1337  0.1435 -0.0417
 6409TIP3    H119233   0.565   5.880   1.749  1.5741  2.1292  0.3419
 6409TIP3    H219234   0.559   5.906   1.600 -0.2260 -0.3060 -0.0860
 6410TIP3   OH219235   4.762   4.811   3.913  0.8831 -0.1521 -0.3131
 6410TIP3    H119236   4.800   4.758   3.843 -0.6105 -1.9086  0.1612
 6410TIP3    H219237   4.814   4.789   3.990  1.3247  0.3791 -0.4454
 6411TIP3   OH219238   3.430   2.518   4.434  0.4388  0.0116  0.0661
 6411TIP3    H119239   3.481   2.556   4.362  2.0756  2.2690  2.2396
 6411TIP3    H219240   3.489   2.453   4.473 -0.3831 -1.0995 -0.4944
 6412TIP3   OH219241   5.629   1.444   2.216 -0.2439  0.1162 -0.4275
 6412TIP3    H119242   5.710   1.487   2.244  0.2642 -0.3533 -1.1573
 6412TIP3    H219243   5.564   1.474   2.279  0.9218 -1.1317  1.4993
 6413TIP3   OH219244   1.197   5.728   2.727  0.0137  0.2849  0.3588
 6413TIP3    H119245   1.262   5.774   2.780  0.9927 -0.7026  0.0450
 6413TIP3    H219246   1.246   5.696   2.652 -0.7321 -0.9226  0.3727
 6414TIP3   OH219247   1.147   1.970   2.840  0.0950  0.4988 -0.5343
 6414TIP3    H119248   1.100   1.892   2.809  2.1418 -0.7707 -0.6561
 6414TIP3    H219249   1.096   2.044   2.807 -0.4282 -0.7920 -2.8260
 6415TIP3   OH219250   3.545   4.543   3.927  0.3676 -0.4956 -0.6447
 6415TIP3    H119251   3.544   4.531   4.022 -1.4075  2.0767 -0.2083
 6415TIP3    H219252   3.632   4.516   3.899  1.7281  0.7186  2.0868
 6416TIP3   OH219253   3.092   5.892   4.283 -0.1453  0.2352  0.1326
 6416TIP3    H119254   3.160   5.833   4.316  0.9545  0.2935 -1.8897
 6416TIP3    H219255   3.131   5.979   4.288 -0.7778  0.4974  0.6431
 6417TIP3   OH219256   3.857   4.236   3.912 -0.3341 -0.4010 -0.5608
 6417TIP3    H119257   3.888   4.313   3.959 -2.1822 -0.7005  1.3113
 6417TIP3    H219258   3.871   4.164   3.973 -1.1687 -1.1018 -1.1723
 6418TIP3   OH219259   5.304   5.347   3.583  0.1499  0.0819  0.3733
 6418TIP3    H119260   5.212   5.369   3.568  0.2027  1.6989  2.0049
 6418TIP3    H219261   5.346   5.363   3.499 -1.0914 -1.1036 -0.5260
 6419TIP3   OH219262   3.761   4.727   1.514 -0.2116  0.1049  0.3421
 6419TIP3    H119263   3.681   4.675   1.507  0.6974 -1.3325  0.3957
 6419TIP3    H219264   3.815   4.680   1.577  0.8307  0.8659  0.0467
 6420TIP3   OH219265   1.400   1.300   0.800  0.0318  0.4259 -0.2524
 6420TIP3    H119266   1.475   1.244   0.819  0.8702  1.8048  0.7483
 6420TIP3    H219267   1.438   1.380   0.764 -1.1872  0.0870 -2.4979
 6421TIP3   OH219268   4.395   0.947   2.841 -0.5161 -0.3695 -0.0980
 6421TIP3    H119269   4.437   0.864   2.865 -0.1117 -0.3444 -0.7126
 6421TIP3    H219270   4.326   0.921   2.780 -0.6126 -0.2850 -0.0246
 6422TIP3   OH219271   4.120   0.019   2.199  0.0572 -0.0720  0.3489
 6422TIP3    H119272   4.099   0.021   2.293  0.3334  0.2648  0.4036
 6422TIP3    H219273   4.214   0.002   2.196 -0.2544 -2.0108  0.1020
 6423TIP3   OH219274   6.057   3.352   2.070 -0.5029 -0.1905 -0.5869
 6423TIP3    H119275   6.141   3.357   2.115 -1.7676 -0.3938  1.9838
 6423TIP3    H219276   6.040   3.442   2.042  0.5142 -0.1321 -1.0594
 6424TIP3   OH219277   3.649   4.257   2.209  0.2923 -0.4496 -0.2700
 6424TIP3    H119278   3.607   4.322   2.264  1.4654 -1.1448  1.5248
 6424TIP3    H219279   3.591   4.181   2.212 -0.2687 -0.0611 -1.0439
 6425TIP3   OH219280   1.852   3.254   2.817  0.1549 -0.0273 -0.3654
 6425TIP3    H119281   1.946   3.270   2.818  0.8912 -3.3035 -2.3581
 6425TIP3    H219282   1.823   3.285   2.731 -0.2671 -0.3815 -0.3558
 6426TIP3   OH219283   4.867   0.461   1.192  0.0952 -0.4179  0.5633
 6426TIP3    H119284   4.772   0.469   1.193  0.1957  1.0558  0.2498
 6426TIP3    H219285   4.886   0.392   1.256 -1.0356  0.9081  2.4291
 6427TIP3   OH219286   1.156   2.417   4.698 -0.0753  0.0977  0.1238
 6427TIP3    H119287   1.150   2.486   4.632 -0.1282 -0.7397 -0.7571
 6427TIP3    H219288   1.075   2.425   4.748 -0.0441  0.7254  0.0818
 6428TIP3   OH219289   1.928   1.181   3.744  0.2486 -0.3647  0.1131
 6428TIP3    H119290   1.851   1.234   3.765  0.3038 -0.7820  1.4164
 6428TIP3    H219291   1.990   1.243   3.705  0.1509  0.4612  1.2358
 6429TIP3   OH219292   1.728   2.111   2.242  0.0271  0.5312  0.1871
 6429TIP3    H119293   1.729   2.076   2.331 -0.5748 -0.9375 -0.3589
 6429TIP3    H219294   1.764   2.200   2.251 -0.6747  0.6746  1.9919
 6430TIP3   OH219295   5.183   5.696   0.154  0.6181 -0.4793 -0.0022
 6430TIP3    H119296   5.270   5.696   0.114 -0.3478  0.0688 -2.2684
 6430TIP3    H219297   5.155   5.605   0.152  0.2582 -0.3633 -1.4407
 6431TIP3   OH219298   1.697   5.244   2.630 -0.1300  0.7767  0.6655
 6431TIP3    H119299   1.752   5.172   2.599 -0.2370  0.5670  0.9603
 6431TIP3    H219300   1.737   5.323   2.593 -1.3236  0.4046 -1.5830
 6432TIP3   OH219301   3.216   3.677   3.850  0.1811  0.0194  0.0909
 6432TIP3    H119302   3.242   3.660   3.760  0.7790 -0.4031  0.3341
 6432TIP3    H219303   3.126   3.711   3.844  0.2156 -0.0182 -0.6541
 6433TIP3   OH219304   5.345   5.337   1.107  0.5014  0.7763  0.3700
 6433TIP3    H119305   5.341   5.282   1.029 -0.1453 -0.7983  1.4567
 6433TIP3    H219306   5.336   5.426   1.074  0.5380  0.1738 -1.3663
 6434TIP3   OH219307   5.162   0.986   2.953 -0.9567  0.1411  0.6442
 6434TIP3    H119308   5.102   0.969   3.026 -1.2161  0.0541  0.4087
 6434TIP3    H219309   5.105   1.010   2.880 -0.7851 -1.1332  0.0656
 6435TIP3   OH219310   6.037   0.601   1.088 -0.4003  0.0550  0.1605
 6435TIP3    H119311   5.980   0.598   1.165 -0.4861  0.2172  0.1027
 6435TIP3    H219312   6.125   0.589   1.124 -0.6542 -3.0713  0.0030
 6436TIP3   OH219313   2.734   5.863   1.982 -0.1966 -0.1434 -0.1321
 6436TIP3    H119314   2.698   5.899   2.062 -0.1204  1.2190 -0.6892
 6436TIP3    H219315   2.827   5.848   2.001  0.0944  1.2892 -0.2996
 6437TIP3   OH219316   5.027   5.130   3.005  0.2454 -0.0570 -0.1491
 6437TIP3    H119317   4.983   5.107   3.087 -0.1026 -0.6373 -0.4861
 6437TIP3    H219318   4.974   5.088   2.937 -0.4574  1.7879 -0.8175
 6438TIP3   OH219319   4.104   0.156   1.071 -0.3674  0.4277 -0.1465
 6438TIP3    H119320   4.098   0.077   1.018 -0.4596 -0.4936  1.1806
 6438TIP3    H219321   4.185   0.198   1.044  0.4501 -0.9169  0.1748
 6439TIP3   OH219322   2.798   4.922   0.835  0.3913  0.5141 -0.5834
 6439TIP3    H119323   2.768   4.835   0.860  1.4466  0.8079  2.0777
 6439TIP3    H219324   2.737   4.951   0.768 -0.3840 -1.9817 -1.0299
 6440TIP3   OH219325   2.001   0.185   4.416 -0.2148  0.0666 -0.1307
 6440TIP3    H119326   1.906   0.194   4.426 -0.4742 -1.9739 -0.3098
 6440TIP3    H219327   2.015   0.187   4.321 -0.3172 -1.3300 -0.1952
 6441TIP3   OH219328   0.464   2.670   2.397  0.0539  0.2999  0.2329
 6441TIP3    H119329   0.386   2.725   2.388 -0.3837 -0.1878  0.9618
 6441TIP3    H219330   0.529   2.711   2.340 -0.8786  0.4366 -0.7633
 6442TIP3   OH219331   2.067   1.599   4.339 -0.1464 -0.4375  1.2304
 6442TIP3    H119332   2.038   1.509   4.352 -1.6114 -0.0157  0.9886
 6442TIP3    H219333   1.995   1.653   4.371 -0.4556  0.6364 -1.0429
 6443TIP3   OH219334   4.717   3.302   3.969 -0.3049  0.3096  0.2056
 6443TIP3    H119335   4.802   3.342   3.952 -0.3279 -0.0932 -0.9613
 6443TIP3    H219336   4.701   3.318   4.062  2.0448 -1.5312  0.9989
 6444TIP3   OH219337   5.172   3.425   1.683  0.0843 -0.2460 -0.0003
 6444TIP3    H119338   5.168   3.479   1.604  0.0364 -0.4112 -0.1109
 6444TIP3    H219339   5.215   3.480   1.748  1.6419 -0.6955 -0.6208
 6445TIP3   OH219340   5.571   3.844   1.207 -0.0909  0.0485  0.7273
 6445TIP3    H119341   5.628   3.806   1.141  0.4396 -0.1635  1.3070
 6445TIP3    H219342   5.490   3.794   1.200 -0.1882  0.2958 -0.0385
 6446TIP3   OH219343   1.514   0.785   4.632 -0.4294 -0.2166 -0.4833
 6446TIP3    H119344   1.599   0.787   4.588  0.2675  0.3321  0.8455
 6446TIP3    H219345   1.450   0.777   4.561  0.7827 -1.8821 -1.4420
 6447TIP3   OH219346   5.972   2.408   1.506 -0.3557  0.4003  0.1111
 6447TIP3    H119347   6.056   2.396   1.462 -1.1536 -0.8610 -1.1677
 6447TIP3    H219348   5.940   2.492   1.473 -0.0877  0.3718 -0.2248
 6448TIP3   OH219349   4.088   1.722   0.816  0.5833  0.8331 -0.3236
 6448TIP3    H119350   4.009   1.761   0.854 -0.9444 -0.4668 -2.0049
 6448TIP3    H219351   4.142   1.699   0.891 -2.3471 -1.7748  1.2234
 6449TIP3   OH219352   3.054   0.714   2.684 -0.0637  0.1431 -0.3049
 6449TIP3    H119353   3.025   0.775   2.752 -0.8674  0.2980 -0.7743
 6449TIP3    H219354   3.136   0.679   2.718 -1.3441 -1.2160  1.6513
 6450TIP3   OH219355   0.425   2.419   0.522  0.2921 -0.0714  0.6040
 6450TIP3    H119356   0.426   2.432   0.427 -1.6801 -0.3125  0.5234
 6450TIP3    H219357   0.489   2.349   0.537 -0.5462 -1.1857 -0.7484
 6451TIP3   OH219358   3.107   5.598   1.153 -0.3154 -0.3092  0.0574
 6451TIP3    H119359   3.109   5.673   1.094 -4.1340  0.5558  0.8000
 6451TIP3    H219360   3.182   5.545   1.126 -0.0644  1.5475 -3.4356
 6452TIP3   OH219361   5.525   2.130   4.510  0.1393  0.1521 -0.9323
 6452TIP3    H119362   5.455   2.066   4.502  0.2679  0.2172 -3.2305
 6452TIP3    H219363   5.563   2.114   4.596 -1.8493 -0.7428 -0.1718
 6453TIP3   OH219364   4.289   2.082   2.645 -0.3663  0.0065  0.4340
 6453TIP3    H119365   4.313   2.126   2.563 -2.8047 -1.6011 -1.2827
 6453TIP3    H219366   4.215   2.133   2.678 -0.3004 -0.1925  0.8889
 6454TIP3   OH219367   0.987   2.448   3.478  0.1084  0.0723  0.0313
 6454TIP3    H119368   0.996   2.360   3.513 -1.6808  0.6120  2.0550
 6454TIP3    H219369   0.942   2.437   3.394  0.8176 -0.9888 -0.2175
 6455TIP3   OH219370   0.588   4.285   4.330  0.3196  0.2578 -0.2480
 6455TIP3    H119371   0.549   4.369   4.353  1.5857  0.7631  0.1706
 6455TIP3    H219372   0.597   4.287   4.235 -0.0959  0.3922 -0.2830
 6456TIP3   OH219373   4.838   2.803   3.154 -0.2183 -0.6355  0.5595
 6456TIP3    H119374   4.750   2.804   3.115 -0.8650  1.4912  1.8940
 6456TIP3    H219375   4.829   2.856   3.234  1.7950 -2.1731  1.8859
 6457TIP3   OH219376   5.734   1.072   2.378 -0.5312 -0.1892 -0.3738
 6457TIP3    H119377   5.753   1.021   2.457  0.1260  1.1000  0.3138
 6457TIP3    H219378   5.648   1.110   2.395  0.2025  1.2289  0.3657
 6458TIP3   OH219379   0.550   3.929   0.361  0.0152 -0.1599 -0.0451
 6458TIP3    H119380   0.610   3.867   0.321 -0.8227 -1.5239  0.7191
 6458TIP3    H219381   0.602   3.971   0.431  1.1997  1.5740 -1.8630
 6459TIP3   OH219382   2.626   1.229   2.721  0.2798 -0.1321  0.7774
 6459TIP3    H119383   2.684   1.302   2.741  1.4949 -0.7303 -0.3928
 6459TIP3    H219384   2.610   1.187   2.806  1.0575  0.3929  1.1957
 6460TIP3   OH219385   1.544   4.833   2.110  0.3293 -0.1529 -0.2601
 6460TIP3    H119386   1.558   4.893   2.037  1.9950  0.3536  0.4321
 6460TIP3    H219387   1.557   4.746   2.072  0.3488  0.0547 -0.7337
 6461TIP3   OH219388   0.506   0.134   2.101  0.1506 -0.0540 -0.2098
 6461TIP3    H119389   0.503   0.200   2.031  0.5034  1.2655  0.9723
 6461TIP3    H219390   0.569   0.169   2.163 -1.7823 -0.0421  1.8771
 6462TIP3   OH219391   2.633   0.993   5.093  0.2012  0.3470 -0.4025
 6462TIP3    H119392   2.621   1.059   5.025  0.6832  1.7499  0.8179
 6462TIP3    H219393   2.547   0.985   5.134 -0.0703 -0.4405 -1.1224
 6463TIP3   OH219394   2.529   0.842   0.467 -0.0107 -0.1906 -0.1016
 6463TIP3    H119395   2.520   0.901   0.542  0.8736 -0.8612  0.5632
 6463TIP3    H219396   2.472   0.879   0.400 -1.5468 -0.0701  1.2037
 6464TIP3   OH219397   5.690   2.849   2.014 -0.0508 -0.0664  0.0099
 6464TIP3    H119398   5.769   2.883   2.056 -0.1215 -0.9167  0.8864
 6464TIP3    H219399   5.642   2.807   2.085 -1.1108  0.1030 -0.5870
 6465TIP3   OH219400   6.212   4.838   2.813 -0.2936 -0.2294 -0.4690
 6465TIP3    H119401   6.215   4.743   2.808 -1.5419 -0.4721  1.9516
 6465TIP3    H219402   6.296   4.867   2.778  0.0190 -2.1846 -1.4461
 6466TIP3   OH219403   3.911   4.965   4.938 -0.5455  0.2131  0.3787
 6466TIP3    H119404   3.821   4.994   4.925 -0.4681 -0.0234 -0.7672
 6466TIP3    H219405   3.927   4.979   5.032 -1.7399  0.3186  0.5836
 6467TIP3   OH219406   5.658   1.259   0.668  0.1852  0.2550  0.3929
 6467TIP3    H119407   5.607   1.333   0.701 -0.8153  1.0490 -2.5874
 6467TIP3    H219408   5.719   1.237   0.739  0.3443  3.7605  1.4960
 6468TIP3   OH219409   1.271   5.523   0.634  0.6523  0.9120 -0.3900
 6468TIP3    H119410   1.260   5.606   0.681  0.0018  0.0791  1.0185
 6468TIP3    H219411   1.209   5.464   0.676  0.5447 -0.0906 -1.8842
 6469TIP3   OH219412   4.247   4.619   0.320  0.2595 -0.5552  0.0212
 6469TIP3    H119413   4.251   4.613   0.415  0.1552  0.5708  0.1100
 6469TIP3    H219414   4.175   4.561   0.295  0.1885 -0.7408  0.6407
 6470TIP3   OH219415   2.778   4.146   0.756 -0.8115  0.0933  0.1363
 6470TIP3    H119416   2.730   4.187   0.685 -0.5925 -0.5407 -0.3881
 6470TIP3    H219417   2.758   4.199   0.833 -1.3214  0.5822 -0.3297
 6471TIP3   OH219418   0.461   4.809   0.953  0.3102  0.1289 -0.0374
 6471TIP3    H119419   0.484   4.899   0.974 -0.4012 -0.2156  2.6327
 6471TIP3    H219420   0.394   4.816   0.884  0.3062  1.6223  0.0934
 6472TIP3   OH219421   4.926   0.784   1.146  0.3135  0.1127  0.2026
 6472TIP3    H119422   4.986   0.727   1.195  0.3173  0.4647  0.6220
 6472TIP3    H219423   4.982   0.828   1.082 -0.0354 -1.8921 -1.5668
 6473TIP3   OH219424   3.139   2.561   4.368  0.4754  0.1153 -0.5074
 6473TIP3    H119425   3.227   2.564   4.406  0.8263  0.9763 -1.3442
 6473TIP3    H219426   3.082   2.536   4.441  1.4013 -0.4144  0.0562
 6474TIP3   OH219427   3.379   1.244   5.186  0.9157 -0.4996 -0.2455
 6474TIP3    H119428   3.355   1.155   5.160 -0.4786 -0.1045 -0.3668
 6474TIP3    H219429   3.473   1.238   5.204  0.8104 -2.0451 -0.0189
 6475TIP3   OH219430   1.234   4.243   3.064  0.3566  0.1865  0.0674
 6475TIP3    H119431   1.196   4.298   3.134  1.3848  0.3889  0.4842
 6475TIP3    H219432   1.244   4.302   2.990  1.3162  0.5422  0.4662
 6476TIP3   OH219433   1.618   5.551   4.676  0.1434 -0.1002 -0.6541
 6476TIP3    H119434   1.617   5.485   4.607 -0.0267 -1.0934  0.2725
 6476TIP3    H219435   1.586   5.506   4.754  2.1421  0.4415  0.5581
 6477TIP3   OH219436   5.531   4.438   3.155 -0.5979  0.0157  0.0113
 6477TIP3    H119437   5.489   4.513   3.197  0.5290  0.9158 -0.3958
 6477TIP3    H219438   5.528   4.459   3.061 -0.9675 -0.8290 -0.1702
 6478TIP3   OH219439   2.106   3.872   4.158  0.6574  0.6880  0.2807
 6478TIP3    H119440   2.082   3.810   4.089 -0.9872  0.6927  0.8173
 6478TIP3    H219441   2.200   3.858   4.170  1.0975  0.9637 -2.2183
 6479TIP3   OH219442   3.465   1.295   0.889  0.3137 -0.0001  0.3101
 6479TIP3    H119443   3.418   1.213   0.877  0.7668 -0.0007 -1.8721
 6479TIP3    H219444   3.398   1.359   0.912 -0.1414 -0.8022  1.2842
 6480TIP3   OH219445   5.045   5.689   1.174 -0.4404 -0.1104  0.0655
 6480TIP3    H119446   5.130   5.697   1.218 -0.1873 -2.8942  0.2741
 6480TIP3    H219447   5.053   5.610   1.121 -3.5734 -1.7470  1.7816
 6481TIP3   OH219448   1.919   4.417   4.867  0.2663  0.6253  1.0336
 6481TIP3    H119449   1.969   4.356   4.813 -1.7159 -0.2592  0.1195
 6481TIP3    H219450   1.912   4.496   4.813 -2.0197 -0.3793 -0.2774
 6482TIP3   OH219451   1.502   2.223   2.902  0.2399 -0.1976  0.2575
 6482TIP3    H119452   1.510   2.130   2.885  0.1452 -0.2342  0.4141
 6482TIP3    H219453   1.414   2.234   2.939 -0.0000  0.0413 -0.3655
 6483TIP3   OH219454   4.196   4.740   1.470 -0.2833  0.2265  0.0072
 6483TIP3    H119455   4.195   4.821   1.520 -1.3968 -0.3124  0.9038
 6483TIP3    H219456   4.118   4.745   1.415 -0.9108 -0.6601  0.7922
 6484TIP3   OH219457   4.550   2.489   4.764 -0.0357 -0.0034 -1.0443
 6484TIP3    H119458   4.492   2.506   4.690 -2.2557 -0.5047  0.4752
 6484TIP3    H219459   4.563   2.394   4.764 -1.2208 -0.1985 -0.0389
 6485TIP3   OH219460   2.008   2.630   4.980 -0.2679 -0.4496  0.2958
 6485TIP3    H119461   1.981   2.700   5.039 -2.0696 -0.8166 -0.0386
 6485TIP3    H219462   1.984   2.550   5.026 -0.4332 -0.7727 -0.3493
 6486TIP3   OH219463   3.187   5.372   0.411  0.6918 -0.1625  0.4089
 6486TIP3    H119464   3.100   5.348   0.441 -0.3892  2.5308 -0.3267
 6486TIP3    H219465   3.180   5.464   0.385  3.5051 -0.1281 -0.6324
 6487TIP3   OH219466   5.366   5.394   3.317  0.3739 -0.1238 -0.1063
 6487TIP3    H119467   5.280   5.354   3.302  0.2186  0.1136  0.1354
 6487TIP3    H219468   5.410   5.390   3.232 -0.4392  1.1087 -0.6155
 6488TIP3   OH219469   6.173   5.570   4.270  0.1673 -0.4775  0.1087
 6488TIP3    H119470   6.175   5.665   4.260  1.6139 -0.6111 -1.2524
 6488TIP3    H219471   6.092   5.543   4.226  0.2082  0.0514 -0.2934
 6489TIP3   OH219472   1.234   3.101   2.159  0.3910  0.2434  0.2602
 6489TIP3    H119473   1.204   3.184   2.196 -1.5126 -0.1470 -0.2825
 6489TIP3    H219474   1.205   3.103   2.068  0.8081 -0.7909  0.0895
 6490TIP3   OH219475   3.210   5.506   4.150  0.1615  0.0117 -0.1105
 6490TIP3    H119476   3.153   5.577   4.123 -0.6700 -1.2495 -1.8544
 6490TIP3    H219477   3.294   5.548   4.171 -0.6739  1.6046  0.1511
 6491TIP3   OH219478   4.901   2.512   5.188  0.2651  0.1452 -0.1306
 6491TIP3    H119479   4.965   2.572   5.150  0.0445 -0.4381 -1.4611
 6491TIP3    H219480   4.952   2.436   5.216  0.5264  0.8607  1.4369
 6492TIP3   OH219481   4.699   3.558   1.379 -0.3087  0.7687 -0.5399
 6492TIP3    H119482   4.771   3.495   1.380 -0.5834  0.3997 -1.9961
 6492TIP3    H219483   4.670   3.561   1.287 -0.2189  3.1171 -0.5506
 6493TIP3   OH219484   0.713   5.851   3.108 -0.1084  0.2966 -0.2646
 6493TIP3    H119485   0.678   5.853   3.018  0.4744 -2.0923 -0.5982
 6493TIP3    H219486   0.804   5.824   3.098  0.1691  0.6887  1.0321
 6494TIP3   OH219487   1.160   1.010   4.745  0.5264  0.4153 -0.3093
 6494TIP3    H119488   1.241   0.964   4.763 -0.1270 -0.7780 -0.3167
 6494TIP3    H219489   1.091   0.945   4.760 -0.3441  0.9618 -1.7149
 6495TIP3   OH219490   0.528   1.269   2.701  0.1988 -0.2348  0.0353
 6495TIP3    H119491   0.512   1.325   2.777 -2.6342  0.3206 -0.8613
 6495TIP3    H219492   0.496   1.183   2.727  1.1102 -0.5568  0.1324
 6496TIP3   OH219493   3.393   4.397   1.400 -0.5449  0.3404  0.0774
 6496TIP3    H119494   3.398   4.313   1.355 -2.4284 -1.2087  2.4445
 6496TIP3    H219495   3.315   4.439   1.364 -0.1828  0.6152 -0.3907
 6497TIP3   OH219496   4.567   0.053   1.091  0.2530 -0.1843  0.3861
 6497TIP3    H119497   4.502  -0.017   1.093 -0.2240  0.2289 -0.3134
 6497TIP3    H219498   4.533   0.116   1.027 -0.2085  1.5322  2.2073
 6498TIP3   OH219499   5.346   0.127   4.275 -0.3818 -0.2783  0.3078
 6498TIP3    H119500   5.380   0.215   4.257 -0.7183 -0.3143 -0.5156
 6498TIP3    H219501   5.411   0.068   4.236 -0.8893 -0.3657 -0.4056
 6499TIP3   OH219502   2.062   5.842   1.876  0.7644 -0.1623 -0.0330
 6499TIP3    H119503   2.133   5.902   1.853  0.0213  0.0291 -2.0480
 6499TIP3    H219504   1.988   5.872   1.823  0.0263 -2.1213 -0.1883
 6500TIP3   OH219505   1.213   4.492   4.168  0.0913 -0.2305 -0.4795
 6500TIP3    H119506   1.265   4.450   4.100 -0.2788 -1.7018  0.0998
 6500TIP3    H219507   1.164   4.420   4.209 -0.7976  0.8120  0.3766
 6501TIP3   OH219508   1.590   4.544   3.936 -0.1277 -1.6381  0.2340
 6501TIP3    H119509   1.650   4.543   4.011  0.7361  0.3748 -0.3696
 6501TIP3    H219510   1.636   4.494   3.868  1.4578  0.7801 -0.5821
 6502TIP3   OH219511   6.193   2.003   2.062 -0.0542  0.3365  0.0560
 6502TIP3    H119512   6.183   2.094   2.089  0.3632  0.1171  0.9839
 6502TIP3    H219513   6.170   2.003   1.969 -3.5343  0.7688  0.7822
 6503TIP3   OH219514   3.024   5.393   2.109  0.3587 -0.1626  0.3277
 6503TIP3    H119515   2.988   5.480   2.127 -0.8519 -0.6042  0.1387
 6503TIP3    H219516   3.119   5.404   2.118  0.1891  1.0433  0.8475
 6504TIP3   OH219517   4.684   4.329   2.031 -0.0600  0.2308 -0.4251
 6504TIP3    H119518   4.752   4.392   2.053  0.9547 -0.9972  0.1042
 6504TIP3    H219519   4.647   4.302   2.116 -0.2559 -0.1081 -0.6131
 6505TIP3   OH219520   3.784   2.462   2.486 -0.3574  0.5223 -0.2399
 6505TIP3    H119521   3.823   2.467   2.574  0.7554 -0.7915 -0.6321
 6505TIP3    H219522   3.836   2.397   2.440 -1.7547  0.2222 -1.4761
 6506TIP3   OH219523   5.251   4.939   0.303  0.4988  0.2856 -0.2523
 6506TIP3    H119524   5.322   4.898   0.253  0.6192 -0.4479  0.4948
 6506TIP3    H219525   5.216   4.868   0.356 -0.3790  0.7968 -0.1403
 6507TIP3   OH219526   6.212   0.360   3.669  0.7811 -0.6334  0.0030
 6507TIP3    H119527   6.131   0.328   3.628 -0.2003  0.1490  1.2643
 6507TIP3    H219528   6.280   0.301   3.637 -0.4684 -2.0112 -0.2094
 6508TIP3   OH219529   4.915   0.425   4.995  0.0363  0.4493 -0.1099
 6508TIP3    H119530   4.928   0.416   5.090  0.1062 -2.6434 -0.3180
 6508TIP3    H219531   5.002   0.410   4.958 -0.4024 -0.6503 -0.7265
 6509TIP3   OH219532   0.215   4.790   3.837 -0.2905 -0.1161 -0.0495
 6509TIP3    H119533   0.157   4.863   3.860 -1.1585 -0.7530 -0.1639
 6509TIP3    H219534   0.170   4.746   3.765  0.8452 -0.0184 -0.8517
 6510TIP3   OH219535   5.401   2.532   4.095 -0.2909 -0.2421 -0.2867
 6510TIP3    H119536   5.327   2.582   4.059  0.4186  1.0960  0.0503
 6510TIP3    H219537   5.459   2.518   4.020  0.7258  1.7097  0.0706
 6511TIP3   OH219538   3.624   2.455   0.979  0.0256  0.4171 -0.0048
 6511TIP3    H119539   3.589   2.372   0.947  2.3544 -0.7711  0.2619
 6511TIP3    H219540   3.628   2.445   1.074  1.4424  0.2817 -0.0472
 6512TIP3   OH219541   2.275   1.309   0.573  0.2118 -0.5329  0.6044
 6512TIP3    H119542   2.239   1.221   0.564 -0.8352 -0.1324  0.6739
 6512TIP3    H219543   2.223   1.349   0.644  1.6011 -0.3163  1.5475
 6513TIP3   OH219544   2.466   0.964   3.821  0.5331 -0.1473 -0.6208
 6513TIP3    H119545   2.466   0.944   3.914 -0.7421  0.5806 -0.4436
 6513TIP3    H219546   2.375   0.985   3.800  0.5264 -1.6662 -2.3453
 6514TIP3   OH219547   3.814   4.427  -0.006 -0.2012  0.6657 -0.3064
 6514TIP3    H119548   3.749   4.477  -0.056 -0.6194  1.1045  0.6424
 6514TIP3    H219549   3.764   4.388   0.066  0.2251 -0.6670 -0.6940
 6515TIP3   OH219550   4.165   1.317   3.024 -0.4575  0.4058 -1.0064
 6515TIP3    H119551   4.215   1.352   3.097 -0.5033  0.7038 -1.1187
 6515TIP3    H219552   4.090   1.375   3.015 -0.6637  0.1394 -1.0364
 6516TIP3   OH219553   6.308   3.871   1.259  0.2619  0.0062  0.0432
 6516TIP3    H119554   6.254   3.944   1.230 -0.4503 -0.8545 -0.8516
 6516TIP3    H219555   6.247   3.811   1.301  0.6940 -0.4653  0.0109
 6517TIP3   OH219556   4.036   2.328   2.434  0.3419 -0.2846  0.3723
 6517TIP3    H119557   4.114   2.342   2.487  0.8184 -0.3164 -0.3101
 6517TIP3    H219558   4.055   2.248   2.385 -0.8146 -1.2584  1.4472
 6518TIP3   OH219559   4.199   0.696   2.624 -0.2365 -0.0308  0.4966
 6518TIP3    H119560   4.125   0.751   2.647  0.0038  0.2836  0.5156
 6518TIP3    H219561   4.162   0.628   2.567 -0.3368  0.8050 -0.4589
 6519TIP3   OH219562   3.576   2.318   3.505  0.0216 -0.5696  0.0186
 6519TIP3    H119563   3.489   2.279   3.510  0.0571 -0.5338  1.2420
 6519TIP3    H219564   3.628   2.270   3.569  0.9799 -0.7629 -0.8839
 6520TIP3   OH219565   2.602   3.142   3.456  0.2108  0.0992 -0.3862
 6520TIP3    H119566   2.542   3.098   3.397  1.8590 -1.3655 -1.0679
 6520TIP3    H219567   2.626   3.223   3.410 -1.7916  1.1348  0.2702
 6521TIP3   OH219568   4.922   4.842   0.135 -0.4238  0.3160 -0.0871
 6521TIP3    H119569   4.889   4.780   0.070 -0.7721  1.0668 -0.6423
 6521TIP3    H219570   5.013   4.815   0.150 -1.5153 -2.4972  2.3292
 6522TIP3   OH219571   2.713   2.512   1.279 -0.2371  0.3960  0.7205
 6522TIP3    H119572   2.698   2.497   1.185  0.3100  2.1205  0.3150
 6522TIP3    H219573   2.758   2.433   1.309  0.0026  0.0085 -0.5774
 6523TIP3   OH219574   1.403   2.955   0.808 -0.6586  0.1088 -0.4000
 6523TIP3    H119575   1.480   2.914   0.848 -0.1593 -0.2765 -1.6994
 6523TIP3    H219576   1.439   3.004   0.733 -1.5008  1.1991 -0.1194
 6524TIP3   OH219577   0.769   3.042   0.939 -0.3613  0.1056  0.6430
 6524TIP3    H119578   0.830   3.111   0.911 -1.1980  0.7994  0.4614
 6524TIP3    H219579   0.810   3.003   1.016 -0.0122  1.0248  0.9412
 6525TIP3   OH219580   4.588   3.121   1.644  0.1946  0.2178  0.3051
 6525TIP3    H119581   4.534   3.049   1.612 -0.8792  0.8210  0.6893
 6525TIP3    H219582   4.568   3.194   1.585  4.2361 -0.6961 -2.6721
 6526TIP3   OH219583   5.339   5.010   3.097 -0.6389 -0.5891 -0.5848
 6526TIP3    H119584   5.332   5.026   3.191  0.2484  0.1266 -0.6279
 6526TIP3    H219585   5.431   4.984   3.084 -0.3063  0.9082 -1.4641
 6527TIP3   OH219586   5.426   1.932   1.447 -0.2149  0.0490  0.1697
 6527TIP3    H119587   5.352   1.909   1.391  1.0132  0.5269 -1.7429
 6527TIP3    H219588   5.401   2.015   1.488 -0.5764  0.4189 -0.7810
 6528TIP3   OH219589   4.303   5.279   1.269 -0.1368 -0.3358  0.4674
 6528TIP3    H119590   4.273   5.199   1.226 -0.7465  0.5717 -0.8254
 6528TIP3    H219591   4.322   5.251   1.359 -0.7611 -1.8401  0.1651
 6529TIP3   OH219592   4.664   5.578   2.206  0.0410 -0.4188  0.6881
 6529TIP3    H119593   4.691   5.667   2.182  0.9032 -1.5217 -3.0218
 6529TIP3    H219594   4.704   5.522   2.140 -4.4176 -3.0697 -0.1940
 6530TIP3   OH219595   6.260   4.713   0.823 -0.2614 -0.3868 -0.1951
 6530TIP3    H119596   6.281   4.622   0.841 -2.6715 -0.7382  1.2153
 6530TIP3    H219597   6.304   4.732   0.739 -0.7175 -3.1911 -1.1598
 6531TIP3   OH219598   1.320   1.153   2.375 -0.3238  0.3717  0.3768
 6531TIP3    H119599   1.377   1.114   2.308  1.4438  1.2629  1.3007
 6531TIP3    H219600   1.233   1.153   2.335  0.1987 -1.5097 -0.8945
 6532TIP3   OH219601   0.097   0.711   2.749 -0.6019  0.3188  0.1435
 6532TIP3    H119602   0.047   0.744   2.674 -0.3489 -1.3256 -0.8206
 6532TIP3    H219603   0.086   0.616   2.744  0.5385  0.0903  1.4267
 6533TIP3   OH219604   3.263   2.784   3.177 -0.2989 -0.0528  0.8348
 6533TIP3    H119605   3.259   2.792   3.272  0.3687 -0.5484  0.9118
 6533TIP3    H219606   3.355   2.767   3.158 -0.8089 -2.7155  0.3456
 6534TIP3   OH219607   5.383   0.546   4.515 -0.3636 -0.1725 -0.2496
 6534TIP3    H119608   5.292   0.535   4.488  0.2759 -0.4068 -2.4150
 6534TIP3    H219609   5.428   0.578   4.437  1.8050 -1.9218  0.2022
 6535TIP3   OH219610   5.487   0.416   2.594 -0.4549  0.2345 -0.6752
 6535TIP3    H119611   5.488   0.441   2.686 -1.7587 -1.7454 -0.0699
 6535TIP3    H219612   5.574   0.441   2.562  0.1233  0.7313  1.1475
 6536TIP3   OH219613   1.587   2.492   0.397 -0.1098  0.3764  0.4887
 6536TIP3    H119614   1.566   2.585   0.386  0.3131  0.3896 -0.2842
 6536TIP3    H219615   1.682   2.489   0.393 -0.0322  0.0800  2.0247
 6537TIP3   OH219616   3.294   4.881   3.313  0.0477  0.3073 -0.3062
 6537TIP3    H119617   3.293   4.787   3.295  2.1929  0.3349 -0.8776
 6537TIP3    H219618   3.208   4.899   3.351 -0.6551 -1.7522 -0.7742
 6538TIP3   OH219619   2.222   1.390   1.092  0.0985 -0.3752 -0.3085
 6538TIP3    H119620   2.288   1.435   1.146 -0.1025  0.6113 -0.8588
 6538TIP3    H219621   2.258   1.302   1.080 -0.7116 -1.2991  2.9736
 6539TIP3   OH219622   5.148   3.452   2.643 -0.3146  0.1945  0.6568
 6539TIP3    H119623   5.151   3.498   2.727  0.2431 -0.5510  1.0602
 6539TIP3    H219624   5.232   3.474   2.601 -0.4827  0.3583  0.3987
 6540TIP3   OH219625   5.630   3.419   0.799  0.5748 -0.3690 -0.5950
 6540TIP3    H119626   5.640   3.361   0.723 -0.4386  0.3910 -1.3255
 6540TIP3    H219627   5.556   3.382   0.847 -0.9842  1.0536 -1.7985
 6541TIP3   OH219628   2.070   1.171   2.613 -0.2137 -0.1601 -0.5543
 6541TIP3    H119629   2.036   1.189   2.525  0.4465 -0.0228 -0.7855
 6541TIP3    H219630   2.106   1.255   2.642  1.1090 -0.6098 -0.8429
 6542TIP3   OH219631   0.476   3.536   0.026 -0.3449  0.7051  0.1346
 6542TIP3    H119632   0.515   3.449   0.026 -0.3806  0.6560  1.9312
 6542TIP3    H219633   0.547   3.594  -0.000 -0.2697  0.1749 -0.8878
 6543TIP3   OH219634   3.350   2.463   0.900 -0.0207 -0.0410 -0.3105
 6543TIP3    H119635   3.298   2.460   0.981  0.7446  2.0031  0.3107
 6543TIP3    H219636   3.426   2.407   0.918  0.6655  1.2015  0.8082
 6544TIP3   OH219637   0.167   5.493   4.395  0.1433  0.5456 -0.7074
 6544TIP3    H119638   0.157   5.459   4.307  0.0612 -0.4238 -0.3366
 6544TIP3    H219639   0.084   5.474   4.438  0.5301  0.1186 -0.1347
 6545TIP3   OH219640   3.477   4.057   2.289 -0.7811 -0.6193  0.5384
 6545TIP3    H119641   3.413   4.093   2.351  1.5910 -0.2564  2.9378
 6545TIP3    H219642   3.514   3.981   2.335  2.2515  0.6349  0.4062
 6546TIP3   OH219643   1.852   4.251   0.071  0.2596 -0.4727 -0.0007
 6546TIP3    H119644   1.871   4.196   0.147  2.1730 -0.4005 -0.3641
 6546TIP3    H219645   1.855   4.191  -0.003  0.7663 -0.1536 -0.2418
 6547TIP3   OH219646   4.470   0.650   1.475  0.4483 -0.2792  0.3495
 6547TIP3    H119647   4.388   0.602   1.468  0.0605  0.1512  1.6993
 6547TIP3    H219648   4.533   0.587   1.508 -0.0736  0.1038  2.1760
 6548TIP3   OH219649   3.695   1.246   2.609 -0.5787 -0.2763 -0.6588
 6548TIP3    H119650   3.682   1.309   2.680  0.5601  0.7278 -1.3027
 6548TIP3    H219651   3.623   1.184   2.619 -2.4228  1.7327 -0.6502
 6549TIP3   OH219652   6.058   5.891   4.261 -0.2401 -0.2165 -0.8550
 6549TIP3    H119653   6.031   5.947   4.334  1.7209 -2.1422  1.4931
 6549TIP3    H219654   6.128   5.939   4.217  0.0985  0.0086 -0.0695
 6550TIP3   OH219655   4.656   1.562   1.049  0.0209 -0.1370  0.6175
 6550TIP3    H119656   4.662   1.650   1.086  2.5674 -1.1450  2.8451
 6550TIP3    H219657   4.648   1.504   1.124  1.8217 -2.0496 -0.5690
 6551TIP3   OH219658   2.345   2.036   4.267 -0.3343  0.5019  0.1644
 6551TIP3    H119659   2.378   1.979   4.336 -1.2389 -0.6681 -0.3322
 6551TIP3    H219660   2.276   2.087   4.310 -0.9823 -0.3122  0.1246
 6552TIP3   OH219661   5.520   2.306   5.194 -0.6162  0.0107 -0.8344
 6552TIP3    H119662   5.506   2.375   5.130  0.9110  1.2346  0.0754
 6552TIP3    H219663   5.614   2.307   5.211 -0.9266 -0.4016  1.2396
 6553TIP3   OH219664   0.526   1.460   1.080 -0.3924  0.6174  0.4785
 6553TIP3    H119665   0.434   1.437   1.094 -0.5353 -0.1370 -1.3062
 6553TIP3    H219666   0.524   1.551   1.050 -0.4118  1.0363  1.7104
 6554TIP3   OH219667   2.052   1.402   0.302  0.1533 -0.3798  0.5495
 6554TIP3    H119668   2.147   1.385   0.302  0.3390  0.1926 -2.1853
 6554TIP3    H219669   2.035   1.441   0.217 -2.2616  1.4936  1.7829
 6555TIP3   OH219670   0.783   2.427   5.139 -0.6140 -0.2703 -0.5680
 6555TIP3    H119671   0.755   2.517   5.126  0.7661  0.1936 -0.5124
 6555TIP3    H219672   0.733   2.396   5.215  0.4551  1.1874  0.8033
 6556TIP3   OH219673   0.457   3.895   2.515 -0.3462 -0.5639 -0.1889
 6556TIP3    H119674   0.439   3.853   2.431  1.2464  1.4695 -1.6052
 6556TIP3    H219675   0.456   3.989   2.497 -0.4905 -0.0328  2.1928
 6557TIP3   OH219676   5.925   0.112   0.060  1.0147  0.2688  0.2330
 6557TIP3    H119677   5.983   0.118   0.136 -0.3656 -0.3139  1.3826
 6557TIP3    H219678   5.951   0.184   0.004  2.0431  0.7506  1.2953
 6558TIP3   OH219679   0.138   0.788   1.757  0.0742  0.6854 -0.1321
 6558TIP3    H119680   0.106   0.864   1.805  0.4085 -0.1555  1.4747
 6558TIP3    H219681   0.186   0.825   1.683  0.5322  2.0478  0.8121
 6559TIP3   OH219682   0.157   2.836   2.108  0.3318 -0.0524 -0.4135
 6559TIP3    H119683   0.126   2.924   2.127 -2.0411 -0.8882 -0.0696
 6559TIP3    H219684   0.250   2.847   2.090  0.2092  2.4359  0.0858
 6560TIP3   OH219685   1.906   2.682   2.466  0.0766 -0.3983 -0.2920
 6560TIP3    H119686   1.877   2.628   2.540  1.1703 -1.4754 -0.6083
 6560TIP3    H219687   1.864   2.767   2.481  1.2257 -0.1718  2.2414
 6561TIP3   OH219688   0.239   5.233   3.292  0.3965 -0.2274 -0.2724
 6561TIP3    H119689   0.258   5.151   3.338  1.0004 -0.2688 -0.5940
 6561TIP3    H219690   0.324   5.274   3.280  0.0123  0.9063  0.7239
 6562TIP3   OH219691   1.337   4.715   3.847 -0.1385 -0.1199  0.2206
 6562TIP3    H119692   1.415   4.667   3.874  1.0158  0.4313 -1.8966
 6562TIP3    H219693   1.371   4.788   3.796 -2.0233  0.7334  0.1162
 6563TIP3   OH219694   4.749   0.042   1.283 -0.1624 -0.2178  0.1224
 6563TIP3    H119695   4.705  -0.014   1.348  1.1471 -1.8886 -0.3754
 6563TIP3    H219696   4.680   0.063   1.220 -0.7900 -0.8890  0.5681
 6564TIP3   OH219697   3.409   4.595   0.108  0.2846 -0.0669  0.8782
 6564TIP3    H119698   3.410   4.595   0.204 -1.4255  1.7786  0.9614
 6564TIP3    H219699   3.432   4.684   0.084  0.8019 -0.5453 -0.4491
 6565TIP3   OH219700   5.313   0.063   3.049  0.0505  0.3272  0.2258
 6565TIP3    H119701   5.356   0.046   2.965 -1.4711 -0.8083 -0.3699
 6565TIP3    H219702   5.359   0.139   3.084  0.7984  0.7752 -1.5920
 6566TIP3   OH219703   1.083   1.151   1.499 -0.1465  0.3247  0.5434
 6566TIP3    H119704   0.989   1.139   1.487  0.0711 -0.3738 -0.6579
 6566TIP3    H219705   1.103   1.232   1.452  0.2862 -1.0526 -1.7937
 6567TIP3   OH219706   6.002   3.826   1.061 -0.2364 -0.2876  0.1452
 6567TIP3    H119707   5.923   3.784   1.027 -0.0089 -2.0541  1.6608
 6567TIP3    H219708   6.029   3.771   1.135  2.8687 -0.2682 -0.7949
 6568TIP3   OH219709   4.415   5.861   2.146  0.2429 -0.4819 -0.2521
 6568TIP3    H119710   4.511   5.857   2.144  0.2527 -1.2186  0.6564
 6568TIP3    H219711   4.394   5.895   2.233 -0.3106  1.3280 -1.0659
 6569TIP3   OH219712   0.884   3.920   3.180 -0.1434 -0.1171  0.1712
 6569TIP3    H119713   0.921   4.008   3.190  0.5836 -0.4188  0.2565
 6569TIP3    H219714   0.851   3.899   3.268 -1.8025  0.6906 -0.2204
 6570TIP3   OH219715   2.268   5.278   1.239  0.2149 -0.2342  0.1348
 6570TIP3    H119716   2.336   5.251   1.300  1.1641  0.7411 -0.4663
 6570TIP3    H219717   2.315   5.309   1.162 -0.9507 -1.2266 -1.0361
 6571TIP3   OH219718   1.935   5.044   3.972 -0.4155 -0.2791  0.6907
 6571TIP3    H119719   2.030   5.054   3.983  0.0144 -1.8069 -1.0316
 6571TIP3    H219720   1.923   4.950   3.958 -2.0498  0.0378 -0.2313
 6572TIP3   OH219721   0.406   4.652   3.977 -0.6552  0.1784 -0.5267
 6572TIP3    H119722   0.464   4.601   3.920  0.9262 -1.9780  2.6666
 6572TIP3    H219723   0.366   4.717   3.919  1.9908 -0.7269 -3.7058
 6573TIP3   OH219724   3.172   3.331   4.416  0.2818 -0.5741 -0.3417
 6573TIP3    H119725   3.184   3.308   4.324 -0.0901 -1.2230 -0.2366
 6573TIP3    H219726   3.163   3.426   4.417  1.3493 -0.4599 -0.8543
 6574TIP3   OH219727   0.296   0.562   1.788  0.0092  0.3947  0.0259
 6574TIP3    H119728   0.241   0.632   1.753  1.1930  0.7956 -1.1139
 6574TIP3    H219729   0.385   0.589   1.767  0.4819 -1.6660 -0.8782
 6575TIP3   OH219730   4.106   3.835   3.908  0.6943  0.9747  0.4094
 6575TIP3    H119731   4.170   3.798   3.968 -0.5081 -1.8114  0.1309
 6575TIP3    H219732   4.074   3.760   3.858 -0.7639  2.6897 -1.3917
 6576TIP3   OH219733   3.211   1.582   0.194 -0.0203  0.3987  0.1570
 6576TIP3    H119734   3.233   1.673   0.214  2.2211  0.0209 -0.2986
 6576TIP3    H219735   3.119   1.585   0.168  0.1494  2.6175 -0.4224
 6577TIP3   OH219736   1.790   0.559   3.083  0.2194  0.2111  0.3158
 6577TIP3    H119737   1.797   0.474   3.041 -0.9618  0.5390 -0.5981
 6577TIP3    H219738   1.840   0.550   3.164  2.1903 -0.5695 -0.9140
 6578TIP3   OH219739   5.184   3.148   1.673 -0.0006 -0.1198  0.6405
 6578TIP3    H119740   5.196   3.243   1.681  0.7826  0.0785 -1.9289
 6578TIP3    H219741   5.095   3.139   1.639 -0.0543 -0.3103  0.8329
 6579TIP3   OH219742   5.145   3.627   4.499 -0.2085 -1.0116  0.4947
 6579TIP3    H119743   5.066   3.658   4.454 -0.2505 -1.0158  0.5653
 6579TIP3    H219744   5.117   3.613   4.589 -0.0139 -0.5609  0.6292
 6580TIP3   OH219745   0.114   1.676   4.576 -0.3418  0.2265  0.5544
 6580TIP3    H119746   0.137   1.739   4.644 -0.1903  1.3539 -0.5022
 6580TIP3    H219747   0.050   1.618   4.617  0.4266  0.3129  1.9195
 6581TIP3   OH219748   1.207   1.363   1.743 -0.3708 -0.8539  0.1139
 6581TIP3    H119749   1.114   1.342   1.754 -0.3399 -0.7362  0.6196
 6581TIP3    H219750   1.230   1.324   1.659 -0.5935 -1.8671  0.5057
 6582TIP3   OH219751   2.520   2.593   2.735 -0.1404  0.1453 -0.5864
 6582TIP3    H119752   2.426   2.576   2.739 -0.1256 -0.1097 -1.2134
 6582TIP3    H219753   2.555   2.555   2.815 -0.3623 -1.1487 -1.0910
 6583TIP3   OH219754   0.003   5.648   3.554  0.2492  0.0119 -0.2602
 6583TIP3    H119755   0.029   5.685   3.639 -2.7036  1.5926  0.0685
 6583TIP3    H219756   0.010   5.554   3.566  0.8402  0.2330  1.4151
 6584TIP3   OH219757   5.456   5.209   0.618  0.4821  0.2979 -0.2362
 6584TIP3    H119758   5.486   5.141   0.680  1.5999  1.7455  0.8850
 6584TIP3    H219759   5.529   5.219   0.557 -0.7094 -1.2993 -2.0512
 6585TIP3   OH219760   5.954   1.539   1.060  0.0268 -0.3873 -0.1345
 6585TIP3    H119761   5.943   1.630   1.086  2.0423 -0.5236  1.4463
 6585TIP3    H219762   5.870   1.498   1.080 -0.3619  0.7755  0.7304
 6586TIP3   OH219763   3.193   2.194   0.211 -0.7236 -0.3235  0.4095
 6586TIP3    H119764   3.199   2.188   0.115 -0.2393 -1.1580  0.4905
 6586TIP3    H219765   3.283   2.198   0.240 -0.8744  0.0407  0.8391
 6587TIP3   OH219766   2.312   0.509   0.906  0.4284 -0.0634 -0.4390
 6587TIP3    H119767   2.248   0.498   0.835 -0.8929  1.0302  0.5275
 6587TIP3    H219768   2.387   0.551   0.864  0.2016 -0.6092 -1.4347
 6588TIP3   OH219769   0.984   0.184   1.098 -0.9881  0.1148  0.4144
 6588TIP3    H119770   1.068   0.151   1.066 -1.6665 -0.4513 -0.8652
 6588TIP3    H219771   0.919   0.124   1.062 -2.3268  2.8660 -2.2286
 6589TIP3   OH219772   5.250   0.167   4.592  0.2453 -0.8217  0.2969
 6589TIP3    H119773   5.311   0.146   4.521  0.1891  0.5344 -0.1740
 6589TIP3    H219774   5.164   0.160   4.552  0.2482  1.1500 -0.1512
 6590TIP3   OH219775   1.937   0.471   1.385 -0.3570  0.3669 -0.0649
 6590TIP3    H119776   2.000   0.405   1.414 -0.6329  0.4170  0.6846
 6590TIP3    H219777   1.926   0.529   1.461 -1.4580  0.2407 -0.1053
 6591TIP3   OH219778   0.199   4.980   4.476  0.2048  0.1244  0.3915
 6591TIP3    H119779   0.193   4.900   4.528  1.3006 -0.7347 -0.7454
 6591TIP3    H219780   0.144   4.964   4.400 -0.7964  1.0775  0.8970
 6592TIP3   OH219781   4.092   0.130   0.234  0.1404 -0.1211  0.7413
 6592TIP3    H119782   4.172   0.182   0.226  1.8248 -2.4607  1.1588
 6592TIP3    H219783   4.073   0.103   0.144 -0.3493  0.6422  0.6093
 6593TIP3   OH219784   3.874   1.736   0.308 -0.0452  0.4586  0.0511
 6593TIP3    H119785   3.921   1.695   0.381 -2.1523 -0.7909  0.8058
 6593TIP3    H219786   3.820   1.804   0.349 -0.4313  0.4866 -0.4828
 6594TIP3   OH219787   6.162   0.024   2.979  0.2114  0.3412  0.3952
 6594TIP3    H119788   6.138  -0.062   2.946  0.3819  0.0790  0.9427
 6594TIP3    H219789   6.081   0.074   2.977  0.0505  0.0798  0.3337
 6595TIP3   OH219790   1.520   4.539   1.223 -0.3205 -0.1197 -0.6528
 6595TIP3    H119791   1.460   4.521   1.151 -0.5385  1.4153 -0.8911
 6595TIP3    H219792   1.605   4.551   1.181 -0.8580  3.1930 -1.0409
 6596TIP3   OH219793   6.120   2.392   1.233 -0.1366 -0.1882 -0.2822
 6596TIP3    H119794   6.040   2.436   1.205 -0.0086 -0.8815 -1.8405
 6596TIP3    H219795   6.190   2.438   1.188  0.2193 -0.4240  0.0240
 6597TIP3   OH219796   0.972   1.932   1.828 -0.1919  0.6579 -0.1682
 6597TIP3    H119797   1.020   2.012   1.849  0.2720  1.4490 -3.6351
 6597TIP3    H219798   0.891   1.963   1.787 -0.6703 -0.6465 -0.2487
 6598TIP3   OH219799   5.096   4.060   5.089 -0.3000  0.0862 -0.0070
 6598TIP3    H119800   5.056   4.146   5.094  0.5296  0.5382 -0.7477
 6598TIP3    H219801   5.062   4.012   5.164  0.6459  1.6621  1.4912
 6599TIP3   OH219802   2.597   2.159   1.323 -0.4028 -0.5702 -0.7024
 6599TIP3    H119803   2.566   2.146   1.233 -1.4485 -1.3178 -0.2600
 6599TIP3    H219804   2.560   2.243   1.350  0.6209  0.0754 -1.2363
 6600TIP3   OH219805   1.833   1.336   2.174  0.2940 -0.0616  0.0379
 6600TIP3    H119806   1.745   1.325   2.139 -0.1668 -0.0052  1.1378
 6600TIP3    H219807   1.876   1.395   2.112 -1.1863  1.7998  0.6974
 6601TIP3   OH219808   3.121   0.665   1.591  0.4716 -0.0060  0.4036
 6601TIP3    H119809   3.164   0.710   1.518 -0.3426  0.5239  0.2311
 6601TIP3    H219810   3.077   0.590   1.550 -1.3591  1.1996  0.0365
 6602TIP3   OH219811   3.674   4.258   1.658 -0.3582  0.5572 -0.5603
 6602TIP3    H119812   3.730   4.187   1.625  0.0573  0.3508  0.5400
 6602TIP3    H219813   3.591   4.216   1.678  0.0698  0.2579  0.6218
 6603TIP3   OH219814   2.751   0.904   2.454  0.6339  0.2832 -0.4391
 6603TIP3    H119815   2.680   0.945   2.502  0.7565 -0.5837  0.5169
 6603TIP3    H219816   2.830   0.945   2.489  0.8952 -1.9473  1.8613
 6604TIP3   OH219817   4.432   0.419   3.403 -0.2341 -0.1056 -0.1707
 6604TIP3    H119818   4.466   0.460   3.324 -0.5378  1.2643  0.3827
 6604TIP3    H219819   4.413   0.492   3.462 -0.7396 -1.0508  0.8803
 6605TIP3   OH219820   2.881   5.611   2.393 -0.7170  0.0946 -0.1105
 6605TIP3    H119821   2.949   5.637   2.456  0.6832 -0.0966 -1.4813
 6605TIP3    H219822   2.879   5.515   2.399  0.0166  0.0224 -0.9405
 6606TIP3   OH219823   4.964   5.400   5.088 -0.5503 -0.6325 -0.9858
 6606TIP3    H119824   4.982   5.490   5.064 -2.4754 -0.4621 -1.9960
 6606TIP3    H219825   5.050   5.362   5.106  0.2655  1.4785 -0.1166
 6607TIP3   OH219826   4.063   3.988   4.918  0.3859 -0.4187  0.1315
 6607TIP3    H119827   3.969   3.991   4.939  0.2394 -0.2342 -0.5554
 6607TIP3    H219828   4.102   3.948   4.996 -0.5908 -3.0845 -0.6312
 6608TIP3   OH219829   3.093   4.710   4.269  0.1552  0.4012 -0.6487
 6608TIP3    H119830   3.097   4.677   4.179 -1.0675 -1.5891 -0.0373
 6608TIP3    H219831   3.167   4.667   4.313  0.1922  0.6298 -0.4913
 6609TIP3   OH219832   3.098   4.634   1.634  0.4787  0.2200 -0.3448
 6609TIP3    H119833   3.155   4.560   1.652  0.2512 -0.1273 -1.0301
 6609TIP3    H219834   3.048   4.608   1.557 -1.0856  0.2443  0.6023
 6610TIP3   OH219835   4.749   2.311   4.629  0.2715 -0.3892  0.4504
 6610TIP3    H119836   4.760   2.404   4.606 -1.8165 -0.3724 -0.7587
 6610TIP3    H219837   4.720   2.270   4.547  2.9316 -2.5312  0.4510
 6611TIP3   OH219838   5.864   1.325   4.158 -0.5914 -0.5171 -0.0073
 6611TIP3    H119839   5.880   1.407   4.206  0.5154 -1.3109  1.0535
 6611TIP3    H219840   5.881   1.348   4.066  1.2270  0.1026  0.4388
 6612TIP3   OH219841   5.202   0.089   1.699  0.2504 -0.1843  0.4341
 6612TIP3    H119842   5.107   0.075   1.707 -0.1396  1.7804 -0.1707
 6612TIP3    H219843   5.239   0.040   1.773 -1.1604 -1.4254  0.3883
 6613TIP3   OH219844   6.333   2.938   4.684 -0.1696 -0.5611 -0.4170
 6613TIP3    H119845   6.293   3.012   4.732 -1.1371 -2.8986  2.7467
 6613TIP3    H219846   6.396   2.979   4.625  0.9375  2.7819  2.6796
 6614TIP3   OH219847   5.533   3.040   1.888  0.0382  0.0799 -0.1922
 6614TIP3    H119848   5.451   3.063   1.932  0.2803  2.3102 -0.7664
 6614TIP3    H219849   5.578   2.982   1.949 -1.8331 -1.0007  0.2321
 6615TIP3   OH219850   5.290   1.675   1.388 -0.7318  0.4724 -0.2900
 6615TIP3    H119851   5.298   1.683   1.483 -0.5009  1.2046 -0.3718
 6615TIP3    H219852   5.335   1.593   1.368  1.7647  1.7011 -0.0824
 6616TIP3   OH219853   1.472   1.680   0.114  0.0932 -0.3654 -0.3427
 6616TIP3    H119854   1.417   1.615   0.070  0.1902  1.0531 -2.6823
 6616TIP3    H219855   1.561   1.662   0.081  0.4175 -0.1574  0.3959
 6617TIP3   OH219856   4.304   1.107   3.276 -0.8864 -0.0373  0.4729
 6617TIP3    H119857   4.229   1.095   3.218  0.7030  1.0298 -2.0005
 6617TIP3    H219858   4.316   1.202   3.280 -0.8816 -0.0934  2.5385
 6618TIP3   OH219859   0.906   0.368   3.900 -0.0662 -0.4269  0.9070
 6618TIP3    H119860   0.888   0.387   3.993 -0.1412 -0.1990  0.8485
 6618TIP3    H219861   0.855   0.290   3.881  1.4925 -1.6679  1.5817
 6619TIP3   OH219862   5.722   3.829   4.486  0.0394  0.2300  0.1794
 6619TIP3    H119863   5.661   3.874   4.427  0.7097  1.8694  0.6640
 6619TIP3    H219864   5.790   3.794   4.429 -0.2146  0.3028 -0.1676
 6620TIP3   OH219865   3.684   0.209   1.300 -0.6472  0.8037  0.1405
 6620TIP3    H119866   3.628   0.143   1.341 -1.4961  0.9723 -0.7122
 6620TIP3    H219867   3.772   0.171   1.301 -0.8958  0.2328  0.8666
 6621TIP3   OH219868   3.007   2.933   4.707  0.8538 -0.1283 -0.1858
 6621TIP3    H119869   2.945   2.922   4.635  0.2971 -0.0063  0.2674
 6621TIP3    H219870   3.051   3.016   4.688  2.1169 -1.0444 -1.4147
 6622TIP3   OH219871   2.637   3.418   1.675 -0.2575 -0.1285 -0.0616
 6622TIP3    H119872   2.668   3.495   1.723  0.7923 -0.0104 -0.8990
 6622TIP3    H219873   2.640   3.347   1.740 -0.2425  0.3237  0.4353
 6623TIP3   OH219874   3.202   0.006   1.483  0.0600 -0.2305 -0.7663
 6623TIP3    H119875   3.213   0.067   1.556  0.2945  0.0293 -1.0202
 6623TIP3    H219876   3.109   0.011   1.462  0.0568 -0.0474 -0.7109
 6624TIP3   OH219877   2.382   0.614   0.076  0.5983 -0.1322 -0.3446
 6624TIP3    H119878   2.447   0.545   0.064 -0.2652 -0.7718 -1.5061
 6624TIP3    H219879   2.316   0.597   0.009  0.6029  2.1092 -0.9816
 6625TIP3   OH219880   2.661   3.056   4.959  0.2925 -0.0208 -0.2144
 6625TIP3    H119881   2.730   2.992   4.944  0.4468  0.2245 -0.5742
 6625TIP3    H219882   2.597   3.011   5.014  0.7240 -0.2596  0.0968
 6626TIP3   OH219883   3.813   1.773   0.933  0.2866  0.0688 -0.2373
 6626TIP3    H119884   3.784   1.847   0.879 -1.6384  0.9786  1.9060
 6626TIP3    H219885   3.766   1.697   0.898  1.2051  0.0703 -1.5558
 6627TIP3   OH219886   2.426   3.202   3.822 -0.2165 -0.0785  1.0377
 6627TIP3    H119887   2.506   3.168   3.861  0.3174  0.9321  0.8715
 6627TIP3    H219888   2.411   3.285   3.868 -1.0207 -0.1349  0.8830
 6628TIP3   OH219889   6.171   1.404   2.923 -0.2112 -0.6442  0.2798
 6628TIP3    H119890   6.202   1.464   2.991 -0.2476  0.0677 -0.3242
 6628TIP3    H219891   6.240   1.405   2.857 -0.0947 -1.4707  0.3862
 6629TIP3   OH219892   2.991   4.853   1.826 -0.1031  0.2275  0.0871
 6629TIP3    H119893   2.955   4.772   1.861 -0.2335  0.4060  0.3715
 6629TIP3    H219894   3.047   4.887   1.896  1.1119 -0.3521 -0.5627
 6630TIP3   OH219895   1.410   4.734   0.883 -0.1027 -0.3700 -0.3696
 6630TIP3    H119896   1.501   4.764   0.883 -0.5080  1.0075  1.3970
 6630TIP3    H219897   1.415   4.639   0.888  1.2396 -0.3105 -0.4423
 6631TIP3   OH219898   4.476   0.673   4.289  0.2744  0.0552 -0.4459
 6631TIP3    H119899   4.551   0.625   4.255  0.9732  1.5233 -1.0586
 6631TIP3    H219900   4.428   0.700   4.211  0.2368  0.8771 -0.1456
 6632TIP3   OH219901   0.898   2.387   4.871  0.6275 -0.6816 -0.2328
 6632TIP3    H119902   0.823   2.427   4.827  1.6081  2.5418  0.7346
 6632TIP3    H219903   0.864   2.358   4.955 -0.2907 -2.8345 -1.2788
 6633TIP3   OH219904   4.194   1.613   1.515 -0.4091 -0.2762 -0.2270
 6633TIP3    H119905   4.261   1.672   1.482 -0.2244 -1.3254 -1.8407
 6633TIP3    H219906   4.243   1.538   1.550 -0.6476  0.3812  1.6028
 6634TIP3   OH219907   3.800   1.892   1.660  0.3892  0.3958 -0.1650
 6634TIP3    H119908   3.739   1.960   1.688  0.8554  0.7982 -0.1087
 6634TIP3    H219909   3.824   1.847   1.741  0.4548  0.4786 -0.1386
 6635TIP3   OH219910   3.408   2.737   0.875  0.0772 -0.1523 -0.0753
 6635TIP3    H119911   3.450   2.742   0.960 -0.4188  0.1707  0.1522
 6635TIP3    H219912   3.356   2.656   0.879  0.0064 -0.1055 -0.0507
 6636TIP3   OH219913   0.183   0.589   1.448 -0.5081 -0.4220 -0.1972
 6636TIP3    H119914   0.261   0.643   1.440 -0.2141 -0.7039  0.6425
 6636TIP3    H219915   0.201   0.511   1.396 -0.4320 -0.2688 -0.4001
 6637TIP3   OH219916   0.201   0.310   5.144  0.4761  0.2328 -0.1078
 6637TIP3    H119917   0.251   0.381   5.184  1.5336 -0.3090 -0.4404
 6637TIP3    H219918   0.113   0.346   5.132  0.8967  1.3449  0.0795
 6638TIP3   OH219919   0.706   0.694   5.133 -0.4039 -0.3806  0.4065
 6638TIP3    H119920   0.793   0.679   5.168 -0.7232 -0.2742  1.2706
 6638TIP3    H219921   0.677   0.609   5.101  0.5131 -0.1662 -1.0905
 6639TIP3   OH219922   0.721   1.996   1.727 -0.1758 -0.6250 -0.4560
 6639TIP3    H119923   0.632   1.967   1.747 -0.5021 -0.6265 -1.7747
 6639TIP3    H219924   0.739   1.958   1.641  1.1398 -0.6946 -0.1677
 6640TIP3   OH219925   0.048   4.351   1.651 -0.7725 -0.0334  0.0148
 6640TIP3    H119926   0.073   4.390   1.735 -1.4022 -0.5175  0.4414
 6640TIP3    H219927   0.051   4.257   1.667 -0.4039 -0.1450 -0.6627
   6.35333   5.98997   5.18747   0.00000   0.00000  -2.11777   0.00000  -2.11777  -2.99499
