Title t=   1.00000 step= 500
44463
    1GLY      N    1   3.134   3.123   3.238
    1GLY    HT1    2   3.120   3.155   3.140
    1GLY    HT2    3   3.202   3.044   3.239
    1GLY    HT3    4   3.180   3.202   3.290
    1GLY     CA    5   3.003   3.078   3.283
    1GLY    HA1    6   2.973   3.008   3.207
    1GLY    HA2    7   2.945   3.168   3.294
    1GLY      C    8   3.014   3.013   3.416
    1GLY      O    9   3.115   3.036   3.483
    2PRO      N   10   2.912   2.947   3.475
    2PRO     CD   11   2.778   2.933   3.406
    2PRO    HD1   12   2.784   2.848   3.334
    2PRO    HD2   13   2.741   3.021   3.349
    2PRO     CA   14   2.908   2.879   3.602
    2PRO     HA   15   2.919   2.951   3.682
    2PRO     CB   16   2.762   2.823   3.616
    2PRO    HB1   17   2.724   2.833   3.720
    2PRO    HB2   18   2.763   2.716   3.589
    2PRO     CG   19   2.680   2.891   3.515
    2PRO    HG1   20   2.598   2.825   3.479
    2PRO    HG2   21   2.640   2.987   3.554
    2PRO      C   22   3.026   2.787   3.631
    2PRO      O   23   3.070   2.710   3.545
    3GLY      N   24   3.073   2.786   3.761
    3GLY     HN   25   3.044   2.858   3.823
    3GLY     CA   26   3.179   2.691   3.809
    3GLY    HA1   27   3.212   2.724   3.907
    3GLY    HA2   28   3.269   2.698   3.749
    3GLY      C   29   3.141   2.545   3.822
    3GLY      O   30   3.034   2.508   3.771
    4ASP      N   31   3.224   2.461   3.875
    4ASP     HN   32   3.313   2.505   3.886
    4ASP     CA   33   3.216   2.323   3.872
    4ASP     HA   34   3.172   2.292   3.778
    4ASP     CB   35   3.357   2.256   3.875
    4ASP    HB1   36   3.346   2.147   3.894
    4ASP    HB2   37   3.424   2.294   3.955
    4ASP     CG   38   3.430   2.265   3.743
    4ASP    OD1   39   3.532   2.194   3.727
    4ASP    OD2   40   3.381   2.332   3.650
    4ASP      C   41   3.129   2.264   3.983
    4ASP      O   42   3.108   2.329   4.083
    5PRO      N   43   3.080   2.144   3.979
    5PRO     CD   44   3.055   2.063   3.862
    5PRO    HD1   45   3.154   2.041   3.819
    5PRO    HD2   46   3.000   2.133   3.795
    5PRO     CA   47   3.042   2.070   4.100
    5PRO     HA   48   2.949   2.121   4.124
    5PRO     CB   49   3.035   1.928   4.048
    5PRO    HB1   50   2.961   1.875   4.111
    5PRO    HB2   51   3.136   1.882   4.046
    5PRO     CG   52   2.978   1.946   3.906
    5PRO    HG1   53   2.992   1.849   3.854
    5PRO    HG2   54   2.869   1.967   3.911
    5PRO      C   55   3.120   2.075   4.229
    5PRO      O   56   3.238   2.100   4.229
    6GLY      N   57   3.052   2.049   4.338
    6GLY     HN   58   2.954   2.029   4.338
    6GLY     CA   59   3.128   2.028   4.459
    6GLY    HA1   60   3.053   2.045   4.535
    6GLY    HA2   61   3.205   2.103   4.463
    6GLY      C   62   3.191   1.892   4.491
    6GLY      O   63   3.172   1.800   4.408
    7PRO      N   64   3.270   1.875   4.600
    7PRO     CD   65   3.300   1.992   4.686
    7PRO    HD1   66   3.213   2.007   4.753
    7PRO    HD2   67   3.335   2.086   4.638
    7PRO     CA   68   3.313   1.751   4.658
    7PRO     HA   69   3.397   1.722   4.596
    7PRO     CB   70   3.368   1.789   4.797
    7PRO    HB1   71   3.444   1.717   4.834
    7PRO    HB2   72   3.290   1.790   4.876
    7PRO     CG   73   3.414   1.941   4.774
    7PRO    HG1   74   3.429   1.982   4.876
    7PRO    HG2   75   3.512   1.938   4.721
    7PRO      C   76   3.205   1.645   4.674
    7PRO      O   77   3.092   1.680   4.704
    8GLY      N   78   3.252   1.516   4.661
    8GLY     HN   79   3.351   1.500   4.663
    8GLY     CA   80   3.175   1.391   4.669
    8GLY    HA1   81   3.136   1.388   4.769
    8GLY    HA2   82   3.245   1.312   4.644
    8GLY      C   83   3.052   1.379   4.578
    8GLY      O   84   3.040   1.443   4.475
    9ASP      N   85   2.964   1.288   4.614
    9ASP     HN   86   2.976   1.236   4.699
    9ASP     CA   87   2.843   1.255   4.539
    9ASP     HA   88   2.877   1.236   4.438
    9ASP     CB   89   2.772   1.124   4.589
    9ASP    HB1   90   2.679   1.098   4.534
    9ASP    HB2   91   2.749   1.136   4.697
    9ASP     CG   92   2.861   1.007   4.594
    9ASP    OD1   93   2.946   0.984   4.502
    9ASP    OD2   94   2.832   0.912   4.672
    9ASP      C   95   2.748   1.374   4.521
    9ASP      O   96   2.733   1.463   4.607
   10PRO      N   97   2.673   1.384   4.406
   10PRO     CD   98   2.664   1.299   4.294
   10PRO    HD1   99   2.608   1.206   4.317
   10PRO    HD2  100   2.769   1.271   4.270
   10PRO     CA  101   2.574   1.488   4.391
   10PRO     HA  102   2.629   1.579   4.377
   10PRO     CB  103   2.503   1.461   4.256
   10PRO    HB1  104   2.466   1.551   4.203
   10PRO    HB2  105   2.417   1.394   4.278
   10PRO     CG  106   2.605   1.379   4.179
   10PRO    HG1  107   2.556   1.317   4.101
   10PRO    HG2  108   2.678   1.449   4.134
   10PRO      C  109   2.471   1.507   4.505
   10PRO      O  110   2.442   1.409   4.576
   11GLY      N  111   2.421   1.631   4.523
   11GLY     HN  112   2.445   1.703   4.457
   11GLY     CA  113   2.328   1.664   4.631
   11GLY    HA1  114   2.236   1.610   4.616
   11GLY    HA2  115   2.313   1.768   4.606
   11GLY      C  116   2.381   1.648   4.771
   11GLY      O  117   2.505   1.652   4.788
   12PRO      N  118   2.290   1.650   4.873
   12PRO     CD  119   2.144   1.664   4.859
   12PRO    HD1  120   2.115   1.561   4.830
   12PRO    HD2  121   2.108   1.743   4.790
   12PRO     CA  122   2.324   1.629   5.011
   12PRO     HA  123   2.367   1.720   5.048
   12PRO     CB  124   2.191   1.607   5.084
   12PRO    HB1  125   2.188   1.645   5.189
   12PRO    HB2  126   2.160   1.501   5.078
   12PRO     CG  127   2.092   1.690   5.006
   12PRO    HG1  128   1.989   1.653   5.024
   12PRO    HG2  129   2.106   1.797   5.034
   12PRO      C  130   2.415   1.511   5.047
   12PRO      O  131   2.412   1.413   4.971
   13GLY      N  132   2.498   1.524   5.150
   13GLY     HN  133   2.498   1.613   5.195
   13GLY     CA  134   2.571   1.416   5.200
   13GLY    HA1  135   2.649   1.448   5.266
   13GLY    HA2  136   2.625   1.369   5.119
   13GLY      C  137   2.494   1.314   5.279
   13GLY      O  138   2.385   1.342   5.326
   14ASP      N  139   2.556   1.196   5.303
   14ASP     HN  140   2.651   1.185   5.277
   14ASP     CA  141   2.503   1.090   5.383
   14ASP     HA  142   2.408   1.075   5.333
   14ASP     CB  143   2.577   0.959   5.368
   14ASP    HB1  144   2.518   0.878   5.415
   14ASP    HB2  145   2.677   0.963   5.417
   14ASP     CG  146   2.582   0.910   5.228
   14ASP    OD1  147   2.692   0.863   5.185
   14ASP    OD2  148   2.480   0.906   5.158
   14ASP      C  149   2.477   1.129   5.529
   14ASP      O  150   2.570   1.179   5.595
   15PRO      N  151   2.355   1.092   5.593
   15PRO     CD  152   2.247   1.011   5.533
   15PRO    HD1  153   2.296   0.923   5.487
   15PRO    HD2  154   2.198   1.062   5.448
   15PRO     CA  155   2.329   1.125   5.736
   15PRO     HA  156   2.347   1.231   5.739
   15PRO     CB  157   2.177   1.096   5.745
   15PRO    HB1  158   2.124   1.185   5.706
   15PRO    HB2  159   2.146   1.094   5.852
   15PRO     CG  160   2.155   0.985   5.650
   15PRO    HG1  161   2.188   0.885   5.685
   15PRO    HG2  162   2.047   0.980   5.623
   15PRO      C  163   2.421   1.047   5.833
   15PRO    OT1  164   2.417   0.922   5.834
   15PRO    OT2  165   2.500   1.111   5.900
   16LIT    LIT  166   2.603   0.930   5.903
   17LIT    LIT  167   0.845   3.369   5.288
   18LIT    LIT  168   2.864   6.217   2.917
   19LIT    LIT  169   6.348   4.216   1.377
   20LIT    LIT  170   1.603   5.137   3.260
   21LIT    LIT  171   7.252   3.501   2.674
   22LIT    LIT  172   0.661   2.485   5.177
   23LIT    LIT  173   1.189   1.057   3.790
   24LIT    LIT  174   1.777   1.301   4.914
   25LIT    LIT  175   1.503   6.296   5.026
   26LIT    LIT  176   7.109   0.891   3.922
   27LIT    LIT  177   2.223   6.668   0.447
   28LIT    LIT  178   5.668   0.834   6.521
   29LIT    LIT  179   2.455   5.728   1.140
   30LIT    LIT  180   7.010   6.034   6.581
   31LIT    LIT  181   6.010   5.864   4.982
   32LIT    LIT  182   4.783   4.300   0.062
   33LIT    LIT  183   7.035   1.204   1.425
   34LIT    LIT  184   4.273   7.835   2.488
   35LIT    LIT  185   8.281   3.682   1.653
   36LIT    LIT  186   3.119   0.989   4.423
   37LIT    LIT  187   0.630   5.440   1.650
   38LIT    LIT  188   3.727   7.721   3.397
   39LIT    LIT  189   8.242   7.730   3.267
   40LIT    LIT  190   5.494   6.267   1.514
   41LIT    LIT  191   2.931   4.649   2.821
   42LIT    LIT  192   0.646   4.392   6.440
   43LIT    LIT  193   6.255   2.514   0.997
   44LIT    LIT  194   6.706   2.860   6.276
   45LIT    LIT  195   7.178   5.397   3.598
   46LIT    LIT  196   7.030   4.256   1.947
   47LIT    LIT  197   3.940   5.328   5.909
   48LIT    LIT  198   7.203   3.924   5.534
   49LIT    LIT  199   1.957   5.953   2.276
   50LIT    LIT  200   0.314   0.735   4.082
   51LIT    LIT  201   1.796   0.395   3.067
   52LIT    LIT  202   6.369   4.833   0.850
   53LIT    LIT  203   0.143   2.882   2.611
   54LIT    LIT  204   1.532   2.652   1.744
   55LIT    LIT  205   0.550   0.698   2.545
   56LIT    LIT  206   6.380   5.719   2.745
   57LIT    LIT  207   5.472   4.584   3.557
   58LIT    LIT  208   2.608   0.843   5.015
   59LIT    LIT  209   2.026   5.730   6.669
   60LIT    LIT  210   3.318   5.758   5.132
   61CLA    CLA  211   6.855   7.160   4.840
   62CLA    CLA  212   2.911   4.933   5.286
   63CLA    CLA  213   2.359   1.414   0.279
   64CLA    CLA  214   7.867   6.641   6.751
   65CLA    CLA  215   5.323   5.370   3.140
   66CLA    CLA  216   0.130   0.360   3.104
   67CLA    CLA  217   2.442   0.429   5.722
   68CLA    CLA  218   2.926   6.502   3.619
   69CLA    CLA  219   2.045   3.235   4.835
   70CLA    CLA  220   5.600   5.780   4.997
   71CLA    CLA  221   8.009   5.296   3.949
   72CLA    CLA  222   2.217   5.166   2.532
   73CLA    CLA  223   1.481   7.541   4.821
   74CLA    CLA  224   7.338   7.548   2.639
   75CLA    CLA  225   6.653   2.271   6.559
   76CLA    CLA  226   6.654   2.982   6.693
   77CLA    CLA  227   4.062   4.399   4.316
   78CLA    CLA  228   4.669   4.666   0.359
   79CLA    CLA  229   0.577   5.542   0.072
   80CLA    CLA  230   8.128   4.305   0.915
   81CLA    CLA  231   7.465   0.031   4.908
   82CLA    CLA  232   0.528   0.492   5.636
   83CLA    CLA  233   1.245   4.656   1.510
   84CLA    CLA  234   0.042   7.470   0.237
   85CLA    CLA  235   0.961   4.025   0.104
   86CLA    CLA  236   7.286   4.736   5.385
   87CLA    CLA  237   3.379   5.733   0.314
   88CLA    CLA  238   6.583   4.497   0.715
   89CLA    CLA  239   7.703   5.288   4.391
   90CLA    CLA  240   6.496   3.427   0.590
   91CLA    CLA  241   3.356   2.884   3.217
   92CLA    CLA  242   2.017   0.691   4.230
   93CLA    CLA  243   4.279   2.238   4.851
   94CLA    CLA  244   3.120   6.794   1.626
   95CLA    CLA  245   2.450   5.987   5.015
   96CLA    CLA  246   0.531   0.543   1.954
   97CLA    CLA  247   7.389   1.268   3.687
   98CLA    CLA  248   7.982   6.169   2.504
   99CLA    CLA  249   6.954   0.988   1.404
  100CLA    CLA  250   8.265   4.300   2.987
  101CLA    CLA  251   7.601   3.661   2.940
  102CLA    CLA  252   0.279   2.192   4.655
  103TIP3   OH2  253   2.822   5.243   3.472
  103TIP3    H1  254   2.819   5.311   3.539
  103TIP3    H2  255   2.747   5.187   3.492
  104TIP3   OH2  256   2.962   2.035   0.293
  104TIP3    H1  257   3.018   2.065   0.222
  104TIP3    H2  258   3.006   1.957   0.328
  105TIP3   OH2  259   7.278   2.245   2.193
  105TIP3    H1  260   7.193   2.274   2.227
  105TIP3    H2  261   7.335   2.322   2.203
  106TIP3   OH2  262   5.053   5.301   0.828
  106TIP3    H1  263   5.061   5.206   0.822
  106TIP3    H2  264   5.060   5.321   0.921
  107TIP3   OH2  265   3.058   5.814   2.861
  107TIP3    H1  266   3.085   5.794   2.771
  107TIP3    H2  267   3.139   5.812   2.912
  108TIP3   OH2  268   1.027   4.377   1.664
  108TIP3    H1  269   1.113   4.361   1.702
  108TIP3    H2  270   1.031   4.466   1.630
  109TIP3   OH2  271   0.338   3.304   1.112
  109TIP3    H1  272   0.432   3.314   1.097
  109TIP3    H2  273   0.330   3.223   1.162
  110TIP3   OH2  274   6.578   5.495   4.475
  110TIP3    H1  275   6.485   5.483   4.458
  110TIP3    H2  276   6.610   5.545   4.400
  111TIP3   OH2  277   5.053   5.191   5.953
  111TIP3    H1  278   4.995   5.262   5.925
  111TIP3    H2  279   5.124   5.192   5.888
  112TIP3   OH2  280   0.881   5.174   4.392
  112TIP3    H1  281   0.813   5.230   4.429
  112TIP3    H2  282   0.847   5.148   4.306
  113TIP3   OH2  283   7.164   1.387   3.902
  113TIP3    H1  284   7.246   1.413   3.944
  113TIP3    H2  285   7.191   1.339   3.824
  114TIP3   OH2  286   3.201   6.379   5.931
  114TIP3    H1  287   3.272   6.399   5.993
  114TIP3    H2  288   3.181   6.287   5.948
  115TIP3   OH2  289   6.293   5.009   1.847
  115TIP3    H1  290   6.315   5.033   1.938
  115TIP3    H2  291   6.202   5.038   1.836
  116TIP3   OH2  292   3.398   5.671   0.880
  116TIP3    H1  293   3.395   5.658   0.785
  116TIP3    H2  294   3.485   5.707   0.897
  117TIP3   OH2  295   3.862   5.606   5.363
  117TIP3    H1  296   3.901   5.646   5.441
  117TIP3    H2  297   3.936   5.569   5.315
  118TIP3   OH2  298   1.230   7.081   1.378
  118TIP3    H1  299   1.274   6.996   1.388
  118TIP3    H2  300   1.200   7.080   1.287
  119TIP3   OH2  301   8.236   2.745   3.120
  119TIP3    H1  302   8.317   2.693   3.120
  119TIP3    H2  303   8.170   2.687   3.157
  120TIP3   OH2  304   5.563   4.246   1.010
  120TIP3    H1  305   5.654   4.264   1.036
  120TIP3    H2  306   5.559   4.273   0.918
  121TIP3   OH2  307   7.484   0.530   0.573
  121TIP3    H1  308   7.562   0.527   0.629
  121TIP3    H2  309   7.414   0.556   0.632
  122TIP3   OH2  310   3.949   4.983   4.546
  122TIP3    H1  311   4.031   5.000   4.592
  122TIP3    H2  312   3.900   4.924   4.604
  123TIP3   OH2  313   3.266   1.701   6.499
  123TIP3    H1  314   3.192   1.642   6.512
  123TIP3    H2  315   3.341   1.653   6.535
  124TIP3   OH2  316   2.570   0.711   3.785
  124TIP3    H1  317   2.610   0.769   3.849
  124TIP3    H2  318   2.562   0.627   3.830
  125TIP3   OH2  319   0.690   4.217   4.238
  125TIP3    H1  320   0.614   4.267   4.209
  125TIP3    H2  321   0.765   4.272   4.216
  126TIP3   OH2  322   3.861   6.189   6.453
  126TIP3    H1  323   3.869   6.127   6.382
  126TIP3    H2  324   3.889   6.141   6.531
  127TIP3   OH2  325   1.927   3.258   5.192
  127TIP3    H1  326   1.957   3.206   5.118
  127TIP3    H2  327   1.845   3.216   5.219
  128TIP3   OH2  328   5.583   7.614   5.626
  128TIP3    H1  329   5.653   7.559   5.590
  128TIP3    H2  330   5.607   7.703   5.601
  129TIP3   OH2  331   0.306   2.974   2.656
  129TIP3    H1  332   0.385   2.922   2.671
  129TIP3    H2  333   0.332   3.064   2.676
  130TIP3   OH2  334   1.788   0.740   1.873
  130TIP3    H1  335   1.762   0.832   1.883
  130TIP3    H2  336   1.841   0.738   1.794
  131TIP3   OH2  337   4.185   0.257   1.945
  131TIP3    H1  338   4.254   0.322   1.955
  131TIP3    H2  339   4.210   0.208   1.866
  132TIP3   OH2  340   3.295   4.840   5.250
  132TIP3    H1  341   3.305   4.745   5.243
  132TIP3    H2  342   3.228   4.852   5.317
  133TIP3   OH2  343   8.258   7.354   4.688
  133TIP3    H1  344   8.343   7.365   4.646
  133TIP3    H2  345   8.251   7.427   4.749
  134TIP3   OH2  346   3.557   3.217   5.103
  134TIP3    H1  347   3.532   3.281   5.170
  134TIP3    H2  348   3.483   3.217   5.042
  135TIP3   OH2  349   2.113   0.391   4.238
  135TIP3    H1  350   2.089   0.484   4.246
  135TIP3    H2  351   2.178   0.390   4.167
  136TIP3   OH2  352   1.474   5.551   2.611
  136TIP3    H1  353   1.518   5.480   2.565
  136TIP3    H2  354   1.391   5.513   2.640
  137TIP3   OH2  355   0.434   4.984   0.716
  137TIP3    H1  356   0.402   5.057   0.664
  137TIP3    H2  357   0.529   4.996   0.719
  138TIP3   OH2  358   3.704   3.556   6.343
  138TIP3    H1  359   3.760   3.558   6.421
  138TIP3    H2  360   3.766   3.560   6.270
  139TIP3   OH2  361   1.834   2.753   2.892
  139TIP3    H1  362   1.929   2.741   2.889
  139TIP3    H2  363   1.799   2.664   2.885
  140TIP3   OH2  364   2.158   1.898   0.926
  140TIP3    H1  365   2.147   1.836   0.853
  140TIP3    H2  366   2.192   1.845   0.997
  141TIP3   OH2  367   2.094   1.107   1.761
  141TIP3    H1  368   2.101   1.121   1.667
  141TIP3    H2  369   2.172   1.056   1.784
  142TIP3   OH2  370   6.743   5.402   3.742
  142TIP3    H1  371   6.714   5.428   3.655
  142TIP3    H2  372   6.743   5.484   3.792
  143TIP3   OH2  373   7.607   4.412   4.814
  143TIP3    H1  374   7.592   4.426   4.721
  143TIP3    H2  375   7.611   4.499   4.852
  144TIP3   OH2  376   7.357   6.885   1.585
  144TIP3    H1  377   7.391   6.805   1.546
  144TIP3    H2  378   7.268   6.863   1.613
  145TIP3   OH2  379   5.820   3.488   4.686
  145TIP3    H1  380   5.882   3.429   4.729
  145TIP3    H2  381   5.814   3.563   4.745
  146TIP3   OH2  382   7.073   3.915   2.576
  146TIP3    H1  383   7.003   3.905   2.511
  146TIP3    H2  384   7.028   3.945   2.655
  147TIP3   OH2  385   1.915   2.684   3.901
  147TIP3    H1  386   1.977   2.644   3.839
  147TIP3    H2  387   1.831   2.683   3.854
  148TIP3   OH2  388   3.567   7.135   2.802
  148TIP3    H1  389   3.529   7.086   2.874
  148TIP3    H2  390   3.496   7.142   2.738
  149TIP3   OH2  391   0.080   6.417   0.982
  149TIP3    H1  392   0.060   6.391   0.892
  149TIP3    H2  393   0.102   6.335   1.025
  150TIP3   OH2  394   4.086   3.749   2.532
  150TIP3    H1  395   4.012   3.690   2.516
  150TIP3    H2  396   4.053   3.813   2.595
  151TIP3   OH2  397   2.706   3.849   4.400
  151TIP3    H1  398   2.659   3.924   4.437
  151TIP3    H2  399   2.637   3.795   4.361
  152TIP3   OH2  400   1.665   7.328   5.785
  152TIP3    H1  401   1.669   7.318   5.690
  152TIP3    H2  402   1.755   7.318   5.814
  153TIP3   OH2  403   5.946   5.239   4.912
  153TIP3    H1  404   5.903   5.172   4.859
  153TIP3    H2  405   6.037   5.238   4.882
  154TIP3   OH2  406   6.939   0.549   4.525
  154TIP3    H1  407   6.962   0.616   4.588
  154TIP3    H2  408   7.013   0.488   4.525
  155TIP3   OH2  409   1.636   0.772   1.057
  155TIP3    H1  410   1.726   0.758   1.028
  155TIP3    H2  411   1.644   0.816   1.142
  156TIP3   OH2  412   2.977   4.019   4.593
  156TIP3    H1  413   2.991   4.104   4.551
  156TIP3    H2  414   3.026   4.026   4.676
  157TIP3   OH2  415   1.246   0.429   2.101
  157TIP3    H1  416   1.302   0.502   2.076
  157TIP3    H2  417   1.176   0.429   2.036
  158TIP3   OH2  418   4.527   0.730   1.440
  158TIP3    H1  419   4.555   0.688   1.521
  158TIP3    H2  420   4.433   0.709   1.434
  159TIP3   OH2  421   0.183   4.811   4.951
  159TIP3    H1  422   0.146   4.884   5.001
  159TIP3    H2  423   0.177   4.839   4.860
  160TIP3   OH2  424   1.570   3.761   3.785
  160TIP3    H1  425   1.588   3.749   3.878
  160TIP3    H2  426   1.565   3.672   3.750
  161TIP3   OH2  427   2.141   4.321   0.242
  161TIP3    H1  428   2.195   4.336   0.164
  161TIP3    H2  429   2.124   4.409   0.276
  162TIP3   OH2  430   1.551   7.344   5.098
  162TIP3    H1  431   1.556   7.381   5.010
  162TIP3    H2  432   1.640   7.317   5.118
  163TIP3   OH2  433   6.856   2.770   1.890
  163TIP3    H1  434   6.792   2.788   1.959
  163TIP3    H2  435   6.856   2.849   1.836
  164TIP3   OH2  436   3.118   1.757   6.001
  164TIP3    H1  437   3.104   1.718   5.914
  164TIP3    H2  438   3.089   1.689   6.062
  165TIP3   OH2  439   3.964   2.375   5.679
  165TIP3    H1  440   4.050   2.333   5.680
  165TIP3    H2  441   3.912   2.324   5.742
  166TIP3   OH2  442   6.836   5.902   1.998
  166TIP3    H1  443   6.887   5.927   1.921
  166TIP3    H2  444   6.894   5.844   2.048
  167TIP3   OH2  445   6.230   3.191   4.972
  167TIP3    H1  446   6.285   3.260   5.009
  167TIP3    H2  447   6.283   3.155   4.900
  168TIP3   OH2  448   7.062   3.733   3.017
  168TIP3    H1  449   7.148   3.697   3.037
  168TIP3    H2  450   7.003   3.689   3.078
  169TIP3   OH2  451   5.677   5.300   1.000
  169TIP3    H1  452   5.585   5.311   0.978
  169TIP3    H2  453   5.713   5.250   0.926
  170TIP3   OH2  454   0.688   4.233   6.309
  170TIP3    H1  455   0.657   4.143   6.316
  170TIP3    H2  456   0.733   4.237   6.224
  171TIP3   OH2  457   3.754   4.840   4.784
  171TIP3    H1  458   3.755   4.803   4.696
  171TIP3    H2  459   3.671   4.811   4.822
  172TIP3   OH2  460   4.766   3.715   2.010
  172TIP3    H1  461   4.826   3.658   1.960
  172TIP3    H2  462   4.703   3.746   1.945
  173TIP3   OH2  463   6.641   5.819   5.147
  173TIP3    H1  464   6.687   5.855   5.070
  173TIP3    H2  465   6.708   5.768   5.192
  174TIP3   OH2  466   7.798   7.589   3.600
  174TIP3    H1  467   7.840   7.675   3.601
  174TIP3    H2  468   7.761   7.578   3.687
  175TIP3   OH2  469   3.422   7.577   3.738
  175TIP3    H1  470   3.485   7.649   3.742
  175TIP3    H2  471   3.400   7.570   3.645
  176TIP3   OH2  472   4.400   5.298   5.000
  176TIP3    H1  473   4.350   5.369   4.959
  176TIP3    H2  474   4.360   5.286   5.086
  177TIP3   OH2  475   7.114   6.782   2.342
  177TIP3    H1  476   7.180   6.718   2.368
  177TIP3    H2  477   7.073   6.809   2.424
  178TIP3   OH2  478   0.829   0.569   5.991
  178TIP3    H1  479   0.796   0.602   5.908
  178TIP3    H2  480   0.781   0.618   6.058
  179TIP3   OH2  481   1.922   7.676   2.127
  179TIP3    H1  482   1.872   7.620   2.067
  179TIP3    H2  483   1.932   7.758   2.079
  180TIP3   OH2  484   4.594   6.440   4.154
  180TIP3    H1  485   4.664   6.428   4.090
  180TIP3    H2  486   4.554   6.524   4.130
  181TIP3   OH2  487   7.388   5.309   2.872
  181TIP3    H1  488   7.332   5.360   2.930
  181TIP3    H2  489   7.467   5.363   2.861
  182TIP3   OH2  490   5.456   2.490   6.322
  182TIP3    H1  491   5.396   2.475   6.395
  182TIP3    H2  492   5.508   2.566   6.349
  183TIP3   OH2  493   6.615   0.724   0.204
  183TIP3    H1  494   6.553   0.654   0.186
  183TIP3    H2  495   6.593   0.753   0.293
  184TIP3   OH2  496   5.876   7.464   2.768
  184TIP3    H1  497   5.863   7.543   2.820
  184TIP3    H2  498   5.881   7.495   2.677
  185TIP3   OH2  499   2.789   4.673   2.180
  185TIP3    H1  500   2.701   4.639   2.168
  185TIP3    H2  501   2.797   4.687   2.275
  186TIP3   OH2  502   7.576   2.754   6.427
  186TIP3    H1  503   7.533   2.699   6.362
  186TIP3    H2  504   7.503   2.797   6.473
  187TIP3   OH2  505   7.291   0.529   3.156
  187TIP3    H1  506   7.287   0.485   3.241
  187TIP3    H2  507   7.292   0.623   3.178
  188TIP3   OH2  508   1.908   5.749   1.474
  188TIP3    H1  509   1.915   5.804   1.396
  188TIP3    H2  510   1.923   5.660   1.441
  189TIP3   OH2  511   3.031   5.385   3.711
  189TIP3    H1  512   3.119   5.387   3.748
  189TIP3    H2  513   3.011   5.292   3.698
  190TIP3   OH2  514   3.429   0.163   0.690
  190TIP3    H1  515   3.352   0.162   0.633
  190TIP3    H2  516   3.427   0.249   0.731
  191TIP3   OH2  517   2.592   6.724   5.928
  191TIP3    H1  518   2.532   6.688   5.993
  191TIP3    H2  519   2.542   6.719   5.846
  192TIP3   OH2  520   4.178   6.315   4.549
  192TIP3    H1  521   4.267   6.296   4.578
  192TIP3    H2  522   4.176   6.285   4.458
  193TIP3   OH2  523   5.548   7.605   1.999
  193TIP3    H1  524   5.615   7.598   1.931
  193TIP3    H2  525   5.507   7.519   2.002
  194TIP3   OH2  526   6.654   5.111   4.783
  194TIP3    H1  527   6.718   5.178   4.805
  194TIP3    H2  528   6.604   5.149   4.711
  195TIP3   OH2  529   5.392   5.370   0.947
  195TIP3    H1  530   5.297   5.377   0.959
  195TIP3    H2  531   5.407   5.397   0.856
  196TIP3   OH2  532   1.670   4.836   0.139
  196TIP3    H1  533   1.732   4.886   0.087
  196TIP3    H2  534   1.692   4.745   0.123
  197TIP3   OH2  535   6.926   5.366   0.593
  197TIP3    H1  536   6.863   5.312   0.642
  197TIP3    H2  537   6.947   5.314   0.516
  198TIP3   OH2  538   3.919   5.548   1.266
  198TIP3    H1  539   3.888   5.591   1.345
  198TIP3    H2  540   3.952   5.463   1.296
  199TIP3   OH2  541   4.576   6.024   6.132
  199TIP3    H1  542   4.566   5.999   6.224
  199TIP3    H2  543   4.613   5.946   6.090
  200TIP3   OH2  544   4.711   7.411   4.300
  200TIP3    H1  545   4.642   7.369   4.351
  200TIP3    H2  546   4.737   7.345   4.235
  201TIP3   OH2  547   5.715   7.395   5.256
  201TIP3    H1  548   5.749   7.429   5.174
  201TIP3    H2  549   5.784   7.338   5.290
  202TIP3   OH2  550   4.909   5.666   6.590
  202TIP3    H1  551   4.965   5.630   6.660
  202TIP3    H2  552   4.908   5.760   6.607
  203TIP3   OH2  553   7.627   6.287   3.476
  203TIP3    H1  554   7.620   6.191   3.476
  203TIP3    H2  555   7.583   6.313   3.395
  204TIP3   OH2  556   1.917   5.463   4.707
  204TIP3    H1  557   1.965   5.382   4.720
  204TIP3    H2  558   1.952   5.522   4.774
  205TIP3   OH2  559   0.472   6.734   2.509
  205TIP3    H1  560   0.521   6.803   2.463
  205TIP3    H2  561   0.470   6.661   2.448
  206TIP3   OH2  562   2.640   5.040   5.163
  206TIP3    H1  563   2.704   5.053   5.233
  206TIP3    H2  564   2.640   4.945   5.149
  207TIP3   OH2  565   3.464   7.497   6.476
  207TIP3    H1  566   3.394   7.434   6.489
  207TIP3    H2  567   3.428   7.561   6.414
  208TIP3   OH2  568   6.900   2.445   4.581
  208TIP3    H1  569   6.894   2.439   4.677
  208TIP3    H2  570   6.971   2.386   4.558
  209TIP3   OH2  571   1.562   4.407   2.998
  209TIP3    H1  572   1.639   4.395   2.942
  209TIP3    H2  573   1.595   4.453   3.075
  210TIP3   OH2  574   0.769   4.410   4.573
  210TIP3    H1  575   0.747   4.503   4.569
  210TIP3    H2  576   0.688   4.365   4.549
  211TIP3   OH2  577   7.224   3.799   1.361
  211TIP3    H1  578   7.280   3.752   1.299
  211TIP3    H2  579   7.152   3.738   1.379
  212TIP3   OH2  580   2.025   6.785   1.861
  212TIP3    H1  581   2.117   6.760   1.872
  212TIP3    H2  582   1.976   6.714   1.902
  213TIP3   OH2  583   8.250   0.947   2.795
  213TIP3    H1  584   8.172   0.923   2.845
  213TIP3    H2  585   8.216   0.989   2.716
  214TIP3   OH2  586   7.676   3.760   6.200
  214TIP3    H1  587   7.745   3.697   6.178
  214TIP3    H2  588   7.599   3.729   6.152
  215TIP3   OH2  589   2.225   6.047   1.201
  215TIP3    H1  590   2.199   5.962   1.165
  215TIP3    H2  591   2.309   6.066   1.159
  216TIP3   OH2  592   1.521   1.421   3.847
  216TIP3    H1  593   1.601   1.369   3.834
  216TIP3    H2  594   1.483   1.429   3.760
  217TIP3   OH2  595   8.077   5.529   1.560
  217TIP3    H1  596   8.027   5.542   1.641
  217TIP3    H2  597   8.166   5.510   1.590
  218TIP3   OH2  598   0.942   1.932   3.324
  218TIP3    H1  599   0.910   1.881   3.249
  218TIP3    H2  600   1.037   1.925   3.318
  219TIP3   OH2  601   3.619   2.993   2.530
  219TIP3    H1  602   3.613   2.900   2.511
  219TIP3    H2  603   3.595   3.001   2.623
  220TIP3   OH2  604   2.859   3.346   1.840
  220TIP3    H1  605   2.778   3.364   1.791
  220TIP3    H2  606   2.926   3.337   1.773
  221TIP3   OH2  607   6.865   3.170   1.354
  221TIP3    H1  608   6.796   3.226   1.389
  221TIP3    H2  609   6.838   3.081   1.378
  222TIP3   OH2  610   3.549   2.004   0.455
  222TIP3    H1  611   3.480   2.069   0.436
  222TIP3    H2  612   3.538   1.986   0.549
  223TIP3   OH2  613   5.258   6.253   3.169
  223TIP3    H1  614   5.255   6.183   3.103
  223TIP3    H2  615   5.169   6.289   3.168
  224TIP3   OH2  616   3.438   3.899   4.064
  224TIP3    H1  617   3.412   3.923   4.153
  224TIP3    H2  618   3.530   3.872   4.073
  225TIP3   OH2  619   6.229   0.058   3.114
  225TIP3    H1  620   6.264   0.093   3.032
  225TIP3    H2  621   6.138   0.034   3.094
  226TIP3   OH2  622   0.458   4.994   6.563
  226TIP3    H1  623   0.528   5.040   6.518
  226TIP3    H2  624   0.392   4.979   6.496
  227TIP3   OH2  625   8.262   0.273   6.499
  227TIP3    H1  626   8.262   0.178   6.503
  227TIP3    H2  627   8.237   0.294   6.409
  228TIP3   OH2  628   8.157   5.601   2.451
  228TIP3    H1  629   8.219   5.528   2.454
  228TIP3    H2  630   8.082   5.567   2.402
  229TIP3   OH2  631   1.324   0.637   0.928
  229TIP3    H1  632   1.273   0.574   0.877
  229TIP3    H2  633   1.362   0.695   0.861
  230TIP3   OH2  634   7.143   1.054   2.115
  230TIP3    H1  635   7.099   0.972   2.138
  230TIP3    H2  636   7.192   1.079   2.193
  231TIP3   OH2  637   4.046   3.474   6.715
  231TIP3    H1  638   3.991   3.480   6.794
  231TIP3    H2  639   4.078   3.384   6.715
  232TIP3   OH2  640   0.894   6.392   2.609
  232TIP3    H1  641   0.962   6.326   2.592
  232TIP3    H2  642   0.937   6.475   2.589
  233TIP3   OH2  643   4.871   2.406   6.168
  233TIP3    H1  644   4.781   2.382   6.188
  233TIP3    H2  645   4.903   2.337   6.111
  234TIP3   OH2  646   0.244   1.065   5.081
  234TIP3    H1  647   0.277   0.980   5.049
  234TIP3    H2  648   0.230   1.116   5.001
  235TIP3   OH2  649   3.891   1.120   1.412
  235TIP3    H1  650   3.933   1.077   1.337
  235TIP3    H2  651   3.797   1.110   1.395
  236TIP3   OH2  652   6.017   2.199   4.602
  236TIP3    H1  653   6.077   2.179   4.674
  236TIP3    H2  654   6.006   2.117   4.555
  237TIP3   OH2  655   4.900   1.558   0.101
  237TIP3    H1  656   4.906   1.653   0.114
  237TIP3    H2  657   4.973   1.538   0.043
  238TIP3   OH2  658   1.813   2.528   4.439
  238TIP3    H1  659   1.848   2.608   4.479
  238TIP3    H2  660   1.718   2.535   4.450
  239TIP3   OH2  661   3.953   6.165   0.688
  239TIP3    H1  662   3.955   6.198   0.778
  239TIP3    H2  663   4.044   6.171   0.658
  240TIP3   OH2  664   5.024   4.033   5.341
  240TIP3    H1  665   4.946   3.990   5.375
  240TIP3    H2  666   5.094   3.968   5.352
  241TIP3   OH2  667   0.380   6.196   0.532
  241TIP3    H1  668   0.442   6.219   0.463
  241TIP3    H2  669   0.364   6.278   0.578
  242TIP3   OH2  670   5.371   6.273   4.533
  242TIP3    H1  671   5.319   6.237   4.605
  242TIP3    H2  672   5.458   6.286   4.571
  243TIP3   OH2  673   1.661   5.742   2.020
  243TIP3    H1  674   1.569   5.759   2.042
  243TIP3    H2  675   1.666   5.647   2.010
  244TIP3   OH2  676   7.971   2.359   0.148
  244TIP3    H1  677   7.964   2.437   0.202
  244TIP3    H2  678   8.063   2.335   0.151
  245TIP3   OH2  679   2.166   3.648   4.543
  245TIP3    H1  680   2.170   3.562   4.584
  245TIP3    H2  681   2.136   3.706   4.613
  246TIP3   OH2  682   2.237   7.777   0.523
  246TIP3    H1  683   2.143   7.758   0.523
  246TIP3    H2  684   2.248   7.840   0.594
  247TIP3   OH2  685   0.305   2.129   0.513
  247TIP3    H1  686   0.265   2.162   0.593
  247TIP3    H2  687   0.232   2.093   0.462
  248TIP3   OH2  688   2.410   1.095   2.247
  248TIP3    H1  689   2.401   1.176   2.298
  248TIP3    H2  690   2.493   1.057   2.276
  249TIP3   OH2  691   4.911   5.735   0.761
  249TIP3    H1  692   4.997   5.777   0.768
  249TIP3    H2  693   4.928   5.642   0.770
  250TIP3   OH2  694   4.300   1.691   5.783
  250TIP3    H1  695   4.335   1.737   5.707
  250TIP3    H2  696   4.354   1.721   5.856
  251TIP3   OH2  697   1.548   3.522   5.761
  251TIP3    H1  698   1.591   3.595   5.718
  251TIP3    H2  699   1.558   3.448   5.701
  252TIP3   OH2  700   7.682   3.099   2.318
  252TIP3    H1  701   7.676   3.039   2.392
  252TIP3    H2  702   7.765   3.077   2.276
  253TIP3   OH2  703   6.473   7.794   1.284
  253TIP3    H1  704   6.398   7.850   1.304
  253TIP3    H2  705   6.542   7.824   1.343
  254TIP3   OH2  706   4.037   7.479   5.933
  254TIP3    H1  707   4.031   7.384   5.923
  254TIP3    H2  708   3.952   7.512   5.905
  255TIP3   OH2  709   0.530   7.270   2.946
  255TIP3    H1  710   0.532   7.301   3.036
  255TIP3    H2  711   0.594   7.325   2.900
  256TIP3   OH2  712   7.580   4.637   1.927
  256TIP3    H1  713   7.498   4.604   1.965
  256TIP3    H2  714   7.561   4.728   1.904
  257TIP3   OH2  715   5.625   5.943   2.991
  257TIP3    H1  716   5.639   6.019   3.048
  257TIP3    H2  717   5.711   5.901   2.986
  258TIP3   OH2  718   4.093   3.290   1.032
  258TIP3    H1  719   4.110   3.380   1.004
  258TIP3    H2  720   3.998   3.283   1.035
  259TIP3   OH2  721   7.196   0.017   5.817
  259TIP3    H1  722   7.269   0.018   5.880
  259TIP3    H2  723   7.160   0.106   5.822
  260TIP3   OH2  724   5.190   2.679   3.695
  260TIP3    H1  725   5.210   2.696   3.603
  260TIP3    H2  726   5.140   2.756   3.724
  261TIP3   OH2  727   5.037   2.542   6.370
  261TIP3    H1  728   4.975   2.512   6.304
  261TIP3    H2  729   5.052   2.634   6.350
  262TIP3   OH2  730   3.218   4.491   3.736
  262TIP3    H1  731   3.300   4.472   3.692
  262TIP3    H2  732   3.168   4.409   3.730
  263TIP3   OH2  733   1.871   1.352   2.528
  263TIP3    H1  734   1.951   1.350   2.580
  263TIP3    H2  735   1.831   1.266   2.541
  264TIP3   OH2  736   6.761   0.845   5.915
  264TIP3    H1  737   6.674   0.803   5.911
  264TIP3    H2  738   6.819   0.776   5.945
  265TIP3   OH2  739   0.973   5.050   5.275
  265TIP3    H1  740   0.883   5.017   5.276
  265TIP3    H2  741   0.983   5.088   5.188
  266TIP3   OH2  742   5.117   4.593   0.612
  266TIP3    H1  743   5.081   4.674   0.576
  266TIP3    H2  744   5.086   4.524   0.554
  267TIP3   OH2  745   0.468   0.425   2.890
  267TIP3    H1  746   0.484   0.520   2.883
  267TIP3    H2  747   0.403   0.417   2.959
  268TIP3   OH2  748   7.148   3.103   5.675
  268TIP3    H1  749   7.072   3.045   5.684
  268TIP3    H2  750   7.149   3.129   5.583
  269TIP3   OH2  751   7.177   5.230   2.721
  269TIP3    H1  752   7.195   5.311   2.674
  269TIP3    H2  753   7.237   5.232   2.795
  270TIP3   OH2  754   7.161   3.580   4.195
  270TIP3    H1  755   7.174   3.508   4.257
  270TIP3    H2  756   7.072   3.567   4.161
  271TIP3   OH2  757   1.842   5.719   1.742
  271TIP3    H1  758   1.913   5.758   1.792
  271TIP3    H2  759   1.863   5.738   1.651
  272TIP3   OH2  760   6.130   0.105   5.143
  272TIP3    H1  761   6.133   0.165   5.069
  272TIP3    H2  762   6.206   0.127   5.196
  273TIP3   OH2  763   5.035   0.386   4.552
  273TIP3    H1  764   4.940   0.390   4.541
  273TIP3    H2  765   5.070   0.399   4.464
  274TIP3   OH2  766   6.656   0.568   3.522
  274TIP3    H1  767   6.579   0.623   3.535
  274TIP3    H2  768   6.725   0.611   3.573
  275TIP3   OH2  769   4.710   5.994   5.381
  275TIP3    H1  770   4.617   6.009   5.400
  275TIP3    H2  771   4.710   5.924   5.316
  276TIP3   OH2  772   4.930   3.884   2.221
  276TIP3    H1  773   4.957   3.822   2.153
  276TIP3    H2  774   4.892   3.828   2.289
  277TIP3   OH2  775   8.244   4.730   1.041
  277TIP3    H1  776   8.290   4.682   0.972
  277TIP3    H2  777   8.249   4.822   1.015
  278TIP3   OH2  778   7.358   7.249   3.207
  278TIP3    H1  779   7.309   7.209   3.135
  278TIP3    H2  780   7.355   7.185   3.277
  279TIP3   OH2  781   2.973   1.426   1.090
  279TIP3    H1  782   3.028   1.448   1.165
  279TIP3    H2  783   2.915   1.501   1.080
  280TIP3   OH2  784   5.978   0.037   3.489
  280TIP3    H1  785   6.071   0.035   3.510
  280TIP3    H2  786   5.939   0.094   3.555
  281TIP3   OH2  787   4.606   2.404   5.489
  281TIP3    H1  788   4.661   2.442   5.557
  281TIP3    H2  789   4.525   2.455   5.492
  282TIP3   OH2  790   0.968   2.518   0.732
  282TIP3    H1  791   0.970   2.423   0.717
  282TIP3    H2  792   0.899   2.530   0.797
  283TIP3   OH2  793   3.936   3.944   1.480
  283TIP3    H1  794   3.934   3.990   1.396
  283TIP3    H2  795   3.848   3.908   1.490
  284TIP3   OH2  796   1.044   0.577   3.222
  284TIP3    H1  797   1.056   0.492   3.265
  284TIP3    H2  798   0.957   0.605   3.251
  285TIP3   OH2  799   5.563   6.339   5.496
  285TIP3    H1  800   5.518   6.417   5.528
  285TIP3    H2  801   5.648   6.341   5.540
  286TIP3   OH2  802   3.894   0.829   5.029
  286TIP3    H1  803   3.877   0.915   4.989
  286TIP3    H2  804   3.845   0.767   4.975
  287TIP3   OH2  805   0.277   2.456   4.849
  287TIP3    H1  806   0.252   2.477   4.759
  287TIP3    H2  807   0.327   2.375   4.843
  288TIP3   OH2  808   5.954   5.051   0.592
  288TIP3    H1  809   6.050   5.049   0.589
  288TIP3    H2  810   5.927   5.032   0.502
  289TIP3   OH2  811   1.160   6.393   4.853
  289TIP3    H1  812   1.138   6.342   4.775
  289TIP3    H2  813   1.076   6.428   4.884
  290TIP3   OH2  814   1.088   0.997   0.944
  290TIP3    H1  815   1.141   1.070   0.976
  290TIP3    H2  816   1.045   1.031   0.865
  291TIP3   OH2  817   8.261   5.434   4.451
  291TIP3    H1  818   8.222   5.388   4.377
  291TIP3    H2  819   8.197   5.426   4.521
  292TIP3   OH2  820   7.116   5.499   0.912
  292TIP3    H1  821   7.197   5.462   0.876
  292TIP3    H2  822   7.048   5.476   0.849
  293TIP3   OH2  823   0.745   2.619   4.625
  293TIP3    H1  824   0.790   2.651   4.702
  293TIP3    H2  825   0.783   2.532   4.609
  294TIP3   OH2  826   1.893   7.463   1.272
  294TIP3    H1  827   1.883   7.542   1.219
  294TIP3    H2  828   1.958   7.488   1.338
  295TIP3   OH2  829   3.716   6.959   4.911
  295TIP3    H1  830   3.781   6.890   4.928
  295TIP3    H2  831   3.686   6.986   4.998
  296TIP3   OH2  832   5.859   1.950   3.092
  296TIP3    H1  833   5.806   1.895   3.150
  296TIP3    H2  834   5.795   1.989   3.032
  297TIP3   OH2  835   6.319   5.247   2.033
  297TIP3    H1  836   6.325   5.301   1.954
  297TIP3    H2  837   6.231   5.210   2.031
  298TIP3   OH2  838   7.706   0.013   1.871
  298TIP3    H1  839   7.797   0.039   1.884
  298TIP3    H2  840   7.708  -0.050   1.799
  299TIP3   OH2  841   6.582   7.356   4.154
  299TIP3    H1  842   6.589   7.289   4.086
  299TIP3    H2  843   6.498   7.399   4.137
  300TIP3   OH2  844   7.787   0.852   5.433
  300TIP3    H1  845   7.762   0.896   5.514
  300TIP3    H2  846   7.709   0.857   5.377
  301TIP3   OH2  847   6.636   5.057   5.577
  301TIP3    H1  848   6.607   5.008   5.500
  301TIP3    H2  849   6.649   4.991   5.645
  302TIP3   OH2  850   3.896   3.619   2.216
  302TIP3    H1  851   3.907   3.615   2.311
  302TIP3    H2  852   3.984   3.640   2.184
  303TIP3   OH2  853   4.794   3.081   2.396
  303TIP3    H1  854   4.759   3.170   2.403
  303TIP3    H2  855   4.808   3.054   2.487
  304TIP3   OH2  856   2.409   2.945   1.650
  304TIP3    H1  857   2.461   2.973   1.574
  304TIP3    H2  858   2.444   2.858   1.672
  305TIP3   OH2  859   0.978   6.184   4.663
  305TIP3    H1  860   0.913   6.244   4.629
  305TIP3    H2  861   1.026   6.153   4.586
  306TIP3   OH2  862   3.175   3.381   3.303
  306TIP3    H1  863   3.114   3.407   3.372
  306TIP3    H2  864   3.214   3.464   3.274
  307TIP3   OH2  865   4.097   5.500   5.248
  307TIP3    H1  866   4.176   5.453   5.223
  307TIP3    H2  867   4.112   5.523   5.340
  308TIP3   OH2  868   4.537   7.016   5.115
  308TIP3    H1  869   4.585   7.095   5.089
  308TIP3    H2  870   4.536   7.019   5.211
  309TIP3   OH2  871   2.706   5.063   2.355
  309TIP3    H1  872   2.639   5.062   2.422
  309TIP3    H2  873   2.663   5.100   2.278
  310TIP3   OH2  874   2.911   0.984   4.251
  310TIP3    H1  875   2.907   0.961   4.344
  310TIP3    H2  876   2.853   0.920   4.208
  311TIP3   OH2  877   7.862   7.694   0.052
  311TIP3    H1  878   7.868   7.750  -0.025
  311TIP3    H2  879   7.938   7.636   0.047
  312TIP3   OH2  880   8.013   6.226   3.584
  312TIP3    H1  881   8.044   6.191   3.668
  312TIP3    H2  882   8.036   6.159   3.520
  313TIP3   OH2  883   2.284   0.389   3.034
  313TIP3    H1  884   2.336   0.395   2.954
  313TIP3    H2  885   2.262   0.480   3.055
  314TIP3   OH2  886   3.702   0.791   3.820
  314TIP3    H1  887   3.641   0.726   3.855
  314TIP3    H2  888   3.779   0.741   3.793
  315TIP3   OH2  889   1.003   0.646   4.908
  315TIP3    H1  890   0.973   0.696   4.832
  315TIP3    H2  891   0.928   0.645   4.967
  316TIP3   OH2  892   7.132   4.973   3.068
  316TIP3    H1  893   7.161   5.048   3.121
  316TIP3    H2  894   7.132   4.899   3.129
  317TIP3   OH2  895   0.455   6.865   6.452
  317TIP3    H1  896   0.413   6.949   6.434
  317TIP3    H2  897   0.549   6.883   6.443
  318TIP3   OH2  898   0.518   0.662   1.352
  318TIP3    H1  899   0.548   0.649   1.442
  318TIP3    H2  900   0.492   0.754   1.349
  319TIP3   OH2  901   3.309   4.542   1.044
  319TIP3    H1  902   3.247   4.542   0.972
  319TIP3    H2  903   3.268   4.488   1.112
  320TIP3   OH2  904   4.651   2.007   1.670
  320TIP3    H1  905   4.739   1.992   1.707
  320TIP3    H2  906   4.591   1.972   1.736
  321TIP3   OH2  907   1.302   7.697   1.016
  321TIP3    H1  908   1.209   7.692   1.038
  321TIP3    H2  909   1.321   7.613   0.973
  322TIP3   OH2  910   5.326   0.281   0.763
  322TIP3    H1  911   5.297   0.335   0.837
  322TIP3    H2  912   5.421   0.291   0.762
  323TIP3   OH2  913   2.931   0.775   1.038
  323TIP3    H1  914   2.896   0.695   0.999
  323TIP3    H2  915   2.869   0.843   1.011
  324TIP3   OH2  916   4.120   2.260   2.729
  324TIP3    H1  917   4.201   2.213   2.748
  324TIP3    H2  918   4.084   2.215   2.653
  325TIP3   OH2  919   1.252   1.117   5.515
  325TIP3    H1  920   1.252   1.151   5.605
  325TIP3    H2  921   1.160   1.114   5.490
  326TIP3   OH2  922   1.087   0.606   6.009
  326TIP3    H1  923   1.079   0.642   5.920
  326TIP3    H2  924   1.009   0.551   6.019
  327TIP3   OH2  925   0.457   0.316   0.671
  327TIP3    H1  926   0.419   0.239   0.629
  327TIP3    H2  927   0.401   0.332   0.748
  328TIP3   OH2  928   1.015   0.602   0.018
  328TIP3    H1  929   1.068   0.637   0.089
  328TIP3    H2  930   0.928   0.638   0.033
  329TIP3   OH2  931   1.790   4.017   1.679
  329TIP3    H1  932   1.793   4.037   1.585
  329TIP3    H2  933   1.743   4.091   1.717
  330TIP3   OH2  934   5.020   6.603   5.844
  330TIP3    H1  935   4.953   6.624   5.909
  330TIP3    H2  936   5.065   6.526   5.880
  331TIP3   OH2  937   4.134   5.297   5.896
  331TIP3    H1  938   4.169   5.217   5.934
  331TIP3    H2  939   4.211   5.346   5.868
  332TIP3   OH2  940   8.118   7.610   3.347
  332TIP3    H1  941   8.080   7.526   3.321
  332TIP3    H2  942   8.109   7.612   3.442
  333TIP3   OH2  943   8.217   1.771   2.505
  333TIP3    H1  944   8.268   1.769   2.424
  333TIP3    H2  945   8.192   1.863   2.515
  334TIP3   OH2  946   1.281   6.131   1.675
  334TIP3    H1  947   1.285   6.225   1.655
  334TIP3    H2  948   1.240   6.126   1.761
  335TIP3   OH2  949   2.445   4.726   6.401
  335TIP3    H1  950   2.473   4.804   6.449
  335TIP3    H2  951   2.349   4.733   6.399
  336TIP3   OH2  952   0.360   6.605   1.359
  336TIP3    H1  953   0.345   6.573   1.270
  336TIP3    H2  954   0.330   6.533   1.415
  337TIP3   OH2  955   1.786   6.833   3.828
  337TIP3    H1  956   1.768   6.880   3.910
  337TIP3    H2  957   1.868   6.869   3.797
  338TIP3   OH2  958   7.803   6.184   5.188
  338TIP3    H1  959   7.783   6.260   5.242
  338TIP3    H2  960   7.887   6.152   5.220
  339TIP3   OH2  961   6.194   3.624   6.377
  339TIP3    H1  962   6.231   3.555   6.433
  339TIP3    H2  963   6.252   3.626   6.301
  340TIP3   OH2  964   6.129   5.643   0.323
  340TIP3    H1  965   6.085   5.708   0.268
  340TIP3    H2  966   6.173   5.585   0.261
  341TIP3   OH2  967   4.137   0.820   3.275
  341TIP3    H1  968   4.218   0.775   3.299
  341TIP3    H2  969   4.107   0.860   3.357
  342TIP3   OH2  970   5.674   6.934   1.098
  342TIP3    H1  971   5.598   6.975   1.056
  342TIP3    H2  972   5.749   6.984   1.065
  343TIP3   OH2  973   2.439   1.822   0.853
  343TIP3    H1  974   2.393   1.741   0.875
  343TIP3    H2  975   2.437   1.874   0.933
  344TIP3   OH2  976   1.699   4.483   1.907
  344TIP3    H1  977   1.684   4.562   1.855
  344TIP3    H2  978   1.726   4.517   1.993
  345TIP3   OH2  979   6.333   3.618   0.795
  345TIP3    H1  980   6.411   3.656   0.836
  345TIP3    H2  981   6.368   3.561   0.726
  346TIP3   OH2  982   2.715   1.221   6.186
  346TIP3    H1  983   2.654   1.290   6.213
  346TIP3    H2  984   2.728   1.168   6.264
  347TIP3   OH2  985   1.339   5.543   6.732
  347TIP3    H1  986   1.366   5.634   6.739
  347TIP3    H2  987   1.316   5.532   6.640
  348TIP3   OH2  988   4.482   6.241   3.541
  348TIP3    H1  989   4.577   6.250   3.551
  348TIP3    H2  990   4.453   6.325   3.506
  349TIP3   OH2  991   6.861   3.303   2.009
  349TIP3    H1  992   6.856   3.292   1.914
  349TIP3    H2  993   6.803   3.377   2.027
  350TIP3   OH2  994   0.056   3.742   3.442
  350TIP3    H1  995  -0.023   3.691   3.427
  350TIP3    H2  996   0.115   3.682   3.488
  351TIP3   OH2  997   8.111   6.798   4.118
  351TIP3    H1  998   8.019   6.825   4.110
  351TIP3    H2  999   8.128   6.747   4.038
  352TIP3   OH2 1000   4.536   1.567   1.360
  352TIP3    H1 1001   4.575   1.491   1.317
  352TIP3    H2 1002   4.448   1.539   1.384
  353TIP3   OH2 1003   0.138   0.931   5.308
  353TIP3    H1 1004   0.161   0.951   5.399
  353TIP3    H2 1005   0.179   1.001   5.257
  354TIP3   OH2 1006   0.645   4.530   6.304
  354TIP3    H1 1007   0.706   4.600   6.327
  354TIP3    H2 1008   0.617   4.550   6.215
  355TIP3   OH2 1009   0.957   6.924   5.466
  355TIP3    H1 1010   0.987   6.962   5.383
  355TIP3    H2 1011   0.944   6.831   5.446
  356TIP3   OH2 1012   4.158   4.569   6.768
  356TIP3    H1 1013   4.197   4.655   6.754
  356TIP3    H2 1014   4.154   4.530   6.681
  357TIP3   OH2 1015   2.216   5.245   1.556
  357TIP3    H1 1016   2.155   5.216   1.487
  357TIP3    H2 1017   2.160   5.284   1.623
  358TIP3   OH2 1018   6.023   0.040   1.440
  358TIP3    H1 1019   6.109   0.001   1.425
  358TIP3    H2 1020   5.964  -0.035   1.447
  359TIP3   OH2 1021   7.307   7.830   3.096
  359TIP3    H1 1022   7.339   7.778   3.022
  359TIP3    H2 1023   7.331   7.780   3.173
  360TIP3   OH2 1024   3.367   7.734   1.006
  360TIP3    H1 1025   3.393   7.820   0.972
  360TIP3    H2 1026   3.327   7.689   0.932
  361TIP3   OH2 1027   3.220   4.983   3.696
  361TIP3    H1 1028   3.305   5.025   3.681
  361TIP3    H2 1029   3.242   4.904   3.747
  362TIP3   OH2 1030   2.141   2.343   2.708
  362TIP3    H1 1031   2.130   2.432   2.740
  362TIP3    H2 1032   2.195   2.300   2.773
  363TIP3   OH2 1033   1.219   2.700   2.741
  363TIP3    H1 1034   1.134   2.712   2.700
  363TIP3    H2 1035   1.260   2.630   2.690
  364TIP3   OH2 1036   7.362   5.621   4.456
  364TIP3    H1 1037   7.289   5.680   4.474
  364TIP3    H2 1038   7.409   5.614   4.539
  365TIP3   OH2 1039   0.802   5.357   2.474
  365TIP3    H1 1040   0.714   5.337   2.441
  365TIP3    H2 1041   0.809   5.307   2.555
  366TIP3   OH2 1042   6.205  -0.001   5.909
  366TIP3    H1 1043   6.214   0.069   5.973
  366TIP3    H2 1044   6.129   0.024   5.856
  367TIP3   OH2 1045   4.350   5.999   5.719
  367TIP3    H1 1046   4.404   5.921   5.712
  367TIP3    H2 1047   4.377   6.054   5.645
  368TIP3   OH2 1048   8.167   3.402   0.186
  368TIP3    H1 1049   8.178   3.492   0.217
  368TIP3    H2 1050   8.077   3.379   0.209
  369TIP3   OH2 1051   5.463   3.955   1.813
  369TIP3    H1 1052   5.410   3.948   1.892
  369TIP3    H2 1053   5.416   4.015   1.757
  370TIP3   OH2 1054   7.616   3.296   0.523
  370TIP3    H1 1055   7.564   3.284   0.444
  370TIP3    H2 1056   7.692   3.346   0.495
  371TIP3   OH2 1057   8.061   2.957   0.403
  371TIP3    H1 1058   8.000   2.886   0.387
  371TIP3    H2 1059   8.142   2.929   0.361
  372TIP3   OH2 1060   0.737   7.705   6.123
  372TIP3    H1 1061   0.747   7.709   6.028
  372TIP3    H2 1062   0.657   7.756   6.141
  373TIP3   OH2 1063   0.410   7.144   1.208
  373TIP3    H1 1064   0.318   7.125   1.193
  373TIP3    H2 1065   0.450   7.059   1.226
  374TIP3   OH2 1066   2.380   0.031   2.274
  374TIP3    H1 1067   2.307   0.038   2.336
  374TIP3    H2 1068   2.433  -0.042   2.308
  375TIP3   OH2 1069   5.305   1.365   3.493
  375TIP3    H1 1070   5.321   1.412   3.411
  375TIP3    H2 1071   5.238   1.417   3.538
  376TIP3   OH2 1072   1.354   3.031   4.106
  376TIP3    H1 1073   1.431   2.996   4.061
  376TIP3    H2 1074   1.283   2.971   4.084
  377TIP3   OH2 1075   2.333   6.846   2.172
  377TIP3    H1 1076   2.418   6.891   2.173
  377TIP3    H2 1077   2.288   6.880   2.250
  378TIP3   OH2 1078   4.176   1.185   2.710
  378TIP3    H1 1079   4.179   1.095   2.744
  378TIP3    H2 1080   4.107   1.228   2.761
  379TIP3   OH2 1081   5.391   1.995   1.403
  379TIP3    H1 1082   5.486   2.003   1.396
  379TIP3    H2 1083   5.377   1.924   1.465
  380TIP3   OH2 1084   5.637   0.724   3.567
  380TIP3    H1 1085   5.629   0.816   3.592
  380TIP3    H2 1086   5.607   0.721   3.476
  381TIP3   OH2 1087   7.915   3.753   4.269
  381TIP3    H1 1088   7.865   3.698   4.209
  381TIP3    H2 1089   7.879   3.840   4.258
  382TIP3   OH2 1090   5.081   3.326   1.435
  382TIP3    H1 1091   5.165   3.333   1.389
  382TIP3    H2 1092   5.037   3.253   1.393
  383TIP3   OH2 1093   3.804   4.663   4.592
  383TIP3    H1 1094   3.894   4.642   4.621
  383TIP3    H2 1095   3.792   4.612   4.512
  384TIP3   OH2 1096   6.382   5.501   3.279
  384TIP3    H1 1097   6.379   5.460   3.365
  384TIP3    H2 1098   6.435   5.580   3.292
  385TIP3   OH2 1099   7.597   6.029   1.764
  385TIP3    H1 1100   7.606   5.974   1.842
  385TIP3    H2 1101   7.546   5.975   1.703
  386TIP3   OH2 1102   4.818   2.486   1.172
  386TIP3    H1 1103   4.895   2.435   1.146
  386TIP3    H2 1104   4.833   2.505   1.264
  387TIP3   OH2 1105   4.558   7.777   0.992
  387TIP3    H1 1106   4.500   7.852   1.006
  387TIP3    H2 1107   4.512   7.723   0.927
  388TIP3   OH2 1108   5.830   6.961   2.279
  388TIP3    H1 1109   5.921   6.982   2.300
  388TIP3    H2 1110   5.820   6.869   2.302
  389TIP3   OH2 1111   4.237   2.980   4.437
  389TIP3    H1 1112   4.160   3.029   4.408
  389TIP3    H2 1113   4.206   2.889   4.443
  390TIP3   OH2 1114   7.736   4.001   2.810
  390TIP3    H1 1115   7.751   3.957   2.893
  390TIP3    H2 1116   7.641   3.999   2.799
  391TIP3   OH2 1117   6.845   2.649   3.891
  391TIP3    H1 1118   6.763   2.618   3.853
  391TIP3    H2 1119   6.846   2.613   3.980
  392TIP3   OH2 1120   0.746   4.076   0.518
  392TIP3    H1 1121   0.802   4.019   0.570
  392TIP3    H2 1122   0.698   4.129   0.582
  393TIP3   OH2 1123   2.191   2.047   4.221
  393TIP3    H1 1124   2.205   1.962   4.262
  393TIP3    H2 1125   2.252   2.050   4.148
  394TIP3   OH2 1126   1.177   0.203   6.270
  394TIP3    H1 1127   1.092   0.209   6.314
  394TIP3    H2 1128   1.199   0.294   6.249
  395TIP3   OH2 1129   3.294   4.449   3.046
  395TIP3    H1 1130   3.333   4.427   2.961
  395TIP3    H2 1131   3.361   4.424   3.110
  396TIP3   OH2 1132   4.435   6.635   3.820
  396TIP3    H1 1133   4.470   6.547   3.803
  396TIP3    H2 1134   4.348   6.634   3.781
  397TIP3   OH2 1135   3.108   5.120   5.682
  397TIP3    H1 1136   3.105   5.216   5.682
  397TIP3    H2 1137   3.043   5.094   5.748
  398TIP3   OH2 1138   8.261   0.349   0.089
  398TIP3    H1 1139   8.302   0.351   0.176
  398TIP3    H2 1140   8.168   0.363   0.106
  399TIP3   OH2 1141   1.397   7.267   2.800
  399TIP3    H1 1142   1.456   7.276   2.725
  399TIP3    H2 1143   1.455   7.274   2.876
  400TIP3   OH2 1144   3.827   3.457   0.575
  400TIP3    H1 1145   3.813   3.548   0.549
  400TIP3    H2 1146   3.923   3.446   0.575
  401TIP3   OH2 1147   3.285   0.259   5.302
  401TIP3    H1 1148   3.334   0.290   5.379
  401TIP3    H2 1149   3.284   0.335   5.243
  402TIP3   OH2 1150   5.765   4.539   6.528
  402TIP3    H1 1151   5.741   4.592   6.452
  402TIP3    H2 1152   5.686   4.488   6.548
  403TIP3   OH2 1153   2.578   0.507   2.115
  403TIP3    H1 1154   2.640   0.554   2.171
  403TIP3    H2 1155   2.584   0.416   2.143
  404TIP3   OH2 1156   6.641   6.683   5.290
  404TIP3    H1 1157   6.548   6.707   5.291
  404TIP3    H2 1158   6.672   6.709   5.204
  405TIP3   OH2 1159   7.845   5.474   5.188
  405TIP3    H1 1160   7.929   5.502   5.224
  405TIP3    H2 1161   7.786   5.547   5.204
  406TIP3   OH2 1162   1.943   4.188   3.639
  406TIP3    H1 1163   1.909   4.120   3.580
  406TIP3    H2 1164   2.014   4.229   3.589
  407TIP3   OH2 1165   3.115   5.845   4.263
  407TIP3    H1 1166   3.034   5.892   4.282
  407TIP3    H2 1167   3.111   5.766   4.317
  408TIP3   OH2 1168   0.890   1.891   2.647
  408TIP3    H1 1169   0.881   1.962   2.584
  408TIP3    H2 1170   0.845   1.817   2.606
  409TIP3   OH2 1171   3.021   7.609   6.271
  409TIP3    H1 1172   3.107   7.605   6.314
  409TIP3    H2 1173   3.031   7.554   6.193
  410TIP3   OH2 1174   5.677   6.133   2.436
  410TIP3    H1 1175   5.639   6.194   2.374
  410TIP3    H2 1176   5.732   6.186   2.493
  411TIP3   OH2 1177   1.205   3.995   2.901
  411TIP3    H1 1178   1.115   4.028   2.909
  411TIP3    H2 1179   1.259   4.073   2.893
  412TIP3   OH2 1180   2.940   3.035   0.313
  412TIP3    H1 1181   3.006   3.060   0.377
  412TIP3    H2 1182   2.949   2.940   0.304
  413TIP3   OH2 1183   3.261   2.107   2.422
  413TIP3    H1 1184   3.183   2.155   2.449
  413TIP3    H2 1185   3.333   2.169   2.435
  414TIP3   OH2 1186   7.969   0.625   5.388
  414TIP3    H1 1187   7.973   0.720   5.392
  414TIP3    H2 1188   7.886   0.606   5.345
  415TIP3   OH2 1189   0.616   2.680   3.889
  415TIP3    H1 1190   0.558   2.652   3.818
  415TIP3    H2 1191   0.690   2.620   3.886
  416TIP3   OH2 1192   5.566   1.995   5.647
  416TIP3    H1 1193   5.589   1.937   5.719
  416TIP3    H2 1194   5.520   2.068   5.689
  417TIP3   OH2 1195   6.440   5.604   5.094
  417TIP3    H1 1196   6.509   5.668   5.111
  417TIP3    H2 1197   6.389   5.642   5.022
  418TIP3   OH2 1198   7.026   5.212   5.241
  418TIP3    H1 1199   7.072   5.232   5.159
  418TIP3    H2 1200   7.096   5.191   5.303
  419TIP3   OH2 1201   7.733   4.736   3.938
  419TIP3    H1 1202   7.798   4.772   3.999
  419TIP3    H2 1203   7.675   4.810   3.919
  420TIP3   OH2 1204   4.896   2.426   2.852
  420TIP3    H1 1205   4.871   2.509   2.811
  420TIP3    H2 1206   4.932   2.451   2.938
  421TIP3   OH2 1207   2.710   1.953   0.189
  421TIP3    H1 1208   2.716   1.910   0.104
  421TIP3    H2 1209   2.799   1.948   0.225
  422TIP3   OH2 1210   6.639   3.017   0.233
  422TIP3    H1 1211   6.615   3.059   0.151
  422TIP3    H2 1212   6.591   2.934   0.232
  423TIP3   OH2 1213   4.722   4.723   0.049
  423TIP3    H1 1214   4.817   4.721   0.040
  423TIP3    H2 1215   4.706   4.711   0.143
  424TIP3   OH2 1216   2.205   0.164   6.415
  424TIP3    H1 1217   2.212   0.069   6.418
  424TIP3    H2 1218   2.234   0.188   6.327
  425TIP3   OH2 1219   3.699   0.395   0.008
  425TIP3    H1 1220   3.640   0.455   0.054
  425TIP3    H2 1221   3.640   0.329  -0.031
  426TIP3   OH2 1222   7.232   4.797   1.568
  426TIP3    H1 1223   7.153   4.806   1.515
  426TIP3    H2 1224   7.241   4.881   1.612
  427TIP3   OH2 1225   3.887   5.412   3.924
  427TIP3    H1 1226   3.931   5.355   3.987
  427TIP3    H2 1227   3.822   5.460   3.976
  428TIP3   OH2 1228   2.134   2.379   5.688
  428TIP3    H1 1229   2.112   2.472   5.697
  428TIP3    H2 1230   2.163   2.353   5.776
  429TIP3   OH2 1231   6.538   6.500   3.579
  429TIP3    H1 1232   6.471   6.505   3.511
  429TIP3    H2 1233   6.495   6.458   3.653
  430TIP3   OH2 1234   2.434   2.668   3.380
  430TIP3    H1 1235   2.418   2.674   3.475
  430TIP3    H2 1236   2.402   2.751   3.346
  431TIP3   OH2 1237   0.793   5.368   1.007
  431TIP3    H1 1238   0.802   5.276   0.982
  431TIP3    H2 1239   0.700   5.379   1.027
  432TIP3   OH2 1240   7.558   6.416   6.326
  432TIP3    H1 1241   7.592   6.467   6.400
  432TIP3    H2 1242   7.556   6.326   6.359
  433TIP3   OH2 1243   4.208   2.445   5.546
  433TIP3    H1 1244   4.168   2.368   5.504
  433TIP3    H2 1245   4.235   2.501   5.473
  434TIP3   OH2 1246   7.163   5.819   2.701
  434TIP3    H1 1247   7.085   5.844   2.652
  434TIP3    H2 1248   7.169   5.882   2.772
  435TIP3   OH2 1249   1.502   4.814   6.054
  435TIP3    H1 1250   1.458   4.765   5.985
  435TIP3    H2 1251   1.445   4.889   6.072
  436TIP3   OH2 1252   1.715   6.671   6.513
  436TIP3    H1 1253   1.807   6.672   6.485
  436TIP3    H2 1254   1.666   6.643   6.435
  437TIP3   OH2 1255   0.121   6.673   5.825
  437TIP3    H1 1256   0.058   6.620   5.874
  437TIP3    H2 1257   0.072   6.753   5.803
  438TIP3   OH2 1258   4.472   4.799   3.201
  438TIP3    H1 1259   4.433   4.887   3.201
  438TIP3    H2 1260   4.404   4.743   3.237
  439TIP3   OH2 1261   4.289   7.561   6.037
  439TIP3    H1 1262   4.361   7.541   5.977
  439TIP3    H2 1263   4.210   7.541   5.987
  440TIP3   OH2 1264   0.157   7.283   2.932
  440TIP3    H1 1265   0.062   7.290   2.947
  440TIP3    H2 1266   0.179   7.194   2.962
  441TIP3   OH2 1267   3.527   3.041   5.413
  441TIP3    H1 1268   3.602   3.025   5.356
  441TIP3    H2 1269   3.471   2.964   5.402
  442TIP3   OH2 1270   6.886   5.826   5.740
  442TIP3    H1 1271   6.884   5.913   5.779
  442TIP3    H2 1272   6.805   5.821   5.688
  443TIP3   OH2 1273   0.460   4.274   3.246
  443TIP3    H1 1274   0.387   4.317   3.290
  443TIP3    H2 1275   0.536   4.295   3.300
  444TIP3   OH2 1276   0.226   1.741   3.353
  444TIP3    H1 1277   0.154   1.761   3.293
  444TIP3    H2 1278   0.274   1.823   3.360
  445TIP3   OH2 1279   1.804   5.833   2.244
  445TIP3    H1 1280   1.822   5.745   2.275
  445TIP3    H2 1281   1.739   5.820   2.174
  446TIP3   OH2 1282   6.350   0.233   5.988
  446TIP3    H1 1283   6.289   0.302   6.014
  446TIP3    H2 1284   6.437   0.273   6.002
  447TIP3   OH2 1285   3.447   6.603   1.990
  447TIP3    H1 1286   3.486   6.563   2.068
  447TIP3    H2 1287   3.507   6.673   1.967
  448TIP3   OH2 1288   3.226   3.864   1.906
  448TIP3    H1 1289   3.307   3.914   1.911
  448TIP3    H2 1290   3.212   3.849   1.813
  449TIP3   OH2 1291   7.017   0.501   2.939
  449TIP3    H1 1292   6.941   0.470   2.987
  449TIP3    H2 1293   7.040   0.584   2.980
  450TIP3   OH2 1294   3.570   1.078   0.232
  450TIP3    H1 1295   3.484   1.042   0.209
  450TIP3    H2 1296   3.609   1.103   0.148
  451TIP3   OH2 1297   8.095   5.005   2.378
  451TIP3    H1 1298   8.103   4.914   2.349
  451TIP3    H2 1299   8.001   5.020   2.386
  452TIP3   OH2 1300   8.002   2.830   1.166
  452TIP3    H1 1301   8.016   2.911   1.215
  452TIP3    H2 1302   7.907   2.824   1.157
  453TIP3   OH2 1303   0.330   3.518   0.470
  453TIP3    H1 1304   0.406   3.575   0.480
  453TIP3    H2 1305   0.290   3.547   0.388
  454TIP3   OH2 1306   4.615   6.425   0.605
  454TIP3    H1 1307   4.679   6.356   0.587
  454TIP3    H2 1308   4.660   6.506   0.580
  455TIP3   OH2 1309   2.461   7.405   5.077
  455TIP3    H1 1310   2.525   7.477   5.074
  455TIP3    H2 1311   2.376   7.449   5.080
  456TIP3   OH2 1312   4.212   5.069   6.044
  456TIP3    H1 1313   4.280   5.024   5.993
  456TIP3    H2 1314   4.233   5.047   6.135
  457TIP3   OH2 1315   7.659   0.423   3.194
  457TIP3    H1 1316   7.745   0.442   3.158
  457TIP3    H2 1317   7.621   0.510   3.211
  458TIP3   OH2 1318   2.248   4.081   5.189
  458TIP3    H1 1319   2.202   4.075   5.273
  458TIP3    H2 1320   2.187   4.044   5.125
  459TIP3   OH2 1321   6.319   4.837   3.389
  459TIP3    H1 1322   6.226   4.814   3.383
  459TIP3    H2 1323   6.324   4.894   3.466
  460TIP3   OH2 1324   3.239   2.563   6.397
  460TIP3    H1 1325   3.239   2.659   6.401
  460TIP3    H2 1326   3.252   2.544   6.304
  461TIP3   OH2 1327   4.119   2.848   6.220
  461TIP3    H1 1328   4.144   2.756   6.230
  461TIP3    H2 1329   4.023   2.847   6.221
  462TIP3   OH2 1330   6.833   2.800   0.737
  462TIP3    H1 1331   6.790   2.777   0.655
  462TIP3    H2 1332   6.869   2.887   0.722
  463TIP3   OH2 1333   1.542   3.922   1.960
  463TIP3    H1 1334   1.631   3.894   1.938
  463TIP3    H2 1335   1.555   3.998   2.017
  464TIP3   OH2 1336   1.508   3.216   5.226
  464TIP3    H1 1337   1.544   3.298   5.191
  464TIP3    H2 1338   1.444   3.244   5.291
  465TIP3   OH2 1339   1.818   3.974   5.763
  465TIP3    H1 1340   1.868   3.910   5.813
  465TIP3    H2 1341   1.866   4.056   5.773
  466TIP3   OH2 1342   8.175   0.842   1.482
  466TIP3    H1 1343   8.180   0.869   1.573
  466TIP3    H2 1344   8.245   0.777   1.473
  467TIP3   OH2 1345   0.911   2.958   1.427
  467TIP3    H1 1346   0.936   2.902   1.501
  467TIP3    H2 1347   0.824   2.927   1.401
  468TIP3   OH2 1348   2.312   2.915   4.144
  468TIP3    H1 1349   2.340   2.835   4.098
  468TIP3    H2 1350   2.218   2.902   4.158
  469TIP3   OH2 1351   1.617   6.916   3.052
  469TIP3    H1 1352   1.542   6.973   3.071
  469TIP3    H2 1353   1.651   6.947   2.968
  470TIP3   OH2 1354   7.781   1.594   5.939
  470TIP3    H1 1355   7.853   1.570   5.998
  470TIP3    H2 1356   7.766   1.516   5.886
  471TIP3   OH2 1357   7.017   1.741   1.122
  471TIP3    H1 1358   6.956   1.687   1.072
  471TIP3    H2 1359   7.015   1.826   1.079
  472TIP3   OH2 1360   5.209   1.590   4.410
  472TIP3    H1 1361   5.301   1.574   4.428
  472TIP3    H2 1362   5.207   1.674   4.364
  473TIP3   OH2 1363   4.773   2.625   6.012
  473TIP3    H1 1364   4.804   2.550   6.064
  473TIP3    H2 1365   4.841   2.637   5.945
  474TIP3   OH2 1366   4.268   3.122   4.052
  474TIP3    H1 1367   4.320   3.054   4.095
  474TIP3    H2 1368   4.322   3.151   3.979
  475TIP3   OH2 1369   6.417   1.413   4.459
  475TIP3    H1 1370   6.397   1.396   4.552
  475TIP3    H2 1371   6.358   1.354   4.412
  476TIP3   OH2 1372   1.116   0.773   1.082
  476TIP3    H1 1373   1.170   0.715   1.029
  476TIP3    H2 1374   1.107   0.852   1.028
  477TIP3   OH2 1375   6.398   2.921   5.559
  477TIP3    H1 1376   6.387   2.868   5.480
  477TIP3    H2 1377   6.442   3.000   5.529
  478TIP3   OH2 1378   0.969   6.566   2.922
  478TIP3    H1 1379   1.010   6.604   2.845
  478TIP3    H2 1380   1.041   6.522   2.967
  479TIP3   OH2 1381   7.659   7.532   4.378
  479TIP3    H1 1382   7.728   7.588   4.341
  479TIP3    H2 1383   7.706   7.456   4.413
  480TIP3   OH2 1384   5.327   4.036   6.002
  480TIP3    H1 1385   5.300   3.992   6.082
  480TIP3    H2 1386   5.404   4.086   6.027
  481TIP3   OH2 1387   6.871   3.259   4.309
  481TIP3    H1 1388   6.813   3.241   4.234
  481TIP3    H2 1389   6.855   3.187   4.369
  482TIP3   OH2 1390   5.150   6.903   3.137
  482TIP3    H1 1391   5.155   6.830   3.075
  482TIP3    H2 1392   5.167   6.865   3.222
  483TIP3   OH2 1393   1.181   0.079   4.670
  483TIP3    H1 1394   1.123   0.092   4.596
  483TIP3    H2 1395   1.143   0.132   4.740
  484TIP3   OH2 1396   2.642   4.701   3.078
  484TIP3    H1 1397   2.736   4.716   3.063
  484TIP3    H2 1398   2.605   4.689   2.991
  485TIP3   OH2 1399   1.097   5.591   4.735
  485TIP3    H1 1400   1.119   5.544   4.654
  485TIP3    H2 1401   1.041   5.663   4.707
  486TIP3   OH2 1402   2.611   3.276   0.633
  486TIP3    H1 1403   2.656   3.237   0.708
  486TIP3    H2 1404   2.641   3.225   0.558
  487TIP3   OH2 1405   4.620   1.228   2.477
  487TIP3    H1 1406   4.565   1.289   2.427
  487TIP3    H2 1407   4.709   1.245   2.447
  488TIP3   OH2 1408   6.810   2.559   2.662
  488TIP3    H1 1409   6.887   2.616   2.664
  488TIP3    H2 1410   6.841   2.477   2.700
  489TIP3   OH2 1411   7.622   7.637   2.006
  489TIP3    H1 1412   7.568   7.601   1.935
  489TIP3    H2 1413   7.618   7.571   2.075
  490TIP3   OH2 1414   1.467   6.710   3.987
  490TIP3    H1 1415   1.473   6.744   3.897
  490TIP3    H2 1416   1.549   6.737   4.028
  491TIP3   OH2 1417   1.449   2.598   6.714
  491TIP3    H1 1418   1.459   2.689   6.687
  491TIP3    H2 1419   1.463   2.547   6.634
  492TIP3   OH2 1420   7.796   1.485   5.024
  492TIP3    H1 1421   7.718   1.502   5.078
  492TIP3    H2 1422   7.777   1.527   4.941
  493TIP3   OH2 1423   1.767   3.292   1.427
  493TIP3    H1 1424   1.780   3.366   1.368
  493TIP3    H2 1425   1.856   3.264   1.449
  494TIP3   OH2 1426   4.184   5.156   2.209
  494TIP3    H1 1427   4.189   5.063   2.233
  494TIP3    H2 1428   4.096   5.167   2.175
  495TIP3   OH2 1429   3.775   6.502   3.635
  495TIP3    H1 1430   3.855   6.538   3.595
  495TIP3    H2 1431   3.772   6.541   3.722
  496TIP3   OH2 1432   8.024   3.919   0.990
  496TIP3    H1 1433   8.024   4.015   0.984
  496TIP3    H2 1434   8.104   3.893   0.944
  497TIP3   OH2 1435   1.694   3.355   1.738
  497TIP3    H1 1436   1.721   3.358   1.646
  497TIP3    H2 1437   1.761   3.301   1.781
  498TIP3   OH2 1438   1.485   7.045   0.642
  498TIP3    H1 1439   1.413   7.108   0.635
  498TIP3    H2 1440   1.564   7.096   0.625
  499TIP3   OH2 1441   4.111   4.313   6.593
  499TIP3    H1 1442   4.187   4.353   6.552
  499TIP3    H2 1443   4.120   4.220   6.576
  500TIP3   OH2 1444   2.898   3.584   3.121
  500TIP3    H1 1445   2.815   3.624   3.092
  500TIP3    H2 1446   2.912   3.621   3.208
  501TIP3   OH2 1447   4.794   4.543   5.592
  501TIP3    H1 1448   4.834   4.507   5.513
  501TIP3    H2 1449   4.798   4.638   5.581
  502TIP3   OH2 1450   7.729   3.937   3.676
  502TIP3    H1 1451   7.778   4.019   3.680
  502TIP3    H2 1452   7.638   3.963   3.689
  503TIP3   OH2 1453   0.550   0.480   4.489
  503TIP3    H1 1454   0.460   0.515   4.489
  503TIP3    H2 1455   0.605   0.555   4.512
  504TIP3   OH2 1456   3.497   7.105   3.681
  504TIP3    H1 1457   3.460   7.144   3.760
  504TIP3    H2 1458   3.453   7.150   3.609
  505TIP3   OH2 1459   1.604   1.142   2.663
  505TIP3    H1 1460   1.525   1.118   2.713
  505TIP3    H2 1461   1.626   1.063   2.614
  506TIP3   OH2 1462   4.914   0.654   4.191
  506TIP3    H1 1463   4.962   0.691   4.116
  506TIP3    H2 1464   4.871   0.729   4.231
  507TIP3   OH2 1465   4.467   5.679   3.816
  507TIP3    H1 1466   4.554   5.650   3.788
  507TIP3    H2 1467   4.475   5.774   3.825
  508TIP3   OH2 1468   6.677   3.920   3.477
  508TIP3    H1 1469   6.754   3.873   3.446
  508TIP3    H2 1470   6.704   4.012   3.476
  509TIP3   OH2 1471   0.266   0.685   5.102
  509TIP3    H1 1472   0.296   0.622   5.168
  509TIP3    H2 1473   0.175   0.660   5.085
  510TIP3   OH2 1474   2.596   5.383   3.609
  510TIP3    H1 1475   2.581   5.396   3.515
  510TIP3    H2 1476   2.512   5.402   3.650
  511TIP3   OH2 1477   7.202   6.092   3.971
  511TIP3    H1 1478   7.264   6.070   4.041
  511TIP3    H2 1479   7.213   6.022   3.907
  512TIP3   OH2 1480   3.758   6.976   1.850
  512TIP3    H1 1481   3.799   6.950   1.932
  512TIP3    H2 1482   3.714   6.897   1.819
  513TIP3   OH2 1483   0.079   2.744   2.737
  513TIP3    H1 1484   0.048   2.661   2.700
  513TIP3    H2 1485   0.010   2.771   2.798
  514TIP3   OH2 1486   7.872   3.756   0.319
  514TIP3    H1 1487   7.823   3.734   0.240
  514TIP3    H2 1488   7.806   3.783   0.382
  515TIP3   OH2 1489   3.959   7.372   3.339
  515TIP3    H1 1490   3.997   7.454   3.308
  515TIP3    H2 1491   3.936   7.390   3.431
  516TIP3   OH2 1492   4.817   4.636   3.026
  516TIP3    H1 1493   4.911   4.625   3.040
  516TIP3    H2 1494   4.797   4.723   3.061
  517TIP3   OH2 1495   6.003   3.815   0.170
  517TIP3    H1 1496   5.974   3.757   0.241
  517TIP3    H2 1497   6.017   3.757   0.096
  518TIP3   OH2 1498   5.238   5.545   6.347
  518TIP3    H1 1499   5.165   5.494   6.310
  518TIP3    H2 1500   5.212   5.636   6.332
  519TIP3   OH2 1501   6.581   6.253   0.608
  519TIP3    H1 1502   6.619   6.170   0.580
  519TIP3    H2 1503   6.510   6.269   0.546
  520TIP3   OH2 1504   0.358   0.378   4.724
  520TIP3    H1 1505   0.433   0.427   4.690
  520TIP3    H2 1506   0.370   0.377   4.819
  521TIP3   OH2 1507   2.204   5.859   1.497
  521TIP3    H1 1508   2.244   5.830   1.579
  521TIP3    H2 1509   2.115   5.824   1.500
  522TIP3   OH2 1510   1.006   4.833   3.735
  522TIP3    H1 1511   1.042   4.917   3.705
  522TIP3    H2 1512   0.978   4.789   3.655
  523TIP3   OH2 1513   4.037   7.584   4.486
  523TIP3    H1 1514   3.973   7.592   4.557
  523TIP3    H2 1515   4.024   7.495   4.452
  524TIP3   OH2 1516   5.717   7.684   0.629
  524TIP3    H1 1517   5.788   7.719   0.576
  524TIP3    H2 1518   5.756   7.672   0.716
  525TIP3   OH2 1519   1.141   0.656   3.504
  525TIP3    H1 1520   1.217   0.603   3.481
  525TIP3    H2 1521   1.144   0.661   3.600
  526TIP3   OH2 1522   1.698   2.705   1.664
  526TIP3    H1 1523   1.727   2.659   1.585
  526TIP3    H2 1524   1.768   2.767   1.683
  527TIP3   OH2 1525   4.182   3.821   0.898
  527TIP3    H1 1526   4.152   3.876   0.970
  527TIP3    H2 1527   4.241   3.757   0.940
  528TIP3   OH2 1528   2.492   3.827   3.635
  528TIP3    H1 1529   2.434   3.890   3.590
  528TIP3    H2 1530   2.447   3.743   3.625
  529TIP3   OH2 1531   1.150   4.098   2.609
  529TIP3    H1 1532   1.204   4.177   2.613
  529TIP3    H2 1533   1.211   4.029   2.582
  530TIP3   OH2 1534   7.190   3.502   6.079
  530TIP3    H1 1535   7.123   3.530   6.140
  530TIP3    H2 1536   7.153   3.520   5.992
  531TIP3   OH2 1537   3.881   6.159   3.102
  531TIP3    H1 1538   3.864   6.235   3.046
  531TIP3    H2 1539   3.795   6.117   3.112
  532TIP3   OH2 1540   3.011   6.977   4.874
  532TIP3    H1 1541   3.001   7.017   4.788
  532TIP3    H2 1542   3.064   6.899   4.859
  533TIP3   OH2 1543   6.899   6.415   3.215
  533TIP3    H1 1544   6.857   6.447   3.294
  533TIP3    H2 1545   6.874   6.478   3.147
  534TIP3   OH2 1546   6.537   1.614   0.840
  534TIP3    H1 1547   6.569   1.554   0.773
  534TIP3    H2 1548   6.468   1.664   0.797
  535TIP3   OH2 1549   5.950   3.961   3.871
  535TIP3    H1 1550   5.891   3.954   3.946
  535TIP3    H2 1551   6.007   3.884   3.878
  536TIP3   OH2 1552   0.117   3.578   2.329
  536TIP3    H1 1553   0.043   3.637   2.344
  536TIP3    H2 1554   0.078   3.500   2.288
  537TIP3   OH2 1555   6.053   6.768   0.562
  537TIP3    H1 1556   6.011   6.699   0.511
  537TIP3    H2 1557   5.993   6.843   0.555
  538TIP3   OH2 1558   0.388   2.346   6.641
  538TIP3    H1 1559   0.311   2.388   6.602
  538TIP3    H2 1560   0.455   2.351   6.572
  539TIP3   OH2 1561   4.962   6.426   3.029
  539TIP3    H1 1562   4.944   6.428   2.935
  539TIP3    H2 1563   5.003   6.342   3.044
  540TIP3   OH2 1564   7.688   4.766   5.663
  540TIP3    H1 1565   7.692   4.829   5.735
  540TIP3    H2 1566   7.643   4.814   5.593
  541TIP3   OH2 1567   8.218   3.895   0.361
  541TIP3    H1 1568   8.185   3.984   0.349
  541TIP3    H2 1569   8.276   3.901   0.437
  542TIP3   OH2 1570   4.969   1.320   5.407
  542TIP3    H1 1571   4.889   1.367   5.385
  542TIP3    H2 1572   5.021   1.321   5.327
  543TIP3   OH2 1573   3.162   7.052   2.933
  543TIP3    H1 1574   3.129   7.043   3.023
  543TIP3    H2 1575   3.105   6.997   2.881
  544TIP3   OH2 1576   3.598   2.445   6.442
  544TIP3    H1 1577   3.600   2.525   6.493
  544TIP3    H2 1578   3.525   2.395   6.480
  545TIP3   OH2 1579   0.089   4.001   6.145
  545TIP3    H1 1580   0.108   3.976   6.235
  545TIP3    H2 1581   0.174   4.020   6.106
  546TIP3   OH2 1582   1.124   0.880   3.158
  546TIP3    H1 1583   1.062   0.926   3.100
  546TIP3    H2 1584   1.071   0.857   3.235
  547TIP3   OH2 1585   1.056   5.952   2.877
  547TIP3    H1 1586   1.134   5.906   2.910
  547TIP3    H2 1587   1.058   6.037   2.921
  548TIP3   OH2 1588   7.632   6.882   5.346
  548TIP3    H1 1589   7.725   6.891   5.370
  548TIP3    H2 1590   7.627   6.798   5.301
  549TIP3   OH2 1591   3.192   3.262   2.782
  549TIP3    H1 1592   3.263   3.297   2.727
  549TIP3    H2 1593   3.198   3.312   2.863
  550TIP3   OH2 1594   4.085   7.691   6.438
  550TIP3    H1 1595   4.007   7.743   6.458
  550TIP3    H2 1596   4.070   7.608   6.483
  551TIP3   OH2 1597   5.542   6.242   3.508
  551TIP3    H1 1598   5.562   6.149   3.520
  551TIP3    H2 1599   5.583   6.285   3.583
  552TIP3   OH2 1600   5.970   7.350   2.001
  552TIP3    H1 1601   5.925   7.400   2.069
  552TIP3    H2 1602   5.899   7.316   1.946
  553TIP3   OH2 1603   5.642   6.860   5.974
  553TIP3    H1 1604   5.677   6.787   5.924
  553TIP3    H2 1605   5.719   6.912   5.999
  554TIP3   OH2 1606   1.511   5.363   0.726
  554TIP3    H1 1607   1.570   5.288   0.730
  554TIP3    H2 1608   1.531   5.405   0.642
  555TIP3   OH2 1609   4.422   2.408   0.929
  555TIP3    H1 1610   4.501   2.365   0.963
  555TIP3    H2 1611   4.441   2.422   0.836
  556TIP3   OH2 1612   1.105   7.588   5.379
  556TIP3    H1 1613   1.149   7.538   5.310
  556TIP3    H2 1614   1.013   7.564   5.370
  557TIP3   OH2 1615   0.344   7.372   0.556
  557TIP3    H1 1616   0.381   7.342   0.639
  557TIP3    H2 1617   0.418   7.373   0.496
  558TIP3   OH2 1618   0.692   5.252   6.133
  558TIP3    H1 1619   0.768   5.196   6.118
  558TIP3    H2 1620   0.723   5.341   6.117
  559TIP3   OH2 1621   5.770   5.757   0.469
  559TIP3    H1 1622   5.758   5.663   0.481
  559TIP3    H2 1623   5.720   5.797   0.541
  560TIP3   OH2 1624   2.875   7.687   3.467
  560TIP3    H1 1625   2.790   7.642   3.468
  560TIP3    H2 1626   2.854   7.778   3.489
  561TIP3   OH2 1627   5.317   5.529   2.405
  561TIP3    H1 1628   5.287   5.512   2.495
  561TIP3    H2 1629   5.238   5.525   2.352
  562TIP3   OH2 1630   4.186   4.445   4.011
  562TIP3    H1 1631   4.280   4.464   4.017
  562TIP3    H2 1632   4.157   4.440   4.101
  563TIP3   OH2 1633   0.158   0.527   2.100
  563TIP3    H1 1634   0.231   0.573   2.060
  563TIP3    H2 1635   0.193   0.492   2.182
  564TIP3   OH2 1636   6.910   1.595   0.512
  564TIP3    H1 1637   6.941   1.512   0.474
  564TIP3    H2 1638   6.841   1.569   0.573
  565TIP3   OH2 1639   4.493   7.722   4.407
  565TIP3    H1 1640   4.399   7.721   4.389
  565TIP3    H2 1641   4.533   7.694   4.324
  566TIP3   OH2 1642   4.873   3.104   1.616
  566TIP3    H1 1643   4.871   3.103   1.520
  566TIP3    H2 1644   4.781   3.115   1.641
  567TIP3   OH2 1645   7.379   5.404   3.240
  567TIP3    H1 1646   7.472   5.417   3.222
  567TIP3    H2 1647   7.336   5.479   3.201
  568TIP3   OH2 1648   3.616   3.616   5.916
  568TIP3    H1 1649   3.617   3.686   5.982
  568TIP3    H2 1650   3.708   3.592   5.905
  569TIP3   OH2 1651   2.312   0.946   1.814
  569TIP3    H1 1652   2.377   0.896   1.765
  569TIP3    H2 1653   2.364   1.003   1.871
  570TIP3   OH2 1654   1.220   1.669   1.969
  570TIP3    H1 1655   1.162   1.712   2.030
  570TIP3    H2 1656   1.245   1.587   2.013
  571TIP3   OH2 1657   3.910   3.654   0.042
  571TIP3    H1 1658   3.964   3.598   0.098
  571TIP3    H2 1659   3.821   3.621   0.053
  572TIP3   OH2 1660   7.619   1.807   5.993
  572TIP3    H1 1661   7.651   1.729   5.949
  572TIP3    H2 1662   7.592   1.865   5.922
  573TIP3   OH2 1663   4.671   0.324   6.461
  573TIP3    H1 1664   4.595   0.295   6.512
  573TIP3    H2 1665   4.671   0.266   6.385
  574TIP3   OH2 1666   1.089   3.515   2.429
  574TIP3    H1 1667   1.017   3.472   2.474
  574TIP3    H2 1668   1.165   3.458   2.444
  575TIP3   OH2 1669   4.979   4.047   1.871
  575TIP3    H1 1670   4.946   4.063   1.783
  575TIP3    H2 1671   4.912   4.083   1.929
  576TIP3   OH2 1672   7.767   4.863   1.467
  576TIP3    H1 1673   7.765   4.782   1.415
  576TIP3    H2 1674   7.675   4.881   1.485
  577TIP3   OH2 1675   3.379   5.604   3.984
  577TIP3    H1 1676   3.335   5.554   3.915
  577TIP3    H2 1677   3.449   5.651   3.940
  578TIP3   OH2 1678   5.731   3.796   3.371
  578TIP3    H1 1679   5.645   3.803   3.412
  578TIP3    H2 1680   5.789   3.765   3.440
  579TIP3   OH2 1681   6.646   4.485   0.400
  579TIP3    H1 1682   6.657   4.391   0.386
  579TIP3    H2 1683   6.643   4.495   0.495
  580TIP3   OH2 1684   2.480   1.941   3.381
  580TIP3    H1 1685   2.547   1.888   3.339
  580TIP3    H2 1686   2.528   2.018   3.414
  581TIP3   OH2 1687   1.238   5.940   5.878
  581TIP3    H1 1688   1.189   5.874   5.828
  581TIP3    H2 1689   1.289   5.890   5.941
  582TIP3   OH2 1690   2.151   4.150   6.753
  582TIP3    H1 1691   2.186   4.191   6.674
  582TIP3    H2 1692   2.229   4.118   6.799
  583TIP3   OH2 1693   5.802   4.697   0.996
  583TIP3    H1 1694   5.761   4.640   0.930
  583TIP3    H2 1695   5.731   4.752   1.028
  584TIP3   OH2 1696   2.325   7.320   0.951
  584TIP3    H1 1697   2.251   7.280   0.998
  584TIP3    H2 1698   2.286   7.360   0.874
  585TIP3   OH2 1699   2.860   1.765   4.539
  585TIP3    H1 1700   2.818   1.680   4.528
  585TIP3    H2 1701   2.943   1.745   4.583
  586TIP3   OH2 1702   6.354   6.811   5.335
  586TIP3    H1 1703   6.385   6.809   5.244
  586TIP3    H2 1704   6.327   6.901   5.350
  587TIP3   OH2 1705   4.032   4.064   6.313
  587TIP3    H1 1706   4.044   4.066   6.408
  587TIP3    H2 1707   4.121   4.058   6.278
  588TIP3   OH2 1708   1.517   7.339   1.988
  588TIP3    H1 1709   1.596   7.359   1.936
  588TIP3    H2 1710   1.472   7.271   1.938
  589TIP3   OH2 1711   3.011   3.338   5.835
  589TIP3    H1 1712   3.019   3.333   5.740
  589TIP3    H2 1713   3.062   3.263   5.868
  590TIP3   OH2 1714   6.796   3.341   2.785
  590TIP3    H1 1715   6.816   3.435   2.779
  590TIP3    H2 1716   6.848   3.300   2.716
  591TIP3   OH2 1717   3.875   7.056   0.850
  591TIP3    H1 1718   3.828   7.051   0.766
  591TIP3    H2 1719   3.960   7.015   0.832
  592TIP3   OH2 1720   4.885   7.619   5.885
  592TIP3    H1 1721   4.931   7.625   5.968
  592TIP3    H2 1722   4.954   7.615   5.819
  593TIP3   OH2 1723   3.310   6.853   4.889
  593TIP3    H1 1724   3.345   6.813   4.968
  593TIP3    H2 1725   3.374   6.920   4.865
  594TIP3   OH2 1726   3.673   4.059   1.511
  594TIP3    H1 1727   3.596   4.036   1.562
  594TIP3    H2 1728   3.740   4.080   1.577
  595TIP3   OH2 1729   5.188   2.251   1.872
  595TIP3    H1 1730   5.122   2.182   1.875
  595TIP3    H2 1731   5.252   2.222   1.807
  596TIP3   OH2 1732   1.744   3.121   3.648
  596TIP3    H1 1733   1.826   3.150   3.609
  596TIP3    H2 1734   1.761   3.032   3.678
  597TIP3   OH2 1735   5.427   5.383   4.392
  597TIP3    H1 1736   5.338   5.380   4.358
  597TIP3    H2 1737   5.419   5.432   4.475
  598TIP3   OH2 1738   0.441   4.407   5.634
  598TIP3    H1 1739   0.391   4.413   5.715
  598TIP3    H2 1740   0.426   4.317   5.603
  599TIP3   OH2 1741   6.952   6.747   5.703
  599TIP3    H1 1742   6.938   6.748   5.608
  599TIP3    H2 1743   6.882   6.801   5.738
  600TIP3   OH2 1744   7.182   0.146   4.913
  600TIP3    H1 1745   7.104   0.101   4.882
  600TIP3    H2 1746   7.247   0.133   4.843
  601TIP3   OH2 1747   0.369   0.743   0.332
  601TIP3    H1 1748   0.448   0.794   0.312
  601TIP3    H2 1749   0.402   0.665   0.376
  602TIP3   OH2 1750   5.066   1.772   3.736
  602TIP3    H1 1751   5.027   1.685   3.732
  602TIP3    H2 1752   5.034   1.809   3.818
  603TIP3   OH2 1753   2.885   2.258   5.777
  603TIP3    H1 1754   2.892   2.191   5.845
  603TIP3    H2 1755   2.941   2.329   5.807
  604TIP3   OH2 1756   4.511   0.785   3.674
  604TIP3    H1 1757   4.473   0.728   3.740
  604TIP3    H2 1758   4.575   0.838   3.722
  605TIP3   OH2 1759   0.996   1.357   0.607
  605TIP3    H1 1760   0.915   1.408   0.613
  605TIP3    H2 1761   0.989   1.309   0.524
  606TIP3   OH2 1762   1.740   1.902   6.248
  606TIP3    H1 1763   1.658   1.870   6.213
  606TIP3    H2 1764   1.718   1.985   6.290
  607TIP3   OH2 1765   5.926   0.436   2.732
  607TIP3    H1 1766   5.941   0.528   2.709
  607TIP3    H2 1767   6.008   0.393   2.712
  608TIP3   OH2 1768   7.078   2.627   0.324
  608TIP3    H1 1769   7.043   2.648   0.237
  608TIP3    H2 1770   7.008   2.579   0.367
  609TIP3   OH2 1771   3.359   7.366   4.083
  609TIP3    H1 1772   3.374   7.411   4.166
  609TIP3    H2 1773   3.267   7.381   4.064
  610TIP3   OH2 1774   4.409   7.208   2.995
  610TIP3    H1 1775   4.332   7.263   3.009
  610TIP3    H2 1776   4.483   7.268   3.002
  611TIP3   OH2 1777   8.178   3.103   1.557
  611TIP3    H1 1778   8.216   3.019   1.531
  611TIP3    H2 1779   8.120   3.127   1.485
  612TIP3   OH2 1780   3.763   0.499   6.374
  612TIP3    H1 1781   3.793   0.410   6.392
  612TIP3    H2 1782   3.722   0.527   6.456
  613TIP3   OH2 1783   3.985   2.573   0.266
  613TIP3    H1 1784   3.894   2.561   0.238
  613TIP3    H2 1785   4.032   2.595   0.186
  614TIP3   OH2 1786   0.605   3.599   1.808
  614TIP3    H1 1787   0.646   3.592   1.894
  614TIP3    H2 1788   0.656   3.539   1.753
  615TIP3   OH2 1789   4.792   4.815   5.553
  615TIP3    H1 1790   4.790   4.883   5.619
  615TIP3    H2 1791   4.743   4.851   5.479
  616TIP3   OH2 1792   1.357   4.232   6.620
  616TIP3    H1 1793   1.293   4.196   6.681
  616TIP3    H2 1794   1.422   4.162   6.610
  617TIP3   OH2 1795   8.029   7.636   1.802
  617TIP3    H1 1796   8.076   7.709   1.763
  617TIP3    H2 1797   7.959   7.677   1.853
  618TIP3   OH2 1798   7.305   2.143   1.952
  618TIP3    H1 1799   7.289   2.159   2.045
  618TIP3    H2 1800   7.277   2.224   1.909
  619TIP3   OH2 1801   0.294   2.736   1.224
  619TIP3    H1 1802   0.253   2.715   1.141
  619TIP3    H2 1803   0.306   2.652   1.268
  620TIP3   OH2 1804   4.091   4.722   3.015
  620TIP3    H1 1805   4.150   4.791   2.986
  620TIP3    H2 1806   4.006   4.765   3.022
  621TIP3   OH2 1807   4.914   5.658   3.562
  621TIP3    H1 1808   5.000   5.697   3.552
  621TIP3    H2 1809   4.863   5.693   3.488
  622TIP3   OH2 1810   3.610   0.754   1.634
  622TIP3    H1 1811   3.519   0.725   1.631
  622TIP3    H2 1812   3.661   0.673   1.633
  623TIP3   OH2 1813   6.331   6.229   5.760
  623TIP3    H1 1814   6.357   6.273   5.840
  623TIP3    H2 1815   6.411   6.185   5.730
  624TIP3   OH2 1816   2.809   1.897   1.282
  624TIP3    H1 1817   2.868   1.830   1.248
  624TIP3    H2 1818   2.793   1.870   1.373
  625TIP3   OH2 1819   3.963   6.869   3.823
  625TIP3    H1 1820   3.926   6.813   3.891
  625TIP3    H2 1821   4.053   6.837   3.811
  626TIP3   OH2 1822   2.075   3.640   3.108
  626TIP3    H1 1823   2.061   3.594   3.025
  626TIP3    H2 1824   2.099   3.729   3.083
  627TIP3   OH2 1825   4.538   7.379   5.047
  627TIP3    H1 1826   4.490   7.461   5.053
  627TIP3    H2 1827   4.540   7.360   4.953
  628TIP3   OH2 1828   8.211   5.941   6.175
  628TIP3    H1 1829   8.207   5.877   6.105
  628TIP3    H2 1830   8.122   5.976   6.182
  629TIP3   OH2 1831   1.570   7.128   3.250
  629TIP3    H1 1832   1.615   7.082   3.321
  629TIP3    H2 1833   1.494   7.073   3.231
  630TIP3   OH2 1834   3.838   3.837   3.876
  630TIP3    H1 1835   3.855   3.749   3.841
  630TIP3    H2 1836   3.852   3.828   3.970
  631TIP3   OH2 1837   1.616   0.557   5.307
  631TIP3    H1 1838   1.696   0.508   5.328
  631TIP3    H2 1839   1.551   0.524   5.368
  632TIP3   OH2 1840   1.882   2.188   4.582
  632TIP3    H1 1841   1.948   2.154   4.642
  632TIP3    H2 1842   1.878   2.123   4.511
  633TIP3   OH2 1843   7.719   0.582   6.077
  633TIP3    H1 1844   7.714   0.672   6.110
  633TIP3    H2 1845   7.651   0.578   6.009
  634TIP3   OH2 1846   0.244   4.307   4.095
  634TIP3    H1 1847   0.219   4.378   4.153
  634TIP3    H2 1848   0.161   4.271   4.063
  635TIP3   OH2 1849   7.958   0.102   2.082
  635TIP3    H1 1850   7.964   0.072   2.173
  635TIP3    H2 1851   7.983   0.025   2.030
  636TIP3   OH2 1852   1.213   5.174   1.467
  636TIP3    H1 1853   1.128   5.202   1.434
  636TIP3    H2 1854   1.192   5.110   1.535
  637TIP3   OH2 1855   1.569   4.761   1.996
  637TIP3    H1 1856   1.587   4.769   1.902
  637TIP3    H2 1857   1.493   4.703   2.001
  638TIP3   OH2 1858   5.164   6.527   4.652
  638TIP3    H1 1859   5.128   6.588   4.587
  638TIP3    H2 1860   5.121   6.552   4.734
  639TIP3   OH2 1861   4.530   1.933   1.905
  639TIP3    H1 1862   4.550   1.982   1.985
  639TIP3    H2 1863   4.435   1.923   1.907
  640TIP3   OH2 1864   7.666   0.301   2.130
  640TIP3    H1 1865   7.639   0.339   2.213
  640TIP3    H2 1866   7.761   0.309   2.129
  641TIP3   OH2 1867   2.460   7.473   3.669
  641TIP3    H1 1868   2.439   7.562   3.696
  641TIP3    H2 1869   2.392   7.419   3.708
  642TIP3   OH2 1870   0.725   5.040   5.531
  642TIP3    H1 1871   0.638   5.001   5.522
  642TIP3    H2 1872   0.785   4.967   5.516
  643TIP3   OH2 1873   2.255   4.144   3.724
  643TIP3    H1 1874   2.318   4.207   3.690
  643TIP3    H2 1875   2.208   4.191   3.793
  644TIP3   OH2 1876   3.965   6.307   4.708
  644TIP3    H1 1877   4.057   6.284   4.696
  644TIP3    H2 1878   3.928   6.304   4.620
  645TIP3   OH2 1879   1.651   2.324   4.938
  645TIP3    H1 1880   1.725   2.274   4.974
  645TIP3    H2 1881   1.626   2.277   4.859
  646TIP3   OH2 1882   0.457   1.117   0.474
  646TIP3    H1 1883   0.392   1.050   0.494
  646TIP3    H2 1884   0.406   1.194   0.449
  647TIP3   OH2 1885   6.582   1.606   0.381
  647TIP3    H1 1886   6.538   1.688   0.358
  647TIP3    H2 1887   6.601   1.564   0.297
  648TIP3   OH2 1888   0.571   0.585   0.172
  648TIP3    H1 1889   0.610   0.545   0.250
  648TIP3    H2 1890   0.497   0.529   0.151
  649TIP3   OH2 1891   0.413   3.132   1.535
  649TIP3    H1 1892   0.453   3.218   1.518
  649TIP3    H2 1893   0.396   3.131   1.629
  650TIP3   OH2 1894   6.127   2.923   6.528
  650TIP3    H1 1895   6.045   2.891   6.566
  650TIP3    H2 1896   6.190   2.853   6.544
  651TIP3   OH2 1897   6.946   4.787   4.687
  651TIP3    H1 1898   6.881   4.851   4.660
  651TIP3    H2 1899   6.895   4.711   4.715
  652TIP3   OH2 1900   6.072   5.562   2.158
  652TIP3    H1 1901   6.099   5.625   2.091
  652TIP3    H2 1902   6.154   5.522   2.187
  653TIP3   OH2 1903   6.366   5.945   3.994
  653TIP3    H1 1904   6.400   5.906   4.075
  653TIP3    H2 1905   6.441   5.944   3.934
  654TIP3   OH2 1906   3.892   6.951   2.961
  654TIP3    H1 1907   3.874   6.994   2.878
  654TIP3    H2 1908   3.834   6.995   3.024
  655TIP3   OH2 1909   4.749   7.675   3.110
  655TIP3    H1 1910   4.746   7.688   3.204
  655TIP3    H2 1911   4.834   7.632   3.094
  656TIP3   OH2 1912   6.730   1.285   0.230
  656TIP3    H1 1913   6.639   1.271   0.253
  656TIP3    H2 1914   6.740   1.246   0.143
  657TIP3   OH2 1915   0.801   0.630   3.398
  657TIP3    H1 1916   0.717   0.647   3.356
  657TIP3    H2 1917   0.786   0.551   3.449
  658TIP3   OH2 1918   1.644   3.996   4.433
  658TIP3    H1 1919   1.620   4.022   4.522
  658TIP3    H2 1920   1.566   3.951   4.400
  659TIP3   OH2 1921   6.248   2.930   3.392
  659TIP3    H1 1922   6.305   2.943   3.468
  659TIP3    H2 1923   6.203   3.014   3.381
  660TIP3   OH2 1924   7.954   7.624   4.812
  660TIP3    H1 1925   7.985   7.650   4.726
  660TIP3    H2 1926   7.863   7.651   4.815
  661TIP3   OH2 1927   5.228   0.844   2.204
  661TIP3    H1 1928   5.154   0.864   2.261
  661TIP3    H2 1929   5.305   0.850   2.261
  662TIP3   OH2 1930   0.736   3.945   5.999
  662TIP3    H1 1931   0.741   4.033   6.036
  662TIP3    H2 1932   0.775   3.888   6.066
  663TIP3   OH2 1933   0.720   2.703   1.389
  663TIP3    H1 1934   0.800   2.693   1.337
  663TIP3    H2 1935   0.732   2.644   1.463
  664TIP3   OH2 1936   2.847   2.572   1.759
  664TIP3    H1 1937   2.887   2.658   1.763
  664TIP3    H2 1938   2.772   2.576   1.819
  665TIP3   OH2 1939   1.765   7.353   4.508
  665TIP3    H1 1940   1.698   7.288   4.530
  665TIP3    H2 1941   1.827   7.350   4.580
  666TIP3   OH2 1942   3.849   5.885   6.460
  666TIP3    H1 1943   3.840   5.893   6.555
  666TIP3    H2 1944   3.942   5.898   6.444
  667TIP3   OH2 1945   8.011   2.190   1.219
  667TIP3    H1 1946   8.103   2.217   1.226
  667TIP3    H2 1947   8.015   2.100   1.186
  668TIP3   OH2 1948   2.419   2.759   3.769
  668TIP3    H1 1949   2.453   2.677   3.734
  668TIP3    H2 1950   2.376   2.734   3.851
  669TIP3   OH2 1951   6.693   7.433   0.954
  669TIP3    H1 1952   6.641   7.482   1.017
  669TIP3    H2 1953   6.749   7.499   0.913
  670TIP3   OH2 1954   5.165   1.883   2.584
  670TIP3    H1 1955   5.173   1.962   2.529
  670TIP3    H2 1956   5.092   1.902   2.642
  671TIP3   OH2 1957   1.951   0.345   0.254
  671TIP3    H1 1958   2.004   0.311   0.182
  671TIP3    H2 1959   1.864   0.356   0.217
  672TIP3   OH2 1960   3.397   0.863   3.176
  672TIP3    H1 1961   3.446   0.781   3.178
  672TIP3    H2 1962   3.405   0.899   3.265
  673TIP3   OH2 1963   5.437   6.211   1.329
  673TIP3    H1 1964   5.484   6.198   1.247
  673TIP3    H2 1965   5.358   6.157   1.320
  674TIP3   OH2 1966   5.078   6.994   1.463
  674TIP3    H1 1967   5.008   6.988   1.398
  674TIP3    H2 1968   5.158   6.997   1.412
  675TIP3   OH2 1969   0.244   2.890   0.819
  675TIP3    H1 1970   0.320   2.918   0.870
  675TIP3    H2 1971   0.209   2.970   0.782
  676TIP3   OH2 1972   0.708   0.763   4.232
  676TIP3    H1 1973   0.776   0.829   4.249
  676TIP3    H2 1974   0.708   0.709   4.312
  677TIP3   OH2 1975   6.518   6.144   0.946
  677TIP3    H1 1976   6.483   6.175   0.862
  677TIP3    H2 1977   6.610   6.170   0.944
  678TIP3   OH2 1978   4.268   5.253   3.464
  678TIP3    H1 1979   4.348   5.294   3.497
  678TIP3    H2 1980   4.272   5.163   3.496
  679TIP3   OH2 1981   5.428   3.470   3.077
  679TIP3    H1 1982   5.473   3.555   3.069
  679TIP3    H2 1983   5.472   3.427   3.150
  680TIP3   OH2 1984   0.283   6.425   0.670
  680TIP3    H1 1985   0.266   6.444   0.577
  680TIP3    H2 1986   0.209   6.371   0.697
  681TIP3   OH2 1987   1.859   3.626   3.892
  681TIP3    H1 1988   1.911   3.644   3.813
  681TIP3    H2 1989   1.920   3.583   3.952
  682TIP3   OH2 1990   3.298   7.177   2.101
  682TIP3    H1 1991   3.343   7.093   2.093
  682TIP3    H2 1992   3.356   7.240   2.058
  683TIP3   OH2 1993   4.133   5.530   1.740
  683TIP3    H1 1994   4.084   5.552   1.819
  683TIP3    H2 1995   4.216   5.496   1.771
  684TIP3   OH2 1996   0.455   2.374   0.322
  684TIP3    H1 1997   0.412   2.430   0.257
  684TIP3    H2 1998   0.435   2.414   0.406
  685TIP3   OH2 1999   3.731   3.752   2.789
  685TIP3    H1 2000   3.690   3.711   2.865
  685TIP3    H2 2001   3.699   3.702   2.714
  686TIP3   OH2 2002   4.102   3.633   1.319
  686TIP3    H1 2003   4.030   3.574   1.343
  686TIP3    H2 2004   4.081   3.661   1.230
  687TIP3   OH2 2005   5.970   6.574   5.136
  687TIP3    H1 2006   5.883   6.535   5.137
  687TIP3    H2 2007   6.030   6.500   5.121
  688TIP3   OH2 2008   2.274   3.413   5.543
  688TIP3    H1 2009   2.207   3.348   5.522
  688TIP3    H2 2010   2.262   3.430   5.637
  689TIP3   OH2 2011   3.159   2.094   0.086
  689TIP3    H1 2012   3.109   2.159   0.037
  689TIP3    H2 2013   3.249   2.103   0.053
  690TIP3   OH2 2014   1.590   4.164   2.088
  690TIP3    H1 2015   1.529   4.143   2.158
  690TIP3    H2 2016   1.627   4.248   2.114
  691TIP3   OH2 2017   3.098   1.618   5.255
  691TIP3    H1 2018   3.089   1.541   5.312
  691TIP3    H2 2019   3.010   1.655   5.252
  692TIP3   OH2 2020   6.203   4.462   6.041
  692TIP3    H1 2021   6.237   4.469   5.952
  692TIP3    H2 2022   6.122   4.412   6.032
  693TIP3   OH2 2023   6.920   6.087   2.595
  693TIP3    H1 2024   6.857   6.157   2.608
  693TIP3    H2 2025   6.940   6.056   2.684
  694TIP3   OH2 2026   3.710   0.848   2.588
  694TIP3    H1 2027   3.670   0.852   2.675
  694TIP3    H2 2028   3.635   0.842   2.528
  695TIP3   OH2 2029   3.243   3.808   4.691
  695TIP3    H1 2030   3.315   3.753   4.723
  695TIP3    H2 2031   3.237   3.786   4.598
  696TIP3   OH2 2032   6.062   7.632   0.094
  696TIP3    H1 2033   6.043   7.539   0.077
  696TIP3    H2 2034   6.137   7.630   0.153
  697TIP3   OH2 2035   8.246   4.734   3.009
  697TIP3    H1 2036   8.273   4.722   3.100
  697TIP3    H2 2037   8.210   4.823   3.007
  698TIP3   OH2 2038   7.916   5.145   3.637
  698TIP3    H1 2039   7.888   5.237   3.639
  698TIP3    H2 2040   7.990   5.141   3.698
  699TIP3   OH2 2041  -0.022   5.970   0.644
  699TIP3    H1 2042   0.060   6.001   0.682
  699TIP3    H2 2043  -0.029   5.879   0.673
  700TIP3   OH2 2044   6.112   2.352   0.625
  700TIP3    H1 2045   6.100   2.392   0.711
  700TIP3    H2 2046   6.076   2.263   0.634
  701TIP3   OH2 2047   6.913   7.135   5.893
  701TIP3    H1 2048   6.958   7.147   5.810
  701TIP3    H2 2049   6.946   7.052   5.927
  702TIP3   OH2 2050   0.773   5.279   5.415
  702TIP3    H1 2051   0.786   5.194   5.455
  702TIP3    H2 2052   0.729   5.261   5.332
  703TIP3   OH2 2053   0.342   3.222   2.690
  703TIP3    H1 2054   0.394   3.257   2.618
  703TIP3    H2 2055   0.346   3.290   2.758
  704TIP3   OH2 2056   2.656   2.924   0.630
  704TIP3    H1 2057   2.691   2.986   0.693
  704TIP3    H2 2058   2.586   2.879   0.677
  705TIP3   OH2 2059   6.651   3.033   5.454
  705TIP3    H1 2060   6.720   3.015   5.390
  705TIP3    H2 2061   6.638   3.128   5.448
  706TIP3   OH2 2062   5.037   2.937   3.775
  706TIP3    H1 2063   5.044   3.030   3.750
  706TIP3    H2 2064   4.966   2.903   3.720
  707TIP3   OH2 2065   5.927   6.394   1.776
  707TIP3    H1 2066   5.881   6.416   1.694
  707TIP3    H2 2067   5.857   6.389   1.841
  708TIP3   OH2 2068   6.010   3.188   6.009
  708TIP3    H1 2069   5.972   3.136   5.939
  708TIP3    H2 2070   6.088   3.228   5.970
  709TIP3   OH2 2071   7.914   4.904   2.082
  709TIP3    H1 2072   7.827   4.918   2.118
  709TIP3    H2 2073   7.962   4.859   2.153
  710TIP3   OH2 2074   5.579   3.449   3.577
  710TIP3    H1 2075   5.647   3.516   3.579
  710TIP3    H2 2076   5.590   3.400   3.659
  711TIP3   OH2 2077   7.365   6.673   5.857
  711TIP3    H1 2078   7.383   6.636   5.944
  711TIP3    H2 2079   7.440   6.729   5.839
  712TIP3   OH2 2080   1.952   2.413   5.090
  712TIP3    H1 2081   2.006   2.405   5.012
  712TIP3    H2 2082   2.013   2.399   5.163
  713TIP3   OH2 2083   6.753   4.121   2.503
  713TIP3    H1 2084   6.670   4.098   2.462
  713TIP3    H2 2085   6.813   4.051   2.476
  714TIP3   OH2 2086   5.467   5.330   2.685
  714TIP3    H1 2087   5.491   5.274   2.758
  714TIP3    H2 2088   5.399   5.282   2.639
  715TIP3   OH2 2089   5.684   2.111   0.807
  715TIP3    H1 2090   5.621   2.095   0.737
  715TIP3    H2 2091   5.668   2.040   0.870
  716TIP3   OH2 2092   0.612   0.886   2.601
  716TIP3    H1 2093   0.585   0.966   2.556
  716TIP3    H2 2094   0.603   0.907   2.694
  717TIP3   OH2 2095   3.321   6.992   1.810
  717TIP3    H1 2096   3.242   6.976   1.759
  717TIP3    H2 2097   3.389   7.009   1.744
  718TIP3   OH2 2098   6.650   0.065   4.921
  718TIP3    H1 2099   6.678   0.145   4.967
  718TIP3    H2 2100   6.587   0.024   4.981
  719TIP3   OH2 2101   4.441   4.579   1.095
  719TIP3    H1 2102   4.489   4.532   1.162
  719TIP3    H2 2103   4.395   4.511   1.046
  720TIP3   OH2 2104   7.226   5.161   3.230
  720TIP3    H1 2105   7.268   5.246   3.218
  720TIP3    H2 2106   7.160   5.176   3.297
  721TIP3   OH2 2107   5.983   6.204   0.650
  721TIP3    H1 2108   5.896   6.165   0.646
  721TIP3    H2 2109   5.975   6.273   0.715
  722TIP3   OH2 2110   0.546   1.927   1.807
  722TIP3    H1 2111   0.537   1.844   1.760
  722TIP3    H2 2112   0.639   1.949   1.800
  723TIP3   OH2 2113   3.894   4.762   0.723
  723TIP3    H1 2114   3.935   4.804   0.647
  723TIP3    H2 2115   3.907   4.668   0.708
  724TIP3   OH2 2116   6.169   2.545   6.068
  724TIP3    H1 2117   6.121   2.563   5.987
  724TIP3    H2 2118   6.102   2.539   6.135
  725TIP3   OH2 2119   3.905   1.873   1.427
  725TIP3    H1 2120   3.865   1.936   1.366
  725TIP3    H2 2121   3.969   1.924   1.476
  726TIP3   OH2 2122   7.369   6.643   0.876
  726TIP3    H1 2123   7.413   6.701   0.940
  726TIP3    H2 2124   7.351   6.563   0.925
  727TIP3   OH2 2125   0.721   3.937   2.311
  727TIP3    H1 2126   0.717   3.992   2.232
  727TIP3    H2 2127   0.641   3.883   2.306
  728TIP3   OH2 2128   1.715   6.314   2.088
  728TIP3    H1 2129   1.709   6.219   2.087
  728TIP3    H2 2130   1.808   6.332   2.070
  729TIP3   OH2 2131   4.086   3.702   5.779
  729TIP3    H1 2132   4.175   3.665   5.782
  729TIP3    H2 2133   4.087   3.772   5.843
  730TIP3   OH2 2134   4.034   4.847   0.502
  730TIP3    H1 2135   4.124   4.825   0.525
  730TIP3    H2 2136   4.017   4.798   0.422
  731TIP3   OH2 2137   7.808   7.573   5.182
  731TIP3    H1 2138   7.741   7.525   5.230
  731TIP3    H2 2139   7.804   7.537   5.093
  732TIP3   OH2 2140   5.962   0.067   3.105
  732TIP3    H1 2141   5.953   0.031   3.017
  732TIP3    H2 2142   5.877   0.050   3.146
  733TIP3   OH2 2143   6.877   3.888   2.373
  733TIP3    H1 2144   6.783   3.876   2.358
  733TIP3    H2 2145   6.917   3.867   2.289
  734TIP3   OH2 2146   0.283   4.209   3.750
  734TIP3    H1 2147   0.326   4.147   3.808
  734TIP3    H2 2148   0.349   4.230   3.684
  735TIP3   OH2 2149   0.692   2.321   4.364
  735TIP3    H1 2150   0.724   2.363   4.284
  735TIP3    H2 2151   0.635   2.388   4.404
  736TIP3   OH2 2152   0.245   5.157   1.917
  736TIP3    H1 2153   0.261   5.111   2.000
  736TIP3    H2 2154   0.260   5.249   1.937
  737TIP3   OH2 2155   3.174   5.813   0.533
  737TIP3    H1 2156   3.239   5.801   0.464
  737TIP3    H2 2157   3.090   5.813   0.487
  738TIP3   OH2 2158   0.536   3.038   5.493
  738TIP3    H1 2159   0.606   3.071   5.550
  738TIP3    H2 2160   0.469   3.008   5.554
  739TIP3   OH2 2161   1.766   7.814   1.414
  739TIP3    H1 2162   1.678   7.851   1.411
  739TIP3    H2 2163   1.768   7.760   1.493
  740TIP3   OH2 2164   4.066   2.961   5.945
  740TIP3    H1 2165   4.075   2.933   6.036
  740TIP3    H2 2166   3.974   2.987   5.937
  741TIP3   OH2 2167   1.119   6.535   0.363
  741TIP3    H1 2168   1.068   6.454   0.357
  741TIP3    H2 2169   1.202   6.508   0.403
  742TIP3   OH2 2170   0.357   5.141   0.515
  742TIP3    H1 2171   0.315   5.220   0.481
  742TIP3    H2 2172   0.347   5.077   0.444
  743TIP3   OH2 2173   6.809   3.041   3.679
  743TIP3    H1 2174   6.776   3.128   3.703
  743TIP3    H2 2175   6.871   3.058   3.608
  744TIP3   OH2 2176   7.047   1.009   3.774
  744TIP3    H1 2177   6.979   1.041   3.715
  744TIP3    H2 2178   7.124   1.062   3.753
  745TIP3   OH2 2179   7.415   5.908   6.444
  745TIP3    H1 2180   7.481   5.899   6.376
  745TIP3    H2 2181   7.447   5.855   6.517
  746TIP3   OH2 2182   1.518   6.306   4.100
  746TIP3    H1 2183   1.579   6.336   4.032
  746TIP3    H2 2184   1.574   6.268   4.167
  747TIP3   OH2 2185   3.793   3.040   4.216
  747TIP3    H1 2186   3.762   3.129   4.199
  747TIP3    H2 2187   3.860   3.025   4.149
  748TIP3   OH2 2188   0.871   4.684   6.401
  748TIP3    H1 2189   0.924   4.724   6.469
  748TIP3    H2 2190   0.888   4.737   6.323
  749TIP3   OH2 2191   0.944   1.727   0.872
  749TIP3    H1 2192   1.024   1.780   0.862
  749TIP3    H2 2193   0.941   1.705   0.965
  750TIP3   OH2 2194   3.239   6.325   4.857
  750TIP3    H1 2195   3.143   6.331   4.863
  750TIP3    H2 2196   3.255   6.299   4.767
  751TIP3   OH2 2197   7.616   6.748   6.602
  751TIP3    H1 2198   7.675   6.795   6.544
  751TIP3    H2 2199   7.674   6.702   6.663
  752TIP3   OH2 2200   5.493   1.211   3.215
  752TIP3    H1 2201   5.552   1.139   3.193
  752TIP3    H2 2202   5.440   1.178   3.287
  753TIP3   OH2 2203   1.968   1.404   3.382
  753TIP3    H1 2204   1.903   1.344   3.419
  753TIP3    H2 2205   2.004   1.357   3.306
  754TIP3   OH2 2206   1.704   4.198   6.461
  754TIP3    H1 2207   1.678   4.281   6.419
  754TIP3    H2 2208   1.800   4.198   6.456
  755TIP3   OH2 2209   3.087   6.851   2.451
  755TIP3    H1 2210   3.091   6.928   2.395
  755TIP3    H2 2211   3.134   6.783   2.402
  756TIP3   OH2 2212   7.653   5.654   5.888
  756TIP3    H1 2213   7.625   5.675   5.799
  756TIP3    H2 2214   7.575   5.668   5.941
  757TIP3   OH2 2215   7.585   2.449   0.105
  757TIP3    H1 2216   7.512   2.462   0.165
  757TIP3    H2 2217   7.640   2.384   0.148
  758TIP3   OH2 2218   6.676   0.246   1.893
  758TIP3    H1 2219   6.610   0.285   1.951
  758TIP3    H2 2220   6.661   0.152   1.901
  759TIP3   OH2 2221   0.796   1.991   6.574
  759TIP3    H1 2222   0.871   1.944   6.537
  759TIP3    H2 2223   0.813   1.990   6.669
  760TIP3   OH2 2224   6.329   6.678   6.089
  760TIP3    H1 2225   6.247   6.660   6.042
  760TIP3    H2 2226   6.302   6.713   6.174
  761TIP3   OH2 2227   6.488   0.415   2.343
  761TIP3    H1 2228   6.551   0.343   2.358
  761TIP3    H2 2229   6.522   0.487   2.396
  762TIP3   OH2 2230   6.424   1.337   2.478
  762TIP3    H1 2231   6.363   1.316   2.407
  762TIP3    H2 2232   6.401   1.276   2.548
  763TIP3   OH2 2233   0.476   1.986   1.350
  763TIP3    H1 2234   0.382   1.997   1.345
  763TIP3    H2 2235   0.498   2.007   1.441
  764TIP3   OH2 2236   8.237   4.287   0.602
  764TIP3    H1 2237   8.245   4.381   0.586
  764TIP3    H2 2238   8.208   4.281   0.693
  765TIP3   OH2 2239   2.383   2.524   4.427
  765TIP3    H1 2240   2.313   2.473   4.386
  765TIP3    H2 2241   2.338   2.599   4.465
  766TIP3   OH2 2242   0.000   2.861   6.428
  766TIP3    H1 2243   0.052   2.782   6.414
  766TIP3    H2 2244  -0.016   2.896   6.340
  767TIP3   OH2 2245   2.591   6.426   6.647
  767TIP3    H1 2246   2.684   6.423   6.626
  767TIP3    H2 2247   2.547   6.402   6.566
  768TIP3   OH2 2248   3.686   5.453   3.470
  768TIP3    H1 2249   3.754   5.420   3.528
  768TIP3    H2 2250   3.668   5.542   3.501
  769TIP3   OH2 2251   1.544   3.387   6.592
  769TIP3    H1 2252   1.589   3.395   6.676
  769TIP3    H2 2253   1.585   3.311   6.550
  770TIP3   OH2 2254   8.004   1.974   3.327
  770TIP3    H1 2255   7.960   1.895   3.296
  770TIP3    H2 2256   7.963   2.045   3.279
  771TIP3   OH2 2257   7.150   7.461   2.175
  771TIP3    H1 2258   7.159   7.375   2.134
  771TIP3    H2 2259   7.060   7.461   2.209
  772TIP3   OH2 2260   1.640   3.115   4.055
  772TIP3    H1 2261   1.653   3.050   3.986
  772TIP3    H2 2262   1.557   3.157   4.033
  773TIP3   OH2 2263   7.876   3.426   0.564
  773TIP3    H1 2264   7.904   3.335   0.551
  773TIP3    H2 2265   7.954   3.470   0.599
  774TIP3   OH2 2266   2.885   6.269   2.208
  774TIP3    H1 2267   2.979   6.278   2.195
  774TIP3    H2 2268   2.846   6.331   2.146
  775TIP3   OH2 2269   2.539   4.937   0.762
  775TIP3    H1 2270   2.522   5.029   0.742
  775TIP3    H2 2271   2.623   4.937   0.807
  776TIP3   OH2 2272   7.336   2.848   6.491
  776TIP3    H1 2273   7.328   2.884   6.580
  776TIP3    H2 2274   7.250   2.812   6.472
  777TIP3   OH2 2275   0.166   1.630   3.681
  777TIP3    H1 2276   0.251   1.615   3.640
  777TIP3    H2 2277   0.129   1.705   3.633
  778TIP3   OH2 2278   1.384   6.343   1.429
  778TIP3    H1 2279   1.472   6.369   1.456
  778TIP3    H2 2280   1.398   6.266   1.373
  779TIP3   OH2 2281   6.616   0.693   6.707
  779TIP3    H1 2282   6.574   0.715   6.790
  779TIP3    H2 2283   6.670   0.616   6.727
  780TIP3   OH2 2284   2.218   0.410   2.507
  780TIP3    H1 2285   2.214   0.331   2.452
  780TIP3    H2 2286   2.167   0.475   2.459
  781TIP3   OH2 2287   0.712   1.472   3.813
  781TIP3    H1 2288   0.736   1.380   3.825
  781TIP3    H2 2289   0.795   1.519   3.813
  782TIP3   OH2 2290   7.154   6.960   0.503
  782TIP3    H1 2291   7.173   6.930   0.414
  782TIP3    H2 2292   7.069   7.003   0.496
  783TIP3   OH2 2293   4.913   0.679   0.419
  783TIP3    H1 2294   4.946   0.621   0.351
  783TIP3    H2 2295   4.990   0.697   0.474
  784TIP3   OH2 2296   6.514   4.150   3.241
  784TIP3    H1 2297   6.601   4.159   3.281
  784TIP3    H2 2298   6.516   4.208   3.165
  785TIP3   OH2 2299   0.562   2.823   1.176
  785TIP3    H1 2300   0.616   2.785   1.244
  785TIP3    H2 2301   0.473   2.818   1.210
  786TIP3   OH2 2302   6.458   1.091   0.488
  786TIP3    H1 2303   6.413   1.057   0.566
  786TIP3    H2 2304   6.497   1.014   0.447
  787TIP3   OH2 2305   0.801   0.051   3.655
  787TIP3    H1 2306   0.735   0.114   3.627
  787TIP3    H2 2307   0.874   0.066   3.596
  788TIP3   OH2 2308   2.167   0.607   2.098
  788TIP3    H1 2309   2.246   0.646   2.137
  788TIP3    H2 2310   2.123   0.680   2.055
  789TIP3   OH2 2311   0.171   1.386   1.179
  789TIP3    H1 2312   0.202   1.361   1.266
  789TIP3    H2 2313   0.121   1.466   1.193
  790TIP3   OH2 2314   6.882   6.239   4.820
  790TIP3    H1 2315   6.936   6.170   4.859
  790TIP3    H2 2316   6.870   6.303   4.890
  791TIP3   OH2 2317   0.375   6.293   1.116
  791TIP3    H1 2318   0.443   6.357   1.097
  791TIP3    H2 2319   0.325   6.286   1.035
  792TIP3   OH2 2320   3.028   3.456   6.213
  792TIP3    H1 2321   3.043   3.361   6.210
  792TIP3    H2 2322   3.114   3.494   6.197
  793TIP3   OH2 2323   2.730   5.545   1.718
  793TIP3    H1 2324   2.649   5.495   1.710
  793TIP3    H2 2325   2.766   5.547   1.630
  794TIP3   OH2 2326   7.112   6.519   6.275
  794TIP3    H1 2327   7.072   6.562   6.200
  794TIP3    H2 2328   7.187   6.471   6.239
  795TIP3   OH2 2329   4.896   3.558   2.271
  795TIP3    H1 2330   4.861   3.519   2.351
  795TIP3    H2 2331   4.819   3.588   2.223
  796TIP3   OH2 2332   0.544   4.613   2.401
  796TIP3    H1 2333   0.519   4.659   2.321
  796TIP3    H2 2334   0.577   4.528   2.371
  797TIP3   OH2 2335   4.209   5.585   5.484
  797TIP3    H1 2336   4.251   5.669   5.504
  797TIP3    H2 2337   4.268   5.519   5.521
  798TIP3   OH2 2338   2.393   4.626   4.351
  798TIP3    H1 2339   2.410   4.626   4.257
  798TIP3    H2 2340   2.439   4.548   4.383
  799TIP3   OH2 2341   6.401   4.822   1.545
  799TIP3    H1 2342   6.406   4.751   1.608
  799TIP3    H2 2343   6.491   4.835   1.515
  800TIP3   OH2 2344   7.019   5.249   5.897
  800TIP3    H1 2345   6.927   5.234   5.875
  800TIP3    H2 2346   7.016   5.296   5.980
  801TIP3   OH2 2347   4.256   4.835   4.125
  801TIP3    H1 2348   4.344   4.859   4.154
  801TIP3    H2 2349   4.215   4.796   4.202
  802TIP3   OH2 2350   4.510   3.447   4.278
  802TIP3    H1 2351   4.436   3.507   4.279
  802TIP3    H2 2352   4.487   3.380   4.343
  803TIP3   OH2 2353   5.129   2.969   5.377
  803TIP3    H1 2354   5.181   2.902   5.422
  803TIP3    H2 2355   5.136   2.948   5.284
  804TIP3   OH2 2356   4.476   1.331   1.526
  804TIP3    H1 2357   4.406   1.321   1.462
  804TIP3    H2 2358   4.478   1.247   1.572
  805TIP3   OH2 2359   1.653   3.865   0.888
  805TIP3    H1 2360   1.744   3.881   0.861
  805TIP3    H2 2361   1.614   3.822   0.812
  806TIP3   OH2 2362   7.635   0.316   3.746
  806TIP3    H1 2363   7.632   0.343   3.655
  806TIP3    H2 2364   7.728   0.305   3.765
  807TIP3   OH2 2365   1.151   4.487   2.659
  807TIP3    H1 2366   1.078   4.477   2.720
  807TIP3    H2 2367   1.217   4.425   2.691
  808TIP3   OH2 2368   8.151   0.819   3.341
  808TIP3    H1 2369   8.232   0.867   3.321
  808TIP3    H2 2370   8.154   0.742   3.284
  809TIP3   OH2 2371   4.213   4.886   2.376
  809TIP3    H1 2372   4.207   4.866   2.470
  809TIP3    H2 2373   4.123   4.877   2.344
  810TIP3   OH2 2374   7.444   5.684   3.253
  810TIP3    H1 2375   7.530   5.696   3.213
  810TIP3    H2 2376   7.446   5.739   3.331
  811TIP3   OH2 2377   2.794   6.962   0.607
  811TIP3    H1 2378   2.823   6.982   0.696
  811TIP3    H2 2379   2.786   7.048   0.566
  812TIP3   OH2 2380   0.336   4.098   6.026
  812TIP3    H1 2381   0.412   4.048   6.055
  812TIP3    H2 2382   0.337   4.090   5.930
  813TIP3   OH2 2383   2.676   3.105   0.841
  813TIP3    H1 2384   2.754   3.065   0.879
  813TIP3    H2 2385   2.606   3.088   0.904
  814TIP3   OH2 2386   4.134   5.781   1.303
  814TIP3    H1 2387   4.212   5.767   1.249
  814TIP3    H2 2388   4.110   5.694   1.334
  815TIP3   OH2 2389   1.640   1.055   6.388
  815TIP3    H1 2390   1.731   1.029   6.372
  815TIP3    H2 2391   1.645   1.141   6.428
  816TIP3   OH2 2392   5.397   2.972   1.737
  816TIP3    H1 2393   5.304   2.959   1.719
  816TIP3    H2 2394   5.424   2.890   1.779
  817TIP3   OH2 2395   6.041   0.536   5.770
  817TIP3    H1 2396   6.034   0.625   5.805
  817TIP3    H2 2397   5.969   0.488   5.810
  818TIP3   OH2 2398   3.956   4.690   1.610
  818TIP3    H1 2399   3.996   4.747   1.544
  818TIP3    H2 2400   4.010   4.612   1.611
  819TIP3   OH2 2401   6.216   4.365   0.280
  819TIP3    H1 2402   6.183   4.309   0.350
  819TIP3    H2 2403   6.253   4.440   0.326
  820TIP3   OH2 2404   6.292   7.043   3.338
  820TIP3    H1 2405   6.380   7.074   3.363
  820TIP3    H2 2406   6.286   7.060   3.244
  821TIP3   OH2 2407   2.609   7.552   1.804
  821TIP3    H1 2408   2.613   7.488   1.732
  821TIP3    H2 2409   2.680   7.613   1.787
  822TIP3   OH2 2410   7.223   0.237   0.966
  822TIP3    H1 2411   7.141   0.187   0.966
  822TIP3    H2 2412   7.249   0.241   0.874
  823TIP3   OH2 2413   6.781   7.673   5.115
  823TIP3    H1 2414   6.730   7.730   5.173
  823TIP3    H2 2415   6.746   7.691   5.028
  824TIP3   OH2 2416   7.163   7.818   4.793
  824TIP3    H1 2417   7.174   7.902   4.748
  824TIP3    H2 2418   7.250   7.797   4.827
  825TIP3   OH2 2419   0.936   7.121   0.062
  825TIP3    H1 2420   0.845   7.104   0.035
  825TIP3    H2 2421   0.988   7.063   0.007
  826TIP3   OH2 2422   0.347   3.913   3.208
  826TIP3    H1 2423   0.351   3.835   3.153
  826TIP3    H2 2424   0.288   3.972   3.161
  827TIP3   OH2 2425   6.548   0.003   2.998
  827TIP3    H1 2426   6.483   0.074   2.991
  827TIP3    H2 2427   6.628   0.047   3.027
  828TIP3   OH2 2428   0.315   4.785   1.700
  828TIP3    H1 2429   0.274   4.738   1.627
  828TIP3    H2 2430   0.337   4.870   1.664
  829TIP3   OH2 2431   3.187   2.182   3.203
  829TIP3    H1 2432   3.246   2.116   3.238
  829TIP3    H2 2433   3.223   2.202   3.116
  830TIP3   OH2 2434   8.225   6.575   0.190
  830TIP3    H1 2435   8.224   6.671   0.190
  830TIP3    H2 2436   8.261   6.552   0.104
  831TIP3   OH2 2437   5.781   7.477   5.519
  831TIP3    H1 2438   5.731   7.447   5.443
  831TIP3    H2 2439   5.868   7.496   5.484
  832TIP3   OH2 2440   6.807   7.459   1.283
  832TIP3    H1 2441   6.855   7.408   1.218
  832TIP3    H2 2442   6.875   7.499   1.336
  833TIP3   OH2 2443   3.278   5.297   0.700
  833TIP3    H1 2444   3.348   5.340   0.651
  833TIP3    H2 2445   3.203   5.298   0.641
  834TIP3   OH2 2446   2.373   3.342   1.464
  834TIP3    H1 2447   2.380   3.376   1.374
  834TIP3    H2 2448   2.356   3.419   1.517
  835TIP3   OH2 2449   0.207   1.677   5.042
  835TIP3    H1 2450   0.149   1.738   4.995
  835TIP3    H2 2451   0.222   1.718   5.126
  836TIP3   OH2 2452   7.031   1.342   5.188
  836TIP3    H1 2453   7.032   1.247   5.177
  836TIP3    H2 2454   7.031   1.356   5.283
  837TIP3   OH2 2455   1.597   3.897   0.132
  837TIP3    H1 2456   1.613   3.958   0.061
  837TIP3    H2 2457   1.589   3.952   0.210
  838TIP3   OH2 2458   5.706   1.577   2.587
  838TIP3    H1 2459   5.713   1.552   2.494
  838TIP3    H2 2460   5.749   1.662   2.592
  839TIP3   OH2 2461   1.620   0.949   4.638
  839TIP3    H1 2462   1.700   0.957   4.587
  839TIP3    H2 2463   1.634   0.871   4.692
  840TIP3   OH2 2464   7.939   1.855   4.272
  840TIP3    H1 2465   8.027   1.818   4.263
  840TIP3    H2 2466   7.880   1.787   4.239
  841TIP3   OH2 2467   0.495   3.007   3.081
  841TIP3    H1 2468   0.588   3.018   3.062
  841TIP3    H2 2469   0.456   2.981   2.998
  842TIP3   OH2 2470   4.723   6.290   0.231
  842TIP3    H1 2471   4.703   6.267   0.140
  842TIP3    H2 2472   4.672   6.370   0.247
  843TIP3   OH2 2473   6.205   6.678   1.441
  843TIP3    H1 2474   6.129   6.658   1.386
  843TIP3    H2 2475   6.262   6.730   1.384
  844TIP3   OH2 2476   7.994   7.484   2.030
  844TIP3    H1 2477   7.914   7.435   2.012
  844TIP3    H2 2478   8.019   7.521   1.945
  845TIP3   OH2 2479   7.138   3.142   5.395
  845TIP3    H1 2480   7.073   3.073   5.383
  845TIP3    H2 2481   7.107   3.213   5.338
  846TIP3   OH2 2482   2.785   5.503   3.760
  846TIP3    H1 2483   2.863   5.448   3.755
  846TIP3    H2 2484   2.717   5.451   3.718
  847TIP3   OH2 2485   1.603   6.629   1.858
  847TIP3    H1 2486   1.525   6.603   1.907
  847TIP3    H2 2487   1.647   6.546   1.838
  848TIP3   OH2 2488   5.500   1.965   3.471
  848TIP3    H1 2489   5.518   1.914   3.392
  848TIP3    H2 2490   5.561   2.038   3.467
  849TIP3   OH2 2491   3.389   1.615   5.256
  849TIP3    H1 2492   3.294   1.625   5.244
  849TIP3    H2 2493   3.414   1.689   5.311
  850TIP3   OH2 2494   3.430   5.077   1.507
  850TIP3    H1 2495   3.471   5.123   1.580
  850TIP3    H2 2496   3.493   5.008   1.484
  851TIP3   OH2 2497   5.403   2.187   1.719
  851TIP3    H1 2498   5.494   2.158   1.719
  851TIP3    H2 2499   5.390   2.227   1.633
  852TIP3   OH2 2500   0.861   1.409   6.571
  852TIP3    H1 2501   0.826   1.320   6.570
  852TIP3    H2 2502   0.815   1.454   6.500
  853TIP3   OH2 2503   6.095   1.818   5.573
  853TIP3    H1 2504   6.111   1.729   5.605
  853TIP3    H2 2505   6.017   1.809   5.518
  854TIP3   OH2 2506   5.538   2.473   2.006
  854TIP3    H1 2507   5.445   2.466   2.025
  854TIP3    H2 2508   5.572   2.530   2.076
  855TIP3   OH2 2509   7.394   4.873   6.669
  855TIP3    H1 2510   7.438   4.929   6.733
  855TIP3    H2 2511   7.381   4.790   6.716
  856TIP3   OH2 2512   1.955   2.447   4.226
  856TIP3    H1 2513   1.913   2.397   4.156
  856TIP3    H2 2514   1.885   2.460   4.290
  857TIP3   OH2 2515   8.067   2.151   4.630
  857TIP3    H1 2516   8.151   2.116   4.660
  857TIP3    H2 2517   8.030   2.192   4.708
  858TIP3   OH2 2518   7.371   2.211   0.048
  858TIP3    H1 2519   7.364   2.170   0.134
  858TIP3    H2 2520   7.364   2.305   0.065
  859TIP3   OH2 2521   7.296   7.370   1.413
  859TIP3    H1 2522   7.305   7.367   1.508
  859TIP3    H2 2523   7.348   7.297   1.381
  860TIP3   OH2 2524   0.145   6.762   0.347
  860TIP3    H1 2525   0.169   6.840   0.398
  860TIP3    H2 2526   0.080   6.793   0.284
  861TIP3   OH2 2527   1.941   7.094   3.313
  861TIP3    H1 2528   1.917   7.160   3.378
  861TIP3    H2 2529   1.964   7.144   3.235
  862TIP3   OH2 2530   4.349   5.664   0.125
  862TIP3    H1 2531   4.383   5.619   0.202
  862TIP3    H2 2532   4.292   5.601   0.083
  863TIP3   OH2 2533   5.131   3.070   0.269
  863TIP3    H1 2534   5.044   3.104   0.246
  863TIP3    H2 2535   5.113   2.985   0.310
  864TIP3   OH2 2536   3.474   2.111   6.109
  864TIP3    H1 2537   3.381   2.135   6.112
  864TIP3    H2 2538   3.516   2.185   6.065
  865TIP3   OH2 2539   5.453   1.234   5.980
  865TIP3    H1 2540   5.466   1.298   5.911
  865TIP3    H2 2541   5.413   1.284   6.052
  866TIP3   OH2 2542   5.366   7.350   3.861
  866TIP3    H1 2543   5.367   7.261   3.826
  866TIP3    H2 2544   5.398   7.341   3.951
  867TIP3   OH2 2545   3.521   7.345   3.866
  867TIP3    H1 2546   3.460   7.342   3.940
  867TIP3    H2 2547   3.475   7.398   3.800
  868TIP3   OH2 2548   7.453   2.528   5.666
  868TIP3    H1 2549   7.378   2.580   5.695
  868TIP3    H2 2550   7.430   2.438   5.687
  869TIP3   OH2 2551   7.796   1.281   4.217
  869TIP3    H1 2552   7.878   1.233   4.230
  869TIP3    H2 2553   7.758   1.241   4.138
  870TIP3   OH2 2554   6.048   7.261   1.083
  870TIP3    H1 2555   6.002   7.194   1.033
  870TIP3    H2 2556   6.020   7.248   1.173
  871TIP3   OH2 2557   2.039   5.748   2.979
  871TIP3    H1 2558   1.977   5.724   2.910
  871TIP3    H2 2559   2.124   5.722   2.944
  872TIP3   OH2 2560   0.123   6.879   2.475
  872TIP3    H1 2561   0.124   6.784   2.461
  872TIP3    H2 2562   0.117   6.917   2.387
  873TIP3   OH2 2563   7.471   4.561   1.050
  873TIP3    H1 2564   7.470   4.509   1.130
  873TIP3    H2 2565   7.391   4.613   1.054
  874TIP3   OH2 2566   0.132   6.432   5.627
  874TIP3    H1 2567   0.130   6.524   5.655
  874TIP3    H2 2568   0.158   6.435   5.535
  875TIP3   OH2 2569   4.679   3.015   3.064
  875TIP3    H1 2570   4.586   3.039   3.072
  875TIP3    H2 2571   4.686   2.978   2.976
  876TIP3   OH2 2572   3.900   7.448   2.438
  876TIP3    H1 2573   3.956   7.445   2.516
  876TIP3    H2 2574   3.828   7.388   2.458
  877TIP3   OH2 2575   1.502   1.333   6.759
  877TIP3    H1 2576   1.596   1.317   6.767
  877TIP3    H2 2577   1.477   1.293   6.676
  878TIP3   OH2 2578   6.436   3.448   4.691
  878TIP3    H1 2579   6.348   3.471   4.722
  878TIP3    H2 2580   6.480   3.532   4.678
  879TIP3   OH2 2581   7.969   3.850   3.380
  879TIP3    H1 2582   8.019   3.924   3.417
  879TIP3    H2 2583   7.964   3.869   3.286
  880TIP3   OH2 2584   4.836   1.532   2.737
  880TIP3    H1 2585   4.891   1.465   2.697
  880TIP3    H2 2586   4.767   1.549   2.672
  881TIP3   OH2 2587   3.110   0.089   1.659
  881TIP3    H1 2588   3.104   0.053   1.748
  881TIP3    H2 2589   3.148   0.018   1.607
  882TIP3   OH2 2590   3.426   7.621   1.263
  882TIP3    H1 2591   3.475   7.674   1.201
  882TIP3    H2 2592   3.367   7.567   1.209
  883TIP3   OH2 2593   1.583   1.740   1.555
  883TIP3    H1 2594   1.588   1.711   1.464
  883TIP3    H2 2595   1.511   1.689   1.592
  884TIP3   OH2 2596   5.600   7.041   3.658
  884TIP3    H1 2597   5.676   7.057   3.602
  884TIP3    H2 2598   5.619   7.089   3.739
  885TIP3   OH2 2599   3.101   4.579   6.371
  885TIP3    H1 2600   3.171   4.643   6.365
  885TIP3    H2 2601   3.073   4.581   6.463
  886TIP3   OH2 2602   7.176   7.100   5.486
  886TIP3    H1 2603   7.088   7.128   5.510
  886TIP3    H2 2604   7.165   7.050   5.406
  887TIP3   OH2 2605   4.662   6.783   3.740
  887TIP3    H1 2606   4.722   6.778   3.814
  887TIP3    H2 2607   4.582   6.739   3.771
  888TIP3   OH2 2608   5.155   2.137   2.246
  888TIP3    H1 2609   5.220   2.108   2.182
  888TIP3    H2 2610   5.207   2.184   2.312
  889TIP3   OH2 2611   5.460   1.538   2.736
  889TIP3    H1 2612   5.546   1.560   2.699
  889TIP3    H2 2613   5.463   1.443   2.748
  890TIP3   OH2 2614   0.347   1.657   1.067
  890TIP3    H1 2615   0.409   1.606   1.119
  890TIP3    H2 2616   0.289   1.696   1.132
  891TIP3   OH2 2617   5.150   3.565   4.909
  891TIP3    H1 2618   5.096   3.494   4.877
  891TIP3    H2 2619   5.115   3.643   4.867
  892TIP3   OH2 2620   4.093   3.320   0.002
  892TIP3    H1 2621   4.188   3.307  -0.002
  892TIP3    H2 2622   4.080   3.384   0.071
  893TIP3   OH2 2623   1.365   3.634   1.238
  893TIP3    H1 2624   1.455   3.655   1.212
  893TIP3    H2 2625   1.354   3.678   1.323
  894TIP3   OH2 2626   5.898   6.268   4.964
  894TIP3    H1 2627   5.837   6.197   4.978
  894TIP3    H2 2628   5.857   6.322   4.896
  895TIP3   OH2 2629   8.140   0.955   1.998
  895TIP3    H1 2630   8.141   0.876   2.051
  895TIP3    H2 2631   8.232   0.978   1.986
  896TIP3   OH2 2632   0.606   1.129   5.913
  896TIP3    H1 2633   0.612   1.051   5.858
  896TIP3    H2 2634   0.596   1.096   6.002
  897TIP3   OH2 2635   6.588   0.867   1.583
  897TIP3    H1 2636   6.622   0.947   1.544
  897TIP3    H2 2637   6.556   0.816   1.509
  898TIP3   OH2 2638   3.538   3.383   1.402
  898TIP3    H1 2639   3.507   3.316   1.463
  898TIP3    H2 2640   3.583   3.447   1.457
  899TIP3   OH2 2641   3.837   2.383   2.297
  899TIP3    H1 2642   3.829   2.323   2.222
  899TIP3    H2 2643   3.769   2.448   2.284
  900TIP3   OH2 2644   1.337   2.033   0.491
  900TIP3    H1 2645   1.403   1.965   0.499
  900TIP3    H2 2646   1.375   2.096   0.429
  901TIP3   OH2 2647   5.610   5.918   4.197
  901TIP3    H1 2648   5.520   5.888   4.182
  901TIP3    H2 2649   5.600   6.002   4.242
  902TIP3   OH2 2650   0.556   5.682   1.966
  902TIP3    H1 2651   0.552   5.655   2.058
  902TIP3    H2 2652   0.465   5.704   1.944
  903TIP3   OH2 2653   1.661   5.158   4.557
  903TIP3    H1 2654   1.697   5.165   4.468
  903TIP3    H2 2655   1.674   5.066   4.580
  904TIP3   OH2 2656   0.390   3.946   4.558
  904TIP3    H1 2657   0.357   3.898   4.634
  904TIP3    H2 2658   0.434   3.880   4.505
  905TIP3   OH2 2659   0.171   6.769   3.775
  905TIP3    H1 2660   0.130   6.840   3.824
  905TIP3    H2 2661   0.245   6.742   3.829
  906TIP3   OH2 2662   4.328   3.442   4.062
  906TIP3    H1 2663   4.412   3.415   4.098
  906TIP3    H2 2664   4.266   3.432   4.134
  907TIP3   OH2 2665   8.311   2.028   0.480
  907TIP3    H1 2666   8.237   2.024   0.420
  907TIP3    H2 2667   8.347   1.940   0.481
  908TIP3   OH2 2668   1.991   2.674   4.938
  908TIP3    H1 2669   1.909   2.666   4.888
  908TIP3    H2 2670   1.971   2.635   5.023
  909TIP3   OH2 2671   4.326   4.877   0.599
  909TIP3    H1 2672   4.289   4.828   0.672
  909TIP3    H2 2673   4.340   4.811   0.531
  910TIP3   OH2 2674   3.417   2.357   2.494
  910TIP3    H1 2675   3.485   2.346   2.428
  910TIP3    H2 2676   3.458   2.407   2.564
  911TIP3   OH2 2677   2.517   6.894   2.795
  911TIP3    H1 2678   2.516   6.845   2.713
  911TIP3    H2 2679   2.514   6.986   2.769
  912TIP3   OH2 2680   5.196   0.767   5.556
  912TIP3    H1 2681   5.264   0.728   5.611
  912TIP3    H2 2682   5.123   0.706   5.562
  913TIP3   OH2 2683   0.064   7.588   4.800
  913TIP3    H1 2684   0.000   7.659   4.811
  913TIP3    H2 2685   0.149   7.631   4.807
  914TIP3   OH2 2686   7.049   7.344   4.272
  914TIP3    H1 2687   7.093   7.418   4.313
  914TIP3    H2 2688   7.018   7.291   4.345
  915TIP3   OH2 2689   1.095   0.785   1.363
  915TIP3    H1 2690   1.039   0.817   1.292
  915TIP3    H2 2691   1.097   0.690   1.350
  916TIP3   OH2 2692   6.578   5.457   2.045
  916TIP3    H1 2693   6.618   5.489   2.126
  916TIP3    H2 2694   6.543   5.535   2.003
  917TIP3   OH2 2695   0.875   0.205   4.232
  917TIP3    H1 2696   0.832   0.287   4.255
  917TIP3    H2 2697   0.870   0.200   4.137
  918TIP3   OH2 2698   7.667   2.341   1.618
  918TIP3    H1 2699   7.574   2.321   1.630
  918TIP3    H2 2700   7.688   2.402   1.688
  919TIP3   OH2 2701   8.160   2.397   2.518
  919TIP3    H1 2702   8.158   2.314   2.565
  919TIP3    H2 2703   8.112   2.458   2.574
  920TIP3   OH2 2704   2.845   3.902   6.435
  920TIP3    H1 2705   2.884   3.815   6.432
  920TIP3    H2 2706   2.806   3.914   6.348
  921TIP3   OH2 2707   3.897   0.334   1.253
  921TIP3    H1 2708   3.845   0.315   1.331
  921TIP3    H2 2709   3.867   0.420   1.224
  922TIP3   OH2 2710   5.444   5.045   3.836
  922TIP3    H1 2711   5.520   5.028   3.780
  922TIP3    H2 2712   5.479   5.093   3.911
  923TIP3   OH2 2713   5.383   5.328   2.181
  923TIP3    H1 2714   5.307   5.383   2.200
  923TIP3    H2 2715   5.435   5.330   2.261
  924TIP3   OH2 2716   4.740   4.558   3.281
  924TIP3    H1 2717   4.788   4.606   3.214
  924TIP3    H2 2718   4.770   4.468   3.272
  925TIP3   OH2 2719   5.005   6.858   0.198
  925TIP3    H1 2720   4.918   6.827   0.172
  925TIP3    H2 2721   5.009   6.948   0.167
  926TIP3   OH2 2722   3.531   1.414   5.794
  926TIP3    H1 2723   3.545   1.319   5.789
  926TIP3    H2 2724   3.587   1.443   5.865
  927TIP3   OH2 2725   4.232   7.247   2.242
  927TIP3    H1 2726   4.279   7.253   2.159
  927TIP3    H2 2727   4.143   7.224   2.217
  928TIP3   OH2 2728   5.309   0.636   3.551
  928TIP3    H1 2729   5.360   0.557   3.533
  928TIP3    H2 2730   5.259   0.650   3.471
  929TIP3   OH2 2731   5.339   5.359   3.830
  929TIP3    H1 2732   5.363   5.349   3.738
  929TIP3    H2 2733   5.259   5.412   3.828
  930TIP3   OH2 2734   3.282   6.119   3.012
  930TIP3    H1 2735   3.216   6.087   3.073
  930TIP3    H2 2736   3.310   6.203   3.049
  931TIP3   OH2 2737   6.054   3.298   5.525
  931TIP3    H1 2738   6.118   3.365   5.499
  931TIP3    H2 2739   6.102   3.241   5.585
  932TIP3   OH2 2740   0.550   4.707   1.102
  932TIP3    H1 2741   0.572   4.620   1.136
  932TIP3    H2 2742   0.456   4.702   1.082
  933TIP3   OH2 2743   0.188   4.872   0.806
  933TIP3    H1 2744   0.279   4.886   0.781
  933TIP3    H2 2745   0.137   4.909   0.735
  934TIP3   OH2 2746   1.502   2.856   2.757
  934TIP3    H1 2747   1.437   2.851   2.826
  934TIP3    H2 2748   1.555   2.777   2.768
  935TIP3   OH2 2749   2.239   3.880   4.734
  935TIP3    H1 2750   2.147   3.876   4.758
  935TIP3    H2 2751   2.256   3.973   4.719
  936TIP3   OH2 2752   3.983   0.223   1.032
  936TIP3    H1 2753   3.970   0.272   0.951
  936TIP3    H2 2754   3.956   0.282   1.101
  937TIP3   OH2 2755   1.239   4.376   6.435
  937TIP3    H1 2756   1.290   4.331   6.503
  937TIP3    H2 2757   1.153   4.335   6.440
  938TIP3   OH2 2758   0.482   6.221   5.856
  938TIP3    H1 2759   0.451   6.205   5.944
  938TIP3    H2 2760   0.574   6.245   5.867
  939TIP3   OH2 2761   3.027   5.376   0.604
  939TIP3    H1 2762   3.010   5.377   0.510
  939TIP3    H2 2763   3.069   5.460   0.622
  940TIP3   OH2 2764   6.829   5.824   1.204
  940TIP3    H1 2765   6.882   5.896   1.236
  940TIP3    H2 2766   6.878   5.790   1.129
  941TIP3   OH2 2767   4.361   0.049   3.407
  941TIP3    H1 2768   4.355   0.118   3.340
  941TIP3    H2 2769   4.449   0.058   3.443
  942TIP3   OH2 2770   5.269   2.489   5.495
  942TIP3    H1 2771   5.247   2.569   5.447
  942TIP3    H2 2772   5.270   2.420   5.427
  943TIP3   OH2 2773   0.539   2.114   4.104
  943TIP3    H1 2774   0.615   2.057   4.095
  943TIP3    H2 2775   0.539   2.139   4.197
  944TIP3   OH2 2776   6.051   1.530   2.614
  944TIP3    H1 2777   6.070   1.490   2.699
  944TIP3    H2 2778   6.113   1.603   2.608
  945TIP3   OH2 2779   0.280   6.748   0.611
  945TIP3    H1 2780   0.368   6.712   0.625
  945TIP3    H2 2781   0.263   6.734   0.517
  946TIP3   OH2 2782   5.546   1.860   3.832
  946TIP3    H1 2783   5.465   1.872   3.782
  946TIP3    H2 2784   5.606   1.817   3.772
  947TIP3   OH2 2785   5.528   0.773   3.008
  947TIP3    H1 2786   5.532   0.713   2.934
  947TIP3    H2 2787   5.437   0.770   3.037
  948TIP3   OH2 2788   0.654   7.655   2.333
  948TIP3    H1 2789   0.640   7.561   2.319
  948TIP3    H2 2790   0.736   7.659   2.382
  949TIP3   OH2 2791   8.112   3.297   5.280
  949TIP3    H1 2792   8.028   3.343   5.285
  949TIP3    H2 2793   8.090   3.210   5.246
  950TIP3   OH2 2794   6.343   3.100   2.409
  950TIP3    H1 2795   6.307   3.174   2.359
  950TIP3    H2 2796   6.333   3.025   2.350
  951TIP3   OH2 2797   4.519   4.530   3.440
  951TIP3    H1 2798   4.607   4.547   3.407
  951TIP3    H2 2799   4.476   4.479   3.371
  952TIP3   OH2 2800   4.910   5.540   3.233
  952TIP3    H1 2801   4.894   5.447   3.247
  952TIP3    H2 2802   4.998   5.544   3.195
  953TIP3   OH2 2803   4.461   5.908   4.827
  953TIP3    H1 2804   4.397   5.873   4.889
  953TIP3    H2 2805   4.409   5.956   4.763
  954TIP3   OH2 2806   2.792   3.367   1.430
  954TIP3    H1 2807   2.847   3.352   1.507
  954TIP3    H2 2808   2.829   3.444   1.388
  955TIP3   OH2 2809   1.836   4.498   6.271
  955TIP3    H1 2810   1.802   4.573   6.221
  955TIP3    H2 2811   1.927   4.491   6.243
  956TIP3   OH2 2812   1.632   6.711   4.218
  956TIP3    H1 2813   1.686   6.781   4.254
  956TIP3    H2 2814   1.684   6.631   4.230
  957TIP3   OH2 2815   3.839   4.054   6.085
  957TIP3    H1 2816   3.883   4.044   6.169
  957TIP3    H2 2817   3.746   4.057   6.107
  958TIP3   OH2 2818   1.865   4.305   2.637
  958TIP3    H1 2819   1.926   4.266   2.574
  958TIP3    H2 2820   1.894   4.274   2.722
  959TIP3   OH2 2821   8.205   1.643   4.937
  959TIP3    H1 2822   8.258   1.719   4.915
  959TIP3    H2 2823   8.118   1.678   4.953
  960TIP3   OH2 2824   7.380   3.380   4.372
  960TIP3    H1 2825   7.442   3.318   4.411
  960TIP3    H2 2826   7.315   3.326   4.328
  961TIP3   OH2 2827   7.491   3.355   3.531
  961TIP3    H1 2828   7.585   3.347   3.519
  961TIP3    H2 2829   7.461   3.406   3.455
  962TIP3   OH2 2830   7.736   2.234   4.858
  962TIP3    H1 2831   7.793   2.220   4.782
  962TIP3    H2 2832   7.697   2.148   4.875
  963TIP3   OH2 2833   6.083   7.220   4.461
  963TIP3    H1 2834   6.131   7.272   4.397
  963TIP3    H2 2835   6.079   7.132   4.423
  964TIP3   OH2 2836   3.763   6.817   1.018
  964TIP3    H1 2837   3.782   6.746   0.957
  964TIP3    H2 2838   3.736   6.890   0.962
  965TIP3   OH2 2839   7.939   4.554   0.885
  965TIP3    H1 2840   7.990   4.473   0.883
  965TIP3    H2 2841   8.000   4.620   0.916
  966TIP3   OH2 2842   7.347   5.810   5.584
  966TIP3    H1 2843   7.262   5.771   5.565
  966TIP3    H2 2844   7.328   5.882   5.643
  967TIP3   OH2 2845   7.658   0.233   5.270
  967TIP3    H1 2846   7.737   0.244   5.323
  967TIP3    H2 2847   7.587   0.261   5.327
  968TIP3   OH2 2848   3.072   4.277   2.673
  968TIP3    H1 2849   3.053   4.262   2.766
  968TIP3    H2 2850   3.154   4.230   2.657
  969TIP3   OH2 2851   7.199   7.318   5.864
  969TIP3    H1 2852   7.283   7.348   5.897
  969TIP3    H2 2853   7.137   7.340   5.933
  970TIP3   OH2 2854   5.977   6.712   5.392
  970TIP3    H1 2855   5.985   6.642   5.328
  970TIP3    H2 2856   5.886   6.741   5.386
  971TIP3   OH2 2857   1.266   5.808   3.008
  971TIP3    H1 2858   1.306   5.811   3.095
  971TIP3    H2 2859   1.289   5.722   2.974
  972TIP3   OH2 2860   5.878   5.148   2.287
  972TIP3    H1 2861   5.832   5.159   2.370
  972TIP3    H2 2862   5.901   5.055   2.284
  973TIP3   OH2 2863   4.288   3.827   4.628
  973TIP3    H1 2864   4.306   3.911   4.671
  973TIP3    H2 2865   4.304   3.844   4.536
  974TIP3   OH2 2866   3.841   2.303   0.154
  974TIP3    H1 2867   3.823   2.326   0.245
  974TIP3    H2 2868   3.778   2.355   0.103
  975TIP3   OH2 2869   3.834   1.871   2.232
  975TIP3    H1 2870   3.832   1.794   2.175
  975TIP3    H2 2871   3.822   1.835   2.321
  976TIP3   OH2 2872   5.439   7.319   4.414
  976TIP3    H1 2873   5.503   7.364   4.470
  976TIP3    H2 2874   5.423   7.235   4.458
  977TIP3   OH2 2875   1.623   3.104   0.711
  977TIP3    H1 2876   1.681   3.160   0.659
  977TIP3    H2 2877   1.650   3.015   0.690
  978TIP3   OH2 2878   5.918   4.492   1.227
  978TIP3    H1 2879   5.961   4.528   1.149
  978TIP3    H2 2880   5.959   4.538   1.300
  979TIP3   OH2 2881   7.374   4.835   0.302
  979TIP3    H1 2882   7.403   4.748   0.275
  979TIP3    H2 2883   7.297   4.852   0.248
  980TIP3   OH2 2884   3.491   4.238   3.208
  980TIP3    H1 2885   3.557   4.173   3.232
  980TIP3    H2 2886   3.421   4.226   3.273
  981TIP3   OH2 2887   1.568   2.717   2.388
  981TIP3    H1 2888   1.563   2.788   2.453
  981TIP3    H2 2889   1.544   2.758   2.305
  982TIP3   OH2 2890   0.620   6.898   1.037
  982TIP3    H1 2891   0.657   6.939   0.959
  982TIP3    H2 2892   0.635   6.804   1.024
  983TIP3   OH2 2893   6.425   1.013   5.469
  983TIP3    H1 2894   6.443   0.926   5.506
  983TIP3    H2 2895   6.386   1.062   5.542
  984TIP3   OH2 2896   2.511   7.550   6.720
  984TIP3    H1 2897   2.487   7.489   6.790
  984TIP3    H2 2898   2.498   7.637   6.758
  985TIP3   OH2 2899   0.034   4.571   5.455
  985TIP3    H1 2900   0.061   4.578   5.547
  985TIP3    H2 2901   0.075   4.646   5.413
  986TIP3   OH2 2902   6.985   2.789   6.705
  986TIP3    H1 2903   6.958   2.773   6.795
  986TIP3    H2 2904   6.994   2.884   6.698
  987TIP3   OH2 2905   6.614   7.593   1.171
  987TIP3    H1 2906   6.687   7.560   1.224
  987TIP3    H2 2907   6.549   7.621   1.235
  988TIP3   OH2 2908   5.146   3.796   5.323
  988TIP3    H1 2909   5.146   3.738   5.399
  988TIP3    H2 2910   5.084   3.756   5.262
  989TIP3   OH2 2911   7.568   1.172   2.440
  989TIP3    H1 2912   7.475   1.160   2.422
  989TIP3    H2 2913   7.610   1.095   2.403
  990TIP3   OH2 2914   3.231   5.374   5.420
  990TIP3    H1 2915   3.214   5.284   5.392
  990TIP3    H2 2916   3.162   5.425   5.379
  991TIP3   OH2 2917   0.063   4.396   6.269
  991TIP3    H1 2918   0.145   4.386   6.219
  991TIP3    H2 2919   0.013   4.460   6.219
  992TIP3   OH2 2920   8.015   5.528   0.879
  992TIP3    H1 2921   8.042   5.438   0.863
  992TIP3    H2 2922   8.082   5.563   0.938
  993TIP3   OH2 2923   3.094   6.127   5.994
  993TIP3    H1 2924   3.079   6.067   5.921
  993TIP3    H2 2925   3.077   6.074   6.072
  994TIP3   OH2 2926   7.671   7.523   3.360
  994TIP3    H1 2927   7.728   7.535   3.436
  994TIP3    H2 2928   7.689   7.598   3.303
  995TIP3   OH2 2929   2.310   7.766   5.222
  995TIP3    H1 2930   2.343   7.806   5.142
  995TIP3    H2 2931   2.261   7.689   5.192
  996TIP3   OH2 2932   1.974   2.576   6.117
  996TIP3    H1 2933   1.889   2.554   6.078
  996TIP3    H2 2934   2.037   2.547   6.052
  997TIP3   OH2 2935   3.257   5.315   5.026
  997TIP3    H1 2936   3.254   5.257   5.102
  997TIP3    H2 2937   3.350   5.324   5.007
  998TIP3   OH2 2938   7.457   5.010   0.052
  998TIP3    H1 2939   7.489   4.920   0.047
  998TIP3    H2 2940   7.473   5.038   0.142
  999TIP3   OH2 2941   2.831   0.655   3.002
  999TIP3    H1 2942   2.887   0.633   2.928
  999TIP3    H2 2943   2.811   0.570   3.042
 1000TIP3   OH2 2944   6.354   5.994   5.148
 1000TIP3    H1 2945   6.426   5.932   5.162
 1000TIP3    H2 2946   6.319   6.010   5.236
 1001TIP3   OH2 2947   0.022   6.090   3.136
 1001TIP3    H1 2948  -0.039   6.054   3.201
 1001TIP3    H2 2949   0.079   6.017   3.113
 1002TIP3   OH2 2950   7.888   5.518   3.776
 1002TIP3    H1 2951   7.905   5.444   3.835
 1002TIP3    H2 2952   7.971   5.566   3.774
 1003TIP3   OH2 2953   6.635   6.214   5.927
 1003TIP3    H1 2954   6.654   6.259   6.010
 1003TIP3    H2 2955   6.720   6.212   5.882
 1004TIP3   OH2 2956   7.493   1.854   3.026
 1004TIP3    H1 2957   7.468   1.874   2.936
 1004TIP3    H2 2958   7.477   1.760   3.035
 1005TIP3   OH2 2959   1.425   4.505   0.926
 1005TIP3    H1 2960   1.499   4.562   0.904
 1005TIP3    H2 2961   1.461   4.445   0.992
 1006TIP3   OH2 2962   4.914   4.769   6.164
 1006TIP3    H1 2963   4.877   4.682   6.147
 1006TIP3    H2 2964   4.953   4.795   6.081
 1007TIP3   OH2 2965   3.541   6.204   3.815
 1007TIP3    H1 2966   3.501   6.253   3.743
 1007TIP3    H2 2967   3.472   6.196   3.881
 1008TIP3   OH2 2968   6.828   2.500   6.406
 1008TIP3    H1 2969   6.803   2.410   6.427
 1008TIP3    H2 2970   6.778   2.554   6.467
 1009TIP3   OH2 2971   6.077   1.559   2.357
 1009TIP3    H1 2972   5.999   1.528   2.312
 1009TIP3    H2 2973   6.048   1.577   2.447
 1010TIP3   OH2 2974   0.469   5.191   2.979
 1010TIP3    H1 2975   0.486   5.098   2.997
 1010TIP3    H2 2976   0.380   5.205   3.009
 1011TIP3   OH2 2977   6.167   3.826   2.590
 1011TIP3    H1 2978   6.190   3.764   2.521
 1011TIP3    H2 2979   6.224   3.901   2.575
 1012TIP3   OH2 2980   1.145   7.653   5.666
 1012TIP3    H1 2981   1.134   7.621   5.577
 1012TIP3    H2 2982   1.062   7.633   5.710
 1013TIP3   OH2 2983   5.216   2.493   3.997
 1013TIP3    H1 2984   5.239   2.578   3.959
 1013TIP3    H2 2985   5.300   2.449   4.011
 1014TIP3   OH2 2986   4.848   2.439   5.618
 1014TIP3    H1 2987   4.856   2.353   5.658
 1014TIP3    H2 2988   4.892   2.431   5.533
 1015TIP3   OH2 2989   4.793   4.520   6.021
 1015TIP3    H1 2990   4.705   4.490   6.042
 1015TIP3    H2 2991   4.786   4.556   5.932
 1016TIP3   OH2 2992   2.765   0.218   6.464
 1016TIP3    H1 2993   2.788   0.311   6.472
 1016TIP3    H2 2994   2.786   0.196   6.374
 1017TIP3   OH2 2995   2.947   5.066   3.311
 1017TIP3    H1 2996   2.902   5.119   3.377
 1017TIP3    H2 2997   3.024   5.117   3.288
 1018TIP3   OH2 2998   3.532   3.427   6.115
 1018TIP3    H1 2999   3.542   3.453   6.023
 1018TIP3    H2 3000   3.608   3.466   6.159
 1019TIP3   OH2 3001   4.962   4.757   1.888
 1019TIP3    H1 3002   5.057   4.766   1.876
 1019TIP3    H2 3003   4.953   4.715   1.974
 1020TIP3   OH2 3004   2.708   0.559   5.251
 1020TIP3    H1 3005   2.630   0.512   5.281
 1020TIP3    H2 3006   2.744   0.599   5.330
 1021TIP3   OH2 3007   4.486   2.542   4.413
 1021TIP3    H1 3008   4.435   2.589   4.479
 1021TIP3    H2 3009   4.421   2.490   4.365
 1022TIP3   OH2 3010   1.190   2.801   4.232
 1022TIP3    H1 3011   1.113   2.779   4.285
 1022TIP3    H2 3012   1.169   2.767   4.145
 1023TIP3   OH2 3013   2.949   3.277   6.502
 1023TIP3    H1 3014   3.036   3.277   6.462
 1023TIP3    H2 3015   2.964   3.246   6.591
 1024TIP3   OH2 3016   3.146   1.433   5.450
 1024TIP3    H1 3017   3.060   1.461   5.479
 1024TIP3    H2 3018   3.202   1.442   5.526
 1025TIP3   OH2 3019   0.393   2.095   6.194
 1025TIP3    H1 3020   0.318   2.100   6.253
 1025TIP3    H2 3021   0.466   2.066   6.249
 1026TIP3   OH2 3022   3.606   6.329   5.814
 1026TIP3    H1 3023   3.609   6.358   5.905
 1026TIP3    H2 3024   3.639   6.239   5.817
 1027TIP3   OH2 3025   7.884   1.927   1.175
 1027TIP3    H1 3026   7.880   1.834   1.198
 1027TIP3    H2 3027   7.893   1.973   1.258
 1028TIP3   OH2 3028   7.221   6.011   5.763
 1028TIP3    H1 3029   7.186   6.068   5.831
 1028TIP3    H2 3030   7.165   6.027   5.687
 1029TIP3   OH2 3031   6.854   4.155   3.099
 1029TIP3    H1 3032   6.882   4.246   3.108
 1029TIP3    H2 3033   6.838   4.126   3.189
 1030TIP3   OH2 3034   2.079   0.587   0.173
 1030TIP3    H1 3035   2.009   0.539   0.218
 1030TIP3    H2 3036   2.058   0.679   0.187
 1031TIP3   OH2 3037   8.162   3.886   4.172
 1031TIP3    H1 3038   8.188   3.892   4.080
 1031TIP3    H2 3039   8.099   3.815   4.175
 1032TIP3   OH2 3040   3.137   5.148   1.108
 1032TIP3    H1 3041   3.093   5.233   1.110
 1032TIP3    H2 3042   3.209   5.156   1.171
 1033TIP3   OH2 3043   4.566   2.024   1.010
 1033TIP3    H1 3044   4.555   1.973   1.091
 1033TIP3    H2 3045   4.568   1.959   0.940
 1034TIP3   OH2 3046   2.292   4.202   4.212
 1034TIP3    H1 3047   2.381   4.193   4.178
 1034TIP3    H2 3048   2.238   4.148   4.154
 1035TIP3   OH2 3049   6.980   1.403   6.369
 1035TIP3    H1 3050   6.939   1.392   6.454
 1035TIP3    H2 3051   7.027   1.486   6.375
 1036TIP3   OH2 3052   1.649   2.628   1.387
 1036TIP3    H1 3053   1.732   2.583   1.376
 1036TIP3    H2 3054   1.653   2.703   1.328
 1037TIP3   OH2 3055   1.262   3.865   5.765
 1037TIP3    H1 3056   1.316   3.942   5.784
 1037TIP3    H2 3057   1.322   3.804   5.722
 1038TIP3   OH2 3058   5.100   0.734   4.860
 1038TIP3    H1 3059   5.192   0.713   4.843
 1038TIP3    H2 3060   5.094   0.829   4.852
 1039TIP3   OH2 3061   6.159   4.178   6.237
 1039TIP3    H1 3062   6.097   4.121   6.282
 1039TIP3    H2 3063   6.134   4.172   6.145
 1040TIP3   OH2 3064   4.533   5.701   3.420
 1040TIP3    H1 3065   4.470   5.759   3.378
 1040TIP3    H2 3066   4.481   5.646   3.479
 1041TIP3   OH2 3067   4.446   4.332   3.274
 1041TIP3    H1 3068   4.404   4.370   3.196
 1041TIP3    H2 3069   4.512   4.273   3.239
 1042TIP3   OH2 3070   0.911   4.224   0.353
 1042TIP3    H1 3071   0.837   4.185   0.401
 1042TIP3    H2 3072   0.896   4.197   0.263
 1043TIP3   OH2 3073   1.927   5.769   0.653
 1043TIP3    H1 3074   2.003   5.737   0.604
 1043TIP3    H2 3075   1.864   5.794   0.586
 1044TIP3   OH2 3076   7.813   2.661   1.460
 1044TIP3    H1 3077   7.806   2.711   1.379
 1044TIP3    H2 3078   7.860   2.581   1.435
 1045TIP3   OH2 3079   8.269   6.620   3.679
 1045TIP3    H1 3080   8.238   6.654   3.595
 1045TIP3    H2 3081   8.347   6.673   3.698
 1046TIP3   OH2 3082   5.704   2.841   0.407
 1046TIP3    H1 3083   5.691   2.908   0.474
 1046TIP3    H2 3084   5.742   2.888   0.333
 1047TIP3   OH2 3085   2.458   3.880   2.391
 1047TIP3    H1 3086   2.483   3.800   2.438
 1047TIP3    H2 3087   2.540   3.927   2.378
 1048TIP3   OH2 3088   4.462   1.164  -0.009
 1048TIP3    H1 3089   4.519   1.101  -0.054
 1048TIP3    H2 3090   4.496   1.169   0.080
 1049TIP3   OH2 3091   4.471   2.536   3.830
 1049TIP3    H1 3092   4.411   2.462   3.822
 1049TIP3    H2 3093   4.557   2.499   3.811
 1050TIP3   OH2 3094   5.597   3.408   0.451
 1050TIP3    H1 3095   5.522   3.359   0.418
 1050TIP3    H2 3096   5.657   3.414   0.376
 1051TIP3   OH2 3097   2.724   6.306   4.136
 1051TIP3    H1 3098   2.787   6.378   4.138
 1051TIP3    H2 3099   2.727   6.269   4.225
 1052TIP3   OH2 3100   1.888   6.842   3.473
 1052TIP3    H1 3101   1.975   6.884   3.474
 1052TIP3    H2 3102   1.827   6.915   3.471
 1053TIP3   OH2 3103   5.866   1.257   6.618
 1053TIP3    H1 3104   5.948   1.264   6.668
 1053TIP3    H2 3105   5.895   1.242   6.528
 1054TIP3   OH2 3106   7.201   2.282   4.846
 1054TIP3    H1 3107   7.189   2.337   4.923
 1054TIP3    H2 3108   7.120   2.232   4.839
 1055TIP3   OH2 3109   5.241   6.779   1.560
 1055TIP3    H1 3110   5.188   6.841   1.610
 1055TIP3    H2 3111   5.190   6.761   1.481
 1056TIP3   OH2 3112   3.699   6.732   3.106
 1056TIP3    H1 3113   3.769   6.671   3.084
 1056TIP3    H2 3114   3.701   6.798   3.037
 1057TIP3   OH2 3115   7.474   4.072   3.743
 1057TIP3    H1 3116   7.458   4.047   3.652
 1057TIP3    H2 3117   7.452   4.165   3.746
 1058TIP3   OH2 3118   5.430   3.033   6.128
 1058TIP3    H1 3119   5.411   3.082   6.048
 1058TIP3    H2 3120   5.522   3.052   6.147
 1059TIP3   OH2 3121   7.817   2.474   2.076
 1059TIP3    H1 3122   7.748   2.451   2.137
 1059TIP3    H2 3123   7.780   2.456   1.990
 1060TIP3   OH2 3124   0.042   3.928   5.874
 1060TIP3    H1 3125   0.029   3.927   5.969
 1060TIP3    H2 3126  -0.045   3.947   5.838
 1061TIP3   OH2 3127   0.243   5.057   6.759
 1061TIP3    H1 3128   0.314   5.070   6.696
 1061TIP3    H2 3129   0.287   5.039   6.842
 1062TIP3   OH2 3130   4.532   6.064   1.966
 1062TIP3    H1 3131   4.484   6.131   1.917
 1062TIP3    H2 3132   4.515   6.085   2.058
 1063TIP3   OH2 3133   1.584   6.809   3.630
 1063TIP3    H1 3134   1.604   6.719   3.603
 1063TIP3    H2 3135   1.653   6.831   3.692
 1064TIP3   OH2 3136   5.283   2.918   4.558
 1064TIP3    H1 3137   5.374   2.912   4.587
 1064TIP3    H2 3138   5.283   2.985   4.490
 1065TIP3   OH2 3139   3.912   4.977   3.015
 1065TIP3    H1 3140   3.855   4.955   3.089
 1065TIP3    H2 3141   3.981   5.032   3.052
 1066TIP3   OH2 3142   0.063   3.402   2.780
 1066TIP3    H1 3143   0.090   3.412   2.871
 1066TIP3    H2 3144   0.051   3.492   2.748
 1067TIP3   OH2 3145   5.738   6.151   3.137
 1067TIP3    H1 3146   5.676   6.220   3.162
 1067TIP3    H2 3147   5.786   6.132   3.218
 1068TIP3   OH2 3148   1.678   4.212   4.287
 1068TIP3    H1 3149   1.678   4.145   4.355
 1068TIP3    H2 3150   1.756   4.264   4.304
 1069TIP3   OH2 3151   1.254   2.032   4.011
 1069TIP3    H1 3152   1.348   2.017   4.024
 1069TIP3    H2 3153   1.214   1.946   4.022
 1070TIP3   OH2 3154   7.482   5.139   5.528
 1070TIP3    H1 3155   7.532   5.176   5.455
 1070TIP3    H2 3156   7.451   5.216   5.576
 1071TIP3   OH2 3157   1.954   1.104   0.143
 1071TIP3    H1 3158   2.000   1.186   0.159
 1071TIP3    H2 3159   1.957   1.094   0.048
 1072TIP3   OH2 3160   2.753   4.239   1.782
 1072TIP3    H1 3161   2.772   4.227   1.689
 1072TIP3    H2 3162   2.787   4.326   1.803
 1073TIP3   OH2 3163   2.398   0.525   0.065
 1073TIP3    H1 3164   2.438   0.556   0.146
 1073TIP3    H2 3165   2.430   0.585  -0.002
 1074TIP3   OH2 3166   6.177   1.469   0.976
 1074TIP3    H1 3167   6.230   1.528   1.030
 1074TIP3    H2 3168   6.171   1.388   1.028
 1075TIP3   OH2 3169   0.545   2.797   2.744
 1075TIP3    H1 3170   0.586   2.862   2.801
 1075TIP3    H2 3171   0.556   2.714   2.791
 1076TIP3   OH2 3172   7.222   3.535   5.120
 1076TIP3    H1 3173   7.294   3.492   5.167
 1076TIP3    H2 3174   7.251   3.536   5.028
 1077TIP3   OH2 3175   3.893   1.139   4.195
 1077TIP3    H1 3176   3.816   1.195   4.210
 1077TIP3    H2 3177   3.863   1.051   4.220
 1078TIP3   OH2 3178   6.719   6.347   2.540
 1078TIP3    H1 3179   6.706   6.315   2.451
 1078TIP3    H2 3180   6.633   6.380   2.566
 1079TIP3   OH2 3181   2.486   4.059   6.102
 1079TIP3    H1 3182   2.527   3.979   6.069
 1079TIP3    H2 3183   2.524   4.129   6.048
 1080TIP3   OH2 3184   3.639   4.053   4.192
 1080TIP3    H1 3185   3.664   3.989   4.259
 1080TIP3    H2 3186   3.718   4.066   4.139
 1081TIP3   OH2 3187   2.072   7.299   2.009
 1081TIP3    H1 3188   2.077   7.209   1.977
 1081TIP3    H2 3189   2.105   7.294   2.098
 1082TIP3   OH2 3190   3.732   6.468   2.537
 1082TIP3    H1 3191   3.773   6.483   2.622
 1082TIP3    H2 3192   3.765   6.383   2.509
 1083TIP3   OH2 3193   0.702   0.460   0.401
 1083TIP3    H1 3194   0.777   0.440   0.456
 1083TIP3    H2 3195   0.673   0.375   0.367
 1084TIP3   OH2 3196   0.570   6.061   2.271
 1084TIP3    H1 3197   0.557   6.042   2.364
 1084TIP3    H2 3198   0.486   6.097   2.242
 1085TIP3   OH2 3199   5.566   3.675   4.086
 1085TIP3    H1 3200   5.526   3.762   4.080
 1085TIP3    H2 3201   5.546   3.646   4.175
 1086TIP3   OH2 3202   1.248   6.536   2.066
 1086TIP3    H1 3203   1.334   6.574   2.083
 1086TIP3    H2 3204   1.258   6.444   2.091
 1087TIP3   OH2 3205   3.242   6.572   2.401
 1087TIP3    H1 3206   3.182   6.500   2.421
 1087TIP3    H2 3207   3.326   6.544   2.437
 1088TIP3   OH2 3208   1.339   4.621   2.049
 1088TIP3    H1 3209   1.256   4.608   2.094
 1088TIP3    H2 3210   1.324   4.588   1.961
 1089TIP3   OH2 3211   7.902   4.765   2.389
 1089TIP3    H1 3212   7.819   4.806   2.417
 1089TIP3    H2 3213   7.921   4.701   2.458
 1090TIP3   OH2 3214   7.603   7.056   6.084
 1090TIP3    H1 3215   7.674   7.041   6.145
 1090TIP3    H2 3216   7.605   7.150   6.066
 1091TIP3   OH2 3217   7.875   1.574   1.926
 1091TIP3    H1 3218   7.944   1.508   1.933
 1091TIP3    H2 3219   7.921   1.653   1.897
 1092TIP3   OH2 3220   4.035   0.654   3.650
 1092TIP3    H1 3221   4.040   0.661   3.746
 1092TIP3    H2 3222   4.124   0.671   3.620
 1093TIP3   OH2 3223   8.063   6.029   3.783
 1093TIP3    H1 3224   8.103   6.078   3.855
 1093TIP3    H2 3225   8.059   5.939   3.815
 1094TIP3   OH2 3226   6.727   2.538   0.758
 1094TIP3    H1 3227   6.778   2.615   0.783
 1094TIP3    H2 3228   6.652   2.574   0.710
 1095TIP3   OH2 3229   1.075   0.075   5.667
 1095TIP3    H1 3230   1.033  -0.008   5.645
 1095TIP3    H2 3231   1.013   0.118   5.726
 1096TIP3   OH2 3232   1.561   7.288   2.595
 1096TIP3    H1 3233   1.646   7.333   2.598
 1096TIP3    H2 3234   1.529   7.305   2.506
 1097TIP3   OH2 3235   6.843   5.589   2.829
 1097TIP3    H1 3236   6.936   5.610   2.826
 1097TIP3    H2 3237   6.840   5.493   2.818
 1098TIP3   OH2 3238   5.263   5.475   2.775
 1098TIP3    H1 3239   5.343   5.433   2.743
 1098TIP3    H2 3240   5.244   5.431   2.858
 1099TIP3   OH2 3241   3.684   5.614   6.667
 1099TIP3    H1 3242   3.775   5.621   6.636
 1099TIP3    H2 3243   3.644   5.549   6.609
 1100TIP3   OH2 3244   7.502   4.547   5.695
 1100TIP3    H1 3245   7.565   4.545   5.767
 1100TIP3    H2 3246   7.418   4.526   5.736
 1101TIP3   OH2 3247   4.019   1.694   1.789
 1101TIP3    H1 3248   4.089   1.660   1.844
 1101TIP3    H2 3249   4.064   1.745   1.721
 1102TIP3   OH2 3250   6.263   3.254   1.140
 1102TIP3    H1 3251   6.348   3.221   1.168
 1102TIP3    H2 3252   6.279   3.292   1.053
 1103TIP3   OH2 3253   5.012   1.175   4.662
 1103TIP3    H1 3254   4.948   1.227   4.710
 1103TIP3    H2 3255   4.962   1.102   4.626
 1104TIP3   OH2 3256   3.841   2.839   3.359
 1104TIP3    H1 3257   3.774   2.778   3.330
 1104TIP3    H2 3258   3.867   2.808   3.446
 1105TIP3   OH2 3259   0.698   3.233   5.314
 1105TIP3    H1 3260   0.612   3.231   5.271
 1105TIP3    H2 3261   0.699   3.154   5.368
 1106TIP3   OH2 3262   0.107   6.514   6.317
 1106TIP3    H1 3263   0.106   6.593   6.263
 1106TIP3    H2 3264   0.118   6.442   6.255
 1107TIP3   OH2 3265   1.765   2.747   0.410
 1107TIP3    H1 3266   1.741   2.773   0.321
 1107TIP3    H2 3267   1.717   2.666   0.426
 1108TIP3   OH2 3268   3.064   4.527   6.651
 1108TIP3    H1 3269   3.065   4.487   6.738
 1108TIP3    H2 3270   3.112   4.609   6.662
 1109TIP3   OH2 3271   3.862   7.210   6.598
 1109TIP3    H1 3272   3.912   7.169   6.667
 1109TIP3    H2 3273   3.897   7.174   6.517
 1110TIP3   OH2 3274   5.731   4.706   6.803
 1110TIP3    H1 3275   5.716   4.639   6.736
 1110TIP3    H2 3276   5.797   4.667   6.861
 1111TIP3   OH2 3277   3.497   3.321   3.408
 1111TIP3    H1 3278   3.405   3.299   3.426
 1111TIP3    H2 3279   3.506   3.312   3.313
 1112TIP3   OH2 3280   2.577   0.779   0.613
 1112TIP3    H1 3281   2.503   0.762   0.672
 1112TIP3    H2 3282   2.581   0.702   0.557
 1113TIP3   OH2 3283   1.120   3.407   4.520
 1113TIP3    H1 3284   1.078   3.361   4.448
 1113TIP3    H2 3285   1.049   3.457   4.562
 1114TIP3   OH2 3286   4.449   1.792   2.432
 1114TIP3    H1 3287   4.407   1.878   2.431
 1114TIP3    H2 3288   4.378   1.731   2.451
 1115TIP3   OH2 3289   5.377   5.899   4.809
 1115TIP3    H1 3290   5.307   5.959   4.835
 1115TIP3    H2 3291   5.415   5.868   4.891
 1116TIP3   OH2 3292   7.252   0.681   2.726
 1116TIP3    H1 3293   7.214   0.746   2.786
 1116TIP3    H2 3294   7.297   0.733   2.660
 1117TIP3   OH2 3295   3.449   7.312   5.960
 1117TIP3    H1 3296   3.500   7.369   5.902
 1117TIP3    H2 3297   3.503   7.303   6.038
 1118TIP3   OH2 3298   8.227   2.227   0.183
 1118TIP3    H1 3299   8.307   2.183   0.156
 1118TIP3    H2 3300   8.252   2.274   0.263
 1119TIP3   OH2 3301   2.001   0.403   3.931
 1119TIP3    H1 3302   1.965   0.374   3.847
 1119TIP3    H2 3303   1.924   0.413   3.987
 1120TIP3   OH2 3304   8.281   6.828   3.489
 1120TIP3    H1 3305   8.203   6.868   3.451
 1120TIP3    H2 3306   8.324   6.899   3.534
 1121TIP3   OH2 3307   8.293   4.588   0.570
 1121TIP3    H1 3308   8.364   4.643   0.537
 1121TIP3    H2 3309   8.216   4.615   0.521
 1122TIP3   OH2 3310   0.845   3.627   2.635
 1122TIP3    H1 3311   0.818   3.642   2.544
 1122TIP3    H2 3312   0.913   3.693   2.651
 1123TIP3   OH2 3313   5.797   5.350   2.634
 1123TIP3    H1 3314   5.830   5.372   2.547
 1123TIP3    H2 3315   5.801   5.254   2.637
 1124TIP3   OH2 3316   6.594   0.137   0.585
 1124TIP3    H1 3317   6.535   0.101   0.651
 1124TIP3    H2 3318   6.680   0.103   0.610
 1125TIP3   OH2 3319   6.237   5.250   2.690
 1125TIP3    H1 3320   6.298   5.288   2.753
 1125TIP3    H2 3321   6.171   5.317   2.675
 1126TIP3   OH2 3322   3.191   2.779   1.537
 1126TIP3    H1 3323   3.178   2.713   1.606
 1126TIP3    H2 3324   3.116   2.837   1.544
 1127TIP3   OH2 3325   4.989   7.457   1.005
 1127TIP3    H1 3326   4.974   7.474   1.098
 1127TIP3    H2 3327   5.082   7.436   0.999
 1128TIP3   OH2 3328   6.095   4.418   4.883
 1128TIP3    H1 3329   6.117   4.501   4.924
 1128TIP3    H2 3330   6.169   4.398   4.826
 1129TIP3   OH2 3331   6.385   7.809   2.420
 1129TIP3    H1 3332   6.324   7.777   2.353
 1129TIP3    H2 3333   6.383   7.743   2.488
 1130TIP3   OH2 3334   5.789   6.353   0.961
 1130TIP3    H1 3335   5.742   6.401   0.892
 1130TIP3    H2 3336   5.881   6.358   0.935
 1131TIP3   OH2 3337   5.117   7.514   4.928
 1131TIP3    H1 3338   5.108   7.555   5.014
 1131TIP3    H2 3339   5.031   7.526   4.887
 1132TIP3   OH2 3340   0.498   2.923   5.975
 1132TIP3    H1 3341   0.496   2.937   5.880
 1132TIP3    H2 3342   0.431   2.857   5.991
 1133TIP3   OH2 3343   5.162   5.808   1.916
 1133TIP3    H1 3344   5.093   5.757   1.873
 1133TIP3    H2 3345   5.211   5.743   1.967
 1134TIP3   OH2 3346   0.811   4.846   5.145
 1134TIP3    H1 3347   0.896   4.860   5.103
 1134TIP3    H2 3348   0.798   4.751   5.143
 1135TIP3   OH2 3349   7.202   3.458   3.300
 1135TIP3    H1 3350   7.196   3.402   3.378
 1135TIP3    H2 3351   7.160   3.540   3.326
 1136TIP3   OH2 3352   2.558   5.884   1.244
 1136TIP3    H1 3353   2.646   5.919   1.231
 1136TIP3    H2 3354   2.542   5.894   1.338
 1137TIP3   OH2 3355   4.723   6.528   1.193
 1137TIP3    H1 3356   4.679   6.443   1.194
 1137TIP3    H2 3357   4.653   6.591   1.172
 1138TIP3   OH2 3358   0.807   1.152   6.491
 1138TIP3    H1 3359   0.741   1.173   6.424
 1138TIP3    H2 3360   0.778   1.069   6.528
 1139TIP3   OH2 3361   1.480   1.871   4.082
 1139TIP3    H1 3362   1.445   1.799   4.029
 1139TIP3    H2 3363   1.561   1.836   4.118
 1140TIP3   OH2 3364   0.029   2.446   3.494
 1140TIP3    H1 3365   0.071   2.408   3.572
 1140TIP3    H2 3366   0.090   2.426   3.422
 1141TIP3   OH2 3367   7.170   3.276   3.505
 1141TIP3    H1 3368   7.113   3.231   3.442
 1141TIP3    H2 3369   7.129   3.258   3.590
 1142TIP3   OH2 3370   6.139   3.855   6.021
 1142TIP3    H1 3371   6.117   3.939   5.980
 1142TIP3    H2 3372   6.055   3.820   6.050
 1143TIP3   OH2 3373   3.684   5.911   6.246
 1143TIP3    H1 3374   3.731   5.902   6.329
 1143TIP3    H2 3375   3.607   5.963   6.267
 1144TIP3   OH2 3376   5.957   3.086   1.096
 1144TIP3    H1 3377   5.916   3.031   1.030
 1144TIP3    H2 3378   6.044   3.106   1.062
 1145TIP3   OH2 3379   4.410   5.964   3.804
 1145TIP3    H1 3380   4.387   5.963   3.711
 1145TIP3    H2 3381   4.337   5.919   3.847
 1146TIP3   OH2 3382   7.555   1.720   1.904
 1146TIP3    H1 3383   7.472   1.719   1.952
 1146TIP3    H2 3384   7.622   1.725   1.973
 1147TIP3   OH2 3385   5.605   0.812   4.746
 1147TIP3    H1 3386   5.632   0.895   4.785
 1147TIP3    H2 3387   5.666   0.748   4.781
 1148TIP3   OH2 3388   5.266   4.628   4.586
 1148TIP3    H1 3389   5.218   4.709   4.569
 1148TIP3    H2 3390   5.348   4.638   4.538
 1149TIP3   OH2 3391   2.323   2.561   1.052
 1149TIP3    H1 3392   2.277   2.526   0.975
 1149TIP3    H2 3393   2.413   2.574   1.022
 1150TIP3   OH2 3394   2.947   4.817   3.468
 1150TIP3    H1 3395   2.926   4.879   3.398
 1150TIP3    H2 3396   3.042   4.821   3.475
 1151TIP3   OH2 3397   0.743   7.603   4.501
 1151TIP3    H1 3398   0.756   7.528   4.444
 1151TIP3    H2 3399   0.691   7.570   4.574
 1152TIP3   OH2 3400   3.915   5.125   2.168
 1152TIP3    H1 3401   3.887   5.171   2.088
 1152TIP3    H2 3402   3.885   5.182   2.239
 1153TIP3   OH2 3403   0.043   7.779   2.427
 1153TIP3    H1 3404   0.016   7.868   2.450
 1153TIP3    H2 3405   0.066   7.739   2.511
 1154TIP3   OH2 3406   6.130   0.906   5.201
 1154TIP3    H1 3407   6.067   0.834   5.209
 1154TIP3    H2 3408   6.208   0.866   5.162
 1155TIP3   OH2 3409   0.749   0.633   5.045
 1155TIP3    H1 3410   0.680   0.699   5.048
 1155TIP3    H2 3411   0.740   0.585   5.127
 1156TIP3   OH2 3412   5.835   7.001   6.119
 1156TIP3    H1 3413   5.764   7.032   6.175
 1156TIP3    H2 3414   5.838   7.063   6.046
 1157TIP3   OH2 3415   0.521   4.377   2.054
 1157TIP3    H1 3416   0.569   4.303   2.017
 1157TIP3    H2 3417   0.431   4.366   2.023
 1158TIP3   OH2 3418   4.970   0.310   3.893
 1158TIP3    H1 3419   4.931   0.355   3.968
 1158TIP3    H2 3420   4.923   0.227   3.888
 1159TIP3   OH2 3421   2.608   0.309   2.985
 1159TIP3    H1 3422   2.552   0.359   2.925
 1159TIP3    H2 3423   2.611   0.362   3.065
 1160TIP3   OH2 3424   8.035   6.631   1.682
 1160TIP3    H1 3425   8.047   6.538   1.666
 1160TIP3    H2 3426   8.034   6.671   1.595
 1161TIP3   OH2 3427   1.806   3.556   1.337
 1161TIP3    H1 3428   1.852   3.624   1.288
 1161TIP3    H2 3429   1.719   3.551   1.296
 1162TIP3   OH2 3430   1.928   7.124   1.667
 1162TIP3    H1 3431   1.988   7.194   1.640
 1162TIP3    H2 3432   1.964   7.045   1.627
 1163TIP3   OH2 3433   5.439   6.367   6.630
 1163TIP3    H1 3434   5.431   6.351   6.536
 1163TIP3    H2 3435   5.515   6.426   6.638
 1164TIP3   OH2 3436   5.258   0.741   1.396
 1164TIP3    H1 3437   5.189   0.691   1.351
 1164TIP3    H2 3438   5.265   0.822   1.347
 1165TIP3   OH2 3439   4.000   4.603   5.748
 1165TIP3    H1 3440   4.058   4.676   5.770
 1165TIP3    H2 3441   4.057   4.540   5.703
 1166TIP3   OH2 3442   0.923   0.426   0.580
 1166TIP3    H1 3443   0.919   0.367   0.655
 1166TIP3    H2 3444   1.004   0.401   0.534
 1167TIP3   OH2 3445   7.853   6.694   1.922
 1167TIP3    H1 3446   7.786   6.658   1.864
 1167TIP3    H2 3447   7.932   6.696   1.869
 1168TIP3   OH2 3448   6.177   6.915   2.881
 1168TIP3    H1 3449   6.179   6.978   2.953
 1168TIP3    H2 3450   6.193   6.830   2.922
 1169TIP3   OH2 3451   8.197   2.431   6.032
 1169TIP3    H1 3452   8.272   2.379   6.062
 1169TIP3    H2 3453   8.123   2.399   6.083
 1170TIP3   OH2 3454   4.430   6.658   0.794
 1170TIP3    H1 3455   4.413   6.649   0.701
 1170TIP3    H2 3456   4.489   6.734   0.800
 1171TIP3   OH2 3457   0.330   2.952   5.647
 1171TIP3    H1 3458   0.341   2.874   5.702
 1171TIP3    H2 3459   0.243   2.943   5.609
 1172TIP3   OH2 3460   2.717   6.887   4.801
 1172TIP3    H1 3461   2.679   6.971   4.777
 1172TIP3    H2 3462   2.808   6.892   4.770
 1173TIP3   OH2 3463   6.105   3.620   4.105
 1173TIP3    H1 3464   6.129   3.712   4.093
 1173TIP3    H2 3465   6.010   3.617   4.094
 1174TIP3   OH2 3466   6.505   5.475   0.497
 1174TIP3    H1 3467   6.470   5.544   0.442
 1174TIP3    H2 3468   6.583   5.513   0.538
 1175TIP3   OH2 3469   7.241   5.128   0.766
 1175TIP3    H1 3470   7.216   5.044   0.805
 1175TIP3    H2 3471   7.336   5.134   0.780
 1176TIP3   OH2 3472   4.680   3.081   5.807
 1176TIP3    H1 3473   4.601   3.028   5.793
 1176TIP3    H2 3474   4.752   3.022   5.789
 1177TIP3   OH2 3475   3.383   4.762   2.683
 1177TIP3    H1 3476   3.321   4.737   2.614
 1177TIP3    H2 3477   3.457   4.800   2.637
 1178TIP3   OH2 3478   4.108   7.398   6.227
 1178TIP3    H1 3479   4.164   7.328   6.258
 1178TIP3    H2 3480   4.166   7.457   6.179
 1179TIP3   OH2 3481   3.680   1.721   1.422
 1179TIP3    H1 3482   3.760   1.764   1.451
 1179TIP3    H2 3483   3.680   1.732   1.327
 1180TIP3   OH2 3484   0.281   6.411   5.102
 1180TIP3    H1 3485   0.189   6.408   5.073
 1180TIP3    H2 3486   0.329   6.369   5.031
 1181TIP3   OH2 3487   5.423   6.886   5.707
 1181TIP3    H1 3488   5.406   6.972   5.744
 1181TIP3    H2 3489   5.380   6.825   5.767
 1182TIP3   OH2 3490   6.174   5.551   4.134
 1182TIP3    H1 3491   6.094   5.519   4.178
 1182TIP3    H2 3492   6.158   5.645   4.123
 1183TIP3   OH2 3493   0.273   0.477   1.385
 1183TIP3    H1 3494   0.294   0.569   1.369
 1183TIP3    H2 3495   0.181   0.477   1.409
 1184TIP3   OH2 3496   4.621   0.190   3.110
 1184TIP3    H1 3497   4.553   0.207   3.046
 1184TIP3    H2 3498   4.650   0.100   3.092
 1185TIP3   OH2 3499   4.905   2.869   4.049
 1185TIP3    H1 3500   4.966   2.891   3.979
 1185TIP3    H2 3501   4.961   2.838   4.121
 1186TIP3   OH2 3502   2.059   5.425   2.094
 1186TIP3    H1 3503   2.061   5.412   2.189
 1186TIP3    H2 3504   2.009   5.350   2.061
 1187TIP3   OH2 3505   2.735   6.761   2.794
 1187TIP3    H1 3506   2.664   6.822   2.813
 1187TIP3    H2 3507   2.801   6.778   2.862
 1188TIP3   OH2 3508   1.475   2.744   1.929
 1188TIP3    H1 3509   1.419   2.821   1.941
 1188TIP3    H2 3510   1.537   2.749   2.002
 1189TIP3   OH2 3511   7.405   0.371   6.210
 1189TIP3    H1 3512   7.342   0.343   6.144
 1189TIP3    H2 3513   7.371   0.455   6.241
 1190TIP3   OH2 3514   1.677   5.767   2.584
 1190TIP3    H1 3515   1.609   5.702   2.601
 1190TIP3    H2 3516   1.739   5.722   2.526
 1191TIP3   OH2 3517   7.105   6.716   2.055
 1191TIP3    H1 3518   7.041   6.645   2.060
 1191TIP3    H2 3519   7.106   6.753   2.143
 1192TIP3   OH2 3520   7.183   0.100   5.456
 1192TIP3    H1 3521   7.129   0.178   5.468
 1192TIP3    H2 3522   7.182   0.084   5.361
 1193TIP3   OH2 3523   5.480   3.454   4.783
 1193TIP3    H1 3524   5.432   3.535   4.800
 1193TIP3    H2 3525   5.471   3.439   4.689
 1194TIP3   OH2 3526  -0.045   6.055   4.695
 1194TIP3    H1 3527   0.001   6.015   4.621
 1194TIP3    H2 3528   0.025   6.079   4.756
 1195TIP3   OH2 3529   7.130   7.545   3.457
 1195TIP3    H1 3530   7.086   7.462   3.438
 1195TIP3    H2 3531   7.168   7.571   3.373
 1196TIP3   OH2 3532   1.988   1.688   1.188
 1196TIP3    H1 3533   2.049   1.743   1.236
 1196TIP3    H2 3534   2.012   1.599   1.214
 1197TIP3   OH2 3535   7.007   5.844   3.295
 1197TIP3    H1 3536   7.041   5.783   3.229
 1197TIP3    H2 3537   7.084   5.896   3.321
 1198TIP3   OH2 3538   3.568   2.665   6.578
 1198TIP3    H1 3539   3.492   2.717   6.604
 1198TIP3    H2 3540   3.633   2.682   6.647
 1199TIP3   OH2 3541   4.598   3.131   1.720
 1199TIP3    H1 3542   4.574   3.211   1.767
 1199TIP3    H2 3543   4.557   3.140   1.634
 1200TIP3   OH2 3544   1.775   4.697   5.658
 1200TIP3    H1 3545   1.683   4.721   5.661
 1200TIP3    H2 3546   1.788   4.641   5.734
 1201TIP3   OH2 3547   3.203   0.883   0.938
 1201TIP3    H1 3548   3.223   0.975   0.924
 1201TIP3    H2 3549   3.123   0.883   0.991
 1202TIP3   OH2 3550   6.341   2.335   1.017
 1202TIP3    H1 3551   6.408   2.311   0.953
 1202TIP3    H2 3552   6.319   2.252   1.060
 1203TIP3   OH2 3553   3.371   6.884   4.146
 1203TIP3    H1 3554   3.355   6.864   4.238
 1203TIP3    H2 3555   3.289   6.858   4.102
 1204TIP3   OH2 3556   3.661   7.232   4.847
 1204TIP3    H1 3557   3.723   7.159   4.854
 1204TIP3    H2 3558   3.575   7.191   4.847
 1205TIP3   OH2 3559   5.418   5.516   4.852
 1205TIP3    H1 3560   5.440   5.606   4.876
 1205TIP3    H2 3561   5.453   5.506   4.763
 1206TIP3   OH2 3562   1.008   7.410   0.532
 1206TIP3    H1 3563   0.953   7.486   0.514
 1206TIP3    H2 3564   1.094   7.433   0.496
 1207TIP3   OH2 3565   2.856   4.173   6.273
 1207TIP3    H1 3566   2.876   4.265   6.256
 1207TIP3    H2 3567   2.882   4.128   6.193
 1208TIP3   OH2 3568   0.226   6.491   3.525
 1208TIP3    H1 3569   0.248   6.399   3.541
 1208TIP3    H2 3570   0.138   6.501   3.561
 1209TIP3   OH2 3571   1.632   4.145   0.610
 1209TIP3    H1 3572   1.590   4.231   0.623
 1209TIP3    H2 3573   1.618   4.126   0.517
 1210TIP3   OH2 3574   7.576   3.840   1.330
 1210TIP3    H1 3575   7.642   3.828   1.262
 1210TIP3    H2 3576   7.514   3.903   1.293
 1211TIP3   OH2 3577   6.870   6.907   0.707
 1211TIP3    H1 3578   6.914   6.973   0.654
 1211TIP3    H2 3579   6.939   6.869   0.761
 1212TIP3   OH2 3580   4.215   0.958   1.210
 1212TIP3    H1 3581   4.169   0.945   1.127
 1212TIP3    H2 3582   4.189   0.883   1.264
 1213TIP3   OH2 3583   2.008   2.425   3.056
 1213TIP3    H1 3584   2.046   2.338   3.062
 1213TIP3    H2 3585   2.072   2.476   3.006
 1214TIP3   OH2 3586   3.151   0.814   2.346
 1214TIP3    H1 3587   3.223   0.813   2.284
 1214TIP3    H2 3588   3.170   0.743   2.407
 1215TIP3   OH2 3589   6.471   4.977   3.064
 1215TIP3    H1 3590   6.405   5.045   3.054
 1215TIP3    H2 3591   6.425   4.903   3.104
 1216TIP3   OH2 3592   2.848   2.504   0.607
 1216TIP3    H1 3593   2.780   2.506   0.675
 1216TIP3    H2 3594   2.811   2.451   0.537
 1217TIP3   OH2 3595   5.277   1.252   2.468
 1217TIP3    H1 3596   5.370   1.259   2.446
 1217TIP3    H2 3597   5.250   1.342   2.487
 1218TIP3   OH2 3598   5.179   3.309   4.601
 1218TIP3    H1 3599   5.095   3.336   4.637
 1218TIP3    H2 3600   5.220   3.390   4.572
 1219TIP3   OH2 3601   6.912   4.304   6.042
 1219TIP3    H1 3602   6.949   4.380   5.998
 1219TIP3    H2 3603   6.827   4.334   6.074
 1220TIP3   OH2 3604   6.199   5.022   4.702
 1220TIP3    H1 3605   6.218   4.993   4.613
 1220TIP3    H2 3606   6.252   4.965   4.758
 1221TIP3   OH2 3607   5.924   1.063   5.915
 1221TIP3    H1 3608   5.942   1.156   5.900
 1221TIP3    H2 3609   5.833   1.060   5.943
 1222TIP3   OH2 3610   7.007   4.611   5.375
 1222TIP3    H1 3611   7.027   4.518   5.380
 1222TIP3    H2 3612   7.093   4.653   5.366
 1223TIP3   OH2 3613   2.016   7.512   4.663
 1223TIP3    H1 3614   2.053   7.438   4.616
 1223TIP3    H2 3615   2.093   7.564   4.689
 1224TIP3   OH2 3616   1.890   2.669   5.335
 1224TIP3    H1 3617   1.811   2.647   5.384
 1224TIP3    H2 3618   1.961   2.633   5.388
 1225TIP3   OH2 3619   0.845   4.120   2.062
 1225TIP3    H1 3620   0.888   4.199   2.096
 1225TIP3    H2 3621   0.817   4.144   1.974
 1226TIP3   OH2 3622   6.369   1.979   4.417
 1226TIP3    H1 3623   6.458   1.982   4.382
 1226TIP3    H2 3624   6.381   1.972   4.512
 1227TIP3   OH2 3625   7.337   6.637   6.612
 1227TIP3    H1 3626   7.420   6.683   6.600
 1227TIP3    H2 3627   7.364   6.547   6.634
 1228TIP3   OH2 3628   4.884   3.149   2.712
 1228TIP3    H1 3629   4.903   3.227   2.764
 1228TIP3    H2 3630   4.970   3.118   2.684
 1229TIP3   OH2 3631   7.182   5.299   1.444
 1229TIP3    H1 3632   7.140   5.282   1.359
 1229TIP3    H2 3633   7.259   5.351   1.423
 1230TIP3   OH2 3634   6.822   1.365   2.291
 1230TIP3    H1 3635   6.835   1.421   2.368
 1230TIP3    H2 3636   6.798   1.426   2.221
 1231TIP3   OH2 3637   0.845   4.449   0.547
 1231TIP3    H1 3638   0.886   4.394   0.614
 1231TIP3    H2 3639   0.763   4.404   0.527
 1232TIP3   OH2 3640   4.335   5.332   6.348
 1232TIP3    H1 3641   4.272   5.372   6.287
 1232TIP3    H2 3642   4.324   5.238   6.335
 1233TIP3   OH2 3643   3.693   4.207   4.830
 1233TIP3    H1 3644   3.666   4.148   4.901
 1233TIP3    H2 3645   3.623   4.272   4.825
 1234TIP3   OH2 3646   5.537   3.303   2.081
 1234TIP3    H1 3647   5.456   3.302   2.030
 1234TIP3    H2 3648   5.596   3.359   2.031
 1235TIP3   OH2 3649   4.715   3.566   5.373
 1235TIP3    H1 3650   4.761   3.508   5.312
 1235TIP3    H2 3651   4.656   3.617   5.317
 1236TIP3   OH2 3652   0.717   3.008   1.670
 1236TIP3    H1 3653   0.799   3.011   1.621
 1236TIP3    H2 3654   0.699   3.099   1.693
 1237TIP3   OH2 3655   5.210   7.509   4.278
 1237TIP3    H1 3656   5.147   7.439   4.264
 1237TIP3    H2 3657   5.266   7.477   4.349
 1238TIP3   OH2 3658   0.033   1.705   0.327
 1238TIP3    H1 3659   0.091   1.777   0.301
 1238TIP3    H2 3660   0.084   1.626   0.309
 1239TIP3   OH2 3661   6.083   1.587   1.863
 1239TIP3    H1 3662   6.170   1.549   1.873
 1239TIP3    H2 3663   6.023   1.514   1.880
 1240TIP3   OH2 3664   2.247   4.581   3.573
 1240TIP3    H1 3665   2.290   4.667   3.570
 1240TIP3    H2 3666   2.159   4.597   3.539
 1241TIP3   OH2 3667   8.141   7.220   5.354
 1241TIP3    H1 3668   8.204   7.276   5.309
 1241TIP3    H2 3669   8.057   7.243   5.315
 1242TIP3   OH2 3670   5.945   4.692   6.085
 1242TIP3    H1 3671   5.970   4.610   6.043
 1242TIP3    H2 3672   5.925   4.751   6.012
 1243TIP3   OH2 3673   3.165   6.127   6.767
 1243TIP3    H1 3674   3.157   6.124   6.672
 1243TIP3    H2 3675   3.257   6.109   6.784
 1244TIP3   OH2 3676   5.594   2.679   2.240
 1244TIP3    H1 3677   5.528   2.631   2.290
 1244TIP3    H2 3678   5.595   2.767   2.279
 1245TIP3   OH2 3679   6.229   4.249   3.242
 1245TIP3    H1 3680   6.209   4.160   3.212
 1245TIP3    H2 3681   6.230   4.301   3.161
 1246TIP3   OH2 3682   0.428   4.196   1.081
 1246TIP3    H1 3683   0.505   4.139   1.079
 1246TIP3    H2 3684   0.424   4.235   0.993
 1247TIP3   OH2 3685   6.547   0.635   4.891
 1247TIP3    H1 3686   6.492   0.562   4.920
 1247TIP3    H2 3687   6.584   0.671   4.971
 1248TIP3   OH2 3688   7.723   7.063   5.702
 1248TIP3    H1 3689   7.797   7.020   5.660
 1248TIP3    H2 3690   7.757   7.149   5.727
 1249TIP3   OH2 3691   7.658   1.813   3.598
 1249TIP3    H1 3692   7.748   1.834   3.625
 1249TIP3    H2 3693   7.631   1.743   3.657
 1250TIP3   OH2 3694   4.306   1.116   3.469
 1250TIP3    H1 3695   4.244   1.044   3.460
 1250TIP3    H2 3696   4.251   1.194   3.476
 1251TIP3   OH2 3697   0.324   1.999   6.763
 1251TIP3    H1 3698   0.331   2.093   6.777
 1251TIP3    H2 3699   0.288   1.990   6.675
 1252TIP3   OH2 3700   4.328   2.502   5.780
 1252TIP3    H1 3701   4.267   2.554   5.832
 1252TIP3    H2 3702   4.287   2.495   5.694
 1253TIP3   OH2 3703   5.008   3.217   5.384
 1253TIP3    H1 3704   5.053   3.134   5.400
 1253TIP3    H2 3705   4.923   3.206   5.426
 1254TIP3   OH2 3706   7.910   7.798   3.735
 1254TIP3    H1 3707   7.925   7.857   3.809
 1254TIP3    H2 3708   7.914   7.711   3.774
 1255TIP3   OH2 3709   7.660   3.504   2.036
 1255TIP3    H1 3710   7.670   3.431   2.097
 1255TIP3    H2 3711   7.643   3.580   2.093
 1256TIP3   OH2 3712   1.812   1.887   5.949
 1256TIP3    H1 3713   1.877   1.938   5.998
 1256TIP3    H2 3714   1.731   1.898   5.999
 1257TIP3   OH2 3715   2.372   4.531   0.230
 1257TIP3    H1 3716   2.395   4.474   0.304
 1257TIP3    H2 3717   2.425   4.499   0.158
 1258TIP3   OH2 3718   5.631   4.570   4.282
 1258TIP3    H1 3719   5.587   4.589   4.365
 1258TIP3    H2 3720   5.565   4.587   4.215
 1259TIP3   OH2 3721   2.674   5.315   4.622
 1259TIP3    H1 3722   2.580   5.333   4.614
 1259TIP3    H2 3723   2.713   5.364   4.549
 1260TIP3   OH2 3724   1.516   6.299   2.291
 1260TIP3    H1 3725   1.542   6.298   2.384
 1260TIP3    H2 3726   1.599   6.308   2.244
 1261TIP3   OH2 3727   4.907   7.653   3.681
 1261TIP3    H1 3728   4.837   7.594   3.655
 1261TIP3    H2 3729   4.974   7.596   3.719
 1262TIP3   OH2 3730   1.768   4.265   3.999
 1262TIP3    H1 3731   1.795   4.174   3.987
 1262TIP3    H2 3732   1.750   4.272   4.093
 1263TIP3   OH2 3733   0.132   1.888   2.309
 1263TIP3    H1 3734   0.183   1.969   2.313
 1263TIP3    H2 3735   0.133   1.865   2.216
 1264TIP3   OH2 3736   0.536   0.066   0.848
 1264TIP3    H1 3737   0.516   0.145   0.898
 1264TIP3    H2 3738   0.628   0.048   0.867
 1265TIP3   OH2 3739   3.847   4.467   0.976
 1265TIP3    H1 3740   3.885   4.538   1.027
 1265TIP3    H2 3741   3.763   4.500   0.945
 1266TIP3   OH2 3742   1.787   5.577   5.206
 1266TIP3    H1 3743   1.752   5.657   5.167
 1266TIP3    H2 3744   1.713   5.539   5.254
 1267TIP3   OH2 3745   4.829   1.853   4.337
 1267TIP3    H1 3746   4.886   1.881   4.266
 1267TIP3    H2 3747   4.862   1.898   4.414
 1268TIP3   OH2 3748   1.583   0.526   6.746
 1268TIP3    H1 3749   1.606   0.487   6.661
 1268TIP3    H2 3750   1.659   0.508   6.802
 1269TIP3   OH2 3751   0.680   3.154   0.189
 1269TIP3    H1 3752   0.615   3.181   0.253
 1269TIP3    H2 3753   0.709   3.068   0.219
 1270TIP3   OH2 3754   7.873   3.866   1.624
 1270TIP3    H1 3755   7.798   3.808   1.642
 1270TIP3    H2 3756   7.856   3.899   1.535
 1271TIP3   OH2 3757   5.131   4.566   0.237
 1271TIP3    H1 3758   5.191   4.510   0.188
 1271TIP3    H2 3759   5.122   4.523   0.322
 1272TIP3   OH2 3760   0.989   7.318   3.079
 1272TIP3    H1 3761   1.078   7.352   3.088
 1272TIP3    H2 3762   0.992   7.231   3.118
 1273TIP3   OH2 3763   7.176   7.422   3.741
 1273TIP3    H1 3764   7.177   7.331   3.711
 1273TIP3    H2 3765   7.087   7.436   3.773
 1274TIP3   OH2 3766   5.097   4.488   6.078
 1274TIP3    H1 3767   5.012   4.445   6.078
 1274TIP3    H2 3768   5.111   4.514   6.170
 1275TIP3   OH2 3769   1.725   2.552   2.571
 1275TIP3    H1 3770   1.819   2.557   2.555
 1275TIP3    H2 3771   1.687   2.619   2.514
 1276TIP3   OH2 3772   5.331   3.608   2.793
 1276TIP3    H1 3773   5.268   3.580   2.860
 1276TIP3    H2 3774   5.416   3.604   2.837
 1277TIP3   OH2 3775   5.608   5.991   3.608
 1277TIP3    H1 3776   5.701   5.970   3.612
 1277TIP3    H2 3777   5.564   5.907   3.626
 1278TIP3   OH2 3778   6.388   1.821   1.529
 1278TIP3    H1 3779   6.385   1.855   1.440
 1278TIP3    H2 3780   6.344   1.888   1.582
 1279TIP3   OH2 3781   0.663   1.569   4.856
 1279TIP3    H1 3782   0.567   1.569   4.856
 1279TIP3    H2 3783   0.687   1.480   4.880
 1280TIP3   OH2 3784   5.743   6.679   0.909
 1280TIP3    H1 3785   5.706   6.703   0.994
 1280TIP3    H2 3786   5.679   6.619   0.872
 1281TIP3   OH2 3787   4.201   1.479   0.019
 1281TIP3    H1 3788   4.237   1.536   0.087
 1281TIP3    H2 3789   4.119   1.446   0.056
 1282TIP3   OH2 3790   7.031   2.645   4.452
 1282TIP3    H1 3791   7.100   2.601   4.401
 1282TIP3    H2 3792   6.989   2.575   4.501
 1283TIP3   OH2 3793   5.509   3.324   2.836
 1283TIP3    H1 3794   5.595   3.362   2.821
 1283TIP3    H2 3795   5.480   3.363   2.919
 1284TIP3   OH2 3796   7.693   0.613   2.722
 1284TIP3    H1 3797   7.614   0.584   2.678
 1284TIP3    H2 3798   7.762   0.557   2.688
 1285TIP3   OH2 3799   5.390   1.678   6.028
 1285TIP3    H1 3800   5.339   1.673   5.948
 1285TIP3    H2 3801   5.479   1.656   6.002
 1286TIP3   OH2 3802   2.221   1.418   2.990
 1286TIP3    H1 3803   2.317   1.413   2.993
 1286TIP3    H2 3804   2.197   1.466   3.069
 1287TIP3   OH2 3805   3.853   5.764   3.079
 1287TIP3    H1 3806   3.870   5.837   3.019
 1287TIP3    H2 3807   3.877   5.798   3.165
 1288TIP3   OH2 3808   6.761   1.175   4.759
 1288TIP3    H1 3809   6.788   1.094   4.802
 1288TIP3    H2 3810   6.703   1.217   4.822
 1289TIP3   OH2 3811   7.605   3.506   0.268
 1289TIP3    H1 3812   7.610   3.573   0.337
 1289TIP3    H2 3813   7.679   3.526   0.211
 1290TIP3   OH2 3814   6.801   3.226   0.462
 1290TIP3    H1 3815   6.848   3.260   0.386
 1290TIP3    H2 3816   6.778   3.305   0.512
 1291TIP3   OH2 3817   0.620   1.521   1.154
 1291TIP3    H1 3818   0.635   1.605   1.196
 1291TIP3    H2 3819   0.706   1.495   1.120
 1292TIP3   OH2 3820   4.276   6.101   2.746
 1292TIP3    H1 3821   4.239   6.013   2.758
 1292TIP3    H2 3822   4.322   6.118   2.827
 1293TIP3   OH2 3823   6.276   2.894   1.449
 1293TIP3    H1 3824   6.362   2.859   1.425
 1293TIP3    H2 3825   6.294   2.986   1.472
 1294TIP3   OH2 3826   3.631   4.337   6.366
 1294TIP3    H1 3827   3.716   4.377   6.386
 1294TIP3    H2 3828   3.625   4.263   6.426
 1295TIP3   OH2 3829   1.757   5.621   0.252
 1295TIP3    H1 3830   1.690   5.689   0.244
 1295TIP3    H2 3831   1.839   5.669   0.262
 1296TIP3   OH2 3832   3.001   1.919   1.539
 1296TIP3    H1 3833   3.018   1.993   1.597
 1296TIP3    H2 3834   2.906   1.919   1.528
 1297TIP3   OH2 3835   3.590   1.902   0.200
 1297TIP3    H1 3836   3.570   1.927   0.291
 1297TIP3    H2 3837   3.654   1.967   0.171
 1298TIP3   OH2 3838   8.232   5.449   1.101
 1298TIP3    H1 3839   8.305   5.490   1.148
 1298TIP3    H2 3840   8.263   5.361   1.080
 1299TIP3   OH2 3841   5.441   3.513   2.293
 1299TIP3    H1 3842   5.357   3.558   2.285
 1299TIP3    H2 3843   5.430   3.432   2.242
 1300TIP3   OH2 3844   6.634   1.108   2.553
 1300TIP3    H1 3845   6.667   1.046   2.488
 1300TIP3    H2 3846   6.648   1.194   2.512
 1301TIP3   OH2 3847   3.197   0.190   3.252
 1301TIP3    H1 3848   3.168   0.115   3.200
 1301TIP3    H2 3849   3.120   0.248   3.255
 1302TIP3   OH2 3850   4.036   2.338   4.408
 1302TIP3    H1 3851   4.031   2.249   4.445
 1302TIP3    H2 3852   3.945   2.362   4.392
 1303TIP3   OH2 3853   1.884   1.076   3.388
 1303TIP3    H1 3854   1.864   0.983   3.396
 1303TIP3    H2 3855   1.836   1.105   3.311
 1304TIP3   OH2 3856   0.532   7.615   5.019
 1304TIP3    H1 3857   0.494   7.632   5.105
 1304TIP3    H2 3858   0.480   7.543   4.983
 1305TIP3   OH2 3859   8.159   3.296   3.581
 1305TIP3    H1 3860   8.088   3.359   3.576
 1305TIP3    H2 3861   8.157   3.248   3.498
 1306TIP3   OH2 3862   6.340   3.055   3.851
 1306TIP3    H1 3863   6.414   2.999   3.827
 1306TIP3    H2 3864   6.358   3.139   3.808
 1307TIP3   OH2 3865   2.085   4.608   0.201
 1307TIP3    H1 3866   2.068   4.579   0.111
 1307TIP3    H2 3867   2.179   4.597   0.212
 1308TIP3   OH2 3868   5.428   5.605   5.169
 1308TIP3    H1 3869   5.489   5.592   5.242
 1308TIP3    H2 3870   5.477   5.656   5.105
 1309TIP3   OH2 3871   3.716   6.750   6.181
 1309TIP3    H1 3872   3.651   6.762   6.250
 1309TIP3    H2 3873   3.763   6.670   6.206
 1310TIP3   OH2 3874   6.308   2.859   4.643
 1310TIP3    H1 3875   6.295   2.767   4.617
 1310TIP3    H2 3876   6.300   2.858   4.738
 1311TIP3   OH2 3877   1.221   5.338   3.106
 1311TIP3    H1 3878   1.189   5.426   3.127
 1311TIP3    H2 3879   1.142   5.284   3.107
 1312TIP3   OH2 3880   7.931   6.081   1.642
 1312TIP3    H1 3881   8.023   6.070   1.666
 1312TIP3    H2 3882   7.923   6.038   1.557
 1313TIP3   OH2 3883   0.939   3.253   0.159
 1313TIP3    H1 3884   0.854   3.280   0.192
 1313TIP3    H2 3885   0.989   3.334   0.153
 1314TIP3   OH2 3886   5.771   4.186   3.921
 1314TIP3    H1 3887   5.817   4.164   3.840
 1314TIP3    H2 3888   5.757   4.102   3.964
 1315TIP3   OH2 3889   0.533   7.773   5.586
 1315TIP3    H1 3890   0.610   7.773   5.529
 1315TIP3    H2 3891   0.499   7.862   5.581
 1316TIP3   OH2 3892   3.520   2.065   0.729
 1316TIP3    H1 3893   3.431   2.044   0.755
 1316TIP3    H2 3894   3.565   2.087   0.811
 1317TIP3   OH2 3895   7.063   5.701   4.784
 1317TIP3    H1 3896   7.098   5.616   4.810
 1317TIP3    H2 3897   7.074   5.703   4.689
 1318TIP3   OH2 3898   2.914   4.979   1.171
 1318TIP3    H1 3899   2.983   5.036   1.139
 1318TIP3    H2 3900   2.944   4.951   1.258
 1319TIP3   OH2 3901   6.232   5.129   5.102
 1319TIP3    H1 3902   6.288   5.126   5.179
 1319TIP3    H2 3903   6.258   5.209   5.056
 1320TIP3   OH2 3904   7.387   3.915   0.751
 1320TIP3    H1 3905   7.344   3.847   0.803
 1320TIP3    H2 3906   7.344   3.911   0.666
 1321TIP3   OH2 3907   7.780   1.830   6.757
 1321TIP3    H1 3908   7.727   1.829   6.678
 1321TIP3    H2 3909   7.870   1.823   6.726
 1322TIP3   OH2 3910   4.615   6.900   5.563
 1322TIP3    H1 3911   4.573   6.953   5.495
 1322TIP3    H2 3912   4.543   6.871   5.619
 1323TIP3   OH2 3913   7.190   0.506   0.352
 1323TIP3    H1 3914   7.277   0.522   0.316
 1323TIP3    H2 3915   7.131   0.550   0.292
 1324TIP3   OH2 3916   6.379   4.204   4.271
 1324TIP3    H1 3917   6.460   4.174   4.313
 1324TIP3    H2 3918   6.311   4.186   4.336
 1325TIP3   OH2 3919   1.057   4.908   0.376
 1325TIP3    H1 3920   1.000   4.832   0.383
 1325TIP3    H2 3921   1.064   4.925   0.282
 1326TIP3   OH2 3922   7.751   1.826   2.128
 1326TIP3    H1 3923   7.752   1.913   2.167
 1326TIP3    H2 3924   7.833   1.820   2.079
 1327TIP3   OH2 3925   2.796   2.955   0.054
 1327TIP3    H1 3926   2.854   3.028   0.076
 1327TIP3    H2 3927   2.802   2.895   0.128
 1328TIP3   OH2 3928   7.254   4.984   1.924
 1328TIP3    H1 3929   7.223   4.983   2.014
 1328TIP3    H2 3930   7.234   5.072   1.892
 1329TIP3   OH2 3931   2.463   6.001   3.781
 1329TIP3    H1 3932   2.485   6.059   3.708
 1329TIP3    H2 3933   2.523   6.027   3.851
 1330TIP3   OH2 3934   1.841   1.675   2.503
 1330TIP3    H1 3935   1.759   1.704   2.464
 1330TIP3    H2 3936   1.824   1.585   2.531
 1331TIP3   OH2 3937   2.355   5.041   1.690
 1331TIP3    H1 3938   2.313   5.109   1.638
 1331TIP3    H2 3939   2.376   4.972   1.626
 1332TIP3   OH2 3940   6.031   7.678   1.647
 1332TIP3    H1 3941   6.116   7.691   1.689
 1332TIP3    H2 3942   5.968   7.685   1.718
 1333TIP3   OH2 3943   7.569   2.928   4.421
 1333TIP3    H1 3944   7.643   2.874   4.394
 1333TIP3    H2 3945   7.503   2.865   4.449
 1334TIP3   OH2 3946   6.211   3.856   4.010
 1334TIP3    H1 3947   6.237   3.816   3.928
 1334TIP3    H2 3948   6.249   3.944   4.008
 1335TIP3   OH2 3949   1.099   2.580   0.258
 1335TIP3    H1 3950   1.078   2.512   0.321
 1335TIP3    H2 3951   1.115   2.658   0.311
 1336TIP3   OH2 3952   4.377   3.647   3.739
 1336TIP3    H1 3953   4.325   3.722   3.711
 1336TIP3    H2 3954   4.313   3.576   3.748
 1337TIP3   OH2 3955   4.688   5.537   1.311
 1337TIP3    H1 3956   4.659   5.572   1.227
 1337TIP3    H2 3957   4.676   5.609   1.373
 1338TIP3   OH2 3958   3.040   4.772   2.133
 1338TIP3    H1 3959   3.012   4.826   2.060
 1338TIP3    H2 3960   2.972   4.705   2.141
 1339TIP3   OH2 3961   0.991   5.483   1.153
 1339TIP3    H1 3962   0.923   5.465   1.088
 1339TIP3    H2 3963   0.948   5.471   1.237
 1340TIP3   OH2 3964   3.859   3.607   5.083
 1340TIP3    H1 3965   3.864   3.551   5.161
 1340TIP3    H2 3966   3.883   3.549   5.011
 1341TIP3   OH2 3967   2.311   5.890   4.595
 1341TIP3    H1 3968   2.331   5.979   4.621
 1341TIP3    H2 3969   2.393   5.842   4.605
 1342TIP3   OH2 3970   4.083   2.468   2.418
 1342TIP3    H1 3971   4.007   2.438   2.369
 1342TIP3    H2 3972   4.059   2.554   2.450
 1343TIP3   OH2 3973   1.630   3.381   0.258
 1343TIP3    H1 3974   1.622   3.466   0.302
 1343TIP3    H2 3975   1.560   3.328   0.294
 1344TIP3   OH2 3976   6.760   2.266   5.485
 1344TIP3    H1 3977   6.783   2.269   5.392
 1344TIP3    H2 3978   6.666   2.283   5.487
 1345TIP3   OH2 3979   2.162   4.171   3.075
 1345TIP3    H1 3980   2.151   4.206   2.987
 1345TIP3    H2 3981   2.152   4.076   3.064
 1346TIP3   OH2 3982   6.418   5.279   3.824
 1346TIP3    H1 3983   6.328   5.266   3.855
 1346TIP3    H2 3984   6.451   5.352   3.876
 1347TIP3   OH2 3985   5.439   3.702   3.449
 1347TIP3    H1 3986   5.452   3.610   3.429
 1347TIP3    H2 3987   5.423   3.743   3.364
 1348TIP3   OH2 3988   2.837   4.726   6.007
 1348TIP3    H1 3989   2.889   4.770   6.075
 1348TIP3    H2 3990   2.764   4.786   5.991
 1349TIP3   OH2 3991   5.748   6.993   2.969
 1349TIP3    H1 3992   5.808   7.022   3.038
 1349TIP3    H2 3993   5.741   6.898   2.982
 1350TIP3   OH2 3994   6.517   2.562   2.201
 1350TIP3    H1 3995   6.491   2.632   2.141
 1350TIP3    H2 3996   6.494   2.596   2.288
 1351TIP3   OH2 3997   8.215   3.202   1.810
 1351TIP3    H1 3998   8.301   3.176   1.841
 1351TIP3    H2 3999   8.208   3.163   1.723
 1352TIP3   OH2 4000   4.247   0.647   1.459
 1352TIP3    H1 4001   4.237   0.572   1.518
 1352TIP3    H2 4002   4.200   0.621   1.379
 1353TIP3   OH2 4003   5.945   5.703   2.738
 1353TIP3    H1 4004   5.905   5.694   2.651
 1353TIP3    H2 4005   6.014   5.637   2.740
 1354TIP3   OH2 4006   4.369   2.793   0.045
 1354TIP3    H1 4007   4.415   2.765   0.124
 1354TIP3    H2 4008   4.433   2.781  -0.025
 1355TIP3   OH2 4009   6.544   4.314   4.109
 1355TIP3    H1 4010   6.517   4.347   4.024
 1355TIP3    H2 4011   6.465   4.315   4.162
 1356TIP3   OH2 4012   5.843   5.095   3.873
 1356TIP3    H1 4013   5.754   5.123   3.853
 1356TIP3    H2 4014   5.876   5.160   3.934
 1357TIP3   OH2 4015   5.573   0.175   4.138
 1357TIP3    H1 4016   5.481   0.189   4.119
 1357TIP3    H2 4017   5.617   0.251   4.101
 1358TIP3   OH2 4018   7.598   2.936   2.561
 1358TIP3    H1 4019   7.572   3.019   2.601
 1358TIP3    H2 4020   7.676   2.909   2.611
 1359TIP3   OH2 4021   0.804   6.399   4.199
 1359TIP3    H1 4022   0.820   6.429   4.110
 1359TIP3    H2 4023   0.776   6.478   4.246
 1360TIP3   OH2 4024   0.411   7.085   6.116
 1360TIP3    H1 4025   0.486   7.114   6.168
 1360TIP3    H2 4026   0.449   7.051   6.035
 1361TIP3   OH2 4027   5.941   5.712   5.736
 1361TIP3    H1 4028   5.922   5.803   5.716
 1361TIP3    H2 4029   6.033   5.701   5.713
 1362TIP3   OH2 4030   7.204   6.040   0.602
 1362TIP3    H1 4031   7.281   6.082   0.641
 1362TIP3    H2 4032   7.222   5.946   0.610
 1363TIP3   OH2 4033   3.545   4.541   2.723
 1363TIP3    H1 4034   3.486   4.614   2.703
 1363TIP3    H2 4035   3.488   4.472   2.755
 1364TIP3   OH2 4036   5.118   6.939   4.264
 1364TIP3    H1 4037   5.155   7.026   4.282
 1364TIP3    H2 4038   5.074   6.948   4.180
 1365TIP3   OH2 4039   0.773   2.598   3.195
 1365TIP3    H1 4040   0.724   2.679   3.210
 1365TIP3    H2 4041   0.708   2.538   3.158
 1366TIP3   OH2 4042   6.641   7.858   2.299
 1366TIP3    H1 4043   6.696   7.788   2.333
 1366TIP3    H2 4044   6.564   7.858   2.357
 1367TIP3   OH2 4045   2.266   6.069   2.643
 1367TIP3    H1 4046   2.227   6.155   2.626
 1367TIP3    H2 4047   2.305   6.077   2.730
 1368TIP3   OH2 4048   6.218   7.375   3.158
 1368TIP3    H1 4049   6.182   7.347   3.242
 1368TIP3    H2 4050   6.284   7.441   3.180
 1369TIP3   OH2 4051   1.896   3.336   3.188
 1369TIP3    H1 4052   1.899   3.352   3.094
 1369TIP3    H2 4053   1.988   3.325   3.213
 1370TIP3   OH2 4054   3.363   6.358   3.121
 1370TIP3    H1 4055   3.279   6.387   3.156
 1370TIP3    H2 4056   3.426   6.423   3.154
 1371TIP3   OH2 4057   5.420   4.797   6.453
 1371TIP3    H1 4058   5.471   4.877   6.448
 1371TIP3    H2 4059   5.421   4.773   6.546
 1372TIP3   OH2 4060   3.971   1.682   6.762
 1372TIP3    H1 4061   3.884   1.644   6.764
 1372TIP3    H2 4062   4.016   1.637   6.691
 1373TIP3   OH2 4063   5.945   7.135   0.487
 1373TIP3    H1 4064   5.999   7.148   0.565
 1373TIP3    H2 4065   5.898   7.053   0.504
 1374TIP3   OH2 4066   5.524   2.380   0.863
 1374TIP3    H1 4067   5.555   2.289   0.864
 1374TIP3    H2 4068   5.586   2.427   0.918
 1375TIP3   OH2 4069   5.693   2.091   2.932
 1375TIP3    H1 4070   5.600   2.094   2.911
 1375TIP3    H2 4071   5.729   2.171   2.896
 1376TIP3   OH2 4072   1.080   3.081   1.250
 1376TIP3    H1 4073   1.154   3.021   1.236
 1376TIP3    H2 4074   1.032   3.043   1.324
 1377TIP3   OH2 4075   0.217   7.685   6.568
 1377TIP3    H1 4076   0.280   7.724   6.508
 1377TIP3    H2 4077   0.131   7.710   6.533
 1378TIP3   OH2 4078   3.094   4.665   3.239
 1378TIP3    H1 4079   3.123   4.678   3.329
 1378TIP3    H2 4080   3.069   4.573   3.234
 1379TIP3   OH2 4081   2.938   4.122   2.501
 1379TIP3    H1 4082   2.848   4.111   2.533
 1379TIP3    H2 4083   2.972   4.197   2.548
 1380TIP3   OH2 4084   2.545   7.290   5.380
 1380TIP3    H1 4085   2.533   7.264   5.471
 1380TIP3    H2 4086   2.476   7.354   5.362
 1381TIP3   OH2 4087   0.560   5.900   3.438
 1381TIP3    H1 4088   0.486   5.884   3.496
 1381TIP3    H2 4089   0.615   5.822   3.446
 1382TIP3   OH2 4090   0.336   3.778   4.769
 1382TIP3    H1 4091   0.317   3.705   4.828
 1382TIP3    H2 4092   0.379   3.843   4.824
 1383TIP3   OH2 4093   6.784   0.295   1.612
 1383TIP3    H1 4094   6.776   0.381   1.569
 1383TIP3    H2 4095   6.727   0.302   1.688
 1384TIP3   OH2 4096   1.502   5.363   1.732
 1384TIP3    H1 4097   1.529   5.274   1.753
 1384TIP3    H2 4098   1.538   5.379   1.644
 1385TIP3   OH2 4099   7.571   0.623   2.318
 1385TIP3    H1 4100   7.572   0.582   2.405
 1385TIP3    H2 4101   7.488   0.593   2.279
 1386TIP3   OH2 4102   1.110   0.589   5.414
 1386TIP3    H1 4103   1.125   0.683   5.421
 1386TIP3    H2 4104   1.155   0.562   5.334
 1387TIP3   OH2 4105   2.172   4.392   4.731
 1387TIP3    H1 4106   2.179   4.484   4.705
 1387TIP3    H2 4107   2.242   4.379   4.795
 1388TIP3   OH2 4108   0.908   3.675   2.938
 1388TIP3    H1 4109   0.911   3.743   3.005
 1388TIP3    H2 4110   0.935   3.719   2.857
 1389TIP3   OH2 4111   4.885   1.113   5.165
 1389TIP3    H1 4112   4.857   1.197   5.200
 1389TIP3    H2 4113   4.975   1.128   5.135
 1390TIP3   OH2 4114   0.647   1.429   1.476
 1390TIP3    H1 4115   0.635   1.364   1.545
 1390TIP3    H2 4116   0.707   1.387   1.414
 1391TIP3   OH2 4117   2.532   6.463   0.556
 1391TIP3    H1 4118   2.564   6.508   0.633
 1391TIP3    H2 4119   2.476   6.527   0.512
 1392TIP3   OH2 4120   6.753   2.525   6.704
 1392TIP3    H1 4121   6.737   2.435   6.677
 1392TIP3    H2 4122   6.824   2.519   6.767
 1393TIP3   OH2 4123   2.002   7.768   5.948
 1393TIP3    H1 4124   2.026   7.857   5.922
 1393TIP3    H2 4125   2.079   7.715   5.926
 1394TIP3   OH2 4126   1.368   2.567   3.976
 1394TIP3    H1 4127   1.396   2.477   3.993
 1394TIP3    H2 4128   1.390   2.581   3.883
 1395TIP3   OH2 4129   0.735   3.950   4.270
 1395TIP3    H1 4130   0.659   3.922   4.320
 1395TIP3    H2 4131   0.720   4.044   4.255
 1396TIP3   OH2 4132   5.316   2.775   6.085
 1396TIP3    H1 4133   5.388   2.724   6.121
 1396TIP3    H2 4134   5.339   2.866   6.105
 1397TIP3   OH2 4135   7.859   5.867   5.688
 1397TIP3    H1 4136   7.952   5.883   5.699
 1397TIP3    H2 4137   7.853   5.775   5.663
 1398TIP3   OH2 4138   3.882   2.594   5.549
 1398TIP3    H1 4139   3.921   2.512   5.579
 1398TIP3    H2 4140   3.957   2.653   5.536
 1399TIP3   OH2 4141   7.900   0.003   2.540
 1399TIP3    H1 4142   7.893   0.038   2.629
 1399TIP3    H2 4143   7.862  -0.085   2.545
 1400TIP3   OH2 4144   6.664   1.020   2.113
 1400TIP3    H1 4145   6.625   0.937   2.088
 1400TIP3    H2 4146   6.605   1.086   2.077
 1401TIP3   OH2 4147   3.872   6.140   5.715
 1401TIP3    H1 4148   3.923   6.175   5.788
 1401TIP3    H2 4149   3.851   6.050   5.741
 1402TIP3   OH2 4150   6.687   7.708   4.839
 1402TIP3    H1 4151   6.717   7.774   4.777
 1402TIP3    H2 4152   6.645   7.642   4.784
 1403TIP3   OH2 4153   7.800   3.227   2.532
 1403TIP3    H1 4154   7.872   3.213   2.470
 1403TIP3    H2 4155   7.843   3.227   2.618
 1404TIP3   OH2 4156   1.198   6.050   4.761
 1404TIP3    H1 4157   1.159   5.991   4.826
 1404TIP3    H2 4158   1.125   6.102   4.729
 1405TIP3   OH2 4159   5.758   2.830   4.698
 1405TIP3    H1 4160   5.834   2.810   4.644
 1405TIP3    H2 4161   5.778   2.793   4.784
 1406TIP3   OH2 4162   1.318   7.255   1.656
 1406TIP3    H1 4163   1.232   7.250   1.613
 1406TIP3    H2 4164   1.302   7.224   1.745
 1407TIP3   OH2 4165   3.639   6.202   0.446
 1407TIP3    H1 4166   3.643   6.133   0.512
 1407TIP3    H2 4167   3.585   6.166   0.376
 1408TIP3   OH2 4168   6.239   1.976   3.723
 1408TIP3    H1 4169   6.239   1.920   3.801
 1408TIP3    H2 4170   6.211   2.062   3.754
 1409TIP3   OH2 4171   7.650   2.437   0.956
 1409TIP3    H1 4172   7.721   2.464   1.014
 1409TIP3    H2 4173   7.642   2.509   0.893
 1410TIP3   OH2 4174   3.437   3.055   4.654
 1410TIP3    H1 4175   3.380   3.065   4.731
 1410TIP3    H2 4176   3.524   3.079   4.686
 1411TIP3   OH2 4177   0.392   2.168   3.481
 1411TIP3    H1 4178   0.463   2.211   3.529
 1411TIP3    H2 4179   0.342   2.122   3.548
 1412TIP3   OH2 4180   6.799   2.021   4.977
 1412TIP3    H1 4181   6.831   1.940   4.938
 1412TIP3    H2 4182   6.862   2.041   5.046
 1413TIP3   OH2 4183   4.321   5.020   1.596
 1413TIP3    H1 4184   4.310   5.104   1.551
 1413TIP3    H2 4185   4.407   5.027   1.639
 1414TIP3   OH2 4186   8.019   2.644   3.264
 1414TIP3    H1 4187   7.924   2.631   3.257
 1414TIP3    H2 4188   8.028   2.726   3.312
 1415TIP3   OH2 4189   4.990   2.485   0.896
 1415TIP3    H1 4190   4.902   2.453   0.879
 1415TIP3    H2 4191   5.048   2.423   0.852
 1416TIP3   OH2 4192   4.191   5.280   0.241
 1416TIP3    H1 4193   4.205   5.260   0.148
 1416TIP3    H2 4194   4.157   5.369   0.241
 1417TIP3   OH2 4195   0.358   2.116   5.911
 1417TIP3    H1 4196   0.276   2.148   5.873
 1417TIP3    H2 4197   0.337   2.100   6.003
 1418TIP3   OH2 4198   7.643   4.408   1.800
 1418TIP3    H1 4199   7.616   4.487   1.846
 1418TIP3    H2 4200   7.564   4.377   1.755
 1419TIP3   OH2 4201   0.239   5.376   6.611
 1419TIP3    H1 4202   0.173   5.419   6.664
 1419TIP3    H2 4203   0.189   5.321   6.550
 1420TIP3   OH2 4204   4.088   1.612   0.427
 1420TIP3    H1 4205   4.035   1.686   0.399
 1420TIP3    H2 4206   4.050   1.585   0.511
 1421TIP3   OH2 4207   5.123   1.526   1.103
 1421TIP3    H1 4208   5.097   1.569   1.185
 1421TIP3    H2 4209   5.041   1.494   1.065
 1422TIP3   OH2 4210   1.601   4.050   6.119
 1422TIP3    H1 4211   1.686   4.023   6.152
 1422TIP3    H2 4212   1.582   4.132   6.164
 1423TIP3   OH2 4213   4.837   5.114   5.729
 1423TIP3    H1 4214   4.818   5.164   5.650
 1423TIP3    H2 4215   4.926   5.080   5.715
 1424TIP3   OH2 4216   0.477   0.905   6.568
 1424TIP3    H1 4217   0.571   0.908   6.587
 1424TIP3    H2 4218   0.440   0.974   6.623
 1425TIP3   OH2 4219   0.915   2.391   5.960
 1425TIP3    H1 4220   0.851   2.454   5.992
 1425TIP3    H2 4221   0.998   2.419   5.999
 1426TIP3   OH2 4222   6.679   0.926   4.584
 1426TIP3    H1 4223   6.685   0.831   4.577
 1426TIP3    H2 4224   6.683   0.943   4.679
 1427TIP3   OH2 4225   2.929   7.194   0.211
 1427TIP3    H1 4226   2.837   7.167   0.209
 1427TIP3    H2 4227   2.939   7.249   0.133
 1428TIP3   OH2 4228   5.311   3.699   3.855
 1428TIP3    H1 4229   5.266   3.627   3.812
 1428TIP3    H2 4230   5.287   3.692   3.947
 1429TIP3   OH2 4231   0.609   6.948   1.653
 1429TIP3    H1 4232   0.593   6.964   1.746
 1429TIP3    H2 4233   0.568   7.021   1.608
 1430TIP3   OH2 4234   0.708   5.681   4.654
 1430TIP3    H1 4235   0.744   5.767   4.630
 1430TIP3    H2 4236   0.718   5.628   4.575
 1431TIP3   OH2 4237   2.629   5.235   0.458
 1431TIP3    H1 4238   2.706   5.178   0.467
 1431TIP3    H2 4239   2.663   5.314   0.417
 1432TIP3   OH2 4240   8.114   3.149   4.068
 1432TIP3    H1 4241   8.056   3.224   4.055
 1432TIP3    H2 4242   8.136   3.120   3.980
 1433TIP3   OH2 4243   8.100   1.140   3.062
 1433TIP3    H1 4244   8.102   1.175   2.973
 1433TIP3    H2 4245   8.074   1.049   3.051
 1434TIP3   OH2 4246   1.284   1.425   4.163
 1434TIP3    H1 4247   1.282   1.478   4.243
 1434TIP3    H2 4248   1.191   1.406   4.146
 1435TIP3   OH2 4249   1.282   2.955   1.468
 1435TIP3    H1 4250   1.326   3.014   1.528
 1435TIP3    H2 4251   1.205   2.924   1.516
 1436TIP3   OH2 4252   7.945   3.471   3.518
 1436TIP3    H1 4253   7.895   3.551   3.535
 1436TIP3    H2 4254   7.881   3.409   3.485
 1437TIP3   OH2 4255   2.147   6.980   3.477
 1437TIP3    H1 4256   2.137   7.064   3.432
 1437TIP3    H2 4257   2.183   7.003   3.563
 1438TIP3   OH2 4258   3.729   2.004   3.118
 1438TIP3    H1 4259   3.735   2.015   3.213
 1438TIP3    H2 4260   3.660   2.065   3.091
 1439TIP3   OH2 4261   4.361   3.870   1.715
 1439TIP3    H1 4262   4.312   3.842   1.637
 1439TIP3    H2 4263   4.377   3.963   1.700
 1440TIP3   OH2 4264   0.849   4.113   2.522
 1440TIP3    H1 4265   0.815   4.063   2.448
 1440TIP3    H2 4266   0.916   4.170   2.484
 1441TIP3   OH2 4267   6.623   2.078   6.056
 1441TIP3    H1 4268   6.620   2.100   5.963
 1441TIP3    H2 4269   6.532   2.057   6.079
 1442TIP3   OH2 4270   6.640   1.347   3.455
 1442TIP3    H1 4271   6.639   1.299   3.537
 1442TIP3    H2 4272   6.681   1.431   3.476
 1443TIP3   OH2 4273   7.067   2.874   1.518
 1443TIP3    H1 4274   7.113   2.831   1.445
 1443TIP3    H2 4275   7.042   2.802   1.576
 1444TIP3   OH2 4276   0.354   6.517   0.267
 1444TIP3    H1 4277   0.416   6.445   0.275
 1444TIP3    H2 4278   0.324   6.513   0.177
 1445TIP3   OH2 4279   5.027   2.191   0.407
 1445TIP3    H1 4280   4.971   2.238   0.469
 1445TIP3    H2 4281   5.114   2.227   0.421
 1446TIP3   OH2 4282   0.338   4.360   1.420
 1446TIP3    H1 4283   0.249   4.350   1.455
 1446TIP3    H2 4284   0.326   4.360   1.325
 1447TIP3   OH2 4285   5.117   7.338   3.696
 1447TIP3    H1 4286   5.142   7.319   3.606
 1447TIP3    H2 4287   5.197   7.322   3.746
 1448TIP3   OH2 4288   6.251   0.036   0.203
 1448TIP3    H1 4289   6.191  -0.038   0.201
 1448TIP3    H2 4290   6.333   0.002   0.167
 1449TIP3   OH2 4291   0.439   1.457   0.845
 1449TIP3    H1 4292   0.533   1.455   0.827
 1449TIP3    H2 4293   0.433   1.456   0.941
 1450TIP3   OH2 4294   3.983   2.382   4.914
 1450TIP3    H1 4295   4.046   2.315   4.889
 1450TIP3    H2 4296   3.943   2.349   4.994
 1451TIP3   OH2 4297   4.907   0.438   1.272
 1451TIP3    H1 4298   4.839   0.391   1.222
 1451TIP3    H2 4299   4.960   0.482   1.206
 1452TIP3   OH2 4300   1.324   5.883   0.115
 1452TIP3    H1 4301   1.292   5.834   0.191
 1452TIP3    H2 4302   1.247   5.931   0.084
 1453TIP3   OH2 4303   5.526   5.319   1.379
 1453TIP3    H1 4304   5.525   5.224   1.382
 1453TIP3    H2 4305   5.435   5.345   1.392
 1454TIP3   OH2 4306   5.840   1.350   2.643
 1454TIP3    H1 4307   5.804   1.439   2.636
 1454TIP3    H2 4308   5.877   1.346   2.731
 1455TIP3   OH2 4309   3.790   4.039   2.447
 1455TIP3    H1 4310   3.756   4.128   2.449
 1455TIP3    H2 4311   3.713   3.984   2.464
 1456TIP3   OH2 4312   8.134   7.838   2.017
 1456TIP3    H1 4313   8.152   7.783   2.094
 1456TIP3    H2 4314   8.054   7.801   1.979
 1457TIP3   OH2 4315   2.177   0.596   0.877
 1457TIP3    H1 4316   2.107   0.531   0.878
 1457TIP3    H2 4317   2.214   0.593   0.966
 1458TIP3   OH2 4318   6.537   4.812   4.899
 1458TIP3    H1 4319   6.445   4.838   4.907
 1458TIP3    H2 4320   6.535   4.717   4.904
 1459TIP3   OH2 4321   1.216   0.253   4.901
 1459TIP3    H1 4322   1.190   0.265   4.993
 1459TIP3    H2 4323   1.277   0.180   4.903
 1460TIP3   OH2 4324   6.558   4.838   4.630
 1460TIP3    H1 4325   6.625   4.905   4.618
 1460TIP3    H2 4326   6.548   4.830   4.725
 1461TIP3   OH2 4327   7.755   3.691   1.840
 1461TIP3    H1 4328   7.784   3.631   1.772
 1461TIP3    H2 4329   7.707   3.636   1.902
 1462TIP3   OH2 4330   1.630   2.929   4.305
 1462TIP3    H1 4331   1.658   2.980   4.229
 1462TIP3    H2 4332   1.566   2.867   4.270
 1463TIP3   OH2 4333   0.813   3.186   0.551
 1463TIP3    H1 4334   0.824   3.255   0.485
 1463TIP3    H2 4335   0.887   3.198   0.610
 1464TIP3   OH2 4336   4.471   6.799   3.162
 1464TIP3    H1 4337   4.383   6.821   3.132
 1464TIP3    H2 4338   4.505   6.739   3.095
 1465TIP3   OH2 4339   6.886   0.698   6.318
 1465TIP3    H1 4340   6.858   0.679   6.229
 1465TIP3    H2 4341   6.805   0.714   6.366
 1466TIP3   OH2 4342   2.543   0.231   2.176
 1466TIP3    H1 4343   2.587   0.154   2.141
 1466TIP3    H2 4344   2.472   0.196   2.229
 1467TIP3   OH2 4345   5.743   7.301   0.803
 1467TIP3    H1 4346   5.763   7.393   0.819
 1467TIP3    H2 4347   5.727   7.296   0.708
 1468TIP3   OH2 4348   4.660   4.130   5.737
 1468TIP3    H1 4349   4.667   4.041   5.702
 1468TIP3    H2 4350   4.658   4.186   5.659
 1469TIP3   OH2 4351   1.863   6.208   5.999
 1469TIP3    H1 4352   1.900   6.280   6.050
 1469TIP3    H2 4353   1.939   6.157   5.970
 1470TIP3   OH2 4354   4.816   5.543   4.148
 1470TIP3    H1 4355   4.815   5.577   4.238
 1470TIP3    H2 4356   4.879   5.599   4.102
 1471TIP3   OH2 4357   7.111   5.854   3.865
 1471TIP3    H1 4358   7.054   5.808   3.928
 1471TIP3    H2 4359   7.196   5.812   3.876
 1472TIP3   OH2 4360   1.011   3.150   1.688
 1472TIP3    H1 4361   0.995   3.176   1.779
 1472TIP3    H2 4362   1.021   3.232   1.641
 1473TIP3   OH2 4363   7.973   6.208   0.388
 1473TIP3    H1 4364   7.921   6.132   0.363
 1473TIP3    H2 4365   7.912   6.282   0.383
 1474TIP3   OH2 4366   6.645   7.452   0.215
 1474TIP3    H1 4367   6.598   7.485   0.138
 1474TIP3    H2 4368   6.632   7.518   0.282
 1475TIP3   OH2 4369   1.654   2.852   5.151
 1475TIP3    H1 4370   1.562   2.874   5.135
 1475TIP3    H2 4371   1.665   2.764   5.114
 1476TIP3   OH2 4372   1.499   1.167   6.179
 1476TIP3    H1 4373   1.459   1.243   6.221
 1476TIP3    H2 4374   1.530   1.114   6.252
 1477TIP3   OH2 4375   5.888   3.122   2.249
 1477TIP3    H1 4376   5.812   3.098   2.197
 1477TIP3    H2 4377   5.942   3.174   2.189
 1478TIP3   OH2 4378   7.157   0.068   0.336
 1478TIP3    H1 4379   7.195   0.096   0.253
 1478TIP3    H2 4380   7.188   0.133   0.399
 1479TIP3   OH2 4381   6.556   1.206   1.960
 1479TIP3    H1 4382   6.645   1.183   1.934
 1479TIP3    H2 4383   6.503   1.132   1.931
 1480TIP3   OH2 4384   5.628   2.642   6.142
 1480TIP3    H1 4385   5.612   2.660   6.049
 1480TIP3    H2 4386   5.693   2.572   6.141
 1481TIP3   OH2 4387   2.688   7.304   3.123
 1481TIP3    H1 4388   2.732   7.349   3.051
 1481TIP3    H2 4389   2.600   7.340   3.124
 1482TIP3   OH2 4390   6.854   0.535   1.084
 1482TIP3    H1 4391   6.765   0.507   1.103
 1482TIP3    H2 4392   6.854   0.553   0.990
 1483TIP3   OH2 4393   3.253   5.378   2.219
 1483TIP3    H1 4394   3.195   5.434   2.167
 1483TIP3    H2 4395   3.197   5.304   2.245
 1484TIP3   OH2 4396   2.080   3.520   4.022
 1484TIP3    H1 4397   2.160   3.480   4.056
 1484TIP3    H2 4398   2.054   3.582   4.090
 1485TIP3   OH2 4399   6.040   5.278   5.610
 1485TIP3    H1 4400   5.948   5.251   5.607
 1485TIP3    H2 4401   6.055   5.303   5.701
 1486TIP3   OH2 4402   7.056   5.756   5.536
 1486TIP3    H1 4403   7.027   5.796   5.617
 1486TIP3    H2 4404   7.008   5.673   5.531
 1487TIP3   OH2 4405   3.256   6.865   5.871
 1487TIP3    H1 4406   3.232   6.779   5.907
 1487TIP3    H2 4407   3.257   6.923   5.947
 1488TIP3   OH2 4408   7.350   2.301   0.465
 1488TIP3    H1 4409   7.409   2.239   0.508
 1488TIP3    H2 4410   7.263   2.278   0.498
 1489TIP3   OH2 4411   8.018   4.187   1.199
 1489TIP3    H1 4412   8.029   4.227   1.112
 1489TIP3    H2 4413   7.938   4.227   1.233
 1490TIP3   OH2 4414   4.220   3.488   4.779
 1490TIP3    H1 4415   4.246   3.502   4.870
 1490TIP3    H2 4416   4.133   3.528   4.772
 1491TIP3   OH2 4417   2.363   0.304   2.699
 1491TIP3    H1 4418   2.304   0.350   2.640
 1491TIP3    H2 4419   2.410   0.374   2.745
 1492TIP3   OH2 4420   6.949   4.909   1.831
 1492TIP3    H1 4421   6.921   4.998   1.852
 1492TIP3    H2 4422   7.036   4.901   1.870
 1493TIP3   OH2 4423   2.627   4.515   4.749
 1493TIP3    H1 4424   2.541   4.545   4.779
 1493TIP3    H2 4425   2.666   4.592   4.708
 1494TIP3   OH2 4426   4.821   7.251   1.108
 1494TIP3    H1 4427   4.898   7.286   1.063
 1494TIP3    H2 4428   4.797   7.318   1.172
 1495TIP3   OH2 4429   2.549   0.832   6.369
 1495TIP3    H1 4430   2.503   0.819   6.286
 1495TIP3    H2 4431   2.641   0.818   6.348
 1496TIP3   OH2 4432   6.617   2.211   2.511
 1496TIP3    H1 4433   6.554   2.274   2.548
 1496TIP3    H2 4434   6.576   2.181   2.430
 1497TIP3   OH2 4435   2.447   0.136   4.535
 1497TIP3    H1 4436   2.452   0.231   4.542
 1497TIP3    H2 4437   2.359   0.113   4.564
 1498TIP3   OH2 4438   6.972   4.928   6.060
 1498TIP3    H1 4439   7.021   4.998   6.103
 1498TIP3    H2 4440   6.938   4.969   5.980
 1499TIP3   OH2 4441   2.322   5.837   5.263
 1499TIP3    H1 4442   2.362   5.895   5.199
 1499TIP3    H2 4443   2.268   5.777   5.211
 1500TIP3   OH2 4444   1.346   3.920   2.519
 1500TIP3    H1 4445   1.292   3.847   2.549
 1500TIP3    H2 4446   1.429   3.881   2.493
 1501TIP3   OH2 4447   3.806   7.384   4.657
 1501TIP3    H1 4448   3.783   7.471   4.689
 1501TIP3    H2 4449   3.741   7.326   4.697
 1502TIP3   OH2 4450   5.291   3.803   0.694
 1502TIP3    H1 4451   5.278   3.713   0.666
 1502TIP3    H2 4452   5.268   3.803   0.787
 1503TIP3   OH2 4453   3.079   3.329   0.929
 1503TIP3    H1 4454   3.013   3.332   0.998
 1503TIP3    H2 4455   3.087   3.419   0.900
 1504TIP3   OH2 4456   7.282   1.071   3.366
 1504TIP3    H1 4457   7.272   1.164   3.386
 1504TIP3    H2 4458   7.315   1.033   3.447
 1505TIP3   OH2 4459   2.684   5.025   3.684
 1505TIP3    H1 4460   2.649   5.015   3.596
 1505TIP3    H2 4461   2.779   5.016   3.673
 1506TIP3   OH2 4462   3.567   5.927   3.720
 1506TIP3    H1 4463   3.576   5.924   3.624
 1506TIP3    H2 4464   3.552   6.019   3.740
 1507TIP3   OH2 4465   3.145   1.804   0.477
 1507TIP3    H1 4466   3.173   1.895   0.490
 1507TIP3    H2 4467   3.129   1.771   0.565
 1508TIP3   OH2 4468   0.938   6.576   3.518
 1508TIP3    H1 4469   0.964   6.525   3.595
 1508TIP3    H2 4470   0.893   6.512   3.462
 1509TIP3   OH2 4471   2.651   7.094   6.760
 1509TIP3    H1 4472   2.596   7.158   6.716
 1509TIP3    H2 4473   2.678   7.138   6.841
 1510TIP3   OH2 4474   1.188   6.143   1.953
 1510TIP3    H1 4475   1.239   6.192   2.018
 1510TIP3    H2 4476   1.129   6.088   2.006
 1511TIP3   OH2 4477   3.464   2.114   2.803
 1511TIP3    H1 4478   3.545   2.072   2.775
 1511TIP3    H2 4479   3.472   2.205   2.773
 1512TIP3   OH2 4480   0.369   1.108   2.051
 1512TIP3    H1 4481   0.361   1.201   2.068
 1512TIP3    H2 4482   0.407   1.072   2.131
 1513TIP3   OH2 4483   5.656   0.094   6.087
 1513TIP3    H1 4484   5.610   0.170   6.051
 1513TIP3    H2 4485   5.728   0.131   6.138
 1514TIP3   OH2 4486   0.921   5.803   3.540
 1514TIP3    H1 4487   0.893   5.803   3.449
 1514TIP3    H2 4488   1.016   5.812   3.536
 1515TIP3   OH2 4489   6.609   4.304   3.607
 1515TIP3    H1 4490   6.618   4.237   3.675
 1515TIP3    H2 4491   6.666   4.376   3.637
 1516TIP3   OH2 4492   6.824   3.471   4.504
 1516TIP3    H1 4493   6.816   3.551   4.452
 1516TIP3    H2 4494   6.829   3.401   4.438
 1517TIP3   OH2 4495   3.085   6.288   1.765
 1517TIP3    H1 4496   3.138   6.362   1.796
 1517TIP3    H2 4497   3.070   6.235   1.844
 1518TIP3   OH2 4498   5.768   7.414   4.188
 1518TIP3    H1 4499   5.773   7.484   4.253
 1518TIP3    H2 4500   5.852   7.416   4.143
 1519TIP3   OH2 4501   0.793   4.765   2.257
 1519TIP3    H1 4502   0.722   4.738   2.198
 1519TIP3    H2 4503   0.769   4.727   2.342
 1520TIP3   OH2 4504   0.571   2.814   0.580
 1520TIP3    H1 4505   0.560   2.895   0.630
 1520TIP3    H2 4506   0.660   2.785   0.600
 1521TIP3   OH2 4507   2.393   4.337   3.545
 1521TIP3    H1 4508   2.371   4.430   3.538
 1521TIP3    H2 4509   2.328   4.293   3.489
 1522TIP3   OH2 4510   2.081   4.275   1.732
 1522TIP3    H1 4511   2.039   4.319   1.658
 1522TIP3    H2 4512   2.173   4.299   1.725
 1523TIP3   OH2 4513   1.190   1.820   3.280
 1523TIP3    H1 4514   1.195   1.835   3.185
 1523TIP3    H2 4515   1.269   1.861   3.315
 1524TIP3   OH2 4516   1.444   4.460   4.165
 1524TIP3    H1 4517   1.432   4.370   4.133
 1524TIP3    H2 4518   1.362   4.481   4.209
 1525TIP3   OH2 4519   2.298   3.953   2.191
 1525TIP3    H1 4520   2.354   3.935   2.266
 1525TIP3    H2 4521   2.239   3.877   2.187
 1526TIP3   OH2 4522   8.205   5.661   6.051
 1526TIP3    H1 4523   8.261   5.704   5.987
 1526TIP3    H2 4524   8.176   5.580   6.009
 1527TIP3   OH2 4525   3.752   4.519   4.366
 1527TIP3    H1 4526   3.693   4.485   4.299
 1527TIP3    H2 4527   3.825   4.458   4.367
 1528TIP3   OH2 4528   5.430   0.620   0.504
 1528TIP3    H1 4529   5.448   0.642   0.596
 1528TIP3    H2 4530   5.444   0.702   0.457
 1529TIP3   OH2 4531   8.175   3.963   2.951
 1529TIP3    H1 4532   8.218   4.046   2.973
 1529TIP3    H2 4533   8.179   3.959   2.855
 1530TIP3   OH2 4534   3.394   1.466   2.479
 1530TIP3    H1 4535   3.389   1.542   2.421
 1530TIP3    H2 4536   3.478   1.425   2.458
 1531TIP3   OH2 4537   3.852   6.925   2.123
 1531TIP3    H1 4538   3.814   6.852   2.171
 1531TIP3    H2 4539   3.947   6.914   2.133
 1532TIP3   OH2 4540   4.405   1.232   0.570
 1532TIP3    H1 4541   4.383   1.158   0.627
 1532TIP3    H2 4542   4.480   1.201   0.519
 1533TIP3   OH2 4543   4.537   7.303   3.335
 1533TIP3    H1 4544   4.446   7.327   3.354
 1533TIP3    H2 4545   4.544   7.212   3.362
 1534TIP3   OH2 4546   2.351   0.566   3.707
 1534TIP3    H1 4547   2.270   0.612   3.683
 1534TIP3    H2 4548   2.421   0.628   3.688
 1535TIP3   OH2 4549   2.515   5.670   6.434
 1535TIP3    H1 4550   2.551   5.586   6.407
 1535TIP3    H2 4551   2.568   5.695   6.510
 1536TIP3   OH2 4552   8.214   6.599   3.933
 1536TIP3    H1 4553   8.245   6.517   3.972
 1536TIP3    H2 4554   8.244   6.595   3.842
 1537TIP3   OH2 4555   3.289   4.128   0.253
 1537TIP3    H1 4556   3.285   4.077   0.333
 1537TIP3    H2 4557   3.201   4.165   0.243
 1538TIP3   OH2 4558   3.778   4.765   6.634
 1538TIP3    H1 4559   3.804   4.754   6.543
 1538TIP3    H2 4560   3.756   4.677   6.664
 1539TIP3   OH2 4561   2.738   5.161   5.689
 1539TIP3    H1 4562   2.647   5.187   5.673
 1539TIP3    H2 4563   2.749   5.079   5.641
 1540TIP3   OH2 4564   5.811   2.146   2.317
 1540TIP3    H1 4565   5.880   2.113   2.374
 1540TIP3    H2 4566   5.806   2.239   2.338
 1541TIP3   OH2 4567   5.160   3.028   5.919
 1541TIP3    H1 4568   5.240   2.983   5.891
 1541TIP3    H2 4569   5.187   3.081   5.994
 1542TIP3   OH2 4570   6.914   5.606   1.355
 1542TIP3    H1 4571   6.922   5.674   1.288
 1542TIP3    H2 4572   6.843   5.638   1.412
 1543TIP3   OH2 4573   1.219   1.537   3.044
 1543TIP3    H1 4574   1.313   1.525   3.035
 1543TIP3    H2 4575   1.206   1.632   3.039
 1544TIP3   OH2 4576   6.608   4.237   5.411
 1544TIP3    H1 4577   6.518   4.226   5.381
 1544TIP3    H2 4578   6.639   4.316   5.368
 1545TIP3   OH2 4579   0.101   3.836   2.073
 1545TIP3    H1 4580   0.115   3.809   2.164
 1545TIP3    H2 4581   0.176   3.799   2.025
 1546TIP3   OH2 4582   7.850   3.999   4.727
 1546TIP3    H1 4583   7.876   4.045   4.647
 1546TIP3    H2 4584   7.840   4.069   4.792
 1547TIP3   OH2 4585   2.423   5.434   6.637
 1547TIP3    H1 4586   2.424   5.481   6.720
 1547TIP3    H2 4587   2.333   5.441   6.606
 1548TIP3   OH2 4588   2.483   4.609   4.095
 1548TIP3    H1 4589   2.465   4.516   4.082
 1548TIP3    H2 4590   2.563   4.625   4.045
 1549TIP3   OH2 4591   6.950   0.001   4.876
 1549TIP3    H1 4592   6.955  -0.028   4.785
 1549TIP3    H2 4593   6.861   0.034   4.886
 1550TIP3   OH2 4594   1.190   0.074   3.239
 1550TIP3    H1 4595   1.269   0.030   3.269
 1550TIP3    H2 4596   1.221   0.144   3.181
 1551TIP3   OH2 4597   7.438   1.010   6.685
 1551TIP3    H1 4598   7.475   0.924   6.666
 1551TIP3    H2 4599   7.472   1.066   6.615
 1552TIP3   OH2 4600   0.675   6.880   6.111
 1552TIP3    H1 4601   0.757   6.921   6.083
 1552TIP3    H2 4602   0.622   6.877   6.031
 1553TIP3   OH2 4603   0.939   1.902   1.738
 1553TIP3    H1 4604   1.017   1.918   1.792
 1553TIP3    H2 4605   0.972   1.889   1.650
 1554TIP3   OH2 4606   6.029   6.300   5.211
 1554TIP3    H1 4607   5.967   6.275   5.142
 1554TIP3    H2 4608   6.107   6.327   5.164
 1555TIP3   OH2 4609   2.453   2.008   0.224
 1555TIP3    H1 4610   2.406   1.926   0.237
 1555TIP3    H2 4611   2.545   1.983   0.226
 1556TIP3   OH2 4612   7.618   6.734   3.720
 1556TIP3    H1 4613   7.711   6.754   3.726
 1556TIP3    H2 4614   7.611   6.643   3.749
 1557TIP3   OH2 4615   6.219   6.375   6.331
 1557TIP3    H1 4616   6.263   6.445   6.283
 1557TIP3    H2 4617   6.128   6.378   6.300
 1558TIP3   OH2 4618   0.439   0.810   4.213
 1558TIP3    H1 4619   0.419   0.888   4.265
 1558TIP3    H2 4620   0.531   0.791   4.231
 1559TIP3   OH2 4621   5.909   2.362   3.714
 1559TIP3    H1 4622   5.837   2.375   3.776
 1559TIP3    H2 4623   5.927   2.449   3.679
 1560TIP3   OH2 4624   0.147   5.113   5.008
 1560TIP3    H1 4625   0.123   5.202   5.031
 1560TIP3    H2 4626   0.143   5.110   4.913
 1561TIP3   OH2 4627   0.614   4.779   1.349
 1561TIP3    H1 4628   0.620   4.777   1.254
 1561TIP3    H2 4629   0.569   4.697   1.372
 1562TIP3   OH2 4630   1.493   0.662   2.996
 1562TIP3    H1 4631   1.431   0.651   2.923
 1562TIP3    H2 4632   1.437   0.666   3.074
 1563TIP3   OH2 4633   1.858   4.523   2.150
 1563TIP3    H1 4634   1.936   4.485   2.191
 1563TIP3    H2 4635   1.784   4.484   2.197
 1564TIP3   OH2 4636   4.349   4.638   2.748
 1564TIP3    H1 4637   4.376   4.567   2.689
 1564TIP3    H2 4638   4.409   4.632   2.822
 1565TIP3   OH2 4639   6.930   3.970   4.677
 1565TIP3    H1 4640   6.931   3.949   4.584
 1565TIP3    H2 4641   7.007   3.925   4.713
 1566TIP3   OH2 4642   6.165   7.619   1.281
 1566TIP3    H1 4643   6.096   7.684   1.274
 1566TIP3    H2 4644   6.186   7.595   1.191
 1567TIP3   OH2 4645   4.122   2.187   1.788
 1567TIP3    H1 4646   4.077   2.270   1.776
 1567TIP3    H2 4647   4.052   2.123   1.800
 1568TIP3   OH2 4648   2.831   4.781   2.436
 1568TIP3    H1 4649   2.924   4.796   2.451
 1568TIP3    H2 4650   2.801   4.860   2.390
 1569TIP3   OH2 4651   0.616   2.580   6.415
 1569TIP3    H1 4652   0.555   2.586   6.341
 1569TIP3    H2 4653   0.694   2.627   6.385
 1570TIP3   OH2 4654   1.865   4.811   3.079
 1570TIP3    H1 4655   1.960   4.804   3.088
 1570TIP3    H2 4656   1.848   4.785   2.988
 1571TIP3   OH2 4657   2.856   3.958   3.296
 1571TIP3    H1 4658   2.763   3.950   3.275
 1571TIP3    H2 4659   2.859   4.027   3.362
 1572TIP3   OH2 4660   1.194   3.706   5.264
 1572TIP3    H1 4661   1.253   3.753   5.204
 1572TIP3    H2 4662   1.107   3.739   5.241
 1573TIP3   OH2 4663   6.516   3.471   1.792
 1573TIP3    H1 4664   6.607   3.456   1.768
 1573TIP3    H2 4665   6.505   3.566   1.786
 1574TIP3   OH2 4666   6.873   1.265   4.515
 1574TIP3    H1 4667   6.838   1.206   4.449
 1574TIP3    H2 4668   6.868   1.215   4.597
 1575TIP3   OH2 4669   6.064   4.341   2.038
 1575TIP3    H1 4670   5.984   4.381   2.073
 1575TIP3    H2 4671   6.032   4.280   1.971
 1576TIP3   OH2 4672   5.499   2.483   5.271
 1576TIP3    H1 4673   5.497   2.406   5.214
 1576TIP3    H2 4674   5.499   2.447   5.360
 1577TIP3   OH2 4675   6.282   1.159   2.670
 1577TIP3    H1 4676   6.278   1.143   2.764
 1577TIP3    H2 4677   6.200   1.205   2.650
 1578TIP3   OH2 4678   7.649   5.057   2.090
 1578TIP3    H1 4679   7.625   5.021   2.005
 1578TIP3    H2 4680   7.595   5.008   2.153
 1579TIP3   OH2 4681   2.682   3.705   3.922
 1579TIP3    H1 4682   2.742   3.693   3.849
 1579TIP3    H2 4683   2.692   3.627   3.976
 1580TIP3   OH2 4684   2.143   6.319   2.589
 1580TIP3    H1 4685   2.183   6.392   2.637
 1580TIP3    H2 4686   2.049   6.338   2.592
 1581TIP3   OH2 4687   3.782   6.557   5.955
 1581TIP3    H1 4688   3.705   6.530   6.004
 1581TIP3    H2 4689   3.802   6.645   5.988
 1582TIP3   OH2 4690   0.428   5.499   1.310
 1582TIP3    H1 4691   0.401   5.512   1.219
 1582TIP3    H2 4692   0.441   5.405   1.318
 1583TIP3   OH2 4693   5.685   4.764   1.624
 1583TIP3    H1 4694   5.706   4.837   1.683
 1583TIP3    H2 4695   5.755   4.764   1.559
 1584TIP3   OH2 4696   6.928   1.749   1.570
 1584TIP3    H1 4697   6.847   1.784   1.532
 1584TIP3    H2 4698   6.965   1.694   1.501
 1585TIP3   OH2 4699   1.562   3.240   2.597
 1585TIP3    H1 4700   1.575   3.282   2.682
 1585TIP3    H2 4701   1.589   3.306   2.533
 1586TIP3   OH2 4702   1.562   5.824   0.244
 1586TIP3    H1 4703   1.530   5.864   0.324
 1586TIP3    H2 4704   1.505   5.859   0.175
 1587TIP3   OH2 4705   2.867   6.882   6.224
 1587TIP3    H1 4706   2.814   6.913   6.150
 1587TIP3    H2 4707   2.942   6.942   6.225
 1588TIP3   OH2 4708   7.699   4.546   3.715
 1588TIP3    H1 4709   7.754   4.618   3.748
 1588TIP3    H2 4710   7.613   4.563   3.754
 1589TIP3   OH2 4711   6.222   4.972   2.691
 1589TIP3    H1 4712   6.216   5.067   2.680
 1589TIP3    H2 4713   6.314   4.952   2.673
 1590TIP3   OH2 4714   0.990   6.970   4.629
 1590TIP3    H1 4715   0.920   7.011   4.680
 1590TIP3    H2 4716   0.945   6.911   4.569
 1591TIP3   OH2 4717   5.975   1.082   0.237
 1591TIP3    H1 4718   5.985   1.124   0.323
 1591TIP3    H2 4719   5.923   1.004   0.254
 1592TIP3   OH2 4720   4.013   1.882   0.112
 1592TIP3    H1 4721   4.031   1.876   0.018
 1592TIP3    H2 4722   4.061   1.959   0.141
 1593TIP3   OH2 4723   1.841   2.958   3.091
 1593TIP3    H1 4724   1.901   3.028   3.065
 1593TIP3    H2 4725   1.855   2.889   3.025
 1594TIP3   OH2 4726   6.249   1.126   3.943
 1594TIP3    H1 4727   6.214   1.196   3.888
 1594TIP3    H2 4728   6.243   1.047   3.889
 1595TIP3   OH2 4729   3.004   4.588   5.842
 1595TIP3    H1 4730   2.974   4.639   5.767
 1595TIP3    H2 4731   2.983   4.644   5.918
 1596TIP3   OH2 4732   3.059   5.961   0.826
 1596TIP3    H1 4733   3.027   6.051   0.815
 1596TIP3    H2 4734   3.119   5.948   0.753
 1597TIP3   OH2 4735   4.748   7.546   4.532
 1597TIP3    H1 4736   4.841   7.565   4.545
 1597TIP3    H2 4737   4.743   7.512   4.443
 1598TIP3   OH2 4738   5.152   5.263   0.543
 1598TIP3    H1 4739   5.136   5.299   0.631
 1598TIP3    H2 4740   5.070   5.218   0.521
 1599TIP3   OH2 4741   0.879   4.897   1.840
 1599TIP3    H1 4742   0.877   4.920   1.933
 1599TIP3    H2 4743   0.950   4.832   1.832
 1600TIP3   OH2 4744   2.648   5.051   4.723
 1600TIP3    H1 4745   2.619   5.019   4.638
 1600TIP3    H2 4746   2.632   5.146   4.720
 1601TIP3   OH2 4747   4.529   1.006   5.048
 1601TIP3    H1 4748   4.583   1.017   5.127
 1601TIP3    H2 4749   4.468   1.080   5.051
 1602TIP3   OH2 4750   6.334   0.031   4.812
 1602TIP3    H1 4751   6.399  -0.030   4.849
 1602TIP3    H2 4752   6.387   0.099   4.770
 1603TIP3   OH2 4753   6.700   5.998   4.653
 1603TIP3    H1 4754   6.690   6.040   4.738
 1603TIP3    H2 4755   6.720   6.070   4.593
 1604TIP3   OH2 4756   4.173   7.002   1.272
 1604TIP3    H1 4757   4.258   6.958   1.274
 1604TIP3    H2 4758   4.160   7.033   1.362
 1605TIP3   OH2 4759   6.709   2.882   3.054
 1605TIP3    H1 4760   6.648   2.811   3.077
 1605TIP3    H2 4761   6.655   2.947   3.011
 1606TIP3   OH2 4762   0.137   7.855   0.505
 1606TIP3    H1 4763   0.094   7.794   0.566
 1606TIP3    H2 4764   0.204   7.801   0.462
 1607TIP3   OH2 4765   6.405   7.623   3.087
 1607TIP3    H1 4766   6.497   7.632   3.062
 1607TIP3    H2 4767   6.405   7.633   3.182
 1608TIP3   OH2 4768   3.171   4.839   6.497
 1608TIP3    H1 4769   3.130   4.925   6.484
 1608TIP3    H2 4770   3.174   4.828   6.592
 1609TIP3   OH2 4771   5.092   6.203   0.035
 1609TIP3    H1 4772   4.997   6.191   0.033
 1609TIP3    H2 4773   5.104   6.290   0.073
 1610TIP3   OH2 4774   4.771   7.151   6.776
 1610TIP3    H1 4775   4.745   7.101   6.699
 1610TIP3    H2 4776   4.707   7.222   6.782
 1611TIP3   OH2 4777   3.137   2.485   5.720
 1611TIP3    H1 4778   3.218   2.532   5.739
 1611TIP3    H2 4779   3.101   2.463   5.806
 1612TIP3   OH2 4780   7.688   0.158   1.000
 1612TIP3    H1 4781   7.715   0.068   1.017
 1612TIP3    H2 4782   7.606   0.168   1.047
 1613TIP3   OH2 4783   5.527   1.347   5.515
 1613TIP3    H1 4784   5.556   1.292   5.442
 1613TIP3    H2 4785   5.512   1.285   5.587
 1614TIP3   OH2 4786   7.202   2.878   5.885
 1614TIP3    H1 4787   7.161   2.803   5.842
 1614TIP3    H2 4788   7.230   2.934   5.812
 1615TIP3   OH2 4789   7.550   5.439   0.600
 1615TIP3    H1 4790   7.631   5.483   0.625
 1615TIP3    H2 4791   7.557   5.427   0.505
 1616TIP3   OH2 4792   4.926   4.270   0.655
 1616TIP3    H1 4793   4.943   4.268   0.750
 1616TIP3    H2 4794   4.906   4.179   0.633
 1617TIP3   OH2 4795   3.251   1.804   3.399
 1617TIP3    H1 4796   3.200   1.814   3.319
 1617TIP3    H2 4797   3.224   1.877   3.455
 1618TIP3   OH2 4798   5.428   3.222   3.485
 1618TIP3    H1 4799   5.346   3.259   3.451
 1618TIP3    H2 4800   5.478   3.299   3.514
 1619TIP3   OH2 4801   0.736   2.803   4.263
 1619TIP3    H1 4802   0.733   2.810   4.167
 1619TIP3    H2 4803   0.682   2.727   4.283
 1620TIP3   OH2 4804   3.160   6.953   0.878
 1620TIP3    H1 4805   3.188   6.868   0.912
 1620TIP3    H2 4806   3.181   6.948   0.784
 1621TIP3   OH2 4807   6.700   2.180   1.992
 1621TIP3    H1 4808   6.689   2.259   1.939
 1621TIP3    H2 4809   6.611   2.156   2.017
 1622TIP3   OH2 4810   1.574   7.753   4.151
 1622TIP3    H1 4811   1.479   7.766   4.154
 1622TIP3    H2 4812   1.586   7.674   4.098
 1623TIP3   OH2 4813   2.561   4.944   4.464
 1623TIP3    H1 4814   2.490   5.000   4.434
 1623TIP3    H2 4815   2.605   4.915   4.384
 1624TIP3   OH2 4816   1.679   0.404   1.004
 1624TIP3    H1 4817   1.668   0.474   0.941
 1624TIP3    H2 4818   1.768   0.414   1.037
 1625TIP3   OH2 4819   5.155   3.808   1.440
 1625TIP3    H1 4820   5.210   3.747   1.390
 1625TIP3    H2 4821   5.192   3.807   1.528
 1626TIP3   OH2 4822   7.727   7.704   2.926
 1626TIP3    H1 4823   7.729   7.616   2.963
 1626TIP3    H2 4824   7.799   7.705   2.863
 1627TIP3   OH2 4825   1.020   6.497   0.803
 1627TIP3    H1 4826   0.980   6.520   0.887
 1627TIP3    H2 4827   0.946   6.485   0.744
 1628TIP3   OH2 4828   6.753   3.547   1.013
 1628TIP3    H1 4829   6.760   3.490   0.937
 1628TIP3    H2 4830   6.843   3.576   1.029
 1629TIP3   OH2 4831   4.032   0.188   4.277
 1629TIP3    H1 4832   4.035   0.134   4.356
 1629TIP3    H2 4833   3.939   0.187   4.251
 1630TIP3   OH2 4834   1.653   7.806   4.796
 1630TIP3    H1 4835   1.697   7.811   4.881
 1630TIP3    H2 4836   1.594   7.731   4.805
 1631TIP3   OH2 4837   8.020   6.881   4.412
 1631TIP3    H1 4838   7.967   6.845   4.483
 1631TIP3    H2 4839   8.110   6.862   4.438
 1632TIP3   OH2 4840   6.571   3.092   2.924
 1632TIP3    H1 4841   6.483   3.074   2.957
 1632TIP3    H2 4842   6.560   3.170   2.868
 1633TIP3   OH2 4843   7.945   4.881   3.026
 1633TIP3    H1 4844   7.956   4.974   3.044
 1633TIP3    H2 4845   7.996   4.837   3.094
 1634TIP3   OH2 4846   6.185   5.027   5.485
 1634TIP3    H1 4847   6.173   5.116   5.517
 1634TIP3    H2 4848   6.238   4.984   5.552
 1635TIP3   OH2 4849   5.099   2.183   5.542
 1635TIP3    H1 4850   5.075   2.259   5.489
 1635TIP3    H2 4851   5.015   2.149   5.574
 1636TIP3   OH2 4852   2.831   5.411   5.531
 1636TIP3    H1 4853   2.833   5.329   5.581
 1636TIP3    H2 4854   2.852   5.385   5.441
 1637TIP3   OH2 4855   4.811   2.752   5.097
 1637TIP3    H1 4856   4.818   2.796   5.013
 1637TIP3    H2 4857   4.791   2.822   5.159
 1638TIP3   OH2 4858   0.255   6.848   1.744
 1638TIP3    H1 4859   0.229   6.757   1.758
 1638TIP3    H2 4860   0.287   6.850   1.654
 1639TIP3   OH2 4861   1.083   1.508   6.703
 1639TIP3    H1 4862   0.996   1.489   6.668
 1639TIP3    H2 4863   1.118   1.422   6.726
 1640TIP3   OH2 4864   0.726   3.760   6.217
 1640TIP3    H1 4865   0.740   3.718   6.301
 1640TIP3    H2 4866   0.652   3.713   6.178
 1641TIP3   OH2 4867   1.926   0.217   6.534
 1641TIP3    H1 4868   2.011   0.210   6.489
 1641TIP3    H2 4869   1.937   0.164   6.613
 1642TIP3   OH2 4870   4.195   0.334   4.544
 1642TIP3    H1 4871   4.155   0.276   4.608
 1642TIP3    H2 4872   4.227   0.276   4.475
 1643TIP3   OH2 4873   6.987   7.229   6.241
 1643TIP3    H1 4874   6.918   7.269   6.292
 1643TIP3    H2 4875   6.979   7.266   6.154
 1644TIP3   OH2 4876   5.558   1.032   0.090
 1644TIP3    H1 4877   5.540   0.950   0.044
 1644TIP3    H2 4878   5.635   1.068   0.045
 1645TIP3   OH2 4879   4.127   7.757   4.048
 1645TIP3    H1 4880   4.121   7.727   3.958
 1645TIP3    H2 4881   4.093   7.847   4.046
 1646TIP3   OH2 4882   5.718   0.563   0.639
 1646TIP3    H1 4883   5.682   0.518   0.716
 1646TIP3    H2 4884   5.665   0.530   0.566
 1647TIP3   OH2 4885   4.939   2.413   4.891
 1647TIP3    H1 4886   4.899   2.500   4.886
 1647TIP3    H2 4887   4.922   2.385   4.982
 1648TIP3   OH2 4888   2.991   0.998   5.475
 1648TIP3    H1 4889   2.933   0.925   5.455
 1648TIP3    H2 4890   2.934   1.076   5.468
 1649TIP3   OH2 4891   7.366   2.006   0.579
 1649TIP3    H1 4892   7.414   2.020   0.661
 1649TIP3    H2 4893   7.432   1.974   0.518
 1650TIP3   OH2 4894   6.502   4.305   0.966
 1650TIP3    H1 4895   6.502   4.346   0.880
 1650TIP3    H2 4896   6.485   4.212   0.948
 1651TIP3   OH2 4897   2.184   1.052   3.346
 1651TIP3    H1 4898   2.223   1.086   3.265
 1651TIP3    H2 4899   2.091   1.070   3.336
 1652TIP3   OH2 4900   3.902   2.919   4.581
 1652TIP3    H1 4901   3.812   2.951   4.576
 1652TIP3    H2 4902   3.920   2.912   4.675
 1653TIP3   OH2 4903   1.536   4.801   5.690
 1653TIP3    H1 4904   1.468   4.812   5.757
 1653TIP3    H2 4905   1.498   4.837   5.610
 1654TIP3   OH2 4906   7.995   1.548   5.251
 1654TIP3    H1 4907   7.901   1.536   5.247
 1654TIP3    H2 4908   8.031   1.473   5.204
 1655TIP3   OH2 4909   5.902   2.618   2.194
 1655TIP3    H1 4910   5.903   2.693   2.135
 1655TIP3    H2 4911   5.818   2.625   2.239
 1656TIP3   OH2 4912   2.249   4.245   6.509
 1656TIP3    H1 4913   2.273   4.238   6.417
 1656TIP3    H2 4914   2.328   4.218   6.556
 1657TIP3   OH2 4915   6.972   1.002   6.727
 1657TIP3    H1 4916   7.051   0.993   6.675
 1657TIP3    H2 4917   6.956   0.914   6.762
 1658TIP3   OH2 4918   0.198   5.783   3.284
 1658TIP3    H1 4919   0.220   5.738   3.202
 1658TIP3    H2 4920   0.141   5.722   3.330
 1659TIP3   OH2 4921   4.324   7.075   3.249
 1659TIP3    H1 4922   4.370   7.103   3.170
 1659TIP3    H2 4923   4.233   7.102   3.235
 1660TIP3   OH2 4924   0.531   6.642   2.796
 1660TIP3    H1 4925   0.467   6.700   2.839
 1660TIP3    H2 4926   0.516   6.656   2.702
 1661TIP3   OH2 4927   1.094   1.612   3.992
 1661TIP3    H1 4928   1.183   1.618   4.027
 1661TIP3    H2 4929   1.038   1.605   4.069
 1662TIP3   OH2 4930   2.915   6.068   6.267
 1662TIP3    H1 4931   3.003   6.040   6.241
 1662TIP3    H2 4932   2.918   6.069   6.363
 1663TIP3   OH2 4933   4.405   5.794   5.458
 1663TIP3    H1 4934   4.457   5.714   5.456
 1663TIP3    H2 4935   4.447   5.852   5.395
 1664TIP3   OH2 4936   0.131   5.221   6.389
 1664TIP3    H1 4937   0.069   5.161   6.429
 1664TIP3    H2 4938   0.085   5.257   6.314
 1665TIP3   OH2 4939   4.069   7.088   4.329
 1665TIP3    H1 4940   4.160   7.088   4.301
 1665TIP3    H2 4941   4.024   7.034   4.264
 1666TIP3   OH2 4942   5.100   3.628   2.060
 1666TIP3    H1 4943   5.020   3.578   2.076
 1666TIP3    H2 4944   5.134   3.595   1.978
 1667TIP3   OH2 4945   1.814   3.414   3.478
 1667TIP3    H1 4946   1.785   3.332   3.438
 1667TIP3    H2 4947   1.791   3.481   3.413
 1668TIP3   OH2 4948   0.428   6.701   6.116
 1668TIP3    H1 4949   0.496   6.727   6.178
 1668TIP3    H2 4950   0.444   6.608   6.101
 1669TIP3   OH2 4951   3.020   1.186   0.344
 1669TIP3    H1 4952   2.989   1.117   0.286
 1669TIP3    H2 4953   3.050   1.256   0.286
 1670TIP3   OH2 4954   3.285   5.567   5.181
 1670TIP3    H1 4955   3.280   5.504   5.109
 1670TIP3    H2 4956   3.205   5.554   5.231
 1671TIP3   OH2 4957   7.854   5.021   4.371
 1671TIP3    H1 4958   7.800   4.950   4.406
 1671TIP3    H2 4959   7.806   5.101   4.393
 1672TIP3   OH2 4960   2.348   4.503   3.823
 1672TIP3    H1 4961   2.441   4.520   3.811
 1672TIP3    H2 4962   2.307   4.533   3.742
 1673TIP3   OH2 4963   6.868   2.068   0.676
 1673TIP3    H1 4964   6.827   2.080   0.762
 1673TIP3    H2 4965   6.870   1.973   0.664
 1674TIP3   OH2 4966   7.593   1.109   1.675
 1674TIP3    H1 4967   7.510   1.088   1.717
 1674TIP3    H2 4968   7.597   1.051   1.599
 1675TIP3   OH2 4969   4.206   0.038   5.370
 1675TIP3    H1 4970   4.187   0.086   5.289
 1675TIP3    H2 4971   4.146   0.075   5.434
 1676TIP3   OH2 4972   3.119   7.420   3.422
 1676TIP3    H1 4973   3.100   7.508   3.388
 1676TIP3    H2 4974   3.034   7.387   3.451
 1677TIP3   OH2 4975   6.919   4.179   1.808
 1677TIP3    H1 4976   6.833   4.192   1.769
 1677TIP3    H2 4977   6.966   4.123   1.746
 1678TIP3   OH2 4978   1.535   6.312   4.833
 1678TIP3    H1 4979   1.489   6.254   4.772
 1678TIP3    H2 4980   1.628   6.294   4.818
 1679TIP3   OH2 4981   5.335   1.106   3.439
 1679TIP3    H1 4982   5.324   1.183   3.495
 1679TIP3    H2 4983   5.327   1.032   3.499
 1680TIP3   OH2 4984   4.085   6.286   2.303
 1680TIP3    H1 4985   4.127   6.239   2.231
 1680TIP3    H2 4986   4.146   6.357   2.324
 1681TIP3   OH2 4987   5.162   5.333   4.253
 1681TIP3    H1 4988   5.108   5.411   4.251
 1681TIP3    H2 4989   5.158   5.298   4.164
 1682TIP3   OH2 4990   3.676   7.666   6.074
 1682TIP3    H1 4991   3.730   7.711   6.139
 1682TIP3    H2 4992   3.628   7.737   6.030
 1683TIP3   OH2 4993   0.095   7.603   2.617
 1683TIP3    H1 4994   0.110   7.629   2.707
 1683TIP3    H2 4995   0.169   7.547   2.595
 1684TIP3   OH2 4996   6.787   1.604   2.734
 1684TIP3    H1 4997   6.798   1.683   2.681
 1684TIP3    H2 4998   6.800   1.532   2.673
 1685TIP3   OH2 4999   2.744   1.843   3.208
 1685TIP3    H1 5000   2.750   1.877   3.297
 1685TIP3    H2 5001   2.797   1.903   3.156
 1686TIP3   OH2 5002   2.527   2.905   1.037
 1686TIP3    H1 5003   2.445   2.927   0.994
 1686TIP3    H2 5004   2.550   2.818   1.003
 1687TIP3   OH2 5005   2.086   1.355   0.141
 1687TIP3    H1 5006   2.035   1.427   0.178
 1687TIP3    H2 5007   2.170   1.359   0.187
 1688TIP3   OH2 5008   3.081   4.931   2.371
 1688TIP3    H1 5009   3.085   4.885   2.288
 1688TIP3    H2 5010   3.038   5.014   2.351
 1689TIP3   OH2 5011   3.407   1.258   3.028
 1689TIP3    H1 5012   3.443   1.323   2.968
 1689TIP3    H2 5013   3.473   1.188   3.031
 1690TIP3   OH2 5014   5.468   0.893   2.693
 1690TIP3    H1 5015   5.456   0.807   2.734
 1690TIP3    H2 5016   5.563   0.902   2.683
 1691TIP3   OH2 5017   2.201   6.562   6.735
 1691TIP3    H1 5018   2.209   6.517   6.651
 1691TIP3    H2 5019   2.136   6.510   6.783
 1692TIP3   OH2 5020   5.088   6.506   0.936
 1692TIP3    H1 5021   5.013   6.545   0.891
 1692TIP3    H2 5022   5.049   6.444   0.997
 1693TIP3   OH2 5023   5.455   4.539   3.364
 1693TIP3    H1 5024   5.495   4.468   3.314
 1693TIP3    H2 5025   5.462   4.615   3.306
 1694TIP3   OH2 5026   1.282   0.011   6.099
 1694TIP3    H1 5027   1.254  -0.008   6.009
 1694TIP3    H2 5028   1.222   0.079   6.129
 1695TIP3   OH2 5029   5.205   4.107   2.184
 1695TIP3    H1 5030   5.118   4.117   2.220
 1695TIP3    H2 5031   5.244   4.194   2.190
 1696TIP3   OH2 5032   3.753   7.263   3.705
 1696TIP3    H1 5033   3.718   7.196   3.646
 1696TIP3    H2 5034   3.676   7.295   3.753
 1697TIP3   OH2 5035   3.047   3.027   1.676
 1697TIP3    H1 5036   3.086   3.106   1.638
 1697TIP3    H2 5037   3.067   3.034   1.769
 1698TIP3   OH2 5038   3.457   7.054   0.299
 1698TIP3    H1 5039   3.423   7.082   0.214
 1698TIP3    H2 5040   3.543   7.016   0.279
 1699TIP3   OH2 5041   3.475   5.864   5.105
 1699TIP3    H1 5042   3.430   5.944   5.076
 1699TIP3    H2 5043   3.565   5.876   5.076
 1700TIP3   OH2 5044   6.450   0.588   1.610
 1700TIP3    H1 5045   6.472   0.591   1.703
 1700TIP3    H2 5046   6.408   0.672   1.593
 1701TIP3   OH2 5047   4.402   3.149   6.735
 1701TIP3    H1 5048   4.458   3.224   6.714
 1701TIP3    H2 5049   4.462   3.076   6.749
 1702TIP3   OH2 5050   5.693   5.524   3.609
 1702TIP3    H1 5051   5.744   5.529   3.528
 1702TIP3    H2 5052   5.757   5.544   3.678
 1703TIP3   OH2 5053   8.101   5.072   0.336
 1703TIP3    H1 5054   8.178   5.018   0.319
 1703TIP3    H2 5055   8.051   5.022   0.401
 1704TIP3   OH2 5056   6.927   6.978   3.793
 1704TIP3    H1 5057   6.995   6.999   3.857
 1704TIP3    H2 5058   6.902   6.887   3.814
 1705TIP3   OH2 5059   5.857   0.416   5.958
 1705TIP3    H1 5060   5.813   0.497   5.986
 1705TIP3    H2 5061   5.805   0.385   5.884
 1706TIP3   OH2 5062   1.636   6.031   2.510
 1706TIP3    H1 5063   1.554   6.017   2.464
 1706TIP3    H2 5064   1.668   5.943   2.531
 1707TIP3   OH2 5065   3.637   2.052   4.470
 1707TIP3    H1 5066   3.660   2.144   4.486
 1707TIP3    H2 5067   3.579   2.056   4.394
 1708TIP3   OH2 5068   4.723   1.148   2.127
 1708TIP3    H1 5069   4.780   1.169   2.202
 1708TIP3    H2 5070   4.699   1.234   2.092
 1709TIP3   OH2 5071   8.015   0.636   6.053
 1709TIP3    H1 5072   8.060   0.691   5.989
 1709TIP3    H2 5073   7.927   0.626   6.019
 1710TIP3   OH2 5074   6.551   6.872   3.446
 1710TIP3    H1 5075   6.640   6.862   3.481
 1710TIP3    H2 5076   6.520   6.954   3.485
 1711TIP3   OH2 5077   7.919   1.819   3.693
 1711TIP3    H1 5078   7.980   1.746   3.695
 1711TIP3    H2 5079   7.966   1.889   3.647
 1712TIP3   OH2 5080   0.525   1.917   2.397
 1712TIP3    H1 5081   0.607   1.884   2.434
 1712TIP3    H2 5082   0.500   1.853   2.331
 1713TIP3   OH2 5083   2.441   6.190   6.066
 1713TIP3    H1 5084   2.518   6.246   6.057
 1713TIP3    H2 5085   2.476   6.103   6.084
 1714TIP3   OH2 5086   7.372   5.439   0.791
 1714TIP3    H1 5087   7.402   5.350   0.815
 1714TIP3    H2 5088   7.438   5.470   0.729
 1715TIP3   OH2 5089   0.712   3.019   0.736
 1715TIP3    H1 5090   0.778   3.054   0.796
 1715TIP3    H2 5091   0.721   3.074   0.657
 1716TIP3   OH2 5092   0.957   5.197   2.630
 1716TIP3    H1 5093   0.944   5.272   2.688
 1716TIP3    H2 5094   0.933   5.121   2.684
 1717TIP3   OH2 5095   2.709   4.392   2.464
 1717TIP3    H1 5096   2.678   4.306   2.491
 1717TIP3    H2 5097   2.799   4.378   2.434
 1718TIP3   OH2 5098   3.531   5.988   4.171
 1718TIP3    H1 5099   3.514   6.066   4.118
 1718TIP3    H2 5100   3.463   5.989   4.238
 1719TIP3   OH2 5101   0.915   5.725   6.019
 1719TIP3    H1 5102   0.880   5.802   6.064
 1719TIP3    H2 5103   0.999   5.708   6.062
 1720TIP3   OH2 5104   1.386   6.234   4.431
 1720TIP3    H1 5105   1.313   6.297   4.434
 1720TIP3    H2 5106   1.409   6.220   4.522
 1721TIP3   OH2 5107   0.211   2.963  -0.004
 1721TIP3    H1 5108   0.182   2.975  -0.095
 1721TIP3    H2 5109   0.152   3.018   0.047
 1722TIP3   OH2 5110   1.579   5.416   6.176
 1722TIP3    H1 5111   1.638   5.445   6.246
 1722TIP3    H2 5112   1.605   5.468   6.100
 1723TIP3   OH2 5113   2.905   3.248   3.745
 1723TIP3    H1 5114   2.930   3.157   3.766
 1723TIP3    H2 5115   2.824   3.262   3.793
 1724TIP3   OH2 5116   0.697   2.105   4.894
 1724TIP3    H1 5117   0.727   2.064   4.975
 1724TIP3    H2 5118   0.731   2.050   4.824
 1725TIP3   OH2 5119   2.263   4.870   4.400
 1725TIP3    H1 5120   2.300   4.782   4.401
 1725TIP3    H2 5121   2.307   4.915   4.472
 1726TIP3   OH2 5122   2.593   5.246   2.752
 1726TIP3    H1 5123   2.666   5.303   2.727
 1726TIP3    H2 5124   2.521   5.306   2.772
 1727TIP3   OH2 5125   6.868   3.619   2.860
 1727TIP3    H1 5126   6.790   3.640   2.910
 1727TIP3    H2 5127   6.935   3.599   2.925
 1728TIP3   OH2 5128   0.004   2.303   2.817
 1728TIP3    H1 5129  -0.007   2.238   2.886
 1728TIP3    H2 5130   0.095   2.333   2.827
 1729TIP3   OH2 5131   5.573   3.643   6.164
 1729TIP3    H1 5132   5.642   3.700   6.131
 1729TIP3    H2 5133   5.559   3.672   6.254
 1730TIP3   OH2 5134   3.687   0.663   4.568
 1730TIP3    H1 5135   3.716   0.679   4.478
 1730TIP3    H2 5136   3.727   0.579   4.591
 1731TIP3   OH2 5137   7.992   3.589   3.867
 1731TIP3    H1 5138   8.023   3.578   3.957
 1731TIP3    H2 5139   8.072   3.605   3.816
 1732TIP3   OH2 5140   2.222   5.292   4.128
 1732TIP3    H1 5141   2.289   5.229   4.153
 1732TIP3    H2 5142   2.268   5.356   4.074
 1733TIP3   OH2 5143   7.845   0.301   5.453
 1733TIP3    H1 5144   7.940   0.307   5.448
 1733TIP3    H2 5145   7.828   0.230   5.516
 1734TIP3   OH2 5146   1.377   4.870   1.671
 1734TIP3    H1 5147   1.313   4.934   1.702
 1734TIP3    H2 5148   1.325   4.792   1.650
 1735TIP3   OH2 5149   1.582   3.961   3.595
 1735TIP3    H1 5150   1.591   4.035   3.655
 1735TIP3    H2 5151   1.559   3.887   3.651
 1736TIP3   OH2 5152   3.498   4.551   6.268
 1736TIP3    H1 5153   3.536   4.484   6.324
 1736TIP3    H2 5154   3.570   4.581   6.213
 1737TIP3   OH2 5155   0.146   3.894   6.420
 1737TIP3    H1 5156   0.056   3.900   6.451
 1737TIP3    H2 5157   0.196   3.952   6.478
 1738TIP3   OH2 5158   3.090   6.662   0.933
 1738TIP3    H1 5159   2.995   6.667   0.924
 1738TIP3    H2 5160   3.118   6.593   0.873
 1739TIP3   OH2 5161   7.800   1.393   4.551
 1739TIP3    H1 5162   7.873   1.455   4.545
 1739TIP3    H2 5163   7.757   1.399   4.466
 1740TIP3   OH2 5164   4.654   0.934   2.689
 1740TIP3    H1 5165   4.633   0.953   2.598
 1740TIP3    H2 5166   4.654   1.021   2.731
 1741TIP3   OH2 5167   0.497   5.281   0.968
 1741TIP3    H1 5168   0.468   5.203   1.015
 1741TIP3    H2 5169   0.498   5.254   0.876
 1742TIP3   OH2 5170   8.259   1.387   2.929
 1742TIP3    H1 5171   8.234   1.468   2.886
 1742TIP3    H2 5172   8.208   1.385   3.010
 1743TIP3   OH2 5173   1.177   0.085   5.262
 1743TIP3    H1 5174   1.216   0.168   5.290
 1743TIP3    H2 5175   1.091   0.085   5.304
 1744TIP3   OH2 5176   3.505   3.939   1.758
 1744TIP3    H1 5177   3.417   3.922   1.723
 1744TIP3    H2 5178   3.547   3.853   1.761
 1745TIP3   OH2 5179   2.650   2.091   5.696
 1745TIP3    H1 5180   2.745   2.083   5.693
 1745TIP3    H2 5181   2.633   2.185   5.682
 1746TIP3   OH2 5182   8.191   0.021   6.185
 1746TIP3    H1 5183   8.230   0.020   6.098
 1746TIP3    H2 5184   8.222   0.103   6.224
 1747TIP3   OH2 5185   4.359   3.624   0.994
 1747TIP3    H1 5186   4.435   3.598   1.046
 1747TIP3    H2 5187   4.327   3.541   0.957
 1748TIP3   OH2 5188   5.504   0.176   2.912
 1748TIP3    H1 5189   5.596   0.174   2.885
 1748TIP3    H2 5190   5.457   0.134   2.840
 1749TIP3   OH2 5191   7.647   1.009   3.461
 1749TIP3    H1 5192   7.707   1.012   3.387
 1749TIP3    H2 5193   7.644   1.099   3.493
 1750TIP3   OH2 5194   3.000   7.771   4.309
 1750TIP3    H1 5195   3.044   7.855   4.320
 1750TIP3    H2 5196   2.998   7.757   4.214
 1751TIP3   OH2 5197   3.782   1.250   3.044
 1751TIP3    H1 5198   3.734   1.168   3.044
 1751TIP3    H2 5199   3.810   1.262   3.135
 1752TIP3   OH2 5200   0.104   6.975   1.124
 1752TIP3    H1 5201   0.102   6.902   1.185
 1752TIP3    H2 5202   0.110   6.934   1.038
 1753TIP3   OH2 5203   6.562   6.059   3.823
 1753TIP3    H1 5204   6.640   6.031   3.775
 1753TIP3    H2 5205   6.592   6.132   3.878
 1754TIP3   OH2 5206   6.309   7.356   0.687
 1754TIP3    H1 5207   6.354   7.340   0.770
 1754TIP3    H2 5208   6.373   7.402   0.633
 1755TIP3   OH2 5209   3.023   7.738   5.877
 1755TIP3    H1 5210   2.964   7.799   5.920
 1755TIP3    H2 5211   3.101   7.789   5.857
 1756TIP3   OH2 5212   0.271   3.070   3.559
 1756TIP3    H1 5213   0.363   3.094   3.545
 1756TIP3    H2 5214   0.230   3.150   3.592
 1757TIP3   OH2 5215   3.728   5.556   4.060
 1757TIP3    H1 5216   3.707   5.633   4.006
 1757TIP3    H2 5217   3.749   5.592   4.146
 1758TIP3   OH2 5218   4.967   1.647   4.544
 1758TIP3    H1 5219   5.051   1.625   4.503
 1758TIP3    H2 5220   4.946   1.734   4.511
 1759TIP3   OH2 5221   6.397   2.012   0.546
 1759TIP3    H1 5222   6.449   2.025   0.625
 1759TIP3    H2 5223   6.424   2.083   0.487
 1760TIP3   OH2 5224   0.908   1.376   2.543
 1760TIP3    H1 5225   0.972   1.310   2.518
 1760TIP3    H2 5226   0.932   1.454   2.494
 1761TIP3   OH2 5227   5.773   3.653   2.574
 1761TIP3    H1 5228   5.688   3.685   2.544
 1761TIP3    H2 5229   5.815   3.730   2.613
 1762TIP3   OH2 5230   2.662   3.234   3.889
 1762TIP3    H1 5231   2.613   3.152   3.890
 1762TIP3    H2 5232   2.601   3.298   3.851
 1763TIP3   OH2 5233   3.639   5.038   1.755
 1763TIP3    H1 5234   3.708   4.980   1.787
 1763TIP3    H2 5235   3.671   5.126   1.775
 1764TIP3   OH2 5236   0.376   4.239   0.790
 1764TIP3    H1 5237   0.317   4.168   0.814
 1764TIP3    H2 5238   0.340   4.275   0.709
 1765TIP3   OH2 5239   1.925   2.918   1.305
 1765TIP3    H1 5240   1.891   2.968   1.230
 1765TIP3    H2 5241   2.016   2.944   1.313
 1766TIP3   OH2 5242   4.963   0.562   5.033
 1766TIP3    H1 5243   4.957   0.475   4.992
 1766TIP3    H2 5244   4.977   0.622   4.960
 1767TIP3   OH2 5245   2.171   0.139   4.658
 1767TIP3    H1 5246   2.076   0.126   4.660
 1767TIP3    H2 5247   2.197   0.146   4.750
 1768TIP3   OH2 5248   3.450   0.540   1.470
 1768TIP3    H1 5249   3.544   0.525   1.456
 1768TIP3    H2 5250   3.424   0.467   1.528
 1769TIP3   OH2 5251   5.578   0.937   5.753
 1769TIP3    H1 5252   5.541   0.922   5.840
 1769TIP3    H2 5253   5.526   1.009   5.717
 1770TIP3   OH2 5254   6.384   3.648   0.402
 1770TIP3    H1 5255   6.430   3.628   0.321
 1770TIP3    H2 5256   6.407   3.575   0.461
 1771TIP3   OH2 5257   6.375   4.184   1.771
 1771TIP3    H1 5258   6.387   4.279   1.770
 1771TIP3    H2 5259   6.283   4.171   1.747
 1772TIP3   OH2 5260   0.944   1.403   6.228
 1772TIP3    H1 5261   0.941   1.484   6.178
 1772TIP3    H2 5262   0.979   1.429   6.314
 1773TIP3   OH2 5263   5.546   5.062   5.243
 1773TIP3    H1 5264   5.557   5.066   5.148
 1773TIP3    H2 5265   5.517   5.151   5.268
 1774TIP3   OH2 5266   5.400   2.496   5.758
 1774TIP3    H1 5267   5.340   2.514   5.830
 1774TIP3    H2 5268   5.359   2.538   5.682
 1775TIP3   OH2 5269   0.269   7.253   3.801
 1775TIP3    H1 5270   0.295   7.330   3.852
 1775TIP3    H2 5271   0.212   7.288   3.732
 1776TIP3   OH2 5272   6.963   3.745   1.401
 1776TIP3    H1 5273   6.875   3.778   1.419
 1776TIP3    H2 5274   6.960   3.654   1.428
 1777TIP3   OH2 5275   1.823   0.137   2.536
 1777TIP3    H1 5276   1.882   0.065   2.514
 1777TIP3    H2 5277   1.852   0.210   2.480
 1778TIP3   OH2 5278   1.087   7.306   6.274
 1778TIP3    H1 5279   1.159   7.292   6.213
 1778TIP3    H2 5280   1.036   7.377   6.235
 1779TIP3   OH2 5281   5.678   7.732   4.932
 1779TIP3    H1 5282   5.696   7.649   4.977
 1779TIP3    H2 5283   5.698   7.715   4.840
 1780TIP3   OH2 5284   2.126   0.546   5.648
 1780TIP3    H1 5285   2.213   0.520   5.678
 1780TIP3    H2 5286   2.082   0.464   5.628
 1781TIP3   OH2 5287   2.168   6.399   5.567
 1781TIP3    H1 5288   2.221   6.379   5.644
 1781TIP3    H2 5289   2.184   6.326   5.507
 1782TIP3   OH2 5290   1.149   7.746   1.477
 1782TIP3    H1 5291   1.108   7.665   1.508
 1782TIP3    H2 5292   1.198   7.721   1.399
 1783TIP3   OH2 5293   3.242   6.593   3.622
 1783TIP3    H1 5294   3.155   6.555   3.635
 1783TIP3    H2 5295   3.297   6.549   3.686
 1784TIP3   OH2 5296   4.037   2.732   2.481
 1784TIP3    H1 5297   4.108   2.796   2.472
 1784TIP3    H2 5298   3.984   2.744   2.402
 1785TIP3   OH2 5299   5.869   2.079   0.266
 1785TIP3    H1 5300   5.778   2.092   0.238
 1785TIP3    H2 5301   5.873   2.118   0.353
 1786TIP3   OH2 5302   2.953   7.057   5.744
 1786TIP3    H1 5303   3.013   7.044   5.671
 1786TIP3    H2 5304   2.873   7.091   5.703
 1787TIP3   OH2 5305   5.336   1.801   1.193
 1787TIP3    H1 5306   5.366   1.734   1.255
 1787TIP3    H2 5307   5.287   1.863   1.246
 1788TIP3   OH2 5308   6.788   5.145   2.139
 1788TIP3    H1 5309   6.697   5.152   2.167
 1788TIP3    H2 5310   6.795   5.206   2.066
 1789TIP3   OH2 5311   5.487   1.275   4.928
 1789TIP3    H1 5312   5.463   1.210   4.993
 1789TIP3    H2 5313   5.555   1.233   4.875
 1790TIP3   OH2 5314   6.455   4.098   1.276
 1790TIP3    H1 5315   6.423   4.015   1.242
 1790TIP3    H2 5316   6.528   4.121   1.219
 1791TIP3   OH2 5317   4.664   7.710   2.669
 1791TIP3    H1 5318   4.639   7.633   2.720
 1791TIP3    H2 5319   4.708   7.767   2.731
 1792TIP3   OH2 5320   4.132   3.675   5.065
 1792TIP3    H1 5321   4.072   3.609   5.101
 1792TIP3    H2 5322   4.098   3.693   4.978
 1793TIP3   OH2 5323   5.327   7.755   5.848
 1793TIP3    H1 5324   5.251   7.811   5.863
 1793TIP3    H2 5325   5.322   7.732   5.755
 1794TIP3   OH2 5326   3.575   7.339   2.254
 1794TIP3    H1 5327   3.618   7.256   2.231
 1794TIP3    H2 5328   3.531   7.366   2.174
 1795TIP3   OH2 5329   1.085   5.992   1.546
 1795TIP3    H1 5330   1.097   5.932   1.473
 1795TIP3    H2 5331   1.173   6.006   1.581
 1796TIP3   OH2 5332   6.000   6.889   3.275
 1796TIP3    H1 5333   5.911   6.859   3.294
 1796TIP3    H2 5334   5.988   6.973   3.230
 1797TIP3   OH2 5335   2.011   0.966   2.664
 1797TIP3    H1 5336   2.007   0.928   2.752
 1797TIP3    H2 5337   1.986   0.895   2.606
 1798TIP3   OH2 5338   1.239   1.929   2.148
 1798TIP3    H1 5339   1.212   2.002   2.203
 1798TIP3    H2 5340   1.168   1.865   2.158
 1799TIP3   OH2 5341   6.022   2.456   5.604
 1799TIP3    H1 5342   5.975   2.380   5.639
 1799TIP3    H2 5343   6.061   2.424   5.523
 1800TIP3   OH2 5344   6.050   4.933   2.929
 1800TIP3    H1 5345   6.092   4.942   2.843
 1800TIP3    H2 5346   6.080   4.848   2.961
 1801TIP3   OH2 5347   4.472   2.009   4.759
 1801TIP3    H1 5348   4.460   2.003   4.664
 1801TIP3    H2 5349   4.400   2.065   4.788
 1802TIP3   OH2 5350   7.594   6.370   2.892
 1802TIP3    H1 5351   7.629   6.346   2.805
 1802TIP3    H2 5352   7.506   6.402   2.874
 1803TIP3   OH2 5353   3.096   1.245   3.564
 1803TIP3    H1 5354   3.043   1.320   3.591
 1803TIP3    H2 5355   3.178   1.284   3.534
 1804TIP3   OH2 5356   4.286   4.263   2.290
 1804TIP3    H1 5357   4.344   4.267   2.367
 1804TIP3    H2 5358   4.215   4.204   2.316
 1805TIP3   OH2 5359   4.903   1.340   3.368
 1805TIP3    H1 5360   4.874   1.263   3.416
 1805TIP3    H2 5361   4.940   1.305   3.287
 1806TIP3   OH2 5362   0.483   4.417   4.371
 1806TIP3    H1 5363   0.469   4.468   4.450
 1806TIP3    H2 5364   0.525   4.336   4.402
 1807TIP3   OH2 5365   7.197   5.610   6.320
 1807TIP3    H1 5366   7.173   5.578   6.232
 1807TIP3    H2 5367   7.289   5.636   6.312
 1808TIP3   OH2 5368   7.536   4.546   5.416
 1808TIP3    H1 5369   7.536   4.560   5.511
 1808TIP3    H2 5370   7.472   4.607   5.382
 1809TIP3   OH2 5371   7.411   0.961   3.602
 1809TIP3    H1 5372   7.482   0.985   3.542
 1809TIP3    H2 5373   7.394   1.041   3.652
 1810TIP3   OH2 5374   6.343   2.797   5.333
 1810TIP3    H1 5375   6.373   2.833   5.249
 1810TIP3    H2 5376   6.296   2.717   5.310
 1811TIP3   OH2 5377   3.351   5.098   5.228
 1811TIP3    H1 5378   3.368   5.003   5.225
 1811TIP3    H2 5379   3.264   5.106   5.266
 1812TIP3   OH2 5380   1.433   0.221   2.004
 1812TIP3    H1 5381   1.367   0.152   2.000
 1812TIP3    H2 5382   1.382   0.302   2.008
 1813TIP3   OH2 5383   1.038   2.165   4.800
 1813TIP3    H1 5384   1.108   2.179   4.735
 1813TIP3    H2 5385   0.999   2.081   4.776
 1814TIP3   OH2 5386   4.437   4.352   4.634
 1814TIP3    H1 5387   4.438   4.433   4.685
 1814TIP3    H2 5388   4.516   4.306   4.660
 1815TIP3   OH2 5389   6.750   6.312   6.486
 1815TIP3    H1 5390   6.790   6.233   6.522
 1815TIP3    H2 5391   6.656   6.293   6.484
 1816TIP3   OH2 5392   0.582   3.579   3.582
 1816TIP3    H1 5393   0.560   3.577   3.675
 1816TIP3    H2 5394   0.498   3.571   3.537
 1817TIP3   OH2 5395   1.223   7.365   4.254
 1817TIP3    H1 5396   1.224   7.272   4.277
 1817TIP3    H2 5397   1.308   7.398   4.283
 1818TIP3   OH2 5398   7.030   6.529   5.952
 1818TIP3    H1 5399   7.054   6.555   5.864
 1818TIP3    H2 5400   6.936   6.512   5.947
 1819TIP3   OH2 5401   2.754   0.633   3.584
 1819TIP3    H1 5402   2.799   0.552   3.561
 1819TIP3    H2 5403   2.704   0.612   3.663
 1820TIP3   OH2 5404   7.918   6.537   3.899
 1820TIP3    H1 5405   7.857   6.507   3.832
 1820TIP3    H2 5406   7.999   6.556   3.852
 1821TIP3   OH2 5407   8.107   0.540   4.241
 1821TIP3    H1 5408   8.104   0.450   4.274
 1821TIP3    H2 5409   8.017   0.572   4.253
 1822TIP3   OH2 5410   3.195   2.611   2.061
 1822TIP3    H1 5411   3.214   2.576   2.147
 1822TIP3    H2 5412   3.128   2.678   2.076
 1823TIP3   OH2 5413   6.147   0.173   4.355
 1823TIP3    H1 5414   6.182   0.113   4.289
 1823TIP3    H2 5415   6.178   0.259   4.327
 1824TIP3   OH2 5416   7.655   0.867   1.552
 1824TIP3    H1 5417   7.665   0.810   1.628
 1824TIP3    H2 5418   7.730   0.845   1.496
 1825TIP3   OH2 5419   2.282   7.135   2.526
 1825TIP3    H1 5420   2.242   7.138   2.613
 1825TIP3    H2 5421   2.321   7.222   2.515
 1826TIP3   OH2 5422   7.032   0.029   2.296
 1826TIP3    H1 5423   7.014   0.114   2.255
 1826TIP3    H2 5424   7.099  -0.011   2.240
 1827TIP3   OH2 5425   4.341   5.043   6.301
 1827TIP3    H1 5426   4.432   5.048   6.272
 1827TIP3    H2 5427   4.344   4.993   6.383
 1828TIP3   OH2 5428   5.132   7.015   2.858
 1828TIP3    H1 5429   5.150   7.103   2.824
 1828TIP3    H2 5430   5.181   6.957   2.801
 1829TIP3   OH2 5431   4.095   1.964   6.062
 1829TIP3    H1 5432   4.108   1.890   6.122
 1829TIP3    H2 5433   4.028   1.932   6.001
 1830TIP3   OH2 5434   2.070   4.959   0.997
 1830TIP3    H1 5435   2.145   4.908   0.967
 1830TIP3    H2 5436   2.004   4.949   0.929
 1831TIP3   OH2 5437   8.069   7.262   4.923
 1831TIP3    H1 5438   8.138   7.260   4.857
 1831TIP3    H2 5439   8.089   7.339   4.976
 1832TIP3   OH2 5440   4.842   3.462   0.247
 1832TIP3    H1 5441   4.848   3.367   0.237
 1832TIP3    H2 5442   4.774   3.488   0.185
 1833TIP3   OH2 5443   0.462   1.003   1.140
 1833TIP3    H1 5444   0.455   1.085   1.091
 1833TIP3    H2 5445   0.552   0.999   1.170
 1834TIP3   OH2 5446   2.478   2.503   0.609
 1834TIP3    H1 5447   2.448   2.454   0.685
 1834TIP3    H2 5448   2.493   2.436   0.542
 1835TIP3   OH2 5449   5.435   0.352   6.711
 1835TIP3    H1 5450   5.352   0.304   6.713
 1835TIP3    H2 5451   5.501   0.286   6.689
 1836TIP3   OH2 5452   7.788   3.803   1.109
 1836TIP3    H1 5453   7.738   3.769   1.034
 1836TIP3    H2 5454   7.868   3.839   1.070
 1837TIP3   OH2 5455   7.739   5.247   3.123
 1837TIP3    H1 5456   7.735   5.287   3.037
 1837TIP3    H2 5457   7.721   5.318   3.184
 1838TIP3   OH2 5458   7.820   2.146   3.628
 1838TIP3    H1 5459   7.838   2.226   3.578
 1838TIP3    H2 5460   7.739   2.112   3.589
 1839TIP3   OH2 5461   2.510   1.846   2.916
 1839TIP3    H1 5462   2.564   1.768   2.902
 1839TIP3    H2 5463   2.492   1.879   2.827
 1840TIP3   OH2 5464   8.040   5.908   1.453
 1840TIP3    H1 5465   7.969   5.848   1.475
 1840TIP3    H2 5466   8.084   5.867   1.379
 1841TIP3   OH2 5467   0.144   5.596   1.207
 1841TIP3    H1 5468   0.229   5.593   1.162
 1841TIP3    H2 5469   0.167   5.603   1.300
 1842TIP3   OH2 5470   1.847   2.650   6.389
 1842TIP3    H1 5471   1.938   2.655   6.360
 1842TIP3    H2 5472   1.801   2.717   6.338
 1843TIP3   OH2 5473   5.010   5.264   3.743
 1843TIP3    H1 5474   4.915   5.251   3.740
 1843TIP3    H2 5475   5.031   5.309   3.661
 1844TIP3   OH2 5476   7.590   4.769   3.306
 1844TIP3    H1 5477   7.671   4.817   3.287
 1844TIP3    H2 5478   7.522   4.814   3.256
 1845TIP3   OH2 5479   7.992   1.323   0.821
 1845TIP3    H1 5480   8.044   1.335   0.901
 1845TIP3    H2 5481   8.058   1.317   0.752
 1846TIP3   OH2 5482   1.186   6.857   0.213
 1846TIP3    H1 5483   1.190   6.848   0.118
 1846TIP3    H2 5484   1.121   6.925   0.228
 1847TIP3   OH2 5485   6.757   4.248   0.696
 1847TIP3    H1 5486   6.698   4.323   0.706
 1847TIP3    H2 5487   6.795   4.259   0.609
 1848TIP3   OH2 5488   4.498   0.562   5.204
 1848TIP3    H1 5489   4.588   0.583   5.225
 1848TIP3    H2 5490   4.474   0.624   5.136
 1849TIP3   OH2 5491   4.556   6.588   6.477
 1849TIP3    H1 5492   4.623   6.529   6.442
 1849TIP3    H2 5493   4.509   6.620   6.400
 1850TIP3   OH2 5494   7.450   2.373   3.148
 1850TIP3    H1 5495   7.393   2.372   3.225
 1850TIP3    H2 5496   7.529   2.326   3.176
 1851TIP3   OH2 5497   0.367   5.504   1.040
 1851TIP3    H1 5498   0.385   5.552   0.959
 1851TIP3    H2 5499   0.398   5.415   1.024
 1852TIP3   OH2 5500   7.071   0.417   6.695
 1852TIP3    H1 5501   7.116   0.395   6.776
 1852TIP3    H2 5502   7.022   0.337   6.672
 1853TIP3   OH2 5503   6.213   3.995   4.871
 1853TIP3    H1 5504   6.217   4.068   4.933
 1853TIP3    H2 5505   6.150   4.024   4.805
 1854TIP3   OH2 5506   0.304   1.673   4.631
 1854TIP3    H1 5507   0.324   1.766   4.617
 1854TIP3    H2 5508   0.327   1.631   4.548
 1855TIP3   OH2 5509   1.494   4.559   0.129
 1855TIP3    H1 5510   1.582   4.583   0.099
 1855TIP3    H2 5511   1.510   4.497   0.201
 1856TIP3   OH2 5512   1.686   5.465   1.530
 1856TIP3    H1 5513   1.778   5.461   1.504
 1856TIP3    H2 5514   1.666   5.559   1.531
 1857TIP3   OH2 5515   1.363   6.137   1.214
 1857TIP3    H1 5516   1.423   6.180   1.153
 1857TIP3    H2 5517   1.343   6.053   1.173
 1858TIP3   OH2 5518   8.009   0.267   1.832
 1858TIP3    H1 5519   8.049   0.272   1.919
 1858TIP3    H2 5520   8.065   0.322   1.777
 1859TIP3   OH2 5521   5.050   2.824   0.505
 1859TIP3    H1 5522   5.051   2.732   0.480
 1859TIP3    H2 5523   4.979   2.830   0.570
 1860TIP3   OH2 5524   5.396   5.556   5.571
 1860TIP3    H1 5525   5.350   5.635   5.543
 1860TIP3    H2 5526   5.330   5.487   5.567
 1861TIP3   OH2 5527   5.541   4.372   5.504
 1861TIP3    H1 5528   5.550   4.434   5.432
 1861TIP3    H2 5529   5.478   4.413   5.563
 1862TIP3   OH2 5530   7.730   6.476   6.512
 1862TIP3    H1 5531   7.774   6.394   6.533
 1862TIP3    H2 5532   7.763   6.539   6.576
 1863TIP3   OH2 5533   7.010   6.214   0.718
 1863TIP3    H1 5534   7.072   6.166   0.664
 1863TIP3    H2 5535   7.006   6.165   0.800
 1864TIP3   OH2 5536   5.217   6.792   0.893
 1864TIP3    H1 5537   5.150   6.794   0.825
 1864TIP3    H2 5538   5.196   6.715   0.946
 1865TIP3   OH2 5539   3.540   4.834   1.399
 1865TIP3    H1 5540   3.580   4.758   1.444
 1865TIP3    H2 5541   3.511   4.799   1.315
 1866TIP3   OH2 5542   2.902   6.033   0.535
 1866TIP3    H1 5543   2.821   6.084   0.531
 1866TIP3    H2 5544   2.967   6.089   0.493
 1867TIP3   OH2 5545   5.053   2.191   4.360
 1867TIP3    H1 5546   5.106   2.240   4.298
 1867TIP3    H2 5547   5.031   2.254   4.428
 1868TIP3   OH2 5548   0.071   5.861   3.688
 1868TIP3    H1 5549   0.080   5.773   3.724
 1868TIP3    H2 5550   0.098   5.919   3.760
 1869TIP3   OH2 5551   2.202   0.026   0.257
 1869TIP3    H1 5552   2.223   0.119   0.244
 1869TIP3    H2 5553   2.261  -0.020   0.197
 1870TIP3   OH2 5554   7.121   0.352   4.485
 1870TIP3    H1 5555   7.125   0.344   4.390
 1870TIP3    H2 5556   7.176   0.280   4.518
 1871TIP3   OH2 5557   2.122   3.887   6.240
 1871TIP3    H1 5558   2.159   3.970   6.211
 1871TIP3    H2 5559   2.136   3.827   6.166
 1872TIP3   OH2 5560   1.570   0.302   0.527
 1872TIP3    H1 5561   1.589   0.391   0.556
 1872TIP3    H2 5562   1.657   0.263   0.514
 1873TIP3   OH2 5563   8.253   1.754   6.641
 1873TIP3    H1 5564   8.207   1.697   6.578
 1873TIP3    H2 5565   8.338   1.771   6.600
 1874TIP3   OH2 5566   3.461   1.188   1.624
 1874TIP3    H1 5567   3.476   1.230   1.709
 1874TIP3    H2 5568   3.533   1.124   1.617
 1875TIP3   OH2 5569   2.530   2.941   4.793
 1875TIP3    H1 5570   2.606   2.935   4.735
 1875TIP3    H2 5571   2.503   3.033   4.789
 1876TIP3   OH2 5572   0.211   4.746   0.492
 1876TIP3    H1 5573   0.291   4.790   0.462
 1876TIP3    H2 5574   0.238   4.699   0.571
 1877TIP3   OH2 5575   0.780   1.254   1.337
 1877TIP3    H1 5576   0.792   1.161   1.356
 1877TIP3    H2 5577   0.866   1.282   1.306
 1878TIP3   OH2 5578   7.141   2.967   1.978
 1878TIP3    H1 5579   7.053   3.004   1.985
 1878TIP3    H2 5580   7.199   3.043   1.978
 1879TIP3   OH2 5581   7.696   5.985   5.466
 1879TIP3    H1 5582   7.739   5.984   5.552
 1879TIP3    H2 5583   7.758   5.941   5.408
 1880TIP3   OH2 5584   4.015   7.127   3.244
 1880TIP3    H1 5585   3.941   7.077   3.211
 1880TIP3    H2 5586   3.975   7.200   3.293
 1881TIP3   OH2 5587   3.689   5.323   1.842
 1881TIP3    H1 5588   3.622   5.287   1.900
 1881TIP3    H2 5589   3.768   5.325   1.896
 1882TIP3   OH2 5590   4.691   0.991   3.302
 1882TIP3    H1 5591   4.661   0.935   3.374
 1882TIP3    H2 5592   4.643   1.073   3.314
 1883TIP3   OH2 5593   1.132   7.352   2.453
 1883TIP3    H1 5594   1.049   7.361   2.406
 1883TIP3    H2 5595   1.199   7.377   2.389
 1884TIP3   OH2 5596   3.468   5.094   3.036
 1884TIP3    H1 5597   3.418   5.068   2.958
 1884TIP3    H2 5598   3.487   5.187   3.022
 1885TIP3   OH2 5599   3.109   0.902   6.500
 1885TIP3    H1 5600   3.204   0.897   6.501
 1885TIP3    H2 5601   3.084   0.877   6.411
 1886TIP3   OH2 5602   3.539   2.883   5.780
 1886TIP3    H1 5603   3.552   2.966   5.734
 1886TIP3    H2 5604   3.564   2.816   5.716
 1887TIP3   OH2 5605   7.669   0.259   4.752
 1887TIP3    H1 5606   7.595   0.209   4.786
 1887TIP3    H2 5607   7.674   0.235   4.660
 1888TIP3   OH2 5608   2.895   7.728   4.999
 1888TIP3    H1 5609   2.863   7.638   4.996
 1888TIP3    H2 5610   2.840   7.775   4.937
 1889TIP3   OH2 5611   5.691   3.398   6.052
 1889TIP3    H1 5612   5.740   3.363   6.127
 1889TIP3    H2 5613   5.621   3.451   6.092
 1890TIP3   OH2 5614   3.422   4.875   4.812
 1890TIP3    H1 5615   3.351   4.815   4.835
 1890TIP3    H2 5616   3.471   4.887   4.893
 1891TIP3   OH2 5617   3.649   2.820   1.972
 1891TIP3    H1 5618   3.593   2.742   1.969
 1891TIP3    H2 5619   3.738   2.786   1.968
 1892TIP3   OH2 5620   0.362   7.149   6.613
 1892TIP3    H1 5621   0.298   7.206   6.571
 1892TIP3    H2 5622   0.310   7.084   6.660
 1893TIP3   OH2 5623   6.405   6.421   6.047
 1893TIP3    H1 5624   6.494   6.437   6.080
 1893TIP3    H2 5625   6.361   6.505   6.054
 1894TIP3   OH2 5626   7.348   1.644   2.116
 1894TIP3    H1 5627   7.296   1.565   2.100
 1894TIP3    H2 5628   7.301   1.713   2.069
 1895TIP3   OH2 5629   1.201   2.959   4.839
 1895TIP3    H1 5630   1.273   3.022   4.837
 1895TIP3    H2 5631   1.244   2.874   4.844
 1896TIP3   OH2 5632   3.355   4.611   6.494
 1896TIP3    H1 5633   3.307   4.693   6.500
 1896TIP3    H2 5634   3.410   4.622   6.416
 1897TIP3   OH2 5635   5.906   4.884   6.463
 1897TIP3    H1 5636   5.853   4.834   6.402
 1897TIP3    H2 5637   5.993   4.843   6.458
 1898TIP3   OH2 5638   3.583   5.671   1.182
 1898TIP3    H1 5639   3.575   5.611   1.256
 1898TIP3    H2 5640   3.663   5.721   1.200
 1899TIP3   OH2 5641   7.247   6.173   2.695
 1899TIP3    H1 5642   7.169   6.182   2.749
 1899TIP3    H2 5643   7.234   6.236   2.624
 1900TIP3   OH2 5644   0.954   4.391   3.492
 1900TIP3    H1 5645   0.920   4.469   3.448
 1900TIP3    H2 5646   0.992   4.339   3.421
 1901TIP3   OH2 5647   7.628   5.218   5.311
 1901TIP3    H1 5648   7.559   5.182   5.254
 1901TIP3    H2 5649   7.708   5.176   5.280
 1902TIP3   OH2 5650   7.257   0.310   5.952
 1902TIP3    H1 5651   7.191   0.318   6.021
 1902TIP3    H2 5652   7.214   0.342   5.873
 1903TIP3   OH2 5653   7.771   4.967   3.230
 1903TIP3    H1 5654   7.761   5.055   3.194
 1903TIP3    H2 5655   7.800   4.914   3.156
 1904TIP3   OH2 5656   4.171   2.703   2.110
 1904TIP3    H1 5657   4.194   2.725   2.019
 1904TIP3    H2 5658   4.232   2.633   2.133
 1905TIP3   OH2 5659   6.973   4.684   2.656
 1905TIP3    H1 5660   6.927   4.653   2.734
 1905TIP3    H2 5661   7.015   4.765   2.684
 1906TIP3   OH2 5662   5.525   6.063   4.673
 1906TIP3    H1 5663   5.521   6.145   4.722
 1906TIP3    H2 5664   5.467   6.003   4.721
 1907TIP3   OH2 5665   4.949   4.995   3.315
 1907TIP3    H1 5666   4.885   4.941   3.267
 1907TIP3    H2 5667   4.979   4.938   3.386
 1908TIP3   OH2 5668   1.549   4.320   4.558
 1908TIP3    H1 5669   1.542   4.358   4.470
 1908TIP3    H2 5670   1.465   4.340   4.599
 1909TIP3   OH2 5671   4.729   5.956   4.482
 1909TIP3    H1 5672   4.760   6.026   4.539
 1909TIP3    H2 5673   4.735   5.994   4.394
 1910TIP3   OH2 5674   3.547   0.221   6.314
 1910TIP3    H1 5675   3.521   0.295   6.369
 1910TIP3    H2 5676   3.639   0.206   6.336
 1911TIP3   OH2 5677   3.623   2.137   1.825
 1911TIP3    H1 5678   3.607   2.218   1.777
 1911TIP3    H2 5679   3.582   2.069   1.771
 1912TIP3   OH2 5680   4.110   5.123   3.162
 1912TIP3    H1 5681   4.047   5.190   3.188
 1912TIP3    H2 5682   4.081   5.044   3.208
 1913TIP3   OH2 5683   1.941   6.972   1.131
 1913TIP3    H1 5684   1.933   6.963   1.226
 1913TIP3    H2 5685   1.997   6.898   1.105
 1914TIP3   OH2 5686   5.327   2.128   2.503
 1914TIP3    H1 5687   5.409   2.088   2.533
 1914TIP3    H2 5688   5.285   2.157   2.584
 1915TIP3   OH2 5689   5.174   1.871   5.784
 1915TIP3    H1 5690   5.249   1.814   5.767
 1915TIP3    H2 5691   5.105   1.840   5.726
 1916TIP3   OH2 5692   7.005   6.762   2.846
 1916TIP3    H1 5693   7.008   6.828   2.916
 1916TIP3    H2 5694   7.092   6.722   2.847
 1917TIP3   OH2 5695   6.919   1.062   0.627
 1917TIP3    H1 5696   6.934   1.051   0.533
 1917TIP3    H2 5697   6.973   0.995   0.668
 1918TIP3   OH2 5698   4.847   0.318   0.031
 1918TIP3    H1 5699   4.886   0.393   0.076
 1918TIP3    H2 5700   4.912   0.248   0.042
 1919TIP3   OH2 5701   7.591   3.824   5.894
 1919TIP3    H1 5702   7.510   3.875   5.888
 1919TIP3    H2 5703   7.570   3.752   5.954
 1920TIP3   OH2 5704   7.974   4.923   1.271
 1920TIP3    H1 5705   7.933   4.915   1.357
 1920TIP3    H2 5706   8.037   4.851   1.269
 1921TIP3   OH2 5707   8.215   4.465   3.656
 1921TIP3    H1 5708   8.156   4.536   3.683
 1921TIP3    H2 5709   8.287   4.509   3.611
 1922TIP3   OH2 5710   6.568   5.307   5.673
 1922TIP3    H1 5711   6.577   5.217   5.642
 1922TIP3    H2 5712   6.476   5.329   5.657
 1923TIP3   OH2 5713   2.094   0.397   1.660
 1923TIP3    H1 5714   2.070   0.313   1.620
 1923TIP3    H2 5715   2.132   0.374   1.745
 1924TIP3   OH2 5716   4.344   4.233   1.371
 1924TIP3    H1 5717   4.337   4.311   1.315
 1924TIP3    H2 5718   4.428   4.194   1.346
 1925TIP3   OH2 5719   4.687   1.412   0.219
 1925TIP3    H1 5720   4.764   1.441   0.170
 1925TIP3    H2 5721   4.677   1.319   0.197
 1926TIP3   OH2 5722   1.273   0.619   4.889
 1926TIP3    H1 5723   1.185   0.653   4.871
 1926TIP3    H2 5724   1.260   0.556   4.959
 1927TIP3   OH2 5725   6.436   1.517   1.090
 1927TIP3    H1 5726   6.474   1.578   1.027
 1927TIP3    H2 5727   6.480   1.434   1.074
 1928TIP3   OH2 5728   5.448   7.359   6.634
 1928TIP3    H1 5729   5.399   7.409   6.699
 1928TIP3    H2 5730   5.423   7.397   6.550
 1929TIP3   OH2 5731   3.589   1.158   6.352
 1929TIP3    H1 5732   3.569   1.148   6.259
 1929TIP3    H2 5733   3.678   1.193   6.354
 1930TIP3   OH2 5734   8.248   2.109   3.036
 1930TIP3    H1 5735   8.178   2.045   3.050
 1930TIP3    H2 5736   8.209   2.193   3.057
 1931TIP3   OH2 5737   4.639   0.305   4.877
 1931TIP3    H1 5738   4.574   0.326   4.945
 1931TIP3    H2 5739   4.588   0.262   4.808
 1932TIP3   OH2 5740   1.978   5.318   1.671
 1932TIP3    H1 5741   1.910   5.252   1.680
 1932TIP3    H2 5742   1.958   5.383   1.738
 1933TIP3   OH2 5743   6.473   4.167   0.650
 1933TIP3    H1 5744   6.546   4.125   0.605
 1933TIP3    H2 5745   6.494   4.261   0.648
 1934TIP3   OH2 5746   4.759   4.901   2.227
 1934TIP3    H1 5747   4.762   4.961   2.152
 1934TIP3    H2 5748   4.676   4.854   2.217
 1935TIP3   OH2 5749   2.555   6.454   1.014
 1935TIP3    H1 5750   2.499   6.517   1.059
 1935TIP3    H2 5751   2.565   6.382   1.076
 1936TIP3   OH2 5752   1.836   3.302   2.921
 1936TIP3    H1 5753   1.842   3.219   2.874
 1936TIP3    H2 5754   1.754   3.341   2.889
 1937TIP3   OH2 5755   5.627   4.482   2.802
 1937TIP3    H1 5756   5.589   4.569   2.801
 1937TIP3    H2 5757   5.679   4.479   2.882
 1938TIP3   OH2 5758   6.283   7.339   4.322
 1938TIP3    H1 5759   6.344   7.268   4.344
 1938TIP3    H2 5760   6.310   7.368   4.235
 1939TIP3   OH2 5761   7.991   7.432   1.243
 1939TIP3    H1 5762   8.062   7.391   1.291
 1939TIP3    H2 5763   8.025   7.443   1.154
 1940TIP3   OH2 5764   0.356   0.372   0.932
 1940TIP3    H1 5765   0.319   0.449   0.976
 1940TIP3    H2 5766   0.447   0.371   0.960
 1941TIP3   OH2 5767   4.437   2.791   6.434
 1941TIP3    H1 5768   4.436   2.726   6.363
 1941TIP3    H2 5769   4.397   2.746   6.508
 1942TIP3   OH2 5770   2.004   6.653   3.333
 1942TIP3    H1 5771   1.949   6.710   3.387
 1942TIP3    H2 5772   2.082   6.707   3.315
 1943TIP3   OH2 5773   2.472   0.846   0.152
 1943TIP3    H1 5774   2.490   0.921   0.209
 1943TIP3    H2 5775   2.435   0.779   0.210
 1944TIP3   OH2 5776   7.774   6.619   2.996
 1944TIP3    H1 5777   7.697   6.589   2.947
 1944TIP3    H2 5778   7.795   6.546   3.054
 1945TIP3   OH2 5779   4.321   3.577   2.690
 1945TIP3    H1 5780   4.291   3.641   2.625
 1945TIP3    H2 5781   4.244   3.523   2.708
 1946TIP3   OH2 5782   2.013   4.647   4.671
 1946TIP3    H1 5783   2.082   4.710   4.693
 1946TIP3    H2 5784   1.973   4.626   4.755
 1947TIP3   OH2 5785   1.452   7.491   1.559
 1947TIP3    H1 5786   1.381   7.438   1.596
 1947TIP3    H2 5787   1.525   7.431   1.550
 1948TIP3   OH2 5788   5.552   1.435   1.105
 1948TIP3    H1 5789   5.613   1.370   1.071
 1948TIP3    H2 5790   5.578   1.517   1.063
 1949TIP3   OH2 5791   3.052   4.461   5.438
 1949TIP3    H1 5792   3.133   4.509   5.425
 1949TIP3    H2 5793   2.997   4.486   5.363
 1950TIP3   OH2 5794   5.791   4.533   3.912
 1950TIP3    H1 5795   5.699   4.506   3.911
 1950TIP3    H2 5796   5.788   4.629   3.912
 1951TIP3   OH2 5797   8.201   0.285   1.441
 1951TIP3    H1 5798   8.196   0.192   1.464
 1951TIP3    H2 5799   8.241   0.285   1.353
 1952TIP3   OH2 5800   1.655   6.288   4.344
 1952TIP3    H1 5801   1.571   6.272   4.388
 1952TIP3    H2 5802   1.708   6.211   4.367
 1953TIP3   OH2 5803   5.932   0.680   4.464
 1953TIP3    H1 5804   5.914   0.734   4.540
 1953TIP3    H2 5805   5.870   0.711   4.397
 1954TIP3   OH2 5806   3.200   4.229   1.015
 1954TIP3    H1 5807   3.199   4.133   1.011
 1954TIP3    H2 5808   3.164   4.257   0.930
 1955TIP3   OH2 5809   3.256   3.585   3.658
 1955TIP3    H1 5810   3.243   3.492   3.676
 1955TIP3    H2 5811   3.172   3.626   3.683
 1956TIP3   OH2 5812   2.199   2.016   0.549
 1956TIP3    H1 5813   2.295   2.010   0.546
 1956TIP3    H2 5814   2.170   1.927   0.566
 1957TIP3   OH2 5815   0.533   5.939   0.660
 1957TIP3    H1 5816   0.597   5.997   0.619
 1957TIP3    H2 5817   0.488   5.896   0.587
 1958TIP3   OH2 5818   0.040   6.622   4.769
 1958TIP3    H1 5819   0.106   6.687   4.747
 1958TIP3    H2 5820   0.027   6.572   4.688
 1959TIP3   OH2 5821   6.111   3.357   1.351
 1959TIP3    H1 5822   6.144   3.305   1.278
 1959TIP3    H2 5823   6.081   3.292   1.414
 1960TIP3   OH2 5824   7.864   6.930   5.942
 1960TIP3    H1 5825   7.792   6.978   5.901
 1960TIP3    H2 5826   7.824   6.888   6.018
 1961TIP3   OH2 5827   6.480   3.353   0.290
 1961TIP3    H1 5828   6.482   3.345   0.385
 1961TIP3    H2 5829   6.561   3.310   0.261
 1962TIP3   OH2 5830   6.520   3.135   1.234
 1962TIP3    H1 5831   6.491   3.058   1.186
 1962TIP3    H2 5832   6.484   3.123   1.322
 1963TIP3   OH2 5833   6.534   1.870   0.320
 1963TIP3    H1 5834   6.489   1.888   0.237
 1963TIP3    H2 5835   6.484   1.918   0.386
 1964TIP3   OH2 5836   2.320   4.773   1.537
 1964TIP3    H1 5837   2.399   4.720   1.550
 1964TIP3    H2 5838   2.315   4.787   1.443
 1965TIP3   OH2 5839   4.715   6.026   6.411
 1965TIP3    H1 5840   4.653   5.967   6.453
 1965TIP3    H2 5841   4.701   6.111   6.454
 1966TIP3   OH2 5842   5.017   5.639   0.049
 1966TIP3    H1 5843   5.025   5.726   0.086
 1966TIP3    H2 5844   4.954   5.594   0.106
 1967TIP3   OH2 5845   1.299   6.324   5.585
 1967TIP3    H1 5846   1.285   6.249   5.528
 1967TIP3    H2 5847   1.323   6.285   5.670
 1968TIP3   OH2 5848   7.434   3.624   2.356
 1968TIP3    H1 5849   7.423   3.609   2.263
 1968TIP3    H2 5850   7.509   3.683   2.363
 1969TIP3   OH2 5851   5.994   3.369   3.176
 1969TIP3    H1 5852   5.966   3.298   3.233
 1969TIP3    H2 5853   6.018   3.441   3.235
 1970TIP3   OH2 5854   4.521   7.575   0.796
 1970TIP3    H1 5855   4.482   7.488   0.805
 1970TIP3    H2 5856   4.587   7.564   0.728
 1971TIP3   OH2 5857   2.222   5.157   5.861
 1971TIP3    H1 5858   2.275   5.095   5.911
 1971TIP3    H2 5859   2.214   5.116   5.774
 1972TIP3   OH2 5860   6.707   3.359   1.491
 1972TIP3    H1 5861   6.747   3.432   1.445
 1972TIP3    H2 5862   6.614   3.381   1.495
 1973TIP3   OH2 5863   6.477   5.860   1.646
 1973TIP3    H1 5864   6.503   5.929   1.707
 1973TIP3    H2 5865   6.392   5.888   1.613
 1974TIP3   OH2 5866   4.719   1.448   5.315
 1974TIP3    H1 5867   4.767   1.532   5.316
 1974TIP3    H2 5868   4.654   1.459   5.246
 1975TIP3   OH2 5869   4.102   7.333   1.823
 1975TIP3    H1 5870   4.027   7.327   1.882
 1975TIP3    H2 5871   4.065   7.360   1.739
 1976TIP3   OH2 5872   1.997   6.799   0.002
 1976TIP3    H1 5873   1.920   6.842  -0.035
 1976TIP3    H2 5874   2.026   6.859   0.071
 1977TIP3   OH2 5875   7.052   6.575   5.199
 1977TIP3    H1 5876   7.096   6.515   5.139
 1977TIP3    H2 5877   7.061   6.534   5.285
 1978TIP3   OH2 5878   7.516   1.343   1.434
 1978TIP3    H1 5879   7.542   1.430   1.405
 1978TIP3    H2 5880   7.583   1.318   1.498
 1979TIP3   OH2 5881   7.505   5.562   1.128
 1979TIP3    H1 5882   7.422   5.518   1.147
 1979TIP3    H2 5883   7.561   5.494   1.091
 1980TIP3   OH2 5884   3.444   2.910   3.643
 1980TIP3    H1 5885   3.470   2.930   3.554
 1980TIP3    H2 5886   3.399   2.826   3.637
 1981TIP3   OH2 5887   5.728   5.573   1.064
 1981TIP3    H1 5888   5.701   5.487   1.031
 1981TIP3    H2 5889   5.819   5.582   1.035
 1982TIP3   OH2 5890   8.012   3.203   0.500
 1982TIP3    H1 5891   8.013   3.113   0.468
 1982TIP3    H2 5892   8.070   3.202   0.576
 1983TIP3   OH2 5893   7.573   5.582   3.674
 1983TIP3    H1 5894   7.507   5.650   3.666
 1983TIP3    H2 5895   7.573   5.559   3.767
 1984TIP3   OH2 5896   5.828   1.032   4.032
 1984TIP3    H1 5897   5.913   0.988   4.038
 1984TIP3    H2 5898   5.767   0.973   4.075
 1985TIP3   OH2 5899   4.376   3.356   3.198
 1985TIP3    H1 5900   4.280   3.362   3.204
 1985TIP3    H2 5901   4.407   3.387   3.283
 1986TIP3   OH2 5902   4.474   7.644   4.979
 1986TIP3    H1 5903   4.547   7.700   5.006
 1986TIP3    H2 5904   4.481   7.639   4.884
 1987TIP3   OH2 5905   2.665   7.378   2.694
 1987TIP3    H1 5906   2.709   7.401   2.776
 1987TIP3    H2 5907   2.727   7.401   2.625
 1988TIP3   OH2 5908   0.048   2.786   5.016
 1988TIP3    H1 5909   0.095   2.705   5.034
 1988TIP3    H2 5910  -0.025   2.786   5.077
 1989TIP3   OH2 5911   5.013   2.715   5.506
 1989TIP3    H1 5912   4.925   2.724   5.543
 1989TIP3    H2 5913   4.999   2.694   5.414
 1990TIP3   OH2 5914   3.416   1.812   3.686
 1990TIP3    H1 5915   3.366   1.739   3.648
 1990TIP3    H2 5916   3.367   1.890   3.662
 1991TIP3   OH2 5917   1.328   4.864   1.099
 1991TIP3    H1 5918   1.390   4.890   1.167
 1991TIP3    H2 5919   1.360   4.907   1.019
 1992TIP3   OH2 5920   7.706   2.705   6.662
 1992TIP3    H1 5921   7.655   2.695   6.581
 1992TIP3    H2 5922   7.661   2.776   6.709
 1993TIP3   OH2 5923   7.834   3.262   1.357
 1993TIP3    H1 5924   7.826   3.339   1.300
 1993TIP3    H2 5925   7.779   3.283   1.432
 1994TIP3   OH2 5926   0.984   5.791   0.652
 1994TIP3    H1 5927   1.047   5.725   0.681
 1994TIP3    H2 5928   0.913   5.741   0.613
 1995TIP3   OH2 5929   3.504   1.196   2.243
 1995TIP3    H1 5930   3.502   1.119   2.301
 1995TIP3    H2 5931   3.465   1.165   2.161
 1996TIP3   OH2 5932   6.841   6.759   0.161
 1996TIP3    H1 5933   6.781   6.744   0.088
 1996TIP3    H2 5934   6.799   6.718   0.236
 1997TIP3   OH2 5935   1.429   7.666   3.453
 1997TIP3    H1 5936   1.494   7.736   3.446
 1997TIP3    H2 5937   1.389   7.678   3.539
 1998TIP3   OH2 5938   3.581  -0.005   6.590
 1998TIP3    H1 5939   3.609  -0.053   6.513
 1998TIP3    H2 5940   3.498   0.036   6.563
 1999TIP3   OH2 5941   8.167   3.421   2.545
 1999TIP3    H1 5942   8.151   3.451   2.634
 1999TIP3    H2 5943   8.110   3.475   2.490
 2000TIP3   OH2 5944   1.147   0.058   1.436
 2000TIP3    H1 5945   1.217  -0.003   1.410
 2000TIP3    H2 5946   1.183   0.103   1.513
 2001TIP3   OH2 5947   7.662   1.098   1.196
 2001TIP3    H1 5948   7.667   1.011   1.156
 2001TIP3    H2 5949   7.575   1.102   1.236
 2002TIP3   OH2 5950   0.569   7.211   1.582
 2002TIP3    H1 5951   0.610   7.294   1.557
 2002TIP3    H2 5952   0.476   7.231   1.587
 2003TIP3   OH2 5953   4.504   7.796   3.309
 2003TIP3    H1 5954   4.462   7.822   3.392
 2003TIP3    H2 5955   4.580   7.745   3.336
 2004TIP3   OH2 5956   4.663   0.579   6.341
 2004TIP3    H1 5957   4.708   0.510   6.391
 2004TIP3    H2 5958   4.723   0.600   6.270
 2005TIP3   OH2 5959   2.961   1.358   2.478
 2005TIP3    H1 5960   3.043   1.308   2.473
 2005TIP3    H2 5961   2.895   1.300   2.439
 2006TIP3   OH2 5962   0.197   0.465   6.431
 2006TIP3    H1 5963   0.123   0.405   6.444
 2006TIP3    H2 5964   0.200   0.517   6.512
 2007TIP3   OH2 5965   5.293   3.920   2.025
 2007TIP3    H1 5966   5.268   3.992   2.081
 2007TIP3    H2 5967   5.210   3.884   1.992
 2008TIP3   OH2 5968   2.525   4.742   2.814
 2008TIP3    H1 5969   2.479   4.755   2.732
 2008TIP3    H2 5970   2.529   4.829   2.854
 2009TIP3   OH2 5971   8.203   6.922   6.170
 2009TIP3    H1 5972   8.253   6.944   6.091
 2009TIP3    H2 5973   8.260   6.862   6.218
 2010TIP3   OH2 5974   0.891   6.772   4.950
 2010TIP3    H1 5975   0.963   6.781   5.012
 2010TIP3    H2 5976   0.933   6.777   4.864
 2011TIP3   OH2 5977   3.884   3.180   6.503
 2011TIP3    H1 5978   3.961   3.237   6.498
 2011TIP3    H2 5979   3.919   3.092   6.487
 2012TIP3   OH2 5980   4.523   2.028   3.062
 2012TIP3    H1 5981   4.552   2.105   3.012
 2012TIP3    H2 5982   4.579   1.957   3.032
 2013TIP3   OH2 5983   7.279   1.902   6.377
 2013TIP3    H1 5984   7.329   1.980   6.354
 2013TIP3    H2 5985   7.211   1.896   6.310
 2014TIP3   OH2 5986   4.189   1.062   5.242
 2014TIP3    H1 5987   4.109   1.041   5.291
 2014TIP3    H2 5988   4.195   0.994   5.175
 2015TIP3   OH2 5989   7.724   1.315   5.642
 2015TIP3    H1 5990   7.665   1.389   5.655
 2015TIP3    H2 5991   7.810   1.354   5.632
 2016TIP3   OH2 5992   0.361   6.891   3.205
 2016TIP3    H1 5993   0.317   6.863   3.285
 2016TIP3    H2 5994   0.454   6.875   3.222
 2017TIP3   OH2 5995   1.798   2.831   0.986
 2017TIP3    H1 5996   1.869   2.895   0.985
 2017TIP3    H2 5997   1.764   2.831   0.896
 2018TIP3   OH2 5998   7.853   6.229   2.938
 2018TIP3    H1 5999   7.943   6.262   2.932
 2018TIP3    H2 6000   7.798   6.305   2.917
 2019TIP3   OH2 6001   4.056   5.649   4.076
 2019TIP3    H1 6002   3.965   5.627   4.096
 2019TIP3    H2 6003   4.074   5.604   3.993
 2020TIP3   OH2 6004   3.636   7.325   6.687
 2020TIP3    H1 6005   3.712   7.275   6.657
 2020TIP3    H2 6006   3.600   7.363   6.607
 2021TIP3   OH2 6007   0.285   4.932   2.824
 2021TIP3    H1 6008   0.243   4.847   2.833
 2021TIP3    H2 6009   0.255   4.965   2.740
 2022TIP3   OH2 6010   6.441   1.863   3.387
 2022TIP3    H1 6011   6.369   1.914   3.425
 2022TIP3    H2 6012   6.402   1.780   3.362
 2023TIP3   OH2 6013   3.034   5.516   2.109
 2023TIP3    H1 6014   3.094   5.591   2.106
 2023TIP3    H2 6015   2.950   5.552   2.079
 2024TIP3   OH2 6016   6.655   3.192   3.367
 2024TIP3    H1 6017   6.736   3.171   3.320
 2024TIP3    H2 6018   6.619   3.106   3.392
 2025TIP3   OH2 6019   7.026   2.669   1.710
 2025TIP3    H1 6020   6.975   2.592   1.686
 2025TIP3    H2 6021   6.980   2.707   1.785
 2026TIP3   OH2 6022   3.570   6.001   5.764
 2026TIP3    H1 6023   3.626   5.974   5.836
 2026TIP3    H2 6024   3.568   5.925   5.705
 2027TIP3   OH2 6025   1.953   6.078   3.767
 2027TIP3    H1 6026   1.987   6.167   3.777
 2027TIP3    H2 6027   1.875   6.088   3.713
 2028TIP3   OH2 6028   5.018   4.237   5.777
 2028TIP3    H1 6029   5.051   4.148   5.793
 2028TIP3    H2 6030   4.928   4.235   5.809
 2029TIP3   OH2 6031   3.023   6.977   1.188
 2029TIP3    H1 6032   2.989   7.057   1.148
 2029TIP3    H2 6033   2.950   6.945   1.241
 2030TIP3   OH2 6034   7.953   7.563   2.296
 2030TIP3    H1 6035   7.919   7.479   2.324
 2030TIP3    H2 6036   7.986   7.548   2.207
 2031TIP3   OH2 6037   7.862   2.345   6.551
 2031TIP3    H1 6038   7.796   2.349   6.482
 2031TIP3    H2 6039   7.900   2.432   6.553
 2032TIP3   OH2 6040   2.325   3.109   2.315
 2032TIP3    H1 6041   2.416   3.090   2.290
 2032TIP3    H2 6042   2.332   3.174   2.384
 2033TIP3   OH2 6043   3.270   3.828   0.983
 2033TIP3    H1 6044   3.258   3.873   1.067
 2033TIP3    H2 6045   3.308   3.743   1.007
 2034TIP3   OH2 6046   7.420   4.924   3.170
 2034TIP3    H1 6047   7.367   4.982   3.224
 2034TIP3    H2 6048   7.402   4.953   3.080
 2035TIP3   OH2 6049   3.130   4.428   4.071
 2035TIP3    H1 6050   3.217   4.405   4.038
 2035TIP3    H2 6051   3.086   4.344   4.083
 2036TIP3   OH2 6052   4.113   3.626   1.975
 2036TIP3    H1 6053   4.196   3.671   1.988
 2036TIP3    H2 6054   4.106   3.566   2.049
 2037TIP3   OH2 6055   4.860   6.775   1.976
 2037TIP3    H1 6056   4.928   6.821   2.026
 2037TIP3    H2 6057   4.877   6.798   1.885
 2038TIP3   OH2 6058   1.290   4.774   2.287
 2038TIP3    H1 6059   1.262   4.709   2.352
 2038TIP3    H2 6060   1.331   4.723   2.218
 2039TIP3   OH2 6061   2.062   7.167   3.799
 2039TIP3    H1 6062   1.997   7.221   3.755
 2039TIP3    H2 6063   2.029   7.078   3.790
 2040TIP3   OH2 6064   3.897   2.197   3.531
 2040TIP3    H1 6065   3.894   2.161   3.620
 2040TIP3    H2 6066   3.869   2.288   3.542
 2041TIP3   OH2 6067   6.905   1.346   1.415
 2041TIP3    H1 6068   6.906   1.442   1.423
 2041TIP3    H2 6069   6.812   1.323   1.415
 2042TIP3   OH2 6070   4.929   1.096   3.203
 2042TIP3    H1 6071   4.892   1.146   3.131
 2042TIP3    H2 6072   4.859   1.037   3.230
 2043TIP3   OH2 6073   2.139   5.642   4.018
 2043TIP3    H1 6074   2.225   5.651   3.975
 2043TIP3    H2 6075   2.102   5.730   4.014
 2044TIP3   OH2 6076   5.612   0.404   3.098
 2044TIP3    H1 6077   5.632   0.437   3.011
 2044TIP3    H2 6078   5.516   0.405   3.102
 2045TIP3   OH2 6079   0.646   4.057   1.148
 2045TIP3    H1 6080   0.609   4.024   1.229
 2045TIP3    H2 6081   0.712   3.992   1.123
 2046TIP3   OH2 6082   1.544   0.729   2.644
 2046TIP3    H1 6083   1.592   0.722   2.727
 2046TIP3    H2 6084   1.569   0.814   2.609
 2047TIP3   OH2 6085   7.979   6.956   4.750
 2047TIP3    H1 6086   7.928   6.910   4.684
 2047TIP3    H2 6087   8.022   6.886   4.801
 2048TIP3   OH2 6088   1.489   4.649   6.535
 2048TIP3    H1 6089   1.534   4.609   6.610
 2048TIP3    H2 6090   1.516   4.741   6.537
 2049TIP3   OH2 6091   5.973   7.007   5.782
 2049TIP3    H1 6092   6.052   7.028   5.731
 2049TIP3    H2 6093   5.988   6.918   5.813
 2050TIP3   OH2 6094   7.446   7.754   4.802
 2050TIP3    H1 6095   7.539   7.775   4.803
 2050TIP3    H2 6096   7.437   7.686   4.735
 2051TIP3   OH2 6097   6.901   2.924   3.899
 2051TIP3    H1 6098   6.878   2.970   3.818
 2051TIP3    H2 6099   6.904   2.831   3.873
 2052TIP3   OH2 6100   4.334   4.798   5.158
 2052TIP3    H1 6101   4.317   4.742   5.234
 2052TIP3    H2 6102   4.266   4.775   5.095
 2053TIP3   OH2 6103   1.879   0.968   4.189
 2053TIP3    H1 6104   1.821   0.942   4.118
 2053TIP3    H2 6105   1.920   0.886   4.218
 2054TIP3   OH2 6106   7.274   5.247   3.637
 2054TIP3    H1 6107   7.370   5.242   3.632
 2054TIP3    H2 6108   7.250   5.177   3.698
 2055TIP3   OH2 6109   6.560   7.030   4.918
 2055TIP3    H1 6110   6.650   7.061   4.932
 2055TIP3    H2 6111   6.534   7.068   4.835
 2056TIP3   OH2 6112   3.137   6.161   6.450
 2056TIP3    H1 6113   3.200   6.093   6.427
 2056TIP3    H2 6114   3.190   6.239   6.465
 2057TIP3   OH2 6115   1.339   0.037   6.422
 2057TIP3    H1 6116   1.285   0.075   6.353
 2057TIP3    H2 6117   1.297  -0.047   6.442
 2058TIP3   OH2 6118   3.161   1.467   6.091
 2058TIP3    H1 6119   3.222   1.405   6.052
 2058TIP3    H2 6120   3.077   1.421   6.092
 2059TIP3   OH2 6121   7.788   4.388   3.222
 2059TIP3    H1 6122   7.870   4.411   3.266
 2059TIP3    H2 6123   7.775   4.459   3.159
 2060TIP3   OH2 6124   6.681   0.654   4.533
 2060TIP3    H1 6125   6.619   0.595   4.489
 2060TIP3    H2 6126   6.766   0.613   4.520
 2061TIP3   OH2 6127   0.762   3.157   4.486
 2061TIP3    H1 6128   0.729   3.125   4.402
 2061TIP3    H2 6129   0.845   3.111   4.499
 2062TIP3   OH2 6130   4.408   7.609   1.647
 2062TIP3    H1 6131   4.447   7.662   1.578
 2062TIP3    H2 6132   4.314   7.627   1.641
 2063TIP3   OH2 6133   5.244   2.510   2.922
 2063TIP3    H1 6134   5.163   2.493   2.971
 2063TIP3    H2 6135   5.313   2.498   2.986
 2064TIP3   OH2 6136   4.580   3.543   0.145
 2064TIP3    H1 6137   4.505   3.533   0.086
 2064TIP3    H2 6138   4.542   3.572   0.228
 2065TIP3   OH2 6139   4.519   0.957   1.233
 2065TIP3    H1 6140   4.576   0.896   1.280
 2065TIP3    H2 6141   4.432   0.942   1.271
 2066TIP3   OH2 6142   0.863   7.551   2.534
 2066TIP3    H1 6143   0.819   7.479   2.579
 2066TIP3    H2 6144   0.955   7.545   2.562
 2067TIP3   OH2 6145   4.523   0.269   3.774
 2067TIP3    H1 6146   4.529   0.244   3.682
 2067TIP3    H2 6147   4.473   0.198   3.815
 2068TIP3   OH2 6148   2.922   6.703   0.653
 2068TIP3    H1 6149   2.876   6.787   0.644
 2068TIP3    H2 6150   2.862   6.648   0.703
 2069TIP3   OH2 6151   3.183   4.202   5.417
 2069TIP3    H1 6152   3.230   4.265   5.472
 2069TIP3    H2 6153   3.099   4.244   5.400
 2070TIP3   OH2 6154   1.677   2.933   4.825
 2070TIP3    H1 6155   1.643   2.848   4.796
 2070TIP3    H2 6156   1.752   2.949   4.767
 2071TIP3   OH2 6157   3.010   4.207   0.216
 2071TIP3    H1 6158   3.002   4.293   0.176
 2071TIP3    H2 6159   2.923   4.168   0.207
 2072TIP3   OH2 6160   6.761   7.341   1.952
 2072TIP3    H1 6161   6.844   7.322   1.907
 2072TIP3    H2 6162   6.694   7.311   1.891
 2073TIP3   OH2 6163   4.777   5.276   5.502
 2073TIP3    H1 6164   4.687   5.246   5.488
 2073TIP3    H2 6165   4.826   5.242   5.427
 2074TIP3   OH2 6166   1.261   4.335   2.301
 2074TIP3    H1 6167   1.263   4.351   2.206
 2074TIP3    H2 6168   1.275   4.422   2.339
 2075TIP3   OH2 6169   5.783   4.427   5.789
 2075TIP3    H1 6170   5.733   4.345   5.785
 2075TIP3    H2 6171   5.841   4.416   5.864
 2076TIP3   OH2 6172   4.912   0.501   2.263
 2076TIP3    H1 6173   4.981   0.524   2.201
 2076TIP3    H2 6174   4.924   0.407   2.277
 2077TIP3   OH2 6175   5.663   6.349   4.175
 2077TIP3    H1 6176   5.629   6.271   4.219
 2077TIP3    H2 6177   5.585   6.398   4.149
 2078TIP3   OH2 6178   0.896   2.787   0.137
 2078TIP3    H1 6179   0.883   2.805   0.230
 2078TIP3    H2 6180   0.927   2.697   0.133
 2079TIP3   OH2 6181   6.318   5.941   1.002
 2079TIP3    H1 6182   6.355   6.024   0.971
 2079TIP3    H2 6183   6.281   5.900   0.924
 2080TIP3   OH2 6184   7.476   6.550   4.872
 2080TIP3    H1 6185   7.489   6.603   4.951
 2080TIP3    H2 6186   7.532   6.591   4.806
 2081TIP3   OH2 6187   3.793   4.205   4.548
 2081TIP3    H1 6188   3.710   4.227   4.507
 2081TIP3    H2 6189   3.770   4.184   4.639
 2082TIP3   OH2 6190   0.210   4.127   2.200
 2082TIP3    H1 6191   0.262   4.206   2.180
 2082TIP3    H2 6192   0.256   4.087   2.274
 2083TIP3   OH2 6193   2.243   3.527   3.302
 2083TIP3    H1 6194   2.183   3.561   3.236
 2083TIP3    H2 6195   2.229   3.432   3.301
 2084TIP3   OH2 6196   5.182   3.743   1.112
 2084TIP3    H1 6197   5.160   3.650   1.114
 2084TIP3    H2 6198   5.265   3.748   1.066
 2085TIP3   OH2 6199   2.201   3.465   3.778
 2085TIP3    H1 6200   2.128   3.406   3.794
 2085TIP3    H2 6201   2.161   3.551   3.765
 2086TIP3   OH2 6202   4.015   0.151   3.117
 2086TIP3    H1 6203   4.003   0.178   3.026
 2086TIP3    H2 6204   4.038   0.058   3.113
 2087TIP3   OH2 6205   4.452   1.786   4.537
 2087TIP3    H1 6206   4.433   1.696   4.513
 2087TIP3    H2 6207   4.527   1.780   4.596
 2088TIP3   OH2 6208   4.841   1.723   6.139
 2088TIP3    H1 6209   4.820   1.656   6.204
 2088TIP3    H2 6210   4.817   1.806   6.182
 2089TIP3   OH2 6211   5.968   2.662   1.886
 2089TIP3    H1 6212   5.888   2.625   1.850
 2089TIP3    H2 6213   5.939   2.735   1.940
 2090TIP3   OH2 6214   4.374   7.284   0.894
 2090TIP3    H1 6215   4.423   7.297   0.976
 2090TIP3    H2 6216   4.315   7.211   0.912
 2091TIP3   OH2 6217   5.530   4.116   6.400
 2091TIP3    H1 6218   5.583   4.175   6.346
 2091TIP3    H2 6219   5.463   4.172   6.439
 2092TIP3   OH2 6220   4.838   7.541   2.221
 2092TIP3    H1 6221   4.781   7.539   2.299
 2092TIP3    H2 6222   4.838   7.634   2.196
 2093TIP3   OH2 6223   6.421   4.578   3.083
 2093TIP3    H1 6224   6.447   4.489   3.059
 2093TIP3    H2 6225   6.439   4.584   3.176
 2094TIP3   OH2 6226   7.396   0.883   0.891
 2094TIP3    H1 6227   7.385   0.844   0.978
 2094TIP3    H2 6228   7.441   0.966   0.907
 2095TIP3   OH2 6229   2.159   2.630   4.535
 2095TIP3    H1 6230   2.144   2.563   4.601
 2095TIP3    H2 6231   2.129   2.712   4.576
 2096TIP3   OH2 6232   4.659   1.485   5.690
 2096TIP3    H1 6233   4.576   1.471   5.646
 2096TIP3    H2 6234   4.724   1.486   5.620
 2097TIP3   OH2 6235   2.000   3.374   1.694
 2097TIP3    H1 6236   2.042   3.298   1.734
 2097TIP3    H2 6237   2.051   3.391   1.615
 2098TIP3   OH2 6238   6.665   4.205   6.146
 2098TIP3    H1 6239   6.741   4.148   6.135
 2098TIP3    H2 6240   6.590   4.145   6.150
 2099TIP3   OH2 6241   3.730   5.775   4.637
 2099TIP3    H1 6242   3.659   5.774   4.574
 2099TIP3    H2 6243   3.745   5.684   4.660
 2100TIP3   OH2 6244   3.004   1.288   2.754
 2100TIP3    H1 6245   3.094   1.271   2.725
 2100TIP3    H2 6246   2.958   1.316   2.675
 2101TIP3   OH2 6247   3.188   7.084   6.598
 2101TIP3    H1 6248   3.196   6.988   6.601
 2101TIP3    H2 6249   3.259   7.115   6.654
 2102TIP3   OH2 6250   6.984   5.044   2.675
 2102TIP3    H1 6251   6.957   5.035   2.766
 2102TIP3    H2 6252   7.071   5.085   2.679
 2103TIP3   OH2 6253   7.769   3.527   1.218
 2103TIP3    H1 6254   7.685   3.497   1.184
 2103TIP3    H2 6255   7.774   3.619   1.190
 2104TIP3   OH2 6256   2.279   7.158   3.255
 2104TIP3    H1 6257   2.345   7.110   3.204
 2104TIP3    H2 6258   2.201   7.159   3.199
 2105TIP3   OH2 6259   1.690   1.091   3.193
 2105TIP3    H1 6260   1.673   0.997   3.194
 2105TIP3    H2 6261   1.655   1.121   3.109
 2106TIP3   OH2 6262   0.760   1.002   0.535
 2106TIP3    H1 6263   0.689   1.065   0.526
 2106TIP3    H2 6264   0.723   0.932   0.590
 2107TIP3   OH2 6265   2.353   3.311   2.484
 2107TIP3    H1 6266   2.445   3.335   2.473
 2107TIP3    H2 6267   2.305   3.392   2.467
 2108TIP3   OH2 6268   5.757   4.084   1.866
 2108TIP3    H1 6269   5.765   4.055   1.775
 2108TIP3    H2 6270   5.666   4.064   1.889
 2109TIP3   OH2 6271   3.436   1.560   1.619
 2109TIP3    H1 6272   3.374   1.632   1.628
 2109TIP3    H2 6273   3.500   1.590   1.555
 2110TIP3   OH2 6274   0.370   1.806   0.830
 2110TIP3    H1 6275   0.334   1.747   0.895
 2110TIP3    H2 6276   0.465   1.798   0.840
 2111TIP3   OH2 6277   4.553   4.817   3.536
 2111TIP3    H1 6278   4.547   4.909   3.512
 2111TIP3    H2 6279   4.497   4.772   3.472
 2112TIP3   OH2 6280   5.660   6.702   4.647
 2112TIP3    H1 6281   5.684   6.756   4.722
 2112TIP3    H2 6282   5.572   6.671   4.667
 2113TIP3   OH2 6283   6.202   0.692   1.303
 2113TIP3    H1 6284   6.260   0.731   1.368
 2113TIP3    H2 6285   6.202   0.754   1.230
 2114TIP3   OH2 6286   5.355   2.695   0.173
 2114TIP3    H1 6287   5.283   2.710   0.113
 2114TIP3    H2 6288   5.386   2.782   0.197
 2115TIP3   OH2 6289   8.067   6.177   0.667
 2115TIP3    H1 6290   8.044   6.189   0.575
 2115TIP3    H2 6291   8.126   6.101   0.667
 2116TIP3   OH2 6292   0.061   4.185   4.282
 2116TIP3    H1 6293   0.073   4.146   4.195
 2116TIP3    H2 6294   0.138   4.156   4.332
 2117TIP3   OH2 6295   2.817   5.761   0.604
 2117TIP3    H1 6296   2.868   5.842   0.601
 2117TIP3    H2 6297   2.787   5.749   0.514
 2118TIP3   OH2 6298   7.816   4.797   5.281
 2118TIP3    H1 6299   7.739   4.802   5.337
 2118TIP3    H2 6300   7.835   4.889   5.259
 2119TIP3   OH2 6301   3.678   1.256   0.047
 2119TIP3    H1 6302   3.687   1.267  -0.048
 2119TIP3    H2 6303   3.752   1.305   0.083
 2120TIP3   OH2 6304   1.275   3.124   6.760
 2120TIP3    H1 6305   1.301   3.194   6.699
 2120TIP3    H2 6306   1.188   3.151   6.791
 2121TIP3   OH2 6307   7.613   5.771   1.856
 2121TIP3    H1 6308   7.662   5.699   1.818
 2121TIP3    H2 6309   7.581   5.737   1.940
 2122TIP3   OH2 6310   0.144   6.233   5.822
 2122TIP3    H1 6311   0.158   6.291   5.747
 2122TIP3    H2 6312   0.228   6.230   5.867
 2123TIP3   OH2 6313   4.765   7.195   6.185
 2123TIP3    H1 6314   4.727   7.158   6.106
 2123TIP3    H2 6315   4.758   7.290   6.173
 2124TIP3   OH2 6316   1.846   3.698   4.946
 2124TIP3    H1 6317   1.790   3.723   5.019
 2124TIP3    H2 6318   1.852   3.603   4.950
 2125TIP3   OH2 6319   3.843   5.979   0.006
 2125TIP3    H1 6320   3.921   5.974   0.060
 2125TIP3    H2 6321   3.827   5.888  -0.022
 2126TIP3   OH2 6322   5.165   6.744   4.447
 2126TIP3    H1 6323   5.122   6.795   4.379
 2126TIP3    H2 6324   5.129   6.777   4.529
 2127TIP3   OH2 6325   1.312   4.379   4.680
 2127TIP3    H1 6326   1.226   4.395   4.641
 2127TIP3    H2 6327   1.323   4.450   4.744
 2128TIP3   OH2 6328   5.754   4.794   4.189
 2128TIP3    H1 6329   5.748   4.863   4.255
 2128TIP3    H2 6330   5.709   4.719   4.227
 2129TIP3   OH2 6331   1.358   0.885   5.375
 2129TIP3    H1 6332   1.282   0.852   5.327
 2129TIP3    H2 6333   1.334   0.975   5.399
 2130TIP3   OH2 6334   7.718   6.150   2.277
 2130TIP3    H1 6335   7.794   6.098   2.304
 2130TIP3    H2 6336   7.680   6.181   2.359
 2131TIP3   OH2 6337   5.105   4.740   1.481
 2131TIP3    H1 6338   5.171   4.751   1.412
 2131TIP3    H2 6339   5.058   4.661   1.457
 2132TIP3   OH2 6340   1.119   5.947   3.334
 2132TIP3    H1 6341   1.195   6.003   3.321
 2132TIP3    H2 6342   1.046   6.009   3.346
 2133TIP3   OH2 6343   3.469   1.100   0.771
 2133TIP3    H1 6344   3.500   1.010   0.758
 2133TIP3    H2 6345   3.543   1.146   0.809
 2134TIP3   OH2 6346   1.061   4.386   6.089
 2134TIP3    H1 6347   1.150   4.356   6.107
 2134TIP3    H2 6348   1.065   4.481   6.096
 2135TIP3   OH2 6349   4.356   2.588   0.341
 2135TIP3    H1 6350   4.385   2.502   0.311
 2135TIP3    H2 6351   4.429   2.647   0.323
 2136TIP3   OH2 6352   7.199   4.734   3.679
 2136TIP3    H1 6353   7.133   4.673   3.714
 2136TIP3    H2 6354   7.147   4.806   3.643
 2137TIP3   OH2 6355   4.725   3.593   4.170
 2137TIP3    H1 6356   4.673   3.530   4.220
 2137TIP3    H2 6357   4.666   3.626   4.103
 2138TIP3   OH2 6358   0.837   1.406   3.442
 2138TIP3    H1 6359   0.856   1.431   3.532
 2138TIP3    H2 6360   0.919   1.423   3.395
 2139TIP3   OH2 6361   2.834   5.076   6.249
 2139TIP3    H1 6362   2.842   4.993   6.294
 2139TIP3    H2 6363   2.794   5.135   6.313
 2140TIP3   OH2 6364   5.139   7.095   0.123
 2140TIP3    H1 6365   5.155   7.107   0.030
 2140TIP3    H2 6366   5.225   7.102   0.164
 2141TIP3   OH2 6367   2.471   7.136   1.515
 2141TIP3    H1 6368   2.383   7.101   1.515
 2141TIP3    H2 6369   2.525   7.066   1.551
 2142TIP3   OH2 6370   7.868   3.447   5.339
 2142TIP3    H1 6371   7.866   3.445   5.243
 2142TIP3    H2 6372   7.910   3.530   5.361
 2143TIP3   OH2 6373   2.699   3.221   4.588
 2143TIP3    H1 6374   2.624   3.221   4.647
 2143TIP3    H2 6375   2.719   3.128   4.574
 2144TIP3   OH2 6376   2.690   7.437   3.533
 2144TIP3    H1 6377   2.609   7.442   3.584
 2144TIP3    H2 6378   2.760   7.450   3.597
 2145TIP3   OH2 6379   7.178   5.449   4.355
 2145TIP3    H1 6380   7.248   5.512   4.375
 2145TIP3    H2 6381   7.211   5.366   4.388
 2146TIP3   OH2 6382   4.874   7.597   4.820
 2146TIP3    H1 6383   4.810   7.538   4.781
 2146TIP3    H2 6384   4.823   7.674   4.847
 2147TIP3   OH2 6385   0.672   1.710   0.839
 2147TIP3    H1 6386   0.654   1.710   0.933
 2147TIP3    H2 6387   0.766   1.729   0.833
 2148TIP3   OH2 6388   4.686   2.341   4.476
 2148TIP3    H1 6389   4.653   2.325   4.564
 2148TIP3    H2 6390   4.620   2.399   4.436
 2149TIP3   OH2 6391   2.069   1.661   3.162
 2149TIP3    H1 6392   2.097   1.735   3.216
 2149TIP3    H2 6393   2.089   1.689   3.072
 2150TIP3   OH2 6394   7.026   0.049   1.051
 2150TIP3    H1 6395   6.961   0.096   0.998
 2150TIP3    H2 6396   6.974  -0.011   1.104
 2151TIP3   OH2 6397   6.789   2.957   1.129
 2151TIP3    H1 6398   6.873   2.960   1.176
 2151TIP3    H2 6399   6.724   2.970   1.198
 2152TIP3   OH2 6400   1.992   1.526   5.377
 2152TIP3    H1 6401   2.025   1.552   5.464
 2152TIP3    H2 6402   2.018   1.598   5.319
 2153TIP3   OH2 6403   6.626   1.818   1.145
 2153TIP3    H1 6404   6.679   1.753   1.099
 2153TIP3    H2 6405   6.686   1.890   1.164
 2154TIP3   OH2 6406   3.857   3.178   5.409
 2154TIP3    H1 6407   3.934   3.191   5.463
 2154TIP3    H2 6408   3.824   3.092   5.434
 2155TIP3   OH2 6409   3.991   6.039   0.219
 2155TIP3    H1 6410   4.077   6.057   0.257
 2155TIP3    H2 6411   3.936   6.112   0.247
 2156TIP3   OH2 6412   4.689   2.598   1.633
 2156TIP3    H1 6413   4.689   2.629   1.724
 2156TIP3    H2 6414   4.601   2.564   1.619
 2157TIP3   OH2 6415   2.243   2.041   4.755
 2157TIP3    H1 6416   2.244   2.061   4.661
 2157TIP3    H2 6417   2.153   2.062   4.782
 2158TIP3   OH2 6418   5.475   7.590   1.344
 2158TIP3    H1 6419   5.533   7.516   1.360
 2158TIP3    H2 6420   5.468   7.634   1.429
 2159TIP3   OH2 6421   1.096   5.041   5.547
 2159TIP3    H1 6422   1.147   4.965   5.518
 2159TIP3    H2 6423   1.042   5.065   5.471
 2160TIP3   OH2 6424   5.902   7.733   6.550
 2160TIP3    H1 6425   5.964   7.697   6.614
 2160TIP3    H2 6426   5.816   7.723   6.593
 2161TIP3   OH2 6427   2.854   0.048   3.852
 2161TIP3    H1 6428   2.941   0.074   3.821
 2161TIP3    H2 6429   2.795   0.081   3.785
 2162TIP3   OH2 6430   0.794   2.043   1.927
 2162TIP3    H1 6431   0.868   2.066   1.983
 2162TIP3    H2 6432   0.827   1.971   1.872
 2163TIP3   OH2 6433   6.280   0.555   2.246
 2163TIP3    H1 6434   6.250   0.503   2.172
 2163TIP3    H2 6435   6.358   0.510   2.277
 2164TIP3   OH2 6436   1.633   1.893   1.312
 2164TIP3    H1 6437   1.590   1.975   1.335
 2164TIP3    H2 6438   1.713   1.892   1.365
 2165TIP3   OH2 6439   8.297   5.001   3.991
 2165TIP3    H1 6440   8.298   5.089   3.954
 2165TIP3    H2 6441   8.219   4.960   3.955
 2166TIP3   OH2 6442   4.250   0.081   2.233
 2166TIP3    H1 6443   4.292   0.023   2.170
 2166TIP3    H2 6444   4.261   0.037   2.317
 2167TIP3   OH2 6445   1.924   4.793   0.390
 2167TIP3    H1 6446   2.001   4.850   0.396
 2167TIP3    H2 6447   1.934   4.747   0.307
 2168TIP3   OH2 6448   2.451   6.902   6.703
 2168TIP3    H1 6449   2.523   6.962   6.720
 2168TIP3    H2 6450   2.482   6.817   6.734
 2169TIP3   OH2 6451   0.047   5.005   1.542
 2169TIP3    H1 6452   0.037   4.948   1.466
 2169TIP3    H2 6453   0.119   5.064   1.519
 2170TIP3   OH2 6454   2.425   5.411   5.970
 2170TIP3    H1 6455   2.465   5.464   5.901
 2170TIP3    H2 6456   2.484   5.337   5.981
 2171TIP3   OH2 6457   6.578   6.118   1.211
 2171TIP3    H1 6458   6.522   6.184   1.252
 2171TIP3    H2 6459   6.543   6.109   1.122
 2172TIP3   OH2 6460   6.414   6.015   0.196
 2172TIP3    H1 6461   6.334   6.039   0.150
 2172TIP3    H2 6462   6.485   6.052   0.143
 2173TIP3   OH2 6463   3.622   4.342   6.011
 2173TIP3    H1 6464   3.543   4.287   6.010
 2173TIP3    H2 6465   3.658   4.333   5.923
 2174TIP3   OH2 6466   5.363   0.384   4.711
 2174TIP3    H1 6467   5.348   0.289   4.709
 2174TIP3    H2 6468   5.450   0.395   4.673
 2175TIP3   OH2 6469   2.758   3.539   0.576
 2175TIP3    H1 6470   2.775   3.450   0.607
 2175TIP3    H2 6471   2.684   3.569   0.628
 2176TIP3   OH2 6472   0.061   7.375   6.160
 2176TIP3    H1 6473   0.008   7.295   6.168
 2176TIP3    H2 6474   0.055   7.398   6.068
 2177TIP3   OH2 6475   5.357   5.799   4.218
 2177TIP3    H1 6476   5.270   5.759   4.221
 2177TIP3    H2 6477   5.392   5.787   4.306
 2178TIP3   OH2 6478   2.627   0.075   2.856
 2178TIP3    H1 6479   2.630   0.165   2.889
 2178TIP3    H2 6480   2.610   0.084   2.763
 2179TIP3   OH2 6481   5.863   0.416   5.140
 2179TIP3    H1 6482   5.822   0.367   5.069
 2179TIP3    H2 6483   5.901   0.348   5.196
 2180TIP3   OH2 6484   2.272   3.108   3.856
 2180TIP3    H1 6485   2.213   3.033   3.858
 2180TIP3    H2 6486   2.246   3.160   3.932
 2181TIP3   OH2 6487   3.723   1.519   2.693
 2181TIP3    H1 6488   3.778   1.571   2.752
 2181TIP3    H2 6489   3.752   1.429   2.705
 2182TIP3   OH2 6490   6.187   4.114   1.425
 2182TIP3    H1 6491   6.209   4.078   1.511
 2182TIP3    H2 6492   6.102   4.076   1.405
 2183TIP3   OH2 6493   2.319   5.629   0.739
 2183TIP3    H1 6494   2.273   5.612   0.657
 2183TIP3    H2 6495   2.399   5.675   0.713
 2184TIP3   OH2 6496   3.583   5.584   1.784
 2184TIP3    H1 6497   3.618   5.500   1.813
 2184TIP3    H2 6498   3.494   5.565   1.755
 2185TIP3   OH2 6499   2.978   5.095   3.710
 2185TIP3    H1 6500   2.983   5.067   3.802
 2185TIP3    H2 6501   3.062   5.069   3.672
 2186TIP3   OH2 6502   5.562   1.003   6.608
 2186TIP3    H1 6503   5.494   0.952   6.562
 2186TIP3    H2 6504   5.515   1.046   6.679
 2187TIP3   OH2 6505   3.840   4.490   5.308
 2187TIP3    H1 6506   3.905   4.426   5.279
 2187TIP3    H2 6507   3.889   4.552   5.362
 2188TIP3   OH2 6508   1.671   7.026   3.501
 2188TIP3    H1 6509   1.669   7.103   3.558
 2188TIP3    H2 6510   1.624   6.959   3.550
 2189TIP3   OH2 6511   0.208   3.916   0.180
 2189TIP3    H1 6512   0.230   3.826   0.206
 2189TIP3    H2 6513   0.236   3.922   0.089
 2190TIP3   OH2 6514   4.628   0.652   1.196
 2190TIP3    H1 6515   4.586   0.662   1.281
 2190TIP3    H2 6516   4.722   0.663   1.214
 2191TIP3   OH2 6517   2.504   2.653   1.382
 2191TIP3    H1 6518   2.582   2.668   1.328
 2191TIP3    H2 6519   2.532   2.677   1.471
 2192TIP3   OH2 6520   4.687   6.299   3.266
 2192TIP3    H1 6521   4.595   6.320   3.252
 2192TIP3    H2 6522   4.687   6.210   3.300
 2193TIP3   OH2 6523   7.133   1.891   6.147
 2193TIP3    H1 6524   7.091   1.973   6.123
 2193TIP3    H2 6525   7.195   1.875   6.076
 2194TIP3   OH2 6526   1.928   5.697   5.460
 2194TIP3    H1 6527   1.928   5.644   5.380
 2194TIP3    H2 6528   1.966   5.640   5.527
 2195TIP3   OH2 6529   4.779   7.113   4.651
 2195TIP3    H1 6530   4.735   7.196   4.668
 2195TIP3    H2 6531   4.800   7.115   4.557
 2196TIP3   OH2 6532   5.218   3.025   4.036
 2196TIP3    H1 6533   5.233   3.112   3.999
 2196TIP3    H2 6534   5.153   3.039   4.105
 2197TIP3   OH2 6535   0.199   5.983   1.988
 2197TIP3    H1 6536   0.124   6.038   1.963
 2197TIP3    H2 6537   0.203   5.992   2.083
 2198TIP3   OH2 6538   6.045   7.401   4.194
 2198TIP3    H1 6539   6.137   7.401   4.223
 2198TIP3    H2 6540   5.995   7.417   4.273
 2199TIP3   OH2 6541   8.264   1.076   6.335
 2199TIP3    H1 6542   8.303   1.137   6.397
 2199TIP3    H2 6543   8.175   1.062   6.368
 2200TIP3   OH2 6544   0.434   5.683   4.733
 2200TIP3    H1 6545   0.520   5.661   4.697
 2200TIP3    H2 6546   0.374   5.621   4.692
 2201TIP3   OH2 6547   1.486   2.918   5.442
 2201TIP3    H1 6548   1.509   2.915   5.534
 2201TIP3    H2 6549   1.564   2.954   5.399
 2202TIP3   OH2 6550   7.980   7.382   0.725
 2202TIP3    H1 6551   8.036   7.326   0.671
 2202TIP3    H2 6552   7.896   7.335   0.729
 2203TIP3   OH2 6553   7.043   2.727   2.567
 2203TIP3    H1 6554   7.104   2.716   2.494
 2203TIP3    H2 6555   7.018   2.819   2.563
 2204TIP3   OH2 6556   7.720   2.564   6.060
 2204TIP3    H1 6557   7.715   2.660   6.058
 2204TIP3    H2 6558   7.712   2.538   5.969
 2205TIP3   OH2 6559   2.104   5.346   1.140
 2205TIP3    H1 6560   2.015   5.380   1.128
 2205TIP3    H2 6561   2.142   5.346   1.052
 2206TIP3   OH2 6562   1.322   3.536   6.486
 2206TIP3    H1 6563   1.414   3.511   6.487
 2206TIP3    H2 6564   1.292   3.513   6.397
 2207TIP3   OH2 6565   2.246   3.340   4.603
 2207TIP3    H1 6566   2.202   3.310   4.523
 2207TIP3    H2 6567   2.191   3.308   4.674
 2208TIP3   OH2 6568   1.975   6.814   5.584
 2208TIP3    H1 6569   1.965   6.843   5.494
 2208TIP3    H2 6570   1.887   6.791   5.612
 2209TIP3   OH2 6571   2.019   0.580   4.568
 2209TIP3    H1 6572   2.054   0.609   4.484
 2209TIP3    H2 6573   2.036   0.654   4.627
 2210TIP3   OH2 6574   7.428   0.342   0.019
 2210TIP3    H1 6575   7.516   0.314  -0.005
 2210TIP3    H2 6576   7.422   0.432  -0.013
 2211TIP3   OH2 6577   3.878   7.110   2.424
 2211TIP3    H1 6578   3.815   7.182   2.432
 2211TIP3    H2 6579   3.858   7.071   2.338
 2212TIP3   OH2 6580   3.974   0.448   2.838
 2212TIP3    H1 6581   4.063   0.435   2.870
 2212TIP3    H2 6582   3.920   0.446   2.917
 2213TIP3   OH2 6583   6.633   7.756   1.726
 2213TIP3    H1 6584   6.700   7.708   1.774
 2213TIP3    H2 6585   6.633   7.717   1.639
 2214TIP3   OH2 6586   6.272   4.330   1.235
 2214TIP3    H1 6587   6.238   4.293   1.153
 2214TIP3    H2 6588   6.308   4.416   1.209
 2215TIP3   OH2 6589   1.335   7.127   6.407
 2215TIP3    H1 6590   1.354   7.038   6.438
 2215TIP3    H2 6591   1.419   7.161   6.378
 2216TIP3   OH2 6592   4.360   3.322   2.430
 2216TIP3    H1 6593   4.328   3.299   2.343
 2216TIP3    H2 6594   4.282   3.318   2.486
 2217TIP3   OH2 6595   0.298   0.054   4.039
 2217TIP3    H1 6596   0.393   0.040   4.032
 2217TIP3    H2 6597   0.262  -0.034   4.052
 2218TIP3   OH2 6598   0.331   1.942   4.864
 2218TIP3    H1 6599   0.427   1.941   4.860
 2218TIP3    H2 6600   0.306   2.023   4.820
 2219TIP3   OH2 6601   4.511   5.183   4.417
 2219TIP3    H1 6602   4.426   5.169   4.460
 2219TIP3    H2 6603   4.526   5.277   4.424
 2220TIP3   OH2 6604   3.167   1.760   0.183
 2220TIP3    H1 6605   3.217   1.679   0.176
 2220TIP3    H2 6606   3.196   1.799   0.266
 2221TIP3   OH2 6607   7.266   7.317   2.456
 2221TIP3    H1 6608   7.282   7.358   2.370
 2221TIP3    H2 6609   7.291   7.385   2.519
 2222TIP3   OH2 6610   5.700   6.410   5.793
 2222TIP3    H1 6611   5.752   6.436   5.717
 2222TIP3    H2 6612   5.616   6.456   5.781
 2223TIP3   OH2 6613   1.185   3.505   1.093
 2223TIP3    H1 6614   1.261   3.533   1.144
 2223TIP3    H2 6615   1.140   3.587   1.071
 2224TIP3   OH2 6616   4.716   1.975   6.478
 2224TIP3    H1 6617   4.713   2.070   6.490
 2224TIP3    H2 6618   4.809   1.953   6.479
 2225TIP3   OH2 6619   2.494   6.026   6.416
 2225TIP3    H1 6620   2.562   6.006   6.480
 2225TIP3    H2 6621   2.539   6.024   6.332
 2226TIP3   OH2 6622   0.557   5.435   4.057
 2226TIP3    H1 6623   0.551   5.484   4.139
 2226TIP3    H2 6624   0.639   5.464   4.017
 2227TIP3   OH2 6625   2.328   4.237   6.243
 2227TIP3    H1 6626   2.384   4.313   6.231
 2227TIP3    H2 6627   2.349   4.179   6.169
 2228TIP3   OH2 6628   1.536   2.669   0.572
 2228TIP3    H1 6629   1.487   2.746   0.541
 2228TIP3    H2 6630   1.527   2.605   0.501
 2229TIP3   OH2 6631   7.196   2.704   5.654
 2229TIP3    H1 6632   7.108   2.666   5.643
 2229TIP3    H2 6633   7.215   2.744   5.569
 2230TIP3   OH2 6634   0.409   5.831   5.415
 2230TIP3    H1 6635   0.361   5.913   5.427
 2230TIP3    H2 6636   0.499   5.852   5.441
 2231TIP3   OH2 6637   3.441   2.613   4.751
 2231TIP3    H1 6638   3.463   2.681   4.815
 2231TIP3    H2 6639   3.524   2.594   4.707
 2232TIP3   OH2 6640   4.241   0.149   6.468
 2232TIP3    H1 6641   4.147   0.166   6.481
 2232TIP3    H2 6642   4.244   0.082   6.400
 2233TIP3   OH2 6643   5.849   3.924   0.470
 2233TIP3    H1 6644   5.806   3.880   0.543
 2233TIP3    H2 6645   5.873   3.853   0.410
 2234TIP3   OH2 6646   2.970   1.488   4.009
 2234TIP3    H1 6647   2.987   1.534   4.091
 2234TIP3    H2 6648   2.994   1.397   4.027
 2235TIP3   OH2 6649   3.110   5.596   4.377
 2235TIP3    H1 6650   3.051   5.622   4.448
 2235TIP3    H2 6651   3.157   5.521   4.413
 2236TIP3   OH2 6652   6.812   7.586   4.424
 2236TIP3    H1 6653   6.865   7.638   4.484
 2236TIP3    H2 6654   6.826   7.496   4.452
 2237TIP3   OH2 6655   5.962   7.363   2.336
 2237TIP3    H1 6656   5.963   7.459   2.338
 2237TIP3    H2 6657   5.871   7.339   2.351
 2238TIP3   OH2 6658   7.977   2.351   6.155
 2238TIP3    H1 6659   8.011   2.269   6.191
 2238TIP3    H2 6660   7.893   2.363   6.198
 2239TIP3   OH2 6661   6.908   2.068   6.046
 2239TIP3    H1 6662   6.815   2.076   6.025
 2239TIP3    H2 6663   6.924   2.135   6.113
 2240TIP3   OH2 6664   3.324   7.149   3.306
 2240TIP3    H1 6665   3.281   7.196   3.378
 2240TIP3    H2 6666   3.269   7.167   3.230
 2241TIP3   OH2 6667   7.873   5.370   1.073
 2241TIP3    H1 6668   7.869   5.373   1.168
 2241TIP3    H2 6669   7.915   5.452   1.048
 2242TIP3   OH2 6670   8.206   7.579   3.648
 2242TIP3    H1 6671   8.172   7.579   3.737
 2242TIP3    H2 6672   8.207   7.672   3.623
 2243TIP3   OH2 6673   0.809   5.891   5.066
 2243TIP3    H1 6674   0.722   5.929   5.067
 2243TIP3    H2 6675   0.796   5.799   5.041
 2244TIP3   OH2 6676   7.903   6.989   4.121
 2244TIP3    H1 6677   7.812   6.993   4.153
 2244TIP3    H2 6678   7.956   6.991   4.200
 2245TIP3   OH2 6679   6.581   3.125   6.421
 2245TIP3    H1 6680   6.630   3.083   6.492
 2245TIP3    H2 6681   6.493   3.138   6.457
 2246TIP3   OH2 6682   5.248   3.415   2.593
 2246TIP3    H1 6683   5.310   3.343   2.601
 2246TIP3    H2 6684   5.292   3.489   2.635
 2247TIP3   OH2 6685   3.446   7.078   0.609
 2247TIP3    H1 6686   3.420   7.121   0.527
 2247TIP3    H2 6687   3.369   7.029   0.636
 2248TIP3   OH2 6688   7.524   1.184   2.855
 2248TIP3    H1 6689   7.606   1.149   2.888
 2248TIP3    H2 6690   7.546   1.271   2.823
 2249TIP3   OH2 6691   2.112   3.796   0.521
 2249TIP3    H1 6692   2.019   3.812   0.509
 2249TIP3    H2 6693   2.120   3.701   0.530
 2250TIP3   OH2 6694   4.046   6.707   6.650
 2250TIP3    H1 6695   4.130   6.731   6.612
 2250TIP3    H2 6696   4.040   6.759   6.730
 2251TIP3   OH2 6697   5.278   3.251   6.029
 2251TIP3    H1 6698   5.291   3.303   5.950
 2251TIP3    H2 6699   5.217   3.302   6.083
 2252TIP3   OH2 6700   1.436   7.823   2.498
 2252TIP3    H1 6701   1.415   7.731   2.516
 2252TIP3    H2 6702   1.361   7.855   2.448
 2253TIP3   OH2 6703   7.553   5.132   3.710
 2253TIP3    H1 6704   7.522   5.066   3.648
 2253TIP3    H2 6705   7.633   5.167   3.670
 2254TIP3   OH2 6706   6.765   2.940   1.467
 2254TIP3    H1 6707   6.672   2.964   1.473
 2254TIP3    H2 6708   6.764   2.848   1.440
 2255TIP3   OH2 6709   3.478   1.556   6.573
 2255TIP3    H1 6710   3.555   1.569   6.628
 2255TIP3    H2 6711   3.484   1.466   6.543
 2256TIP3   OH2 6712   1.539   0.923   0.029
 2256TIP3    H1 6713   1.474   0.947   0.094
 2256TIP3    H2 6714   1.601   0.867   0.076
 2257TIP3   OH2 6715   2.681   4.350   4.256
 2257TIP3    H1 6716   2.620   4.297   4.206
 2257TIP3    H2 6717   2.671   4.438   4.220
 2258TIP3   OH2 6718   2.386   0.214   1.910
 2258TIP3    H1 6719   2.347   0.130   1.936
 2258TIP3    H2 6720   2.471   0.215   1.953
 2259TIP3   OH2 6721   1.386   0.946   3.540
 2259TIP3    H1 6722   1.428   0.913   3.460
 2259TIP3    H2 6723   1.452   1.002   3.580
 2260TIP3   OH2 6724   2.516   4.610   2.173
 2260TIP3    H1 6725   2.507   4.546   2.102
 2260TIP3    H2 6726   2.498   4.561   2.253
 2261TIP3   OH2 6727   3.671   5.510   5.684
 2261TIP3    H1 6728   3.661   5.590   5.633
 2261TIP3    H2 6729   3.598   5.455   5.658
 2262TIP3   OH2 6730   4.530   7.412   5.311
 2262TIP3    H1 6731   4.456   7.352   5.310
 2262TIP3    H2 6732   4.567   7.407   5.224
 2263TIP3   OH2 6733   3.471   0.899   5.344
 2263TIP3    H1 6734   3.503   0.981   5.382
 2263TIP3    H2 6735   3.545   0.865   5.295
 2264TIP3   OH2 6736   7.959   3.175   2.292
 2264TIP3    H1 6737   7.955   3.263   2.253
 2264TIP3    H2 6738   8.030   3.131   2.246
 2265TIP3   OH2 6739   6.707   7.147   6.549
 2265TIP3    H1 6740   6.745   7.088   6.483
 2265TIP3    H2 6741   6.763   7.138   6.625
 2266TIP3   OH2 6742   0.720   2.761   6.646
 2266TIP3    H1 6743   0.736   2.804   6.562
 2266TIP3    H2 6744   0.765   2.816   6.710
 2267TIP3   OH2 6745   5.034   6.099   5.853
 2267TIP3    H1 6746   5.039   6.096   5.757
 2267TIP3    H2 6747   5.017   6.008   5.878
 2268TIP3   OH2 6748   6.535   4.027   2.347
 2268TIP3    H1 6749   6.500   3.954   2.398
 2268TIP3    H2 6750   6.461   4.086   2.334
 2269TIP3   OH2 6751   1.771   2.210   6.184
 2269TIP3    H1 6752   1.677   2.223   6.197
 2269TIP3    H2 6753   1.802   2.294   6.148
 2270TIP3   OH2 6754   4.669   5.851   2.050
 2270TIP3    H1 6755   4.758   5.855   2.014
 2270TIP3    H2 6756   4.622   5.922   2.005
 2271TIP3   OH2 6757   7.054   2.997   1.230
 2271TIP3    H1 6758   7.127   2.967   1.284
 2271TIP3    H2 6759   7.003   3.053   1.288
 2272TIP3   OH2 6760   6.954   4.670   6.109
 2272TIP3    H1 6761   6.950   4.761   6.079
 2272TIP3    H2 6762   7.040   4.663   6.151
 2273TIP3   OH2 6763   1.029   5.111   6.261
 2273TIP3    H1 6764   0.992   5.139   6.345
 2273TIP3    H2 6765   1.032   5.191   6.209
 2274TIP3   OH2 6766   7.770   1.447   6.473
 2274TIP3    H1 6767   7.717   1.509   6.423
 2274TIP3    H2 6768   7.808   1.389   6.406
 2275TIP3   OH2 6769   5.263   0.376   1.276
 2275TIP3    H1 6770   5.200   0.448   1.271
 2275TIP3    H2 6771   5.220   0.304   1.229
 2276TIP3   OH2 6772   4.382   4.962   6.573
 2276TIP3    H1 6773   4.463   5.005   6.602
 2276TIP3    H2 6774   4.344   4.927   6.653
 2277TIP3   OH2 6775   2.774   1.734   2.730
 2277TIP3    H1 6776   2.742   1.738   2.640
 2277TIP3    H2 6777   2.869   1.724   2.721
 2278TIP3   OH2 6778   3.547   4.422   0.757
 2278TIP3    H1 6779   3.468   4.461   0.720
 2278TIP3    H2 6780   3.588   4.493   0.807
 2279TIP3   OH2 6781   4.922   6.536   1.390
 2279TIP3    H1 6782   4.886   6.449   1.406
 2279TIP3    H2 6783   4.873   6.569   1.315
 2280TIP3   OH2 6784   6.642   3.753   1.203
 2280TIP3    H1 6785   6.682   3.707   1.130
 2280TIP3    H2 6786   6.650   3.846   1.180
 2281TIP3   OH2 6787   0.096   3.082   0.696
 2281TIP3    H1 6788   0.003   3.102   0.709
 2281TIP3    H2 6789   0.130   3.155   0.644
 2282TIP3   OH2 6790   6.979   5.095   0.954
 2282TIP3    H1 6791   7.030   5.017   0.931
 2282TIP3    H2 6792   6.968   5.142   0.872
 2283TIP3   OH2 6793   6.834   0.817   0.075
 2283TIP3    H1 6794   6.767   0.785   0.135
 2283TIP3    H2 6795   6.791   0.818  -0.011
 2284TIP3   OH2 6796   8.297   0.274   0.352
 2284TIP3    H1 6797   8.341   0.244   0.432
 2284TIP3    H2 6798   8.205   0.283   0.377
 2285TIP3   OH2 6799   2.879   4.160   3.473
 2285TIP3    H1 6800   2.804   4.214   3.450
 2285TIP3    H2 6801   2.891   4.174   3.567
 2286TIP3   OH2 6802   4.047   3.886   0.429
 2286TIP3    H1 6803   4.017   3.874   0.339
 2286TIP3    H2 6804   4.135   3.921   0.421
 2287TIP3   OH2 6805   1.379   1.134   2.810
 2287TIP3    H1 6806   1.333   1.214   2.781
 2287TIP3    H2 6807   1.309   1.076   2.841
 2288TIP3   OH2 6808   5.301   7.390   6.386
 2288TIP3    H1 6809   5.291   7.485   6.381
 2288TIP3    H2 6810   5.214   7.355   6.370
 2289TIP3   OH2 6811   4.057   5.712   2.591
 2289TIP3    H1 6812   4.110   5.643   2.552
 2289TIP3    H2 6813   4.112   5.749   2.660
 2290TIP3   OH2 6814   6.635   6.786   0.600
 2290TIP3    H1 6815   6.650   6.692   0.614
 2290TIP3    H2 6816   6.710   6.828   0.641
 2291TIP3   OH2 6817   0.657   0.025   4.647
 2291TIP3    H1 6818   0.718   0.097   4.638
 2291TIP3    H2 6819   0.585   0.046   4.587
 2292TIP3   OH2 6820   5.619   4.194   3.462
 2292TIP3    H1 6821   5.626   4.141   3.542
 2292TIP3    H2 6822   5.567   4.139   3.402
 2293TIP3   OH2 6823   7.495   3.903   2.780
 2293TIP3    H1 6824   7.462   3.887   2.692
 2293TIP3    H2 6825   7.539   3.821   2.805
 2294TIP3   OH2 6826   3.969   1.849   2.484
 2294TIP3    H1 6827   3.896   1.804   2.527
 2294TIP3    H2 6828   4.032   1.780   2.463
 2295TIP3   OH2 6829   1.464   0.391   4.749
 2295TIP3    H1 6830   1.388   0.380   4.805
 2295TIP3    H2 6831   1.539   0.394   4.810
 2296TIP3   OH2 6832   8.215   7.404   4.375
 2296TIP3    H1 6833   8.154   7.470   4.342
 2296TIP3    H2 6834   8.199   7.401   4.469
 2297TIP3   OH2 6835   4.712   2.634   6.390
 2297TIP3    H1 6836   4.708   2.604   6.299
 2297TIP3    H2 6837   4.788   2.692   6.393
 2298TIP3   OH2 6838   2.371   2.998   0.008
 2298TIP3    H1 6839   2.431   3.059  -0.035
 2298TIP3    H2 6840   2.427   2.926   0.038
 2299TIP3   OH2 6841   4.368   3.711   1.934
 2299TIP3    H1 6842   4.363   3.768   1.858
 2299TIP3    H2 6843   4.436   3.749   1.989
 2300TIP3   OH2 6844   0.899   4.704   0.457
 2300TIP3    H1 6845   0.809   4.735   0.461
 2300TIP3    H2 6846   0.893   4.610   0.475
 2301TIP3   OH2 6847   1.369   4.210   2.933
 2301TIP3    H1 6848   1.295   4.266   2.955
 2301TIP3    H2 6849   1.446   4.264   2.950
 2302TIP3   OH2 6850   2.292   7.398   0.071
 2302TIP3    H1 6851   2.240   7.442   0.137
 2302TIP3    H2 6852   2.373   7.374   0.115
 2303TIP3   OH2 6853   4.232   4.422   0.593
 2303TIP3    H1 6854   4.293   4.351   0.614
 2303TIP3    H2 6855   4.177   4.387   0.523
 2304TIP3   OH2 6856   0.797   6.699   2.074
 2304TIP3    H1 6857   0.766   6.613   2.102
 2304TIP3    H2 6858   0.831   6.739   2.154
 2305TIP3   OH2 6859   0.546   4.494   6.586
 2305TIP3    H1 6860   0.457   4.468   6.610
 2305TIP3    H2 6861   0.557   4.581   6.625
 2306TIP3   OH2 6862   2.241   6.875   1.427
 2306TIP3    H1 6863   2.257   6.909   1.515
 2306TIP3    H2 6864   2.196   6.946   1.382
 2307TIP3   OH2 6865   3.604   1.971   2.113
 2307TIP3    H1 6866   3.678   1.953   2.170
 2307TIP3    H2 6867   3.630   1.935   2.028
 2308TIP3   OH2 6868   6.084   3.809   1.226
 2308TIP3    H1 6869   6.011   3.750   1.211
 2308TIP3    H2 6870   6.049   3.875   1.287
 2309TIP3   OH2 6871   5.575   5.026   2.443
 2309TIP3    H1 6872   5.515   5.000   2.513
 2309TIP3    H2 6873   5.579   4.950   2.386
 2310TIP3   OH2 6874   0.351   3.561   2.496
 2310TIP3    H1 6875   0.342   3.570   2.591
 2310TIP3    H2 6876   0.267   3.591   2.461
 2311TIP3   OH2 6877   5.890   0.177   5.271
 2311TIP3    H1 6878   5.965   0.130   5.236
 2311TIP3    H2 6879   5.819   0.113   5.271
 2312TIP3   OH2 6880   6.632   2.449   1.901
 2312TIP3    H1 6881   6.723   2.443   1.927
 2312TIP3    H2 6882   6.602   2.532   1.936
 2313TIP3   OH2 6883   1.847   3.457   6.569
 2313TIP3    H1 6884   1.805   3.417   6.645
 2313TIP3    H2 6885   1.903   3.525   6.606
 2314TIP3   OH2 6886   4.368   7.003   4.252
 2314TIP3    H1 6887   4.389   6.976   4.162
 2314TIP3    H2 6888   4.453   7.002   4.298
 2315TIP3   OH2 6889   1.455   5.187   6.105
 2315TIP3    H1 6890   1.443   5.188   6.010
 2315TIP3    H2 6891   1.505   5.266   6.123
 2316TIP3   OH2 6892   4.189   0.376   5.040
 2316TIP3    H1 6893   4.098   0.348   5.054
 2316TIP3    H2 6894   4.193   0.463   5.080
 2317TIP3   OH2 6895   2.151   1.877   1.319
 2317TIP3    H1 6896   2.183   1.955   1.273
 2317TIP3    H2 6897   2.229   1.840   1.360
 2318TIP3   OH2 6898   4.693   5.030   6.659
 2318TIP3    H1 6899   4.758   5.053   6.592
 2318TIP3    H2 6900   4.638   5.108   6.666
 2319TIP3   OH2 6901   3.984   7.018   1.706
 2319TIP3    H1 6902   3.918   7.048   1.768
 2319TIP3    H2 6903   3.947   6.937   1.669
 2320TIP3   OH2 6904   8.007   7.545   3.857
 2320TIP3    H1 6905   7.935   7.527   3.918
 2320TIP3    H2 6906   8.086   7.534   3.909
 2321TIP3   OH2 6907   5.941   4.470   5.250
 2321TIP3    H1 6908   5.882   4.513   5.188
 2321TIP3    H2 6909   5.884   4.447   5.324
 2322TIP3   OH2 6910   1.481   4.142   4.107
 2322TIP3    H1 6911   1.544   4.175   4.172
 2322TIP3    H2 6912   1.494   4.047   4.108
 2323TIP3   OH2 6913   3.161   6.568   1.437
 2323TIP3    H1 6914   3.159   6.605   1.349
 2323TIP3    H2 6915   3.143   6.643   1.495
 2324TIP3   OH2 6916   7.843   6.752   5.091
 2324TIP3    H1 6917   7.894   6.690   5.038
 2324TIP3    H2 6918   7.901   6.827   5.101
 2325TIP3   OH2 6919   3.723   0.900   1.845
 2325TIP3    H1 6920   3.684   0.986   1.861
 2325TIP3    H2 6921   3.666   0.859   1.781
 2326TIP3   OH2 6922   2.806   5.301   3.156
 2326TIP3    H1 6923   2.814   5.280   3.249
 2326TIP3    H2 6924   2.889   5.275   3.117
 2327TIP3   OH2 6925   7.339   0.745   5.262
 2327TIP3    H1 6926   7.392   0.670   5.234
 2327TIP3    H2 6927   7.293   0.714   5.340
 2328TIP3   OH2 6928   4.742   6.684   0.510
 2328TIP3    H1 6929   4.674   6.711   0.448
 2328TIP3    H2 6930   4.787   6.766   0.532
 2329TIP3   OH2 6931   3.058   4.895   4.200
 2329TIP3    H1 6932   3.149   4.895   4.228
 2329TIP3    H2 6933   3.022   4.813   4.233
 2330TIP3   OH2 6934   4.604   1.815   2.643
 2330TIP3    H1 6935   4.577   1.755   2.713
 2330TIP3    H2 6936   4.538   1.803   2.574
 2331TIP3   OH2 6937   5.706   7.808   2.437
 2331TIP3    H1 6938   5.656   7.765   2.368
 2331TIP3    H2 6939   5.643   7.822   2.508
 2332TIP3   OH2 6940   7.791   0.700   2.208
 2332TIP3    H1 6941   7.825   0.614   2.183
 2332TIP3    H2 6942   7.701   0.682   2.236
 2333TIP3   OH2 6943   1.087   6.454   5.216
 2333TIP3    H1 6944   1.175   6.430   5.243
 2333TIP3    H2 6945   1.043   6.370   5.202
 2334TIP3   OH2 6946   0.985   3.835   4.328
 2334TIP3    H1 6947   0.900   3.875   4.312
 2334TIP3    H2 6948   1.048   3.894   4.286
 2335TIP3   OH2 6949   3.269   3.205   4.461
 2335TIP3    H1 6950   3.179   3.210   4.492
 2335TIP3    H2 6951   3.313   3.147   4.524
 2336TIP3   OH2 6952   5.345   6.548   2.834
 2336TIP3    H1 6953   5.434   6.538   2.867
 2336TIP3    H2 6954   5.313   6.459   2.822
 2337TIP3   OH2 6955   3.084   0.476   6.488
 2337TIP3    H1 6956   3.178   0.488   6.470
 2337TIP3    H2 6957   3.079   0.394   6.537
 2338TIP3   OH2 6958   0.781   5.724   3.035
 2338TIP3    H1 6959   0.842   5.698   2.965
 2338TIP3    H2 6960   0.697   5.685   3.009
 2339TIP3   OH2 6961   3.295   5.231   6.619
 2339TIP3    H1 6962   3.305   5.257   6.710
 2339TIP3    H2 6963   3.237   5.299   6.581
 2340TIP3   OH2 6964   2.002   4.148   1.085
 2340TIP3    H1 6965   2.018   4.098   1.166
 2340TIP3    H2 6966   1.933   4.210   1.109
 2341TIP3   OH2 6967   4.356   2.310   2.112
 2341TIP3    H1 6968   4.282   2.325   2.053
 2341TIP3    H2 6969   4.345   2.375   2.181
 2342TIP3   OH2 6970   6.282   0.626   6.406
 2342TIP3    H1 6971   6.286   0.719   6.384
 2342TIP3    H2 6972   6.211   0.619   6.470
 2343TIP3   OH2 6973   2.835   0.901   6.714
 2343TIP3    H1 6974   2.855   0.824   6.662
 2343TIP3    H2 6975   2.753   0.934   6.678
 2344TIP3   OH2 6976   1.876   0.312   6.103
 2344TIP3    H1 6977   1.919   0.266   6.032
 2344TIP3    H2 6978   1.818   0.247   6.143
 2345TIP3   OH2 6979   6.901   4.983   6.487
 2345TIP3    H1 6980   6.855   4.927   6.424
 2345TIP3    H2 6981   6.878   5.072   6.459
 2346TIP3   OH2 6982   7.641   0.706   3.434
 2346TIP3    H1 6983   7.652   0.744   3.347
 2346TIP3    H2 6984   7.658   0.779   3.494
 2347TIP3   OH2 6985   0.781   0.864   5.441
 2347TIP3    H1 6986   0.698   0.908   5.459
 2347TIP3    H2 6987   0.834   0.880   5.519
 2348TIP3   OH2 6988   7.963   3.320   2.788
 2348TIP3    H1 6989   7.882   3.329   2.838
 2348TIP3    H2 6990   7.997   3.409   2.779
 2349TIP3   OH2 6991   4.663   4.160   6.458
 2349TIP3    H1 6992   4.715   4.237   6.436
 2349TIP3    H2 6993   4.622   4.135   6.375
 2350TIP3   OH2 6994   7.360   6.561   3.131
 2350TIP3    H1 6995   7.440   6.612   3.127
 2350TIP3    H2 6996   7.356   6.514   3.048
 2351TIP3   OH2 6997   1.664   0.198   1.828
 2351TIP3    H1 6998   1.598   0.234   1.888
 2351TIP3    H2 6999   1.671   0.262   1.758
 2352TIP3   OH2 7000   1.521   3.409   4.755
 2352TIP3    H1 7001   1.452   3.412   4.821
 2352TIP3    H2 7002   1.477   3.382   4.675
 2353TIP3   OH2 7003   2.037   2.120   5.211
 2353TIP3    H1 7004   2.127   2.140   5.186
 2353TIP3    H2 7005   2.030   2.149   5.302
 2354TIP3   OH2 7006   3.101   0.130   3.716
 2354TIP3    H1 7007   3.108   0.126   3.621
 2354TIP3    H2 7008   3.171   0.190   3.743
 2355TIP3   OH2 7009   1.147   7.540   0.133
 2355TIP3    H1 7010   1.116   7.519   0.221
 2355TIP3    H2 7011   1.243   7.541   0.142
 2356TIP3   OH2 7012   2.372   0.645   6.593
 2356TIP3    H1 7013   2.337   0.566   6.553
 2356TIP3    H2 7014   2.391   0.703   6.518
 2357TIP3   OH2 7015   0.092   6.731   1.258
 2357TIP3    H1 7016   0.147   6.718   1.335
 2357TIP3    H2 7017   0.040   6.651   1.252
 2358TIP3   OH2 7018   1.753   5.028   5.897
 2358TIP3    H1 7019   1.803   5.098   5.937
 2358TIP3    H2 7020   1.818   4.962   5.873
 2359TIP3   OH2 7021   7.235   5.022   1.281
 2359TIP3    H1 7022   7.171   5.047   1.348
 2359TIP3    H2 7023   7.272   5.105   1.251
 2360TIP3   OH2 7024   6.800   3.728   4.313
 2360TIP3    H1 7025   6.708   3.713   4.292
 2360TIP3    H2 7026   6.849   3.677   4.249
 2361TIP3   OH2 7027   6.766   7.044   2.085
 2361TIP3    H1 7028   6.749   7.071   1.995
 2361TIP3    H2 7029   6.785   7.126   2.132
 2362TIP3   OH2 7030   7.399   7.113   1.980
 2362TIP3    H1 7031   7.362   7.027   1.960
 2362TIP3    H2 7032   7.466   7.126   1.913
 2363TIP3   OH2 7033   2.534   6.614   3.457
 2363TIP3    H1 7034   2.611   6.654   3.498
 2363TIP3    H2 7035   2.508   6.676   3.389
 2364TIP3   OH2 7036   5.018   2.461   3.102
 2364TIP3    H1 7037   5.041   2.417   3.184
 2364TIP3    H2 7038   4.955   2.528   3.129
 2365TIP3   OH2 7039   6.025   2.161   2.487
 2365TIP3    H1 7040   6.019   2.233   2.550
 2365TIP3    H2 7041   6.117   2.161   2.460
 2366TIP3   OH2 7042   7.087   5.553   5.043
 2366TIP3    H1 7043   7.133   5.493   4.984
 2366TIP3    H2 7044   7.157   5.602   5.087
 2367TIP3   OH2 7045   5.489   6.776   6.208
 2367TIP3    H1 7046   5.443   6.852   6.171
 2367TIP3    H2 7047   5.573   6.812   6.237
 2368TIP3   OH2 7048   4.645   7.101   3.711
 2368TIP3    H1 7049   4.702   7.147   3.649
 2368TIP3    H2 7050   4.678   7.011   3.712
 2369TIP3   OH2 7051   4.736   0.893   3.756
 2369TIP3    H1 7052   4.804   0.916   3.693
 2369TIP3    H2 7053   4.781   0.839   3.821
 2370TIP3   OH2 7054   6.438   5.501   4.056
 2370TIP3    H1 7055   6.447   5.566   3.987
 2370TIP3    H2 7056   6.346   5.506   4.081
 2371TIP3   OH2 7057   1.733   6.472   0.859
 2371TIP3    H1 7058   1.776   6.387   0.872
 2371TIP3    H2 7059   1.670   6.457   0.788
 2372TIP3   OH2 7060   3.056   4.272   1.881
 2372TIP3    H1 7061   3.007   4.353   1.866
 2372TIP3    H2 7062   3.137   4.301   1.923
 2373TIP3   OH2 7063   7.738   2.643   2.455
 2373TIP3    H1 7064   7.727   2.555   2.419
 2373TIP3    H2 7065   7.733   2.632   2.550
 2374TIP3   OH2 7066   2.110   0.767   1.571
 2374TIP3    H1 7067   2.164   0.688   1.562
 2374TIP3    H2 7068   2.153   0.832   1.515
 2375TIP3   OH2 7069   4.298   3.342   5.038
 2375TIP3    H1 7070   4.347   3.295   4.970
 2375TIP3    H2 7071   4.255   3.273   5.088
 2376TIP3   OH2 7072   1.878   4.167   0.834
 2376TIP3    H1 7073   1.945   4.189   0.899
 2376TIP3    H2 7074   1.878   4.072   0.831
 2377TIP3   OH2 7075   4.129   5.879   0.551
 2377TIP3    H1 7076   4.154   5.835   0.470
 2377TIP3    H2 7077   4.052   5.831   0.582
 2378TIP3   OH2 7078   2.884   7.590   3.150
 2378TIP3    H1 7079   2.976   7.564   3.154
 2378TIP3    H2 7080   2.886   7.683   3.129
 2379TIP3   OH2 7081   5.269   1.012   6.599
 2379TIP3    H1 7082   5.292   1.096   6.638
 2379TIP3    H2 7083   5.245   1.033   6.509
 2380TIP3   OH2 7084   7.944   7.776   1.230
 2380TIP3    H1 7085   7.989   7.832   1.166
 2380TIP3    H2 7086   7.852   7.784   1.209
 2381TIP3   OH2 7087   0.774   2.829   6.372
 2381TIP3    H1 7088   0.790   2.913   6.416
 2381TIP3    H2 7089   0.777   2.851   6.279
 2382TIP3   OH2 7090   4.101   3.287   2.100
 2382TIP3    H1 7091   4.116   3.198   2.130
 2382TIP3    H2 7092   4.167   3.340   2.144
 2383TIP3   OH2 7093   4.208   6.236   0.012
 2383TIP3    H1 7094   4.215   6.332   0.009
 2383TIP3    H2 7095   4.230   6.213   0.102
 2384TIP3   OH2 7096   5.899   3.059   5.776
 2384TIP3    H1 7097   5.877   3.138   5.727
 2384TIP3    H2 7098   5.889   2.988   5.713
 2385TIP3   OH2 7099   4.945   7.215   5.423
 2385TIP3    H1 7100   4.897   7.147   5.376
 2385TIP3    H2 7101   4.882   7.286   5.435
 2386TIP3   OH2 7102   6.227   0.826   2.801
 2386TIP3    H1 7103   6.258   0.832   2.891
 2386TIP3    H2 7104   6.185   0.910   2.785
 2387TIP3   OH2 7105   5.059   6.454   4.314
 2387TIP3    H1 7106   4.990   6.496   4.365
 2387TIP3    H2 7107   5.127   6.433   4.377
 2388TIP3   OH2 7108   7.858   3.974   0.472
 2388TIP3    H1 7109   7.838   4.066   0.458
 2388TIP3    H2 7110   7.866   3.937   0.384
 2389TIP3   OH2 7111   6.981   3.076   6.715
 2389TIP3    H1 7112   7.007   3.148   6.658
 2389TIP3    H2 7113   6.886   3.080   6.718
 2390TIP3   OH2 7114   5.766   5.642   4.767
 2390TIP3    H1 7115   5.730   5.684   4.845
 2390TIP3    H2 7116   5.691   5.628   4.710
 2391TIP3   OH2 7117   5.331   2.639   5.125
 2391TIP3    H1 7118   5.390   2.678   5.060
 2391TIP3    H2 7119   5.389   2.593   5.186
 2392TIP3   OH2 7120   2.688   6.118   1.634
 2392TIP3    H1 7121   2.602   6.076   1.627
 2392TIP3    H2 7122   2.709   6.113   1.727
 2393TIP3   OH2 7123   1.367   3.330   4.542
 2393TIP3    H1 7124   1.370   3.287   4.456
 2393TIP3    H2 7125   1.283   3.377   4.543
 2394TIP3   OH2 7126   4.059   2.721   4.461
 2394TIP3    H1 7127   4.046   2.722   4.366
 2394TIP3    H2 7128   3.999   2.788   4.494
 2395TIP3   OH2 7129   6.360   0.022   3.344
 2395TIP3    H1 7130   6.306   0.062   3.411
 2395TIP3    H2 7131   6.325   0.054   3.261
 2396TIP3   OH2 7132   0.918   5.187   5.859
 2396TIP3    H1 7133   0.926   5.282   5.856
 2396TIP3    H2 7134   1.004   5.155   5.832
 2397TIP3   OH2 7135   5.021   4.321   2.891
 2397TIP3    H1 7136   4.937   4.307   2.936
 2397TIP3    H2 7137   5.047   4.410   2.917
 2398TIP3   OH2 7138   2.935   0.430   3.584
 2398TIP3    H1 7139   3.020   0.468   3.565
 2398TIP3    H2 7140   2.942   0.398   3.674
 2399TIP3   OH2 7141   6.085   2.969   6.186
 2399TIP3    H1 7142   6.041   3.039   6.137
 2399TIP3    H2 7143   6.057   2.982   6.276
 2400TIP3   OH2 7144   0.418   5.085   3.400
 2400TIP3    H1 7145   0.405   5.172   3.436
 2400TIP3    H2 7146   0.417   5.098   3.305
 2401TIP3   OH2 7147   0.030   1.845   3.621
 2401TIP3    H1 7148  -0.037   1.906   3.649
 2401TIP3    H2 7149   0.022   1.842   3.526
 2402TIP3   OH2 7150   7.434   7.450   5.920
 2402TIP3    H1 7151   7.470   7.413   5.839
 2402TIP3    H2 7152   7.493   7.522   5.941
 2403TIP3   OH2 7153   5.464   0.128   1.466
 2403TIP3    H1 7154   5.477   0.184   1.389
 2403TIP3    H2 7155   5.509   0.174   1.537
 2404TIP3   OH2 7156   0.014   7.697   2.890
 2404TIP3    H1 7157   0.092   7.748   2.913
 2404TIP3    H2 7158  -0.054   7.763   2.875
 2405TIP3   OH2 7159   4.225   0.178   0.606
 2405TIP3    H1 7160   4.286   0.115   0.568
 2405TIP3    H2 7161   4.218   0.151   0.698
 2406TIP3   OH2 7162   4.641   6.318   5.722
 2406TIP3    H1 7163   4.603   6.267   5.794
 2406TIP3    H2 7164   4.581   6.391   5.710
 2407TIP3   OH2 7165   3.270   7.110   5.351
 2407TIP3    H1 7166   3.324   7.054   5.406
 2407TIP3    H2 7167   3.185   7.113   5.395
 2408TIP3   OH2 7168   1.878   2.050   3.921
 2408TIP3    H1 7169   1.826   2.002   3.985
 2408TIP3    H2 7170   1.836   2.030   3.837
 2409TIP3   OH2 7171   3.807   6.567   2.784
 2409TIP3    H1 7172   3.749   6.642   2.775
 2409TIP3    H2 7173   3.892   6.604   2.804
 2410TIP3   OH2 7174   3.487   5.152   0.229
 2410TIP3    H1 7175   3.511   5.227   0.174
 2410TIP3    H2 7176   3.569   5.104   0.240
 2411TIP3   OH2 7177   4.904   6.984   1.202
 2411TIP3    H1 7178   4.845   7.038   1.149
 2411TIP3    H2 7179   4.894   6.896   1.166
 2412TIP3   OH2 7180   1.536   0.335   2.373
 2412TIP3    H1 7181   1.548   0.275   2.447
 2412TIP3    H2 7182   1.453   0.308   2.333
 2413TIP3   OH2 7183   0.808   3.285   3.817
 2413TIP3    H1 7184   0.768   3.371   3.815
 2413TIP3    H2 7185   0.735   3.224   3.808
 2414TIP3   OH2 7186   4.102   0.683   0.886
 2414TIP3    H1 7187   4.186   0.647   0.856
 2414TIP3    H2 7188   4.037   0.620   0.855
 2415TIP3   OH2 7189   3.659   0.977   3.355
 2415TIP3    H1 7190   3.697   1.018   3.432
 2415TIP3    H2 7191   3.660   0.883   3.375
 2416TIP3   OH2 7192   3.622   5.861   6.751
 2416TIP3    H1 7193   3.643   5.896   6.837
 2416TIP3    H2 7194   3.652   5.770   6.754
 2417TIP3   OH2 7195   2.802   5.016   0.544
 2417TIP3    H1 7196   2.804   5.001   0.639
 2417TIP3    H2 7197   2.891   5.045   0.523
 2418TIP3   OH2 7198   7.714   1.538   2.153
 2418TIP3    H1 7199   7.670   1.622   2.168
 2418TIP3    H2 7200   7.749   1.545   2.064
 2419TIP3   OH2 7201   7.396   0.935   6.372
 2419TIP3    H1 7202   7.416   0.855   6.421
 2419TIP3    H2 7203   7.435   1.005   6.424
 2420TIP3   OH2 7204   5.337   4.608   2.367
 2420TIP3    H1 7205   5.273   4.601   2.296
 2420TIP3    H2 7206   5.297   4.669   2.429
 2421TIP3   OH2 7207   0.080   2.429   0.362
 2421TIP3    H1 7208   0.056   2.516   0.330
 2421TIP3    H2 7209   0.160   2.443   0.412
 2422TIP3   OH2 7210   3.920   4.772   4.079
 2422TIP3    H1 7211   3.935   4.692   4.129
 2422TIP3    H2 7212   3.850   4.748   4.017
 2423TIP3   OH2 7213   6.344   2.651   0.892
 2423TIP3    H1 7214   6.348   2.743   0.920
 2423TIP3    H2 7215   6.397   2.648   0.813
 2424TIP3   OH2 7216   3.007   5.373   6.428
 2424TIP3    H1 7217   2.922   5.391   6.388
 2424TIP3    H2 7218   3.025   5.451   6.481
 2425TIP3   OH2 7219   7.246   7.162   0.216
 2425TIP3    H1 7220   7.341   7.159   0.212
 2425TIP3    H2 7221   7.217   7.130   0.130
 2426TIP3   OH2 7222   7.556   3.827   6.758
 2426TIP3    H1 7223   7.602   3.833   6.674
 2426TIP3    H2 7224   7.471   3.789   6.737
 2427TIP3   OH2 7225   1.518   6.946   5.319
 2427TIP3    H1 7226   1.510   6.851   5.314
 2427TIP3    H2 7227   1.578   6.961   5.392
 2428TIP3   OH2 7228   6.915   3.075   2.818
 2428TIP3    H1 7229   6.835   3.025   2.805
 2428TIP3    H2 7230   6.887   3.166   2.822
 2429TIP3   OH2 7231   4.533   5.021   5.166
 2429TIP3    H1 7232   4.502   4.971   5.090
 2429TIP3    H2 7233   4.594   5.085   5.129
 2430TIP3   OH2 7234   3.301   1.668   3.947
 2430TIP3    H1 7235   3.344   1.656   3.862
 2430TIP3    H2 7236   3.208   1.653   3.929
 2431TIP3   OH2 7237   0.024   0.832   3.821
 2431TIP3    H1 7238  -0.053   0.880   3.788
 2431TIP3    H2 7239   0.099   0.877   3.782
 2432TIP3   OH2 7240   1.214   4.595   1.077
 2432TIP3    H1 7241   1.259   4.675   1.105
 2432TIP3    H2 7242   1.275   4.554   1.016
 2433TIP3   OH2 7243   6.353   3.843   1.193
 2433TIP3    H1 7244   6.416   3.771   1.185
 2433TIP3    H2 7245   6.268   3.801   1.185
 2434TIP3   OH2 7246   8.149   7.338   3.531
 2434TIP3    H1 7247   8.191   7.411   3.577
 2434TIP3    H2 7248   8.094   7.296   3.598
 2435TIP3   OH2 7249   1.519   4.329   1.115
 2435TIP3    H1 7250   1.491   4.242   1.085
 2435TIP3    H2 7251   1.492   4.332   1.207
 2436TIP3   OH2 7252   4.627   1.300   3.749
 2436TIP3    H1 7253   4.550   1.245   3.747
 2436TIP3    H2 7254   4.671   1.278   3.831
 2437TIP3   OH2 7255   1.286   3.095   5.407
 2437TIP3    H1 7256   1.373   3.057   5.421
 2437TIP3    H2 7257   1.237   3.071   5.486
 2438TIP3   OH2 7258   7.527   5.139   0.769
 2438TIP3    H1 7259   7.569   5.148   0.684
 2438TIP3    H2 7260   7.567   5.062   0.808
 2439TIP3   OH2 7261   7.487   1.808   5.041
 2439TIP3    H1 7262   7.582   1.799   5.035
 2439TIP3    H2 7263   7.468   1.893   5.001
 2440TIP3   OH2 7264   1.863   5.953   1.241
 2440TIP3    H1 7265   1.883   5.927   1.151
 2440TIP3    H2 7266   1.783   6.004   1.234
 2441TIP3   OH2 7267   4.920   0.145   4.256
 2441TIP3    H1 7268   4.946   0.237   4.261
 2441TIP3    H2 7269   4.860   0.134   4.330
 2442TIP3   OH2 7270   5.175   6.422   1.668
 2442TIP3    H1 7271   5.131   6.481   1.607
 2442TIP3    H2 7272   5.108   6.359   1.693
 2443TIP3   OH2 7273   2.671   3.845   5.705
 2443TIP3    H1 7274   2.579   3.872   5.708
 2443TIP3    H2 7275   2.703   3.880   5.622
 2444TIP3   OH2 7276   5.859   7.526   0.371
 2444TIP3    H1 7277   5.891   7.445   0.330
 2444TIP3    H2 7278   5.931   7.553   0.428
 2445TIP3   OH2 7279   0.653   5.073   2.293
 2445TIP3    H1 7280   0.681   5.045   2.206
 2445TIP3    H2 7281   0.715   5.031   2.353
 2446TIP3   OH2 7282   3.945   0.384   0.527
 2446TIP3    H1 7283   3.910   0.296   0.544
 2446TIP3    H2 7284   3.956   0.387   0.432
 2447TIP3   OH2 7285   5.085   2.206   0.935
 2447TIP3    H1 7286   5.035   2.187   0.856
 2447TIP3    H2 7287   5.034   2.167   1.006
 2448TIP3   OH2 7288   6.128   5.051   0.271
 2448TIP3    H1 7289   6.077   5.131   0.287
 2448TIP3    H2 7290   6.143   5.052   0.177
 2449TIP3   OH2 7291   4.004   5.008   2.697
 2449TIP3    H1 7292   4.008   4.999   2.792
 2449TIP3    H2 7293   4.073   4.950   2.665
 2450TIP3   OH2 7294   4.710   1.036   1.041
 2450TIP3    H1 7295   4.680   1.100   0.976
 2450TIP3    H2 7296   4.635   1.024   1.099
 2451TIP3   OH2 7297   5.774   3.751   3.643
 2451TIP3    H1 7298   5.809   3.728   3.729
 2451TIP3    H2 7299   5.688   3.789   3.661
 2452TIP3   OH2 7300   2.670   5.947   6.201
 2452TIP3    H1 7301   2.690   5.938   6.108
 2452TIP3    H2 7302   2.749   5.985   6.238
 2453TIP3   OH2 7303   7.948   4.293   1.850
 2453TIP3    H1 7304   7.863   4.252   1.832
 2453TIP3    H2 7305   7.926   4.382   1.878
 2454TIP3   OH2 7306   4.156   4.031   6.582
 2454TIP3    H1 7307   4.096   4.000   6.650
 2454TIP3    H2 7308   4.239   3.985   6.600
 2455TIP3   OH2 7309   0.510   0.858   3.692
 2455TIP3    H1 7310   0.500   0.781   3.635
 2455TIP3    H2 7311   0.601   0.855   3.720
 2456TIP3   OH2 7312   4.791   4.361   6.338
 2456TIP3    H1 7313   4.872   4.401   6.369
 2456TIP3    H2 7314   4.812   4.329   6.250
 2457TIP3   OH2 7315   5.305   0.845   6.242
 2457TIP3    H1 7316   5.242   0.916   6.256
 2457TIP3    H2 7317   5.260   0.766   6.270
 2458TIP3   OH2 7318   7.645   6.929   4.179
 2458TIP3    H1 7319   7.608   6.929   4.090
 2458TIP3    H2 7320   7.569   6.923   4.237
 2459TIP3   OH2 7321   5.309   6.485   3.557
 2459TIP3    H1 7322   5.244   6.474   3.487
 2459TIP3    H2 7323   5.374   6.417   3.540
 2460TIP3   OH2 7324   4.418   7.027   6.233
 2460TIP3    H1 7325   4.400   7.116   6.260
 2460TIP3    H2 7326   4.495   7.034   6.176
 2461TIP3   OH2 7327   4.373   0.485   3.161
 2461TIP3    H1 7328   4.325   0.403   3.155
 2461TIP3    H2 7329   4.396   0.493   3.253
 2462TIP3   OH2 7330   6.133   3.836   3.475
 2462TIP3    H1 7331   6.209   3.890   3.496
 2462TIP3    H2 7332   6.058   3.886   3.508
 2463TIP3   OH2 7333   7.413   5.231   1.225
 2463TIP3    H1 7334   7.479   5.256   1.161
 2463TIP3    H2 7335   7.418   5.299   1.293
 2464TIP3   OH2 7336   5.067   6.418   5.400
 2464TIP3    H1 7337   5.063   6.502   5.444
 2464TIP3    H2 7338   4.996   6.366   5.439
 2465TIP3   OH2 7339   7.455   0.231   3.062
 2465TIP3    H1 7340   7.362   0.239   3.084
 2465TIP3    H2 7341   7.500   0.265   3.139
 2466TIP3   OH2 7342   7.299   1.334   3.021
 2466TIP3    H1 7343   7.392   1.312   3.023
 2466TIP3    H2 7344   7.255   1.249   3.016
 2467TIP3   OH2 7345   4.829   5.727   4.397
 2467TIP3    H1 7346   4.803   5.816   4.421
 2467TIP3    H2 7347   4.857   5.686   4.479
 2468TIP3   OH2 7348   4.904   7.180   1.974
 2468TIP3    H1 7349   4.946   7.097   1.996
 2468TIP3    H2 7350   4.811   7.166   1.994
 2469TIP3   OH2 7351   6.462   0.815   2.612
 2469TIP3    H1 7352   6.454   0.876   2.539
 2469TIP3    H2 7353   6.384   0.831   2.666
 2470TIP3   OH2 7354   2.176   4.269   2.816
 2470TIP3    H1 7355   2.195   4.200   2.752
 2470TIP3    H2 7356   2.158   4.347   2.763
 2471TIP3   OH2 7357   3.382   1.909   5.778
 2471TIP3    H1 7358   3.424   1.995   5.781
 2471TIP3    H2 7359   3.409   1.865   5.858
 2472TIP3   OH2 7360   2.582   3.541   0.770
 2472TIP3    H1 7361   2.570   3.456   0.728
 2472TIP3    H2 7362   2.632   3.522   0.849
 2473TIP3   OH2 7363   4.658   6.684   6.707
 2473TIP3    H1 7364   4.752   6.700   6.693
 2473TIP3    H2 7365   4.624   6.667   6.620
 2474TIP3   OH2 7366   3.616   3.076   0.744
 2474TIP3    H1 7367   3.548   3.080   0.678
 2474TIP3    H2 7368   3.665   3.157   0.734
 2475TIP3   OH2 7369   7.691   7.344   0.711
 2475TIP3    H1 7370   7.619   7.296   0.751
 2475TIP3    H2 7371   7.669   7.436   0.723
 2476TIP3   OH2 7372   7.089   1.134   5.896
 2476TIP3    H1 7373   6.998   1.109   5.913
 2476TIP3    H2 7374   7.103   1.108   5.804
 2477TIP3   OH2 7375   1.245   4.234   1.719
 2477TIP3    H1 7376   1.335   4.218   1.693
 2477TIP3    H2 7377   1.212   4.148   1.746
 2478TIP3   OH2 7378   3.242   4.031   3.881
 2478TIP3    H1 7379   3.336   4.026   3.865
 2478TIP3    H2 7380   3.226   3.962   3.946
 2479TIP3   OH2 7381   5.778   5.005   4.368
 2479TIP3    H1 7382   5.733   5.015   4.452
 2479TIP3    H2 7383   5.719   5.045   4.305
 2480TIP3   OH2 7384   0.633  -0.026   3.343
 2480TIP3    H1 7385   0.600   0.023   3.268
 2480TIP3    H2 7386   0.605   0.025   3.419
 2481TIP3   OH2 7387   0.450   7.674   3.558
 2481TIP3    H1 7388   0.492   7.755   3.530
 2481TIP3    H2 7389   0.470   7.612   3.487
 2482TIP3   OH2 7390   0.004   7.222   2.181
 2482TIP3    H1 7391   0.047   7.306   2.200
 2482TIP3    H2 7392   0.077   7.160   2.170
 2483TIP3   OH2 7393   2.907   7.733   3.969
 2483TIP3    H1 7394   2.871   7.818   3.993
 2483TIP3    H2 7395   2.966   7.752   3.896
 2484TIP3   OH2 7396   2.253   0.215   5.183
 2484TIP3    H1 7397   2.320   0.259   5.235
 2484TIP3    H2 7398   2.296   0.199   5.099
 2485TIP3   OH2 7399   0.159   5.256   5.806
 2485TIP3    H1 7400   0.146   5.316   5.733
 2485TIP3    H2 7401   0.250   5.270   5.833
 2486TIP3   OH2 7402   7.538   5.482   5.112
 2486TIP3    H1 7403   7.471   5.469   5.180
 2486TIP3    H2 7404   7.621   5.476   5.159
 2487TIP3   OH2 7405   3.690   3.704   1.833
 2487TIP3    H1 7406   3.631   3.699   1.909
 2487TIP3    H2 7407   3.743   3.624   1.840
 2488TIP3   OH2 7408   6.175   5.544   3.609
 2488TIP3    H1 7409   6.119   5.536   3.686
 2488TIP3    H2 7410   6.172   5.637   3.586
 2489TIP3   OH2 7411   4.705   0.738   6.649
 2489TIP3    H1 7412   4.672   0.777   6.568
 2489TIP3    H2 7413   4.666   0.650   6.651
 2490TIP3   OH2 7414   5.256   6.952   2.273
 2490TIP3    H1 7415   5.336   6.912   2.238
 2490TIP3    H2 7416   5.231   6.896   2.347
 2491TIP3   OH2 7417   7.126   7.103   3.963
 2491TIP3    H1 7418   7.189   7.175   3.966
 2491TIP3    H2 7419   7.129   7.063   4.050
 2492TIP3   OH2 7420   1.527   6.516   5.500
 2492TIP3    H1 7421   1.453   6.566   5.532
 2492TIP3    H2 7422   1.604   6.566   5.526
 2493TIP3   OH2 7423   7.794   2.166   3.913
 2493TIP3    H1 7424   7.808   2.261   3.911
 2493TIP3    H2 7425   7.791   2.141   3.821
 2494TIP3   OH2 7426   2.140   4.898   5.718
 2494TIP3    H1 7427   2.217   4.917   5.664
 2494TIP3    H2 7428   2.156   4.809   5.751
 2495TIP3   OH2 7429   0.647   3.646   2.815
 2495TIP3    H1 7430   0.699   3.607   2.745
 2495TIP3    H2 7431   0.710   3.662   2.885
 2496TIP3   OH2 7432   3.263   4.486   1.940
 2496TIP3    H1 7433   3.339   4.507   1.885
 2496TIP3    H2 7434   3.274   4.393   1.962
 2497TIP3   OH2 7435   7.945   2.708   0.295
 2497TIP3    H1 7436   7.943   2.702   0.199
 2497TIP3    H2 7437   7.979   2.623   0.323
 2498TIP3   OH2 7438   1.684   0.250   3.141
 2498TIP3    H1 7439   1.589   0.249   3.147
 2498TIP3    H2 7440   1.707   0.164   3.106
 2499TIP3   OH2 7441   7.272   5.575   2.267
 2499TIP3    H1 7442   7.238   5.647   2.321
 2499TIP3    H2 7443   7.361   5.601   2.245
 2500TIP3   OH2 7444   6.896   4.701   0.661
 2500TIP3    H1 7445   6.896   4.703   0.566
 2500TIP3    H2 7446   6.838   4.628   0.684
 2501TIP3   OH2 7447   4.262   1.401   0.724
 2501TIP3    H1 7448   4.180   1.352   0.724
 2501TIP3    H2 7449   4.317   1.357   0.659
 2502TIP3   OH2 7450   5.100   0.527   6.506
 2502TIP3    H1 7451   5.018   0.532   6.554
 2502TIP3    H2 7452   5.091   0.591   6.434
 2503TIP3   OH2 7453   8.051   2.748   4.416
 2503TIP3    H1 7454   8.094   2.666   4.392
 2503TIP3    H2 7455   8.117   2.796   4.466
 2504TIP3   OH2 7456   1.320   4.885   5.829
 2504TIP3    H1 7457   1.251   4.822   5.809
 2504TIP3    H2 7458   1.279   4.948   5.888
 2505TIP3   OH2 7459   5.745   4.475   0.280
 2505TIP3    H1 7460   5.684   4.491   0.208
 2505TIP3    H2 7461   5.819   4.533   0.263
 2506TIP3   OH2 7462   5.476   0.892   0.394
 2506TIP3    H1 7463   5.527   0.862   0.318
 2506TIP3    H2 7464   5.401   0.937   0.356
 2507TIP3   OH2 7465   8.331   0.615   1.385
 2507TIP3    H1 7466   8.336   0.593   1.292
 2507TIP3    H2 7467   8.262   0.558   1.420
 2508TIP3   OH2 7468   7.708   1.002   6.392
 2508TIP3    H1 7469   7.691   0.939   6.462
 2508TIP3    H2 7470   7.625   1.049   6.382
 2509TIP3   OH2 7471   6.229   6.481   2.325
 2509TIP3    H1 7472   6.239   6.548   2.258
 2509TIP3    H2 7473   6.246   6.527   2.408
 2510TIP3   OH2 7474   0.932   2.084   0.208
 2510TIP3    H1 7475   0.966   2.170   0.183
 2510TIP3    H2 7476   0.986   2.058   0.282
 2511TIP3   OH2 7477   0.964   0.384   1.235
 2511TIP3    H1 7478   0.896   0.337   1.284
 2511TIP3    H2 7479   0.998   0.448   1.297
 2512TIP3   OH2 7480   4.858   4.300   3.245
 2512TIP3    H1 7481   4.949   4.328   3.259
 2512TIP3    H2 7482   4.854   4.213   3.284
 2513TIP3   OH2 7483   6.837   0.459   4.001
 2513TIP3    H1 7484   6.774   0.488   3.935
 2513TIP3    H2 7485   6.849   0.535   4.058
 2514TIP3   OH2 7486   5.703   4.803   3.923
 2514TIP3    H1 7487   5.783   4.848   3.897
 2514TIP3    H2 7488   5.698   4.816   4.018
 2515TIP3   OH2 7489   6.773   0.911   4.038
 2515TIP3    H1 7490   6.707   0.944   4.098
 2515TIP3    H2 7491   6.764   0.966   3.960
 2516TIP3   OH2 7492   6.517   3.691   6.421
 2516TIP3    H1 7493   6.529   3.656   6.509
 2516TIP3    H2 7494   6.459   3.766   6.432
 2517TIP3   OH2 7495   4.303   6.171   2.182
 2517TIP3    H1 7496   4.372   6.230   2.212
 2517TIP3    H2 7497   4.326   6.087   2.221
 2518TIP3   OH2 7498   0.203   7.485   3.332
 2518TIP3    H1 7499   0.242   7.483   3.245
 2518TIP3    H2 7500   0.129   7.424   3.328
 2519TIP3   OH2 7501   7.557   5.521   3.953
 2519TIP3    H1 7502   7.576   5.562   4.037
 2519TIP3    H2 7503   7.530   5.432   3.976
 2520TIP3   OH2 7504   6.897   2.969   5.328
 2520TIP3    H1 7505   6.922   2.876   5.324
 2520TIP3    H2 7506   6.877   2.992   5.238
 2521TIP3   OH2 7507   1.364   4.984   3.818
 2521TIP3    H1 7508   1.412   5.052   3.771
 2521TIP3    H2 7509   1.272   4.998   3.791
 2522TIP3   OH2 7510   2.781   4.504   6.708
 2522TIP3    H1 7511   2.798   4.452   6.787
 2522TIP3    H2 7512   2.867   4.534   6.680
 2523TIP3   OH2 7513   7.038   7.007   4.544
 2523TIP3    H1 7514   7.125   7.038   4.518
 2523TIP3    H2 7515   7.008   7.072   4.608
 2524TIP3   OH2 7516   5.642   3.858   0.783
 2524TIP3    H1 7517   5.622   3.868   0.690
 2524TIP3    H2 7518   5.582   3.918   0.827
 2525TIP3   OH2 7519   4.697   7.437   1.326
 2525TIP3    H1 7520   4.689   7.447   1.421
 2525TIP3    H2 7521   4.731   7.521   1.296
 2526TIP3   OH2 7522   5.252   6.073   6.482
 2526TIP3    H1 7523   5.166   6.089   6.521
 2526TIP3    H2 7524   5.237   6.079   6.388
 2527TIP3   OH2 7525   6.244   3.606   2.049
 2527TIP3    H1 7526   6.184   3.555   2.103
 2527TIP3    H2 7527   6.280   3.672   2.108
 2528TIP3   OH2 7528   6.191   5.801   0.797
 2528TIP3    H1 7529   6.134   5.784   0.722
 2528TIP3    H2 7530   6.215   5.714   0.829
 2529TIP3   OH2 7531   6.626   5.911   5.402
 2529TIP3    H1 7532   6.673   5.898   5.320
 2529TIP3    H2 7533   6.616   6.006   5.409
 2530TIP3   OH2 7534   2.732   5.523   1.432
 2530TIP3    H1 7535   2.819   5.551   1.404
 2530TIP3    H2 7536   2.684   5.509   1.350
 2531TIP3   OH2 7537   1.043   4.844   6.564
 2531TIP3    H1 7538   1.006   4.831   6.651
 2531TIP3    H2 7539   1.100   4.768   6.550
 2532TIP3   OH2 7540   2.465   4.547   5.181
 2532TIP3    H1 7541   2.374   4.520   5.167
 2532TIP3    H2 7542   2.515   4.496   5.116
 2533TIP3   OH2 7543   5.912   7.399   6.529
 2533TIP3    H1 7544   5.946   7.449   6.604
 2533TIP3    H2 7545   5.902   7.464   6.459
 2534TIP3   OH2 7546   4.940   2.239   5.783
 2534TIP3    H1 7547   5.029   2.251   5.818
 2534TIP3    H2 7548   4.884   2.237   5.861
 2535TIP3   OH2 7549   0.872   4.931   1.417
 2535TIP3    H1 7550   0.952   4.897   1.378
 2535TIP3    H2 7551   0.805   4.866   1.396
 2536TIP3   OH2 7552   7.216   0.158   0.041
 2536TIP3    H1 7553   7.159   0.200  -0.024
 2536TIP3    H2 7554   7.281   0.225   0.061
 2537TIP3   OH2 7555   6.715   4.601   2.873
 2537TIP3    H1 7556   6.690   4.532   2.811
 2537TIP3    H2 7557   6.789   4.564   2.921
 2538TIP3   OH2 7558   7.594   2.818   5.238
 2538TIP3    H1 7559   7.592   2.867   5.156
 2538TIP3    H2 7560   7.594   2.885   5.306
 2539TIP3   OH2 7561   1.085   6.940   1.165
 2539TIP3    H1 7562   1.136   6.883   1.108
 2539TIP3    H2 7563   0.998   6.941   1.124
 2540TIP3   OH2 7564   6.525   5.133   2.197
 2540TIP3    H1 7565   6.460   5.185   2.150
 2540TIP3    H2 7566   6.484   5.113   2.281
 2541TIP3   OH2 7567   5.748   7.582   1.772
 2541TIP3    H1 7568   5.820   7.626   1.816
 2541TIP3    H2 7569   5.789   7.514   1.720
 2542TIP3   OH2 7570   3.993   7.024   5.618
 2542TIP3    H1 7571   3.932   7.066   5.558
 2542TIP3    H2 7572   3.938   6.967   5.672
 2543TIP3   OH2 7573   3.824   7.682   3.232
 2543TIP3    H1 7574   3.912   7.645   3.229
 2543TIP3    H2 7575   3.816   7.732   3.151
 2544TIP3   OH2 7576   1.267   6.921   4.998
 2544TIP3    H1 7577   1.214   6.850   5.033
 2544TIP3    H2 7578   1.245   6.997   5.051
 2545TIP3   OH2 7579   4.089   0.752   2.862
 2545TIP3    H1 7580   4.086   0.738   2.768
 2545TIP3    H2 7581   4.043   0.677   2.899
 2546TIP3   OH2 7582   6.771   0.846   1.790
 2546TIP3    H1 7583   6.722   0.824   1.710
 2546TIP3    H2 7584   6.852   0.796   1.783
 2547TIP3   OH2 7585   4.978   6.244   0.332
 2547TIP3    H1 7586   4.982   6.338   0.316
 2547TIP3    H2 7587   4.885   6.222   0.322
 2548TIP3   OH2 7588   1.460   2.738   0.194
 2548TIP3    H1 7589   1.518   2.806   0.158
 2548TIP3    H2 7590   1.397   2.787   0.247
 2549TIP3   OH2 7591   5.021   2.540   3.469
 2549TIP3    H1 7592   5.082   2.479   3.427
 2549TIP3    H2 7593   5.035   2.527   3.563
 2550TIP3   OH2 7594   0.778   2.494   4.162
 2550TIP3    H1 7595   0.872   2.487   4.180
 2550TIP3    H2 7596   0.772   2.490   4.066
 2551TIP3   OH2 7597   5.059   3.193   3.659
 2551TIP3    H1 7598   5.127   3.220   3.598
 2551TIP3    H2 7599   4.985   3.251   3.640
 2552TIP3   OH2 7600   4.929   1.025   1.265
 2552TIP3    H1 7601   4.889   1.085   1.328
 2552TIP3    H2 7602   4.888   1.047   1.182
 2553TIP3   OH2 7603   4.997   1.879   4.020
 2553TIP3    H1 7604   4.936   1.952   4.012
 2553TIP3    H2 7605   5.049   1.899   4.097
 2554TIP3   OH2 7606   2.864   2.709   2.024
 2554TIP3    H1 7607   2.930   2.756   2.074
 2554TIP3    H2 7608   2.810   2.665   2.090
 2555TIP3   OH2 7609   1.413   6.930   4.513
 2555TIP3    H1 7610   1.353   6.894   4.447
 2555TIP3    H2 7611   1.380   6.896   4.596
 2556TIP3   OH2 7612   5.082   3.584   0.597
 2556TIP3    H1 7613   4.998   3.629   0.600
 2556TIP3    H2 7614   5.094   3.561   0.505
 2557TIP3   OH2 7615   4.992   0.898   1.526
 2557TIP3    H1 7616   4.903   0.930   1.539
 2557TIP3    H2 7617   5.008   0.909   1.432
 2558TIP3   OH2 7618   4.444   6.407   0.068
 2558TIP3    H1 7619   4.500   6.359   0.007
 2558TIP3    H2 7620   4.363   6.422   0.021
 2559TIP3   OH2 7621   6.428   3.941   1.956
 2559TIP3    H1 7622   6.477   4.002   2.010
 2559TIP3    H2 7623   6.405   3.991   1.878
 2560TIP3   OH2 7624   1.515   4.027   6.556
 2560TIP3    H1 7625   1.509   3.973   6.477
 2560TIP3    H2 7626   1.600   4.071   6.549
 2561TIP3   OH2 7627   2.799   4.765   4.718
 2561TIP3    H1 7628   2.750   4.847   4.725
 2561TIP3    H2 7629   2.837   4.768   4.630
 2562TIP3   OH2 7630   0.068   1.410   5.072
 2562TIP3    H1 7631  -0.018   1.442   5.046
 2562TIP3    H2 7632   0.130   1.470   5.030
 2563TIP3   OH2 7633   7.094   2.762   4.137
 2563TIP3    H1 7634   7.002   2.789   4.142
 2563TIP3    H2 7635   7.137   2.810   4.207
 2564TIP3   OH2 7636   4.944   3.481   4.564
 2564TIP3    H1 7637   4.900   3.557   4.603
 2564TIP3    H2 7638   5.033   3.512   4.547
 2565TIP3   OH2 7639   2.643   6.791   2.251
 2565TIP3    H1 7640   2.690   6.803   2.334
 2565TIP3    H2 7641   2.573   6.729   2.272
 2566TIP3   OH2 7642   3.089   2.793   0.335
 2566TIP3    H1 7643   3.060   2.756   0.419
 2566TIP3    H2 7644   3.156   2.732   0.304
 2567TIP3   OH2 7645   1.026   1.431   3.763
 2567TIP3    H1 7646   1.066   1.467   3.684
 2567TIP3    H2 7647   1.065   1.481   3.835
 2568TIP3   OH2 7648   2.556   0.363   3.581
 2568TIP3    H1 7649   2.579   0.370   3.674
 2568TIP3    H2 7650   2.473   0.409   3.573
 2569TIP3   OH2 7651   2.789   7.398   5.986
 2569TIP3    H1 7652   2.879   7.421   5.965
 2569TIP3    H2 7653   2.742   7.408   5.902
 2570TIP3   OH2 7654   0.534   0.850   5.829
 2570TIP3    H1 7655   0.508   0.809   5.911
 2570TIP3    H2 7656   0.579   0.780   5.781
 2571TIP3   OH2 7657   0.388   5.785   3.620
 2571TIP3    H1 7658   0.312   5.744   3.662
 2571TIP3    H2 7659   0.443   5.814   3.693
 2572TIP3   OH2 7660   8.055   6.375   6.193
 2572TIP3    H1 7661   8.136   6.363   6.243
 2572TIP3    H2 7662   8.004   6.295   6.211
 2573TIP3   OH2 7663   1.747   4.897   2.337
 2573TIP3    H1 7664   1.708   4.852   2.412
 2573TIP3    H2 7665   1.672   4.930   2.288
 2574TIP3   OH2 7666   1.420   1.892   5.710
 2574TIP3    H1 7667   1.498   1.837   5.724
 2574TIP3    H2 7668   1.427   1.960   5.777
 2575TIP3   OH2 7669   3.529   5.428   6.231
 2575TIP3    H1 7670   3.580   5.428   6.150
 2575TIP3    H2 7671   3.458   5.365   6.215
 2576TIP3   OH2 7672   1.037   5.260   0.340
 2576TIP3    H1 7673   1.050   5.315   0.418
 2576TIP3    H2 7674   0.942   5.257   0.328
 2577TIP3   OH2 7675   1.665   6.990   5.548
 2577TIP3    H1 7676   1.744   6.997   5.494
 2577TIP3    H2 7677   1.698   6.962   5.634
 2578TIP3   OH2 7678   5.943   4.605   2.809
 2578TIP3    H1 7679   5.945   4.523   2.759
 2578TIP3    H2 7680   6.031   4.611   2.847
 2579TIP3   OH2 7681   7.441   3.616   1.791
 2579TIP3    H1 7682   7.510   3.630   1.726
 2579TIP3    H2 7683   7.369   3.673   1.762
 2580TIP3   OH2 7684   3.239   1.355   2.232
 2580TIP3    H1 7685   3.221   1.319   2.319
 2580TIP3    H2 7686   3.335   1.356   2.225
 2581TIP3   OH2 7687   6.478   3.713   4.605
 2581TIP3    H1 7688   6.540   3.785   4.618
 2581TIP3    H2 7689   6.465   3.710   4.510
 2582TIP3   OH2 7690   1.729   5.875   0.499
 2582TIP3    H1 7691   1.650   5.907   0.542
 2582TIP3    H2 7692   1.707   5.874   0.405
 2583TIP3   OH2 7693   5.995   5.612   1.641
 2583TIP3    H1 7694   6.021   5.657   1.561
 2583TIP3    H2 7695   5.910   5.574   1.622
 2584TIP3   OH2 7696   1.762   5.830   5.086
 2584TIP3    H1 7697   1.703   5.789   5.024
 2584TIP3    H2 7698   1.827   5.876   5.032
 2585TIP3   OH2 7699   3.138   4.928   0.922
 2585TIP3    H1 7700   3.150   4.997   0.987
 2585TIP3    H2 7701   3.226   4.907   0.892
 2586TIP3   OH2 7702   3.354   1.316   3.489
 2586TIP3    H1 7703   3.356   1.369   3.410
 2586TIP3    H2 7704   3.443   1.322   3.524
 2587TIP3   OH2 7705   5.297   2.637   1.977
 2587TIP3    H1 7706   5.335   2.724   1.973
 2587TIP3    H2 7707   5.205   2.650   1.954
 2588TIP3   OH2 7708   3.150   2.589   1.740
 2588TIP3    H1 7709   3.219   2.532   1.775
 2588TIP3    H2 7710   3.075   2.530   1.729
 2589TIP3   OH2 7711   6.449   1.286   0.295
 2589TIP3    H1 7712   6.453   1.226   0.369
 2589TIP3    H2 7713   6.399   1.238   0.228
 2590TIP3   OH2 7714   2.386   5.806   3.449
 2590TIP3    H1 7715   2.364   5.887   3.403
 2590TIP3    H2 7716   2.451   5.832   3.514
 2591TIP3   OH2 7717   2.910   3.408   1.134
 2591TIP3    H1 7718   2.815   3.397   1.128
 2591TIP3    H2 7719   2.924   3.459   1.213
 2592TIP3   OH2 7720   1.414   2.543   2.601
 2592TIP3    H1 7721   1.444   2.582   2.519
 2592TIP3    H2 7722   1.491   2.495   2.634
 2593TIP3   OH2 7723   2.785   4.704   1.186
 2593TIP3    H1 7724   2.867   4.684   1.142
 2593TIP3    H2 7725   2.797   4.793   1.219
 2594TIP3   OH2 7726   8.183   5.567   3.661
 2594TIP3    H1 7727   8.140   5.511   3.596
 2594TIP3    H2 7728   8.239   5.507   3.710
 2595TIP3   OH2 7729   2.238   6.407   6.458
 2595TIP3    H1 7730   2.328   6.423   6.430
 2595TIP3    H2 7731   2.185   6.454   6.394
 2596TIP3   OH2 7732   2.929   1.630   0.098
 2596TIP3    H1 7733   3.003   1.679   0.136
 2596TIP3    H2 7734   2.952   1.622   0.006
 2597TIP3   OH2 7735   3.962   4.583   6.038
 2597TIP3    H1 7736   3.972   4.580   5.942
 2597TIP3    H2 7737   4.038   4.632   6.069
 2598TIP3   OH2 7738   7.805   2.736   5.065
 2598TIP3    H1 7739   7.721   2.751   5.107
 2598TIP3    H2 7740   7.793   2.657   5.013
 2599TIP3   OH2 7741   4.152   5.485   2.476
 2599TIP3    H1 7742   4.100   5.409   2.502
 2599TIP3    H2 7743   4.172   5.470   2.384
 2600TIP3   OH2 7744   4.287   2.075   1.142
 2600TIP3    H1 7745   4.280   1.989   1.183
 2600TIP3    H2 7746   4.240   2.066   1.059
 2601TIP3   OH2 7747   5.982   2.159   3.345
 2601TIP3    H1 7748   6.000   2.243   3.304
 2601TIP3    H2 7749   6.068   2.123   3.365
 2602TIP3   OH2 7750   4.911   3.686   3.954
 2602TIP3    H1 7751   4.940   3.597   3.974
 2602TIP3    H2 7752   4.949   3.739   4.024
 2603TIP3   OH2 7753   7.365   7.273   4.279
 2603TIP3    H1 7754   7.387   7.364   4.263
 2603TIP3    H2 7755   7.321   7.244   4.199
 2604TIP3   OH2 7756   7.772   1.369   2.371
 2604TIP3    H1 7757   7.739   1.384   2.283
 2604TIP3    H2 7758   7.709   1.308   2.411
 2605TIP3   OH2 7759   7.983   4.501   3.394
 2605TIP3    H1 7760   7.913   4.548   3.439
 2605TIP3    H2 7761   8.044   4.477   3.464
 2606TIP3   OH2 7762   2.995   6.512   3.917
 2606TIP3    H1 7763   2.962   6.537   3.831
 2606TIP3    H2 7764   2.939   6.558   3.979
 2607TIP3   OH2 7765   7.566   4.511   2.349
 2607TIP3    H1 7766   7.577   4.433   2.402
 2607TIP3    H2 7767   7.490   4.556   2.387
 2608TIP3   OH2 7768   5.273   3.132   4.411
 2608TIP3    H1 7769   5.211   3.185   4.461
 2608TIP3    H2 7770   5.352   3.186   4.408
 2609TIP3   OH2 7771   4.107   6.509   0.392
 2609TIP3    H1 7772   4.175   6.539   0.332
 2609TIP3    H2 7773   4.073   6.429   0.351
 2610TIP3   OH2 7774   1.440   1.251   6.505
 2610TIP3    H1 7775   1.358   1.208   6.528
 2610TIP3    H2 7776   1.414   1.335   6.469
 2611TIP3   OH2 7777   1.065   4.711   5.284
 2611TIP3    H1 7778   1.123   4.760   5.225
 2611TIP3    H2 7779   1.061   4.623   5.246
 2612TIP3   OH2 7780   4.689   4.284   3.855
 2612TIP3    H1 7781   4.764   4.314   3.805
 2612TIP3    H2 7782   4.615   4.290   3.794
 2613TIP3   OH2 7783   5.641   0.416   2.504
 2613TIP3    H1 7784   5.662   0.325   2.483
 2613TIP3    H2 7785   5.556   0.413   2.546
 2614TIP3   OH2 7786   4.965   1.895   4.921
 2614TIP3    H1 7787   4.874   1.914   4.897
 2614TIP3    H2 7788   4.984   1.956   4.993
 2615TIP3   OH2 7789   1.698   5.700   3.199
 2615TIP3    H1 7790   1.671   5.780   3.244
 2615TIP3    H2 7791   1.789   5.687   3.227
 2616TIP3   OH2 7792   3.933   3.393   4.869
 2616TIP3    H1 7793   4.003   3.344   4.828
 2616TIP3    H2 7794   3.858   3.383   4.809
 2617TIP3   OH2 7795   3.245   3.276   1.671
 2617TIP3    H1 7796   3.284   3.317   1.749
 2617TIP3    H2 7797   3.320   3.241   1.623
 2618TIP3   OH2 7798   3.493   6.927   3.279
 2618TIP3    H1 7799   3.452   6.857   3.329
 2618TIP3    H2 7800   3.443   7.005   3.302
 2619TIP3   OH2 7801   0.601   5.388   2.079
 2619TIP3    H1 7802   0.580   5.402   2.171
 2619TIP3    H2 7803   0.519   5.404   2.033
 2620TIP3   OH2 7804   6.096   7.113   0.015
 2620TIP3    H1 7805   6.115   7.126   0.108
 2620TIP3    H2 7806   6.159   7.047  -0.013
 2621TIP3   OH2 7807   7.231   0.854   1.318
 2621TIP3    H1 7808   7.145   0.893   1.331
 2621TIP3    H2 7809   7.271   0.855   1.405
 2622TIP3   OH2 7810   7.889   5.875   1.840
 2622TIP3    H1 7811   7.799   5.864   1.871
 2622TIP3    H2 7812   7.884   5.950   1.780
 2623TIP3   OH2 7813   2.255   2.186   5.469
 2623TIP3    H1 7814   2.211   2.234   5.540
 2623TIP3    H2 7815   2.319   2.249   5.434
 2624TIP3   OH2 7816   1.337   4.069   4.574
 2624TIP3    H1 7817   1.314   3.982   4.608
 2624TIP3    H2 7818   1.386   4.051   4.494
 2625TIP3   OH2 7819   3.392   6.450   4.462
 2625TIP3    H1 7820   3.456   6.421   4.398
 2625TIP3    H2 7821   3.328   6.501   4.412
 2626TIP3   OH2 7822   6.331   4.780   6.215
 2626TIP3    H1 7823   6.279   4.706   6.186
 2626TIP3    H2 7824   6.393   4.743   6.278
 2627TIP3   OH2 7825   1.635   3.351   6.243
 2627TIP3    H1 7826   1.660   3.399   6.164
 2627TIP3    H2 7827   1.543   3.372   6.256
 2628TIP3   OH2 7828   7.717   5.497   2.845
 2628TIP3    H1 7829   7.785   5.564   2.850
 2628TIP3    H2 7830   7.687   5.501   2.755
 2629TIP3   OH2 7831   7.528   0.540   1.646
 2629TIP3    H1 7832   7.456   0.599   1.669
 2629TIP3    H2 7833   7.519   0.467   1.707
 2630TIP3   OH2 7834   6.459   5.786   4.822
 2630TIP3    H1 7835   6.552   5.769   4.811
 2630TIP3    H2 7836   6.416   5.704   4.799
 2631TIP3   OH2 7837   2.914   5.848   5.258
 2631TIP3    H1 7838   2.832   5.886   5.227
 2631TIP3    H2 7839   2.887   5.786   5.326
 2632TIP3   OH2 7840   5.960   2.382   2.061
 2632TIP3    H1 7841   5.920   2.451   2.114
 2632TIP3    H2 7842   5.886   2.338   2.020
 2633TIP3   OH2 7843   4.256   5.840   2.813
 2633TIP3    H1 7844   4.321   5.770   2.810
 2633TIP3    H2 7845   4.203   5.822   2.890
 2634TIP3   OH2 7846   6.895   4.979   5.090
 2634TIP3    H1 7847   6.955   4.993   5.163
 2634TIP3    H2 7848   6.830   4.918   5.123
 2635TIP3   OH2 7849   7.817   0.552   2.981
 2635TIP3    H1 7850   7.909   0.524   2.981
 2635TIP3    H2 7851   7.799   0.573   2.889
 2636TIP3   OH2 7852   5.849   7.308   4.662
 2636TIP3    H1 7853   5.911   7.325   4.591
 2636TIP3    H2 7854   5.784   7.378   4.655
 2637TIP3   OH2 7855   4.263   0.236   0.075
 2637TIP3    H1 7856   4.318   0.233   0.154
 2637TIP3    H2 7857   4.318   0.278   0.009
 2638TIP3   OH2 7858   3.059   0.307   4.687
 2638TIP3    H1 7859   3.087   0.332   4.600
 2638TIP3    H2 7860   2.996   0.236   4.673
 2639TIP3   OH2 7861   3.608   2.667   5.613
 2639TIP3    H1 7862   3.535   2.644   5.556
 2639TIP3    H2 7863   3.687   2.645   5.563
 2640TIP3   OH2 7864   3.739   0.171   1.450
 2640TIP3    H1 7865   3.802   0.099   1.442
 2640TIP3    H2 7866   3.691   0.152   1.531
 2641TIP3   OH2 7867   2.525   1.219   4.828
 2641TIP3    H1 7868   2.474   1.262   4.897
 2641TIP3    H2 7869   2.581   1.289   4.794
 2642TIP3   OH2 7870   8.218   5.855   1.160
 2642TIP3    H1 7871   8.125   5.840   1.179
 2642TIP3    H2 7872   8.263   5.831   1.241
 2643TIP3   OH2 7873   2.716   3.050   2.618
 2643TIP3    H1 7874   2.732   3.057   2.524
 2643TIP3    H2 7875   2.708   3.140   2.648
 2644TIP3   OH2 7876   1.765   7.743   5.735
 2644TIP3    H1 7877   1.705   7.682   5.692
 2644TIP3    H2 7878   1.843   7.745   5.679
 2645TIP3   OH2 7879   2.819   1.204   5.477
 2645TIP3    H1 7880   2.727   1.214   5.502
 2645TIP3    H2 7881   2.862   1.280   5.515
 2646TIP3   OH2 7882   1.581   4.700   1.421
 2646TIP3    H1 7883   1.489   4.701   1.450
 2646TIP3    H2 7884   1.580   4.641   1.345
 2647TIP3   OH2 7885   1.783   6.823   2.376
 2647TIP3    H1 7886   1.705   6.879   2.373
 2647TIP3    H2 7887   1.754   6.741   2.337
 2648TIP3   OH2 7888   7.223   4.975   6.429
 2648TIP3    H1 7889   7.130   4.968   6.449
 2648TIP3    H2 7890   7.267   4.934   6.503
 2649TIP3   OH2 7891   0.074   7.146   6.553
 2649TIP3    H1 7892   0.065   7.077   6.487
 2649TIP3    H2 7893   0.094   7.100   6.634
 2650TIP3   OH2 7894   3.463   7.738   5.533
 2650TIP3    H1 7895   3.376   7.700   5.539
 2650TIP3    H2 7896   3.499   7.702   5.452
 2651TIP3   OH2 7897   2.768   2.041   2.986
 2651TIP3    H1 7898   2.695   2.036   2.924
 2651TIP3    H2 7899   2.753   2.122   3.035
 2652TIP3   OH2 7900   4.642   0.958   5.284
 2652TIP3    H1 7901   4.644   1.039   5.334
 2652TIP3    H2 7902   4.719   0.909   5.313
 2653TIP3   OH2 7903   7.556   0.061   0.769
 2653TIP3    H1 7904   7.469   0.098   0.756
 2653TIP3    H2 7905   7.583   0.094   0.855
 2654TIP3   OH2 7906   3.833   2.085   4.262
 2654TIP3    H1 7907   3.777   2.016   4.300
 2654TIP3    H2 7908   3.803   2.165   4.305
 2655TIP3   OH2 7909   7.964   0.961   0.740
 2655TIP3    H1 7910   8.052   0.973   0.776
 2655TIP3    H2 7911   7.908   0.947   0.816
 2656TIP3   OH2 7912   7.392   6.910   2.896
 2656TIP3    H1 7913   7.431   6.845   2.837
 2656TIP3    H2 7914   7.446   6.907   2.975
 2657TIP3   OH2 7915   7.101   2.773   6.398
 2657TIP3    H1 7916   7.017   2.752   6.438
 2657TIP3    H2 7917   7.090   2.863   6.366
 2658TIP3   OH2 7918   6.234   1.969   0.006
 2658TIP3    H1 7919   6.190   1.890   0.038
 2658TIP3    H2 7920   6.188   2.041   0.051
 2659TIP3   OH2 7921   0.712   3.335   6.403
 2659TIP3    H1 7922   0.623   3.329   6.368
 2659TIP3    H2 7923   0.701   3.367   6.493
 2660TIP3   OH2 7924   0.384   4.056   2.392
 2660TIP3    H1 7925   0.446   3.983   2.396
 2660TIP3    H2 7926   0.434   4.131   2.424
 2661TIP3   OH2 7927   5.443   3.352   6.295
 2661TIP3    H1 7928   5.368   3.355   6.236
 2661TIP3    H2 7929   5.478   3.263   6.286
 2662TIP3   OH2 7930   2.970   2.113   2.548
 2662TIP3    H1 7931   2.973   2.023   2.514
 2662TIP3    H2 7932   3.036   2.113   2.618
 2663TIP3   OH2 7933   7.835   5.097   2.499
 2663TIP3    H1 7934   7.783   5.017   2.487
 2663TIP3    H2 7935   7.770   5.165   2.515
 2664TIP3   OH2 7936   7.509   2.305   5.132
 2664TIP3    H1 7937   7.558   2.321   5.213
 2664TIP3    H2 7938   7.477   2.215   5.141
 2665TIP3   OH2 7939   0.165   6.381   1.304
 2665TIP3    H1 7940   0.188   6.390   1.397
 2665TIP3    H2 7941   0.241   6.339   1.265
 2666TIP3   OH2 7942   5.320   1.884   1.905
 2666TIP3    H1 7943   5.274   1.949   1.852
 2666TIP3    H2 7944   5.352   1.932   1.981
 2667TIP3   OH2 7945   7.963   5.764   6.234
 2667TIP3    H1 7946   8.056   5.747   6.246
 2667TIP3    H2 7947   7.953   5.778   6.140
 2668TIP3   OH2 7948   4.407   2.921   4.195
 2668TIP3    H1 7949   4.386   2.836   4.156
 2668TIP3    H2 7950   4.359   2.922   4.278
 2669TIP3   OH2 7951   5.246   1.675   3.497
 2669TIP3    H1 7952   5.190   1.694   3.422
 2669TIP3    H2 7953   5.331   1.654   3.459
 2670TIP3   OH2 7954   6.717   4.032   1.177
 2670TIP3    H1 7955   6.753   4.063   1.094
 2670TIP3    H2 7956   6.762   4.085   1.244
 2671TIP3   OH2 7957   3.967   3.703   5.430
 2671TIP3    H1 7958   4.025   3.779   5.428
 2671TIP3    H2 7959   3.898   3.727   5.492
 2672TIP3   OH2 7960   4.619   1.458   3.042
 2672TIP3    H1 7961   4.567   1.463   3.122
 2672TIP3    H2 7962   4.555   1.445   2.972
 2673TIP3   OH2 7963   6.979   1.829   1.814
 2673TIP3    H1 7964   6.930   1.806   1.735
 2673TIP3    H2 7965   6.984   1.925   1.811
 2674TIP3   OH2 7966   2.958   1.893   1.855
 2674TIP3    H1 7967   2.887   1.846   1.898
 2674TIP3    H2 7968   3.037   1.843   1.877
 2675TIP3   OH2 7969   5.755   2.596   5.220
 2675TIP3    H1 7970   5.797   2.638   5.295
 2675TIP3    H2 7971   5.676   2.556   5.255
 2676TIP3   OH2 7972   4.383   2.065   2.400
 2676TIP3    H1 7973   4.433   2.145   2.418
 2676TIP3    H2 7974   4.292   2.093   2.407
 2677TIP3   OH2 7975   4.659   2.498   2.366
 2677TIP3    H1 7976   4.587   2.558   2.381
 2677TIP3    H2 7977   4.723   2.549   2.316
 2678TIP3   OH2 7978   7.633   4.621   6.650
 2678TIP3    H1 7979   7.598   4.549   6.597
 2678TIP3    H2 7980   7.689   4.579   6.714
 2679TIP3   OH2 7981   3.506   3.761   6.288
 2679TIP3    H1 7982   3.581   3.717   6.328
 2679TIP3    H2 7983   3.457   3.797   6.362
 2680TIP3   OH2 7984   6.959   2.447   0.018
 2680TIP3    H1 7985   6.872   2.487   0.028
 2680TIP3    H2 7986   7.020   2.521   0.016
 2681TIP3   OH2 7987   2.249   1.970   5.902
 2681TIP3    H1 7988   2.324   2.027   5.922
 2681TIP3    H2 7989   2.173   2.026   5.917
 2682TIP3   OH2 7990   2.795   3.082   1.169
 2682TIP3    H1 7991   2.820   3.043   1.252
 2682TIP3    H2 7992   2.778   3.007   1.111
 2683TIP3   OH2 7993   5.618   2.254   6.306
 2683TIP3    H1 7994   5.550   2.319   6.290
 2683TIP3    H2 7995   5.646   2.271   6.396
 2684TIP3   OH2 7996   8.156   4.237   5.529
 2684TIP3    H1 7997   8.251   4.222   5.528
 2684TIP3    H2 7998   8.144   4.319   5.481
 2685TIP3   OH2 7999   5.712   5.501   2.855
 2685TIP3    H1 8000   5.771   5.431   2.826
 2685TIP3    H2 8001   5.702   5.557   2.778
 2686TIP3   OH2 8002   5.273   0.718   1.893
 2686TIP3    H1 8003   5.322   0.659   1.835
 2686TIP3    H2 8004   5.340   0.776   1.929
 2687TIP3   OH2 8005   0.859   2.311   2.657
 2687TIP3    H1 8006   0.790   2.244   2.655
 2687TIP3    H2 8007   0.936   2.265   2.690
 2688TIP3   OH2 8008   2.295   4.145   4.660
 2688TIP3    H1 8009   2.239   4.220   4.639
 2688TIP3    H2 8010   2.370   4.183   4.706
 2689TIP3   OH2 8011   0.162   3.814   4.186
 2689TIP3    H1 8012   0.075   3.814   4.225
 2689TIP3    H2 8013   0.147   3.827   4.092
 2690TIP3   OH2 8014   6.904   3.068   0.184
 2690TIP3    H1 8015   6.813   3.094   0.196
 2690TIP3    H2 8016   6.911   3.050   0.090
 2691TIP3   OH2 8017   4.748   2.018   4.023
 2691TIP3    H1 8018   4.674   1.959   4.007
 2691TIP3    H2 8019   4.711   2.088   4.077
 2692TIP3   OH2 8020   2.906   7.049   4.094
 2692TIP3    H1 8021   2.827   7.028   4.044
 2692TIP3    H2 8022   2.878   7.112   4.160
 2693TIP3   OH2 8023   2.866   1.177   6.754
 2693TIP3    H1 8024   2.787   1.198   6.704
 2693TIP3    H2 8025   2.862   1.082   6.765
 2694TIP3   OH2 8026   0.957   2.886   0.914
 2694TIP3    H1 8027   0.914   2.869   0.998
 2694TIP3    H2 8028   1.044   2.917   0.938
 2695TIP3   OH2 8029   4.181   4.925   4.720
 2695TIP3    H1 8030   4.247   4.980   4.760
 2695TIP3    H2 8031   4.120   4.904   4.791
 2696TIP3   OH2 8032   3.010   2.436   4.318
 2696TIP3    H1 8033   3.034   2.402   4.232
 2696TIP3    H2 8034   3.019   2.531   4.310
 2697TIP3   OH2 8035   0.192   1.716   6.487
 2697TIP3    H1 8036   0.166   1.626   6.468
 2697TIP3    H2 8037   0.286   1.710   6.505
 2698TIP3   OH2 8038   2.501   0.730   5.634
 2698TIP3    H1 8039   2.457   0.790   5.694
 2698TIP3    H2 8040   2.470   0.643   5.660
 2699TIP3   OH2 8041   5.896   4.868   5.889
 2699TIP3    H1 8042   5.944   4.946   5.917
 2699TIP3    H2 8043   5.842   4.898   5.816
 2700TIP3   OH2 8044   0.865   4.820   5.420
 2700TIP3    H1 8045   0.798   4.773   5.371
 2700TIP3    H2 8046   0.935   4.835   5.355
 2701TIP3   OH2 8047   4.904   2.542   6.725
 2701TIP3    H1 8048   4.873   2.482   6.656
 2701TIP3    H2 8049   4.999   2.546   6.712
 2702TIP3   OH2 8050   1.230   3.821   4.877
 2702TIP3    H1 8051   1.185   3.775   4.948
 2702TIP3    H2 8052   1.314   3.775   4.868
 2703TIP3   OH2 8053   6.829   3.001   2.419
 2703TIP3    H1 8054   6.759   3.046   2.373
 2703TIP3    H2 8055   6.910   3.038   2.383
 2704TIP3   OH2 8056   4.243   1.048   3.078
 2704TIP3    H1 8057   4.257   1.008   2.992
 2704TIP3    H2 8058   4.247   0.975   3.140
 2705TIP3   OH2 8059   7.564   6.773   5.050
 2705TIP3    H1 8060   7.658   6.774   5.070
 2705TIP3    H2 8061   7.559   6.793   4.957
 2706TIP3   OH2 8062   0.494   5.521   2.736
 2706TIP3    H1 8063   0.407   5.541   2.702
 2706TIP3    H2 8064   0.491   5.549   2.827
 2707TIP3   OH2 8065   7.227   6.210   2.161
 2707TIP3    H1 8066   7.180   6.232   2.241
 2707TIP3    H2 8067   7.279   6.133   2.184
 2708TIP3   OH2 8068   4.968   7.472   4.124
 2708TIP3    H1 8069   4.930   7.451   4.209
 2708TIP3    H2 8070   4.908   7.536   4.086
 2709TIP3   OH2 8071   8.231   5.404   3.096
 2709TIP3    H1 8072   8.194   5.394   3.008
 2709TIP3    H2 8073   8.199   5.327   3.144
 2710TIP3   OH2 8074   1.085   3.716   5.954
 2710TIP3    H1 8075   1.140   3.778   5.905
 2710TIP3    H2 8076   1.001   3.717   5.908
 2711TIP3   OH2 8077   8.262   6.956   1.590
 2711TIP3    H1 8078   8.262   7.044   1.627
 2711TIP3    H2 8079   8.352   6.942   1.559
 2712TIP3   OH2 8080   4.560   3.635   5.679
 2712TIP3    H1 8081   4.489   3.689   5.645
 2712TIP3    H2 8082   4.553   3.553   5.631
 2713TIP3   OH2 8083   8.147   5.661   3.185
 2713TIP3    H1 8084   8.161   5.584   3.131
 2713TIP3    H2 8085   8.205   5.649   3.260
 2714TIP3   OH2 8086   1.060   2.284   3.764
 2714TIP3    H1 8087   1.065   2.196   3.727
 2714TIP3    H2 8088   1.012   2.273   3.846
 2715TIP3   OH2 8089   5.101   6.449   3.745
 2715TIP3    H1 8090   5.169   6.470   3.681
 2715TIP3    H2 8091   5.102   6.522   3.807
 2716TIP3   OH2 8092   0.810   7.247   3.737
 2716TIP3    H1 8093   0.783   7.171   3.684
 2716TIP3    H2 8094   0.730   7.275   3.780
 2717TIP3   OH2 8095   0.578   4.469   1.517
 2717TIP3    H1 8096   0.502   4.453   1.461
 2717TIP3    H2 8097   0.653   4.438   1.465
 2718TIP3   OH2 8098   7.089   0.008   0.602
 2718TIP3    H1 8099   7.061   0.022   0.512
 2718TIP3    H2 8100   7.029   0.061   0.654
 2719TIP3   OH2 8101   2.927   0.379   2.465
 2719TIP3    H1 8102   2.993   0.385   2.535
 2719TIP3    H2 8103   2.885   0.294   2.479
 2720TIP3   OH2 8104   7.613   6.532   1.865
 2720TIP3    H1 8105   7.606   6.517   1.959
 2720TIP3    H2 8106   7.548   6.474   1.826
 2721TIP3   OH2 8107   1.064   5.656   6.245
 2721TIP3    H1 8108   0.982   5.682   6.287
 2721TIP3    H2 8109   1.109   5.601   6.310
 2722TIP3   OH2 8110   4.846   4.630   4.127
 2722TIP3    H1 8111   4.767   4.608   4.078
 2722TIP3    H2 8112   4.848   4.726   4.129
 2723TIP3   OH2 8113   6.319   4.638   0.100
 2723TIP3    H1 8114   6.282   4.683   0.176
 2723TIP3    H2 8115   6.409   4.617   0.125
 2724TIP3   OH2 8116   4.036   0.351   5.621
 2724TIP3    H1 8117   4.013   0.264   5.654
 2724TIP3    H2 8118   4.035   0.341   5.526
 2725TIP3   OH2 8119   3.299   5.857   4.591
 2725TIP3    H1 8120   3.227   5.897   4.543
 2725TIP3    H2 8121   3.283   5.882   4.682
 2726TIP3   OH2 8122   3.218   3.630   3.195
 2726TIP3    H1 8123   3.293   3.689   3.202
 2726TIP3    H2 8124   3.155   3.663   3.260
 2727TIP3   OH2 8125   0.185   5.269   4.477
 2727TIP3    H1 8126   0.105   5.321   4.465
 2727TIP3    H2 8127   0.175   5.196   4.416
 2728TIP3   OH2 8128   7.879   0.087   6.478
 2728TIP3    H1 8129   7.821   0.014   6.500
 2728TIP3    H2 8130   7.833   0.164   6.511
 2729TIP3   OH2 8131   5.052   4.461   6.383
 2729TIP3    H1 8132   5.067   4.451   6.477
 2729TIP3    H2 8133   5.118   4.403   6.343
 2730TIP3   OH2 8134   4.368   2.630   1.171
 2730TIP3    H1 8135   4.396   2.638   1.080
 2730TIP3    H2 8136   4.273   2.632   1.167
 2731TIP3   OH2 8137   1.209   2.833   1.240
 2731TIP3    H1 8138   1.250   2.870   1.318
 2731TIP3    H2 8139   1.273   2.770   1.206
 2732TIP3   OH2 8140   4.292   1.269   1.341
 2732TIP3    H1 8141   4.327   1.221   1.267
 2732TIP3    H2 8142   4.245   1.204   1.393
 2733TIP3   OH2 8143   2.062   7.776   4.961
 2733TIP3    H1 8144   1.998   7.704   4.961
 2733TIP3    H2 8145   2.106   7.769   4.876
 2734TIP3   OH2 8146   7.957   3.561   2.426
 2734TIP3    H1 8147   7.893   3.607   2.480
 2734TIP3    H2 8148   7.934   3.586   2.336
 2735TIP3   OH2 8149   4.256   0.440   2.526
 2735TIP3    H1 8150   4.187   0.388   2.567
 2735TIP3    H2 8151   4.241   0.429   2.432
 2736TIP3   OH2 8152   2.273   6.204   3.652
 2736TIP3    H1 8153   2.293   6.163   3.736
 2736TIP3    H2 8154   2.304   6.294   3.661
 2737TIP3   OH2 8155   5.279   4.145   3.467
 2737TIP3    H1 8156   5.292   4.052   3.480
 2737TIP3    H2 8157   5.215   4.170   3.534
 2738TIP3   OH2 8158   6.126   1.729   2.978
 2738TIP3    H1 8159   6.059   1.666   3.006
 2738TIP3    H2 8160   6.095   1.762   2.894
 2739TIP3   OH2 8161   3.458   3.407   4.018
 2739TIP3    H1 8162   3.420   3.321   4.001
 2739TIP3    H2 8163   3.467   3.447   3.931
 2740TIP3   OH2 8164   6.958   3.455   1.329
 2740TIP3    H1 8165   7.028   3.497   1.279
 2740TIP3    H2 8166   6.952   3.366   1.293
 2741TIP3   OH2 8167   5.102   3.967   0.546
 2741TIP3    H1 8168   5.025   3.944   0.597
 2741TIP3    H2 8169   5.172   3.911   0.581
 2742TIP3   OH2 8170   4.442   3.424   5.490
 2742TIP3    H1 8171   4.457   3.445   5.398
 2742TIP3    H2 8172   4.354   3.459   5.508
 2743TIP3   OH2 8173   2.647   4.357   5.071
 2743TIP3    H1 8174   2.740   4.342   5.086
 2743TIP3    H2 8175   2.622   4.292   5.006
 2744TIP3   OH2 8176   3.358   4.633   0.562
 2744TIP3    H1 8177   3.406   4.685   0.497
 2744TIP3    H2 8178   3.317   4.698   0.619
 2745TIP3   OH2 8179   0.375   7.667   3.841
 2745TIP3    H1 8180   0.378   7.750   3.889
 2745TIP3    H2 8181   0.366   7.693   3.749
 2746TIP3   OH2 8182   4.047   5.957   4.385
 2746TIP3    H1 8183   3.978   5.944   4.320
 2746TIP3    H2 8184   4.072   6.049   4.375
 2747TIP3   OH2 8185   6.732   2.134   0.921
 2747TIP3    H1 8186   6.695   2.058   0.876
 2747TIP3    H2 8187   6.671   2.206   0.902
 2748TIP3   OH2 8188   4.114   7.324   0.796
 2748TIP3    H1 8189   4.206   7.350   0.790
 2748TIP3    H2 8190   4.101   7.304   0.889
 2749TIP3   OH2 8191   2.903   7.419   1.785
 2749TIP3    H1 8192   2.931   7.485   1.721
 2749TIP3    H2 8193   2.909   7.336   1.737
 2750TIP3   OH2 8194   1.443   2.999   5.080
 2750TIP3    H1 8195   1.474   3.072   5.135
 2750TIP3    H2 8196   1.442   3.035   4.991
 2751TIP3   OH2 8197   5.829   5.443   5.699
 2751TIP3    H1 8198   5.881   5.499   5.756
 2751TIP3    H2 8199   5.831   5.486   5.613
 2752TIP3   OH2 8200   8.051   4.496   5.722
 2752TIP3    H1 8201   8.099   4.551   5.661
 2752TIP3    H2 8202   7.972   4.470   5.674
 2753TIP3   OH2 8203   6.693   5.758   1.492
 2753TIP3    H1 8204   6.698   5.836   1.438
 2753TIP3    H2 8205   6.601   5.750   1.515
 2754TIP3   OH2 8206   2.087   7.165   5.744
 2754TIP3    H1 8207   2.038   7.237   5.784
 2754TIP3    H2 8208   2.117   7.113   5.818
 2755TIP3   OH2 8209   4.225   6.545   5.038
 2755TIP3    H1 8210   4.266   6.595   4.967
 2755TIP3    H2 8211   4.238   6.453   5.014
 2756TIP3   OH2 8212   0.258   1.941   1.742
 2756TIP3    H1 8213   0.295   1.976   1.823
 2756TIP3    H2 8214   0.164   1.960   1.749
 2757TIP3   OH2 8215   6.913   1.606   4.993
 2757TIP3    H1 8216   7.002   1.628   5.021
 2757TIP3    H2 8217   6.917   1.512   4.973
 2758TIP3   OH2 8218   5.243   5.529   0.764
 2758TIP3    H1 8219   5.200   5.578   0.834
 2758TIP3    H2 8220   5.186   5.454   0.748
 2759TIP3   OH2 8221   0.292   6.047   2.264
 2759TIP3    H1 8222   0.248   5.976   2.311
 2759TIP3    H2 8223   0.268   6.126   2.314
 2760TIP3   OH2 8224   2.651   5.817   1.756
 2760TIP3    H1 8225   2.738   5.857   1.750
 2760TIP3    H2 8226   2.668   5.722   1.755
 2761TIP3   OH2 8227   3.728   7.097   3.489
 2761TIP3    H1 8228   3.690   7.037   3.553
 2761TIP3    H2 8229   3.778   7.040   3.430
 2762TIP3   OH2 8230   8.130   2.005   1.710
 2762TIP3    H1 8231   8.106   2.011   1.802
 2762TIP3    H2 8232   8.168   2.091   1.689
 2763TIP3   OH2 8233   7.517   0.862   0.179
 2763TIP3    H1 8234   7.509   0.956   0.193
 2763TIP3    H2 8235   7.608   0.848   0.155
 2764TIP3   OH2 8236   0.336   5.948   1.048
 2764TIP3    H1 8237   0.262   6.009   1.043
 2764TIP3    H2 8238   0.402   5.985   0.989
 2765TIP3   OH2 8239   1.255   4.987   6.138
 2765TIP3    H1 8240   1.316   5.061   6.140
 2765TIP3    H2 8241   1.177   5.019   6.182
 2766TIP3   OH2 8242   2.560   0.366   2.471
 2766TIP3    H1 8243   2.602   0.345   2.388
 2766TIP3    H2 8244   2.500   0.293   2.486
 2767TIP3   OH2 8245   6.354   6.628   5.572
 2767TIP3    H1 8246   6.322   6.700   5.518
 2767TIP3    H2 8247   6.361   6.665   5.660
 2768TIP3   OH2 8248   1.004   3.301   5.629
 2768TIP3    H1 8249   1.037   3.386   5.659
 2768TIP3    H2 8250   1.048   3.237   5.684
 2769TIP3   OH2 8251   7.228   6.793   5.663
 2769TIP3    H1 8252   7.285   6.738   5.717
 2769TIP3    H2 8253   7.139   6.764   5.685
 2770TIP3   OH2 8254   6.151   6.188   1.176
 2770TIP3    H1 8255   6.183   6.098   1.179
 2770TIP3    H2 8256   6.212   6.237   1.231
 2771TIP3   OH2 8257   0.224   4.310   0.542
 2771TIP3    H1 8258   0.170   4.389   0.552
 2771TIP3    H2 8259   0.160   4.239   0.532
 2772TIP3   OH2 8260   7.827   7.531   5.838
 2772TIP3    H1 8261   7.899   7.584   5.872
 2772TIP3    H2 8262   7.808   7.568   5.752
 2773TIP3   OH2 8263   6.969   5.083   4.287
 2773TIP3    H1 8264   6.895   5.027   4.309
 2773TIP3    H2 8265   6.934   5.148   4.227
 2774TIP3   OH2 8266   5.072   0.094   5.528
 2774TIP3    H1 8267   5.045   0.152   5.458
 2774TIP3    H2 8268   5.124   0.026   5.485
 2775TIP3   OH2 8269   4.278   6.993   0.870
 2775TIP3    H1 8270   4.221   6.929   0.828
 2775TIP3    H2 8271   4.338   6.941   0.924
 2776TIP3   OH2 8272   3.322   6.688   5.470
 2776TIP3    H1 8273   3.349   6.601   5.501
 2776TIP3    H2 8274   3.292   6.673   5.380
 2777TIP3   OH2 8275   7.048   3.849   6.563
 2777TIP3    H1 8276   7.096   3.787   6.509
 2777TIP3    H2 8277   6.956   3.828   6.547
 2778TIP3   OH2 8278   1.295   4.765   0.199
 2778TIP3    H1 8279   1.348   4.839   0.230
 2778TIP3    H2 8280   1.359   4.703   0.164
 2779TIP3   OH2 8281   0.300   7.778   2.812
 2779TIP3    H1 8282   0.300   7.814   2.723
 2779TIP3    H2 8283   0.389   7.746   2.824
 2780TIP3   OH2 8284   7.808   3.474   4.836
 2780TIP3    H1 8285   7.826   3.461   4.743
 2780TIP3    H2 8286   7.795   3.569   4.845
 2781TIP3   OH2 8287   4.869   3.225   4.117
 2781TIP3    H1 8288   4.952   3.186   4.146
 2781TIP3    H2 8289   4.802   3.170   4.157
 2782TIP3   OH2 8290   4.873   3.209   6.619
 2782TIP3    H1 8291   4.800   3.152   6.643
 2782TIP3    H2 8292   4.925   3.217   6.699
 2783TIP3   OH2 8293   4.645   4.471   6.581
 2783TIP3    H1 8294   4.704   4.449   6.509
 2783TIP3    H2 8295   4.635   4.566   6.575
 2784TIP3   OH2 8296   2.991   3.234   4.302
 2784TIP3    H1 8297   2.928   3.299   4.334
 2784TIP3    H2 8298   3.045   3.281   4.240
 2785TIP3   OH2 8299   6.803   4.064   5.502
 2785TIP3    H1 8300   6.729   4.120   5.478
 2785TIP3    H2 8301   6.778   4.029   5.588
 2786TIP3   OH2 8302   7.639   1.324   0.558
 2786TIP3    H1 8303   7.672   1.373   0.633
 2786TIP3    H2 8304   7.578   1.260   0.595
 2787TIP3   OH2 8305   6.897   1.183   3.635
 2787TIP3    H1 8306   6.907   1.200   3.541
 2787TIP3    H2 8307   6.908   1.268   3.676
 2788TIP3   OH2 8308   1.182   0.278   5.487
 2788TIP3    H1 8309   1.142   0.212   5.544
 2788TIP3    H2 8310   1.108   0.314   5.437
 2789TIP3   OH2 8311   2.887   3.943   5.816
 2789TIP3    H1 8312   2.939   3.976   5.744
 2789TIP3    H2 8313   2.834   3.873   5.778
 2790TIP3   OH2 8314   2.620   3.926   6.640
 2790TIP3    H1 8315   2.556   3.854   6.633
 2790TIP3    H2 8316   2.704   3.885   6.621
 2791TIP3   OH2 8317   3.981   4.296   2.177
 2791TIP3    H1 8318   3.953   4.356   2.245
 2791TIP3    H2 8319   4.013   4.353   2.107
 2792TIP3   OH2 8320   1.448   3.879   4.088
 2792TIP3    H1 8321   1.516   3.817   4.059
 2792TIP3    H2 8322   1.379   3.870   4.022
 2793TIP3   OH2 8323   2.034   7.727   4.042
 2793TIP3    H1 8324   2.032   7.779   3.961
 2793TIP3    H2 8325   2.022   7.792   4.111
 2794TIP3   OH2 8326   7.251   0.267   1.808
 2794TIP3    H1 8327   7.249   0.286   1.714
 2794TIP3    H2 8328   7.343   0.245   1.826
 2795TIP3   OH2 8329   5.521   4.080   2.169
 2795TIP3    H1 8330   5.516   4.141   2.096
 2795TIP3    H2 8331   5.515   3.993   2.128
 2796TIP3   OH2 8332   1.668   7.591   0.774
 2796TIP3    H1 8333   1.578   7.615   0.752
 2796TIP3    H2 8334   1.679   7.622   0.864
 2797TIP3   OH2 8335   2.446   4.941   4.946
 2797TIP3    H1 8336   2.510   4.972   4.882
 2797TIP3    H2 8337   2.491   4.871   4.994
 2798TIP3   OH2 8338   2.902   7.203   1.638
 2798TIP3    H1 8339   2.925   7.219   1.546
 2798TIP3    H2 8340   2.920   7.110   1.651
 2799TIP3   OH2 8341   4.552   4.386   2.780
 2799TIP3    H1 8342   4.617   4.391   2.850
 2799TIP3    H2 8343   4.555   4.295   2.751
 2800TIP3   OH2 8344   5.431   2.873   2.663
 2800TIP3    H1 8345   5.444   2.967   2.674
 2800TIP3    H2 8346   5.390   2.845   2.745
 2801TIP3   OH2 8347   3.436   0.923   0.485
 2801TIP3    H1 8348   3.444   1.009   0.525
 2801TIP3    H2 8349   3.455   0.937   0.392
 2802TIP3   OH2 8350   0.817   0.231   3.450
 2802TIP3    H1 8351   0.904   0.238   3.411
 2802TIP3    H2 8352   0.805   0.313   3.497
 2803TIP3   OH2 8353   5.490   5.062   1.416
 2803TIP3    H1 8354   5.432   4.989   1.394
 2803TIP3    H2 8355   5.460   5.092   1.501
 2804TIP3   OH2 8356   7.692   4.482   4.076
 2804TIP3    H1 8357   7.787   4.467   4.080
 2804TIP3    H2 8358   7.684   4.566   4.031
 2805TIP3   OH2 8359   0.174   0.272   6.086
 2805TIP3    H1 8360   0.195   0.236   5.999
 2805TIP3    H2 8361   0.204   0.363   6.081
 2806TIP3   OH2 8362   7.861   0.966   4.409
 2806TIP3    H1 8363   7.904   1.043   4.372
 2806TIP3    H2 8364   7.933   0.913   4.442
 2807TIP3   OH2 8365   1.366   5.058   5.227
 2807TIP3    H1 8366   1.297   5.120   5.252
 2807TIP3    H2 8367   1.433   5.111   5.185
 2808TIP3   OH2 8368   0.620   6.456   1.126
 2808TIP3    H1 8369   0.659   6.502   1.051
 2808TIP3    H2 8370   0.626   6.518   1.198
 2809TIP3   OH2 8371   5.276   6.236   0.264
 2809TIP3    H1 8372   5.247   6.183   0.189
 2809TIP3    H2 8373   5.197   6.247   0.318
 2810TIP3   OH2 8374   4.616   3.573   6.521
 2810TIP3    H1 8375   4.636   3.519   6.444
 2810TIP3    H2 8376   4.701   3.590   6.560
 2811TIP3   OH2 8377   2.627   7.648   5.094
 2811TIP3    H1 8378   2.553   7.702   5.067
 2811TIP3    H2 8379   2.680   7.638   5.014
 2812TIP3   OH2 8380   1.005   3.858   2.745
 2812TIP3    H1 8381   0.991   3.953   2.747
 2812TIP3    H2 8382   1.095   3.847   2.776
 2813TIP3   OH2 8383   5.294   7.542   2.938
 2813TIP3    H1 8384   5.343   7.618   2.969
 2813TIP3    H2 8385   5.342   7.467   2.971
 2814TIP3   OH2 8386   3.776   1.048   3.614
 2814TIP3    H1 8387   3.863   1.087   3.600
 2814TIP3    H2 8388   3.794   0.968   3.663
 2815TIP3   OH2 8389   6.322   2.185   1.501
 2815TIP3    H1 8390   6.331   2.280   1.512
 2815TIP3    H2 8391   6.300   2.153   1.588
 2816TIP3   OH2 8392   0.860   4.471   5.696
 2816TIP3    H1 8393   0.889   4.562   5.702
 2816TIP3    H2 8394   0.804   4.458   5.772
 2817TIP3   OH2 8395   7.069   7.471   6.078
 2817TIP3    H1 8396   7.071   7.545   6.139
 2817TIP3    H2 8397   7.010   7.500   6.008
 2818TIP3   OH2 8398   5.890   2.571   3.968
 2818TIP3    H1 8399   5.923   2.583   3.879
 2818TIP3    H2 8400   5.794   2.575   3.959
 2819TIP3   OH2 8401   1.914   0.529   1.080
 2819TIP3    H1 8402   1.962   0.612   1.081
 2819TIP3    H2 8403   1.969   0.469   1.130
 2820TIP3   OH2 8404   4.800   7.531   0.302
 2820TIP3    H1 8405   4.832   7.520   0.212
 2820TIP3    H2 8406   4.771   7.622   0.306
 2821TIP3   OH2 8407   8.021   5.916   6.739
 2821TIP3    H1 8408   8.086   5.862   6.694
 2821TIP3    H2 8409   8.031   6.003   6.701
 2822TIP3   OH2 8410   7.180   6.648   0.532
 2822TIP3    H1 8411   7.152   6.717   0.471
 2822TIP3    H2 8412   7.260   6.683   0.572
 2823TIP3   OH2 8413   3.779   1.712   5.932
 2823TIP3    H1 8414   3.693   1.740   5.961
 2823TIP3    H2 8415   3.831   1.705   6.012
 2824TIP3   OH2 8416   4.123   4.283   1.866
 2824TIP3    H1 8417   4.205   4.292   1.913
 2824TIP3    H2 8418   4.073   4.220   1.917
 2825TIP3   OH2 8419   7.304   1.695   0.082
 2825TIP3    H1 8420   7.295   1.748   0.161
 2825TIP3    H2 8421   7.240   1.624   0.092
 2826TIP3   OH2 8422   1.423   2.148   6.325
 2826TIP3    H1 8423   1.479   2.077   6.355
 2826TIP3    H2 8424   1.369   2.170   6.401
 2827TIP3   OH2 8425   4.368   1.417   3.250
 2827TIP3    H1 8426   4.343   1.499   3.292
 2827TIP3    H2 8427   4.286   1.370   3.237
 2828TIP3   OH2 8428   7.443   2.857   1.541
 2828TIP3    H1 8429   7.397   2.812   1.611
 2828TIP3    H2 8430   7.509   2.911   1.586
 2829TIP3   OH2 8431   4.049   0.967   5.991
 2829TIP3    H1 8432   4.064   1.060   5.973
 2829TIP3    H2 8433   4.081   0.923   5.912
 2830TIP3   OH2 8434   1.252   0.247   4.152
 2830TIP3    H1 8435   1.295   0.167   4.182
 2830TIP3    H2 8436   1.229   0.293   4.233
 2831TIP3   OH2 8437   2.704   2.330   3.649
 2831TIP3    H1 8438   2.789   2.296   3.620
 2831TIP3    H2 8439   2.696   2.299   3.739
 2832TIP3   OH2 8440   5.100   1.424   5.952
 2832TIP3    H1 8441   5.010   1.458   5.950
 2832TIP3    H2 8442   5.148   1.480   5.891
 2833TIP3   OH2 8443   4.256   0.933   2.351
 2833TIP3    H1 8444   4.299   0.870   2.409
 2833TIP3    H2 8445   4.183   0.884   2.313
 2834TIP3   OH2 8446   1.285   2.343   5.585
 2834TIP3    H1 8447   1.300   2.266   5.530
 2834TIP3    H2 8448   1.304   2.312   5.674
 2835TIP3   OH2 8449   4.196   6.228   0.571
 2835TIP3    H1 8450   4.247   6.150   0.596
 2835TIP3    H2 8451   4.261   6.287   0.533
 2836TIP3   OH2 8452   5.808   4.687   0.658
 2836TIP3    H1 8453   5.743   4.742   0.614
 2836TIP3    H2 8454   5.887   4.742   0.660
 2837TIP3   OH2 8455   7.716   2.791   1.239
 2837TIP3    H1 8456   7.628   2.755   1.236
 2837TIP3    H2 8457   7.703   2.884   1.256
 2838TIP3   OH2 8458   2.382   3.510   2.989
 2838TIP3    H1 8459   2.342   3.423   2.989
 2838TIP3    H2 8460   2.325   3.562   2.933
 2839TIP3   OH2 8461   7.712   7.111   0.961
 2839TIP3    H1 8462   7.721   7.050   0.887
 2839TIP3    H2 8463   7.632   7.159   0.942
 2840TIP3   OH2 8464   0.487   5.986   0.244
 2840TIP3    H1 8465   0.558   5.924   0.261
 2840TIP3    H2 8466   0.409   5.931   0.234
 2841TIP3   OH2 8467   3.009   1.342   5.000
 2841TIP3    H1 8468   2.987   1.435   4.990
 2841TIP3    H2 8469   3.065   1.339   5.077
 2842TIP3   OH2 8470   0.159   4.720   2.547
 2842TIP3    H1 8471   0.112   4.772   2.612
 2842TIP3    H2 8472   0.091   4.667   2.505
 2843TIP3   OH2 8473   1.177   3.568   2.117
 2843TIP3    H1 8474   1.164   3.592   2.025
 2843TIP3    H2 8475   1.098   3.600   2.162
 2844TIP3   OH2 8476   2.208   5.756   6.627
 2844TIP3    H1 8477   2.282   5.775   6.685
 2844TIP3    H2 8478   2.249   5.746   6.540
 2845TIP3   OH2 8479   0.220   6.137   4.755
 2845TIP3    H1 8480   0.264   6.058   4.723
 2845TIP3    H2 8481   0.287   6.184   4.805
 2846TIP3   OH2 8482   4.639   6.155   1.704
 2846TIP3    H1 8483   4.546   6.164   1.724
 2846TIP3    H2 8484   4.641   6.144   1.608
 2847TIP3   OH2 8485   2.650   3.843   4.706
 2847TIP3    H1 8486   2.630   3.902   4.633
 2847TIP3    H2 8487   2.722   3.789   4.675
 2848TIP3   OH2 8488   4.322   3.112   3.416
 2848TIP3    H1 8489   4.241   3.078   3.379
 2848TIP3    H2 8490   4.329   3.070   3.502
 2849TIP3   OH2 8491   6.675   1.529   0.130
 2849TIP3    H1 8492   6.751   1.559   0.081
 2849TIP3    H2 8493   6.705   1.451   0.176
 2850TIP3   OH2 8494   7.723   3.678   0.081
 2850TIP3    H1 8495   7.646   3.722   0.116
 2850TIP3    H2 8496   7.693   3.635   0.001
 2851TIP3   OH2 8497   6.474   5.510   4.764
 2851TIP3    H1 8498   6.510   5.441   4.820
 2851TIP3    H2 8499   6.526   5.505   4.683
 2852TIP3   OH2 8500   6.963   3.964   2.835
 2852TIP3    H1 8501   7.039   4.014   2.863
 2852TIP3    H2 8502   6.973   3.878   2.875
 2853TIP3   OH2 8503   4.313   2.266   3.192
 2853TIP3    H1 8504   4.300   2.357   3.219
 2853TIP3    H2 8505   4.243   2.249   3.129
 2854TIP3   OH2 8506   6.886   5.026   2.942
 2854TIP3    H1 8507   6.961   5.027   3.002
 2854TIP3    H2 8508   6.848   4.939   2.953
 2855TIP3   OH2 8509   1.320   0.456   2.515
 2855TIP3    H1 8510   1.281   0.391   2.456
 2855TIP3    H2 8511   1.411   0.429   2.523
 2856TIP3   OH2 8512   5.896   6.121   6.347
 2856TIP3    H1 8513   5.963   6.142   6.411
 2856TIP3    H2 8514   5.931   6.046   6.298
 2857TIP3   OH2 8515   0.868   0.880   5.167
 2857TIP3    H1 8516   0.801   0.822   5.130
 2857TIP3    H2 8517   0.843   0.890   5.259
 2858TIP3   OH2 8518   6.228   5.367   0.583
 2858TIP3    H1 8519   6.136   5.355   0.560
 2858TIP3    H2 8520   6.262   5.426   0.516
 2859TIP3   OH2 8521   8.275   2.579   1.996
 2859TIP3    H1 8522   8.317   2.575   2.082
 2859TIP3    H2 8523   8.346   2.594   1.935
 2860TIP3   OH2 8524   5.903   2.463   5.067
 2860TIP3    H1 8525   5.854   2.520   5.127
 2860TIP3    H2 8526   5.867   2.376   5.081
 2861TIP3   OH2 8527   2.047   1.011   4.601
 2861TIP3    H1 8528   2.097   1.051   4.672
 2861TIP3    H2 8529   2.113   0.991   4.534
 2862TIP3   OH2 8530   0.063   5.172   1.235
 2862TIP3    H1 8531   0.157   5.184   1.227
 2862TIP3    H2 8532   0.044   5.094   1.182
 2863TIP3   OH2 8533   6.989   7.613   4.648
 2863TIP3    H1 8534   7.045   7.686   4.674
 2863TIP3    H2 8535   6.965   7.570   4.730
 2864TIP3   OH2 8536   1.092   4.470   4.068
 2864TIP3    H1 8537   1.161   4.405   4.054
 2864TIP3    H2 8538   1.011   4.420   4.067
 2865TIP3   OH2 8539   1.258   3.570   3.795
 2865TIP3    H1 8540   1.196   3.499   3.781
 2865TIP3    H2 8541   1.314   3.570   3.717
 2866TIP3   OH2 8542   0.175   3.027   5.968
 2866TIP3    H1 8543   0.238   3.045   5.898
 2866TIP3    H2 8544   0.208   2.946   6.009
 2867TIP3   OH2 8545   4.132   3.558   3.226
 2867TIP3    H1 8546   4.058   3.513   3.184
 2867TIP3    H2 8547   4.181   3.596   3.153
 2868TIP3   OH2 8548   0.827   7.539   3.624
 2868TIP3    H1 8549   0.751   7.483   3.638
 2868TIP3    H2 8550   0.795   7.627   3.645
 2869TIP3   OH2 8551   4.156   7.788   1.671
 2869TIP3    H1 8552   4.169   7.774   1.765
 2869TIP3    H2 8553   4.063   7.769   1.657
 2870TIP3   OH2 8554   3.241   1.238   4.035
 2870TIP3    H1 8555   3.148   1.221   4.021
 2870TIP3    H2 8556   3.281   1.227   3.949
 2871TIP3   OH2 8557   1.391   0.921   6.485
 2871TIP3    H1 8558   1.402   0.874   6.567
 2871TIP3    H2 8559   1.479   0.950   6.461
 2872TIP3   OH2 8560   1.083   1.629   0.176
 2872TIP3    H1 8561   1.101   1.543   0.139
 2872TIP3    H2 8562   1.103   1.619   0.269
 2873TIP3   OH2 8563   8.109   7.051   0.857
 2873TIP3    H1 8564   8.059   7.078   0.934
 2873TIP3    H2 8565   8.107   6.956   0.860
 2874TIP3   OH2 8566   0.278   7.631   5.127
 2874TIP3    H1 8567   0.265   7.709   5.073
 2874TIP3    H2 8568   0.284   7.664   5.216
 2875TIP3   OH2 8569   1.950   7.254   6.711
 2875TIP3    H1 8570   1.973   7.343   6.682
 2875TIP3    H2 8571   2.028   7.223   6.757
 2876TIP3   OH2 8572   6.224   5.968   1.659
 2876TIP3    H1 8573   6.177   6.041   1.699
 2876TIP3    H2 8574   6.156   5.906   1.634
 2877TIP3   OH2 8575   2.370   7.770   5.983
 2877TIP3    H1 8576   2.432   7.748   5.913
 2877TIP3    H2 8577   2.323   7.689   6.000
 2878TIP3   OH2 8578   3.957   0.700   5.325
 2878TIP3    H1 8579   3.966   0.795   5.332
 2878TIP3    H2 8580   3.948   0.670   5.416
 2879TIP3   OH2 8581   6.718   3.312   3.076
 2879TIP3    H1 8582   6.665   3.249   3.028
 2879TIP3    H2 8583   6.779   3.259   3.128
 2880TIP3   OH2 8584   1.001   7.580   4.342
 2880TIP3    H1 8585   1.022   7.620   4.257
 2880TIP3    H2 8586   0.925   7.628   4.372
 2881TIP3   OH2 8587   5.288   3.274   0.703
 2881TIP3    H1 8588   5.308   3.212   0.774
 2881TIP3    H2 8589   5.194   3.263   0.688
 2882TIP3   OH2 8590   7.666   2.471   4.572
 2882TIP3    H1 8591   7.583   2.478   4.621
 2882TIP3    H2 8592   7.641   2.488   4.481
 2883TIP3   OH2 8593   2.479   6.478   5.238
 2883TIP3    H1 8594   2.560   6.527   5.220
 2883TIP3    H2 8595   2.447   6.514   5.321
 2884TIP3   OH2 8596   3.968   5.997   4.685
 2884TIP3    H1 8597   4.019   5.930   4.639
 2884TIP3    H2 8598   3.877   5.969   4.675
 2885TIP3   OH2 8599   2.887   6.390   1.051
 2885TIP3    H1 8600   2.975   6.357   1.068
 2885TIP3    H2 8601   2.836   6.311   1.028
 2886TIP3   OH2 8602   3.548   6.554   3.906
 2886TIP3    H1 8603   3.533   6.581   3.996
 2886TIP3    H2 8604   3.489   6.480   3.893
 2887TIP3   OH2 8605   0.485   4.929   6.080
 2887TIP3    H1 8606   0.501   4.974   5.997
 2887TIP3    H2 8607   0.402   4.883   6.067
 2888TIP3   OH2 8608   7.722   0.104   3.144
 2888TIP3    H1 8609   7.667   0.055   3.083
 2888TIP3    H2 8610   7.713   0.195   3.118
 2889TIP3   OH2 8611   7.647   0.992   1.959
 2889TIP3    H1 8612   7.648   1.086   1.973
 2889TIP3    H2 8613   7.568   0.962   2.004
 2890TIP3   OH2 8614   7.928   4.169   0.712
 2890TIP3    H1 8615   7.964   4.083   0.690
 2890TIP3    H2 8616   8.001   4.214   0.755
 2891TIP3   OH2 8617   5.682   6.910   0.785
 2891TIP3    H1 8618   5.593   6.888   0.758
 2891TIP3    H2 8619   5.721   6.826   0.810
 2892TIP3   OH2 8620   2.246   7.280   0.540
 2892TIP3    H1 8621   2.199   7.196   0.545
 2892TIP3    H2 8622   2.232   7.320   0.626
 2893TIP3   OH2 8623   3.490   2.419   2.778
 2893TIP3    H1 8624   3.550   2.494   2.780
 2893TIP3    H2 8625   3.449   2.419   2.864
 2894TIP3   OH2 8626   8.002   2.931   6.243
 2894TIP3    H1 8627   7.919   2.943   6.288
 2894TIP3    H2 8628   8.012   2.836   6.234
 2895TIP3   OH2 8629   2.388   7.338   1.980
 2895TIP3    H1 8630   2.480   7.316   1.971
 2895TIP3    H2 8631   2.361   7.297   2.062
 2896TIP3   OH2 8632   0.466   7.099   5.545
 2896TIP3    H1 8633   0.428   7.171   5.594
 2896TIP3    H2 8634   0.428   7.020   5.583
 2897TIP3   OH2 8635   2.416   0.472   4.037
 2897TIP3    H1 8636   2.345   0.519   3.993
 2897TIP3    H2 8637   2.424   0.514   4.123
 2898TIP3   OH2 8638   3.886   0.131   0.624
 2898TIP3    H1 8639   3.974   0.146   0.658
 2898TIP3    H2 8640   3.834   0.112   0.702
 2899TIP3   OH2 8641   7.987   6.322   3.308
 2899TIP3    H1 8642   8.073   6.280   3.301
 2899TIP3    H2 8643   7.950   6.286   3.389
 2900TIP3   OH2 8644   7.641   2.466   3.410
 2900TIP3    H1 8645   7.586   2.499   3.482
 2900TIP3    H2 8646   7.725   2.447   3.451
 2901TIP3   OH2 8647   0.419   5.456   6.398
 2901TIP3    H1 8648   0.375   5.449   6.482
 2901TIP3    H2 8649   0.503   5.498   6.418
 2902TIP3   OH2 8650   0.898   7.529   1.131
 2902TIP3    H1 8651   0.888   7.603   1.072
 2902TIP3    H2 8652   0.986   7.539   1.168
 2903TIP3   OH2 8653   5.971   6.449   2.347
 2903TIP3    H1 8654   5.932   6.379   2.294
 2903TIP3    H2 8655   6.065   6.444   2.328
 2904TIP3   OH2 8656   3.726  -0.012   2.495
 2904TIP3    H1 8657   3.741  -0.086   2.554
 2904TIP3    H2 8658   3.711   0.063   2.552
 2905TIP3   OH2 8659   8.061   4.244   3.750
 2905TIP3    H1 8660   8.136   4.272   3.698
 2905TIP3    H2 8661   8.090   4.162   3.791
 2906TIP3   OH2 8662   3.026   5.076   2.880
 2906TIP3    H1 8663   3.066   5.008   2.935
 2906TIP3    H2 8664   3.031   5.155   2.933
 2907TIP3   OH2 8665   6.572   6.241   3.128
 2907TIP3    H1 8666   6.491   6.222   3.175
 2907TIP3    H2 8667   6.638   6.250   3.196
 2908TIP3   OH2 8668   4.659   5.094   3.953
 2908TIP3    H1 8669   4.707   5.149   4.015
 2908TIP3    H2 8670   4.671   5.138   3.869
 2909TIP3   OH2 8671   0.049   1.302   4.797
 2909TIP3    H1 8672   0.030   1.270   4.885
 2909TIP3    H2 8673  -0.030   1.282   4.747
 2910TIP3   OH2 8674   3.441   4.827   4.530
 2910TIP3    H1 8675   3.421   4.828   4.623
 2910TIP3    H2 8676   3.445   4.919   4.505
 2911TIP3   OH2 8677   5.834   6.490   1.536
 2911TIP3    H1 8678   5.796   6.561   1.587
 2911TIP3    H2 8679   5.888   6.533   1.471
 2912TIP3   OH2 8680   1.177   6.606   6.701
 2912TIP3    H1 8681   1.181   6.693   6.662
 2912TIP3    H2 8682   1.212   6.548   6.634
 2913TIP3   OH2 8683   3.658   3.460   3.575
 2913TIP3    H1 8684   3.604   3.474   3.654
 2913TIP3    H2 8685   3.604   3.404   3.520
 2914TIP3   OH2 8686   3.837   0.591   0.706
 2914TIP3    H1 8687   3.746   0.560   0.699
 2914TIP3    H2 8688   3.878   0.566   0.623
 2915TIP3   OH2 8689   7.663   1.578   2.552
 2915TIP3    H1 8690   7.588   1.611   2.503
 2915TIP3    H2 8691   7.737   1.590   2.493
 2916TIP3   OH2 8692   0.008   6.870   4.494
 2916TIP3    H1 8693   0.047   6.812   4.560
 2916TIP3    H2 8694  -0.026   6.944   4.545
 2917TIP3   OH2 8695   6.275   3.481   2.695
 2917TIP3    H1 8696   6.322   3.496   2.613
 2917TIP3    H2 8697   6.335   3.430   2.749
 2918TIP3   OH2 8698   7.215   0.074   5.173
 2918TIP3    H1 8699   7.135   0.021   5.170
 2918TIP3    H2 8700   7.244   0.079   5.082
 2919TIP3   OH2 8701   3.769   5.190   1.302
 2919TIP3    H1 8702   3.707   5.224   1.367
 2919TIP3    H2 8703   3.729   5.211   1.218
 2920TIP3   OH2 8704   6.504   1.532   3.909
 2920TIP3    H1 8705   6.539   1.620   3.898
 2920TIP3    H2 8706   6.445   1.540   3.984
 2921TIP3   OH2 8707   2.071   3.238   4.358
 2921TIP3    H1 8708   2.003   3.181   4.323
 2921TIP3    H2 8709   2.131   3.252   4.285
 2922TIP3   OH2 8710   5.704   0.902   2.184
 2922TIP3    H1 8711   5.667   0.980   2.142
 2922TIP3    H2 8712   5.798   0.908   2.167
 2923TIP3   OH2 8713   7.547   0.337   5.866
 2923TIP3    H1 8714   7.591   0.301   5.943
 2923TIP3    H2 8715   7.454   0.336   5.889
 2924TIP3   OH2 8716   8.143   2.896   4.192
 2924TIP3    H1 8717   8.112   2.983   4.168
 2924TIP3    H2 8718   8.084   2.867   4.262
 2925TIP3   OH2 8719   3.430   4.738   5.858
 2925TIP3    H1 8720   3.383   4.744   5.941
 2925TIP3    H2 8721   3.428   4.645   5.837
 2926TIP3   OH2 8722   0.530   7.466   1.446
 2926TIP3    H1 8723   0.621   7.494   1.440
 2926TIP3    H2 8724   0.505   7.442   1.357
 2927TIP3   OH2 8725   2.797   5.584   1.991
 2927TIP3    H1 8726   2.708   5.564   2.021
 2927TIP3    H2 8727   2.807   5.534   1.910
 2928TIP3   OH2 8728   4.245   7.719   5.526
 2928TIP3    H1 8729   4.199   7.714   5.609
 2928TIP3    H2 8730   4.296   7.800   5.532
 2929TIP3   OH2 8731   0.987   1.496   1.559
 2929TIP3    H1 8732   0.962   1.469   1.648
 2929TIP3    H2 8733   1.076   1.530   1.569
 2930TIP3   OH2 8734   2.823   0.526   0.967
 2930TIP3    H1 8735   2.873   0.541   0.887
 2930TIP3    H2 8736   2.827   0.431   0.981
 2931TIP3   OH2 8737   7.275   4.203   3.195
 2931TIP3    H1 8738   7.350   4.197   3.255
 2931TIP3    H2 8739   7.201   4.226   3.252
 2932TIP3   OH2 8740   5.390   4.430   2.616
 2932TIP3    H1 8741   5.464   4.373   2.597
 2932TIP3    H2 8742   5.382   4.487   2.540
 2933TIP3   OH2 8743   6.635   3.624   3.968
 2933TIP3    H1 8744   6.546   3.604   3.998
 2933TIP3    H2 8745   6.638   3.590   3.878
 2934TIP3   OH2 8746   6.920   4.398   2.022
 2934TIP3    H1 8747   6.908   4.487   1.990
 2934TIP3    H2 8748   6.832   4.369   2.046
 2935TIP3   OH2 8749   7.854   7.212   6.191
 2935TIP3    H1 8750   7.872   7.233   6.283
 2935TIP3    H2 8751   7.803   7.286   6.159
 2936TIP3   OH2 8752   5.329   7.721   5.568
 2936TIP3    H1 8753   5.402   7.666   5.599
 2936TIP3    H2 8754   5.371   7.801   5.537
 2937TIP3   OH2 8755   1.171   4.380   5.826
 2937TIP3    H1 8756   1.137   4.339   5.746
 2937TIP3    H2 8757   1.124   4.337   5.897
 2938TIP3   OH2 8758   1.786   1.388   4.400
 2938TIP3    H1 8759   1.769   1.421   4.312
 2938TIP3    H2 8760   1.704   1.348   4.428
 2939TIP3   OH2 8761   8.149   1.709   0.083
 2939TIP3    H1 8762   8.170   1.770   0.013
 2939TIP3    H2 8763   8.226   1.711   0.141
 2940TIP3   OH2 8764   2.381   2.120   6.210
 2940TIP3    H1 8765   2.431   2.134   6.130
 2940TIP3    H2 8766   2.368   2.026   6.214
 2941TIP3   OH2 8767   0.884   3.229   0.814
 2941TIP3    H1 8768   0.908   3.216   0.906
 2941TIP3    H2 8769   0.857   3.320   0.809
 2942TIP3   OH2 8770   0.544   6.044   0.910
 2942TIP3    H1 8771   0.534   6.030   0.815
 2942TIP3    H2 8772   0.588   6.129   0.916
 2943TIP3   OH2 8773   0.650   1.755   3.322
 2943TIP3    H1 8774   0.613   1.669   3.303
 2943TIP3    H2 8775   0.710   1.771   3.249
 2944TIP3   OH2 8776   6.487   0.470   6.271
 2944TIP3    H1 8777   6.404   0.500   6.306
 2944TIP3    H2 8778   6.554   0.512   6.325
 2945TIP3   OH2 8779   5.354   4.934   6.219
 2945TIP3    H1 8780   5.323   4.891   6.298
 2945TIP3    H2 8781   5.363   4.863   6.155
 2946TIP3   OH2 8782   3.605   5.257   4.534
 2946TIP3    H1 8783   3.651   5.215   4.606
 2946TIP3    H2 8784   3.674   5.279   4.471
 2947TIP3   OH2 8785   0.883   5.915   4.642
 2947TIP3    H1 8786   0.932   5.923   4.561
 2947TIP3    H2 8787   0.899   5.997   4.689
 2948TIP3   OH2 8788   6.921   1.542   3.274
 2948TIP3    H1 8789   6.874   1.623   3.260
 2948TIP3    H2 8790   6.990   1.542   3.208
 2949TIP3   OH2 8791   4.330   3.391   3.505
 2949TIP3    H1 8792   4.299   3.429   3.587
 2949TIP3    H2 8793   4.304   3.299   3.509
 2950TIP3   OH2 8794   3.865   4.066   4.048
 2950TIP3    H1 8795   3.896   4.011   4.120
 2950TIP3    H2 8796   3.890   4.017   3.969
 2951TIP3   OH2 8797   5.600   7.417   4.868
 2951TIP3    H1 8798   5.527   7.428   4.929
 2951TIP3    H2 8799   5.675   7.396   4.923
 2952TIP3   OH2 8800   0.177   1.416   5.823
 2952TIP3    H1 8801   0.252   1.385   5.873
 2952TIP3    H2 8802   0.176   1.362   5.744
 2953TIP3   OH2 8803   4.860   6.941   3.298
 2953TIP3    H1 8804   4.952   6.952   3.320
 2953TIP3    H2 8805   4.825   6.883   3.365
 2954TIP3   OH2 8806   6.050   4.934   6.176
 2954TIP3    H1 8807   6.017   4.852   6.138
 2954TIP3    H2 8808   6.145   4.929   6.166
 2955TIP3   OH2 8809   7.906   6.608   6.300
 2955TIP3    H1 8810   7.853   6.559   6.364
 2955TIP3    H2 8811   7.949   6.541   6.247
 2956TIP3   OH2 8812   6.497   4.610   3.347
 2956TIP3    H1 8813   6.427   4.673   3.361
 2956TIP3    H2 8814   6.464   4.529   3.387
 2957TIP3   OH2 8815   4.914   6.706   6.070
 2957TIP3    H1 8816   4.911   6.785   6.016
 2957TIP3    H2 8817   4.838   6.714   6.127
 2958TIP3   OH2 8818   7.452   3.503   2.696
 2958TIP3    H1 8819   7.500   3.549   2.765
 2958TIP3    H2 8820   7.516   3.490   2.627
 2959TIP3   OH2 8821   3.203   7.061   4.641
 2959TIP3    H1 8822   3.250   7.088   4.563
 2959TIP3    H2 8823   3.269   7.018   4.696
 2960TIP3   OH2 8824   1.292   4.385   3.274
 2960TIP3    H1 8825   1.308   4.360   3.365
 2960TIP3    H2 8826   1.275   4.302   3.229
 2961TIP3   OH2 8827   1.358   4.962   4.313
 2961TIP3    H1 8828   1.286   4.938   4.255
 2961TIP3    H2 8829   1.380   4.880   4.358
 2962TIP3   OH2 8830   6.420   5.699   0.367
 2962TIP3    H1 8831   6.331   5.732   0.363
 2962TIP3    H2 8832   6.454   5.709   0.278
 2963TIP3   OH2 8833   5.266   3.421   1.033
 2963TIP3    H1 8834   5.235   3.337   0.999
 2963TIP3    H2 8835   5.270   3.408   1.128
 2964TIP3   OH2 8836   5.635   4.999   3.647
 2964TIP3    H1 8837   5.558   4.948   3.621
 2964TIP3    H2 8838   5.703   4.974   3.583
 2965TIP3   OH2 8839   7.359   7.097   5.713
 2965TIP3    H1 8840   7.295   7.127   5.777
 2965TIP3    H2 8841   7.306   7.059   5.643
 2966TIP3   OH2 8842   4.201   3.661   4.243
 2966TIP3    H1 8843   4.183   3.644   4.336
 2966TIP3    H2 8844   4.141   3.603   4.196
 2967TIP3   OH2 8845   4.016   0.009   3.901
 2967TIP3    H1 8846   4.012  -0.073   3.950
 2967TIP3    H2 8847   4.076   0.064   3.951
 2968TIP3   OH2 8848   7.496   6.178   5.730
 2968TIP3    H1 8849   7.482   6.145   5.642
 2968TIP3    H2 8850   7.424   6.240   5.744
 2969TIP3   OH2 8851   0.858   3.055   1.974
 2969TIP3    H1 8852   0.843   2.962   1.960
 2969TIP3    H2 8853   0.937   3.058   2.028
 2970TIP3   OH2 8854   7.969   7.157   1.738
 2970TIP3    H1 8855   8.020   7.166   1.818
 2970TIP3    H2 8856   7.898   7.220   1.747
 2971TIP3   OH2 8857   3.107   6.328   2.441
 2971TIP3    H1 8858   3.050   6.256   2.467
 2971TIP3    H2 8859   3.195   6.297   2.459
 2972TIP3   OH2 8860   7.322   2.746   5.168
 2972TIP3    H1 8861   7.415   2.741   5.187
 2972TIP3    H2 8862   7.301   2.839   5.173
 2973TIP3   OH2 8863   5.338   5.628   2.047
 2973TIP3    H1 8864   5.389   5.551   2.023
 2973TIP3    H2 8865   5.380   5.663   2.125
 2974TIP3   OH2 8866   7.254   6.374   5.962
 2974TIP3    H1 8867   7.179   6.431   5.979
 2974TIP3    H2 8868   7.272   6.384   5.869
 2975TIP3   OH2 8869   0.268   7.179   5.128
 2975TIP3    H1 8870   0.182   7.202   5.092
 2975TIP3    H2 8871   0.255   7.092   5.166
 2976TIP3   OH2 8872   4.806   7.006   5.732
 2976TIP3    H1 8873   4.866   7.005   5.657
 2976TIP3    H2 8874   4.734   6.948   5.705
 2977TIP3   OH2 8875   3.096   2.885   5.727
 2977TIP3    H1 8876   3.181   2.924   5.748
 2977TIP3    H2 8877   3.107   2.848   5.640
 2978TIP3   OH2 8878   1.628   0.513   3.828
 2978TIP3    H1 8879   1.575   0.439   3.801
 2978TIP3    H2 8880   1.693   0.476   3.888
 2979TIP3   OH2 8881   0.852   3.486   5.438
 2979TIP3    H1 8882   0.771   3.513   5.483
 2979TIP3    H2 8883   0.922   3.522   5.492
 2980TIP3   OH2 8884   6.760   1.846   3.677
 2980TIP3    H1 8885   6.708   1.845   3.598
 2980TIP3    H2 8886   6.838   1.794   3.655
 2981TIP3   OH2 8887   7.989   3.027   5.240
 2981TIP3    H1 8888   7.930   3.072   5.301
 2981TIP3    H2 8889   7.948   3.038   5.154
 2982TIP3   OH2 8890   3.714   7.281   0.873
 2982TIP3    H1 8891   3.785   7.342   0.855
 2982TIP3    H2 8892   3.758   7.197   0.886
 2983TIP3   OH2 8893   6.625   5.153   5.051
 2983TIP3    H1 8894   6.613   5.114   4.965
 2983TIP3    H2 8895   6.690   5.097   5.094
 2984TIP3   OH2 8896   1.573   0.460   5.018
 2984TIP3    H1 8897   1.607   0.467   5.107
 2984TIP3    H2 8898   1.527   0.543   5.003
 2985TIP3   OH2 8899   6.162   7.222   6.026
 2985TIP3    H1 8900   6.096   7.155   6.045
 2985TIP3    H2 8901   6.112   7.304   6.021
 2986TIP3   OH2 8902   6.551   3.107   0.497
 2986TIP3    H1 8903   6.626   3.124   0.440
 2986TIP3    H2 8904   6.532   3.191   0.538
 2987TIP3   OH2 8905   4.155   3.800   3.636
 2987TIP3    H1 8906   4.075   3.757   3.667
 2987TIP3    H2 8907   4.124   3.885   3.602
 2988TIP3   OH2 8908   3.833   0.462   3.070
 2988TIP3    H1 8909   3.819   0.408   3.148
 2988TIP3    H2 8910   3.854   0.549   3.104
 2989TIP3   OH2 8911   6.474   4.316   1.507
 2989TIP3    H1 8912   6.565   4.327   1.479
 2989TIP3    H2 8913   6.453   4.397   1.553
 2990TIP3   OH2 8914   5.327   1.791   1.623
 2990TIP3    H1 8915   5.410   1.750   1.649
 2990TIP3    H2 8916   5.265   1.719   1.616
 2991TIP3   OH2 8917   0.783   1.965   5.464
 2991TIP3    H1 8918   0.819   2.047   5.496
 2991TIP3    H2 8919   0.799   1.902   5.534
 2992TIP3   OH2 8920   1.552   3.137   1.222
 2992TIP3    H1 8921   1.470   3.176   1.193
 2992TIP3    H2 8922   1.556   3.155   1.316
 2993TIP3   OH2 8923   3.523   7.045   0.974
 2993TIP3    H1 8924   3.487   6.973   0.922
 2993TIP3    H2 8925   3.606   7.065   0.933
 2994TIP3   OH2 8926   5.314   3.965   6.267
 2994TIP3    H1 8927   5.286   3.899   6.330
 2994TIP3    H2 8928   5.402   3.989   6.296
 2995TIP3   OH2 8929   3.273   5.191   5.959
 2995TIP3    H1 8930   3.189   5.159   5.926
 2995TIP3    H2 8931   3.294   5.265   5.902
 2996TIP3   OH2 8932   4.511   6.272   5.279
 2996TIP3    H1 8933   4.495   6.345   5.220
 2996TIP3    H2 8934   4.603   6.248   5.264
 2997TIP3   OH2 8935   6.929   1.804   0.680
 2997TIP3    H1 8936   7.004   1.829   0.734
 2997TIP3    H2 8937   6.955   1.722   0.639
 2998TIP3   OH2 8938   0.432   2.431   4.535
 2998TIP3    H1 8939   0.408   2.352   4.583
 2998TIP3    H2 8940   0.348   2.467   4.505
 2999TIP3   OH2 8941   1.579   5.450   5.328
 2999TIP3    H1 8942   1.615   5.396   5.398
 2999TIP3    H2 8943   1.504   5.494   5.367
 3000TIP3   OH2 8944   2.081   3.311   0.999
 3000TIP3    H1 8945   2.031   3.239   0.960
 3000TIP3    H2 8946   2.030   3.336   1.077
 3001TIP3   OH2 8947   1.952   6.390   5.188
 3001TIP3    H1 8948   1.937   6.296   5.179
 3001TIP3    H2 8949   1.984   6.417   5.102
 3002TIP3   OH2 8950   5.350   3.393   5.790
 3002TIP3    H1 8951   5.393   3.344   5.720
 3002TIP3    H2 8952   5.385   3.482   5.781
 3003TIP3   OH2 8953   6.568   5.766   1.133
 3003TIP3    H1 8954   6.654   5.779   1.174
 3003TIP3    H2 8955   6.575   5.809   1.048
 3004TIP3   OH2 8956   6.390   1.394   3.294
 3004TIP3    H1 8957   6.464   1.370   3.349
 3004TIP3    H2 8958   6.420   1.379   3.205
 3005TIP3   OH2 8959   0.588   4.108   5.752
 3005TIP3    H1 8960   0.664   4.058   5.722
 3005TIP3    H2 8961   0.540   4.128   5.672
 3006TIP3   OH2 8962   0.129   0.811   4.115
 3006TIP3    H1 8963   0.079   0.748   4.166
 3006TIP3    H2 8964   0.069   0.885   4.103
 3007TIP3   OH2 8965   3.848   2.801   6.219
 3007TIP3    H1 8966   3.797   2.820   6.140
 3007TIP3    H2 8967   3.826   2.711   6.241
 3008TIP3   OH2 8968   2.196   0.932   0.455
 3008TIP3    H1 8969   2.290   0.933   0.436
 3008TIP3    H2 8970   2.186   0.868   0.525
 3009TIP3   OH2 8971   0.873   1.435   1.070
 3009TIP3    H1 8972   0.908   1.431   1.159
 3009TIP3    H2 8973   0.948   1.457   1.015
 3010TIP3   OH2 8974   7.288   1.190   5.388
 3010TIP3    H1 8975   7.306   1.141   5.308
 3010TIP3    H2 8976   7.365   1.246   5.400
 3011TIP3   OH2 8977   1.707   2.009   3.719
 3011TIP3    H1 8978   1.617   2.016   3.752
 3011TIP3    H2 8979   1.707   2.060   3.638
 3012TIP3   OH2 8980   6.114   5.270   3.606
 3012TIP3    H1 8981   6.120   5.365   3.598
 3012TIP3    H2 8982   6.136   5.236   3.519
 3013TIP3   OH2 8983   5.988   0.884   2.148
 3013TIP3    H1 8984   5.989   0.790   2.126
 3013TIP3    H2 8985   6.015   0.888   2.239
 3014TIP3   OH2 8986   1.286   2.887   3.465
 3014TIP3    H1 8987   1.330   2.802   3.467
 3014TIP3    H2 8988   1.221   2.878   3.396
 3015TIP3   OH2 8989   2.999   7.648   2.424
 3015TIP3    H1 8990   3.012   7.735   2.386
 3015TIP3    H2 8991   2.904   7.635   2.421
 3016TIP3   OH2 8992   4.739   3.535   4.882
 3016TIP3    H1 8993   4.726   3.629   4.899
 3016TIP3    H2 8994   4.676   3.515   4.813
 3017TIP3   OH2 8995   3.541   4.344   1.414
 3017TIP3    H1 8996   3.587   4.395   1.347
 3017TIP3    H2 8997   3.592   4.263   1.421
 3018TIP3   OH2 8998   5.200   0.259   6.612
 3018TIP3    H1 8999   5.170   0.168   6.604
 3018TIP3    H2 9000   5.157   0.304   6.539
 3019TIP3   OH2 9001   7.149   0.269   4.200
 3019TIP3    H1 9002   7.058   0.250   4.177
 3019TIP3    H2 9003   7.197   0.190   4.175
 3020TIP3   OH2 9004   5.416   1.258   2.851
 3020TIP3    H1 9005   5.479   1.196   2.888
 3020TIP3    H2 9006   5.337   1.207   2.836
 3021TIP3   OH2 9007   7.354   4.357   2.893
 3021TIP3    H1 9008   7.447   4.372   2.907
 3021TIP3    H2 9009   7.322   4.325   2.978
 3022TIP3   OH2 9010   2.882   7.582   0.932
 3022TIP3    H1 9011   2.911   7.562   0.842
 3022TIP3    H2 9012   2.833   7.663   0.923
 3023TIP3   OH2 9013   5.077   3.403   5.216
 3023TIP3    H1 9014   5.060   3.335   5.282
 3023TIP3    H2 9015   5.144   3.364   5.159
 3024TIP3   OH2 9016   7.895   7.207   3.336
 3024TIP3    H1 9017   7.812   7.196   3.289
 3024TIP3    H2 9018   7.926   7.293   3.310
 3025TIP3   OH2 9019   3.963   1.543   5.271
 3025TIP3    H1 9020   3.918   1.490   5.336
 3025TIP3    H2 9021   3.899   1.609   5.245
 3026TIP3   OH2 9022   6.498   5.202   0.577
 3026TIP3    H1 9023   6.502   5.298   0.571
 3026TIP3    H2 9024   6.569   5.171   0.521
 3027TIP3   OH2 9025   7.974   6.616   1.149
 3027TIP3    H1 9026   8.065   6.598   1.171
 3027TIP3    H2 9027   7.925   6.545   1.190
 3028TIP3   OH2 9028   1.361   1.447   1.025
 3028TIP3    H1 9029   1.424   1.518   1.038
 3028TIP3    H2 9030   1.414   1.368   1.029
 3029TIP3   OH2 9031   4.987   1.035   0.766
 3029TIP3    H1 9032   5.073   1.077   0.763
 3029TIP3    H2 9033   4.963   1.023   0.674
 3030TIP3   OH2 9034   5.971   2.614   3.694
 3030TIP3    H1 9035   5.908   2.685   3.682
 3030TIP3    H2 9036   6.047   2.639   3.642
 3031TIP3   OH2 9037   6.391   0.395   0.971
 3031TIP3    H1 9038   6.442   0.314   0.964
 3031TIP3    H2 9039   6.344   0.388   1.054
 3032TIP3   OH2 9040   1.064   5.211   4.991
 3032TIP3    H1 9041   1.124   5.274   5.031
 3032TIP3    H2 9042   0.987   5.263   4.968
 3033TIP3   OH2 9043   5.863   4.461   4.433
 3033TIP3    H1 9044   5.844   4.498   4.346
 3033TIP3    H2 9045   5.777   4.435   4.466
 3034TIP3   OH2 9046   0.931   6.885   3.374
 3034TIP3    H1 9047   0.862   6.897   3.310
 3034TIP3    H2 9048   0.928   6.792   3.396
 3035TIP3   OH2 9049   6.955   2.226   5.682
 3035TIP3    H1 9050   7.018   2.274   5.629
 3035TIP3    H2 9051   6.871   2.241   5.639
 3036TIP3   OH2 9052   4.544   1.045   4.171
 3036TIP3    H1 9053   4.601   1.119   4.193
 3036TIP3    H2 9054   4.527   1.002   4.255
 3037TIP3   OH2 9055   8.091   1.499   1.392
 3037TIP3    H1 9056   8.127   1.547   1.317
 3037TIP3    H2 9057   8.000   1.485   1.370
 3038TIP3   OH2 9058   7.595   0.174   6.108
 3038TIP3    H1 9059   7.541   0.221   6.172
 3038TIP3    H2 9060   7.674   0.150   6.157
 3039TIP3   OH2 9061   0.383   2.644   2.144
 3039TIP3    H1 9062   0.341   2.561   2.119
 3039TIP3    H2 9063   0.319   2.711   2.119
 3040TIP3   OH2 9064   6.273   2.137   1.231
 3040TIP3    H1 9065   6.263   2.176   1.318
 3040TIP3    H2 9066   6.327   2.060   1.245
 3041TIP3   OH2 9067   5.555   4.777   2.784
 3041TIP3    H1 9068   5.610   4.765   2.707
 3041TIP3    H2 9069   5.602   4.843   2.836
 3042TIP3   OH2 9070   3.255   2.830   2.398
 3042TIP3    H1 9071   3.283   2.859   2.485
 3042TIP3    H2 9072   3.287   2.740   2.391
 3043TIP3   OH2 9073   5.269   2.713   1.175
 3043TIP3    H1 9074   5.293   2.641   1.118
 3043TIP3    H2 9075   5.191   2.682   1.222
 3044TIP3   OH2 9076   2.280   0.325   0.541
 3044TIP3    H1 9077   2.348   0.393   0.539
 3044TIP3    H2 9078   2.243   0.325   0.453
 3045TIP3   OH2 9079   0.679   5.272   1.719
 3045TIP3    H1 9080   0.665   5.227   1.803
 3045TIP3    H2 9081   0.705   5.203   1.659
 3046TIP3   OH2 9082   0.075   5.853   1.382
 3046TIP3    H1 9083   0.051   5.789   1.449
 3046TIP3    H2 9084   0.170   5.853   1.382
 3047TIP3   OH2 9085   5.597   3.270   3.804
 3047TIP3    H1 9086   5.556   3.292   3.888
 3047TIP3    H2 9087   5.557   3.187   3.778
 3048TIP3   OH2 9088   3.680   3.504   4.335
 3048TIP3    H1 9089   3.604   3.452   4.362
 3048TIP3    H2 9090   3.735   3.509   4.413
 3049TIP3   OH2 9091   6.057   0.846   4.058
 3049TIP3    H1 9092   6.105   0.829   3.977
 3049TIP3    H2 9093   6.024   0.761   4.085
 3050TIP3   OH2 9094   2.139   7.535   5.490
 3050TIP3    H1 9095   2.110   7.497   5.407
 3050TIP3    H2 9096   2.221   7.579   5.469
 3051TIP3   OH2 9097   1.556   7.218   4.049
 3051TIP3    H1 9098   1.632   7.219   4.107
 3051TIP3    H2 9099   1.507   7.140   4.075
 3052TIP3   OH2 9100   6.457   2.163   5.205
 3052TIP3    H1 9101   6.406   2.141   5.283
 3052TIP3    H2 9102   6.393   2.195   5.142
 3053TIP3   OH2 9103   1.288   1.914   5.022
 3053TIP3    H1 9104   1.321   1.883   4.938
 3053TIP3    H2 9105   1.346   1.873   5.087
 3054TIP3   OH2 9106   1.894   2.116   0.346
 3054TIP3    H1 9107   1.908   2.173   0.421
 3054TIP3    H2 9108   1.962   2.140   0.283
 3055TIP3   OH2 9109   2.251   3.738   5.983
 3055TIP3    H1 9110   2.205   3.703   6.059
 3055TIP3    H2 9111   2.338   3.761   6.015
 3056TIP3   OH2 9112   1.236   4.794   5.504
 3056TIP3    H1 9113   1.163   4.749   5.463
 3056TIP3    H2 9114   1.244   4.755   5.590
 3057TIP3   OH2 9115   4.871   4.879   4.833
 3057TIP3    H1 9116   4.872   4.839   4.746
 3057TIP3    H2 9117   4.779   4.874   4.860
 3058TIP3   OH2 9118   5.795   7.726   4.646
 3058TIP3    H1 9119   5.844   7.750   4.567
 3058TIP3    H2 9120   5.861   7.693   4.706
 3059TIP3   OH2 9121   4.499   2.889   5.819
 3059TIP3    H1 9122   4.528   2.809   5.775
 3059TIP3    H2 9123   4.462   2.860   5.902
 3060TIP3   OH2 9124   3.663   3.507   5.556
 3060TIP3    H1 9125   3.718   3.572   5.600
 3060TIP3    H2 9126   3.628   3.453   5.627
 3061TIP3   OH2 9127   3.957   5.767   1.854
 3061TIP3    H1 9128   3.953   5.818   1.935
 3061TIP3    H2 9129   3.884   5.705   1.862
 3062TIP3   OH2 9130   6.550   4.959   6.231
 3062TIP3    H1 9131   6.535   5.028   6.166
 3062TIP3    H2 9132   6.469   4.908   6.231
 3063TIP3   OH2 9133   7.943   0.655   6.308
 3063TIP3    H1 9134   7.891   0.732   6.285
 3063TIP3    H2 9135   7.992   0.635   6.228
 3064TIP3   OH2 9136   4.689   4.376   0.564
 3064TIP3    H1 9137   4.690   4.462   0.521
 3064TIP3    H2 9138   4.765   4.377   0.622
 3065TIP3   OH2 9139   5.404   3.640   0.929
 3065TIP3    H1 9140   5.366   3.553   0.939
 3065TIP3    H2 9141   5.458   3.634   0.849
 3066TIP3   OH2 9142   6.644   0.998   5.308
 3066TIP3    H1 9143   6.568   0.982   5.364
 3066TIP3    H2 9144   6.668   1.089   5.326
 3067TIP3   OH2 9145   2.949   3.565   1.370
 3067TIP3    H1 9146   2.878   3.627   1.384
 3067TIP3    H2 9147   3.025   3.620   1.352
 3068TIP3   OH2 9148   7.180   5.646   1.359
 3068TIP3    H1 9149   7.218   5.603   1.283
 3068TIP3    H2 9150   7.089   5.614   1.362
 3069TIP3   OH2 9151   4.869   2.603   1.424
 3069TIP3    H1 9152   4.792   2.578   1.474
 3069TIP3    H2 9153   4.937   2.618   1.489
 3070TIP3   OH2 9154   2.851   2.355   4.723
 3070TIP3    H1 9155   2.826   2.444   4.748
 3070TIP3    H2 9156   2.767   2.311   4.705
 3071TIP3   OH2 9157   2.486   2.523   3.637
 3071TIP3    H1 9158   2.421   2.465   3.677
 3071TIP3    H2 9159   2.564   2.469   3.628
 3072TIP3   OH2 9160   4.507   2.818   3.530
 3072TIP3    H1 9161   4.569   2.888   3.507
 3072TIP3    H2 9162   4.559   2.737   3.522
 3073TIP3   OH2 9163   5.740   0.862   2.633
 3073TIP3    H1 9164   5.705   0.815   2.557
 3073TIP3    H2 9165   5.815   0.811   2.660
 3074TIP3   OH2 9166   8.208   1.261   1.393
 3074TIP3    H1 9167   8.159   1.343   1.403
 3074TIP3    H2 9168   8.145   1.193   1.415
 3075TIP3   OH2 9169   3.326   5.429   5.821
 3075TIP3    H1 9170   3.365   5.515   5.838
 3075TIP3    H2 9171   3.248   5.449   5.769
 3076TIP3   OH2 9172   2.623   6.617   0.788
 3076TIP3    H1 9173   2.635   6.699   0.836
 3076TIP3    H2 9174   2.589   6.556   0.853
 3077TIP3   OH2 9175   5.007   1.441   1.757
 3077TIP3    H1 9176   5.040   1.528   1.735
 3077TIP3    H2 9177   5.009   1.438   1.853
 3078TIP3   OH2 9178   6.036   4.076   4.674
 3078TIP3    H1 9179   6.039   4.120   4.589
 3078TIP3    H2 9180   6.001   4.143   4.734
 3079TIP3   OH2 9181   4.330   7.356   1.997
 3079TIP3    H1 9182   4.382   7.425   1.955
 3079TIP3    H2 9183   4.244   7.361   1.954
 3080TIP3   OH2 9184   3.962   6.725   0.448
 3080TIP3    H1 9185   4.021   6.650   0.458
 3080TIP3    H2 9186   4.004   6.779   0.380
 3081TIP3   OH2 9187   3.376   1.911   1.334
 3081TIP3    H1 9188   3.327   1.831   1.352
 3081TIP3    H2 9189   3.356   1.968   1.408
 3082TIP3   OH2 9190   7.415   6.005   4.200
 3082TIP3    H1 9191   7.449   5.969   4.282
 3082TIP3    H2 9192   7.457   5.954   4.131
 3083TIP3   OH2 9193   1.582   5.898   1.235
 3083TIP3    H1 9194   1.527   5.863   1.165
 3083TIP3    H2 9195   1.535   5.974   1.267
 3084TIP3   OH2 9196   3.813   2.541   6.303
 3084TIP3    H1 9197   3.752   2.533   6.376
 3084TIP3    H2 9198   3.830   2.451   6.276
 3085TIP3   OH2 9199   7.021   4.299   6.459
 3085TIP3    H1 9200   6.971   4.373   6.425
 3085TIP3    H2 9201   6.955   4.242   6.499
 3086TIP3   OH2 9202   7.591   4.052   6.449
 3086TIP3    H1 9203   7.540   4.094   6.380
 3086TIP3    H2 9204   7.667   4.109   6.461
 3087TIP3   OH2 9205   3.543   7.024   5.884
 3087TIP3    H1 9206   3.473   6.966   5.916
 3087TIP3    H2 9207   3.497   7.100   5.848
 3088TIP3   OH2 9208   7.423   3.201   2.791
 3088TIP3    H1 9209   7.340   3.154   2.779
 3088TIP3    H2 9210   7.446   3.232   2.704
 3089TIP3   OH2 9211   2.508   3.512   4.983
 3089TIP3    H1 9212   2.480   3.584   4.926
 3089TIP3    H2 9213   2.428   3.461   4.996
 3090TIP3   OH2 9214   7.389   0.013   2.260
 3090TIP3    H1 9215   7.396   0.108   2.276
 3090TIP3    H2 9216   7.473  -0.012   2.223
 3091TIP3   OH2 9217   2.063   7.057   0.842
 3091TIP3    H1 9218   1.973   7.023   0.842
 3091TIP3    H2 9219   2.064   7.121   0.913
 3092TIP3   OH2 9220   0.102   2.062   4.193
 3092TIP3    H1 9221   0.046   2.085   4.267
 3092TIP3    H2 9222   0.102   1.966   4.191
 3093TIP3   OH2 9223   5.852   7.662   1.423
 3093TIP3    H1 9224   5.915   7.616   1.478
 3093TIP3    H2 9225   5.795   7.594   1.388
 3094TIP3   OH2 9226   5.801   1.184   3.061
 3094TIP3    H1 9227   5.755   1.128   3.124
 3094TIP3    H2 9228   5.755   1.171   2.978
 3095TIP3   OH2 9229   1.450   6.191   3.577
 3095TIP3    H1 9230   1.390   6.256   3.611
 3095TIP3    H2 9231   1.395   6.130   3.529
 3096TIP3   OH2 9232   8.036   6.944   2.135
 3096TIP3    H1 9233   8.069   6.929   2.046
 3096TIP3    H2 9234   8.050   6.861   2.180
 3097TIP3   OH2 9235   2.732   3.418   4.841
 3097TIP3    H1 9236   2.735   3.422   4.745
 3097TIP3    H2 9237   2.640   3.434   4.863
 3098TIP3   OH2 9238   0.996   5.675   2.832
 3098TIP3    H1 9239   0.956   5.706   2.751
 3098TIP3    H2 9240   0.999   5.753   2.888
 3099TIP3   OH2 9241   4.038   0.799   4.633
 3099TIP3    H1 9242   3.978   0.735   4.670
 3099TIP3    H2 9243   4.085   0.752   4.563
 3100TIP3   OH2 9244   5.089   1.369   4.328
 3100TIP3    H1 9245   5.128   1.447   4.367
 3100TIP3    H2 9246   5.033   1.403   4.258
 3101TIP3   OH2 9247   6.159   2.036   0.664
 3101TIP3    H1 9248   6.201   2.011   0.746
 3101TIP3    H2 9249   6.231   2.034   0.600
 3102TIP3   OH2 9250   1.825   5.151   4.239
 3102TIP3    H1 9251   1.903   5.098   4.224
 3102TIP3    H2 9252   1.766   5.129   4.167
 3103TIP3   OH2 9253   7.764   4.632   2.140
 3103TIP3    H1 9254   7.716   4.633   2.057
 3103TIP3    H2 9255   7.699   4.606   2.206
 3104TIP3   OH2 9256   6.597   4.088   4.411
 3104TIP3    H1 9257   6.626   4.023   4.475
 3104TIP3    H2 9258   6.644   4.168   4.434
 3105TIP3   OH2 9259   2.396   6.617   1.419
 3105TIP3    H1 9260   2.459   6.574   1.476
 3105TIP3    H2 9261   2.372   6.697   1.466
 3106TIP3   OH2 9262   2.899   4.886   6.699
 3106TIP3    H1 9263   2.881   4.802   6.741
 3106TIP3    H2 9264   2.959   4.931   6.758
 3107TIP3   OH2 9265   5.283   5.834   1.164
 3107TIP3    H1 9266   5.372   5.819   1.195
 3107TIP3    H2 9267   5.231   5.840   1.244
 3108TIP3   OH2 9268   2.042   0.463   6.272
 3108TIP3    H1 9269   2.117   0.450   6.214
 3108TIP3    H2 9270   1.974   0.406   6.236
 3109TIP3   OH2 9271   1.321   0.194   3.755
 3109TIP3    H1 9272   1.385   0.215   3.688
 3109TIP3    H2 9273   1.329   0.100   3.769
 3110TIP3   OH2 9274   5.386   7.252   3.529
 3110TIP3    H1 9275   5.428   7.185   3.584
 3110TIP3    H2 9276   5.455   7.280   3.468
 3111TIP3   OH2 9277   2.641   0.049   0.833
 3111TIP3    H1 9278   2.701  -0.020   0.803
 3111TIP3    H2 9279   2.555   0.020   0.801
 3112TIP3   OH2 9280   5.264   3.590   1.843
 3112TIP3    H1 9281   5.294   3.642   1.918
 3112TIP3    H2 9282   5.234   3.655   1.780
 3113TIP3   OH2 9283   3.745   3.047   3.635
 3113TIP3    H1 9284   3.668   3.027   3.583
 3113TIP3    H2 9285   3.802   2.971   3.623
 3114TIP3   OH2 9286   2.992   0.248   5.683
 3114TIP3    H1 9287   3.009   0.159   5.713
 3114TIP3    H2 9288   3.013   0.246   5.589
 3115TIP3   OH2 9289   6.966   4.914   0.451
 3115TIP3    H1 9290   7.058   4.897   0.469
 3115TIP3    H2 9291   6.928   4.827   0.436
 3116TIP3   OH2 9292   2.693   6.942   3.909
 3116TIP3    H1 9293   2.647   6.858   3.909
 3116TIP3    H2 9294   2.677   6.978   3.821
 3117TIP3   OH2 9295   2.646   3.527   5.709
 3117TIP3    H1 9296   2.714   3.564   5.766
 3117TIP3    H2 9297   2.603   3.604   5.671
 3118TIP3   OH2 9298   0.048   6.280   5.257
 3118TIP3    H1 9299   0.094   6.348   5.305
 3118TIP3    H2 9300   0.009   6.325   5.182
 3119TIP3   OH2 9301   5.804   6.408   2.979
 3119TIP3    H1 9302   5.826   6.317   2.959
 3119TIP3    H2 9303   5.846   6.459   2.909
 3120TIP3   OH2 9304   7.186   6.237   1.721
 3120TIP3    H1 9305   7.109   6.293   1.715
 3120TIP3    H2 9306   7.196   6.201   1.633
 3121TIP3   OH2 9307   3.699   1.752   3.466
 3121TIP3    H1 9308   3.616   1.733   3.422
 3121TIP3    H2 9309   3.706   1.685   3.533
 3122TIP3   OH2 9310   4.276   7.249   6.367
 3122TIP3    H1 9311   4.334   7.308   6.414
 3122TIP3    H2 9312   4.245   7.187   6.433
 3123TIP3   OH2 9313   3.762   6.160   1.138
 3123TIP3    H1 9314   3.792   6.187   1.052
 3123TIP3    H2 9315   3.693   6.096   1.121
 3124TIP3   OH2 9316   2.098   6.477   1.250
 3124TIP3    H1 9317   2.112   6.386   1.276
 3124TIP3    H2 9318   2.007   6.495   1.275
 3125TIP3   OH2 9319   2.397   4.330   0.474
 3125TIP3    H1 9320   2.455   4.257   0.450
 3125TIP3    H2 9321   2.335   4.293   0.535
 3126TIP3   OH2 9322   5.697   3.879   5.827
 3126TIP3    H1 9323   5.718   3.791   5.856
 3126TIP3    H2 9324   5.602   3.879   5.814
 3127TIP3   OH2 9325   8.219   0.701   6.480
 3127TIP3    H1 9326   8.237   0.722   6.388
 3127TIP3    H2 9327   8.134   0.656   6.478
 3128TIP3   OH2 9328   0.288   0.315   4.086
 3128TIP3    H1 9329   0.215   0.336   4.144
 3128TIP3    H2 9330   0.286   0.220   4.078
 3129TIP3   OH2 9331   7.702   5.450   3.290
 3129TIP3    H1 9332   7.769   5.516   3.274
 3129TIP3    H2 9333   7.680   5.460   3.383
 3130TIP3   OH2 9334   5.474   3.174   2.412
 3130TIP3    H1 9335   5.410   3.191   2.342
 3130TIP3    H2 9336   5.500   3.083   2.400
 3131TIP3   OH2 9337   1.971   7.444   5.000
 3131TIP3    H1 9338   1.938   7.361   5.033
 3131TIP3    H2 9339   1.978   7.432   4.905
 3132TIP3   OH2 9340   5.736   2.261   6.564
 3132TIP3    H1 9341   5.673   2.311   6.616
 3132TIP3    H2 9342   5.808   2.244   6.624
 3133TIP3   OH2 9343   0.701   5.166   1.277
 3133TIP3    H1 9344   0.740   5.098   1.222
 3133TIP3    H2 9345   0.607   5.161   1.259
 3134TIP3   OH2 9346   6.071   5.100   1.737
 3134TIP3    H1 9347   6.082   5.191   1.710
 3134TIP3    H2 9348   5.985   5.074   1.703
 3135TIP3   OH2 9349   8.321   7.846   5.487
 3135TIP3    H1 9350   8.314   7.917   5.552
 3135TIP3    H2 9351   8.270   7.774   5.525
 3136TIP3   OH2 9352   6.037   3.773   1.677
 3136TIP3    H1 9353   6.088   3.698   1.708
 3136TIP3    H2 9354   5.946   3.746   1.687
 3137TIP3   OH2 9355   3.074   4.155   4.090
 3137TIP3    H1 9356   2.995   4.102   4.078
 3137TIP3    H2 9357   3.145   4.100   4.056
 3138TIP3   OH2 9358   0.818   0.441   3.603
 3138TIP3    H1 9359   0.766   0.468   3.679
 3138TIP3    H2 9360   0.907   0.436   3.636
 3139TIP3   OH2 9361   1.716   2.969   2.307
 3139TIP3    H1 9362   1.636   2.946   2.261
 3139TIP3    H2 9363   1.688   2.987   2.397
 3140TIP3   OH2 9364   3.988   6.081   6.691
 3140TIP3    H1 9365   4.058   6.131   6.731
 3140TIP3    H2 9366   4.024   5.993   6.682
 3141TIP3   OH2 9367   1.069   6.652   4.717
 3141TIP3    H1 9368   1.013   6.623   4.645
 3141TIP3    H2 9369   1.116   6.728   4.681
 3142TIP3   OH2 9370   2.285   6.400   6.144
 3142TIP3    H1 9371   2.343   6.328   6.120
 3142TIP3    H2 9372   2.312   6.473   6.088
 3143TIP3   OH2 9373   0.500   7.533   1.803
 3143TIP3    H1 9374   0.431   7.470   1.783
 3143TIP3    H2 9375   0.453   7.613   1.828
 3144TIP3   OH2 9376   6.503   1.954   0.072
 3144TIP3    H1 9377   6.409   1.967   0.060
 3144TIP3    H2 9378   6.530   1.899  -0.002
 3145TIP3   OH2 9379   5.450   1.197   0.904
 3145TIP3    H1 9380   5.537   1.225   0.932
 3145TIP3    H2 9381   5.425   1.129   0.966
 3146TIP3   OH2 9382   2.042   0.137   1.509
 3146TIP3    H1 9383   1.961   0.098   1.475
 3146TIP3    H2 9384   2.093   0.062   1.540
 3147TIP3   OH2 9385   2.712   4.917   4.248
 3147TIP3    H1 9386   2.712   5.004   4.206
 3147TIP3    H2 9387   2.709   4.856   4.175
 3148TIP3   OH2 9388   5.822   5.913   1.206
 3148TIP3    H1 9389   5.869   5.926   1.124
 3148TIP3    H2 9390   5.860   5.832   1.242
 3149TIP3   OH2 9391   1.832   7.447   2.002
 3149TIP3    H1 9392   1.886   7.373   2.028
 3149TIP3    H2 9393   1.825   7.440   1.907
 3150TIP3   OH2 9394   0.271   0.638   3.156
 3150TIP3    H1 9395   0.236   0.553   3.131
 3150TIP3    H2 9396   0.199   0.699   3.143
 3151TIP3   OH2 9397   4.473   6.924   1.873
 3151TIP3    H1 9398   4.383   6.942   1.902
 3151TIP3    H2 9399   4.465   6.908   1.779
 3152TIP3   OH2 9400   3.988   4.866   4.930
 3152TIP3    H1 9401   3.896   4.856   4.906
 3152TIP3    H2 9402   3.988   4.867   5.026
 3153TIP3   OH2 9403   6.456   7.226   6.542
 3153TIP3    H1 9404   6.544   7.200   6.570
 3153TIP3    H2 9405   6.432   7.161   6.477
 3154TIP3   OH2 9406   5.918   2.508   3.303
 3154TIP3    H1 9407   5.838   2.490   3.351
 3154TIP3    H2 9408   5.986   2.513   3.370
 3155TIP3   OH2 9409   5.827   1.193   2.199
 3155TIP3    H1 9410   5.919   1.176   2.183
 3155TIP3    H2 9411   5.817   1.186   2.294
 3156TIP3   OH2 9412   1.508   2.520   5.690
 3156TIP3    H1 9413   1.515   2.446   5.750
 3156TIP3    H2 9414   1.455   2.584   5.738
 3157TIP3   OH2 9415   0.233   2.012   3.053
 3157TIP3    H1 9416   0.207   1.981   2.966
 3157TIP3    H2 9417   0.158   2.064   3.083
 3158TIP3   OH2 9418   3.155   3.417   0.122
 3158TIP3    H1 9419   3.217   3.490   0.125
 3158TIP3    H2 9420   3.128   3.404   0.213
 3159TIP3   OH2 9421   3.097   5.799   3.800
 3159TIP3    H1 9422   3.144   5.820   3.881
 3159TIP3    H2 9423   3.161   5.814   3.731
 3160TIP3   OH2 9424   2.661   6.154   4.580
 3160TIP3    H1 9425   2.641   6.087   4.645
 3160TIP3    H2 9426   2.719   6.215   4.625
 3161TIP3   OH2 9427   3.409   6.936   5.503
 3161TIP3    H1 9428   3.497   6.925   5.540
 3161TIP3    H2 9429   3.379   6.846   5.487
 3162TIP3   OH2 9430   0.673   1.042   0.844
 3162TIP3    H1 9431   0.705   0.970   0.898
 3162TIP3    H2 9432   0.751   1.080   0.805
 3163TIP3   OH2 9433   7.727   4.954   2.865
 3163TIP3    H1 9434   7.741   5.048   2.877
 3163TIP3    H2 9435   7.810   4.914   2.889
 3164TIP3   OH2 9436   3.000   5.690   0.805
 3164TIP3    H1 9437   2.933   5.701   0.738
 3164TIP3    H2 9438   3.037   5.777   0.816
 3165TIP3   OH2 9439   4.051   1.634   4.007
 3165TIP3    H1 9440   3.975   1.609   3.954
 3165TIP3    H2 9441   4.050   1.573   4.081
 3166TIP3   OH2 9442   1.381   6.174   5.851
 3166TIP3    H1 9443   1.346   6.097   5.808
 3166TIP3    H2 9444   1.352   6.166   5.942
 3167TIP3   OH2 9445   5.715   1.947   4.560
 3167TIP3    H1 9446   5.798   1.908   4.532
 3167TIP3    H2 9447   5.668   1.965   4.479
 3168TIP3   OH2 9448   3.200   5.957   4.825
 3168TIP3    H1 9449   3.243   6.023   4.879
 3168TIP3    H2 9450   3.113   5.994   4.808
 3169TIP3   OH2 9451   4.539   0.535   3.843
 3169TIP3    H1 9452   4.534   0.449   3.800
 3169TIP3    H2 9453   4.632   0.550   3.857
 3170TIP3   OH2 9454   5.819   5.731   5.378
 3170TIP3    H1 9455   5.886   5.681   5.423
 3170TIP3    H2 9456   5.744   5.672   5.372
 3171TIP3   OH2 9457   4.358   4.303   4.367
 3171TIP3    H1 9458   4.264   4.317   4.354
 3171TIP3    H2 9459   4.378   4.350   4.448
 3172TIP3   OH2 9460   0.357   2.830   4.084
 3172TIP3    H1 9461   0.358   2.867   3.996
 3172TIP3    H2 9462   0.278   2.867   4.125
 3173TIP3   OH2 9463   2.663   1.650   0.202
 3173TIP3    H1 9464   2.601   1.718   0.174
 3173TIP3    H2 9465   2.737   1.661   0.143
 3174TIP3   OH2 9466   5.417   2.766   0.451
 3174TIP3    H1 9467   5.387   2.857   0.444
 3174TIP3    H2 9468   5.512   2.771   0.439
 3175TIP3   OH2 9469   7.456   1.594   6.094
 3175TIP3    H1 9470   7.475   1.672   6.041
 3175TIP3    H2 9471   7.361   1.592   6.100
 3176TIP3   OH2 9472   1.950   3.098   1.530
 3176TIP3    H1 9473   2.004   3.168   1.494
 3176TIP3    H2 9474   1.883   3.083   1.464
 3177TIP3   OH2 9475   1.415   7.643   0.225
 3177TIP3    H1 9476   1.485   7.674   0.167
 3177TIP3    H2 9477   1.369   7.722   0.251
 3178TIP3   OH2 9478   3.143   6.780   3.172
 3178TIP3    H1 9479   3.083   6.811   3.241
 3178TIP3    H2 9480   3.229   6.810   3.201
 3179TIP3   OH2 9481   0.062   7.829   1.837
 3179TIP3    H1 9482   0.115   7.763   1.882
 3179TIP3    H2 9483  -0.003   7.857   1.902
 3180TIP3   OH2 9484   1.100   7.806   5.903
 3180TIP3    H1 9485   1.154   7.731   5.879
 3180TIP3    H2 9486   1.090   7.856   5.822
 3181TIP3   OH2 9487   3.236   5.878   4.017
 3181TIP3    H1 9488   3.219   5.858   4.109
 3181TIP3    H2 9489   3.331   5.871   4.008
 3182TIP3   OH2 9490   5.916   2.374   1.151
 3182TIP3    H1 9491   5.952   2.293   1.113
 3182TIP3    H2 9492   5.952   2.376   1.239
 3183TIP3   OH2 9493   2.232   3.796   5.257
 3183TIP3    H1 9494   2.225   3.701   5.244
 3183TIP3    H2 9495   2.274   3.828   5.177
 3184TIP3   OH2 9496   1.789   4.364   1.439
 3184TIP3    H1 9497   1.781   4.370   1.344
 3184TIP3    H2 9498   1.875   4.400   1.459
 3185TIP3   OH2 9499   0.219   1.481   5.444
 3185TIP3    H1 9500   0.297   1.454   5.492
 3185TIP3    H2 9501   0.150   1.421   5.475
 3186TIP3   OH2 9502   1.375   5.285   1.274
 3186TIP3    H1 9503   1.343   5.240   1.352
 3186TIP3    H2 9504   1.320   5.253   1.203
 3187TIP3   OH2 9505   2.522   4.594   1.571
 3187TIP3    H1 9506   2.587   4.650   1.614
 3187TIP3    H2 9507   2.565   4.566   1.490
 3188TIP3   OH2 9508   4.288   1.240   1.017
 3188TIP3    H1 9509   4.245   1.306   0.963
 3188TIP3    H2 9510   4.253   1.253   1.105
 3189TIP3   OH2 9511   1.434   3.526   3.571
 3189TIP3    H1 9512   1.498   3.457   3.554
 3189TIP3    H2 9513   1.354   3.495   3.530
 3190TIP3   OH2 9514   8.037   4.922   2.709
 3190TIP3    H1 9515   8.028   4.828   2.699
 3190TIP3    H2 9516   7.983   4.959   2.639
 3191TIP3   OH2 9517   6.624   4.110   2.015
 3191TIP3    H1 9518   6.633   4.185   2.074
 3191TIP3    H2 9519   6.613   4.148   1.928
 3192TIP3   OH2 9520   1.514   3.627   2.704
 3192TIP3    H1 9521   1.514   3.718   2.734
 3192TIP3    H2 9522   1.433   3.618   2.653
 3193TIP3   OH2 9523   5.415   5.897   4.470
 3193TIP3    H1 9524   5.478   5.946   4.523
 3193TIP3    H2 9525   5.331   5.940   4.487
 3194TIP3   OH2 9526   5.314   3.030   6.496
 3194TIP3    H1 9527   5.287   3.122   6.493
 3194TIP3    H2 9528   5.253   2.986   6.437
 3195TIP3   OH2 9529   2.656   6.865   0.908
 3195TIP3    H1 9530   2.592   6.925   0.948
 3195TIP3    H2 9531   2.734   6.919   0.895
 3196TIP3   OH2 9532   1.690   0.830   4.895
 3196TIP3    H1 9533   1.633   0.821   4.972
 3196TIP3    H2 9534   1.778   0.840   4.932
 3197TIP3   OH2 9535   8.088   6.440   5.659
 3197TIP3    H1 9536   8.039   6.507   5.612
 3197TIP3    H2 9537   8.023   6.375   5.685
 3198TIP3   OH2 9538   8.178   5.287   1.404
 3198TIP3    H1 9539   8.121   5.225   1.450
 3198TIP3    H2 9540   8.215   5.236   1.332
 3199TIP3   OH2 9541   7.980   0.606   5.661
 3199TIP3    H1 9542   8.061   0.620   5.710
 3199TIP3    H2 9543   8.003   0.626   5.570
 3200TIP3   OH2 9544   0.846   6.236   2.158
 3200TIP3    H1 9545   0.879   6.271   2.075
 3200TIP3    H2 9546   0.835   6.142   2.142
 3201TIP3   OH2 9547   3.174   6.312   3.699
 3201TIP3    H1 9548   3.149   6.233   3.650
 3201TIP3    H2 9549   3.100   6.372   3.686
 3202TIP3   OH2 9550   6.435   7.283   2.212
 3202TIP3    H1 9551   6.396   7.213   2.160
 3202TIP3    H2 9552   6.404   7.266   2.301
 3203TIP3   OH2 9553   7.464   1.587   3.074
 3203TIP3    H1 9554   7.391   1.525   3.080
 3203TIP3    H2 9555   7.541   1.532   3.064
 3204TIP3   OH2 9556   3.132   4.209   3.680
 3204TIP3    H1 9557   3.037   4.217   3.690
 3204TIP3    H2 9558   3.159   4.151   3.752
 3205TIP3   OH2 9559   6.738   4.895   2.572
 3205TIP3    H1 9560   6.759   4.804   2.551
 3205TIP3    H2 9561   6.819   4.943   2.555
 3206TIP3   OH2 9562   1.880   5.583   0.869
 3206TIP3    H1 9563   1.908   5.645   0.802
 3206TIP3    H2 9564   1.785   5.582   0.863
 3207TIP3   OH2 9565   4.071   5.553   0.872
 3207TIP3    H1 9566   3.988   5.524   0.912
 3207TIP3    H2 9567   4.138   5.507   0.921
 3208TIP3   OH2 9568   1.724   3.070   2.842
 3208TIP3    H1 9569   1.690   2.994   2.890
 3208TIP3    H2 9570   1.648   3.128   2.833
 3209TIP3   OH2 9571   0.892   4.293   4.051
 3209TIP3    H1 9572   0.844   4.376   4.043
 3209TIP3    H2 9573   0.856   4.237   3.983
 3210TIP3   OH2 9574   1.970   6.104   5.142
 3210TIP3    H1 9575   2.017   6.135   5.065
 3210TIP3    H2 9576   2.030   6.043   5.184
 3211TIP3   OH2 9577   1.403   0.215   4.492
 3211TIP3    H1 9578   1.339   0.157   4.533
 3211TIP3    H2 9579   1.432   0.272   4.563
 3212TIP3   OH2 9580   1.258   7.345   3.131
 3212TIP3    H1 9581   1.231   7.359   3.222
 3212TIP3    H2 9582   1.290   7.255   3.129
 3213TIP3   OH2 9583   0.048   3.134   6.496
 3213TIP3    H1 9584  -0.027   3.172   6.450
 3213TIP3    H2 9585   0.032   3.039   6.493
 3214TIP3   OH2 9586   6.312   5.206   3.067
 3214TIP3    H1 9587   6.270   5.210   3.152
 3214TIP3    H2 9588   6.240   5.211   3.004
 3215TIP3   OH2 9589   6.934   0.279   2.198
 3215TIP3    H1 9590   6.947   0.349   2.262
 3215TIP3    H2 9591   6.926   0.326   2.114
 3216TIP3   OH2 9592   4.095   6.263   5.404
 3216TIP3    H1 9593   4.128   6.215   5.329
 3216TIP3    H2 9594   4.001   6.242   5.406
 3217TIP3   OH2 9595   1.992   1.211   6.344
 3217TIP3    H1 9596   2.070   1.220   6.399
 3217TIP3    H2 9597   2.003   1.278   6.277
 3218TIP3   OH2 9598   3.076   4.748   0.317
 3218TIP3    H1 9599   3.143   4.791   0.369
 3218TIP3    H2 9600   3.034   4.819   0.268
 3219TIP3   OH2 9601   3.052   6.315   0.102
 3219TIP3    H1 9602   2.958   6.334   0.100
 3219TIP3    H2 9603   3.078   6.310   0.010
 3220TIP3   OH2 9604   4.515   7.078   5.379
 3220TIP3    H1 9605   4.580   7.148   5.381
 3220TIP3    H2 9606   4.437   7.117   5.419
 3221TIP3   OH2 9607   1.452   2.160   5.438
 3221TIP3    H1 9608   1.458   2.172   5.344
 3221TIP3    H2 9609   1.418   2.071   5.449
 3222TIP3   OH2 9610   0.580   4.919   4.878
 3222TIP3    H1 9611   0.539   4.833   4.888
 3222TIP3    H2 9612   0.674   4.900   4.880
 3223TIP3   OH2 9613   8.103   2.169   6.308
 3223TIP3    H1 9614   8.128   2.192   6.398
 3223TIP3    H2 9615   8.180   2.124   6.273
 3224TIP3   OH2 9616   1.746   2.609   5.104
 3224TIP3    H1 9617   1.788   2.628   5.188
 3224TIP3    H2 9618   1.763   2.516   5.089
 3225TIP3   OH2 9619   6.643   3.932   4.669
 3225TIP3    H1 9620   6.739   3.924   4.676
 3225TIP3    H2 9621   6.613   3.935   4.760
 3226TIP3   OH2 9622   0.150   4.830   5.401
 3226TIP3    H1 9623   0.200   4.907   5.376
 3226TIP3    H2 9624   0.100   4.858   5.478
 3227TIP3   OH2 9625   0.716   4.304   3.374
 3227TIP3    H1 9626   0.796   4.255   3.392
 3227TIP3    H2 9627   0.746   4.379   3.321
 3228TIP3   OH2 9628   1.065   3.854   0.989
 3228TIP3    H1 9629   1.148   3.897   1.009
 3228TIP3    H2 9630   1.076   3.821   0.900
 3229TIP3   OH2 9631   7.712   4.421  -0.011
 3229TIP3    H1 9632   7.774   4.363   0.035
 3229TIP3    H2 9633   7.748   4.509   0.001
 3230TIP3   OH2 9634   1.013   0.269   3.288
 3230TIP3    H1 9635   1.087   0.213   3.312
 3230TIP3    H2 9636   0.985   0.237   3.203
 3231TIP3   OH2 9637   1.065   2.745   2.134
 3231TIP3    H1 9638   1.024   2.802   2.199
 3231TIP3    H2 9639   1.144   2.713   2.177
 3232TIP3   OH2 9640   0.783   7.524   0.433
 3232TIP3    H1 9641   0.793   7.467   0.357
 3232TIP3    H2 9642   0.693   7.556   0.426
 3233TIP3   OH2 9643   1.512   7.498   4.000
 3233TIP3    H1 9644   1.494   7.405   3.982
 3233TIP3    H2 9645   1.430   7.532   4.036
 3234TIP3   OH2 9646   7.176   3.661   2.775
 3234TIP3    H1 9647   7.126   3.673   2.855
 3234TIP3    H2 9648   7.205   3.749   2.751
 3235TIP3   OH2 9649   1.275   1.636   4.691
 3235TIP3    H1 9650   1.319   1.718   4.713
 3235TIP3    H2 9651   1.334   1.568   4.722
 3236TIP3   OH2 9652   7.473   1.809   1.218
 3236TIP3    H1 9653   7.555   1.773   1.252
 3236TIP3    H2 9654   7.461   1.891   1.265
 3237TIP3   OH2 9655   7.915   5.762   1.139
 3237TIP3    H1 9656   7.966   5.708   1.200
 3237TIP3    H2 9657   7.860   5.817   1.195
 3238TIP3   OH2 9658   4.790   7.212   3.496
 3238TIP3    H1 9659   4.882   7.215   3.469
 3238TIP3    H2 9660   4.748   7.152   3.434
 3239TIP3   OH2 9661   1.769   6.657   1.060
 3239TIP3    H1 9662   1.863   6.669   1.052
 3239TIP3    H2 9663   1.742   6.623   0.974
 3240TIP3   OH2 9664   5.474   5.329   5.287
 3240TIP3    H1 9665   5.458   5.338   5.193
 3240TIP3    H2 9666   5.393   5.291   5.322
 3241TIP3   OH2 9667   8.047   2.009   0.338
 3241TIP3    H1 9668   7.955   2.002   0.363
 3241TIP3    H2 9669   8.046   2.058   0.256
 3242TIP3   OH2 9670   1.744   2.036   0.683
 3242TIP3    H1 9671   1.711   2.116   0.643
 3242TIP3    H2 9672   1.813   2.065   0.742
 3243TIP3   OH2 9673   5.400   0.596   5.283
 3243TIP3    H1 9674   5.362   0.595   5.371
 3243TIP3    H2 9675   5.410   0.504   5.260
 3244TIP3   OH2 9676   2.448   1.499   2.205
 3244TIP3    H1 9677   2.403   1.462   2.280
 3244TIP3    H2 9678   2.396   1.576   2.180
 3245TIP3   OH2 9679   0.906   6.550   4.513
 3245TIP3    H1 9680   0.842   6.574   4.446
 3245TIP3    H2 9681   0.860   6.488   4.570
 3246TIP3   OH2 9682   0.221   1.905   4.507
 3246TIP3    H1 9683   0.158   1.883   4.576
 3246TIP3    H2 9684   0.246   1.996   4.525
 3247TIP3   OH2 9685   4.604   2.239   2.429
 3247TIP3    H1 9686   4.663   2.197   2.367
 3247TIP3    H2 9687   4.612   2.333   2.412
 3248TIP3   OH2 9688   1.535   6.963   5.030
 3248TIP3    H1 9689   1.544   6.969   5.125
 3248TIP3    H2 9690   1.447   6.928   5.016
 3249TIP3   OH2 9691   8.159   2.369   3.069
 3249TIP3    H1 9692   8.198   2.456   3.081
 3249TIP3    H2 9693   8.065   2.384   3.071
 3250TIP3   OH2 9694   4.448   5.578   5.164
 3250TIP3    H1 9695   4.451   5.483   5.169
 3250TIP3    H2 9696   4.487   5.607   5.246
 3251TIP3   OH2 9697   7.278   5.798   2.430
 3251TIP3    H1 9698   7.271   5.808   2.525
 3251TIP3    H2 9699   7.359   5.843   2.407
 3252TIP3   OH2 9700   3.927   1.991   1.816
 3252TIP3    H1 9701   3.963   1.913   1.775
 3252TIP3    H2 9702   3.877   1.957   1.891
 3253TIP3   OH2 9703   4.555   2.852   5.427
 3253TIP3    H1 9704   4.505   2.909   5.486
 3253TIP3    H2 9705   4.646   2.863   5.455
 3254TIP3   OH2 9706   5.895   2.918   1.571
 3254TIP3    H1 9707   5.886   2.971   1.492
 3254TIP3    H2 9708   5.824   2.854   1.564
 3255TIP3   OH2 9709   4.236   4.481   5.350
 3255TIP3    H1 9710   4.277   4.566   5.365
 3255TIP3    H2 9711   4.192   4.461   5.433
 3256TIP3   OH2 9712   3.860   7.781   1.895
 3256TIP3    H1 9713   3.944   7.738   1.910
 3256TIP3    H2 9714   3.843   7.769   1.801
 3257TIP3   OH2 9715   1.999   5.211   4.010
 3257TIP3    H1 9716   2.083   5.234   4.049
 3257TIP3    H2 9717   1.968   5.292   3.970
 3258TIP3   OH2 9718   3.198   4.744   4.914
 3258TIP3    H1 9719   3.144   4.819   4.937
 3258TIP3    H2 9720   3.238   4.717   4.997
 3259TIP3   OH2 9721   8.083   0.817   3.612
 3259TIP3    H1 9722   8.116   0.836   3.524
 3259TIP3    H2 9723   8.085   0.721   3.618
 3260TIP3   OH2 9724   7.558   7.493   1.234
 3260TIP3    H1 9725   7.634   7.469   1.182
 3260TIP3    H2 9726   7.543   7.419   1.292
 3261TIP3   OH2 9727   6.049   5.640   0.590
 3261TIP3    H1 9728   6.058   5.647   0.495
 3261TIP3    H2 9729   6.028   5.549   0.606
 3262TIP3   OH2 9730   0.579   2.805   5.042
 3262TIP3    H1 9731   0.519   2.836   5.110
 3262TIP3    H2 9732   0.624   2.731   5.082
 3263TIP3   OH2 9733   7.723   6.649   4.086
 3263TIP3    H1 9734   7.730   6.733   4.039
 3263TIP3    H2 9735   7.777   6.589   4.035
 3264TIP3   OH2 9736   4.182   1.089   0.087
 3264TIP3    H1 9737   4.252   1.129   0.035
 3264TIP3    H2 9738   4.173   1.001   0.051
 3265TIP3   OH2 9739   6.333   2.189   3.394
 3265TIP3    H1 9740   6.337   2.199   3.299
 3265TIP3    H2 9741   6.252   2.141   3.409
 3266TIP3   OH2 9742   0.509   3.210   3.569
 3266TIP3    H1 9743   0.538   3.156   3.643
 3266TIP3    H2 9744   0.569   3.188   3.498
 3267TIP3   OH2 9745   3.965   3.519   1.759
 3267TIP3    H1 9746   4.031   3.495   1.694
 3267TIP3    H2 9747   4.013   3.570   1.824
 3268TIP3   OH2 9748   6.853   3.503   5.934
 3268TIP3    H1 9749   6.833   3.416   5.897
 3268TIP3    H2 9750   6.779   3.557   5.908
 3269TIP3   OH2 9751   2.661   1.802   5.760
 3269TIP3    H1 9752   2.592   1.798   5.827
 3269TIP3    H2 9753   2.674   1.896   5.745
 3270TIP3   OH2 9754   5.997   6.015   4.577
 3270TIP3    H1 9755   6.076   6.013   4.631
 3270TIP3    H2 9756   6.019   6.072   4.504
 3271TIP3   OH2 9757   0.999   4.841   3.465
 3271TIP3    H1 9758   0.980   4.831   3.371
 3271TIP3    H2 9759   1.089   4.873   3.468
 3272TIP3   OH2 9760   3.855   4.676   6.383
 3272TIP3    H1 9761   3.800   4.670   6.305
 3272TIP3    H2 9762   3.860   4.586   6.416
 3273TIP3   OH2 9763   4.370   0.126   4.420
 3273TIP3    H1 9764   4.335   0.153   4.335
 3273TIP3    H2 9765   4.372   0.030   4.417
 3274TIP3   OH2 9766   0.996   4.742   0.991
 3274TIP3    H1 9767   1.089   4.721   0.990
 3274TIP3    H2 9768   0.972   4.749   0.898
 3275TIP3   OH2 9769   4.792   5.499   0.894
 3275TIP3    H1 9770   4.704   5.532   0.878
 3275TIP3    H2 9771   4.787   5.406   0.872
 3276TIP3   OH2 9772   1.138   2.319   0.445
 3276TIP3    H1 9773   1.202   2.348   0.510
 3276TIP3    H2 9774   1.191   2.273   0.379
 3277TIP3   OH2 9775   0.031   1.453   3.848
 3277TIP3    H1 9776   0.058   1.510   3.776
 3277TIP3    H2 9777  -0.026   1.388   3.807
 3278TIP3   OH2 9778   3.535   7.741   4.461
 3278TIP3    H1 9779   3.461   7.768   4.407
 3278TIP3    H2 9780   3.496   7.687   4.530
 3279TIP3   OH2 9781   3.582   4.181   1.864
 3279TIP3    H1 9782   3.676   4.170   1.851
 3279TIP3    H2 9783   3.547   4.092   1.862
 3280TIP3   OH2 9784   2.090   6.428   3.448
 3280TIP3    H1 9785   2.108   6.461   3.536
 3280TIP3    H2 9786   2.083   6.508   3.394
 3281TIP3   OH2 9787   4.168   2.511   2.810
 3281TIP3    H1 9788   4.161   2.437   2.749
 3281TIP3    H2 9789   4.232   2.482   2.875
 3282TIP3   OH2 9790   4.081   0.106   1.306
 3282TIP3    H1 9791   4.078   0.095   1.211
 3282TIP3    H2 9792   4.017   0.175   1.324
 3283TIP3   OH2 9793   2.291   2.149   4.509
 3283TIP3    H1 9794   2.346   2.074   4.489
 3283TIP3    H2 9795   2.271   2.188   4.423
 3284TIP3   OH2 9796   0.429   0.016   2.658
 3284TIP3    H1 9797   0.414   0.084   2.592
 3284TIP3    H2 9798   0.524   0.005   2.661
 3285TIP3   OH2 9799   2.055   7.589   0.962
 3285TIP3    H1 9800   2.052   7.684   0.948
 3285TIP3    H2 9801   1.997   7.574   1.036
 3286TIP3   OH2 9802   4.593   6.763   6.057
 3286TIP3    H1 9803   4.617   6.745   6.148
 3286TIP3    H2 9804   4.500   6.785   6.061
 3287TIP3   OH2 9805   2.641   2.475   3.334
 3287TIP3    H1 9806   2.661   2.449   3.424
 3287TIP3    H2 9807   2.563   2.529   3.342
 3288TIP3   OH2 9808   0.637   0.172   2.118
 3288TIP3    H1 9809   0.669   0.084   2.141
 3288TIP3    H2 9810   0.687   0.195   2.039
 3289TIP3   OH2 9811   7.079   5.978   0.366
 3289TIP3    H1 9812   7.142   6.015   0.428
 3289TIP3    H2 9813   6.995   5.987   0.409
 3290TIP3   OH2 9814   3.181   0.608   3.762
 3290TIP3    H1 9815   3.236   0.681   3.789
 3290TIP3    H2 9816   3.139   0.638   3.681
 3291TIP3   OH2 9817   0.614   4.075   5.125
 3291TIP3    H1 9818   0.704   4.053   5.101
 3291TIP3    H2 9819   0.583   3.998   5.172
 3292TIP3   OH2 9820   5.883   3.454   0.044
 3292TIP3    H1 9821   5.916   3.540   0.017
 3292TIP3    H2 9822   5.802   3.443  -0.006
 3293TIP3   OH2 9823   4.116   4.403   5.611
 3293TIP3    H1 9824   4.059   4.327   5.600
 3293TIP3    H2 9825   4.205   4.367   5.604
 3294TIP3   OH2 9826   0.995   3.527   0.120
 3294TIP3    H1 9827   0.990   3.620   0.098
 3294TIP3    H2 9828   0.947   3.483   0.051
 3295TIP3   OH2 9829   5.930   0.249   4.768
 3295TIP3    H1 9830   5.953   0.304   4.694
 3295TIP3    H2 9831   6.004   0.256   4.828
 3296TIP3   OH2 9832   5.428   7.410   5.738
 3296TIP3    H1 9833   5.476   7.474   5.686
 3296TIP3    H2 9834   5.439   7.327   5.692
 3297TIP3   OH2 9835   4.010   6.924   0.235
 3297TIP3    H1 9836   3.983   6.844   0.189
 3297TIP3    H2 9837   4.026   6.988   0.165
 3298TIP3   OH2 9838   5.502   0.645   4.416
 3298TIP3    H1 9839   5.562   0.694   4.360
 3298TIP3    H2 9840   5.463   0.711   4.474
 3299TIP3   OH2 9841   7.741   5.375   3.595
 3299TIP3    H1 9842   7.651   5.409   3.598
 3299TIP3    H2 9843   7.786   5.419   3.667
 3300TIP3   OH2 9844   7.092   0.954   2.626
 3300TIP3    H1 9845   7.033   1.003   2.684
 3300TIP3    H2 9846   7.172   1.007   2.622
 3301TIP3   OH2 9847   8.055   2.479   0.365
 3301TIP3    H1 9848   8.033   2.429   0.443
 3301TIP3    H2 9849   8.148   2.498   0.374
 3302TIP3   OH2 9850   7.792   3.592   6.444
 3302TIP3    H1 9851   7.846   3.617   6.368
 3302TIP3    H2 9852   7.752   3.673   6.473
 3303TIP3   OH2 9853   3.228   3.928   6.077
 3303TIP3    H1 9854   3.283   3.958   6.150
 3303TIP3    H2 9855   3.173   4.004   6.056
 3304TIP3   OH2 9856   6.909   2.377   5.134
 3304TIP3    H1 9857   6.855   2.300   5.153
 3304TIP3    H2 9858   6.977   2.375   5.201
 3305TIP3   OH2 9859   6.185   4.754   6.705
 3305TIP3    H1 9860   6.105   4.731   6.657
 3305TIP3    H2 9861   6.245   4.784   6.637
 3306TIP3   OH2 9862   6.888   2.242   2.412
 3306TIP3    H1 9863   6.795   2.242   2.436
 3306TIP3    H2 9864   6.906   2.150   2.389
 3307TIP3   OH2 9865   6.195   4.210   0.653
 3307TIP3    H1 9866   6.216   4.300   0.628
 3307TIP3    H2 9867   6.280   4.168   0.665
 3308TIP3   OH2 9868   0.153   2.535   4.598
 3308TIP3    H1 9869   0.071   2.503   4.560
 3308TIP3    H2 9870   0.169   2.618   4.553
 3309TIP3   OH2 9871   2.272   2.441   1.673
 3309TIP3    H1 9872   2.201   2.440   1.609
 3309TIP3    H2 9873   2.351   2.421   1.622
 3310TIP3   OH2 9874   2.137   4.458   1.221
 3310TIP3    H1 9875   2.057   4.499   1.188
 3310TIP3    H2 9876   2.195   4.454   1.144
 3311TIP3   OH2 9877   0.977   3.777   5.094
 3311TIP3    H1 9878   0.929   3.860   5.100
 3311TIP3    H2 9879   0.935   3.730   5.022
 3312TIP3   OH2 9880   2.741   6.526   5.775
 3312TIP3    H1 9881   2.723   6.605   5.825
 3312TIP3    H2 9882   2.830   6.538   5.742
 3313TIP3   OH2 9883   2.290   1.348   0.764
 3313TIP3    H1 9884   2.280   1.302   0.847
 3313TIP3    H2 9885   2.304   1.278   0.699
 3314TIP3   OH2 9886   1.395   3.120   0.595
 3314TIP3    H1 9887   1.321   3.123   0.654
 3314TIP3    H2 9888   1.471   3.141   0.650
 3315TIP3   OH2 9889   3.783   7.030   2.687
 3315TIP3    H1 9890   3.721   7.080   2.741
 3315TIP3    H2 9891   3.803   7.088   2.614
 3316TIP3   OH2 9892   0.430   4.013   3.949
 3316TIP3    H1 9893   0.427   3.973   4.035
 3316TIP3    H2 9894   0.475   4.096   3.963
 3317TIP3   OH2 9895   2.862   3.631   5.058
 3317TIP3    H1 9896   2.871   3.577   4.979
 3317TIP3    H2 9897   2.788   3.688   5.039
 3318TIP3   OH2 9898   5.082   6.823   4.689
 3318TIP3    H1 9899   4.997   6.820   4.733
 3318TIP3    H2 9900   5.105   6.916   4.687
 3319TIP3   OH2 9901   0.291   2.609   5.569
 3319TIP3    H1 9902   0.283   2.660   5.488
 3319TIP3    H2 9903   0.219   2.546   5.565
 3320TIP3   OH2 9904   2.679   4.155   2.229
 3320TIP3    H1 9905   2.587   4.180   2.226
 3320TIP3    H2 9906   2.726   4.232   2.198
 3321TIP3   OH2 9907   4.033   3.737   6.389
 3321TIP3    H1 9908   4.115   3.743   6.437
 3321TIP3    H2 9909   3.981   3.672   6.437
 3322TIP3   OH2 9910   4.097   1.943   2.180
 3322TIP3    H1 9911   4.059   1.856   2.190
 3322TIP3    H2 9912   4.039   2.001   2.229
 3323TIP3   OH2 9913   4.248   2.760   3.445
 3323TIP3    H1 9914   4.329   2.779   3.492
 3323TIP3    H2 9915   4.208   2.689   3.494
 3324TIP3   OH2 9916   0.867   4.451   1.880
 3324TIP3    H1 9917   0.910   4.424   1.798
 3324TIP3    H2 9918   0.801   4.514   1.852
 3325TIP3   OH2 9919   3.854   4.224   0.337
 3325TIP3    H1 9920   3.821   4.154   0.280
 3325TIP3    H2 9921   3.782   4.242   0.398
 3326TIP3   OH2 9922   5.089   6.146   5.252
 3326TIP3    H1 9923   5.115   6.193   5.331
 3326TIP3    H2 9924   5.125   6.058   5.263
 3327TIP3   OH2 9925   0.262   4.359   6.091
 3327TIP3    H1 9926   0.324   4.427   6.064
 3327TIP3    H2 9927   0.312   4.277   6.085
 3328TIP3   OH2 9928   1.175   5.213   2.036
 3328TIP3    H1 9929   1.137   5.126   2.025
 3328TIP3    H2 9930   1.111   5.272   1.994
 3329TIP3   OH2 9931   2.440   1.241   0.020
 3329TIP3    H1 9932   2.534   1.239   0.039
 3329TIP3    H2 9933   2.402   1.287   0.094
 3330TIP3   OH2 9934   1.872   3.521   4.344
 3330TIP3    H1 9935   1.913   3.466   4.411
 3330TIP3    H2 9936   1.940   3.585   4.321
 3331TIP3   OH2 9937   4.595   5.208   2.087
 3331TIP3    H1 9938   4.585   5.249   2.173
 3331TIP3    H2 9939   4.535   5.134   2.088
 3332TIP3   OH2 9940   4.292   7.406   3.381
 3332TIP3    H1 9941   4.290   7.476   3.447
 3332TIP3    H2 9942   4.265   7.448   3.300
 3333TIP3   OH2 9943   0.049   5.433   2.448
 3333TIP3    H1 9944   0.142   5.437   2.472
 3333TIP3    H2 9945   0.018   5.351   2.487
 3334TIP3   OH2 9946   4.235   6.956   5.512
 3334TIP3    H1 9947   4.156   7.000   5.545
 3334TIP3    H2 9948   4.299   6.965   5.582
 3335TIP3   OH2 9949   1.521   6.392   0.663
 3335TIP3    H1 9950   1.501   6.443   0.585
 3335TIP3    H2 9951   1.436   6.362   0.695
 3336TIP3   OH2 9952   0.434   1.589   5.639
 3336TIP3    H1 9953   0.475   1.675   5.633
 3336TIP3    H2 9954   0.488   1.532   5.584
 3337TIP3   OH2 9955   5.382   1.736   6.336
 3337TIP3    H1 9956   5.451   1.795   6.309
 3337TIP3    H2 9957   5.316   1.742   6.267
 3338TIP3   OH2 9958   6.400   6.327   6.707
 3338TIP3    H1 9959   6.342   6.264   6.751
 3338TIP3    H2 9960   6.413   6.291   6.620
 3339TIP3   OH2 9961   2.122   5.923   6.069
 3339TIP3    H1 9962   2.066   5.942   6.145
 3339TIP3    H2 9963   2.211   5.921   6.105
 3340TIP3   OH2 9964   6.050   0.980   1.892
 3340TIP3    H1 9965   5.960   0.976   1.860
 3340TIP3    H2 9966   6.043   0.953   1.984
 3341TIP3   OH2 9967   3.471   3.999   5.533
 3341TIP3    H1 9968   3.549   3.964   5.490
 3341TIP3    H2 9969   3.452   3.936   5.602
 3342TIP3   OH2 9970   4.719   3.231   6.060
 3342TIP3    H1 9971   4.651   3.173   6.093
 3342TIP3    H2 9972   4.696   3.246   5.968
 3343TIP3   OH2 9973   2.592   3.117   2.219
 3343TIP3    H1 9974   2.634   3.167   2.289
 3343TIP3    H2 9975   2.603   3.171   2.141
 3344TIP3   OH2 9976   7.565   7.759   3.832
 3344TIP3    H1 9977   7.616   7.679   3.830
 3344TIP3    H2 9978   7.480   7.733   3.867
 3345TIP3   OH2 9979   2.707   7.445   5.739
 3345TIP3    H1 9980   2.735   7.528   5.701
 3345TIP3    H2 9981   2.756   7.379   5.690
 3346TIP3   OH2 9982   1.625   4.358   3.624
 3346TIP3    H1 9983   1.699   4.362   3.564
 3346TIP3    H2 9984   1.663   4.383   3.709
 3347TIP3   OH2 9985   7.926   7.259   6.462
 3347TIP3    H1 9986   7.994   7.246   6.528
 3347TIP3    H2 9987   7.895   7.349   6.477
 3348TIP3   OH2 9988   1.721   6.543   4.609
 3348TIP3    H1 9989   1.742   6.450   4.616
 3348TIP3    H2 9990   1.653   6.547   4.542
 3349TIP3   OH2 9991   5.852   0.738   0.061
 3349TIP3    H1 9992   5.823   0.778   0.143
 3349TIP3    H2 9993   5.810   0.652   0.061
 3350TIP3   OH2 9994   4.427   6.924   1.299
 3350TIP3    H1 9995   4.517   6.897   1.315
 3350TIP3    H2 9996   4.405   6.980   1.373
 3351TIP3   OH2 9997   3.725   4.677   2.879
 3351TIP3    H1 9998   3.669   4.718   2.945
 3351TIP3    H2 9999   3.664   4.629   2.823
 3352TIP3   OH210000   7.744   1.663   1.190
 3352TIP3    H110001   7.768   1.605   1.261
 3352TIP3    H210002   7.709   1.605   1.122
 3353TIP3   OH210003   3.132   3.053   0.490
 3353TIP3    H110004   3.189   3.086   0.559
 3353TIP3    H210005   3.163   2.965   0.472
 3354TIP3   OH210006   2.086   6.109   0.646
 3354TIP3    H110007   1.999   6.121   0.606
 3354TIP3    H210008   2.093   6.014   0.658
 3355TIP3   OH210009   2.000   4.804   3.328
 3355TIP3    H110010   1.935   4.793   3.259
 3355TIP3    H210011   1.959   4.766   3.406
 3356TIP3   OH210012   2.369   3.213   3.024
 3356TIP3    H110013   2.463   3.225   3.030
 3356TIP3    H210014   2.348   3.230   2.932
 3357TIP3   OH210015   5.544   5.583   2.532
 3357TIP3    H110016   5.549   5.508   2.592
 3357TIP3    H210017   5.461   5.570   2.486
 3358TIP3   OH210018   0.706   6.697   1.619
 3358TIP3    H110019   0.660   6.779   1.634
 3358TIP3    H210020   0.671   6.637   1.685
 3359TIP3   OH210021   4.928   7.302   0.773
 3359TIP3    H110022   4.956   7.369   0.835
 3359TIP3    H210023   4.931   7.345   0.687
 3360TIP3   OH210024   0.062   6.058   0.297
 3360TIP3    H110025   0.088   6.053   0.389
 3360TIP3    H210026  -0.001   6.130   0.294
 3361TIP3   OH210027   4.728   7.505   1.581
 3361TIP3    H110028   4.661   7.573   1.592
 3361TIP3    H210029   4.766   7.496   1.668
 3362TIP3   OH210030   8.166   2.830   2.872
 3362TIP3    H110031   8.180   2.802   2.963
 3362TIP3    H210032   8.168   2.926   2.876
 3363TIP3   OH210033   1.022   3.622   1.876
 3363TIP3    H110034   0.980   3.696   1.920
 3363TIP3    H210035   1.027   3.649   1.784
 3364TIP3   OH210036   8.193   0.648   5.824
 3364TIP3    H110037   8.284   0.627   5.847
 3364TIP3    H210038   8.179   0.735   5.860
 3365TIP3   OH210039   3.592   5.957   0.612
 3365TIP3    H110040   3.498   5.969   0.604
 3365TIP3    H210041   3.603   5.893   0.682
 3366TIP3   OH210042   2.862   5.805   1.049
 3366TIP3    H110043   2.911   5.723   1.057
 3366TIP3    H210044   2.919   5.862   0.996
 3367TIP3   OH210045   7.871   5.879   2.609
 3367TIP3    H110046   7.857   5.936   2.685
 3367TIP3    H210047   7.902   5.938   2.540
 3368TIP3   OH210048   4.503   1.764   2.900
 3368TIP3    H110049   4.525   1.671   2.892
 3368TIP3    H210050   4.455   1.771   2.982
 3369TIP3   OH210051   0.878   1.002   2.498
 3369TIP3    H110052   0.791   0.999   2.538
 3369TIP3    H210053   0.929   0.937   2.545
 3370TIP3   OH210054   3.866   5.168   5.994
 3370TIP3    H110055   3.790   5.146   6.047
 3370TIP3    H210056   3.892   5.084   5.954
 3371TIP3   OH210057   3.569   2.987   3.426
 3371TIP3    H110058   3.652   2.963   3.384
 3371TIP3    H210059   3.505   2.987   3.355
 3372TIP3   OH210060   5.187   5.681   5.784
 3372TIP3    H110061   5.206   5.709   5.694
 3372TIP3    H210062   5.197   5.761   5.836
 3373TIP3   OH210063   4.685   5.877   3.984
 3373TIP3    H110064   4.609   5.845   4.032
 3373TIP3    H210065   4.735   5.797   3.964
 3374TIP3   OH210066   8.235   7.084   4.681
 3374TIP3    H110067   8.236   7.174   4.649
 3374TIP3    H210068   8.142   7.062   4.689
 3375TIP3   OH210069   0.673   3.131   2.611
 3375TIP3    H110070   0.730   3.205   2.634
 3375TIP3    H210071   0.603   3.169   2.559
 3376TIP3   OH210072   4.314   0.820   0.223
 3376TIP3    H110073   4.303   0.840   0.130
 3376TIP3    H210074   4.240   0.762   0.244
 3377TIP3   OH210075   3.589   0.187   3.258
 3377TIP3    H110076   3.675   0.229   3.269
 3377TIP3    H210077   3.583   0.125   3.332
 3378TIP3   OH210078   1.419   4.691   4.406
 3378TIP3    H110079   1.353   4.637   4.362
 3378TIP3    H210080   1.495   4.687   4.349
 3379TIP3   OH210081   2.298   4.715   5.936
 3379TIP3    H110082   2.369   4.712   5.872
 3379TIP3    H210083   2.316   4.794   5.988
 3380TIP3   OH210084   3.646   7.042   4.498
 3380TIP3    H110085   3.736   7.010   4.498
 3380TIP3    H210086   3.645   7.109   4.429
 3381TIP3   OH210087   3.674   3.233   3.030
 3381TIP3    H110088   3.728   3.303   3.067
 3381TIP3    H210089   3.714   3.153   3.064
 3382TIP3   OH210090   5.714   0.540   5.448
 3382TIP3    H110091   5.781   0.472   5.444
 3382TIP3    H210092   5.761   0.621   5.431
 3383TIP3   OH210093   7.638   7.459   2.244
 3383TIP3    H110094   7.546   7.467   2.270
 3383TIP3    H210095   7.685   7.512   2.309
 3384TIP3   OH210096   3.010   6.233   0.790
 3384TIP3    H110097   3.070   6.308   0.786
 3384TIP3    H210098   2.943   6.253   0.725
 3385TIP3   OH210099   5.468   7.465   6.011
 3385TIP3    H110100   5.374   7.466   6.032
 3385TIP3    H210101   5.471   7.442   5.918
 3386TIP3   OH210102   1.131   0.867   6.138
 3386TIP3    H110103   1.071   0.915   6.081
 3386TIP3    H210104   1.126   0.777   6.107
 3387TIP3   OH210105   6.027   3.871   2.046
 3387TIP3    H110106   5.935   3.843   2.048
 3387TIP3    H210107   6.076   3.790   2.040
 3388TIP3   OH210108   6.209   3.416   3.661
 3388TIP3    H110109   6.238   3.386   3.748
 3388TIP3    H210110   6.266   3.491   3.642
 3389TIP3   OH210111   1.152   2.437   6.480
 3389TIP3    H110112   1.108   2.522   6.482
 3389TIP3    H210113   1.104   2.383   6.542
 3390TIP3   OH210114   1.486   5.172   5.844
 3390TIP3    H110115   1.508   5.262   5.819
 3390TIP3    H210116   1.566   5.122   5.827
 3391TIP3   OH210117   5.390   4.561   5.626
 3391TIP3    H110118   5.324   4.563   5.695
 3391TIP3    H210119   5.473   4.577   5.672
 3392TIP3   OH210120   5.722   1.806   3.261
 3392TIP3    H110121   5.633   1.817   3.226
 3392TIP3    H210122   5.750   1.720   3.230
 3393TIP3   OH210123   3.982   1.429   4.245
 3393TIP3    H110124   3.983   1.357   4.308
 3393TIP3    H210125   3.893   1.428   4.209
 3394TIP3   OH210126   1.382   1.623   3.999
 3394TIP3    H110127   1.445   1.595   3.932
 3394TIP3    H210128   1.347   1.541   4.035
 3395TIP3   OH210129   0.107   4.542   4.209
 3395TIP3    H110130   0.029   4.508   4.165
 3395TIP3    H210131   0.112   4.634   4.183
 3396TIP3   OH210132   3.609   2.868   0.920
 3396TIP3    H110133   3.617   2.942   0.861
 3396TIP3    H210134   3.700   2.844   0.940
 3397TIP3   OH210135   7.210   2.274   1.166
 3397TIP3    H110136   7.282   2.287   1.105
 3397TIP3    H210137   7.235   2.325   1.243
 3398TIP3   OH210138   5.891   0.119   4.508
 3398TIP3    H110139   5.972   0.132   4.459
 3398TIP3    H210140   5.911   0.151   4.597
 3399TIP3   OH210141   3.495   4.879   3.866
 3399TIP3    H110142   3.404   4.852   3.879
 3399TIP3    H210143   3.545   4.826   3.927
 3400TIP3   OH210144   5.990   3.733   3.003
 3400TIP3    H110145   5.998   3.644   2.969
 3400TIP3    H210146   6.066   3.743   3.061
 3401TIP3   OH210147   0.633   0.053   4.958
 3401TIP3    H110148   0.712   0.061   5.012
 3401TIP3    H210149   0.666   0.049   4.868
 3402TIP3   OH210150   1.447   7.219   4.442
 3402TIP3    H110151   1.372   7.187   4.492
 3402TIP3    H210152   1.486   7.141   4.403
 3403TIP3   OH210153   2.832   6.661   0.129
 3403TIP3    H110154   2.759   6.694   0.077
 3403TIP3    H210155   2.838   6.721   0.203
 3404TIP3   OH210156   6.319   0.202   2.899
 3404TIP3    H110157   6.395   0.246   2.860
 3404TIP3    H210158   6.246   0.227   2.843
 3405TIP3   OH210159   4.447   3.902   2.631
 3405TIP3    H110160   4.359   3.938   2.620
 3405TIP3    H210161   4.461   3.847   2.553
 3406TIP3   OH210162   3.195   2.060   1.743
 3406TIP3    H110163   3.103   2.059   1.769
 3406TIP3    H210164   3.239   2.008   1.810
 3407TIP3   OH210165   3.939   5.878   6.102
 3407TIP3    H110166   3.957   5.972   6.109
 3407TIP3    H210167   3.849   5.868   6.132
 3408TIP3   OH210168   4.342   4.697   2.135
 3408TIP3    H110169   4.292   4.655   2.205
 3408TIP3    H210170   4.374   4.624   2.082
 3409TIP3   OH210171   6.753   4.671   2.324
 3409TIP3    H110172   6.778   4.579   2.334
 3409TIP3    H210173   6.673   4.680   2.377
 3410TIP3   OH210174   7.339   1.392   2.751
 3410TIP3    H110175   7.302   1.397   2.840
 3410TIP3    H210176   7.427   1.427   2.760
 3411TIP3   OH210177   0.235   2.884   1.658
 3411TIP3    H110178   0.217   2.968   1.701
 3411TIP3    H210179   0.171   2.880   1.587
 3412TIP3   OH210180   2.680   6.161   6.674
 3412TIP3    H110181   2.654   6.196   6.759
 3412TIP3    H210182   2.717   6.236   6.627
 3413TIP3   OH210183   6.182   0.325   5.501
 3413TIP3    H110184   6.218   0.300   5.586
 3413TIP3    H210185   6.192   0.420   5.498
 3414TIP3   OH210186   6.930   7.462   4.856
 3414TIP3    H110187   6.898   7.372   4.854
 3414TIP3    H210188   6.871   7.507   4.917
 3415TIP3   OH210189   3.990   5.321   1.415
 3415TIP3    H110190   4.041   5.241   1.404
 3415TIP3    H210191   3.899   5.295   1.402
 3416TIP3   OH210192   2.611   0.027   3.152
 3416TIP3    H110193   2.591   0.108   3.198
 3416TIP3    H210194   2.588   0.045   3.061
 3417TIP3   OH210195   2.400   2.176   6.492
 3417TIP3    H110196   2.309   2.181   6.522
 3417TIP3    H210197   2.393   2.172   6.397
 3418TIP3   OH210198   0.918   3.305   4.749
 3418TIP3    H110199   0.924   3.397   4.722
 3418TIP3    H210200   0.837   3.273   4.710
 3419TIP3   OH210201   3.190   3.964   1.233
 3419TIP3    H110202   3.118   4.027   1.232
 3419TIP3    H210203   3.255   4.003   1.291
 3420TIP3   OH210204   0.361   6.498   6.584
 3420TIP3    H110205   0.328   6.587   6.574
 3420TIP3    H210206   0.314   6.447   6.518
 3421TIP3   OH210207   6.771   2.037   1.201
 3421TIP3    H110208   6.856   2.062   1.238
 3421TIP3    H210209   6.763   2.091   1.122
 3422TIP3   OH210210   7.473   3.491   4.661
 3422TIP3    H110211   7.465   3.520   4.752
 3422TIP3    H210212   7.548   3.541   4.627
 3423TIP3   OH210213   4.112   5.080   5.517
 3423TIP3    H110214   4.077   4.994   5.492
 3423TIP3    H210215   4.037   5.139   5.512
 3424TIP3   OH210216   7.216   6.803   0.283
 3424TIP3    H110217   7.289   6.746   0.308
 3424TIP3    H210218   7.181   6.764   0.203
 3425TIP3   OH210219   7.950   2.869   1.554
 3425TIP3    H110220   7.954   2.889   1.648
 3425TIP3    H210221   7.923   2.777   1.551
 3426TIP3   OH210222   3.154   7.812   2.818
 3426TIP3    H110223   3.190   7.749   2.755
 3426TIP3    H210224   3.060   7.798   2.814
 3427TIP3   OH210225   4.272   0.218   4.175
 3427TIP3    H110226   4.180   0.216   4.200
 3427TIP3    H210227   4.283   0.302   4.130
 3428TIP3   OH210228   3.552   0.470   0.354
 3428TIP3    H110229   3.560   0.517   0.437
 3428TIP3    H210230   3.588   0.530   0.289
 3429TIP3   OH210231   2.234   7.297   5.305
 3429TIP3    H110232   2.256   7.296   5.398
 3429TIP3    H210233   2.226   7.205   5.281
 3430TIP3   OH210234   6.028   2.312   1.746
 3430TIP3    H110235   5.939   2.332   1.773
 3430TIP3    H210236   6.070   2.278   1.825
 3431TIP3   OH210237   6.460   0.575   1.890
 3431TIP3    H110238   6.467   0.670   1.902
 3431TIP3    H210239   6.396   0.548   1.956
 3432TIP3   OH210240   1.856   4.186   5.239
 3432TIP3    H110241   1.933   4.184   5.297
 3432TIP3    H210242   1.882   4.242   5.166
 3433TIP3   OH210243   4.595   7.098   3.984
 3433TIP3    H110244   4.589   7.096   3.888
 3433TIP3    H210245   4.534   7.167   4.010
 3434TIP3   OH210246   0.027   4.936   1.985
 3434TIP3    H110247   0.081   4.959   1.910
 3434TIP3    H210248   0.015   4.842   1.979
 3435TIP3   OH210249   6.511   4.534   4.928
 3435TIP3    H110250   6.430   4.516   4.880
 3435TIP3    H210251   6.518   4.462   4.991
 3436TIP3   OH210252   8.046   7.479   6.180
 3436TIP3    H110253   8.032   7.483   6.274
 3436TIP3    H210254   7.960   7.457   6.144
 3437TIP3   OH210255   3.774   5.625   2.032
 3437TIP3    H110256   3.758   5.608   2.124
 3437TIP3    H210257   3.690   5.654   1.997
 3438TIP3   OH210258   1.435   6.132   4.673
 3438TIP3    H110259   1.477   6.054   4.637
 3438TIP3    H210260   1.354   6.100   4.712
 3439TIP3   OH210261   1.937   7.357   5.919
 3439TIP3    H110262   1.946   7.408   5.838
 3439TIP3    H210263   1.960   7.418   5.989
 3440TIP3   OH210264   2.403   5.441   5.629
 3440TIP3    H110265   2.470   5.494   5.672
 3440TIP3    H210266   2.323   5.494   5.635
 3441TIP3   OH210267   6.741   4.156   2.777
 3441TIP3    H110268   6.796   4.092   2.821
 3441TIP3    H210269   6.753   4.137   2.684
 3442TIP3   OH210270   6.496   4.208   4.739
 3442TIP3    H110271   6.573   4.177   4.691
 3442TIP3    H210272   6.510   4.179   4.829
 3443TIP3   OH210273   6.710   5.582   6.539
 3443TIP3    H110274   6.771   5.508   6.538
 3443TIP3    H210275   6.679   5.586   6.630
 3444TIP3   OH210276   4.439   4.898   0.326
 3444TIP3    H110277   4.502   4.829   0.349
 3444TIP3    H210278   4.353   4.858   0.338
 3445TIP3   OH210279   2.599   6.596   4.867
 3445TIP3    H110280   2.615   6.611   4.960
 3445TIP3    H210281   2.664   6.651   4.823
 3446TIP3   OH210282   4.430   3.107   0.150
 3446TIP3    H110283   4.359   3.171   0.140
 3446TIP3    H210284   4.403   3.033   0.095
 3447TIP3   OH210285   5.085   6.055   2.768
 3447TIP3    H110286   5.097   5.970   2.810
 3447TIP3    H210287   5.136   6.049   2.687
 3448TIP3   OH210288   1.425   1.601   5.880
 3448TIP3    H110289   1.447   1.512   5.907
 3448TIP3    H210290   1.337   1.594   5.843
 3449TIP3   OH210291   7.459   0.607   0.851
 3449TIP3    H110292   7.467   0.702   0.851
 3449TIP3    H210293   7.539   0.576   0.893
 3450TIP3   OH210294   2.208   2.495   0.540
 3450TIP3    H110295   2.270   2.567   0.544
 3450TIP3    H210296   2.127   2.531   0.577
 3451TIP3   OH210297   3.142   7.593   4.908
 3451TIP3    H110298   3.083   7.668   4.908
 3451TIP3    H210299   3.087   7.519   4.935
 3452TIP3   OH210300   0.913   5.407   4.235
 3452TIP3    H110301   0.916   5.319   4.273
 3452TIP3    H210302   0.914   5.392   4.141
 3453TIP3   OH210303   0.566   1.039   5.480
 3453TIP3    H110304   0.497   1.000   5.534
 3453TIP3    H210305   0.520   1.098   5.421
 3454TIP3   OH210306   1.883   1.736   3.587
 3454TIP3    H110307   1.808   1.729   3.529
 3454TIP3    H210308   1.901   1.830   3.593
 3455TIP3   OH210309   6.378   4.060   0.989
 3455TIP3    H110310   6.346   3.971   1.006
 3455TIP3    H210311   6.305   4.117   1.013
 3456TIP3   OH210312   1.335   1.471   2.095
 3456TIP3    H110313   1.412   1.442   2.046
 3456TIP3    H210314   1.370   1.517   2.171
 3457TIP3   OH210315   3.935   0.529   5.120
 3457TIP3    H110316   3.991   0.533   5.198
 3457TIP3    H210317   3.849   0.559   5.151
 3458TIP3   OH210318   4.948   3.455   3.269
 3458TIP3    H110319   4.891   3.508   3.214
 3458TIP3    H210320   5.027   3.441   3.217
 3459TIP3   OH210321   5.941   5.838   4.790
 3459TIP3    H110322   5.938   5.902   4.718
 3459TIP3    H210323   5.908   5.758   4.751
 3460TIP3   OH210324   4.251   7.762   3.123
 3460TIP3    H110325   4.344   7.766   3.146
 3460TIP3    H210326   4.237   7.840   3.069
 3461TIP3   OH210327   6.381   7.604   3.386
 3461TIP3    H110328   6.322   7.678   3.397
 3461TIP3    H210329   6.343   7.534   3.440
 3462TIP3   OH210330   2.571   0.770   3.006
 3462TIP3    H110331   2.667   0.766   3.002
 3462TIP3    H210332   2.552   0.801   3.094
 3463TIP3   OH210333   4.508   2.241   6.463
 3463TIP3    H110334   4.433   2.206   6.511
 3463TIP3    H210335   4.533   2.319   6.513
 3464TIP3   OH210336   1.436   0.346   0.095
 3464TIP3    H110337   1.423   0.411   0.026
 3464TIP3    H210338   1.349   0.336   0.134
 3465TIP3   OH210339   0.613   5.069   4.640
 3465TIP3    H110340   0.603   5.014   4.562
 3465TIP3    H210341   0.610   5.007   4.713
 3466TIP3   OH210342   0.559   3.104   4.025
 3466TIP3    H110343   0.492   3.157   3.983
 3466TIP3    H210344   0.614   3.073   3.953
 3467TIP3   OH210345   1.624   5.807   6.273
 3467TIP3    H110346   1.671   5.877   6.228
 3467TIP3    H210347   1.680   5.730   6.261
 3468TIP3   OH210348   4.208   6.382   3.895
 3468TIP3    H110349   4.119   6.353   3.911
 3468TIP3    H210350   4.250   6.307   3.853
 3469TIP3   OH210351   4.963   0.317   3.207
 3469TIP3    H110352   4.996   0.398   3.167
 3469TIP3    H210353   4.873   0.337   3.233
 3470TIP3   OH210354   4.760   6.741   6.292
 3470TIP3    H110355   4.818   6.681   6.339
 3470TIP3    H210356   4.796   6.828   6.310
 3471TIP3   OH210357   0.089   3.384   4.562
 3471TIP3    H110358   0.181   3.411   4.552
 3471TIP3    H210359   0.052   3.448   4.622
 3472TIP3   OH210360   2.796   7.769   1.721
 3472TIP3    H110361   2.824   7.860   1.709
 3472TIP3    H210362   2.799   7.731   1.634
 3473TIP3   OH210363   1.255   5.528   5.959
 3473TIP3    H110364   1.208   5.592   5.906
 3473TIP3    H210365   1.278   5.459   5.897
 3474TIP3   OH210366   1.564   5.710   1.465
 3474TIP3    H110367   1.489   5.669   1.421
 3474TIP3    H210368   1.599   5.771   1.400
 3475TIP3   OH210369   2.508   1.485   2.684
 3475TIP3    H110370   2.534   1.507   2.594
 3475TIP3    H210371   2.582   1.435   2.718
 3476TIP3   OH210372   8.081   2.180   6.588
 3476TIP3    H110373   8.016   2.249   6.575
 3476TIP3    H210374   8.042   2.122   6.654
 3477TIP3   OH210375   4.430   3.788   0.740
 3477TIP3    H110376   4.354   3.770   0.796
 3477TIP3    H210377   4.502   3.798   0.802
 3478TIP3   OH210378   0.339   5.882   4.525
 3478TIP3    H110379   0.353   5.829   4.603
 3478TIP3    H210380   0.309   5.820   4.459
 3479TIP3   OH210381   3.098   4.216   2.924
 3479TIP3    H110382   3.094   4.271   3.003
 3479TIP3    H210383   3.190   4.194   2.915
 3480TIP3   OH210384   2.979   5.068   3.985
 3480TIP3    H110385   3.068   5.094   4.012
 3480TIP3    H210386   2.969   4.979   4.017
 3481TIP3   OH210387   6.917   0.189   0.754
 3481TIP3    H110388   6.852   0.189   0.824
 3481TIP3    H210389   6.896   0.267   0.702
 3482TIP3   OH210390   0.294   2.766   3.275
 3482TIP3    H110391   0.258   2.715   3.347
 3482TIP3    H210392   0.239   2.844   3.271
 3483TIP3   OH210393   5.801   5.675   1.917
 3483TIP3    H110394   5.713   5.706   1.937
 3483TIP3    H210395   5.859   5.737   1.962
 3484TIP3   OH210396   4.943   6.331   1.103
 3484TIP3    H110397   4.889   6.273   1.049
 3484TIP3    H210398   4.913   6.315   1.193
 3485TIP3   OH210399   7.628   2.735   2.171
 3485TIP3    H110400   7.576   2.716   2.249
 3485TIP3    H210401   7.699   2.671   2.173
 3486TIP3   OH210402   6.357   2.273   4.431
 3486TIP3    H110403   6.450   2.254   4.434
 3486TIP3    H210404   6.318   2.195   4.392
 3487TIP3   OH210405   4.892   1.033   6.534
 3487TIP3    H110406   4.806   1.058   6.568
 3487TIP3    H210407   4.874   0.993   6.449
 3488TIP3   OH210408   6.255   0.137   1.244
 3488TIP3    H110409   6.284   0.129   1.335
 3488TIP3    H210410   6.334   0.162   1.196
 3489TIP3   OH210411   2.036   6.900   3.769
 3489TIP3    H110412   2.090   6.895   3.848
 3489TIP3    H210413   2.085   6.852   3.703
 3490TIP3   OH210414   7.985   4.048   2.048
 3490TIP3    H110415   8.060   4.072   2.102
 3490TIP3    H210416   8.019   4.045   1.958
 3491TIP3   OH210417   7.478   4.169   3.380
 3491TIP3    H110418   7.461   4.080   3.413
 3491TIP3    H210419   7.549   4.202   3.436
 3492TIP3   OH210420   6.220   6.212   4.384
 3492TIP3    H110421   6.183   6.182   4.301
 3492TIP3    H210422   6.189   6.302   4.393
 3493TIP3   OH210423   5.323   1.439   5.126
 3493TIP3    H110424   5.362   1.392   5.053
 3493TIP3    H210425   5.384   1.511   5.144
 3494TIP3   OH210426   4.619   3.781   1.775
 3494TIP3    H110427   4.534   3.764   1.734
 3494TIP3    H210428   4.683   3.738   1.718
 3495TIP3   OH210429   8.226   4.428   4.027
 3495TIP3    H110430   8.195   4.513   3.997
 3495TIP3    H210431   8.287   4.399   3.959
 3496TIP3   OH210432   7.809   0.144   1.436
 3496TIP3    H110433   7.853   0.177   1.357
 3496TIP3    H210434   7.765   0.221   1.472
 3497TIP3   OH210435   6.676   4.671   6.592
 3497TIP3    H110436   6.724   4.723   6.528
 3497TIP3    H210437   6.724   4.588   6.596
 3498TIP3   OH210438   2.850   2.925   0.956
 3498TIP3    H110439   2.917   2.938   0.888
 3498TIP3    H210440   2.839   2.830   0.960
 3499TIP3   OH210441   6.062   2.422   1.380
 3499TIP3    H110442   6.154   2.410   1.404
 3499TIP3    H210443   6.032   2.495   1.434
 3500TIP3   OH210444   1.248   6.531   1.275
 3500TIP3    H110445   1.238   6.609   1.329
 3500TIP3    H210446   1.293   6.467   1.331
 3501TIP3   OH210447   2.568   6.057   2.091
 3501TIP3    H110448   2.623   6.020   2.160
 3501TIP3    H210449   2.630   6.085   2.023
 3502TIP3   OH210450   4.554   3.784   6.010
 3502TIP3    H110451   4.473   3.790   6.061
 3502TIP3    H210452   4.544   3.848   5.940
 3503TIP3   OH210453   3.993   2.679   3.177
 3503TIP3    H110454   3.997   2.591   3.215
 3503TIP3    H210455   3.954   2.733   3.246
 3504TIP3   OH210456   5.149   5.701   0.951
 3504TIP3    H110457   5.207   5.748   1.010
 3504TIP3    H210458   5.145   5.756   0.872
 3505TIP3   OH210459   6.473   4.919   2.623
 3505TIP3    H110460   6.453   4.850   2.686
 3505TIP3    H210461   6.565   4.905   2.601
 3506TIP3   OH210462   3.100   3.992   4.844
 3506TIP3    H110463   3.066   3.966   4.930
 3506TIP3    H210464   3.133   3.911   4.806
 3507TIP3   OH210465   3.879   0.669   6.172
 3507TIP3    H110466   3.862   0.630   6.258
 3507TIP3    H210467   3.855   0.761   6.182
 3508TIP3   OH210468   2.916   3.199   4.888
 3508TIP3    H110469   2.879   3.284   4.864
 3508TIP3    H210470   2.880   3.180   4.974
 3509TIP3   OH210471   7.776   0.003   4.896
 3509TIP3    H110472   7.747  -0.082   4.863
 3509TIP3    H210473   7.697   0.041   4.934
 3510TIP3   OH210474   7.824   6.992   6.517
 3510TIP3    H110475   7.871   7.075   6.513
 3510TIP3    H210476   7.864   6.938   6.449
 3511TIP3   OH210477   3.856   3.618   6.554
 3511TIP3    H110478   3.932   3.570   6.588
 3511TIP3    H210479   3.804   3.637   6.632
 3512TIP3   OH210480   1.747   6.704   4.816
 3512TIP3    H110481   1.708   6.787   4.787
 3512TIP3    H210482   1.731   6.643   4.744
 3513TIP3   OH210483   1.467   2.037   4.402
 3513TIP3    H110484   1.560   2.044   4.382
 3513TIP3    H210485   1.429   2.118   4.368
 3514TIP3   OH210486   6.052   6.512   3.985
 3514TIP3    H110487   6.083   6.424   3.962
 3514TIP3    H210488   6.101   6.534   4.065
 3515TIP3   OH210489   4.183   0.741   0.548
 3515TIP3    H110490   4.188   0.771   0.639
 3515TIP3    H210491   4.194   0.646   0.553
 3516TIP3   OH210492   3.798   2.790   1.433
 3516TIP3    H110493   3.783   2.884   1.435
 3516TIP3    H210494   3.798   2.763   1.525
 3517TIP3   OH210495   0.705   5.791   0.829
 3517TIP3    H110496   0.635   5.833   0.780
 3517TIP3    H210497   0.785   5.812   0.781
 3518TIP3   OH210498   2.704   1.327   3.663
 3518TIP3    H110499   2.798   1.320   3.678
 3518TIP3    H210500   2.689   1.283   3.580
 3519TIP3   OH210501   5.536   4.153   2.419
 3519TIP3    H110502   5.458   4.125   2.468
 3519TIP3    H210503   5.526   4.113   2.333
 3520TIP3   OH210504   7.871   2.406   3.603
 3520TIP3    H110505   7.925   2.446   3.672
 3520TIP3    H210506   7.928   2.403   3.526
 3521TIP3   OH210507   3.675   0.450   5.211
 3521TIP3    H110508   3.594   0.498   5.196
 3521TIP3    H210509   3.698   0.415   5.125
 3522TIP3   OH210510   7.462   1.185   6.459
 3522TIP3    H110511   7.367   1.199   6.467
 3522TIP3    H210512   7.490   1.248   6.393
 3523TIP3   OH210513   3.553   2.126   5.759
 3523TIP3    H110514   3.533   2.211   5.721
 3523TIP3    H210515   3.638   2.137   5.802
 3524TIP3   OH210516   7.674   4.691   2.692
 3524TIP3    H110517   7.648   4.599   2.686
 3524TIP3    H210518   7.617   4.729   2.759
 3525TIP3   OH210519   3.415   7.101   6.713
 3525TIP3    H110520   3.438   7.090   6.806
 3525TIP3    H210521   3.500   7.102   6.668
 3526TIP3   OH210522   0.351   6.361   4.325
 3526TIP3    H110523   0.285   6.351   4.393
 3526TIP3    H210524   0.302   6.381   4.245
 3527TIP3   OH210525   7.296   3.813   5.681
 3527TIP3    H110526   7.323   3.837   5.770
 3527TIP3    H210527   7.288   3.718   5.683
 3528TIP3   OH210528   5.039   1.598   3.336
 3528TIP3    H110529   5.033   1.577   3.243
 3528TIP3    H210530   4.991   1.528   3.380
 3529TIP3   OH210531   6.189   4.573   3.937
 3529TIP3    H110532   6.184   4.609   3.848
 3529TIP3    H210533   6.128   4.627   3.987
 3530TIP3   OH210534   5.231   5.541   4.504
 3530TIP3    H110535   5.201   5.499   4.585
 3530TIP3    H210536   5.212   5.634   4.517
 3531TIP3   OH210537   3.243   3.029   2.224
 3531TIP3    H110538   3.298   3.006   2.148
 3531TIP3    H210539   3.257   2.957   2.286
 3532TIP3   OH210540   0.334   4.936   6.324
 3532TIP3    H110541   0.307   5.023   6.295
 3532TIP3    H210542   0.393   4.904   6.256
 3533TIP3   OH210543   4.668   3.018   4.172
 3533TIP3    H110544   4.575   2.995   4.180
 3533TIP3    H210545   4.705   2.947   4.120
 3534TIP3   OH210546   2.227   4.033   0.268
 3534TIP3    H110547   2.205   4.117   0.308
 3534TIP3    H210548   2.319   4.041   0.244
 3535TIP3   OH210549   7.277   3.289   4.683
 3535TIP3    H110550   7.332   3.364   4.660
 3535TIP3    H210551   7.305   3.264   4.771
 3536TIP3   OH210552   3.938   1.012   3.161
 3536TIP3    H110553   4.003   0.941   3.163
 3536TIP3    H210554   3.935   1.039   3.070
 3537TIP3   OH210555   2.900   1.640   3.479
 3537TIP3    H110556   2.921   1.720   3.430
 3537TIP3    H210557   2.806   1.628   3.468
 3538TIP3   OH210558   0.336   3.976   0.895
 3538TIP3    H110559   0.264   3.926   0.858
 3538TIP3    H210560   0.294   4.047   0.944
 3539TIP3   OH210561   6.439   3.877   3.273
 3539TIP3    H110562   6.428   3.971   3.282
 3539TIP3    H210563   6.497   3.853   3.346
 3540TIP3   OH210564   3.557   4.859   2.501
 3540TIP3    H110565   3.547   4.937   2.446
 3540TIP3    H210566   3.647   4.863   2.532
 3541TIP3   OH210567   2.022   0.476   5.049
 3541TIP3    H110568   1.983   0.501   5.132
 3541TIP3    H210569   1.957   0.419   5.008
 3542TIP3   OH210570   2.060   6.221   1.318
 3542TIP3    H110571   2.125   6.157   1.289
 3542TIP3    H210572   1.989   6.168   1.355
 3543TIP3   OH210573   4.461   1.352   4.888
 3543TIP3    H110574   4.414   1.319   4.964
 3543TIP3    H210575   4.424   1.304   4.814
 3544TIP3   OH210576   7.512   4.236   1.064
 3544TIP3    H110577   7.552   4.254   0.979
 3544TIP3    H210578   7.425   4.276   1.060
 3545TIP3   OH210579   7.583   3.478   5.292
 3545TIP3    H110580   7.678   3.482   5.299
 3545TIP3    H210581   7.558   3.563   5.255
 3546TIP3   OH210582   5.939   0.326   0.341
 3546TIP3    H110583   5.943   0.264   0.268
 3546TIP3    H210584   5.847   0.355   0.342
 3547TIP3   OH210585   3.210   3.408   3.017
 3547TIP3    H110586   3.282   3.358   3.056
 3547TIP3    H210587   3.195   3.481   3.077
 3548TIP3   OH210588   6.945   0.211   4.015
 3548TIP3    H110589   6.912   0.299   3.995
 3548TIP3    H210590   6.903   0.188   4.098
 3549TIP3   OH210591   3.992   3.130   4.365
 3549TIP3    H110592   3.964   3.142   4.456
 3549TIP3    H210593   3.926   3.073   4.326
 3550TIP3   OH210594   3.969   7.649   6.172
 3550TIP3    H110595   3.988   7.564   6.132
 3550TIP3    H210596   4.020   7.649   6.254
 3551TIP3   OH210597   3.358   5.058   2.247
 3551TIP3    H110598   3.351   5.072   2.342
 3551TIP3    H210599   3.449   5.082   2.227
 3552TIP3   OH210600   8.202   6.079   0.966
 3552TIP3    H110601   8.195   6.010   1.032
 3552TIP3    H210602   8.181   6.036   0.883
 3553TIP3   OH210603   6.855   5.714   0.403
 3553TIP3    H110604   6.835   5.686   0.314
 3553TIP3    H210605   6.950   5.707   0.409
 3554TIP3   OH210606   4.594   3.291   0.502
 3554TIP3    H110607   4.587   3.235   0.424
 3554TIP3    H210608   4.579   3.231   0.575
 3555TIP3   OH210609   3.975   3.730   1.114
 3555TIP3    H110610   3.944   3.819   1.095
 3555TIP3    H210611   3.901   3.689   1.159
 3556TIP3   OH210612   5.329   7.125   1.800
 3556TIP3    H110613   5.348   7.147   1.892
 3556TIP3    H210614   5.248   7.074   1.805
 3557TIP3   OH210615   1.696   6.597   5.932
 3557TIP3    H110616   1.694   6.600   6.028
 3557TIP3    H210617   1.644   6.520   5.909
 3558TIP3   OH210618   1.377   6.653   5.982
 3558TIP3    H110619   1.412   6.583   5.926
 3558TIP3    H210620   1.360   6.725   5.922
 3559TIP3   OH210621   4.103   5.983   5.856
 3559TIP3    H110622   4.180   6.009   5.804
 3559TIP3    H210623   4.105   6.041   5.932
 3560TIP3   OH210624   2.351   0.867   3.887
 3560TIP3    H110625   2.440   0.842   3.861
 3560TIP3    H210626   2.309   0.785   3.912
 3561TIP3   OH210627   1.005   1.641   4.626
 3561TIP3    H110628   1.016   1.547   4.633
 3561TIP3    H210629   1.094   1.676   4.639
 3562TIP3   OH210630   0.750   4.051   5.364
 3562TIP3    H110631   0.795   4.074   5.446
 3562TIP3    H210632   0.753   3.956   5.361
 3563TIP3   OH210633   3.115   4.041   3.213
 3563TIP3    H110634   3.020   4.049   3.206
 3563TIP3    H210635   3.129   4.000   3.299
 3564TIP3   OH210636   3.029   4.963   4.981
 3564TIP3    H110637   2.989   4.924   5.059
 3564TIP3    H210638   2.973   5.036   4.959
 3565TIP3   OH210639   3.930   6.490   3.867
 3565TIP3    H110640   3.882   6.410   3.845
 3565TIP3    H210641   3.933   6.490   3.963
 3566TIP3   OH210642   0.429   2.516   1.670
 3566TIP3    H110643   0.451   2.604   1.699
 3566TIP3    H210644   0.494   2.460   1.713
 3567TIP3   OH210645   7.709   2.410   6.280
 3567TIP3    H110646   7.631   2.422   6.334
 3567TIP3    H210647   7.705   2.480   6.215
 3568TIP3   OH210648   3.248   1.655   3.047
 3568TIP3    H110649   3.186   1.723   3.073
 3568TIP3    H210650   3.295   1.691   2.973
 3569TIP3   OH210651   3.974   6.687   3.576
 3569TIP3    H110652   4.055   6.739   3.575
 3569TIP3    H210653   3.906   6.748   3.604
 3570TIP3   OH210654   0.128   4.085   6.627
 3570TIP3    H110655   0.067   4.024   6.670
 3570TIP3    H210656   0.071   4.150   6.585
 3571TIP3   OH210657   3.728   0.653   1.963
 3571TIP3    H110658   3.726   0.745   1.937
 3571TIP3    H210659   3.819   0.638   1.990
 3572TIP3   OH210660   7.073   6.645   1.257
 3572TIP3    H110661   7.048   6.655   1.349
 3572TIP3    H210662   6.989   6.637   1.211
 3573TIP3   OH210663   2.444   6.604   6.401
 3573TIP3    H110664   2.427   6.532   6.341
 3573TIP3    H210665   2.540   6.611   6.403
 3574TIP3   OH210666   1.841   3.673   2.194
 3574TIP3    H110667   1.848   3.757   2.150
 3574TIP3    H210668   1.751   3.645   2.177
 3575TIP3   OH210669   1.716   4.838   5.231
 3575TIP3    H110670   1.697   4.883   5.314
 3575TIP3    H210671   1.796   4.879   5.199
 3576TIP3   OH210672   2.574   5.357   5.409
 3576TIP3    H110673   2.531   5.406   5.479
 3576TIP3    H210674   2.657   5.403   5.396
 3577TIP3   OH210675   6.468   1.656   6.146
 3577TIP3    H110676   6.408   1.722   6.179
 3577TIP3    H210677   6.553   1.701   6.142
 3578TIP3   OH210678   6.284   0.122   2.105
 3578TIP3    H110679   6.341   0.076   2.167
 3578TIP3    H210680   6.263   0.056   2.038
 3579TIP3   OH210681   2.355   6.929   0.762
 3579TIP3    H110682   2.277   6.977   0.791
 3579TIP3    H210683   2.387   6.885   0.841
 3580TIP3   OH210684   7.219   4.284   6.639
 3580TIP3    H110685   7.254   4.195   6.632
 3580TIP3    H210686   7.164   4.294   6.561
 3581TIP3   OH210687   5.061   3.839   0.224
 3581TIP3    H110688   5.087   3.757   0.181
 3581TIP3    H210689   5.134   3.860   0.282
 3582TIP3   OH210690   8.047   2.229   5.822
 3582TIP3    H110691   8.066   2.168   5.893
 3582TIP3    H210692   8.106   2.303   5.838
 3583TIP3   OH210693   8.062   2.915   2.166
 3583TIP3    H110694   8.056   2.828   2.125
 3583TIP3    H210695   8.025   2.903   2.253
 3584TIP3   OH210696   7.336   2.832   1.789
 3584TIP3    H110697   7.408   2.866   1.842
 3584TIP3    H210698   7.257   2.850   1.840
 3585TIP3   OH210699   3.947   3.563   2.931
 3585TIP3    H110700   3.893   3.553   3.010
 3585TIP3    H210701   3.915   3.644   2.891
 3586TIP3   OH210702   5.971   0.050   0.647
 3586TIP3    H110703   5.937  -0.038   0.628
 3586TIP3    H210704   5.927   0.075   0.728
 3587TIP3   OH210705   1.613   3.595   4.360
 3587TIP3    H110706   1.631   3.686   4.339
 3587TIP3    H210707   1.697   3.561   4.392
 3588TIP3   OH210708   5.611   5.131   4.206
 3588TIP3    H110709   5.537   5.094   4.255
 3588TIP3    H210710   5.570   5.185   4.138
 3589TIP3   OH210711   7.760   5.887   1.317
 3589TIP3    H110712   7.755   5.952   1.387
 3589TIP3    H210713   7.699   5.818   1.345
 3590TIP3   OH210714   7.834   6.372   1.592
 3590TIP3    H110715   7.802   6.331   1.673
 3590TIP3    H210716   7.929   6.364   1.598
 3591TIP3   OH210717   3.097   2.065   6.512
 3591TIP3    H110718   3.057   2.094   6.594
 3591TIP3    H210719   3.080   1.970   6.510
 3592TIP3   OH210720   5.094   6.090   3.491
 3592TIP3    H110721   5.169   6.055   3.444
 3592TIP3    H210722   5.116   6.082   3.583
 3593TIP3   OH210723   1.272   3.313   4.833
 3593TIP3    H110724   1.226   3.347   4.756
 3593TIP3    H210725   1.339   3.255   4.797
 3594TIP3   OH210726   4.173   6.182   4.291
 3594TIP3    H110727   4.099   6.203   4.235
 3594TIP3    H210728   4.234   6.134   4.234
 3595TIP3   OH210729   3.088   6.868   4.176
 3595TIP3    H110730   3.008   6.912   4.146
 3595TIP3    H210731   3.108   6.804   4.108
 3596TIP3   OH210732   4.906   0.317   4.917
 3596TIP3    H110733   4.814   0.304   4.893
 3596TIP3    H210734   4.951   0.240   4.882
 3597TIP3   OH210735   0.331   2.376   0.817
 3597TIP3    H110736   0.418   2.399   0.853
 3597TIP3    H210737   0.336   2.282   0.802
 3598TIP3   OH210738   4.933   0.159   2.578
 3598TIP3    H110739   4.881   0.089   2.537
 3598TIP3    H210740   4.925   0.142   2.672
 3599TIP3   OH210741   0.502   2.122   1.620
 3599TIP3    H110742   0.581   2.175   1.606
 3599TIP3    H210743   0.521   2.072   1.699
 3600TIP3   OH210744   5.094   1.859   5.212
 3600TIP3    H110745   5.174   1.851   5.160
 3600TIP3    H210746   5.042   1.924   5.166
 3601TIP3   OH210747   4.519   4.977   1.754
 3601TIP3    H110748   4.553   4.907   1.809
 3601TIP3    H210749   4.561   5.056   1.786
 3602TIP3   OH210750   3.964   5.150   0.694
 3602TIP3    H110751   3.948   5.240   0.666
 3602TIP3    H210752   3.924   5.096   0.626
 3603TIP3   OH210753   6.746   0.136   5.660
 3603TIP3    H110754   6.766   0.065   5.722
 3603TIP3    H210755   6.709   0.092   5.584
 3604TIP3   OH210756   3.070   7.272   3.995
 3604TIP3    H110757   3.029   7.195   4.034
 3604TIP3    H210758   3.034   7.346   4.043
 3605TIP3   OH210759   4.172   2.220   0.625
 3605TIP3    H110760   4.133   2.287   0.568
 3605TIP3    H210761   4.099   2.162   0.647
 3606TIP3   OH210762   7.050   3.393   4.883
 3606TIP3    H110763   7.133   3.361   4.921
 3606TIP3    H210764   7.020   3.321   4.828
 3607TIP3   OH210765   8.191   2.463   4.758
 3607TIP3    H110766   8.270   2.505   4.791
 3607TIP3    H210767   8.218   2.374   4.735
 3608TIP3   OH210768   1.713   6.113   5.291
 3608TIP3    H110769   1.796   6.072   5.268
 3608TIP3    H210770   1.734   6.167   5.368
 3609TIP3   OH210771   3.920   6.252   0.409
 3609TIP3    H110772   3.827   6.264   0.426
 3609TIP3    H210773   3.949   6.190   0.476
 3610TIP3   OH210774   5.635   7.138   1.421
 3610TIP3    H110775   5.712   7.090   1.451
 3610TIP3    H210776   5.564   7.107   1.477
 3611TIP3   OH210777  -0.007   4.636   1.976
 3611TIP3    H110778   0.088   4.638   1.965
 3611TIP3    H210779  -0.027   4.545   2.001
 3612TIP3   OH210780   1.868   0.546   0.418
 3612TIP3    H110781   1.785   0.560   0.371
 3612TIP3    H210782   1.901   0.463   0.383
 3613TIP3   OH210783   1.402   6.559   4.865
 3613TIP3    H110784   1.329   6.501   4.841
 3613TIP3    H210785   1.480   6.507   4.846
 3614TIP3   OH210786   6.428   6.510   2.856
 3614TIP3    H110787   6.421   6.605   2.867
 3614TIP3    H210788   6.473   6.499   2.772
 3615TIP3   OH210789   5.394   2.504   2.341
 3615TIP3    H110790   5.348   2.457   2.272
 3615TIP3    H210791   5.378   2.452   2.420
 3616TIP3   OH210792   6.901   0.092   5.356
 3616TIP3    H110793   6.888   0.153   5.429
 3616TIP3    H210794   6.935   0.012   5.397
 3617TIP3   OH210795   4.186   7.100   6.581
 3617TIP3    H110796   4.236   7.019   6.583
 3617TIP3    H210797   4.127   7.094   6.657
 3618TIP3   OH210798   5.955   3.589   3.764
 3618TIP3    H110799   6.051   3.582   3.772
 3618TIP3    H210800   5.933   3.527   3.694
 3619TIP3   OH210801   6.436   1.905   4.685
 3619TIP3    H110802   6.477   1.951   4.759
 3619TIP3    H210803   6.494   1.831   4.668
 3620TIP3   OH210804   5.020   6.077   0.588
 3620TIP3    H110805   5.100   6.111   0.627
 3620TIP3    H210806   4.993   6.144   0.525
 3621TIP3   OH210807   0.893   3.621   4.891
 3621TIP3    H110808   0.919   3.602   4.801
 3621TIP3    H210809   0.898   3.537   4.936
 3622TIP3   OH210810   4.050   0.125   5.150
 3622TIP3    H110811   3.977   0.092   5.202
 3622TIP3    H210812   4.062   0.059   5.081
 3623TIP3   OH210813   0.107   2.268   6.079
 3623TIP3    H110814   0.085   2.191   6.132
 3623TIP3    H210815   0.125   2.233   5.992
 3624TIP3   OH210816   5.619   3.145   6.340
 3624TIP3    H110817   5.694   3.203   6.328
 3624TIP3    H210818   5.640   3.096   6.420
 3625TIP3   OH210819   8.159   5.285   3.406
 3625TIP3    H110820   8.108   5.205   3.394
 3625TIP3    H210821   8.095   5.351   3.431
 3626TIP3   OH210822   1.469   7.455   4.338
 3626TIP3    H110823   1.483   7.377   4.392
 3626TIP3    H210824   1.549   7.463   4.287
 3627TIP3   OH210825   2.141   7.411   0.767
 3627TIP3    H110826   2.110   7.471   0.835
 3627TIP3    H210827   2.074   7.417   0.698
 3628TIP3   OH210828   3.144   7.395   1.567
 3628TIP3    H110829   3.134   7.331   1.638
 3628TIP3    H210830   3.098   7.356   1.493
 3629TIP3   OH210831   4.771   7.416   5.423
 3629TIP3    H110832   4.679   7.434   5.401
 3629TIP3    H210833   4.800   7.494   5.469
 3630TIP3   OH210834   6.976   5.864   6.661
 3630TIP3    H110835   6.980   5.795   6.594
 3630TIP3    H210836   7.014   5.824   6.739
 3631TIP3   OH210837   4.025   4.014   4.627
 3631TIP3    H110838   4.118   4.026   4.643
 3631TIP3    H210839   4.018   4.000   4.532
 3632TIP3   OH210840   2.605   2.931   6.289
 3632TIP3    H110841   2.652   2.853   6.258
 3632TIP3    H210842   2.608   2.992   6.216
 3633TIP3   OH210843   3.585   5.355   5.953
 3633TIP3    H110844   3.581   5.259   5.949
 3633TIP3    H210845   3.572   5.383   5.863
 3634TIP3   OH210846   3.625   5.372   0.733
 3634TIP3    H110847   3.634   5.457   0.689
 3634TIP3    H210848   3.563   5.389   0.804
 3635TIP3   OH210849   6.364   2.917   0.613
 3635TIP3    H110850   6.278   2.938   0.575
 3635TIP3    H210851   6.423   2.983   0.576
 3636TIP3   OH210852   6.493   7.166   3.509
 3636TIP3    H110853   6.486   7.235   3.443
 3636TIP3    H210854   6.526   7.211   3.587
 3637TIP3   OH210855   0.634   6.671   0.161
 3637TIP3    H110856   0.552   6.718   0.177
 3637TIP3    H210857   0.612   6.606   0.093
 3638TIP3   OH210858   6.542   1.870   3.051
 3638TIP3    H110859   6.475   1.893   2.986
 3638TIP3    H210860   6.524   1.928   3.125
 3639TIP3   OH210861   6.998   1.733   3.595
 3639TIP3    H110862   7.089   1.701   3.601
 3639TIP3    H210863   7.006   1.816   3.549
 3640TIP3   OH210864   5.743   2.746   3.715
 3640TIP3    H110865   5.659   2.728   3.672
 3640TIP3    H210866   5.723   2.814   3.779
 3641TIP3   OH210867   7.021   7.079   5.256
 3641TIP3    H110868   7.040   7.135   5.181
 3641TIP3    H210869   7.002   6.993   5.218
 3642TIP3   OH210870   1.979   1.196   1.133
 3642TIP3    H110871   1.885   1.212   1.140
 3642TIP3    H210872   2.019   1.252   1.200
 3643TIP3   OH210873   3.813   1.073   4.935
 3643TIP3    H110874   3.718   1.064   4.943
 3643TIP3    H210875   3.829   1.167   4.940
 3644TIP3   OH210876   3.869   2.776   4.881
 3644TIP3    H110877   3.896   2.816   4.964
 3644TIP3    H210878   3.869   2.682   4.897
 3645TIP3   OH210879   7.185   4.102   4.157
 3645TIP3    H110880   7.164   4.082   4.249
 3645TIP3    H210881   7.103   4.089   4.111
 3646TIP3   OH210882   5.585   7.346   3.379
 3646TIP3    H110883   5.667   7.366   3.334
 3646TIP3    H210884   5.560   7.429   3.420
 3647TIP3   OH210885   5.565   1.190   5.292
 3647TIP3    H110886   5.640   1.131   5.283
 3647TIP3    H210887   5.497   1.152   5.236
 3648TIP3   OH210888   6.910   6.209   3.542
 3648TIP3    H110889   6.987   6.252   3.506
 3648TIP3    H210890   6.895   6.253   3.626
 3649TIP3   OH210891   0.964   4.857   6.174
 3649TIP3    H110892   0.986   4.945   6.205
 3649TIP3    H210893   1.049   4.818   6.152
 3650TIP3   OH210894   3.386   0.044   1.407
 3650TIP3    H110895   3.391   0.042   1.312
 3650TIP3    H210896   3.422  -0.040   1.435
 3651TIP3   OH210897   5.709   0.962   0.567
 3651TIP3    H110898   5.710   0.919   0.652
 3651TIP3    H210899   5.623   0.942   0.531
 3652TIP3   OH210900   5.135   7.450   5.383
 3652TIP3    H110901   5.125   7.355   5.386
 3652TIP3    H210902   5.225   7.464   5.354
 3653TIP3   OH210903   6.944   2.759   3.005
 3653TIP3    H110904   6.986   2.845   3.002
 3653TIP3    H210905   6.857   2.776   3.042
 3654TIP3   OH210906   2.452   4.039   0.092
 3654TIP3    H110907   2.476   4.081   0.009
 3654TIP3    H210908   2.494   3.954   0.089
 3655TIP3   OH210909   7.776   1.984   1.432
 3655TIP3    H110910   7.773   1.889   1.443
 3655TIP3    H210911   7.684   2.011   1.439
 3656TIP3   OH210912   6.650   0.858   1.034
 3656TIP3    H110913   6.591   0.788   1.007
 3656TIP3    H210914   6.692   0.888   0.953
 3657TIP3   OH210915   5.259   7.693   1.903
 3657TIP3    H110916   5.254   7.767   1.843
 3657TIP3    H210917   5.352   7.683   1.921
 3658TIP3   OH210918   2.410   6.882   6.243
 3658TIP3    H110919   2.364   6.924   6.316
 3658TIP3    H210920   2.390   6.789   6.253
 3659TIP3   OH210921   7.267   2.550   0.854
 3659TIP3    H110922   7.246   2.643   0.867
 3659TIP3    H210923   7.182   2.508   0.839
 3660TIP3   OH210924   1.576   4.887   3.964
 3660TIP3    H110925   1.525   4.819   4.007
 3660TIP3    H210926   1.513   4.932   3.907
 3661TIP3   OH210927   6.270   1.794   6.267
 3661TIP3    H110928   6.192   1.747   6.238
 3661TIP3    H210929   6.297   1.748   6.347
 3662TIP3   OH210930   2.607   7.709   2.026
 3662TIP3    H110931   2.665   7.766   1.974
 3662TIP3    H210932   2.582   7.640   1.965
 3663TIP3   OH210933   2.919   3.536   3.983
 3663TIP3    H110934   2.981   3.544   3.910
 3663TIP3    H210935   2.971   3.556   4.061
 3664TIP3   OH210936   5.937   1.389   4.830
 3664TIP3    H110937   5.937   1.368   4.923
 3664TIP3    H210938   5.854   1.353   4.797
 3665TIP3   OH210939   0.318   0.979   4.386
 3665TIP3    H110940   0.337   1.019   4.470
 3665TIP3    H210941   0.261   0.905   4.408
 3666TIP3   OH210942   2.839   2.650   0.916
 3666TIP3    H110943   2.885   2.567   0.903
 3666TIP3    H210944   2.785   2.636   0.993
 3667TIP3   OH210945   3.217   4.626   4.659
 3667TIP3    H110946   3.140   4.643   4.606
 3667TIP3    H210947   3.194   4.658   4.746
 3668TIP3   OH210948   5.242   7.313   1.022
 3668TIP3    H110949   5.258   7.317   1.116
 3668TIP3    H210950   5.273   7.226   0.996
 3669TIP3   OH210951   2.102   0.230   4.927
 3669TIP3    H110952   2.088   0.319   4.959
 3669TIP3    H210953   2.107   0.177   5.006
 3670TIP3   OH210954   4.007   1.336   3.812
 3670TIP3    H110955   4.086   1.381   3.842
 3670TIP3    H210956   4.021   1.323   3.718
 3671TIP3   OH210957   0.946   6.576   5.413
 3671TIP3    H110958   0.991   6.555   5.331
 3671TIP3    H210959   1.011   6.558   5.481
 3672TIP3   OH210960   4.675   0.900   3.004
 3672TIP3    H110961   4.609   0.960   2.968
 3672TIP3    H210962   4.676   0.918   3.097
 3673TIP3   OH210963   3.673   4.827   5.762
 3673TIP3    H110964   3.598   4.792   5.809
 3673TIP3    H210965   3.646   4.914   5.734
 3674TIP3   OH210966   5.167   5.911   3.922
 3674TIP3    H110967   5.199   5.966   3.851
 3674TIP3    H210968   5.183   5.962   4.001
 3675TIP3   OH210969   4.378   1.166   3.952
 3675TIP3    H110970   4.448   1.134   4.009
 3675TIP3    H210971   4.400   1.131   3.866
 3676TIP3   OH210972   0.995   7.118   4.980
 3676TIP3    H110973   1.052   7.183   4.937
 3676TIP3    H210974   0.989   7.046   4.917
 3677TIP3   OH210975   4.443   2.492   1.590
 3677TIP3    H110976   4.432   2.414   1.645
 3677TIP3    H210977   4.367   2.546   1.610
 3678TIP3   OH210978   3.536   7.355   0.386
 3678TIP3    H110979   3.585   7.274   0.401
 3678TIP3    H210980   3.488   7.369   0.467
 3679TIP3   OH210981   5.013   0.254   1.870
 3679TIP3    H110982   4.990   0.165   1.899
 3679TIP3    H210983   5.002   0.250   1.775
 3680TIP3   OH210984   7.231   3.481   2.480
 3680TIP3    H110985   7.167   3.497   2.410
 3680TIP3    H210986   7.315   3.506   2.441
 3681TIP3   OH210987   7.558   4.505   3.411
 3681TIP3    H110988   7.614   4.446   3.361
 3681TIP3    H210989   7.599   4.591   3.401
 3682TIP3   OH210990   6.482   3.996   6.144
 3682TIP3    H110991   6.396   4.005   6.183
 3682TIP3    H210992   6.507   3.905   6.160
 3683TIP3   OH210993   0.306   7.279   1.535
 3683TIP3    H110994   0.251   7.223   1.481
 3683TIP3    H210995   0.332   7.350   1.477
 3684TIP3   OH210996   3.361   6.674   0.125
 3684TIP3    H110997   3.334   6.583   0.137
 3684TIP3    H210998   3.386   6.680   0.033
 3685TIP3   OH210999   0.859   0.680   1.156
 3685TIP3    H111000   0.876   0.604   1.211
 3685TIP3    H211001   0.940   0.693   1.106
 3686TIP3   OH211002   5.649   0.069   2.129
 3686TIP3    H111003   5.725   0.117   2.164
 3686TIP3    H211004   5.686   0.013   2.060
 3687TIP3   OH211005   2.995   6.148   1.249
 3687TIP3    H111006   3.038   6.196   1.319
 3687TIP3    H211007   2.922   6.103   1.291
 3688TIP3   OH211008   6.073   5.983   2.415
 3688TIP3    H111009   6.141   6.029   2.367
 3688TIP3    H211010   6.001   5.975   2.353
 3689TIP3   OH211011   7.063   5.139   3.918
 3689TIP3    H111012   6.985   5.131   3.972
 3689TIP3    H211013   7.135   5.150   3.981
 3690TIP3   OH211014   5.414   7.493   2.394
 3690TIP3    H111015   5.395   7.406   2.357
 3690TIP3    H211016   5.374   7.491   2.481
 3691TIP3   OH211017   4.362   6.253   6.490
 3691TIP3    H111018   4.377   6.325   6.551
 3691TIP3    H211019   4.448   6.239   6.449
 3692TIP3   OH211020   1.834   0.211   5.848
 3692TIP3    H111021   1.784   0.146   5.897
 3692TIP3    H211022   1.773   0.283   5.834
 3693TIP3   OH211023   5.469   5.792   3.779
 3693TIP3    H111024   5.385   5.827   3.752
 3693TIP3    H211025   5.454   5.698   3.792
 3694TIP3   OH211026   1.460   1.644   2.287
 3694TIP3    H111027   1.543   1.688   2.265
 3694TIP3    H211028   1.472   1.616   2.378
 3695TIP3   OH211029   3.371   5.185   4.376
 3695TIP3    H111030   3.300   5.244   4.403
 3695TIP3    H211031   3.450   5.227   4.410
 3696TIP3   OH211032   5.961   1.484   4.566
 3696TIP3    H111033   5.946   1.475   4.660
 3696TIP3    H211034   5.995   1.399   4.538
 3697TIP3   OH211035   0.751   5.326   0.309
 3697TIP3    H111036   0.657   5.311   0.314
 3697TIP3    H211037   0.760   5.414   0.273
 3698TIP3   OH211038   1.414   5.577   3.012
 3698TIP3    H111039   1.342   5.542   2.959
 3698TIP3    H211040   1.464   5.632   2.951
 3699TIP3   OH211041   6.973   1.289   3.377
 3699TIP3    H111042   7.049   1.329   3.420
 3699TIP3    H211043   6.940   1.358   3.318
 3700TIP3   OH211044   3.288   3.397   5.944
 3700TIP3    H111045   3.291   3.467   6.010
 3700TIP3    H211046   3.197   3.399   5.912
 3701TIP3   OH211047   5.983   3.598   5.792
 3701TIP3    H111048   6.002   3.652   5.716
 3701TIP3    H211049   6.068   3.583   5.834
 3702TIP3   OH211050   2.417   3.322   6.277
 3702TIP3    H111051   2.449   3.395   6.224
 3702TIP3    H211052   2.381   3.363   6.355
 3703TIP3   OH211053   7.461   6.120   5.449
 3703TIP3    H111054   7.415   6.105   5.366
 3703TIP3    H211055   7.544   6.073   5.439
 3704TIP3   OH211056   2.412   7.799   4.963
 3704TIP3    H111057   2.348   7.748   4.913
 3704TIP3    H211058   2.444   7.864   4.900
 3705TIP3   OH211059   3.562   6.040   2.779
 3705TIP3    H111060   3.553   6.052   2.684
 3705TIP3    H211061   3.558   6.128   2.815
 3706TIP3   OH211062   4.783   1.520   3.539
 3706TIP3    H111063   4.797   1.457   3.468
 3706TIP3    H211064   4.733   1.472   3.605
 3707TIP3   OH211065   5.287   6.747   5.905
 3707TIP3    H111066   5.201   6.705   5.902
 3707TIP3    H211067   5.325   6.719   5.987
 3708TIP3   OH211068   7.718   0.056   3.484
 3708TIP3    H111069   7.715  -0.026   3.533
 3708TIP3    H211070   7.808   0.086   3.492
 3709TIP3   OH211071   6.531   5.224   6.548
 3709TIP3    H111072   6.579   5.251   6.469
 3709TIP3    H211073   6.478   5.301   6.570
 3710TIP3   OH211074   7.818   5.744   4.129
 3710TIP3    H111075   7.839   5.651   4.128
 3710TIP3    H211076   7.901   5.789   4.112
 3711TIP3   OH211077   2.417   1.330   1.236
 3711TIP3    H111078   2.494   1.372   1.199
 3711TIP3    H211079   2.451   1.272   1.304
 3712TIP3   OH211080   7.363   0.884   0.423
 3712TIP3    H111081   7.431   0.902   0.488
 3712TIP3    H211082   7.409   0.885   0.339
 3713TIP3   OH211083   5.712   7.313   0.086
 3713TIP3    H111084   5.617   7.323   0.096
 3713TIP3    H211085   5.722   7.229   0.041
 3714TIP3   OH211086   2.492   5.549   4.374
 3714TIP3    H111087   2.396   5.545   4.379
 3714TIP3    H211088   2.518   5.462   4.347
 3715TIP3   OH211089   1.013   3.189   6.774
 3715TIP3    H111090   1.039   3.252   6.708
 3715TIP3    H211091   0.987   3.242   6.849
 3716TIP3   OH211092   3.051   7.076   6.223
 3716TIP3    H111093   3.029   7.154   6.172
 3716TIP3    H211094   3.086   7.111   6.305
 3717TIP3   OH211095   0.964   1.059   5.930
 3717TIP3    H111096   1.032   1.119   5.963
 3717TIP3    H211097   0.887   1.080   5.981
 3718TIP3   OH211098   4.763   6.125   4.706
 3718TIP3    H111099   4.756   6.168   4.791
 3718TIP3    H211100   4.748   6.194   4.642
 3719TIP3   OH211101   5.002   1.841   3.487
 3719TIP3    H111102   5.021   1.758   3.443
 3719TIP3    H211103   5.018   1.823   3.579
 3720TIP3   OH211104   6.091   5.064   2.017
 3720TIP3    H111105   6.061   5.154   2.033
 3720TIP3    H211106   6.054   5.042   1.931
 3721TIP3   OH211107   1.114   1.740   5.564
 3721TIP3    H111108   1.114   1.834   5.546
 3721TIP3    H211109   1.065   1.702   5.491
 3722TIP3   OH211110   0.169   6.726   6.163
 3722TIP3    H111111   0.264   6.721   6.152
 3722TIP3    H211112   0.140   6.787   6.096
 3723TIP3   OH211113   0.267   5.480   0.101
 3723TIP3    H111114   0.360   5.500   0.109
 3723TIP3    H211115   0.261   5.388   0.127
 3724TIP3   OH211116   1.729   3.205   6.467
 3724TIP3    H111117   1.717   3.232   6.376
 3724TIP3    H211118   1.779   3.276   6.507
 3725TIP3   OH211119   7.326   4.990   4.879
 3725TIP3    H111120   7.312   4.989   4.784
 3725TIP3    H211121   7.247   4.951   4.915
 3726TIP3   OH211122   0.619   6.550   3.851
 3726TIP3    H111123   0.566   6.627   3.875
 3726TIP3    H211124   0.596   6.484   3.916
 3727TIP3   OH211125   6.123   5.350   5.871
 3727TIP3    H111126   6.063   5.344   5.945
 3727TIP3    H211127   6.180   5.424   5.891
 3728TIP3   OH211128   4.926   5.049   1.872
 3728TIP3    H111129   4.910   4.955   1.868
 3728TIP3    H211130   5.006   5.062   1.821
 3729TIP3   OH211131   2.771   4.861   0.913
 3729TIP3    H111132   2.706   4.812   0.964
 3729TIP3    H211133   2.826   4.904   0.978
 3730TIP3   OH211134   5.843   5.196   1.445
 3730TIP3    H111135   5.787   5.270   1.423
 3730TIP3    H211136   5.928   5.236   1.464
 3731TIP3   OH211137   7.536   1.885   1.544
 3731TIP3    H111138   7.472   1.896   1.615
 3731TIP3    H211139   7.507   1.945   1.476
 3732TIP3   OH211140   6.689   4.617   1.088
 3732TIP3    H111141   6.597   4.602   1.067
 3732TIP3    H211142   6.707   4.707   1.060
 3733TIP3   OH211143   3.775   6.794   1.289
 3733TIP3    H111144   3.765   6.792   1.194
 3733TIP3    H211145   3.700   6.845   1.321
 3734TIP3   OH211146   1.446   2.843   6.059
 3734TIP3    H111147   1.500   2.918   6.086
 3734TIP3    H211148   1.409   2.869   5.975
 3735TIP3   OH211149   3.095   5.583   6.629
 3735TIP3    H111150   3.062   5.525   6.698
 3735TIP3    H211151   3.190   5.578   6.636
 3736TIP3   OH211152   4.618   7.002   4.363
 3736TIP3    H111153   4.624   6.923   4.418
 3736TIP3    H211154   4.709   7.026   4.345
 3737TIP3   OH211155   3.390   4.174   5.955
 3737TIP3    H111156   3.333   4.209   6.023
 3737TIP3    H211157   3.331   4.129   5.894
 3738TIP3   OH211158   4.044   6.864   1.072
 3738TIP3    H111159   4.065   6.916   1.149
 3738TIP3    H211160   3.949   6.849   1.078
 3739TIP3   OH211161   5.119   2.208   6.044
 3739TIP3    H111162   5.178   2.133   6.035
 3739TIP3    H211163   5.169   2.271   6.097
 3740TIP3   OH211164   1.382   1.145   3.227
 3740TIP3    H111165   1.450   1.186   3.174
 3740TIP3    H211166   1.318   1.214   3.243
 3741TIP3   OH211167   0.206   5.920   3.026
 3741TIP3    H111168   0.293   5.902   2.988
 3741TIP3    H211169   0.157   5.839   3.013
 3742TIP3   OH211170   2.674   5.279   5.011
 3742TIP3    H111171   2.689   5.187   5.033
 3742TIP3    H211172   2.579   5.287   5.004
 3743TIP3   OH211173   0.175   3.646   4.487
 3743TIP3    H111174   0.164   3.625   4.394
 3743TIP3    H211175   0.267   3.627   4.504
 3744TIP3   OH211176   0.609   0.956   4.523
 3744TIP3    H111177   0.548   1.029   4.528
 3744TIP3    H211178   0.555   0.878   4.534
 3745TIP3   OH211179   8.003   5.994   0.203
 3745TIP3    H111180   8.031   5.926   0.142
 3745TIP3    H211181   8.062   5.985   0.278
 3746TIP3   OH211182   6.203   2.975   5.808
 3746TIP3    H111183   6.253   2.914   5.753
 3746TIP3    H211184   6.122   2.929   5.828
 3747TIP3   OH211185   4.528   1.891   3.976
 3747TIP3    H111186   4.434   1.908   3.977
 3747TIP3    H211187   4.545   1.850   3.891
 3748TIP3   OH211188   6.346   0.175   5.294
 3748TIP3    H111189   6.399   0.240   5.248
 3748TIP3    H211190   6.332   0.212   5.381
 3749TIP3   OH211191   2.523   4.469   2.743
 3749TIP3    H111192   2.526   4.562   2.769
 3749TIP3    H211193   2.487   4.470   2.655
 3750TIP3   OH211194   7.771   6.283   5.947
 3750TIP3    H111195   7.716   6.217   5.905
 3750TIP3    H211196   7.777   6.255   6.038
 3751TIP3   OH211197   4.929   4.552   5.295
 3751TIP3    H111198   5.020   4.541   5.325
 3751TIP3    H211199   4.936   4.559   5.200
 3752TIP3   OH211200   4.144   2.170   5.694
 3752TIP3    H111201   4.125   2.076   5.690
 3752TIP3    H211202   4.224   2.180   5.642
 3753TIP3   OH211203   8.131   6.991   2.479
 3753TIP3    H111204   8.061   6.926   2.479
 3753TIP3    H211205   8.204   6.949   2.524
 3754TIP3   OH211206   5.377   1.237   0.187
 3754TIP3    H111207   5.451   1.177   0.183
 3754TIP3    H211208   5.342   1.238   0.098
 3755TIP3   OH211209   6.609   7.385   5.198
 3755TIP3    H111210   6.693   7.348   5.226
 3755TIP3    H211211   6.561   7.311   5.161
 3756TIP3   OH211212   3.363   4.387   2.517
 3756TIP3    H111213   3.378   4.326   2.445
 3756TIP3    H211214   3.434   4.451   2.510
 3757TIP3   OH211215   3.414   5.268   0.970
 3757TIP3    H111216   3.382   5.288   0.882
 3757TIP3    H211217   3.373   5.334   1.026
 3758TIP3   OH211218   2.444   4.775   0.534
 3758TIP3    H111219   2.468   4.685   0.557
 3758TIP3    H211220   2.481   4.828   0.605
 3759TIP3   OH211221   2.078   1.862   3.353
 3759TIP3    H111222   2.134   1.881   3.429
 3759TIP3    H211223   2.052   1.948   3.320
 3760TIP3   OH211224   5.485   0.416   3.495
 3760TIP3    H111225   5.435   0.369   3.429
 3760TIP3    H211226   5.568   0.368   3.501
 3761TIP3   OH211227   3.151   3.456   2.384
 3761TIP3    H111228   3.124   3.544   2.356
 3761TIP3    H211229   3.124   3.399   2.312
 3762TIP3   OH211230   5.364   6.646   3.807
 3762TIP3    H111231   5.361   6.585   3.733
 3762TIP3    H211232   5.448   6.691   3.797
 3763TIP3   OH211233   2.410   2.348   4.034
 3763TIP3    H111234   2.459   2.396   4.102
 3763TIP3    H211235   2.320   2.378   4.045
 3764TIP3   OH211236   7.748   1.031   0.561
 3764TIP3    H111237   7.814   1.014   0.628
 3764TIP3    H211238   7.712   0.945   0.539
 3765TIP3   OH211239   1.982   7.797   2.745
 3765TIP3    H111240   1.971   7.770   2.836
 3765TIP3    H211241   2.013   7.888   2.751
 3766TIP3   OH211242   8.033   5.614   0.388
 3766TIP3    H111243   8.054   5.700   0.423
 3766TIP3    H211244   8.084   5.553   0.442
 3767TIP3   OH211245   1.838   2.184   6.520
 3767TIP3    H111246   1.783   2.256   6.490
 3767TIP3    H211247   1.786   2.105   6.504
 3768TIP3   OH211248   3.262   4.941   0.375
 3768TIP3    H111249   3.287   4.996   0.449
 3768TIP3    H211250   3.340   4.887   0.359
 3769TIP3   OH211251   0.050   1.771   6.199
 3769TIP3    H111252   0.041   1.691   6.146
 3769TIP3    H211253   0.101   1.744   6.275
 3770TIP3   OH211254   6.620   3.628   5.859
 3770TIP3    H111255   6.590   3.549   5.814
 3770TIP3    H211256   6.585   3.700   5.807
 3771TIP3   OH211257   3.472   5.471   4.665
 3771TIP3    H111258   3.510   5.400   4.614
 3771TIP3    H211259   3.479   5.548   4.608
 3772TIP3   OH211260   0.240   0.959   3.656
 3772TIP3    H111261   0.332   0.939   3.673
 3772TIP3    H211262   0.235   1.055   3.657
 3773TIP3   OH211263   3.703   1.324   5.013
 3773TIP3    H111264   3.641   1.390   5.045
 3773TIP3    H211265   3.779   1.374   4.985
 3774TIP3   OH211266   6.356   6.442   1.521
 3774TIP3    H111267   6.297   6.513   1.498
 3774TIP3    H211268   6.440   6.485   1.540
 3775TIP3   OH211269   3.275   4.669   1.600
 3775TIP3    H111270   3.242   4.721   1.526
 3775TIP3    H211271   3.340   4.726   1.641
 3776TIP3   OH211272   4.638   4.173   4.713
 3776TIP3    H111273   4.718   4.200   4.757
 3776TIP3    H211274   4.613   4.091   4.757
 3777TIP3   OH211275   8.317   4.123   1.587
 3777TIP3    H111276   8.237   4.135   1.537
 3777TIP3    H211277   8.369   4.061   1.534
 3778TIP3   OH211278   3.320   4.813   2.139
 3778TIP3    H111279   3.336   4.893   2.189
 3778TIP3    H211280   3.225   4.810   2.129
 3779TIP3   OH211281   3.111   6.672   6.015
 3779TIP3    H111282   3.136   6.584   5.988
 3779TIP3    H211283   3.047   6.700   5.950
 3780TIP3   OH211284   3.714   1.390   1.149
 3780TIP3    H111285   3.718   1.483   1.171
 3780TIP3    H211286   3.709   1.346   1.233
 3781TIP3   OH211287   7.332   7.310   0.963
 3781TIP3    H111288   7.248   7.348   0.988
 3781TIP3    H211289   7.336   7.227   1.012
 3782TIP3   OH211290   7.556   1.871   0.071
 3782TIP3    H111291   7.621   1.918   0.124
 3782TIP3    H211292   7.489   1.845   0.134
 3783TIP3   OH211293   4.740   1.046   1.836
 3783TIP3    H111294   4.807   0.979   1.827
 3783TIP3    H211295   4.748   1.076   1.927
 3784TIP3   OH211296   0.281   5.179   1.627
 3784TIP3    H111297   0.279   5.161   1.721
 3784TIP3    H211298   0.343   5.116   1.591
 3785TIP3   OH211299   5.867   1.898   1.514
 3785TIP3    H111300   5.889   1.938   1.598
 3785TIP3    H211301   5.792   1.949   1.482
 3786TIP3   OH211302   2.181   1.280   3.789
 3786TIP3    H111303   2.105   1.256   3.736
 3786TIP3    H211304   2.252   1.289   3.726
 3787TIP3   OH211305   1.374   1.599   3.306
 3787TIP3    H111306   1.291   1.629   3.270
 3787TIP3    H211307   1.427   1.579   3.228
 3788TIP3   OH211308   6.770   2.451   2.175
 3788TIP3    H111309   6.755   2.363   2.211
 3788TIP3    H211310   6.683   2.487   2.162
 3789TIP3   OH211311   1.632   3.606   6.364
 3789TIP3    H111312   1.659   3.538   6.302
 3789TIP3    H211313   1.674   3.581   6.447
 3790TIP3   OH211314   2.307   7.009   5.305
 3790TIP3    H111315   2.288   6.966   5.221
 3790TIP3    H211316   2.403   7.008   5.312
 3791TIP3   OH211317   2.529   6.848   3.286
 3791TIP3    H111318   2.484   6.860   3.203
 3791TIP3    H211319   2.528   6.935   3.327
 3792TIP3   OH211320   7.920   7.465   0.351
 3792TIP3    H111321   7.857   7.462   0.280
 3792TIP3    H211322   7.903   7.386   0.402
 3793TIP3   OH211323   7.772   1.957   0.223
 3793TIP3    H111324   7.781   1.878   0.277
 3793TIP3    H211325   7.850   1.957   0.167
 3794TIP3   OH211326   7.728   2.477   4.303
 3794TIP3    H111327   7.808   2.431   4.277
 3794TIP3    H211328   7.676   2.483   4.223
 3795TIP3   OH211329   5.602   2.371   0.304
 3795TIP3    H111330   5.588   2.397   0.212
 3795TIP3    H211331   5.522   2.400   0.348
 3796TIP3   OH211332   6.467   5.551   1.422
 3796TIP3    H111333   6.383   5.526   1.462
 3796TIP3    H211334   6.532   5.500   1.470
 3797TIP3   OH211335   4.787   6.576   4.820
 3797TIP3    H111336   4.741   6.628   4.886
 3797TIP3    H211337   4.808   6.494   4.864
 3798TIP3   OH211338   2.100   4.023   1.588
 3798TIP3    H111339   2.036   4.054   1.652
 3798TIP3    H211340   2.177   4.077   1.601
 3799TIP3   OH211341   2.712   0.232   0.608
 3799TIP3    H111342   2.786   0.175   0.586
 3799TIP3    H211343   2.689   0.208   0.698
 3800TIP3   OH211344   6.097   4.101   2.196
 3800TIP3    H111345   6.073   4.193   2.182
 3800TIP3    H211346   6.033   4.052   2.146
 3801TIP3   OH211347   4.639   0.140   1.015
 3801TIP3    H111348   4.565   0.159   0.958
 3801TIP3    H211349   4.656   0.222   1.061
 3802TIP3   OH211350   5.888   4.298   4.762
 3802TIP3    H111351   5.928   4.342   4.687
 3802TIP3    H211352   5.936   4.332   4.837
 3803TIP3   OH211353   0.734   5.385   3.337
 3803TIP3    H111354   0.646   5.360   3.308
 3803TIP3    H211355   0.775   5.302   3.360
 3804TIP3   OH211356   2.166   7.257   6.345
 3804TIP3    H111357   2.179   7.323   6.413
 3804TIP3    H211358   2.232   7.191   6.364
 3805TIP3   OH211359   1.076   1.132   4.775
 3805TIP3    H111360   1.153   1.075   4.763
 3805TIP3    H211361   1.024   1.087   4.842
 3806TIP3   OH211362   1.501   3.367   1.420
 3806TIP3    H111363   1.583   3.351   1.467
 3806TIP3    H211364   1.528   3.400   1.334
 3807TIP3   OH211365   6.810   1.982   3.052
 3807TIP3    H111366   6.818   2.067   3.010
 3807TIP3    H211367   6.720   1.955   3.035
 3808TIP3   OH211368   3.669   1.829   2.852
 3808TIP3    H111369   3.719   1.746   2.853
 3808TIP3    H211370   3.706   1.880   2.924
 3809TIP3   OH211371   3.264   4.344   6.503
 3809TIP3    H111372   3.181   4.371   6.543
 3809TIP3    H211373   3.304   4.426   6.475
 3810TIP3   OH211374   7.974   5.430   2.180
 3810TIP3    H111375   7.927   5.353   2.148
 3810TIP3    H211376   8.060   5.424   2.138
 3811TIP3   OH211377   2.087   0.833   1.968
 3811TIP3    H111378   2.159   0.871   1.919
 3811TIP3    H211379   2.033   0.790   1.902
 3812TIP3   OH211380   5.447   0.355   6.033
 3812TIP3    H111381   5.358   0.360   5.996
 3812TIP3    H211382   5.468   0.446   6.055
 3813TIP3   OH211383   3.699   4.261   3.548
 3813TIP3    H111384   3.735   4.226   3.466
 3813TIP3    H211385   3.695   4.356   3.533
 3814TIP3   OH211386   7.132   1.949   1.594
 3814TIP3    H111387   7.130   2.010   1.520
 3814TIP3    H211388   7.060   1.888   1.575
 3815TIP3   OH211389   5.047   3.405   2.811
 3815TIP3    H111390   5.076   3.345   2.881
 3815TIP3    H211391   5.108   3.390   2.740
 3816TIP3   OH211392   3.742   1.472   4.509
 3816TIP3    H111393   3.771   1.520   4.587
 3816TIP3    H211394   3.810   1.406   4.495
 3817TIP3   OH211395   0.640   4.369   2.305
 3817TIP3    H111396   0.587   4.349   2.228
 3817TIP3    H211397   0.590   4.335   2.379
 3818TIP3   OH211398   8.201   3.780   6.420
 3818TIP3    H111399   8.145   3.705   6.400
 3818TIP3    H211400   8.163   3.852   6.370
 3819TIP3   OH211401   5.752   2.214   0.481
 3819TIP3    H111402   5.695   2.268   0.426
 3819TIP3    H211403   5.734   2.245   0.570
 3820TIP3   OH211404   2.601   2.572   1.906
 3820TIP3    H111405   2.567   2.650   1.949
 3820TIP3    H211406   2.527   2.511   1.904
 3821TIP3   OH211407   5.183   3.538   6.552
 3821TIP3    H111408   5.214   3.526   6.641
 3821TIP3    H211409   5.183   3.633   6.538
 3822TIP3   OH211410   2.712   5.852   5.558
 3822TIP3    H111411   2.685   5.893   5.640
 3822TIP3    H211412   2.661   5.898   5.491
 3823TIP3   OH211413   6.198   0.125   6.651
 3823TIP3    H111414   6.282   0.124   6.695
 3823TIP3    H211415   6.204   0.197   6.588
 3824TIP3   OH211416   4.505   7.576   4.679
 3824TIP3    H111417   4.554   7.606   4.602
 3824TIP3    H211418   4.518   7.481   4.680
 3825TIP3   OH211419   5.015   2.259   3.626
 3825TIP3    H111420   4.987   2.234   3.714
 3825TIP3    H211421   5.096   2.210   3.611
 3826TIP3   OH211422   1.479   4.816   0.671
 3826TIP3    H111423   1.558   4.839   0.623
 3826TIP3    H211424   1.417   4.788   0.603
 3827TIP3   OH211425   2.044   2.487   0.213
 3827TIP3    H111426   2.107   2.416   0.211
 3827TIP3    H211427   2.097   2.565   0.230
 3828TIP3   OH211428   6.032   1.643   4.912
 3828TIP3    H111429   6.005   1.566   4.862
 3828TIP3    H211430   5.980   1.639   4.992
 3829TIP3   OH211431   3.723   2.024   3.390
 3829TIP3    H111432   3.785   2.080   3.439
 3829TIP3    H211433   3.716   1.945   3.443
 3830TIP3   OH211434   8.105   4.779   1.461
 3830TIP3    H111435   8.093   4.843   1.532
 3830TIP3    H211436   8.132   4.699   1.506
 3831TIP3   OH211437   4.610   1.124   6.464
 3831TIP3    H111438   4.638   1.196   6.520
 3831TIP3    H211439   4.540   1.081   6.512
 3832TIP3   OH211440   6.127   6.224   1.766
 3832TIP3    H111441   6.045   6.273   1.763
 3832TIP3    H211442   6.184   6.269   1.703
 3833TIP3   OH211443   2.107   0.993   6.060
 3833TIP3    H111444   2.150   1.072   6.028
 3833TIP3    H211445   2.016   1.001   6.030
 3834TIP3   OH211446   1.782   0.081   6.197
 3834TIP3    H111447   1.730   0.021   6.143
 3834TIP3    H211448   1.854   0.027   6.230
 3835TIP3   OH211449   7.242   6.848   1.227
 3835TIP3    H111450   7.323   6.800   1.211
 3835TIP3    H211451   7.177   6.780   1.246
 3836TIP3   OH211452   7.566   2.265   5.946
 3836TIP3    H111453   7.599   2.353   5.932
 3836TIP3    H211454   7.606   2.237   6.029
 3837TIP3   OH211455   1.053   7.795   0.035
 3837TIP3    H111456   1.039   7.825   0.125
 3837TIP3    H211457   1.096   7.710   0.044
 3838TIP3   OH211458   7.956   0.719   0.610
 3838TIP3    H111459   7.899   0.736   0.535
 3838TIP3    H211460   7.941   0.793   0.669
 3839TIP3   OH211461   7.481   3.780   0.177
 3839TIP3    H111462   7.423   3.832   0.121
 3839TIP3    H211463   7.423   3.723   0.226
 3840TIP3   OH211464   3.182   6.968   0.619
 3840TIP3    H111465   3.232   6.908   0.563
 3840TIP3    H211466   3.123   7.014   0.558
 3841TIP3   OH211467   2.863   1.341   0.698
 3841TIP3    H111468   2.946   1.384   0.676
 3841TIP3    H211469   2.851   1.277   0.628
 3842TIP3   OH211470   2.996   5.825   6.678
 3842TIP3    H111471   2.983   5.738   6.642
 3842TIP3    H211472   3.056   5.812   6.752
 3843TIP3   OH211473   3.954   5.817   6.734
 3843TIP3    H111474   4.024   5.774   6.783
 3843TIP3    H211475   3.908   5.870   6.799
 3844TIP3   OH211476   4.389   3.328   5.954
 3844TIP3    H111477   4.443   3.408   5.948
 3844TIP3    H211478   4.440   3.270   6.010
 3845TIP3   OH211479   5.045   1.826   1.357
 3845TIP3    H111480   5.053   1.852   1.265
 3845TIP3    H211481   4.972   1.879   1.390
 3846TIP3   OH211482   6.784   5.660   4.767
 3846TIP3    H111483   6.869   5.704   4.768
 3846TIP3    H211484   6.787   5.603   4.689
 3847TIP3   OH211485   4.346   4.669   4.602
 3847TIP3    H111486   4.431   4.715   4.605
 3847TIP3    H211487   4.307   4.696   4.519
 3848TIP3   OH211488   6.296   6.400   4.643
 3848TIP3    H111489   6.224   6.460   4.622
 3848TIP3    H211490   6.316   6.419   4.735
 3849TIP3   OH211491   7.978   4.194   2.445
 3849TIP3    H111492   7.943   4.208   2.534
 3849TIP3    H211493   7.960   4.276   2.399
 3850TIP3   OH211494   8.257   3.780   2.363
 3850TIP3    H111495   8.172   3.822   2.354
 3850TIP3    H211496   8.316   3.851   2.389
 3851TIP3   OH211497   1.635   7.000   2.528
 3851TIP3    H111498   1.573   7.068   2.555
 3851TIP3    H211499   1.608   6.922   2.578
 3852TIP3   OH211500   0.683   0.116   1.848
 3852TIP3    H111501   0.664   0.076   1.763
 3852TIP3    H211502   0.775   0.093   1.866
 3853TIP3   OH211503   3.711   0.954   4.523
 3853TIP3    H111504   3.788   0.989   4.568
 3853TIP3    H211505   3.721   0.859   4.529
 3854TIP3   OH211506   4.702   7.840   4.616
 3854TIP3    H111507   4.699   7.846   4.711
 3854TIP3    H211508   4.674   7.751   4.596
 3855TIP3   OH211509   6.548   6.020   6.307
 3855TIP3    H111510   6.555   6.005   6.213
 3855TIP3    H211511   6.561   5.933   6.346
 3856TIP3   OH211512   1.645   6.220   1.595
 3856TIP3    H111513   1.612   6.138   1.559
 3856TIP3    H211514   1.598   6.231   1.678
 3857TIP3   OH211515   6.860   0.642   3.712
 3857TIP3    H111516   6.876   0.559   3.668
 3857TIP3    H211517   6.915   0.705   3.665
 3858TIP3   OH211518   0.854   2.723   4.841
 3858TIP3    H111519   0.873   2.817   4.837
 3858TIP3    H211520   0.937   2.681   4.822
 3859TIP3   OH211521   4.926   5.930   6.598
 3859TIP3    H111522   4.856   5.965   6.543
 3859TIP3    H211523   4.987   6.003   6.608
 3860TIP3   OH211524   0.988   2.243   5.050
 3860TIP3    H111525   1.000   2.193   4.969
 3860TIP3    H211526   1.027   2.328   5.032
 3861TIP3   OH211527   4.658   5.404   0.586
 3861TIP3    H111528   4.659   5.308   0.596
 3861TIP3    H211529   4.571   5.423   0.549
 3862TIP3   OH211530   7.144   5.355   5.623
 3862TIP3    H111531   7.161   5.262   5.608
 3862TIP3    H211532   7.066   5.357   5.679
 3863TIP3   OH211533   0.254   0.119   5.087
 3863TIP3    H111534   0.219   0.178   5.020
 3863TIP3    H211535   0.237   0.031   5.051
 3864TIP3   OH211536   6.995   3.131   6.434
 3864TIP3    H111537   7.086   3.157   6.420
 3864TIP3    H211538   6.948   3.214   6.441
 3865TIP3   OH211539   2.016   4.950   4.248
 3865TIP3    H111540   2.105   4.929   4.278
 3865TIP3    H211541   2.025   4.960   4.154
 3866TIP3   OH211542   4.470   7.298   3.684
 3866TIP3    H111543   4.399   7.290   3.620
 3866TIP3    H211544   4.524   7.220   3.670
 3867TIP3   OH211545   0.581   3.623   1.313
 3867TIP3    H111546   0.675   3.641   1.306
 3867TIP3    H211547   0.560   3.637   1.405
 3868TIP3   OH211548   2.196   5.177   0.603
 3868TIP3    H111549   2.115   5.211   0.641
 3868TIP3    H211550   2.259   5.178   0.675
 3869TIP3   OH211551   4.800   6.185   5.194
 3869TIP3    H111552   4.804   6.114   5.258
 3869TIP3    H211553   4.887   6.225   5.196
 3870TIP3   OH211554   1.795   1.583   3.197
 3870TIP3    H111555   1.885   1.560   3.222
 3870TIP3    H211556   1.787   1.556   3.106
 3871TIP3   OH211557   0.893   2.529   2.479
 3871TIP3    H111558   0.863   2.461   2.538
 3871TIP3    H211559   0.814   2.559   2.434
 3872TIP3   OH211560   5.272   5.063   4.078
 3872TIP3    H111561   5.306   5.020   4.000
 3872TIP3    H211562   5.231   5.143   4.045
 3873TIP3   OH211563   1.786   0.102   1.441
 3873TIP3    H111564   1.730   0.057   1.504
 3873TIP3    H211565   1.764   0.195   1.452
 3874TIP3   OH211566   7.366   4.214   0.814
 3874TIP3    H111567   7.337   4.167   0.892
 3874TIP3    H211568   7.374   4.147   0.747
 3875TIP3   OH211569   2.529   4.187   6.523
 3875TIP3    H111570   2.585   4.119   6.561
 3875TIP3    H211571   2.588   4.262   6.510
 3876TIP3   OH211572   1.521   3.956   5.871
 3876TIP3    H111573   1.550   3.975   5.960
 3876TIP3    H211574   1.599   3.972   5.817
 3877TIP3   OH211575   4.726   0.342   4.514
 3877TIP3    H111576   4.740   0.434   4.492
 3877TIP3    H211577   4.639   0.340   4.554
 3878TIP3   OH211578   5.747   3.086  -0.008
 3878TIP3    H111579   5.714   3.000  -0.034
 3878TIP3    H211580   5.779   3.074   0.081
 3879TIP3   OH211581   3.440   4.764   1.123
 3879TIP3    H111582   3.439   4.841   1.066
 3879TIP3    H211583   3.381   4.701   1.082
 3880TIP3   OH211584   4.316   5.224   2.658
 3880TIP3    H111585   4.268   5.223   2.741
 3880TIP3    H211586   4.248   5.224   2.591
 3881TIP3   OH211587   4.403   3.065   3.120
 3881TIP3    H111588   4.381   3.149   3.080
 3881TIP3    H211589   4.421   3.086   3.212
 3882TIP3   OH211590   2.536   3.540   6.143
 3882TIP3    H111591   2.501   3.502   6.062
 3882TIP3    H211592   2.630   3.546   6.128
 3883TIP3   OH211593   1.049   3.753  -0.006
 3883TIP3    H111594   1.012   3.841  -0.004
 3883TIP3    H211595   1.140   3.764   0.020
 3884TIP3   OH211596   6.666   5.667   3.034
 3884TIP3    H111597   6.618   5.584   3.034
 3884TIP3    H211598   6.721   5.663   2.957
 3885TIP3   OH211599   1.414   7.657   0.712
 3885TIP3    H111600   1.385   7.583   0.765
 3885TIP3    H211601   1.346   7.666   0.645
 3886TIP3   OH211602   0.475   4.157   5.510
 3886TIP3    H111603   0.541   4.125   5.448
 3886TIP3    H211604   0.413   4.084   5.519
 3887TIP3   OH211605   3.998   0.225   3.518
 3887TIP3    H111606   4.027   0.280   3.592
 3887TIP3    H211607   3.962   0.146   3.559
 3888TIP3   OH211608   0.578   0.065   1.493
 3888TIP3    H111609   0.534   0.080   1.410
 3888TIP3    H211610   0.520   0.005   1.540
 3889TIP3   OH211611   0.344   3.185   6.309
 3889TIP3    H111612   0.253   3.177   6.281
 3889TIP3    H211613   0.395   3.175   6.229
 3890TIP3   OH211614   5.381   1.775   4.901
 3890TIP3    H111615   5.420   1.710   4.844
 3890TIP3    H211616   5.289   1.780   4.873
 3891TIP3   OH211617   2.338   1.294   3.557
 3891TIP3    H111618   2.371   1.384   3.559
 3891TIP3    H211619   2.266   1.295   3.495
 3892TIP3   OH211620   4.544   3.604   1.225
 3892TIP3    H111621   4.569   3.694   1.242
 3892TIP3    H211622   4.465   3.591   1.276
 3893TIP3   OH211623   7.059   0.962   0.151
 3893TIP3    H111624   7.135   0.915   0.118
 3893TIP3    H211625   6.984   0.912   0.118
 3894TIP3   OH211626   1.394   1.897   4.688
 3894TIP3    H111627   1.471   1.946   4.715
 3894TIP3    H211628   1.334   1.963   4.653
 3895TIP3   OH211629   4.442   2.799   0.953
 3895TIP3    H111630   4.379   2.755   0.896
 3895TIP3    H211631   4.426   2.892   0.940
 3896TIP3   OH211632   3.397   2.118   1.555
 3896TIP3    H111633   3.380   2.185   1.489
 3896TIP3    H211634   3.318   2.115   1.608
 3897TIP3   OH211635   1.202   5.143   5.829
 3897TIP3    H111636   1.297   5.149   5.827
 3897TIP3    H211637   1.178   5.104   5.745
 3898TIP3   OH211638   5.965   5.647   0.921
 3898TIP3    H111639   5.969   5.741   0.939
 3898TIP3    H211640   6.054   5.623   0.895
 3899TIP3   OH211641   6.770   3.941   6.026
 3899TIP3    H111642   6.690   3.889   6.027
 3899TIP3    H211643   6.820   3.911   6.102
 3900TIP3   OH211644   1.338   0.708   6.331
 3900TIP3    H111645   1.277   0.754   6.274
 3900TIP3    H211646   1.355   0.769   6.403
 3901TIP3   OH211647   4.154   2.033   3.344
 3901TIP3    H111648   4.082   2.070   3.395
 3901TIP3    H211649   4.223   2.017   3.409
 3902TIP3   OH211650   4.844   2.716   0.154
 3902TIP3    H111651   4.932   2.739   0.123
 3902TIP3    H211652   4.835   2.623   0.135
 3903TIP3   OH211653   2.291   1.207   3.149
 3903TIP3    H111654   2.242   1.243   3.075
 3903TIP3    H211655   2.294   1.278   3.213
 3904TIP3   OH211656   7.259   6.507   1.524
 3904TIP3    H111657   7.335   6.553   1.491
 3904TIP3    H211658   7.260   6.422   1.480
 3905TIP3   OH211659   4.729   4.372   2.982
 3905TIP3    H111660   4.782   4.449   3.000
 3905TIP3    H211661   4.716   4.331   3.068
 3906TIP3   OH211662   6.268   6.899   0.409
 3906TIP3    H111663   6.249   6.822   0.462
 3906TIP3    H211664   6.364   6.905   0.409
 3907TIP3   OH211665   7.848   1.973   6.319
 3907TIP3    H111666   7.917   2.015   6.371
 3907TIP3    H211667   7.893   1.942   6.240
 3908TIP3   OH211668   3.241   0.430   0.350
 3908TIP3    H111669   3.328   0.436   0.311
 3908TIP3    H211670   3.219   0.337   0.347
 3909TIP3   OH211671   4.402   7.185   5.861
 3909TIP3    H111672   4.426   7.254   5.923
 3909TIP3    H211673   4.328   7.222   5.812
 3910TIP3   OH211674   1.769   7.357   4.235
 3910TIP3    H111675   1.808   7.441   4.211
 3910TIP3    H211676   1.778   7.353   4.331
 3911TIP3   OH211677   7.884   0.928   3.309
 3911TIP3    H111678   7.969   0.914   3.352
 3911TIP3    H211679   7.904   0.929   3.216
 3912TIP3   OH211680   5.921   3.075   3.772
 3912TIP3    H111681   5.851   3.010   3.769
 3912TIP3    H211682   5.924   3.104   3.863
 3913TIP3   OH211683   3.438   3.413   0.876
 3913TIP3    H111684   3.492   3.374   0.945
 3913TIP3    H211685   3.378   3.471   0.922
 3914TIP3   OH211686   2.276   0.726   4.674
 3914TIP3    H111687   2.308   0.816   4.677
 3914TIP3    H211688   2.258   0.704   4.766
 3915TIP3   OH211689   5.189   0.994   1.984
 3915TIP3    H111690   5.189   0.917   2.041
 3915TIP3    H211691   5.275   1.034   1.999
 3916TIP3   OH211692   3.535   6.700   6.398
 3916TIP3    H111693   3.451   6.711   6.354
 3916TIP3    H211694   3.518   6.639   6.470
 3917TIP3   OH211695   6.156   5.071   5.857
 3917TIP3    H111696   6.132   5.164   5.854
 3917TIP3    H211697   6.157   5.044   5.765
 3918TIP3   OH211698   4.161   1.398   4.669
 3918TIP3    H111699   4.230   1.432   4.725
 3918TIP3    H211700   4.133   1.473   4.617
 3919TIP3   OH211701   7.222   7.501   4.519
 3919TIP3    H111702   7.165   7.569   4.483
 3919TIP3    H211703   7.164   7.448   4.574
 3920TIP3   OH211704   5.009   4.005   3.111
 3920TIP3    H111705   4.940   3.995   3.046
 3920TIP3    H211706   4.964   4.003   3.195
 3921TIP3   OH211707   1.751   0.769   0.110
 3921TIP3    H111708   1.814   0.831   0.149
 3921TIP3    H211709   1.787   0.749   0.024
 3922TIP3   OH211710   5.741   3.621   5.895
 3922TIP3    H111711   5.725   3.543   5.947
 3922TIP3    H211712   5.829   3.609   5.859
 3923TIP3   OH211713   5.617   4.823   5.994
 3923TIP3    H111714   5.634   4.744   6.045
 3923TIP3    H211715   5.694   4.878   6.009
 3924TIP3   OH211716   0.337   7.119   4.620
 3924TIP3    H111717   0.272   7.092   4.686
 3924TIP3    H211718   0.323   7.213   4.611
 3925TIP3   OH211719   6.217   4.900   2.207
 3925TIP3    H111720   6.175   4.954   2.273
 3925TIP3    H211721   6.179   4.930   2.124
 3926TIP3   OH211722   8.111   2.290   2.239
 3926TIP3    H111723   8.026   2.251   2.217
 3926TIP3    H211724   8.097   2.331   2.324
 3927TIP3   OH211725   7.796   6.933   1.169
 3927TIP3    H111726   7.882   6.912   1.132
 3927TIP3    H211727   7.760   6.999   1.110
 3928TIP3   OH211728   2.298   5.810   1.058
 3928TIP3    H111729   2.220   5.757   1.072
 3928TIP3    H211730   2.286   5.847   0.970
 3929TIP3   OH211731   6.131   1.678   3.550
 3929TIP3    H111732   6.166   1.643   3.631
 3929TIP3    H211733   6.037   1.659   3.554
 3930TIP3   OH211734   8.020   4.648   0.441
 3930TIP3    H111735   7.946   4.590   0.459
 3930TIP3    H211736   8.030   4.645   0.346
 3931TIP3   OH211737   0.810   0.459   4.266
 3931TIP3    H111738   0.798   0.522   4.337
 3931TIP3    H211739   0.855   0.508   4.197
 3932TIP3   OH211740   3.225   2.211   6.097
 3932TIP3    H111741   3.195   2.204   6.188
 3932TIP3    H211742   3.158   2.166   6.046
 3933TIP3   OH211743   5.728   1.097   4.386
 3933TIP3    H111744   5.807   1.153   4.386
 3933TIP3    H211745   5.698   1.099   4.476
 3934TIP3   OH211746   3.924   2.776   3.613
 3934TIP3    H111747   3.926   2.686   3.645
 3934TIP3    H211748   3.976   2.825   3.677
 3935TIP3   OH211749   4.588   5.483   5.776
 3935TIP3    H111750   4.593   5.392   5.807
 3935TIP3    H211751   4.678   5.507   5.758
 3936TIP3   OH211752   4.888   3.859   4.222
 3936TIP3    H111753   4.861   3.908   4.300
 3936TIP3    H211754   4.819   3.793   4.210
 3937TIP3   OH211755   6.512   6.533   2.588
 3937TIP3    H111756   6.589   6.576   2.551
 3937TIP3    H211757   6.440   6.594   2.570
 3938TIP3   OH211758   5.307   2.330   2.731
 3938TIP3    H111759   5.256   2.339   2.651
 3938TIP3    H211760   5.277   2.403   2.786
 3939TIP3   OH211761   4.954   0.238   5.328
 3939TIP3    H111762   4.963   0.157   5.278
 3939TIP3    H211763   5.016   0.298   5.287
 3940TIP3   OH211764   1.396   4.065   0.723
 3940TIP3    H111765   1.475   4.115   0.705
 3940TIP3    H211766   1.352   4.113   0.793
 3941TIP3   OH211767   8.232   7.247   2.458
 3941TIP3    H111768   8.181   7.166   2.460
 3941TIP3    H211769   8.277   7.245   2.374
 3942TIP3   OH211770   6.304   4.836   4.504
 3942TIP3    H111771   6.306   4.761   4.445
 3942TIP3    H211772   6.395   4.853   4.526
 3943TIP3   OH211773   2.457   0.464   6.302
 3943TIP3    H111774   2.407   0.399   6.252
 3943TIP3    H211775   2.487   0.527   6.236
 3944TIP3   OH211776   6.411   3.123   4.507
 3944TIP3    H111777   6.378   3.101   4.420
 3944TIP3    H211778   6.365   3.203   4.531
 3945TIP3   OH211779   4.251   7.338   5.653
 3945TIP3    H111780   4.304   7.413   5.681
 3945TIP3    H211781   4.256   7.340   5.557
 3946TIP3   OH211782   4.679   3.349   5.713
 3946TIP3    H111783   4.684   3.257   5.741
 3946TIP3    H211784   4.622   3.347   5.636
 3947TIP3   OH211785   5.319   2.246   0.452
 3947TIP3    H111786   5.328   2.339   0.433
 3947TIP3    H211787   5.357   2.202   0.376
 3948TIP3   OH211788   5.197   5.050   5.493
 3948TIP3    H111789   5.245   5.049   5.411
 3948TIP3    H211790   5.151   4.966   5.496
 3949TIP3   OH211791   5.042   1.374   2.621
 3949TIP3    H111792   5.073   1.464   2.614
 3949TIP3    H211793   5.071   1.346   2.708
 3950TIP3   OH211794   3.706   3.194   6.713
 3950TIP3    H111795   3.633   3.251   6.687
 3950TIP3    H211796   3.764   3.194   6.637
 3951TIP3   OH211797   7.685   7.178   5.384
 3951TIP3    H111798   7.684   7.125   5.464
 3951TIP3    H211799   7.603   7.155   5.340
 3952TIP3   OH211800   7.082   4.118   2.370
 3952TIP3    H111801   7.116   4.200   2.405
 3952TIP3    H211802   7.095   4.055   2.440
 3953TIP3   OH211803   3.062   0.218   5.443
 3953TIP3    H111804   3.148   0.226   5.402
 3953TIP3    H211805   3.003   0.191   5.372
 3954TIP3   OH211806   2.493   4.764   2.541
 3954TIP3    H111807   2.527   4.848   2.510
 3954TIP3    H211808   2.398   4.774   2.536
 3955TIP3   OH211809   5.033   2.780   6.163
 3955TIP3    H111810   5.082   2.860   6.182
 3955TIP3    H211811   5.092   2.729   6.106
 3956TIP3   OH211812   0.992   1.383   5.724
 3956TIP3    H111813   0.936   1.359   5.798
 3956TIP3    H211814   0.977   1.314   5.660
 3957TIP3   OH211815   5.587   1.903   2.047
 3957TIP3    H111816   5.676   1.939   2.043
 3957TIP3    H211817   5.555   1.927   2.134
 3958TIP3   OH211818   4.055   0.276   2.601
 3958TIP3    H111819   3.991   0.279   2.530
 3958TIP3    H211820   4.008   0.309   2.677
 3959TIP3   OH211821   6.394   5.834   4.257
 3959TIP3    H111822   6.401   5.739   4.263
 3959TIP3    H211823   6.315   5.856   4.307
 3960TIP3   OH211824   7.149   2.765   2.187
 3960TIP3    H111825   7.067   2.737   2.227
 3960TIP3    H211826   7.125   2.789   2.098
 3961TIP3   OH211827   0.921   1.752   6.380
 3961TIP3    H111828   0.970   1.680   6.339
 3961TIP3    H211829   0.977   1.782   6.451
 3962TIP3   OH211830   1.671   7.034   4.805
 3962TIP3    H111831   1.626   7.118   4.806
 3962TIP3    H211832   1.635   6.987   4.880
 3963TIP3   OH211833   5.314   0.614   1.619
 3963TIP3    H111834   5.281   0.525   1.620
 3963TIP3    H211835   5.283   0.651   1.537
 3964TIP3   OH211836   0.988   3.824   4.004
 3964TIP3    H111837   1.035   3.901   3.973
 3964TIP3    H211838   0.912   3.859   4.050
 3965TIP3   OH211839   5.531   4.569   1.238
 3965TIP3    H111840   5.571   4.639   1.186
 3965TIP3    H211841   5.605   4.525   1.281
 3966TIP3   OH211842   5.893   3.999   3.328
 3966TIP3    H111843   5.943   4.003   3.409
 3966TIP3    H211844   5.832   3.926   3.340
 3967TIP3   OH211845   6.880   6.226   1.202
 3967TIP3    H111846   6.785   6.241   1.199
 3967TIP3    H211847   6.914   6.273   1.126
 3968TIP3   OH211848   5.645   3.744   5.327
 3968TIP3    H111849   5.602   3.807   5.270
 3968TIP3    H211850   5.576   3.683   5.352
 3969TIP3   OH211851   1.397   4.569   5.930
 3969TIP3    H111852   1.448   4.509   5.875
 3969TIP3    H211853   1.339   4.614   5.868
 3970TIP3   OH211854   7.741   5.195   4.068
 3970TIP3    H111855   7.755   5.204   4.163
 3970TIP3    H211856   7.823   5.225   4.030
 3971TIP3   OH211857   1.807   4.845   1.598
 3971TIP3    H111858   1.722   4.804   1.582
 3971TIP3    H211859   1.852   4.841   1.513
 3972TIP3   OH211860   8.191   3.964   0.075
 3972TIP3    H111861   8.207   3.911   0.153
 3972TIP3    H211862   8.096   3.967   0.067
 3973TIP3   OH211863   1.683   0.138   4.157
 3973TIP3    H111864   1.694   0.198   4.231
 3973TIP3    H211865   1.771   0.102   4.143
 3974TIP3   OH211866   5.219   0.567   2.152
 3974TIP3    H111867   5.196   0.566   2.059
 3974TIP3    H211868   5.229   0.660   2.173
 3975TIP3   OH211869   7.337   2.890   5.420
 3975TIP3    H111870   7.312   2.979   5.446
 3975TIP3    H211871   7.433   2.890   5.421
 3976TIP3   OH211872   2.511   1.822   4.049
 3976TIP3    H111873   2.594   1.774   4.049
 3976TIP3    H211874   2.453   1.770   3.994
 3977TIP3   OH211875   1.434   5.805   3.679
 3977TIP3    H111876   1.480   5.834   3.758
 3977TIP3    H211877   1.501   5.805   3.611
 3978TIP3   OH211878   5.876   3.706   0.812
 3978TIP3    H111879   5.805   3.770   0.808
 3978TIP3    H211880   5.856   3.643   0.742
 3979TIP3   OH211881   2.549   2.124   1.395
 3979TIP3    H111882   2.539   2.119   1.490
 3979TIP3    H211883   2.466   2.093   1.360
 3980TIP3   OH211884   7.304   2.113   3.637
 3980TIP3    H111885   7.238   2.068   3.584
 3980TIP3    H211886   7.262   2.196   3.662
 3981TIP3   OH211887   1.137   5.484   4.979
 3981TIP3    H111888   1.124   5.501   4.886
 3981TIP3    H211889   1.232   5.474   4.989
 3982TIP3   OH211890   4.345   2.205   4.165
 3982TIP3    H111891   4.353   2.125   4.217
 3982TIP3    H211892   4.336   2.174   4.075
 3983TIP3   OH211893   2.473   3.210   0.204
 3983TIP3    H111894   2.530   3.191   0.129
 3983TIP3    H211895   2.533   3.211   0.279
 3984TIP3   OH211896   8.196   3.819   5.193
 3984TIP3    H111897   8.235   3.899   5.156
 3984TIP3    H211898   8.235   3.748   5.142
 3985TIP3   OH211899   3.177   7.312   4.767
 3985TIP3    H111900   3.085   7.337   4.753
 3985TIP3    H211901   3.186   7.229   4.720
 3986TIP3   OH211902   0.693   4.966   6.242
 3986TIP3    H111903   0.755   4.904   6.202
 3986TIP3    H211904   0.642   5.000   6.168
 3987TIP3   OH211905   2.908   3.003   5.484
 3987TIP3    H111906   2.935   3.095   5.479
 3987TIP3    H211907   2.868   2.995   5.570
 3988TIP3   OH211908   1.043   4.728   4.695
 3988TIP3    H111909   1.019   4.802   4.640
 3988TIP3    H211910   1.111   4.763   4.753
 3989TIP3   OH211911   1.995   1.224   4.245
 3989TIP3    H111912   1.945   1.273   4.311
 3989TIP3    H211913   1.946   1.143   4.233
 3990TIP3   OH211914   1.218   3.402   6.695
 3990TIP3    H111915   1.246   3.452   6.619
 3990TIP3    H211916   1.254   3.451   6.770
 3991TIP3   OH211917   6.798   4.560   4.756
 3991TIP3    H111918   6.758   4.515   4.830
 3991TIP3    H211919   6.862   4.498   4.722
 3992TIP3   OH211920   0.027   0.270   1.197
 3992TIP3    H111921  -0.022   0.190   1.178
 3992TIP3    H211922   0.114   0.239   1.220
 3993TIP3   OH211923   0.611   6.099   1.616
 3993TIP3    H111924   0.519   6.111   1.591
 3993TIP3    H211925   0.656   6.175   1.581
 3994TIP3   OH211926   7.603   3.281   4.996
 3994TIP3    H111927   7.615   3.255   4.904
 3994TIP3    H211928   7.631   3.373   4.999
 3995TIP3   OH211929   4.583   7.627   6.045
 3995TIP3    H111930   4.626   7.707   6.017
 3995TIP3    H211931   4.611   7.560   5.983
 3996TIP3   OH211932   3.054   7.221   2.626
 3996TIP3    H111933   2.972   7.195   2.669
 3996TIP3    H211934   3.034   7.214   2.533
 3997TIP3   OH211935   0.775   1.377   4.546
 3997TIP3    H111936   0.779   1.349   4.637
 3997TIP3    H211937   0.790   1.296   4.496
 3998TIP3   OH211938   0.897   3.324   2.185
 3998TIP3    H111939   0.924   3.363   2.102
 3998TIP3    H211940   0.954   3.248   2.196
 3999TIP3   OH211941   3.456   1.457   3.844
 3999TIP3    H111942   3.545   1.436   3.871
 3999TIP3    H211943   3.416   1.498   3.921
 4000TIP3   OH211944   2.114   7.764   1.217
 4000TIP3    H111945   2.036   7.773   1.162
 4000TIP3    H211946   2.175   7.713   1.163
 4001TIP3   OH211947   5.969   0.154   5.839
 4001TIP3    H111948   6.018   0.218   5.891
 4001TIP3    H211949   5.895   0.203   5.803
 4002TIP3   OH211950   2.661   4.357   6.326
 4002TIP3    H111951   2.693   4.267   6.321
 4002TIP3    H211952   2.602   4.366   6.251
 4003TIP3   OH211953   1.644   5.912   2.941
 4003TIP3    H111954   1.634   5.865   3.024
 4003TIP3    H211955   1.597   5.858   2.877
 4004TIP3   OH211956   7.649   3.823   5.590
 4004TIP3    H111957   7.626   3.913   5.612
 4004TIP3    H211958   7.623   3.772   5.666
 4005TIP3   OH211959   4.869   5.121   6.485
 4005TIP3    H111960   4.874   5.199   6.429
 4005TIP3    H211961   4.955   5.118   6.528
 4006TIP3   OH211962   6.932   3.751   2.117
 4006TIP3    H111963   6.981   3.753   2.036
 4006TIP3    H211964   6.842   3.771   2.091
 4007TIP3   OH211965   1.143   0.599   3.771
 4007TIP3    H111966   1.168   0.535   3.838
 4007TIP3    H211967   1.060   0.634   3.801
 4008TIP3   OH211968   0.688   1.581   6.423
 4008TIP3    H111969   0.735   1.661   6.400
 4008TIP3    H211970   0.636   1.561   6.345
 4009TIP3   OH211971   8.278   2.007   3.956
 4009TIP3    H111972   8.320   2.037   4.036
 4009TIP3    H211973   8.294   1.912   3.955
 4010TIP3   OH211974   5.419   7.072   0.166
 4010TIP3    H111975   5.474   7.115   0.232
 4010TIP3    H211976   5.447   6.981   0.168
 4011TIP3   OH211977   2.497   2.290   4.795
 4011TIP3    H111978   2.528   2.279   4.885
 4011TIP3    H211979   2.480   2.201   4.764
 4012TIP3   OH211980   3.235   1.853   2.578
 4012TIP3    H111981   3.281   1.928   2.541
 4012TIP3    H211982   3.223   1.793   2.505
 4013TIP3   OH211983   8.184   6.812   3.135
 4013TIP3    H111984   8.122   6.829   3.205
 4013TIP3    H211985   8.270   6.825   3.174
 4014TIP3   OH211986   5.456   2.354   4.141
 4014TIP3    H111987   5.496   2.439   4.158
 4014TIP3    H211988   5.508   2.316   4.071
 4015TIP3   OH211989   2.327   0.061   6.769
 4015TIP3    H111990   2.416   0.093   6.755
 4015TIP3    H211991   2.335  -0.003   6.839
 4016TIP3   OH211992   5.230   2.083   4.015
 4016TIP3    H111993   5.193   2.144   4.079
 4016TIP3    H211994   5.318   2.116   3.999
 4017TIP3   OH211995   6.665   6.208   3.424
 4017TIP3    H111996   6.612   6.253   3.490
 4017TIP3    H211997   6.755   6.224   3.452
 4018TIP3   OH211998   5.022   6.970   4.985
 4018TIP3    H111999   4.940   6.935   4.952
 4018TIP3    H212000   5.023   7.061   4.956
 4019TIP3   OH212001   0.878   7.608   3.926
 4019TIP3    H112002   0.912   7.593   3.838
 4019TIP3    H212003   0.915   7.537   3.979
 4020TIP3   OH212004   4.196   1.688   2.439
 4020TIP3    H112005   4.195   1.608   2.491
 4020TIP3    H212006   4.176   1.659   2.350
 4021TIP3   OH212007   8.245   0.674   2.019
 4021TIP3    H112008   8.289   0.682   1.934
 4021TIP3    H212009   8.306   0.622   2.072
 4022TIP3   OH212010   1.100   0.931   3.673
 4022TIP3    H112011   1.132   0.916   3.584
 4022TIP3    H212012   1.005   0.915   3.668
 4023TIP3   OH212013   4.787   5.651   2.580
 4023TIP3    H112014   4.736   5.713   2.529
 4023TIP3    H212015   4.866   5.637   2.527
 4024TIP3   OH212016   1.784   7.375   1.716
 4024TIP3    H112017   1.817   7.286   1.704
 4024TIP3    H212018   1.728   7.390   1.640
 4025TIP3   OH212019   4.942   2.033   6.178
 4025TIP3    H112020   4.874   2.006   6.116
 4025TIP3    H212021   4.994   2.097   6.129
 4026TIP3   OH212022   4.039   1.050   6.584
 4026TIP3    H112023   3.957   1.001   6.586
 4026TIP3    H212024   4.026   1.122   6.646
 4027TIP3   OH212025   8.087   1.351   1.066
 4027TIP3    H112026   8.047   1.320   1.147
 4027TIP3    H212027   8.121   1.437   1.087
 4028TIP3   OH212028   6.897   0.954   3.019
 4028TIP3    H112029   6.854   0.995   2.944
 4028TIP3    H212030   6.878   1.012   3.092
 4029TIP3   OH212031   7.778   7.145   0.089
 4029TIP3    H112032   7.830   7.219   0.056
 4029TIP3    H212033   7.729   7.181   0.162
 4030TIP3   OH212034   8.187   5.548   4.005
 4030TIP3    H112035   8.147   5.482   3.948
 4030TIP3    H212036   8.160   5.522   4.093
 4031TIP3   OH212037   2.729   7.764   2.309
 4031TIP3    H112038   2.775   7.817   2.244
 4031TIP3    H212039   2.638   7.763   2.280
 4032TIP3   OH212040   7.391   4.282   5.363
 4032TIP3    H112041   7.342   4.355   5.403
 4032TIP3    H212042   7.369   4.286   5.270
 4033TIP3   OH212043   1.923   3.454   4.620
 4033TIP3    H112044   1.876   3.512   4.680
 4033TIP3    H212045   1.955   3.383   4.675
 4034TIP3   OH212046   4.267   2.423   4.298
 4034TIP3    H112047   4.184   2.401   4.339
 4034TIP3    H212048   4.291   2.344   4.249
 4035TIP3   OH212049   6.709   2.899   2.113
 4035TIP3    H112050   6.774   2.905   2.184
 4035TIP3    H212051   6.645   2.966   2.135
 4036TIP3   OH212052   0.342   3.479   1.675
 4036TIP3    H112053   0.428   3.509   1.645
 4036TIP3    H212054   0.284   3.493   1.601
 4037TIP3   OH212055   1.833   4.825   4.401
 4037TIP3    H112056   1.758   4.802   4.346
 4037TIP3    H212057   1.887   4.880   4.344
 4038TIP3   OH212058   1.786   0.652   6.438
 4038TIP3    H112059   1.747   0.698   6.365
 4038TIP3    H212060   1.878   0.678   6.437
 4039TIP3   OH212061   7.621   4.281   2.490
 4039TIP3    H112062   7.663   4.252   2.570
 4039TIP3    H212063   7.548   4.221   2.477
 4040TIP3   OH212064   4.373   2.627   5.388
 4040TIP3    H112065   4.353   2.620   5.294
 4040TIP3    H212066   4.452   2.680   5.392
 4041TIP3   OH212067   5.772   0.324   1.910
 4041TIP3    H112068   5.690   0.367   1.934
 4041TIP3    H212069   5.815   0.306   1.994
 4042TIP3   OH212070   2.725   6.716   3.676
 4042TIP3    H112071   2.786   6.789   3.663
 4042TIP3    H212072   2.777   6.638   3.658
 4043TIP3   OH212073   7.913   4.105   5.552
 4043TIP3    H112074   7.856   4.103   5.475
 4043TIP3    H212075   7.998   4.134   5.519
 4044TIP3   OH212076   4.845   5.638   5.709
 4044TIP3    H112077   4.840   5.730   5.735
 4044TIP3    H212078   4.844   5.640   5.613
 4045TIP3   OH212079   2.295   5.067   4.656
 4045TIP3    H112080   2.366   5.130   4.665
 4045TIP3    H212081   2.217   5.120   4.645
 4046TIP3   OH212082   1.480   4.721   5.107
 4046TIP3    H112083   1.561   4.677   5.084
 4046TIP3    H212084   1.507   4.807   5.139
 4047TIP3   OH212085   1.051   4.648   2.128
 4047TIP3    H112086   0.987   4.577   2.122
 4047TIP3    H212087   1.030   4.693   2.210
 4048TIP3   OH212088   4.044   0.872   4.213
 4048TIP3    H112089   4.075   0.962   4.219
 4048TIP3    H212090   4.106   0.829   4.154
 4049TIP3   OH212091   5.512   0.562   3.760
 4049TIP3    H112092   5.436   0.523   3.716
 4049TIP3    H212093   5.546   0.626   3.696
 4050TIP3   OH212094   3.057   7.232   5.973
 4050TIP3    H112095   3.107   7.293   5.919
 4050TIP3    H212096   3.024   7.166   5.912
 4051TIP3   OH212097   0.013   3.957   3.261
 4051TIP3    H112098   0.002   3.881   3.319
 4051TIP3    H212099  -0.065   4.010   3.276
 4052TIP3   OH212100   2.071   5.732   4.681
 4052TIP3    H112101   2.134   5.788   4.634
 4052TIP3    H212102   2.054   5.779   4.763
 4053TIP3   OH212103   5.266   2.426   0.985
 4053TIP3    H112104   5.191   2.372   0.962
 4053TIP3    H212105   5.340   2.387   0.937
 4054TIP3   OH212106   0.989   0.820   3.374
 4054TIP3    H112107   0.897   0.798   3.389
 4054TIP3    H212108   1.038   0.749   3.416
 4055TIP3   OH212109   2.508   5.971   0.554
 4055TIP3    H112110   2.484   6.001   0.466
 4055TIP3    H212111   2.459   6.028   0.613
 4056TIP3   OH212112   1.615   5.626   0.812
 4056TIP3    H112113   1.588   5.553   0.756
 4056TIP3    H212114   1.534   5.655   0.854
 4057TIP3   OH212115   7.645   6.903   1.722
 4057TIP3    H112116   7.674   6.823   1.678
 4057TIP3    H212117   7.654   6.972   1.656
 4058TIP3   OH212118   5.233   7.179   4.261
 4058TIP3    H112119   5.292   7.230   4.316
 4058TIP3    H212120   5.276   7.176   4.176
 4059TIP3   OH212121   3.318   0.653   2.817
 4059TIP3    H112122   3.251   0.632   2.752
 4059TIP3    H212123   3.277   0.721   2.872
 4060TIP3   OH212124   3.098   2.986   4.302
 4060TIP3    H112125   3.051   3.069   4.310
 4060TIP3    H212126   3.152   2.996   4.224
 4061TIP3   OH212127   5.186   4.520   5.389
 4061TIP3    H112128   5.261   4.519   5.449
 4061TIP3    H212129   5.225   4.532   5.303
 4062TIP3   OH212130   4.419   4.437   1.692
 4062TIP3    H112131   4.477   4.462   1.620
 4062TIP3    H212132   4.340   4.403   1.649
 4063TIP3   OH212133   7.201   0.557   1.374
 4063TIP3    H112134   7.190   0.504   1.295
 4063TIP3    H212135   7.166   0.644   1.350
 4064TIP3   OH212136   4.374   2.162   6.727
 4064TIP3    H112137   4.434   2.090   6.741
 4064TIP3    H212138   4.308   2.152   6.796
 4065TIP3   OH212139   6.826   2.258   3.471
 4065TIP3    H112140   6.796   2.256   3.562
 4065TIP3    H212141   6.849   2.167   3.451
 4066TIP3   OH212142   7.355   6.838   5.426
 4066TIP3    H112143   7.449   6.856   5.423
 4066TIP3    H212144   7.336   6.825   5.519
 4067TIP3   OH212145   4.236   7.620   3.566
 4067TIP3    H112146   4.305   7.613   3.633
 4067TIP3    H212147   4.162   7.660   3.612
 4068TIP3   OH212148   4.569   3.645   3.932
 4068TIP3    H112149   4.649   3.603   3.901
 4068TIP3    H212150   4.505   3.632   3.862
 4069TIP3   OH212151   2.993   6.100   3.300
 4069TIP3    H112152   2.914   6.047   3.295
 4069TIP3    H212153   2.963   6.188   3.323
 4070TIP3   OH212154   5.683   1.003   3.575
 4070TIP3    H112155   5.637   1.028   3.655
 4070TIP3    H212156   5.776   1.009   3.598
 4071TIP3   OH212157   2.320   0.218   1.324
 4071TIP3    H112158   2.307   0.206   1.418
 4071TIP3    H212159   2.377   0.146   1.297
 4072TIP3   OH212160   1.043   5.361   6.168
 4072TIP3    H112161   0.984   5.426   6.131
 4072TIP3    H212162   1.125   5.372   6.120
 4073TIP3   OH212163   4.331   2.070   2.776
 4073TIP3    H112164   4.423   2.057   2.755
 4073TIP3    H212165   4.320   2.030   2.862
 4074TIP3   OH212166   5.647   5.913   0.973
 4074TIP3    H112167   5.595   5.838   0.947
 4074TIP3    H212168   5.653   5.906   1.069
 4075TIP3   OH212169   7.452   3.601   4.906
 4075TIP3    H112170   7.427   3.683   4.863
 4075TIP3    H212171   7.528   3.625   4.960
 4076TIP3   OH212172   4.248   6.839   4.058
 4076TIP3    H112173   4.217   6.761   4.013
 4076TIP3    H212174   4.239   6.909   3.993
 4077TIP3   OH212175   2.678   4.286   2.873
 4077TIP3    H112176   2.617   4.250   2.937
 4077TIP3    H212177   2.632   4.361   2.835
 4078TIP3   OH212178   5.533   4.416   6.629
 4078TIP3    H112179   5.468   4.354   6.596
 4078TIP3    H212180   5.516   4.421   6.723
 4079TIP3   OH212181   8.050   4.843   5.855
 4079TIP3    H112182   8.028   4.933   5.831
 4079TIP3    H212183   7.972   4.811   5.900
 4080TIP3   OH212184   7.000   6.878   6.009
 4080TIP3    H112185   7.000   6.818   5.934
 4080TIP3    H212186   6.916   6.865   6.051
 4081TIP3   OH212187   1.552   0.219   1.284
 4081TIP3    H112188   1.528   0.176   1.202
 4081TIP3    H212189   1.620   0.281   1.260
 4082TIP3   OH212190   7.565   5.650   1.401
 4082TIP3    H112191   7.639   5.600   1.434
 4082TIP3    H212192   7.541   5.607   1.319
 4083TIP3   OH212193   8.099   0.828   4.334
 4083TIP3    H112194   8.095   0.826   4.239
 4083TIP3    H212195   8.172   0.887   4.354
 4084TIP3   OH212196   8.163   5.595   4.899
 4084TIP3    H112197   8.249   5.596   4.942
 4084TIP3    H212198   8.105   5.639   4.960
 4085TIP3   OH212199   2.526   7.118   1.006
 4085TIP3    H112200   2.530   7.126   1.102
 4085TIP3    H212201   2.461   7.183   0.980
 4086TIP3   OH212202   8.237   4.830   5.620
 4086TIP3    H112203   8.176   4.829   5.693
 4086TIP3    H212204   8.187   4.792   5.547
 4087TIP3   OH212205   5.048   0.257   1.001
 4087TIP3    H112206   5.061   0.206   1.081
 4087TIP3    H212207   5.038   0.192   0.932
 4088TIP3   OH212208   4.856   2.090   3.471
 4088TIP3    H112209   4.909   2.136   3.536
 4088TIP3    H212210   4.889   2.000   3.471
 4089TIP3   OH212211   4.230   2.976   5.653
 4089TIP3    H112212   4.304   3.026   5.618
 4089TIP3    H212213   4.246   2.971   5.747
 4090TIP3   OH212214   3.625   3.823   3.702
 4090TIP3    H112215   3.700   3.843   3.757
 4090TIP3    H212216   3.656   3.838   3.613
 4091TIP3   OH212217   2.483   6.985   5.880
 4091TIP3    H112218   2.544   7.060   5.880
 4091TIP3    H212219   2.532   6.915   5.923
 4092TIP3   OH212220   5.304   3.653   6.224
 4092TIP3    H112221   5.240   3.623   6.158
 4092TIP3    H212222   5.388   3.646   6.179
 4093TIP3   OH212223   2.862   3.050   5.162
 4093TIP3    H112224   2.829   3.026   5.249
 4093TIP3    H212225   2.924   3.120   5.179
 4094TIP3   OH212226   0.680   1.687   4.057
 4094TIP3    H112227   0.679   1.695   3.962
 4094TIP3    H212228   0.606   1.629   4.077
 4095TIP3   OH212229   3.621   2.329   5.983
 4095TIP3    H112230   3.705   2.373   5.995
 4095TIP3    H212231   3.586   2.367   5.902
 4096TIP3   OH212232   0.703   7.044   3.199
 4096TIP3    H112233   0.620   7.091   3.197
 4096TIP3    H212234   0.684   6.960   3.158
 4097TIP3   OH212235   6.194   6.688   2.165
 4097TIP3    H112236   6.142   6.767   2.179
 4097TIP3    H212237   6.247   6.707   2.088
 4098TIP3   OH212238   5.060   6.421   2.493
 4098TIP3    H112239   5.046   6.354   2.560
 4098TIP3    H212240   5.155   6.419   2.477
 4099TIP3   OH212241   4.532   0.754   0.054
 4099TIP3    H112242   4.519   0.660   0.043
 4099TIP3    H212243   4.516   0.769   0.147
 4100TIP3   OH212244   4.490   5.662   1.744
 4100TIP3    H112245   4.486   5.626   1.833
 4100TIP3    H212246   4.399   5.663   1.714
 4101TIP3   OH212247   7.398   2.886   0.555
 4101TIP3    H112248   7.454   2.927   0.488
 4101TIP3    H212249   7.434   2.799   0.567
 4102TIP3   OH212250   4.962   1.305   6.549
 4102TIP3    H112251   4.933   1.348   6.630
 4102TIP3    H212252   4.958   1.212   6.569
 4103TIP3   OH212253   6.611   3.727   6.138
 4103TIP3    H112254   6.565   3.692   6.214
 4103TIP3    H212255   6.634   3.650   6.087
 4104TIP3   OH212256   7.200   2.842   3.770
 4104TIP3    H112257   7.217   2.763   3.822
 4104TIP3    H212258   7.171   2.809   3.685
 4105TIP3   OH212259   3.409   1.853   5.377
 4105TIP3    H112260   3.369   1.895   5.301
 4105TIP3    H212261   3.457   1.923   5.421
 4106TIP3   OH212262   1.622   5.748   5.484
 4106TIP3    H112263   1.716   5.763   5.496
 4106TIP3    H212264   1.581   5.799   5.554
 4107TIP3   OH212265   1.413   5.239   4.436
 4107TIP3    H112266   1.487   5.223   4.495
 4107TIP3    H212267   1.404   5.158   4.386
 4108TIP3   OH212268   3.796   6.722   3.983
 4108TIP3    H112269   3.739   6.796   3.964
 4108TIP3    H212270   3.741   6.645   3.969
 4109TIP3   OH212271   6.990   5.777   0.655
 4109TIP3    H112272   7.080   5.808   0.649
 4109TIP3    H212273   6.938   5.846   0.613
 4110TIP3   OH212274   5.724   0.668   5.905
 4110TIP3    H112275   5.677   0.642   5.984
 4110TIP3    H212276   5.663   0.650   5.834
 4111TIP3   OH212277   6.582   4.293   5.721
 4111TIP3    H112278   6.639   4.227   5.762
 4111TIP3    H212279   6.624   4.311   5.637
 4112TIP3   OH212280   6.779   0.682   3.304
 4112TIP3    H112281   6.752   0.627   3.377
 4112TIP3    H212282   6.708   0.746   3.294
 4113TIP3   OH212283   2.756   4.797   3.967
 4113TIP3    H112284   2.805   4.807   3.885
 4113TIP3    H212285   2.668   4.827   3.946
 4114TIP3   OH212286   5.229   2.826   5.670
 4114TIP3    H112287   5.157   2.829   5.606
 4114TIP3    H212288   5.229   2.736   5.701
 4115TIP3   OH212289   2.178   7.008   5.938
 4115TIP3    H112290   2.274   7.005   5.933
 4115TIP3    H212291   2.153   6.922   5.972
 4116TIP3   OH212292   2.430   7.371   2.539
 4116TIP3    H112293   2.400   7.458   2.512
 4116TIP3    H212294   2.517   7.387   2.576
 4117TIP3   OH212295   3.453   6.355   3.603
 4117TIP3    H112296   3.471   6.434   3.551
 4117TIP3    H212297   3.358   6.359   3.619
 4118TIP3   OH212298   0.495   3.913   0.464
 4118TIP3    H112299   0.547   3.935   0.542
 4118TIP3    H212300   0.552   3.855   0.413
 4119TIP3   OH212301   3.439   3.993   2.094
 4119TIP3    H112302   3.462   3.903   2.074
 4119TIP3    H212303   3.354   3.988   2.136
 4120TIP3   OH212304   6.353   3.116   6.029
 4120TIP3    H112305   6.422   3.055   6.057
 4120TIP3    H212306   6.300   3.065   5.967
 4121TIP3   OH212307   5.471   1.874   0.580
 4121TIP3    H112308   5.390   1.880   0.528
 4121TIP3    H212309   5.496   1.782   0.573
 4122TIP3   OH212310   3.770   7.192   5.561
 4122TIP3    H112311   3.831   7.262   5.583
 4122TIP3    H212312   3.684   7.235   5.562
 4123TIP3   OH212313   1.219   4.651   6.522
 4123TIP3    H112314   1.218   4.556   6.512
 4123TIP3    H212315   1.312   4.674   6.526
 4124TIP3   OH212316   3.307   0.334   3.693
 4124TIP3    H112317   3.278   0.381   3.770
 4124TIP3    H212318   3.260   0.375   3.620
 4125TIP3   OH212319   0.241   0.986   6.068
 4125TIP3    H112320   0.294   0.913   6.099
 4125TIP3    H212321   0.202   0.954   5.986
 4126TIP3   OH212322   1.422   6.957   0.336
 4126TIP3    H112323   1.347   6.911   0.300
 4126TIP3    H212324   1.394   6.984   0.424
 4127TIP3   OH212325   5.319   3.750   3.215
 4127TIP3    H112326   5.234   3.707   3.214
 4127TIP3    H212327   5.325   3.791   3.128
 4128TIP3   OH212328   2.218   4.366   2.070
 4128TIP3    H112329   2.154   4.304   2.036
 4128TIP3    H212330   2.236   4.425   1.996
 4129TIP3   OH212331   5.673   3.096   2.750
 4129TIP3    H112332   5.630   3.168   2.795
 4129TIP3    H212333   5.711   3.135   2.672
 4130TIP3   OH212334   7.157   6.958   4.215
 4130TIP3    H112335   7.122   6.872   4.239
 4130TIP3    H212336   7.195   6.991   4.297
 4131TIP3   OH212337   5.033   1.728   2.329
 4131TIP3    H112338   5.012   1.821   2.340
 4131TIP3    H212339   5.061   1.700   2.416
 4132TIP3   OH212340   7.156   0.282   0.525
 4132TIP3    H112341   7.068   0.294   0.563
 4132TIP3    H212342   7.174   0.364   0.479
 4133TIP3   OH212343   7.306   4.659   5.060
 4133TIP3    H112344   7.264   4.727   5.008
 4133TIP3    H212345   7.285   4.681   5.151
 4134TIP3   OH212346   2.431   1.542   6.714
 4134TIP3    H112347   2.394   1.507   6.633
 4134TIP3    H212348   2.359   1.590   6.755
 4135TIP3   OH212349   4.335   1.644   4.238
 4135TIP3    H112350   4.401   1.693   4.286
 4135TIP3    H212351   4.377   1.561   4.216
 4136TIP3   OH212352   2.827   2.457   3.941
 4136TIP3    H112353   2.826   2.486   3.850
 4136TIP3    H212354   2.920   2.443   3.960
 4137TIP3   OH212355   2.788   1.396   2.194
 4137TIP3    H112356   2.875   1.437   2.193
 4137TIP3    H212357   2.755   1.407   2.105
 4138TIP3   OH212358   1.699   6.627   6.224
 4138TIP3    H112359   1.695   6.545   6.274
 4138TIP3    H212360   1.793   6.645   6.216
 4139TIP3   OH212361   1.620   2.262   2.620
 4139TIP3    H112362   1.631   2.289   2.529
 4139TIP3    H212363   1.710   2.256   2.654
 4140TIP3   OH212364   3.858   4.688   0.054
 4140TIP3    H112365   3.897   4.601   0.066
 4140TIP3    H212366   3.859   4.702  -0.041
 4141TIP3   OH212367   2.179   2.239   5.992
 4141TIP3    H112368   2.107   2.187   6.027
 4141TIP3    H212369   2.247   2.233   6.060
 4142TIP3   OH212370   0.611   2.650   5.309
 4142TIP3    H112371   0.540   2.714   5.305
 4142TIP3    H212372   0.672   2.685   5.374
 4143TIP3   OH212373   2.445   2.480   2.214
 4143TIP3    H112374   2.416   2.454   2.126
 4143TIP3    H212375   2.377   2.541   2.244
 4144TIP3   OH212376   3.049   2.301   4.890
 4144TIP3    H112377   2.978   2.344   4.843
 4144TIP3    H212378   3.128   2.343   4.857
 4145TIP3   OH212379   1.784   0.594   3.616
 4145TIP3    H112380   1.858   0.534   3.628
 4145TIP3    H212381   1.722   0.569   3.685
 4146TIP3   OH212382   2.894   2.144   1.293
 4146TIP3    H112383   2.849   2.060   1.287
 4146TIP3    H212384   2.979   2.128   1.253
 4147TIP3   OH212385   1.489   4.720   4.681
 4147TIP3    H112386   1.466   4.695   4.592
 4147TIP3    H212387   1.440   4.658   4.736
 4148TIP3   OH212388   2.975   4.238   6.703
 4148TIP3    H112389   2.886   4.239   6.738
 4148TIP3    H212390   2.977   4.161   6.646
 4149TIP3   OH212391   1.515   2.648   2.939
 4149TIP3    H112392   1.590   2.601   2.902
 4149TIP3    H212393   1.537   2.659   3.031
 4150TIP3   OH212394   6.543   3.053   1.705
 4150TIP3    H112395   6.637   3.037   1.711
 4150TIP3    H212396   6.503   2.978   1.749
 4151TIP3   OH212397   7.348   5.807   4.889
 4151TIP3    H112398   7.260   5.838   4.871
 4151TIP3    H212399   7.339   5.755   4.969
 4152TIP3   OH212400   3.329   2.646   0.270
 4152TIP3    H112401   3.417   2.675   0.246
 4152TIP3    H212402   3.320   2.560   0.230
 4153TIP3   OH212403   2.890   3.931   4.199
 4153TIP3    H112404   2.965   3.899   4.249
 4153TIP3    H212405   2.819   3.934   4.263
 4154TIP3   OH212406   0.389   1.784   4.329
 4154TIP3    H112407   0.371   1.814   4.240
 4154TIP3    H212408   0.321   1.825   4.383
 4155TIP3   OH212409   0.775   2.404   1.419
 4155TIP3    H112410   0.768   2.326   1.474
 4155TIP3    H212411   0.699   2.400   1.361
 4156TIP3   OH212412   1.763   0.692   1.405
 4156TIP3    H112413   1.722   0.758   1.349
 4156TIP3    H212414   1.718   0.701   1.489
 4157TIP3   OH212415   0.104   2.698   0.641
 4157TIP3    H112416   0.108   2.627   0.706
 4157TIP3    H212417   0.156   2.768   0.680
 4158TIP3   OH212418   1.089   3.245   6.489
 4158TIP3    H112419   1.140   3.315   6.528
 4158TIP3    H212420   1.085   3.267   6.396
 4159TIP3   OH212421   5.836   4.190   5.435
 4159TIP3    H112422   5.761   4.143   5.473
 4159TIP3    H212423   5.848   4.267   5.492
 4160TIP3   OH212424   3.500   7.118   6.258
 4160TIP3    H112425   3.548   7.089   6.335
 4160TIP3    H212426   3.531   7.207   6.242
 4161TIP3   OH212427   6.886   2.622   3.268
 4161TIP3    H112428   6.830   2.646   3.194
 4161TIP3    H212429   6.876   2.694   3.330
 4162TIP3   OH212430   2.677   0.694   3.335
 4162TIP3    H112431   2.647   0.778   3.370
 4162TIP3    H212432   2.699   0.643   3.413
 4163TIP3   OH212433   6.302   6.266   5.387
 4163TIP3    H112434   6.319   6.279   5.294
 4163TIP3    H212435   6.274   6.175   5.394
 4164TIP3   OH212436   3.582   5.211   5.318
 4164TIP3    H112437   3.509   5.173   5.270
 4164TIP3    H212438   3.600   5.294   5.272
 4165TIP3   OH212439   7.896   1.661   2.383
 4165TIP3    H112440   7.871   1.619   2.301
 4165TIP3    H212441   7.949   1.595   2.428
 4166TIP3   OH212442   6.331   3.519   1.238
 4166TIP3    H112443   6.266   3.459   1.202
 4166TIP3    H212444   6.412   3.498   1.192
 4167TIP3   OH212445   4.427   7.677   2.179
 4167TIP3    H112446   4.515   7.716   2.183
 4167TIP3    H212447   4.430   7.619   2.104
 4168TIP3   OH212448   0.264   6.075   4.182
 4168TIP3    H112449   0.253   6.104   4.273
 4168TIP3    H212450   0.338   6.015   4.184
 4169TIP3   OH212451   2.727   1.539   1.603
 4169TIP3    H112452   2.670   1.501   1.670
 4169TIP3    H212453   2.815   1.532   1.639
 4170TIP3   OH212454   4.654   5.071   1.247
 4170TIP3    H112455   4.651   5.134   1.319
 4170TIP3    H212456   4.712   5.112   1.182
 4171TIP3   OH212457   7.193   5.089   5.575
 4171TIP3    H112458   7.268   5.040   5.608
 4171TIP3    H212459   7.196   5.076   5.480
 4172TIP3   OH212460   3.301   0.831   1.867
 4172TIP3    H112461   3.328   0.842   1.775
 4172TIP3    H212462   3.356   0.760   1.899
 4173TIP3   OH212463   8.196   6.531   5.916
 4173TIP3    H112464   8.165   6.480   5.841
 4173TIP3    H212465   8.119   6.580   5.944
 4174TIP3   OH212466   4.146   1.037   4.888
 4174TIP3    H112467   4.196   0.993   4.819
 4174TIP3    H212468   4.142   0.974   4.960
 4175TIP3   OH212469   4.261   2.013   0.441
 4175TIP3    H112470   4.268   2.108   0.441
 4175TIP3    H212471   4.173   1.994   0.409
 4176TIP3   OH212472   2.164   1.754   2.913
 4176TIP3    H112473   2.257   1.766   2.936
 4176TIP3    H212474   2.143   1.830   2.859
 4177TIP3   OH212475   0.325   0.935   5.643
 4177TIP3    H112476   0.326   0.860   5.583
 4177TIP3    H212477   0.399   0.920   5.701
 4178TIP3   OH212478   3.459   7.065   5.150
 4178TIP3    H112479   3.408   7.078   5.231
 4178TIP3    H212480   3.445   6.974   5.127
 4179TIP3   OH212481   7.893   3.374   5.063
 4179TIP3    H112482   7.880   3.281   5.047
 4179TIP3    H212483   7.866   3.417   4.982
 4180TIP3   OH212484   4.421   6.139   2.961
 4180TIP3    H112485   4.481   6.213   2.964
 4180TIP3    H212486   4.473   6.064   2.990
 4181TIP3   OH212487   1.588   2.842   1.175
 4181TIP3    H112488   1.571   2.923   1.223
 4181TIP3    H212489   1.641   2.869   1.100
 4182TIP3   OH212490   3.022   4.362   5.696
 4182TIP3    H112491   3.011   4.443   5.747
 4182TIP3    H212492   3.017   4.390   5.605
 4183TIP3   OH212493   3.648   5.476   3.199
 4183TIP3    H112494   3.612   5.563   3.187
 4183TIP3    H212495   3.643   5.459   3.293
 4184TIP3   OH212496   1.009   0.275   0.975
 4184TIP3    H112497   0.994   0.346   1.038
 4184TIP3    H212498   1.039   0.201   1.028
 4185TIP3   OH212499   4.420   6.498   5.719
 4185TIP3    H112500   4.329   6.470   5.716
 4185TIP3    H212501   4.432   6.552   5.641
 4186TIP3   OH212502   6.728   6.399   1.437
 4186TIP3    H112503   6.782   6.325   1.409
 4186TIP3    H212504   6.737   6.463   1.366
 4187TIP3   OH212505   1.158   3.709   3.388
 4187TIP3    H112506   1.250   3.734   3.394
 4187TIP3    H212507   1.147   3.676   3.299
 4188TIP3   OH212508   4.565   7.302   4.696
 4188TIP3    H112509   4.520   7.286   4.613
 4188TIP3    H212510   4.533   7.233   4.754
 4189TIP3   OH212511   6.668   4.930   4.125
 4189TIP3    H112512   6.712   4.937   4.040
 4189TIP3    H212513   6.702   4.849   4.162
 4190TIP3   OH212514   2.724   6.255   3.027
 4190TIP3    H112515   2.677   6.331   3.061
 4190TIP3    H212516   2.669   6.180   3.052
 4191TIP3   OH212517   5.749   5.940   6.507
 4191TIP3    H112518   5.673   5.983   6.545
 4191TIP3    H212519   5.782   6.001   6.441
 4192TIP3   OH212520   3.320   7.583   4.701
 4192TIP3    H112521   3.261   7.607   4.631
 4192TIP3    H212522   3.264   7.570   4.777
 4193TIP3   OH212523   0.342   3.455   4.785
 4193TIP3    H112524   0.258   3.483   4.821
 4193TIP3    H212525   0.334   3.360   4.777
 4194TIP3   OH212526   0.799   5.681   1.276
 4194TIP3    H112527   0.720   5.701   1.226
 4194TIP3    H212528   0.835   5.766   1.300
 4195TIP3   OH212529   2.058   7.224   1.060
 4195TIP3    H112530   2.004   7.300   1.084
 4195TIP3    H212531   2.020   7.151   1.109
 4196TIP3   OH212532   5.156   5.016   2.288
 4196TIP3    H112533   5.231   5.017   2.229
 4196TIP3    H212534   5.166   4.935   2.339
 4197TIP3   OH212535   7.647   2.889   3.597
 4197TIP3    H112536   7.729   2.861   3.556
 4197TIP3    H212537   7.619   2.965   3.545
 4198TIP3   OH212538   3.895   2.122   2.545
 4198TIP3    H112539   3.957   2.049   2.547
 4198TIP3    H212540   3.861   2.128   2.634
 4199TIP3   OH212541   6.388   5.280   6.261
 4199TIP3    H112542   6.301   5.260   6.295
 4199TIP3    H212543   6.405   5.370   6.292
 4200TIP3   OH212544   4.583   3.072   1.196
 4200TIP3    H112545   4.649   3.079   1.128
 4200TIP3    H212546   4.605   3.141   1.258
 4201TIP3   OH212547   7.519   5.798   0.547
 4201TIP3    H112548   7.552   5.787   0.636
 4201TIP3    H212549   7.596   5.789   0.491
 4202TIP3   OH212550   2.949   1.601   3.043
 4202TIP3    H112551   3.033   1.585   3.084
 4202TIP3    H212552   2.968   1.663   2.972
 4203TIP3   OH212553   3.377   3.906   3.263
 4203TIP3    H112554   3.384   3.875   3.353
 4203TIP3    H212555   3.283   3.920   3.249
 4204TIP3   OH212556   4.812   3.035   0.603
 4204TIP3    H112557   4.835   2.980   0.679
 4204TIP3    H212558   4.736   3.085   0.632
 4205TIP3   OH212559   0.388   6.263   5.375
 4205TIP3    H112560   0.327   6.319   5.328
 4205TIP3    H212561   0.345   6.177   5.378
 4206TIP3   OH212562   8.107   4.125   5.260
 4206TIP3    H112563   8.143   4.210   5.234
 4206TIP3    H212564   8.181   4.081   5.304
 4207TIP3   OH212565   0.830   7.261   3.353
 4207TIP3    H112566   0.843   7.213   3.435
 4207TIP3    H212567   0.798   7.194   3.292
 4208TIP3   OH212568   0.820   3.062   5.577
 4208TIP3    H112569   0.907   3.102   5.571
 4208TIP3    H212570   0.817   3.024   5.665
 4209TIP3   OH212571   4.956   2.004   2.370
 4209TIP3    H112572   5.038   2.047   2.346
 4209TIP3    H212573   4.888   2.066   2.343
 4210TIP3   OH212574   5.555   6.340   4.723
 4210TIP3    H112575   5.541   6.412   4.784
 4210TIP3    H212576   5.649   6.326   4.723
 4211TIP3   OH212577   4.053   4.079   2.379
 4211TIP3    H112578   4.027   4.098   2.289
 4211TIP3    H212579   3.974   4.044   2.420
 4212TIP3   OH212580   3.381   4.244   5.645
 4212TIP3    H112581   3.326   4.183   5.694
 4212TIP3    H212582   3.447   4.188   5.603
 4213TIP3   OH212583   5.342   2.085   0.911
 4213TIP3    H112584   5.359   2.076   0.817
 4213TIP3    H212585   5.252   2.117   0.916
 4214TIP3   OH212586   3.712   2.311   5.509
 4214TIP3    H112587   3.798   2.347   5.531
 4214TIP3    H212588   3.663   2.385   5.475
 4215TIP3   OH212589   8.220   6.775   5.122
 4215TIP3    H112590   8.190   6.700   5.173
 4215TIP3    H212591   8.207   6.850   5.179
 4216TIP3   OH212592   8.189   6.672   2.901
 4216TIP3    H112593   8.262   6.693   2.843
 4216TIP3    H212594   8.208   6.719   2.982
 4217TIP3   OH212595   7.418   7.391   0.181
 4217TIP3    H112596   7.359   7.390   0.256
 4217TIP3    H212597   7.373   7.445   0.116
 4218TIP3   OH212598   6.121   5.147   2.413
 4218TIP3    H112599   6.039   5.103   2.437
 4218TIP3    H212600   6.093   5.229   2.372
 4219TIP3   OH212601   0.439   6.021   5.643
 4219TIP3    H112602   0.450   6.076   5.721
 4219TIP3    H212603   0.515   6.041   5.588
 4220TIP3   OH212604   3.102   3.881   0.745
 4220TIP3    H112605   3.143   3.906   0.663
 4220TIP3    H212606   3.173   3.845   0.798
 4221TIP3   OH212607   5.716   6.618   5.390
 4221TIP3    H112608   5.651   6.667   5.442
 4221TIP3    H212609   5.668   6.592   5.311
 4222TIP3   OH212610   2.044   6.711   1.078
 4222TIP3    H112611   2.127   6.721   1.031
 4222TIP3    H212612   2.048   6.621   1.113
 4223TIP3   OH212613   8.235   4.011   1.306
 4223TIP3    H112614   8.310   4.039   1.254
 4223TIP3    H212615   8.166   4.072   1.282
 4224TIP3   OH212616   0.606   6.821   5.181
 4224TIP3    H112617   0.550   6.892   5.150
 4224TIP3    H212618   0.685   6.864   5.212
 4225TIP3   OH212619   0.290   6.422   1.561
 4225TIP3    H112620   0.373   6.376   1.547
 4225TIP3    H212621   0.249   6.375   1.634
 4226TIP3   OH212622   7.448   4.031   4.229
 4226TIP3    H112623   7.361   4.051   4.195
 4226TIP3    H212624   7.505   4.098   4.192
 4227TIP3   OH212625   3.978   1.283   1.045
 4227TIP3    H112626   3.927   1.360   1.022
 4227TIP3    H212627   3.933   1.245   1.120
 4228TIP3   OH212628   6.968   3.329   5.201
 4228TIP3    H112629   6.897   3.278   5.162
 4228TIP3    H212630   7.020   3.360   5.126
 4229TIP3   OH212631   1.839  -0.023   1.882
 4229TIP3    H112632   1.934  -0.015   1.882
 4229TIP3    H212633   1.807   0.065   1.865
 4230TIP3   OH212634   5.240   5.094   3.312
 4230TIP3    H112635   5.254   5.176   3.266
 4230TIP3    H212636   5.145   5.089   3.322
 4231TIP3   OH212637   5.558   1.354   3.989
 4231TIP3    H112638   5.545   1.406   3.910
 4231TIP3    H212639   5.472   1.355   4.032
 4232TIP3   OH212640   1.934   7.433   5.660
 4232TIP3    H112641   2.002   7.459   5.598
 4232TIP3    H212642   1.852   7.444   5.611
 4233TIP3   OH212643   1.342   3.946   5.158
 4233TIP3    H112644   1.262   3.946   5.105
 4233TIP3    H212645   1.337   4.029   5.207
 4234TIP3   OH212646   5.509   2.869   1.346
 4234TIP3    H112647   5.426   2.822   1.339
 4234TIP3    H212648   5.489   2.946   1.399
 4235TIP3   OH212649   6.703   7.372   2.499
 4235TIP3    H112650   6.647   7.444   2.527
 4235TIP3    H212651   6.742   7.402   2.417
 4236TIP3   OH212652   2.395   3.309   5.289
 4236TIP3    H112653   2.352   3.224   5.293
 4236TIP3    H212654   2.395   3.341   5.380
 4237TIP3   OH212655   5.150   3.683   5.983
 4237TIP3    H112656   5.159   3.712   5.892
 4237TIP3    H212657   5.081   3.617   5.980
 4238TIP3   OH212658   0.357   1.136   6.650
 4238TIP3    H112659   0.398   1.137   6.736
 4238TIP3    H212660   0.402   1.205   6.601
 4239TIP3   OH212661   0.419   1.862   5.497
 4239TIP3    H112662   0.432   1.942   5.446
 4239TIP3    H212663   0.451   1.884   5.584
 4240TIP3   OH212664   4.983   4.448   4.612
 4240TIP3    H112665   5.059   4.494   4.646
 4240TIP3    H212666   4.977   4.475   4.520
 4241TIP3   OH212667   0.729   5.662   2.725
 4241TIP3    H112668   0.709   5.734   2.666
 4241TIP3    H212669   0.653   5.603   2.718
 4242TIP3   OH212670   4.415   2.805   6.080
 4242TIP3    H112671   4.382   2.741   6.142
 4242TIP3    H212672   4.503   2.825   6.111
 4243TIP3   OH212673   1.366   3.730   0.106
 4243TIP3    H112674   1.440   3.791   0.111
 4243TIP3    H212675   1.405   3.649   0.074
 4244TIP3   OH212676   1.782   5.516   4.205
 4244TIP3    H112677   1.815   5.578   4.270
 4244TIP3    H212678   1.776   5.433   4.252
 4245TIP3   OH212679   1.896   2.736   2.371
 4245TIP3    H112680   1.970   2.778   2.414
 4245TIP3    H212681   1.831   2.805   2.361
 4246TIP3   OH212682   0.760   2.467   6.673
 4246TIP3    H112683   0.806   2.525   6.733
 4246TIP3    H212684   0.758   2.515   6.590
 4247TIP3   OH212685   1.030   5.219   1.694
 4247TIP3    H112686   0.998   5.249   1.608
 4247TIP3    H212687   1.015   5.294   1.752
 4248TIP3   OH212688   6.151   4.737   0.514
 4248TIP3    H112689   6.074   4.688   0.485
 4248TIP3    H212690   6.125   4.777   0.597
 4249TIP3   OH212691   5.851   3.156   4.661
 4249TIP3    H112692   5.856   3.061   4.665
 4249TIP3    H212693   5.763   3.177   4.692
 4250TIP3   OH212694   0.199   2.776   4.455
 4250TIP3    H112695   0.273   2.807   4.403
 4250TIP3    H212696   0.221   2.799   4.545
 4251TIP3   OH212697   0.530   4.908   5.176
 4251TIP3    H112698   0.553   4.879   5.087
 4251TIP3    H212699   0.593   4.863   5.232
 4252TIP3   OH212700   0.129   2.586   1.550
 4252TIP3    H112701   0.210   2.584   1.500
 4252TIP3    H212702   0.063   2.551   1.491
 4253TIP3   OH212703   3.163   5.069   2.592
 4253TIP3    H112704   3.148   5.019   2.511
 4253TIP3    H212705   3.095   5.039   2.652
 4254TIP3   OH212706   7.347   1.950   1.760
 4254TIP3    H112707   7.271   1.967   1.703
 4254TIP3    H212708   7.350   2.025   1.819
 4255TIP3   OH212709   4.774   2.879   1.286
 4255TIP3    H112710   4.742   2.845   1.202
 4255TIP3    H212711   4.831   2.810   1.319
 4256TIP3   OH212712   2.211   5.363   0.887
 4256TIP3    H112713   2.254   5.447   0.904
 4256TIP3    H212714   2.194   5.365   0.792
 4257TIP3   OH212715   4.884   3.933   6.419
 4257TIP3    H112716   4.827   3.895   6.352
 4257TIP3    H212717   4.861   3.885   6.499
 4258TIP3   OH212718   0.720   5.545   4.417
 4258TIP3    H112719   0.786   5.518   4.353
 4258TIP3    H212720   0.679   5.464   4.445
 4259TIP3   OH212721   5.911   7.682   5.820
 4259TIP3    H112722   5.976   7.653   5.885
 4259TIP3    H212723   5.830   7.691   5.870
 4260TIP3   OH212724   2.363   6.181   1.980
 4260TIP3    H112725   2.352   6.248   2.047
 4260TIP3    H212726   2.424   6.118   2.017
 4261TIP3   OH212727   4.756   5.204   2.442
 4261TIP3    H112728   4.736   5.261   2.516
 4261TIP3    H212729   4.677   5.152   2.430
 4262TIP3   OH212730   7.639   6.013   3.361
 4262TIP3    H112731   7.689   6.031   3.281
 4262TIP3    H212732   7.695   5.955   3.412
 4263TIP3   OH212733   6.516   1.837   5.088
 4263TIP3    H112734   6.589   1.874   5.137
 4263TIP3    H212735   6.508   1.892   5.010
 4264TIP3   OH212736   5.680   0.620   2.165
 4264TIP3    H112737   5.680   0.716   2.166
 4264TIP3    H212738   5.630   0.596   2.087
 4265TIP3   OH212739   2.338   0.769   2.427
 4265TIP3    H112740   2.391   0.759   2.348
 4265TIP3    H212741   2.387   0.721   2.494
 4266TIP3   OH212742   8.172   0.398   2.038
 4266TIP3    H112743   8.214   0.479   2.010
 4266TIP3    H212744   8.244   0.340   2.060
 4267TIP3   OH212745   4.177   0.858   6.782
 4267TIP3    H112746   4.244   0.923   6.804
 4267TIP3    H212747   4.094   0.902   6.802
 4268TIP3   OH212748   4.437   1.077   3.701
 4268TIP3    H112749   4.389   1.106   3.624
 4268TIP3    H212750   4.461   0.987   3.683
 4269TIP3   OH212751   1.952   5.323   4.410
 4269TIP3    H112752   1.914   5.279   4.334
 4269TIP3    H212753   1.980   5.251   4.467
 4270TIP3   OH212754   7.299   7.491   1.882
 4270TIP3    H112755   7.379   7.439   1.884
 4270TIP3    H212756   7.330   7.580   1.863
 4271TIP3   OH212757   6.960   7.247   3.108
 4271TIP3    H112758   7.013   7.295   3.172
 4271TIP3    H212759   6.951   7.307   3.034
 4272TIP3   OH212760   7.479   5.999   1.291
 4272TIP3    H112761   7.550   6.054   1.323
 4272TIP3    H212762   7.457   5.943   1.365
 4273TIP3   OH212763   4.359   2.251   0.306
 4273TIP3    H112764   4.444   2.266   0.348
 4273TIP3    H212765   4.369   2.285   0.217
 4274TIP3   OH212766   7.577   3.977   1.689
 4274TIP3    H112767   7.576   3.892   1.645
 4274TIP3    H212768   7.620   3.961   1.773
 4275TIP3   OH212769   4.972   4.008   3.672
 4275TIP3    H112770   4.992   4.014   3.765
 4275TIP3    H212771   5.004   4.091   3.635
 4276TIP3   OH212772   1.161   1.726   6.142
 4276TIP3    H112773   1.107   1.666   6.092
 4276TIP3    H212774   1.161   1.807   6.091
 4277TIP3   OH212775   5.679   2.075   1.419
 4277TIP3    H112776   5.699   2.146   1.480
 4277TIP3    H212777   5.709   2.107   1.334
 4278TIP3   OH212778   7.431   3.349   1.778
 4278TIP3    H112779   7.428   3.444   1.783
 4278TIP3    H212780   7.512   3.325   1.822
 4279TIP3   OH212781   4.688   5.805   2.328
 4279TIP3    H112782   4.763   5.863   2.342
 4279TIP3    H212783   4.684   5.793   2.233
 4280TIP3   OH212784   0.513   3.719   1.575
 4280TIP3    H112785   0.476   3.804   1.602
 4280TIP3    H212786   0.547   3.681   1.656
 4281TIP3   OH212787   6.232   4.924   0.933
 4281TIP3    H112788   6.219   5.018   0.949
 4281TIP3    H212789   6.175   4.881   0.996
 4282TIP3   OH212790   8.213   7.228   4.180
 4282TIP3    H112791   8.196   7.290   4.252
 4282TIP3    H212792   8.254   7.153   4.223
 4283TIP3   OH212793   2.482   7.313   6.341
 4283TIP3    H112794   2.509   7.386   6.285
 4283TIP3    H212795   2.520   7.236   6.299
 4284TIP3   OH212796   6.015   0.248   3.315
 4284TIP3    H112797   6.039   0.216   3.228
 4284TIP3    H212798   5.979   0.171   3.360
 4285TIP3   OH212799   3.629   3.699   5.353
 4285TIP3    H112800   3.602   3.659   5.436
 4285TIP3    H212801   3.684   3.773   5.379
 4286TIP3   OH212802   6.214   1.246   2.041
 4286TIP3    H112803   6.284   1.296   1.999
 4286TIP3    H212804   6.142   1.309   2.050
 4287TIP3   OH212805   7.214   5.829   0.163
 4287TIP3    H112806   7.154   5.873   0.223
 4287TIP3    H212807   7.301   5.847   0.199
 4288TIP3   OH212808   8.238   5.948   2.619
 4288TIP3    H112809   8.166   6.010   2.606
 4288TIP3    H212810   8.306   5.999   2.662
 4289TIP3   OH212811   7.899   0.309   0.898
 4289TIP3    H112812   7.823   0.258   0.925
 4289TIP3    H212813   7.974   0.253   0.916
 4290TIP3   OH212814   4.846   0.683   6.159
 4290TIP3    H112815   4.831   0.631   6.080
 4290TIP3    H212816   4.859   0.772   6.127
 4291TIP3   OH212817   2.764   3.853   0.760
 4291TIP3    H112818   2.748   3.766   0.797
 4291TIP3    H212819   2.859   3.865   0.768
 4292TIP3   OH212820   3.702   3.779   0.814
 4292TIP3    H112821   3.743   3.860   0.846
 4292TIP3    H212822   3.678   3.732   0.894
 4293TIP3   OH212823   6.166   0.514   1.832
 4293TIP3    H112824   6.233   0.569   1.792
 4293TIP3    H212825   6.088   0.529   1.777
 4294TIP3   OH212826   5.858   5.358   5.273
 4294TIP3    H112827   5.903   5.278   5.248
 4294TIP3    H212828   5.766   5.333   5.282
 4295TIP3   OH212829   7.002   4.266   2.843
 4295TIP3    H112830   6.956   4.222   2.915
 4295TIP3    H212831   7.001   4.359   2.868
 4296TIP3   OH212832   7.621   7.115   2.645
 4296TIP3    H112833   7.680   7.139   2.574
 4296TIP3    H212834   7.539   7.091   2.602
 4297TIP3   OH212835   4.137   2.054   0.916
 4297TIP3    H112836   4.193   2.032   0.842
 4297TIP3    H212837   4.139   2.149   0.921
 4298TIP3   OH212838   0.706   0.895   3.911
 4298TIP3    H112839   0.622   0.853   3.929
 4298TIP3    H212840   0.710   0.968   3.972
 4299TIP3   OH212841   2.088   2.751   4.292
 4299TIP3    H112842   2.127   2.798   4.366
 4299TIP3    H212843   2.069   2.664   4.326
 4300TIP3   OH212844   0.784   2.110   1.034
 4300TIP3    H112845   0.703   2.114   1.086
 4300TIP3    H212846   0.835   2.185   1.064
 4301TIP3   OH212847   5.829   2.009   2.607
 4301TIP3    H112848   5.885   1.972   2.676
 4301TIP3    H212849   5.879   2.081   2.570
 4302TIP3   OH212850   3.922   4.249   3.390
 4302TIP3    H112851   3.947   4.235   3.298
 4302TIP3    H212852   3.989   4.309   3.424
 4303TIP3   OH212853   7.668   5.996   5.847
 4303TIP3    H112854   7.613   6.054   5.794
 4303TIP3    H212855   7.723   5.951   5.784
 4304TIP3   OH212856   6.159   0.868   5.483
 4304TIP3    H112857   6.164   0.918   5.401
 4304TIP3    H212858   6.125   0.931   5.546
 4305TIP3   OH212859   0.123   3.925   3.638
 4305TIP3    H112860   0.193   3.940   3.574
 4305TIP3    H212861   0.060   3.868   3.592
 4306TIP3   OH212862   4.711   4.030   2.142
 4306TIP3    H112863   4.790   3.996   2.184
 4306TIP3    H212864   4.741   4.107   2.094
 4307TIP3   OH212865   0.996   5.938   2.608
 4307TIP3    H112866   0.977   5.848   2.582
 4307TIP3    H212867   0.988   5.938   2.703
 4308TIP3   OH212868   4.730   6.876   0.117
 4308TIP3    H112869   4.671   6.881   0.192
 4308TIP3    H212870   4.738   6.966   0.086
 4309TIP3   OH212871   8.158   6.342   4.790
 4309TIP3    H112872   8.084   6.348   4.729
 4309TIP3    H212873   8.201   6.260   4.768
 4310TIP3   OH212874   4.320   3.794   4.026
 4310TIP3    H112875   4.407   3.753   4.030
 4310TIP3    H212876   4.267   3.745   4.089
 4311TIP3   OH212877   6.752   4.396   1.507
 4311TIP3    H112878   6.843   4.423   1.518
 4311TIP3    H212879   6.756   4.317   1.455
 4312TIP3   OH212880   8.235   6.306   0.281
 4312TIP3    H112881   8.233   6.398   0.253
 4312TIP3    H212882   8.148   6.290   0.318
 4313TIP3   OH212883   7.438   4.628   3.777
 4313TIP3    H112884   7.420   4.638   3.870
 4313TIP3    H212885   7.356   4.655   3.734
 4314TIP3   OH212886   1.599   2.855   5.704
 4314TIP3    H112887   1.651   2.933   5.687
 4314TIP3    H212888   1.646   2.808   5.772
 4315TIP3   OH212889   5.392   5.610   3.521
 4315TIP3    H112890   5.481   5.634   3.546
 4315TIP3    H212891   5.388   5.515   3.534
 4316TIP3   OH212892   3.582   4.267   4.400
 4316TIP3    H112893   3.506   4.209   4.401
 4316TIP3    H212894   3.569   4.323   4.323
 4317TIP3   OH212895   7.517   1.841   3.921
 4317TIP3    H112896   7.611   1.852   3.931
 4317TIP3    H212897   7.482   1.931   3.925
 4318TIP3   OH212898   1.939   7.193   4.101
 4318TIP3    H112899   1.938   7.231   4.014
 4318TIP3    H212900   1.882   7.249   4.153
 4319TIP3   OH212901   7.669   0.318   3.465
 4319TIP3    H112902   7.645   0.350   3.378
 4319TIP3    H212903   7.685   0.224   3.453
 4320TIP3   OH212904   4.708   5.270   3.728
 4320TIP3    H112905   4.647   5.343   3.719
 4320TIP3    H212906   4.698   5.220   3.647
 4321TIP3   OH212907   1.646   0.294   4.387
 4321TIP3    H112908   1.682   0.290   4.476
 4321TIP3    H212909   1.551   0.296   4.400
 4322TIP3   OH212910   2.825   1.657   1.004
 4322TIP3    H112911   2.799   1.699   0.923
 4322TIP3    H212912   2.915   1.685   1.018
 4323TIP3   OH212913   5.829   1.449   5.669
 4323TIP3    H112914   5.820   1.534   5.626
 4323TIP3    H212915   5.879   1.396   5.607
 4324TIP3   OH212916   3.464   1.479   5.033
 4324TIP3    H112917   3.421   1.547   5.085
 4324TIP3    H212918   3.426   1.397   5.064
 4325TIP3   OH212919   0.848   2.038   5.738
 4325TIP3    H112920   0.785   2.108   5.752
 4325TIP3    H212921   0.932   2.075   5.765
 4326TIP3   OH212922   6.472   3.356   5.485
 4326TIP3    H112923   6.562   3.363   5.453
 4326TIP3    H212924   6.482   3.337   5.578
 4327TIP3   OH212925   0.136   5.466   3.643
 4327TIP3    H112926   0.172   5.377   3.640
 4327TIP3    H212927   0.172   5.503   3.724
 4328TIP3   OH212928   0.913   0.012   0.079
 4328TIP3    H112929   0.962   0.052   0.007
 4328TIP3    H212930   0.835   0.067   0.087
 4329TIP3   OH212931   4.163   1.370   3.519
 4329TIP3    H112932   4.244   1.418   3.538
 4329TIP3    H212933   4.113   1.429   3.462
 4330TIP3   OH212934   3.686   1.603   3.687
 4330TIP3    H112935   3.717   1.560   3.766
 4330TIP3    H212936   3.602   1.642   3.713
 4331TIP3   OH212937   5.711   5.421   2.156
 4331TIP3    H112938   5.703   5.513   2.180
 4331TIP3    H212939   5.687   5.373   2.235
 4332TIP3   OH212940   6.658   6.122   2.031
 4332TIP3    H112941   6.702   6.053   1.980
 4332TIP3    H212942   6.619   6.076   2.106
 4333TIP3   OH212943   4.305   7.010   3.847
 4333TIP3    H112944   4.400   6.993   3.845
 4333TIP3    H212945   4.295   7.091   3.798
 4334TIP3   OH212946   2.278   3.330   0.022
 4334TIP3    H112947   2.352   3.287   0.066
 4334TIP3    H212948   2.202   3.280   0.050
 4335TIP3   OH212949   7.264   0.069   6.338
 4335TIP3    H112950   7.316   0.143   6.308
 4335TIP3    H212951   7.193   0.062   6.274
 4336TIP3   OH212952   1.944   2.921   3.624
 4336TIP3    H112953   1.996   2.929   3.704
 4336TIP3    H212954   1.945   2.827   3.604
 4337TIP3   OH212955   7.243   5.476   1.143
 4337TIP3    H112956   7.210   5.390   1.166
 4337TIP3    H212957   7.188   5.505   1.070
 4338TIP3   OH212958   5.512   4.483   0.438
 4338TIP3    H112959   5.514   4.523   0.525
 4338TIP3    H212960   5.603   4.470   0.414
 4339TIP3   OH212961   3.952   2.131   1.193
 4339TIP3    H112962   3.983   2.216   1.161
 4339TIP3    H212963   3.991   2.122   1.280
 4340TIP3   OH212964   5.639   3.871   2.757
 4340TIP3    H112965   5.726   3.884   2.794
 4340TIP3    H212966   5.623   3.777   2.769
 4341TIP3   OH212967   5.032   4.270   3.582
 4341TIP3    H112968   4.980   4.321   3.643
 4341TIP3    H212969   5.053   4.332   3.511
 4342TIP3   OH212970   3.562   0.299   2.352
 4342TIP3    H112971   3.493   0.246   2.313
 4342TIP3    H212972   3.642   0.271   2.308
 4343TIP3   OH212973   2.241   7.645   3.143
 4343TIP3    H112974   2.246   7.738   3.165
 4343TIP3    H212975   2.328   7.611   3.165
 4344TIP3   OH212976   6.832   3.066   3.186
 4344TIP3    H112977   6.911   3.041   3.137
 4344TIP3    H212978   6.768   2.999   3.165
 4345TIP3   OH212979   8.039   2.319   0.607
 4345TIP3    H112980   8.083   2.234   0.609
 4345TIP3    H212981   8.051   2.354   0.695
 4346TIP3   OH212982   6.380   5.381   1.792
 4346TIP3    H112983   6.462   5.347   1.758
 4346TIP3    H212984   6.393   5.476   1.797
 4347TIP3   OH212985   5.182   7.623   6.330
 4347TIP3    H112986   5.128   7.681   6.385
 4347TIP3    H212987   5.270   7.658   6.338
 4348TIP3   OH212988   6.207   3.826   0.963
 4348TIP3    H112989   6.125   3.791   0.998
 4348TIP3    H212990   6.233   3.763   0.896
 4349TIP3   OH212991   5.066   2.679   4.920
 4349TIP3    H112992   5.119   2.749   4.958
 4349TIP3    H212993   5.030   2.716   4.839
 4350TIP3   OH212994   5.237   0.475   0.934
 4350TIP3    H112995   5.171   0.532   0.893
 4350TIP3    H212996   5.187   0.401   0.968
 4351TIP3   OH212997   7.561   3.510   6.672
 4351TIP3    H112998   7.579   3.488   6.581
 4351TIP3    H212999   7.634   3.473   6.721
 4352TIP3   OH213000   4.616   2.222   0.073
 4352TIP3    H113001   4.644   2.134   0.096
 4352TIP3    H213002   4.679   2.252   0.008
 4353TIP3   OH213003   0.213   1.253   6.301
 4353TIP3    H113004   0.271   1.184   6.335
 4353TIP3    H213005   0.179   1.217   6.219
 4354TIP3   OH213006   7.639   4.609   5.948
 4354TIP3    H113007   7.651   4.692   5.993
 4354TIP3    H213008   7.727   4.584   5.921
 4355TIP3   OH213009   2.480   2.466   0.041
 4355TIP3    H113010   2.465   2.387   0.093
 4355TIP3    H213011   2.565   2.451  -0.001
 4356TIP3   OH213012   1.771   1.640   4.639
 4356TIP3    H113013   1.692   1.619   4.588
 4356TIP3    H213014   1.842   1.602   4.588
 4357TIP3   OH213015   2.713   6.422   1.336
 4357TIP3    H113016   2.669   6.361   1.276
 4357TIP3    H213017   2.767   6.477   1.280
 4358TIP3   OH213018   5.017   5.478   2.446
 4358TIP3    H113019   5.011   5.382   2.451
 4358TIP3    H213020   5.015   5.497   2.352
 4359TIP3   OH213021   7.951   2.947   5.976
 4359TIP3    H113022   7.963   2.956   6.070
 4359TIP3    H213023   8.029   2.900   5.947
 4360TIP3   OH213024   6.370   2.055   6.183
 4360TIP3    H113025   6.345   2.098   6.265
 4360TIP3    H213026   6.368   1.961   6.204
 4361TIP3   OH213027   3.614   0.465   5.707
 4361TIP3    H113028   3.690   0.439   5.654
 4361TIP3    H213029   3.645   0.540   5.758
 4362TIP3   OH213030   7.746   2.265   0.299
 4362TIP3    H113031   7.763   2.180   0.339
 4362TIP3    H213032   7.810   2.271   0.227
 4363TIP3   OH213033   7.790   4.142   3.120
 4363TIP3    H113034   7.781   4.220   3.174
 4363TIP3    H213035   7.709   4.094   3.134
 4364TIP3   OH213036   5.759   3.950   4.064
 4364TIP3    H113037   5.668   3.943   4.095
 4364TIP3    H213038   5.810   3.966   4.143
 4365TIP3   OH213039   0.244   6.049   0.715
 4365TIP3    H113040   0.260   6.113   0.646
 4365TIP3    H213041   0.319   5.989   0.709
 4366TIP3   OH213042   5.477   0.625   2.788
 4366TIP3    H113043   5.569   0.600   2.796
 4366TIP3    H213044   5.441   0.567   2.721
 4367TIP3   OH213045   7.299  -0.046   1.455
 4367TIP3    H113046   7.257   0.027   1.409
 4367TIP3    H213047   7.393  -0.028   1.447
 4368TIP3   OH213048   0.946   2.495   2.125
 4368TIP3    H113049   0.856   2.480   2.151
 4368TIP3    H213050   0.968   2.581   2.161
 4369TIP3   OH213051   1.186   0.313   6.626
 4369TIP3    H113052   1.254   0.341   6.565
 4369TIP3    H213053   1.219   0.231   6.663
 4370TIP3   OH213054   0.934   1.105   3.148
 4370TIP3    H113055   1.008   1.132   3.202
 4370TIP3    H213056   0.857   1.142   3.192
 4371TIP3   OH213057   1.006   2.803   5.357
 4371TIP3    H113058   1.051   2.719   5.351
 4371TIP3    H213059   1.056   2.861   5.300
 4372TIP3   OH213060   3.156   6.451   5.663
 4372TIP3    H113061   3.251   6.464   5.661
 4372TIP3    H213062   3.136   6.431   5.755
 4373TIP3   OH213063   8.151   5.017   5.203
 4373TIP3    H113064   8.161   5.025   5.298
 4373TIP3    H213065   8.219   5.074   5.167
 4374TIP3   OH213066   4.261   1.573   1.842
 4374TIP3    H113067   4.340   1.587   1.789
 4374TIP3    H213068   4.221   1.495   1.804
 4375TIP3   OH213069   1.350   7.480   6.349
 4375TIP3    H113070   1.255   7.469   6.348
 4375TIP3    H213071   1.383   7.417   6.286
 4376TIP3   OH213072   1.316   5.363   4.717
 4376TIP3    H113073   1.350   5.446   4.749
 4376TIP3    H213074   1.269   5.385   4.637
 4377TIP3   OH213075   6.415   5.449   3.540
 4377TIP3    H113076   6.465   5.429   3.620
 4377TIP3    H213077   6.327   5.467   3.572
 4378TIP3   OH213078   6.889   4.154   4.083
 4378TIP3    H113079   6.813   4.098   4.093
 4378TIP3    H213080   6.858   4.241   4.107
 4379TIP3   OH213081   6.299   5.442   2.235
 4379TIP3    H113082   6.340   5.429   2.320
 4379TIP3    H213083   6.341   5.377   2.178
 4380TIP3   OH213084   6.714   6.059   1.442
 4380TIP3    H113085   6.666   6.076   1.360
 4380TIP3    H213086   6.657   6.094   1.510
 4381TIP3   OH213087   2.071   5.346   2.859
 4381TIP3    H113088   1.994   5.385   2.817
 4381TIP3    H213089   2.139   5.414   2.854
 4382TIP3   OH213090   4.200   5.874   1.761
 4382TIP3    H113091   4.121   5.820   1.764
 4382TIP3    H213092   4.169   5.960   1.730
 4383TIP3   OH213093   4.774   0.109   3.851
 4383TIP3    H113094   4.780   0.072   3.763
 4383TIP3    H213095   4.707   0.177   3.844
 4384TIP3   OH213096   0.144   0.662   4.823
 4384TIP3    H113097   0.077   0.673   4.755
 4384TIP3    H213098   0.094   0.640   4.901
 4385TIP3   OH213099   0.981   4.419   0.963
 4385TIP3    H113100   0.971   4.503   0.918
 4385TIP3    H213101   1.030   4.441   1.043
 4386TIP3   OH213102   5.828   4.231   0.371
 4386TIP3    H113103   5.747   4.181   0.359
 4386TIP3    H213104   5.809   4.316   0.332
 4387TIP3   OH213105   2.997   5.313   1.693
 4387TIP3    H113106   2.987   5.401   1.728
 4387TIP3    H213107   3.062   5.322   1.623
 4388TIP3   OH213108   4.445   3.674   4.997
 4388TIP3    H113109   4.452   3.693   4.904
 4388TIP3    H213110   4.352   3.664   5.013
 4389TIP3   OH213111   6.899   0.844   5.350
 4389TIP3    H113112   6.949   0.896   5.413
 4389TIP3    H213113   6.807   0.862   5.372
 4390TIP3   OH213114   4.678   4.738   4.393
 4390TIP3    H113115   4.607   4.745   4.330
 4390TIP3    H213116   4.749   4.790   4.355
 4391TIP3   OH213117   0.829   6.390   0.390
 4391TIP3    H113118   0.841   6.438   0.308
 4391TIP3    H213119   0.817   6.299   0.363
 4392TIP3   OH213120   1.730   1.215   3.876
 4392TIP3    H113121   1.777   1.284   3.924
 4392TIP3    H213122   1.745   1.136   3.928
 4393TIP3   OH213123   7.033   0.953   4.080
 4393TIP3    H113124   6.942   0.923   4.075
 4393TIP3    H213125   7.034   1.018   4.150
 4394TIP3   OH213126   6.958   0.495   2.371
 4394TIP3    H113127   6.936   0.493   2.464
 4394TIP3    H213128   6.909   0.570   2.337
 4395TIP3   OH213129   5.734   1.707   0.233
 4395TIP3    H113130   5.756   1.617   0.210
 4395TIP3    H213131   5.763   1.759   0.159
 4396TIP3   OH213132   5.412   7.153   5.632
 4396TIP3    H113133   5.319   7.155   5.609
 4396TIP3    H213134   5.439   7.063   5.613
 4397TIP3   OH213135   6.640   3.655   1.451
 4397TIP3    H113136   6.567   3.593   1.452
 4397TIP3    H213137   6.632   3.699   1.366
 4398TIP3   OH213138   4.890   3.338   1.186
 4398TIP3    H113139   4.889   3.306   1.096
 4398TIP3    H213140   4.873   3.261   1.240
 4399TIP3   OH213141   6.726   4.634   3.840
 4399TIP3    H113142   6.649   4.682   3.809
 4399TIP3    H213143   6.737   4.661   3.931
 4400TIP3   OH213144   4.119   7.677   1.936
 4400TIP3    H113145   4.155   7.764   1.954
 4400TIP3    H213146   4.159   7.621   2.002
 4401TIP3   OH213147   3.084   3.708   5.295
 4401TIP3    H113148   3.048   3.671   5.376
 4401TIP3    H213149   3.097   3.801   5.314
 4402TIP3   OH213150   0.338   0.032   2.224
 4402TIP3    H113151   0.426  -0.004   2.213
 4402TIP3    H213152   0.324   0.032   2.319
 4403TIP3   OH213153   5.655   6.640   6.458
 4403TIP3    H113154   5.653   6.566   6.396
 4403TIP3    H213155   5.563   6.653   6.482
 4404TIP3   OH213156   0.088   0.343   4.311
 4404TIP3    H113157   0.030   0.273   4.340
 4404TIP3    H213158   0.160   0.342   4.374
 4405TIP3   OH213159   7.110   6.146   6.015
 4405TIP3    H113160   7.157   6.226   6.042
 4405TIP3    H213161   7.123   6.085   6.087
 4406TIP3   OH213162   1.389   7.343   3.404
 4406TIP3    H113163   1.380   7.428   3.362
 4406TIP3    H213164   1.478   7.315   3.383
 4407TIP3   OH213165   4.395   2.148   5.572
 4407TIP3    H113166   4.346   2.124   5.493
 4407TIP3    H213167   4.486   2.149   5.543
 4408TIP3   OH213168   4.903   5.295   4.669
 4408TIP3    H113169   4.944   5.381   4.669
 4408TIP3    H213170   4.915   5.263   4.759
 4409TIP3   OH213171   4.559   4.487   6.225
 4409TIP3    H113172   4.480   4.436   6.210
 4409TIP3    H213173   4.618   4.426   6.272
 4410TIP3   OH213174   3.609   3.399   2.255
 4410TIP3    H113175   3.535   3.340   2.253
 4410TIP3    H213176   3.635   3.404   2.347
 4411TIP3   OH213177   5.636   2.452   4.748
 4411TIP3    H113178   5.669   2.392   4.682
 4411TIP3    H213179   5.583   2.397   4.806
 4412TIP3   OH213180   4.410   0.711   6.204
 4412TIP3    H113181   4.321   0.708   6.237
 4412TIP3    H213182   4.426   0.623   6.169
 4413TIP3   OH213183   0.075   0.163   5.316
 4413TIP3    H113184   0.030   0.170   5.232
 4413TIP3    H213185   0.166   0.144   5.294
 4414TIP3   OH213186   7.663   1.444   1.025
 4414TIP3    H113187   7.699   1.358   1.044
 4414TIP3    H213188   7.568   1.431   1.024
 4415TIP3   OH213189   4.469   7.219   1.465
 4415TIP3    H113190   4.389   7.258   1.501
 4415TIP3    H213191   4.490   7.273   1.389
 4416TIP3   OH213192   1.733   2.352   3.151
 4416TIP3    H113193   1.705   2.297   3.077
 4416TIP3    H213194   1.813   2.395   3.120
 4417TIP3   OH213195   6.352   0.730   0.651
 4417TIP3    H113196   6.356   0.716   0.556
 4417TIP3    H213197   6.370   0.823   0.663
 4418TIP3   OH213198   6.528   4.856   0.959
 4418TIP3    H113199   6.538   4.860   1.054
 4418TIP3    H213200   6.599   4.911   0.925
 4419TIP3   OH213201   5.992   2.112   6.006
 4419TIP3    H113202   5.902   2.139   6.025
 4419TIP3    H213203   6.013   2.050   6.075
 4420TIP3   OH213204   0.009   4.212   3.624
 4420TIP3    H113205   0.095   4.170   3.622
 4420TIP3    H213206   0.028   4.305   3.638
 4421TIP3   OH213207   6.204   5.170   4.414
 4421TIP3    H113208   6.270   5.215   4.466
 4421TIP3    H213209   6.121   5.210   4.441
 4422TIP3   OH213210   5.840   3.302   3.664
 4422TIP3    H113211   5.878   3.220   3.695
 4422TIP3    H213212   5.767   3.318   3.724
 4423TIP3   OH213213   8.246   5.034   6.487
 4423TIP3    H113214   8.294   4.952   6.478
 4423TIP3    H213215   8.216   5.035   6.578
 4424TIP3   OH213216   0.740   5.541   5.511
 4424TIP3    H113217   0.656   5.582   5.490
 4424TIP3    H213218   0.729   5.449   5.487
 4425TIP3   OH213219   0.501   0.923   3.206
 4425TIP3    H113220   0.544   0.898   3.288
 4425TIP3    H213221   0.573   0.940   3.146
 4426TIP3   OH213222   5.088   0.151   1.242
 4426TIP3    H113223   5.138   0.114   1.315
 4426TIP3    H213224   5.009   0.096   1.238
 4427TIP3   OH213225   5.335   0.466   3.047
 4427TIP3    H113226   5.334   0.560   3.032
 4427TIP3    H213227   5.248   0.436   3.020
 4428TIP3   OH213228   6.158   7.520   1.017
 4428TIP3    H113229   6.111   7.440   1.043
 4428TIP3    H213230   6.242   7.488   0.985
 4429TIP3   OH213231   7.086   2.770   4.680
 4429TIP3    H113232   7.101   2.711   4.607
 4429TIP3    H213233   7.137   2.733   4.752
 4430TIP3   OH213234   5.388   0.971   1.061
 4430TIP3    H113235   5.420   0.888   1.096
 4430TIP3    H213236   5.331   1.005   1.130
 4431TIP3   OH213237   5.593   7.641   0.329
 4431TIP3    H113238   5.595   7.736   0.327
 4431TIP3    H213239   5.684   7.614   0.341
 4432TIP3   OH213240   7.519   2.652   0.770
 4432TIP3    H113241   7.520   2.619   0.680
 4432TIP3    H213242   7.429   2.635   0.800
 4433TIP3   OH213243   1.328   4.163   5.356
 4433TIP3    H113244   1.274   4.233   5.392
 4433TIP3    H213245   1.301   4.085   5.405
 4434TIP3   OH213246   4.201   4.034   4.094
 4434TIP3    H113247   4.194   4.085   4.013
 4434TIP3    H213248   4.271   3.972   4.077
 4435TIP3   OH213249   1.521   7.212   1.346
 4435TIP3    H113250   1.536   7.163   1.266
 4435TIP3    H213251   1.477   7.151   1.404
 4436TIP3   OH213252   1.114   6.180   5.983
 4436TIP3    H113253   1.035   6.144   5.944
 4436TIP3    H213254   1.177   6.108   5.981
 4437TIP3   OH213255   5.991   1.866   4.155
 4437TIP3    H113256   5.925   1.861   4.085
 4437TIP3    H213257   5.945   1.835   4.233
 4438TIP3   OH213258   5.106   3.015   3.345
 4438TIP3    H113259   5.021   2.985   3.313
 4438TIP3    H213260   5.085   3.074   3.418
 4439TIP3   OH213261   7.353   0.933   1.540
 4439TIP3    H113262   7.348   0.953   1.634
 4439TIP3    H213263   7.439   0.893   1.529
 4440TIP3   OH213264   2.483   0.420   4.340
 4440TIP3    H113265   2.567   0.425   4.385
 4440TIP3    H213266   2.423   0.468   4.398
 4441TIP3   OH213267   7.365   3.253   6.074
 4441TIP3    H113268   7.311   3.329   6.097
 4441TIP3    H213269   7.319   3.178   6.111
 4442TIP3   OH213270   2.833   6.333   4.693
 4442TIP3    H113271   2.902   6.334   4.759
 4442TIP3    H213272   2.826   6.425   4.665
 4443TIP3   OH213273   5.369   0.219   2.126
 4443TIP3    H113274   5.334   0.291   2.074
 4443TIP3    H213275   5.457   0.204   2.091
 4444TIP3   OH213276   2.760   1.174   3.882
 4444TIP3    H113277   2.732   1.251   3.832
 4444TIP3    H213278   2.740   1.100   3.825
 4445TIP3   OH213279   5.110   5.422   3.520
 4445TIP3    H113280   5.059   5.484   3.468
 4445TIP3    H213281   5.119   5.463   3.605
 4446TIP3   OH213282   1.700   1.456   4.849
 4446TIP3    H113283   1.622   1.498   4.884
 4446TIP3    H213284   1.720   1.504   4.769
 4447TIP3   OH213285   6.290   0.419   1.243
 4447TIP3    H113286   6.304   0.384   1.330
 4447TIP3    H213287   6.271   0.512   1.257
 4448TIP3   OH213288   4.889   5.847   6.297
 4448TIP3    H113289   4.818   5.905   6.325
 4448TIP3    H213290   4.885   5.773   6.357
 4449TIP3   OH213291   1.069   5.190   2.362
 4449TIP3    H113292   1.011   5.193   2.438
 4449TIP3    H213293   1.010   5.204   2.287
 4450TIP3   OH213294   2.576   4.220   0.988
 4450TIP3    H113295   2.483   4.204   1.002
 4450TIP3    H213296   2.582   4.314   0.971
 4451TIP3   OH213297   2.273   1.855   3.537
 4451TIP3    H113298   2.278   1.760   3.528
 4451TIP3    H213299   2.355   1.888   3.500
 4452TIP3   OH213300   0.422   0.382   6.321
 4452TIP3    H113301   0.481   0.456   6.335
 4452TIP3    H213302   0.344   0.405   6.372
 4453TIP3   OH213303   0.990   0.294   5.078
 4453TIP3    H113304   0.972   0.315   5.169
 4453TIP3    H213305   0.912   0.322   5.031
 4454TIP3   OH213306   7.888   3.419   4.557
 4454TIP3    H113307   7.817   3.425   4.492
 4454TIP3    H213308   7.946   3.491   4.535
 4455TIP3   OH213309   7.478   0.501   5.209
 4455TIP3    H113310   7.487   0.433   5.276
 4455TIP3    H213311   7.423   0.461   5.141
 4456TIP3   OH213312   5.192   6.614   1.891
 4456TIP3    H113313   5.196   6.554   1.816
 4456TIP3    H213314   5.119   6.582   1.944
 4457TIP3   OH213315   1.114   1.933   0.391
 4457TIP3    H113316   1.194   1.981   0.411
 4457TIP3    H213317   1.142   1.859   0.337
 4458TIP3   OH213318   4.715   4.055   4.037
 4458TIP3    H113319   4.768   4.087   4.110
 4458TIP3    H213320   4.706   4.130   3.978
 4459TIP3   OH213321   6.785   5.158   5.322
 4459TIP3    H113322   6.869   5.168   5.278
 4459TIP3    H213323   6.805   5.172   5.415
 4460TIP3   OH213324   6.441   6.227   4.236
 4460TIP3    H113325   6.370   6.206   4.296
 4460TIP3    H213326   6.517   6.180   4.271
 4461TIP3   OH213327   6.220   1.570   3.786
 4461TIP3    H113328   6.160   1.612   3.847
 4461TIP3    H213329   6.300   1.555   3.838
 4462TIP3   OH213330   2.173   0.650   3.962
 4462TIP3    H113331   2.116   0.574   3.953
 4462TIP3    H213332   2.147   0.689   4.045
 4463TIP3   OH213333   5.047   4.264   6.678
 4463TIP3    H113334   5.083   4.317   6.749
 4463TIP3    H213335   4.955   4.251   6.703
 4464TIP3   OH213336   7.485   0.487   0.314
 4464TIP3    H113337   7.488   0.392   0.322
 4464TIP3    H213338   7.487   0.520   0.404
 4465TIP3   OH213339   8.266   1.602   5.290
 4465TIP3    H113340   8.176   1.578   5.269
 4465TIP3    H213341   8.302   1.636   5.208
 4466TIP3   OH213342   4.160   4.021   1.086
 4466TIP3    H113343   4.085   4.012   1.145
 4466TIP3    H213344   4.147   4.106   1.044
 4467TIP3   OH213345   8.228   5.559   5.622
 4467TIP3    H113346   8.172   5.500   5.673
 4467TIP3    H213347   8.312   5.514   5.616
 4468TIP3   OH213348   5.878   0.901   1.465
 4468TIP3    H113349   5.913   0.826   1.513
 4468TIP3    H213350   5.886   0.975   1.525
 4469TIP3   OH213351   5.845   4.577   3.347
 4469TIP3    H113352   5.876   4.589   3.436
 4469TIP3    H213353   5.853   4.483   3.331
 4470TIP3   OH213354   6.026   7.538   3.389
 4470TIP3    H113355   6.048   7.596   3.316
 4470TIP3    H213356   5.963   7.587   3.441
 4471TIP3   OH213357   2.627   7.546   4.824
 4471TIP3    H113358   2.645   7.455   4.848
 4471TIP3    H213359   2.676   7.559   4.743
 4472TIP3   OH213360   3.387   2.682   1.192
 4472TIP3    H113361   3.368   2.768   1.155
 4472TIP3    H213362   3.393   2.624   1.115
 4473TIP3   OH213363   2.046   4.267   3.885
 4473TIP3    H113364   1.983   4.252   3.815
 4473TIP3    H213365   1.994   4.261   3.966
 4474TIP3   OH213366   5.954   6.573   2.812
 4474TIP3    H113367   5.873   6.583   2.763
 4474TIP3    H213368   5.940   6.624   2.892
 4475TIP3   OH213369   6.779   6.997   4.062
 4475TIP3    H113370   6.811   7.087   4.071
 4475TIP3    H213371   6.857   6.945   4.043
 4476TIP3   OH213372   1.672   6.653   5.081
 4476TIP3    H113373   1.679   6.657   4.986
 4476TIP3    H213374   1.714   6.733   5.112
 4477TIP3   OH213375   0.018   3.894   5.514
 4477TIP3    H113376   0.113   3.887   5.517
 4477TIP3    H213377  -0.002   3.924   5.425
 4478TIP3   OH213378   1.591   3.249   2.194
 4478TIP3    H113379   1.601   3.259   2.100
 4478TIP3    H213380   1.550   3.331   2.223
 4479TIP3   OH213381   6.585   7.389   4.867
 4479TIP3    H113382   6.641   7.320   4.832
 4479TIP3    H213383   6.576   7.452   4.795
 4480TIP3   OH213384   4.005   1.606   3.384
 4480TIP3    H113385   4.008   1.660   3.305
 4480TIP3    H213386   4.022   1.667   3.456
 4481TIP3   OH213387   5.193   1.058   2.909
 4481TIP3    H113388   5.225   0.983   2.960
 4481TIP3    H213389   5.165   1.021   2.826
 4482TIP3   OH213390   1.369   3.613   4.595
 4482TIP3    H113391   1.316   3.560   4.535
 4482TIP3    H213392   1.436   3.653   4.539
 4483TIP3   OH213393   7.127   7.167   3.655
 4483TIP3    H113394   7.069   7.102   3.615
 4483TIP3    H213395   7.106   7.163   3.749
 4484TIP3   OH213396   7.253   6.799   1.857
 4484TIP3    H113397   7.215   6.747   1.785
 4484TIP3    H213398   7.196   6.782   1.931
 4485TIP3   OH213399   7.145   2.923   0.468
 4485TIP3    H113400   7.108   2.838   0.443
 4485TIP3    H213401   7.223   2.900   0.519
 4486TIP3   OH213402   2.424   6.305   4.293
 4486TIP3    H113403   2.446   6.212   4.280
 4486TIP3    H213404   2.463   6.350   4.218
 4487TIP3   OH213405   7.012   7.271   5.655
 4487TIP3    H113406   7.089   7.295   5.706
 4487TIP3    H213407   7.010   7.335   5.583
 4488TIP3   OH213408   3.225   3.401   0.602
 4488TIP3    H113409   3.270   3.325   0.639
 4488TIP3    H213410   3.150   3.415   0.660
 4489TIP3   OH213411   7.235   7.727   1.613
 4489TIP3    H113412   7.179   7.651   1.597
 4489TIP3    H213413   7.209   7.758   1.700
 4490TIP3   OH213414   7.035   1.615   2.098
 4490TIP3    H113415   7.019   1.552   2.028
 4490TIP3    H213416   6.971   1.685   2.083
 4491TIP3   OH213417   1.511   4.133   5.600
 4491TIP3    H113418   1.467   4.110   5.518
 4491TIP3    H213419   1.580   4.068   5.609
 4492TIP3   OH213420   3.273   0.040   0.901
 4492TIP3    H113421   3.189   0.017   0.861
 4492TIP3    H213422   3.325   0.074   0.829
 4493TIP3   OH213423   7.840   4.884   3.684
 4493TIP3    H113424   7.859   4.978   3.675
 4493TIP3    H213425   7.747   4.881   3.704
 4494TIP3   OH213426   2.781   5.720   3.372
 4494TIP3    H113427   2.735   5.749   3.451
 4494TIP3    H213428   2.865   5.687   3.403
 4495TIP3   OH213429   5.017   5.268   2.072
 4495TIP3    H113430   5.020   5.184   2.026
 4495TIP3    H213431   4.945   5.258   2.134
 4496TIP3   OH213432   3.114   3.579   6.653
 4496TIP3    H113433   3.169   3.656   6.659
 4496TIP3    H213434   3.045   3.594   6.717
 4497TIP3   OH213435   5.748   5.480   1.413
 4497TIP3    H113436   5.731   5.495   1.506
 4497TIP3    H213437   5.663   5.452   1.377
 4498TIP3   OH213438   3.866   3.098   2.779
 4498TIP3    H113439   3.930   3.036   2.814
 4498TIP3    H213440   3.796   3.043   2.744
 4499TIP3   OH213441   1.601   4.917   3.587
 4499TIP3    H113442   1.511   4.944   3.608
 4499TIP3    H213443   1.625   4.857   3.657
 4500TIP3   OH213444   5.489   7.349   4.133
 4500TIP3    H113445   5.579   7.379   4.125
 4500TIP3    H213446   5.471   7.351   4.227
 4501TIP3   OH213447   3.339   1.444   3.227
 4501TIP3    H113448   3.306   1.496   3.154
 4501TIP3    H213449   3.343   1.355   3.193
 4502TIP3   OH213450   4.832   2.974   0.326
 4502TIP3    H113451   4.823   2.882   0.301
 4502TIP3    H213452   4.844   2.971   0.421
 4503TIP3   OH213453   6.069   4.746   4.659
 4503TIP3    H113454   6.157   4.742   4.622
 4503TIP3    H213455   6.013   4.768   4.585
 4504TIP3   OH213456   3.386   3.937   4.330
 4504TIP3    H113457   3.441   3.880   4.384
 4504TIP3    H213458   3.375   4.017   4.382
 4505TIP3   OH213459   5.276   5.299   5.557
 4505TIP3    H113460   5.350   5.300   5.617
 4505TIP3    H213461   5.226   5.221   5.581
 4506TIP3   OH213462   7.561   0.509   4.190
 4506TIP3    H113463   7.553   0.440   4.123
 4506TIP3    H213464   7.494   0.573   4.166
 4507TIP3   OH213465   1.845   7.112   6.022
 4507TIP3    H113466   1.865   7.194   5.976
 4507TIP3    H213467   1.884   7.123   6.108
 4508TIP3   OH213468   1.849   1.219   5.639
 4508TIP3    H113469   1.852   1.212   5.734
 4508TIP3    H213470   1.789   1.292   5.622
 4509TIP3   OH213471   7.458   5.233   2.037
 4509TIP3    H113472   7.537   5.190   2.071
 4509TIP3    H213473   7.389   5.206   2.097
 4510TIP3   OH213474   2.615   1.516   1.949
 4510TIP3    H113475   2.531   1.506   1.993
 4510TIP3    H213476   2.607   1.463   1.869
 4511TIP3   OH213477   2.787   4.593   5.339
 4511TIP3    H113478   2.731   4.635   5.405
 4511TIP3    H213479   2.839   4.664   5.304
 4512TIP3   OH213480   7.884   7.048   0.661
 4512TIP3    H113481   7.847   6.992   0.729
 4512TIP3    H213482   7.971   7.071   0.694
 4513TIP3   OH213483   3.283   3.156   5.335
 4513TIP3    H113484   3.369   3.126   5.365
 4513TIP3    H213485   3.288   3.251   5.338
 4514TIP3   OH213486   5.094   6.254   4.650
 4514TIP3    H113487   5.124   6.337   4.613
 4514TIP3    H213488   5.001   6.266   4.665
 4515TIP3   OH213489   4.525   4.072   4.408
 4515TIP3    H113490   4.472   4.148   4.381
 4515TIP3    H213491   4.462   3.999   4.411
 4516TIP3   OH213492   1.743   5.970   3.300
 4516TIP3    H113493   1.746   6.065   3.285
 4516TIP3    H213494   1.832   5.947   3.326
 4517TIP3   OH213495   2.593   6.882   0.155
 4517TIP3    H113496   2.657   6.901   0.222
 4517TIP3    H213497   2.538   6.814   0.193
 4518TIP3   OH213498   2.024   4.604   3.786
 4518TIP3    H113499   2.027   4.697   3.809
 4518TIP3    H213500   2.087   4.563   3.845
 4519TIP3   OH213501   4.034   3.728   4.808
 4519TIP3    H113502   3.941   3.742   4.788
 4519TIP3    H213503   4.080   3.752   4.728
 4520TIP3   OH213504   0.398   6.822   0.137
 4520TIP3    H113505   0.359   6.758   0.197
 4520TIP3    H213506   0.338   6.896   0.138
 4521TIP3   OH213507   2.036   6.690   0.425
 4521TIP3    H113508   1.960   6.714   0.478
 4521TIP3    H213509   2.001   6.683   0.336
 4522TIP3   OH213510   3.278   2.503   2.304
 4522TIP3    H113511   3.353   2.468   2.352
 4522TIP3    H213512   3.204   2.491   2.365
 4523TIP3   OH213513   4.312   4.732   5.477
 4523TIP3    H113514   4.338   4.682   5.554
 4523TIP3    H213515   4.364   4.812   5.482
 4524TIP3   OH213516   5.772   5.599   3.335
 4524TIP3    H113517   5.793   5.691   3.322
 4524TIP3    H213518   5.721   5.575   3.257
 4525TIP3   OH213519   1.950   0.140   4.021
 4525TIP3    H113520   1.983   0.076   3.957
 4525TIP3    H213521   1.995   0.221   3.999
 4526TIP3   OH213522   3.714   6.758   2.260
 4526TIP3    H113523   3.657   6.826   2.297
 4526TIP3    H213524   3.657   6.682   2.247
 4527TIP3   OH213525   3.341   4.579   4.368
 4527TIP3    H113526   3.393   4.643   4.417
 4527TIP3    H213527   3.348   4.498   4.419
 4528TIP3   OH213528   3.232   3.311   6.545
 4528TIP3    H113529   3.230   3.284   6.637
 4528TIP3    H213530   3.212   3.404   6.547
 4529TIP3   OH213531   3.354   3.394   2.570
 4529TIP3    H113532   3.376   3.306   2.540
 4529TIP3    H213533   3.281   3.421   2.514
 4530TIP3   OH213534   7.370   2.086   5.220
 4530TIP3    H113535   7.378   2.029   5.143
 4530TIP3    H213536   7.293   2.054   5.266
 4531TIP3   OH213537   0.199   5.332   2.690
 4531TIP3    H113538   0.147   5.261   2.654
 4531TIP3    H213539   0.198   5.317   2.784
 4532TIP3   OH213540   2.271   7.644   4.745
 4532TIP3    H113541   2.321   7.706   4.693
 4532TIP3    H213542   2.300   7.558   4.716
 4533TIP3   OH213543   7.257   3.326   2.134
 4533TIP3    H113544   7.228   3.335   2.043
 4533TIP3    H213545   7.318   3.252   2.133
 4534TIP3   OH213546   4.806   2.669   2.813
 4534TIP3    H113547   4.830   2.751   2.769
 4534TIP3    H213548   4.798   2.693   2.905
 4535TIP3   OH213549   0.681   0.911   2.951
 4535TIP3    H113550   0.775   0.901   2.968
 4535TIP3    H213551   0.674   0.993   2.903
 4536TIP3   OH213552   5.536   3.491   5.078
 4536TIP3    H113553   5.492   3.574   5.098
 4536TIP3    H213554   5.466   3.435   5.042
 4537TIP3   OH213555   1.330   0.378   1.371
 4537TIP3    H113556   1.399   0.317   1.347
 4537TIP3    H213557   1.358   0.461   1.333
 4538TIP3   OH213558   2.437   0.153   3.935
 4538TIP3    H113559   2.521   0.188   3.965
 4538TIP3    H213560   2.388   0.135   4.015
 4539TIP3   OH213561   3.396   0.634   4.358
 4539TIP3    H113562   3.471   0.693   4.344
 4539TIP3    H213563   3.419   0.585   4.437
 4540TIP3   OH213564   4.472   3.999   4.894
 4540TIP3    H113565   4.397   4.044   4.855
 4540TIP3    H213566   4.451   3.994   4.987
 4541TIP3   OH213567   2.745   3.019   5.731
 4541TIP3    H113568   2.708   3.105   5.712
 4541TIP3    H213569   2.670   2.964   5.753
 4542TIP3   OH213570   0.336   7.295   0.170
 4542TIP3    H113571   0.262   7.345   0.203
 4542TIP3    H213572   0.387   7.272   0.247
 4543TIP3   OH213573   7.605   3.914   4.470
 4543TIP3    H113574   7.646   3.927   4.385
 4543TIP3    H213575   7.589   4.003   4.503
 4544TIP3   OH213576   5.305   6.222   0.970
 4544TIP3    H113577   5.395   6.229   1.003
 4544TIP3    H213578   5.267   6.308   0.985
 4545TIP3   OH213579   0.471   3.027   4.721
 4545TIP3    H113580   0.417   3.056   4.794
 4545TIP3    H213581   0.504   2.941   4.748
 4546TIP3   OH213582   0.117   5.256   0.852
 4546TIP3    H113583   0.026   5.282   0.836
 4546TIP3    H213584   0.156   5.252   0.765
 4547TIP3   OH213585   4.380   3.152   2.167
 4547TIP3    H113586   4.464   3.107   2.164
 4547TIP3    H213587   4.320   3.088   2.206
 4548TIP3   OH213588   6.358   5.289   0.329
 4548TIP3    H113589   6.398   5.263   0.412
 4548TIP3    H213590   6.424   5.346   0.288
 4549TIP3   OH213591   6.974   5.474   4.133
 4549TIP3    H113592   6.980   5.567   4.112
 4549TIP3    H213593   7.028   5.464   4.212
 4550TIP3   OH213594   1.053   3.080   2.175
 4550TIP3    H113595   1.132   3.098   2.226
 4550TIP3    H213596   0.998   3.027   2.234
 4551TIP3   OH213597   2.272   7.158   5.542
 4551TIP3    H113598   2.247   7.082   5.490
 4551TIP3    H213599   2.207   7.161   5.612
 4552TIP3   OH213600   4.342   1.965   4.313
 4552TIP3    H113601   4.359   2.016   4.393
 4552TIP3    H213602   4.420   1.910   4.304
 4553TIP3   OH213603   6.976   2.678   3.636
 4553TIP3    H113604   6.928   2.652   3.716
 4553TIP3    H213605   7.020   2.597   3.608
 4554TIP3   OH213606   7.916   5.016   4.852
 4554TIP3    H113607   7.995   5.037   4.803
 4554TIP3    H213608   7.890   5.098   4.893
 4555TIP3   OH213609   2.073   7.246   0.304
 4555TIP3    H113610   2.128   7.321   0.325
 4555TIP3    H213611   2.053   7.206   0.389
 4556TIP3   OH213612   0.546   5.428   5.279
 4556TIP3    H113613   0.567   5.337   5.256
 4556TIP3    H213614   0.459   5.424   5.317
 4557TIP3   OH213615   2.905   4.803   5.653
 4557TIP3    H113616   2.941   4.873   5.707
 4557TIP3    H213617   2.838   4.846   5.599
 4558TIP3   OH213618   2.103   3.910   2.996
 4558TIP3    H113619   2.056   3.875   2.920
 4558TIP3    H213620   2.188   3.867   2.993
 4559TIP3   OH213621   1.909   1.272   4.771
 4559TIP3    H113622   1.922   1.239   4.682
 4559TIP3    H213623   1.997   1.278   4.807
 4560TIP3   OH213624   3.095   1.031   3.821
 4560TIP3    H113625   3.078   1.099   3.755
 4560TIP3    H213626   3.016   1.029   3.874
 4561TIP3   OH213627   3.372   6.182   0.008
 4561TIP3    H113628   3.428   6.249  -0.031
 4561TIP3    H213629   3.293   6.183  -0.046
 4562TIP3   OH213630   6.487   3.796   0.059
 4562TIP3    H113631   6.433   3.823  -0.015
 4562TIP3    H213632   6.487   3.701   0.056
 4563TIP3   OH213633   0.104   3.160   4.070
 4563TIP3    H113634   0.011   3.140   4.085
 4563TIP3    H213635   0.144   3.074   4.054
 4564TIP3   OH213636   3.924   4.455   2.385
 4564TIP3    H113637   3.996   4.449   2.447
 4564TIP3    H213638   3.859   4.392   2.418
 4565TIP3   OH213639   5.189   4.654   4.175
 4565TIP3    H113640   5.252   4.586   4.151
 4565TIP3    H213641   5.105   4.608   4.178
 4566TIP3   OH213642   8.305   4.919   2.653
 4566TIP3    H113643   8.285   5.005   2.617
 4566TIP3    H213644   8.222   4.887   2.687
 4567TIP3   OH213645   7.780   1.097   4.942
 4567TIP3    H113646   7.756   1.179   4.984
 4567TIP3    H213647   7.777   1.115   4.848
 4568TIP3   OH213648   1.716   7.035   2.817
 4568TIP3    H113649   1.656   7.110   2.820
 4568TIP3    H213650   1.791   7.066   2.766
 4569TIP3   OH213651   5.858   3.255   6.237
 4569TIP3    H113652   5.911   3.202   6.296
 4569TIP3    H213653   5.896   3.239   6.150
 4570TIP3   OH213654   1.858   3.143   1.165
 4570TIP3    H113655   1.765   3.145   1.189
 4570TIP3    H213656   1.857   3.123   1.071
 4571TIP3   OH213657   3.114   1.304   0.592
 4571TIP3    H113658   3.086   1.231   0.536
 4571TIP3    H213659   3.118   1.379   0.533
 4572TIP3   OH213660   0.176   0.755   4.495
 4572TIP3    H113661   0.114   0.737   4.565
 4572TIP3    H213662   0.138   0.714   4.417
 4573TIP3   OH213663   5.221   5.814   5.199
 4573TIP3    H113664   5.278   5.737   5.206
 4573TIP3    H213665   5.281   5.889   5.197
 4574TIP3   OH213666   4.480   5.290   2.979
 4574TIP3    H113667   4.562   5.337   2.998
 4574TIP3    H213668   4.509   5.201   2.957
 4575TIP3   OH213669   3.112   7.672   3.318
 4575TIP3    H113670   3.156   7.746   3.360
 4575TIP3    H213671   3.020   7.683   3.339
 4576TIP3   OH213672   4.145   6.617   5.278
 4576TIP3    H113673   4.080   6.548   5.283
 4576TIP3    H213674   4.191   6.602   5.195
 4577TIP3   OH213675   5.090   3.436   0.351
 4577TIP3    H113676   5.128   3.458   0.266
 4577TIP3    H213677   4.998   3.418   0.332
 4578TIP3   OH213678   5.764   6.437   0.310
 4578TIP3    H113679   5.777   6.451   0.216
 4578TIP3    H213680   5.716   6.354   0.316
 4579TIP3   OH213681   7.726   6.142   6.195
 4579TIP3    H113682   7.713   6.055   6.232
 4579TIP3    H213683   7.643   6.188   6.208
 4580TIP3   OH213684   1.241  -0.018  -0.012
 4580TIP3    H113685   1.276  -0.019   0.077
 4580TIP3    H213686   1.168   0.044  -0.009
 4581TIP3   OH213687   7.718   3.384   2.285
 4581TIP3    H113688   7.737   3.428   2.368
 4581TIP3    H213689   7.734   3.292   2.302
 4582TIP3   OH213690   0.396   1.673   2.265
 4582TIP3    H113691   0.303   1.686   2.285
 4582TIP3    H213692   0.400   1.670   2.170
 4583TIP3   OH213693   7.977   1.517   6.110
 4583TIP3    H113694   7.927   1.464   6.172
 4583TIP3    H213695   8.052   1.462   6.086
 4584TIP3   OH213696   0.140   3.277   0.463
 4584TIP3    H113697   0.056   3.321   0.467
 4584TIP3    H213698   0.203   3.346   0.444
 4585TIP3   OH213699   3.821   4.090   6.687
 4585TIP3    H113700   3.752   4.157   6.689
 4585TIP3    H213701   3.807   4.045   6.604
 4586TIP3   OH213702   6.599   0.678   6.429
 4586TIP3    H113703   6.582   0.771   6.418
 4586TIP3    H213704   6.588   0.662   6.523
 4587TIP3   OH213705   2.042   6.508   0.796
 4587TIP3    H113706   2.038   6.429   0.849
 4587TIP3    H213707   1.972   6.564   0.829
 4588TIP3   OH213708   5.487   1.168   1.346
 4588TIP3    H113709   5.427   1.140   1.415
 4588TIP3    H213710   5.434   1.222   1.288
 4589TIP3   OH213711   3.156   1.942   6.211
 4589TIP3    H113712   3.088   1.921   6.274
 4589TIP3    H213713   3.148   1.873   6.144
 4590TIP3   OH213714   4.647   4.032   1.870
 4590TIP3    H113715   4.650   3.951   1.819
 4590TIP3    H213716   4.669   4.005   1.959
 4591TIP3   OH213717   4.099   1.331   2.224
 4591TIP3    H113718   4.144   1.310   2.305
 4591TIP3    H213719   4.055   1.249   2.199
 4592TIP3   OH213720   7.400   4.596   3.161
 4592TIP3    H113721   7.410   4.525   3.225
 4592TIP3    H213722   7.477   4.651   3.174
 4593TIP3   OH213723   7.312   6.111   5.246
 4593TIP3    H113724   7.230   6.090   5.202
 4593TIP3    H213725   7.363   6.158   5.180
 4594TIP3   OH213726   1.878   1.174   1.969
 4594TIP3    H113727   1.933   1.191   2.045
 4594TIP3    H213728   1.939   1.153   1.898
 4595TIP3   OH213729  -0.006   4.961   6.139
 4595TIP3    H113730  -0.003   5.022   6.066
 4595TIP3    H213731  -0.005   5.016   6.217
 4596TIP3   OH213732   0.841   3.694   1.324
 4596TIP3    H113733   0.914   3.632   1.326
 4596TIP3    H213734   0.846   3.740   1.408
 4597TIP3   OH213735   6.540   2.775   3.382
 4597TIP3    H113736   6.487   2.831   3.438
 4597TIP3    H213737   6.630   2.791   3.410
 4598TIP3   OH213738   3.102   2.412   0.524
 4598TIP3    H113739   3.043   2.477   0.562
 4598TIP3    H213740   3.139   2.366   0.599
 4599TIP3   OH213741   1.914   5.945   5.588
 4599TIP3    H113742   1.941   5.894   5.511
 4599TIP3    H213743   1.886   6.029   5.552
 4600TIP3   OH213744   6.265   6.208   3.252
 4600TIP3    H113745   6.178   6.225   3.217
 4600TIP3    H213746   6.301   6.294   3.270
 4601TIP3   OH213747   7.108   6.486   0.778
 4601TIP3    H113748   7.154   6.513   0.699
 4601TIP3    H213749   7.071   6.401   0.756
 4602TIP3   OH213750   2.453   7.499   0.722
 4602TIP3    H113751   2.442   7.499   0.627
 4602TIP3    H213752   2.525   7.438   0.737
 4603TIP3   OH213753   7.997   6.376   0.895
 4603TIP3    H113754   8.066   6.314   0.872
 4603TIP3    H213755   7.998   6.377   0.991
 4604TIP3   OH213756   6.283   1.973   0.900
 4604TIP3    H113757   6.277   1.883   0.930
 4604TIP3    H213758   6.376   1.995   0.904
 4605TIP3   OH213759   7.310   6.994   6.504
 4605TIP3    H113760   7.355   6.959   6.428
 4605TIP3    H213761   7.378   7.037   6.555
 4606TIP3   OH213762   0.511   7.201   0.393
 4606TIP3    H113763   0.598   7.212   0.432
 4606TIP3    H213764   0.484   7.113   0.420
 4607TIP3   OH213765   1.519   5.488   3.237
 4607TIP3    H113766   1.474   5.527   3.162
 4607TIP3    H213767   1.600   5.538   3.245
 4608TIP3   OH213768   6.015   4.331   1.517
 4608TIP3    H113769   6.017   4.277   1.438
 4608TIP3    H213770   6.052   4.415   1.491
 4609TIP3   OH213771   5.690   0.416   6.446
 4609TIP3    H113772   5.748   0.364   6.503
 4609TIP3    H213773   5.611   0.363   6.438
 4610TIP3   OH213774   2.527   2.024   1.676
 4610TIP3    H113775   2.436   2.047   1.655
 4610TIP3    H213776   2.544   2.067   1.760
 4611TIP3   OH213777   4.468   4.639   4.928
 4611TIP3    H113778   4.442   4.560   4.976
 4611TIP3    H213779   4.386   4.676   4.896
 4612TIP3   OH213780   1.235   0.439   4.382
 4612TIP3    H113781   1.186   0.491   4.446
 4612TIP3    H213782   1.326   0.464   4.396
 4613TIP3   OH213783   6.943   4.508   2.957
 4613TIP3    H113784   7.026   4.554   2.948
 4613TIP3    H213785   6.941   4.482   3.049
 4614TIP3   OH213786   1.076   4.113   2.342
 4614TIP3    H113787   1.100   4.106   2.434
 4614TIP3    H213788   1.131   4.184   2.309
 4615TIP3   OH213789   7.904   6.593   5.542
 4615TIP3    H113790   7.860   6.508   5.549
 4615TIP3    H213791   7.853   6.652   5.598
 4616TIP3   OH213792   1.013   4.767   2.865
 4616TIP3    H113793   1.107   4.747   2.866
 4616TIP3    H213794   0.970   4.682   2.862
 4617TIP3   OH213795   2.556   2.103   5.341
 4617TIP3    H113796   2.536   2.010   5.335
 4617TIP3    H213797   2.530   2.127   5.430
 4618TIP3   OH213798   6.898   6.136   5.823
 4618TIP3    H113799   6.967   6.159   5.885
 4618TIP3    H213800   6.914   6.194   5.748
 4619TIP3   OH213801   2.030   4.464   1.495
 4619TIP3    H113802   2.103   4.452   1.434
 4619TIP3    H213803   2.018   4.559   1.500
 4620TIP3   OH213804   0.998   6.259   6.756
 4620TIP3    H113805   1.012   6.227   6.666
 4620TIP3    H213806   1.030   6.188   6.812
 4621TIP3   OH213807   6.527   3.329   2.759
 4621TIP3    H113808   6.518   3.273   2.681
 4621TIP3    H213809   6.619   3.322   2.783
 4622TIP3   OH213810   5.391   0.126   5.724
 4622TIP3    H113811   5.444   0.157   5.650
 4622TIP3    H213812   5.451   0.128   5.799
 4623TIP3   OH213813   2.179   2.319   4.288
 4623TIP3    H113814   2.161   2.237   4.242
 4623TIP3    H213815   2.106   2.376   4.263
 4624TIP3   OH213816   6.173   7.110   0.281
 4624TIP3    H113817   6.195   7.023   0.314
 4624TIP3    H213818   6.089   7.131   0.324
 4625TIP3   OH213819   5.028   0.706   1.718
 4625TIP3    H113820   5.121   0.707   1.737
 4625TIP3    H213821   5.014   0.781   1.661
 4626TIP3   OH213822   2.543   5.533   1.196
 4626TIP3    H113823   2.475   5.482   1.239
 4626TIP3    H213824   2.563   5.485   1.116
 4627TIP3   OH213825   5.900   1.968   0.562
 4627TIP3    H113826   5.846   2.038   0.526
 4627TIP3    H213827   5.987   2.007   0.571
 4628TIP3   OH213828   3.043   0.060   5.029
 4628TIP3    H113829   3.131   0.091   5.008
 4628TIP3    H213830   3.017   0.111   5.106
 4629TIP3   OH213831   6.431   7.174   6.113
 4629TIP3    H113832   6.346   7.218   6.114
 4629TIP3    H213833   6.468   7.195   6.027
 4630TIP3   OH213834   0.300   7.444   3.986
 4630TIP3    H113835   0.328   7.526   3.945
 4630TIP3    H213836   0.289   7.466   4.079
 4631TIP3   OH213837   7.440   5.910   6.008
 4631TIP3    H113838   7.525   5.951   6.023
 4631TIP3    H213839   7.418   5.932   5.917
 4632TIP3   OH213840   1.739   4.263   3.282
 4632TIP3    H113841   1.680   4.339   3.281
 4632TIP3    H213842   1.822   4.296   3.248
 4633TIP3   OH213843   8.067   2.111   2.771
 4633TIP3    H113844   8.048   2.088   2.861
 4633TIP3    H213845   7.987   2.152   2.738
 4634TIP3   OH213846   6.767   5.294   1.905
 4634TIP3    H113847   6.703   5.353   1.946
 4634TIP3    H213848   6.848   5.344   1.905
 4635TIP3   OH213849   4.229   2.080   6.443
 4635TIP3    H113850   4.279   2.113   6.369
 4635TIP3    H213851   4.250   1.987   6.448
 4636TIP3   OH213852   5.988   7.736   3.620
 4636TIP3    H113853   6.039   7.816   3.633
 4636TIP3    H213854   5.926   7.758   3.550
 4637TIP3   OH213855   0.674   3.249   1.967
 4637TIP3    H113856   0.743   3.188   1.943
 4637TIP3    H213857   0.718   3.316   2.020
 4638TIP3   OH213858   2.112   2.571   3.734
 4638TIP3    H113859   2.183   2.510   3.717
 4638TIP3    H213860   2.081   2.598   3.648
 4639TIP3   OH213861   0.569   6.485   2.123
 4639TIP3    H113862   0.602   6.395   2.128
 4639TIP3    H213863   0.545   6.496   2.031
 4640TIP3   OH213864   0.561   5.055   5.844
 4640TIP3    H113865   0.643   5.013   5.869
 4640TIP3    H213866   0.541   5.020   5.758
 4641TIP3   OH213867   1.650   7.007   0.184
 4641TIP3    H113868   1.585   6.997   0.254
 4641TIP3    H213869   1.605   6.975   0.106
 4642TIP3   OH213870   6.445   5.111   5.302
 4642TIP3    H113871   6.531   5.115   5.260
 4642TIP3    H213872   6.458   5.152   5.388
 4643TIP3   OH213873   3.017   0.836   5.810
 4643TIP3    H113874   3.096   0.871   5.850
 4643TIP3    H213875   2.951   0.905   5.821
 4644TIP3   OH213876   2.303   4.208   1.001
 4644TIP3    H113877   2.302   4.304   1.001
 4644TIP3    H213878   2.216   4.183   1.033
 4645TIP3   OH213879   5.430   7.736   3.094
 4645TIP3    H113880   5.505   7.690   3.132
 4645TIP3    H213881   5.373   7.753   3.169
 4646TIP3   OH213882   4.370   3.729   0.472
 4646TIP3    H113883   4.396   3.744   0.563
 4646TIP3    H213884   4.355   3.635   0.467
 4647TIP3   OH213885   3.138   1.423   0.858
 4647TIP3    H113886   3.054   1.406   0.899
 4647TIP3    H213887   3.127   1.394   0.767
 4648TIP3   OH213888   8.302   2.990   6.194
 4648TIP3    H113889   8.235   2.950   6.140
 4648TIP3    H213890   8.369   3.020   6.132
 4649TIP3   OH213891   3.065   0.667   0.789
 4649TIP3    H113892   3.104   0.716   0.861
 4649TIP3    H213893   3.100   0.709   0.710
 4650TIP3   OH213894   0.336   4.644   1.309
 4650TIP3    H113895   0.331   4.567   1.253
 4650TIP3    H213896   0.275   4.626   1.380
 4651TIP3   OH213897   6.304   7.644   4.771
 4651TIP3    H113898   6.271   7.712   4.712
 4651TIP3    H213899   6.316   7.568   4.715
 4652TIP3   OH213900   0.603   7.444   6.090
 4652TIP3    H113901   0.578   7.457   6.182
 4652TIP3    H213902   0.650   7.524   6.066
 4653TIP3   OH213903   1.785   3.952   2.162
 4653TIP3    H113904   1.793   4.040   2.196
 4653TIP3    H213905   1.825   3.956   2.074
 4654TIP3   OH213906   4.330   1.423   2.097
 4654TIP3    H113907   4.304   1.485   2.028
 4654TIP3    H213908   4.248   1.385   2.127
 4655TIP3   OH213909   2.334   0.231   6.187
 4655TIP3    H113910   2.289   0.250   6.105
 4655TIP3    H213911   2.414   0.186   6.162
 4656TIP3   OH213912   0.979   6.534   0.081
 4656TIP3    H113913   1.055   6.488   0.046
 4656TIP3    H213914   1.015   6.603   0.136
 4657TIP3   OH213915   5.929   4.570   4.168
 4657TIP3    H113916   5.898   4.660   4.175
 4657TIP3    H213917   5.876   4.532   4.098
 4658TIP3   OH213918   5.694   7.649   6.036
 4658TIP3    H113919   5.678   7.723   5.977
 4658TIP3    H213920   5.630   7.583   6.010
 4659TIP3   OH213921   6.022   4.095   1.888
 4659TIP3    H113922   5.929   4.075   1.876
 4659TIP3    H213923   6.056   4.023   1.940
 4660TIP3   OH213924   0.684   5.989   5.471
 4660TIP3    H113925   0.721   6.035   5.546
 4660TIP3    H213926   0.759   5.969   5.416
 4661TIP3   OH213927   3.689   7.183   5.121
 4661TIP3    H113928   3.710   7.240   5.047
 4661TIP3    H213929   3.594   7.171   5.116
 4662TIP3   OH213930   3.263   4.294   6.188
 4662TIP3    H113931   3.236   4.365   6.130
 4662TIP3    H213932   3.239   4.323   6.275
 4663TIP3   OH213933   7.734   3.935   1.940
 4663TIP3    H113934   7.756   3.846   1.910
 4663TIP3    H213935   7.815   3.969   1.977
 4664TIP3   OH213936   6.463   3.035   4.843
 4664TIP3    H113937   6.480   2.998   4.756
 4664TIP3    H213938   6.524   3.109   4.849
 4665TIP3   OH213939   5.061   6.583   4.891
 4665TIP3    H113940   4.971   6.612   4.876
 4665TIP3    H213941   5.056   6.524   4.965
 4666TIP3   OH213942   3.493   4.611   2.395
 4666TIP3    H113943   3.546   4.599   2.316
 4666TIP3    H213944   3.497   4.705   2.412
 4667TIP3   OH213945   3.407   3.235   3.119
 4667TIP3    H113946   3.419   3.141   3.105
 4667TIP3    H213947   3.481   3.276   3.073
 4668TIP3   OH213948   7.373   1.417   2.453
 4668TIP3    H113949   7.437   1.348   2.436
 4668TIP3    H213950   7.358   1.413   2.548
 4669TIP3   OH213951   7.111   5.421   3.401
 4669TIP3    H113952   7.120   5.511   3.370
 4669TIP3    H213953   7.051   5.380   3.339
 4670TIP3   OH213954   4.387   1.689   1.082
 4670TIP3    H113955   4.428   1.683   1.168
 4670TIP3    H213956   4.320   1.756   1.091
 4671TIP3   OH213957   7.410   5.189   4.441
 4671TIP3    H113958   7.434   5.112   4.389
 4671TIP3    H213959   7.485   5.248   4.434
 4672TIP3   OH213960   7.705   3.456   4.382
 4672TIP3    H113961   7.712   3.545   4.417
 4672TIP3    H213962   7.615   3.449   4.352
 4673TIP3   OH213963   8.329   0.072   3.894
 4673TIP3    H113964   8.332   0.097   3.987
 4673TIP3    H213965   8.236   0.070   3.873
 4674TIP3   OH213966   3.267   7.454   1.102
 4674TIP3    H113967   3.254   7.359   1.105
 4674TIP3    H213968   3.273   7.475   1.009
 4675TIP3   OH213969   5.835   7.432   4.993
 4675TIP3    H113970   5.878   7.348   5.010
 4675TIP3    H213971   5.885   7.471   4.921
 4676TIP3   OH213972   0.462   0.811  -0.006
 4676TIP3    H113973   0.466   0.733   0.049
 4676TIP3    H213974   0.546   0.855   0.007
 4677TIP3   OH213975   7.129   4.685   1.996
 4677TIP3    H113976   7.131   4.597   2.033
 4677TIP3    H213977   7.179   4.678   1.915
 4678TIP3   OH213978   6.539   2.708   5.737
 4678TIP3    H113979   6.472   2.661   5.688
 4678TIP3    H213980   6.621   2.666   5.712
 4679TIP3   OH213981   7.161   5.584   3.638
 4679TIP3    H113982   7.219   5.638   3.692
 4679TIP3    H213983   7.085   5.639   3.621
 4680TIP3   OH213984   1.239   0.730   4.127
 4680TIP3    H113985   1.319   0.684   4.150
 4680TIP3    H213986   1.185   0.726   4.206
 4681TIP3   OH213987   4.096   7.619   3.289
 4681TIP3    H113988   4.153   7.669   3.230
 4681TIP3    H213989   4.127   7.642   3.376
 4682TIP3   OH213990   5.877   4.578   3.624
 4682TIP3    H113991   5.901   4.511   3.688
 4682TIP3    H213992   5.872   4.659   3.675
 4683TIP3   OH213993   6.420   7.553   4.451
 4683TIP3    H113994   6.356   7.483   4.437
 4683TIP3    H213995   6.395   7.622   4.389
 4684TIP3   OH213996   2.426   0.589   5.404
 4684TIP3    H113997   2.386   0.622   5.323
 4684TIP3    H213998   2.420   0.663   5.464
 4685TIP3   OH213999   3.947   6.380   1.589
 4685TIP3    H114000   3.887   6.433   1.641
 4685TIP3    H214001   4.013   6.442   1.557
 4686TIP3   OH214002   1.981   7.490   4.209
 4686TIP3    H114003   1.976   7.584   4.194
 4686TIP3    H214004   2.049   7.479   4.275
 4687TIP3   OH214005   7.937   6.421   4.632
 4687TIP3    H114006   7.911   6.468   4.552
 4687TIP3    H214007   7.942   6.329   4.605
 4688TIP3   OH214008   6.810   4.968   3.283
 4688TIP3    H114009   6.792   4.891   3.228
 4688TIP3    H214010   6.756   4.955   3.361
 4689TIP3   OH214011   1.170   1.978   1.874
 4689TIP3    H114012   1.192   1.972   1.967
 4689TIP3    H214013   1.254   1.971   1.829
 4690TIP3   OH214014   5.458   6.833   5.131
 4690TIP3    H114015   5.430   6.836   5.039
 4690TIP3    H214016   5.395   6.774   5.173
 4691TIP3   OH214017   1.662   2.315   2.321
 4691TIP3    H114018   1.746   2.357   2.300
 4691TIP3    H214019   1.599   2.357   2.262
 4692TIP3   OH214020   1.643   5.388   6.481
 4692TIP3    H114021   1.657   5.481   6.497
 4692TIP3    H214022   1.548   5.380   6.468
 4693TIP3   OH214023   7.458   5.501   4.845
 4693TIP3    H114024   7.528   5.542   4.795
 4693TIP3    H214025   7.485   5.509   4.936
 4694TIP3   OH214026   6.652   3.769   0.568
 4694TIP3    H114027   6.562   3.744   0.590
 4694TIP3    H214028   6.646   3.862   0.546
 4695TIP3   OH214029   1.471   7.451   3.669
 4695TIP3    H114030   1.413   7.438   3.744
 4695TIP3    H214031   1.414   7.440   3.593
 4696TIP3   OH214032  -0.003   2.167   4.781
 4696TIP3    H114033  -0.004   2.199   4.871
 4696TIP3    H214034   0.088   2.180   4.752
 4697TIP3   OH214035   6.511   3.990   2.851
 4697TIP3    H114036   6.465   4.005   2.933
 4697TIP3    H214037   6.595   4.035   2.862
 4698TIP3   OH214038   2.277   3.428   0.858
 4698TIP3    H114039   2.197   3.397   0.901
 4698TIP3    H214040   2.334   3.352   0.855
 4699TIP3   OH214041   1.109   1.177   3.915
 4699TIP3    H114042   1.104   1.136   4.001
 4699TIP3    H214043   1.096   1.270   3.931
 4700TIP3   OH214044   0.395   2.081   5.332
 4700TIP3    H114045   0.302   2.057   5.322
 4700TIP3    H214046   0.398   2.174   5.311
 4701TIP3   OH214047   6.442   6.344   1.267
 4701TIP3    H114048   6.486   6.425   1.242
 4701TIP3    H214049   6.391   6.367   1.345
 4702TIP3   OH214050   0.968   6.282   1.900
 4702TIP3    H114051   1.057   6.254   1.921
 4702TIP3    H214052   0.970   6.377   1.907
 4703TIP3   OH214053   8.106   4.559   1.609
 4703TIP3    H114054   8.017   4.532   1.630
 4703TIP3    H214055   8.162   4.494   1.652
 4704TIP3   OH214056   5.144   4.242   3.178
 4704TIP3    H114057   5.126   4.148   3.170
 4704TIP3    H214058   5.118   4.278   3.093
 4705TIP3   OH214059   4.120   2.556   6.091
 4705TIP3    H114060   4.129   2.462   6.074
 4705TIP3    H214061   4.073   2.590   6.015
 4706TIP3   OH214062   6.133   2.063   4.307
 4706TIP3    H114063   6.187   2.003   4.358
 4706TIP3    H214064   6.060   2.009   4.277
 4707TIP3   OH214065   2.425   0.192   0.167
 4707TIP3    H114066   2.467   0.144   0.095
 4707TIP3    H214067   2.467   0.157   0.246
 4708TIP3   OH214068   8.164   5.052   4.692
 4708TIP3    H114069   8.252   5.076   4.721
 4708TIP3    H214070   8.164   5.071   4.598
 4709TIP3   OH214071   1.391   3.925   4.343
 4709TIP3    H114072   1.405   3.922   4.249
 4709TIP3    H214073   1.328   3.855   4.360
 4710TIP3   OH214074   3.953   4.116   4.891
 4710TIP3    H114075   3.857   4.122   4.891
 4710TIP3    H214076   3.975   4.080   4.805
 4711TIP3   OH214077   5.931   6.668   6.458
 4711TIP3    H114078   5.929   6.741   6.396
 4711TIP3    H214079   5.839   6.641   6.465
 4712TIP3   OH214080   5.789   4.971   2.860
 4712TIP3    H114081   5.881   4.963   2.883
 4712TIP3    H214082   5.788   5.019   2.777
 4713TIP3   OH214083   6.767   6.295   0.121
 4713TIP3    H114084   6.794   6.206   0.097
 4713TIP3    H214085   6.788   6.302   0.214
 4714TIP3   OH214086   7.592   0.538   4.826
 4714TIP3    H114087   7.628   0.475   4.888
 4714TIP3    H214088   7.591   0.492   4.742
 4715TIP3   OH214089   3.014   6.380   4.377
 4715TIP3    H114090   3.036   6.361   4.286
 4715TIP3    H214091   2.919   6.367   4.382
 4716TIP3   OH214092   4.666   3.062   3.469
 4716TIP3    H114093   4.596   3.126   3.457
 4716TIP3    H214094   4.746   3.111   3.448
 4717TIP3   OH214095   3.914   6.322   5.984
 4717TIP3    H114096   3.844   6.367   5.937
 4717TIP3    H214097   3.952   6.390   6.040
 4718TIP3   OH214098   2.169   4.328   5.897
 4718TIP3    H114099   2.237   4.300   5.836
 4718TIP3    H214100   2.153   4.420   5.874
 4719TIP3   OH214101   0.064   1.770   4.137
 4719TIP3    H114102   0.150   1.784   4.096
 4719TIP3    H214103   0.061   1.675   4.153
 4720TIP3   OH214104   6.216   3.721   3.169
 4720TIP3    H114105   6.230   3.640   3.218
 4720TIP3    H214106   6.296   3.772   3.183
 4721TIP3   OH214107   7.786   7.470   1.444
 4721TIP3    H114108   7.705   7.451   1.398
 4721TIP3    H214109   7.856   7.444   1.384
 4722TIP3   OH214110   5.470   7.095   2.062
 4722TIP3    H114111   5.457   7.005   2.091
 4722TIP3    H214112   5.555   7.119   2.099
 4723TIP3   OH214113   2.493   2.612   2.826
 4723TIP3    H114114   2.498   2.539   2.764
 4723TIP3    H214115   2.493   2.691   2.771
 4724TIP3   OH214116   2.882   4.091   2.839
 4724TIP3    H114117   2.962   4.136   2.866
 4724TIP3    H214118   2.811   4.145   2.874
 4725TIP3   OH214119   8.079   2.801   5.124
 4725TIP3    H114120   7.989   2.781   5.098
 4725TIP3    H214121   8.074   2.885   5.168
 4726TIP3   OH214122   3.379   0.835   2.165
 4726TIP3    H114123   3.399   0.752   2.121
 4726TIP3    H214124   3.460   0.885   2.161
 4727TIP3   OH214125   1.094   5.939   6.188
 4727TIP3    H114126   1.185   5.949   6.160
 4727TIP3    H214127   1.090   5.852   6.227
 4728TIP3   OH214128   2.174   1.216   5.202
 4728TIP3    H114129   2.254   1.254   5.237
 4728TIP3    H214130   2.104   1.259   5.250
 4729TIP3   OH214131   2.532   0.732   1.620
 4729TIP3    H114132   2.544   0.690   1.706
 4729TIP3    H214133   2.445   0.704   1.592
 4730TIP3   OH214134   2.675   0.977   6.077
 4730TIP3    H114135   2.696   1.071   6.081
 4730TIP3    H214136   2.598   0.967   6.132
 4731TIP3   OH214137   6.763   0.510   5.152
 4731TIP3    H114138   6.835   0.489   5.092
 4731TIP3    H214139   6.806   0.553   5.226
 4732TIP3   OH214140   0.665   6.877   4.186
 4732TIP3    H114141   0.571   6.875   4.171
 4732TIP3    H214142   0.703   6.880   4.099
 4733TIP3   OH214143   1.853   4.239   2.940
 4733TIP3    H114144   1.840   4.160   2.992
 4733TIP3    H214145   1.912   4.293   2.992
 4734TIP3   OH214146   4.959   6.206   3.800
 4734TIP3    H114147   5.002   6.182   3.883
 4734TIP3    H214148   4.997   6.291   3.778
 4735TIP3   OH214149   5.248   6.307   2.749
 4735TIP3    H114150   5.155   6.317   2.766
 4735TIP3    H214151   5.273   6.229   2.799
 4736TIP3   OH214152   6.421   4.944   0.690
 4736TIP3    H114153   6.473   5.022   0.709
 4736TIP3    H214154   6.347   4.977   0.638
 4737TIP3   OH214155   2.643   2.150   6.653
 4737TIP3    H114156   2.704   2.100   6.598
 4737TIP3    H214157   2.572   2.175   6.594
 4738TIP3   OH214158   8.032   2.664   2.068
 4738TIP3    H114159   7.972   2.590   2.065
 4738TIP3    H214160   8.116   2.628   2.040
 4739TIP3   OH214161   5.281   6.114   1.926
 4739TIP3    H114162   5.207   6.142   1.873
 4739TIP3    H214163   5.283   6.019   1.916
 4740TIP3   OH214164   5.608   4.992   3.051
 4740TIP3    H114165   5.682   4.978   2.992
 4740TIP3    H214166   5.546   5.044   2.999
 4741TIP3   OH214167   8.090   1.680   3.044
 4741TIP3    H114168   8.066   1.607   2.988
 4741TIP3    H214169   8.028   1.675   3.117
 4742TIP3   OH214170   0.223   7.324   6.360
 4742TIP3    H114171   0.180   7.249   6.402
 4742TIP3    H214172   0.161   7.354   6.294
 4743TIP3   OH214173   0.026   2.130   4.460
 4743TIP3    H114174  -0.030   2.147   4.536
 4743TIP3    H214175   0.114   2.154   4.489
 4744TIP3   OH214176   4.180   0.088   4.683
 4744TIP3    H114177   4.261   0.038   4.669
 4744TIP3    H214178   4.114   0.042   4.631
 4745TIP3   OH214179   7.276   7.002   3.315
 4745TIP3    H114180   7.331   6.961   3.382
 4745TIP3    H214181   7.237   6.928   3.267
 4746TIP3   OH214182   1.496   1.834   0.563
 4746TIP3    H114183   1.591   1.824   0.557
 4746TIP3    H214184   1.460   1.753   0.526
 4747TIP3   OH214185   2.425   0.454   1.357
 4747TIP3    H114186   2.366   0.380   1.354
 4747TIP3    H214187   2.501   0.423   1.407
 4748TIP3   OH214188   0.043   3.566   1.812
 4748TIP3    H114189   0.112   3.499   1.806
 4748TIP3    H214190  -0.008   3.542   1.889
 4749TIP3   OH214191   4.508   4.072   3.716
 4749TIP3    H114192   4.525   3.978   3.715
 4749TIP3    H214193   4.450   4.085   3.792
 4750TIP3   OH214194   2.408   3.211   6.640
 4750TIP3    H114195   2.395   3.130   6.591
 4750TIP3    H214196   2.484   3.252   6.598
 4751TIP3   OH214197   7.502   2.363   2.649
 4751TIP3    H114198   7.435   2.353   2.582
 4751TIP3    H214199   7.465   2.319   2.726
 4752TIP3   OH214200   7.988   4.702   5.470
 4752TIP3    H114201   7.929   4.745   5.408
 4752TIP3    H214202   7.931   4.668   5.539
 4753TIP3   OH214203   1.859   2.077   1.197
 4753TIP3    H114204   1.893   2.047   1.281
 4753TIP3    H214205   1.775   2.033   1.188
 4754TIP3   OH214206   4.817   2.982   4.427
 4754TIP3    H114207   4.769   2.990   4.344
 4754TIP3    H214208   4.757   3.016   4.492
 4755TIP3   OH214209   3.112   2.443   3.253
 4755TIP3    H114210   3.130   2.452   3.346
 4755TIP3    H214211   3.137   2.353   3.232
 4756TIP3   OH214212   7.679   4.855   6.084
 4756TIP3    H114213   7.631   4.889   6.008
 4756TIP3    H214214   7.683   4.928   6.145
 4757TIP3   OH214215   3.064   2.011   5.315
 4757TIP3    H114216   3.028   2.091   5.278
 4757TIP3    H214217   3.094   1.960   5.239
 4758TIP3   OH214218   4.853   0.195   5.840
 4758TIP3    H114219   4.804   0.253   5.781
 4758TIP3    H214220   4.944   0.202   5.811
 4759TIP3   OH214221   0.683   2.755   0.923
 4759TIP3    H114222   0.695   2.821   0.854
 4759TIP3    H214223   0.635   2.801   0.992
 4760TIP3   OH214224   6.687   5.534   3.478
 4760TIP3    H114225   6.631   5.603   3.442
 4760TIP3    H214226   6.652   5.453   3.442
 4761TIP3   OH214227   2.074   4.757   1.677
 4761TIP3    H114228   2.009   4.770   1.607
 4761TIP3    H214229   2.158   4.758   1.632
 4762TIP3   OH214230   6.943   4.271   0.489
 4762TIP3    H114231   7.016   4.209   0.488
 4762TIP3    H214232   6.984   4.357   0.495
 4763TIP3   OH214233   1.320   1.206   0.625
 4763TIP3    H114234   1.336   1.116   0.654
 4763TIP3    H214235   1.270   1.196   0.544
 4764TIP3   OH214236   7.354   4.386   5.104
 4764TIP3    H114237   7.330   4.356   5.016
 4764TIP3    H214238   7.333   4.479   5.105
 4765TIP3   OH214239   4.882   1.853   0.134
 4765TIP3    H114240   4.796   1.894   0.130
 4765TIP3    H214241   4.933   1.909   0.192
 4766TIP3   OH214242   2.664   7.680   1.244
 4766TIP3    H114243   2.620   7.637   1.170
 4766TIP3    H214244   2.751   7.701   1.211
 4767TIP3   OH214245   7.114   2.163   6.442
 4767TIP3    H114246   7.207   2.150   6.459
 4767TIP3    H214247   7.109   2.250   6.402
 4768TIP3   OH214248   6.726   1.546   6.802
 4768TIP3    H114249   6.768   1.490   6.737
 4768TIP3    H214250   6.759   1.634   6.783
 4769TIP3   OH214251   6.363   3.557   4.163
 4769TIP3    H114252   6.268   3.569   4.170
 4769TIP3    H214253   6.376   3.462   4.167
 4770TIP3   OH214254   4.252   2.642   0.845
 4770TIP3    H114255   4.179   2.703   0.832
 4770TIP3    H214256   4.270   2.608   0.758
 4771TIP3   OH214257   2.437   7.612   0.437
 4771TIP3    H114258   2.378   7.683   0.460
 4771TIP3    H214259   2.518   7.655   0.411
 4772TIP3   OH214260   3.325   4.096   3.025
 4772TIP3    H114261   3.381   4.155   3.075
 4772TIP3    H214262   3.244   4.092   3.075
 4773TIP3   OH214263   6.643   4.883   5.350
 4773TIP3    H114264   6.712   4.949   5.357
 4773TIP3    H214265   6.657   4.843   5.264
 4774TIP3   OH214266   5.320   1.615   5.706
 4774TIP3    H114267   5.281   1.537   5.666
 4774TIP3    H214268   5.365   1.659   5.634
 4775TIP3   OH214269   4.081   4.885   1.467
 4775TIP3    H114270   4.050   4.923   1.385
 4775TIP3    H214271   4.160   4.935   1.488
 4776TIP3   OH214272   6.993   0.530   5.861
 4776TIP3    H114273   7.085   0.512   5.842
 4776TIP3    H214274   6.952   0.444   5.870
 4777TIP3   OH214275   2.954   5.320   0.343
 4777TIP3    H114276   2.862   5.346   0.343
 4777TIP3    H214277   2.985   5.341   0.255
 4778TIP3   OH214278   1.283   5.093   0.450
 4778TIP3    H114279   1.350   5.055   0.393
 4778TIP3    H214280   1.201   5.075   0.406
 4779TIP3   OH214281   7.034   4.495   2.454
 4779TIP3    H114282   7.034   4.560   2.524
 4779TIP3    H214283   7.068   4.416   2.495
 4780TIP3   OH214284   7.858   2.929   2.707
 4780TIP3    H114285   7.862   2.913   2.801
 4780TIP3    H214286   7.917   2.863   2.669
 4781TIP3   OH214287   1.497   7.248   4.759
 4781TIP3    H114288   1.513   7.341   4.775
 4781TIP3    H214289   1.426   7.246   4.695
 4782TIP3   OH214290   4.132   6.466   3.599
 4782TIP3    H114291   4.065   6.516   3.553
 4782TIP3    H214292   4.109   6.475   3.692
 4783TIP3   OH214293   2.086   3.703   4.280
 4783TIP3    H114294   2.130   3.689   4.364
 4783TIP3    H214295   2.146   3.759   4.230
 4784TIP3   OH214296   0.555   0.603   1.631
 4784TIP3    H114297   0.577   0.579   1.721
 4784TIP3    H214298   0.459   0.600   1.628
 4785TIP3   OH214299   0.193   3.542   3.573
 4785TIP3    H114300   0.258   3.519   3.508
 4785TIP3    H214301   0.241   3.546   3.656
 4786TIP3   OH214302   6.556   1.310   6.482
 4786TIP3    H114303   6.481   1.294   6.540
 4786TIP3    H214304   6.576   1.224   6.444
 4787TIP3   OH214305   3.325   2.712   3.453
 4787TIP3    H114306   3.234   2.736   3.474
 4787TIP3    H214307   3.346   2.766   3.377
 4788TIP3   OH214308   1.653   4.615   4.281
 4788TIP3    H114309   1.730   4.596   4.334
 4788TIP3    H214310   1.623   4.530   4.249
 4789TIP3   OH214311   6.604   4.390   2.713
 4789TIP3    H114312   6.653   4.319   2.754
 4789TIP3    H214313   6.631   4.388   2.621
 4790TIP3   OH214314   6.110   6.665   6.666
 4790TIP3    H114315   6.051   6.607   6.619
 4790TIP3    H214316   6.054   6.712   6.728
 4791TIP3   OH214317   6.411   6.630   1.172
 4791TIP3    H114318   6.448   6.704   1.123
 4791TIP3    H214319   6.431   6.649   1.263
 4792TIP3   OH214320   4.770   1.977   5.981
 4792TIP3    H114321   4.798   1.969   5.889
 4792TIP3    H214322   4.691   1.923   5.987
 4793TIP3   OH214323   4.286   4.475   3.086
 4793TIP3    H114324   4.355   4.509   3.029
 4793TIP3    H214325   4.209   4.468   3.030
 4794TIP3   OH214326   7.423   3.574   1.208
 4794TIP3    H114327   7.469   3.506   1.159
 4794TIP3    H214328   7.423   3.650   1.149
 4795TIP3   OH214329   3.217   2.542   1.373
 4795TIP3    H114330   3.279   2.585   1.314
 4795TIP3    H214331   3.186   2.612   1.431
 4796TIP3   OH214332   5.292   4.229   2.901
 4796TIP3    H114333   5.205   4.259   2.875
 4796TIP3    H214334   5.340   4.220   2.819
 4797TIP3   OH214335   6.811   7.572   3.373
 4797TIP3    H114336   6.823   7.501   3.436
 4797TIP3    H214337   6.848   7.649   3.416
 4798TIP3   OH214338   2.915   2.346   6.682
 4798TIP3    H114339   2.880   2.375   6.598
 4798TIP3    H214340   2.893   2.253   6.686
 4799TIP3   OH214341   2.940   5.103   2.195
 4799TIP3    H114342   2.963   5.142   2.110
 4799TIP3    H214343   2.854   5.064   2.181
 4800TIP3   OH214344   1.399   0.186   0.355
 4800TIP3    H114345   1.460   0.233   0.412
 4800TIP3    H214346   1.452   0.162   0.278
 4801TIP3   OH214347   3.986   4.603   1.956
 4801TIP3    H114348   4.022   4.688   1.984
 4801TIP3    H214349   4.036   4.581   1.877
 4802TIP3   OH214350   2.822   2.852   1.770
 4802TIP3    H114351   2.807   2.835   1.863
 4802TIP3    H214352   2.892   2.918   1.768
 4803TIP3   OH214353   1.239   3.134   0.008
 4803TIP3    H114354   1.233   3.185   0.089
 4803TIP3    H214355   1.219   3.044   0.036
 4804TIP3   OH214356   7.132   5.959   4.878
 4804TIP3    H114357   7.123   5.983   4.785
 4804TIP3    H214358   7.065   5.892   4.892
 4805TIP3   OH214359   6.915   5.448   6.113
 4805TIP3    H114360   6.844   5.433   6.051
 4805TIP3    H214361   6.902   5.537   6.144
 4806TIP3   OH214362   2.798   1.721   1.978
 4806TIP3    H114363   2.875   1.669   1.956
 4806TIP3    H214364   2.728   1.657   1.988
 4807TIP3   OH214365   7.130   3.293   1.139
 4807TIP3    H114366   7.048   3.250   1.164
 4807TIP3    H214367   7.170   3.231   1.078
 4808TIP3   OH214368   7.056   5.498   5.347
 4808TIP3    H114369   7.021   5.466   5.264
 4808TIP3    H214370   7.033   5.431   5.411
 4809TIP3   OH214371   7.992   1.185   5.768
 4809TIP3    H114372   7.934   1.117   5.800
 4809TIP3    H214373   8.036   1.218   5.846
 4810TIP3   OH214374   5.386   1.115   5.661
 4810TIP3    H114375   5.310   1.140   5.713
 4810TIP3    H214376   5.351   1.098   5.573
 4811TIP3   OH214377   6.573   1.313   3.066
 4811TIP3    H114378   6.552   1.260   2.989
 4811TIP3    H214379   6.626   1.385   3.032
 4812TIP3   OH214380   7.754   0.356   1.847
 4812TIP3    H114381   7.694   0.285   1.866
 4812TIP3    H214382   7.840   0.314   1.840
 4813TIP3   OH214383   5.752   0.684   6.440
 4813TIP3    H114384   5.846   0.677   6.455
 4813TIP3    H214385   5.720   0.594   6.448
 4814TIP3   OH214386   0.369   2.260   5.089
 4814TIP3    H114387   0.414   2.283   5.008
 4814TIP3    H214388   0.434   2.273   5.158
 4815TIP3   OH214389   2.508   5.204   0.693
 4815TIP3    H114390   2.545   5.204   0.604
 4815TIP3    H214391   2.553   5.277   0.737
 4816TIP3   OH214392   4.698   5.744   2.858
 4816TIP3    H114393   4.752   5.678   2.814
 4816TIP3    H214394   4.665   5.798   2.787
 4817TIP3   OH214395   4.595   2.950   4.630
 4817TIP3    H114396   4.526   3.003   4.591
 4817TIP3    H214397   4.550   2.893   4.692
 4818TIP3   OH214398   5.671   5.277   3.752
 4818TIP3    H114399   5.658   5.365   3.716
 4818TIP3    H214400   5.590   5.230   3.731
 4819TIP3   OH214401   1.957   4.969   4.854
 4819TIP3    H114402   1.874   4.944   4.813
 4819TIP3    H214403   1.932   5.029   4.923
 4820TIP3   OH214404   0.712   3.780   5.341
 4820TIP3    H114405   0.689   3.732   5.420
 4820TIP3    H214406   0.630   3.792   5.294
 4821TIP3   OH214407   3.149   0.686   0.271
 4821TIP3    H114408   3.093   0.739   0.328
 4821TIP3    H214409   3.183   0.618   0.328
 4822TIP3   OH214410   1.613   5.945   6.622
 4822TIP3    H114411   1.655   5.966   6.705
 4822TIP3    H214412   1.603   6.029   6.578
 4823TIP3   OH214413   4.939   2.327   6.530
 4823TIP3    H114414   4.992   2.398   6.494
 4823TIP3    H214415   4.995   2.249   6.521
 4824TIP3   OH214416   5.966   4.612   0.218
 4824TIP3    H114417   5.975   4.525   0.180
 4824TIP3    H214418   5.922   4.663   0.150
 4825TIP3   OH214419   1.294   3.501   0.511
 4825TIP3    H114420   1.334   3.583   0.482
 4825TIP3    H214421   1.335   3.482   0.595
 4826TIP3   OH214422   5.411   7.846   1.488
 4826TIP3    H114423   5.324   7.842   1.528
 4826TIP3    H214424   5.471   7.832   1.560
 4827TIP3   OH214425   3.590   7.696   1.676
 4827TIP3    H114426   3.528   7.634   1.636
 4827TIP3    H214427   3.579   7.684   1.770
 4828TIP3   OH214428   6.157   2.857   4.042
 4828TIP3    H114429   6.070   2.895   4.055
 4828TIP3    H214430   6.168   2.855   3.947
 4829TIP3   OH214431   0.701   1.707   2.584
 4829TIP3    H114432   0.631   1.704   2.649
 4829TIP3    H214433   0.676   1.641   2.519
 4830TIP3   OH214434   5.022   0.653   5.867
 4830TIP3    H114435   5.077   0.599   5.924
 4830TIP3    H214436   5.065   0.739   5.867
 4831TIP3   OH214437   2.399   1.737   3.159
 4831TIP3    H114438   2.381   1.818   3.206
 4831TIP3    H214439   2.449   1.765   3.082
 4832TIP3   OH214440   6.157   0.466   4.255
 4832TIP3    H114441   6.075   0.479   4.207
 4832TIP3    H214442   6.165   0.544   4.310
 4833TIP3   OH214443   1.026   1.328   4.145
 4833TIP3    H114444   1.020   1.275   4.225
 4833TIP3    H214445   0.969   1.403   4.162
 4834TIP3   OH214446   1.193   7.501   3.826
 4834TIP3    H114447   1.141   7.463   3.755
 4834TIP3    H214448   1.141   7.486   3.905
 4835TIP3   OH214449   6.082   4.114   0.389
 4835TIP3    H114450   5.987   4.117   0.386
 4835TIP3    H214451   6.103   4.126   0.482
 4836TIP3   OH214452   1.185   1.942   5.965
 4836TIP3    H114453   1.269   1.947   5.920
 4836TIP3    H214454   1.142   2.026   5.945
 4837TIP3   OH214455   1.861   1.267   1.524
 4837TIP3    H114456   1.816   1.320   1.590
 4837TIP3    H214457   1.791   1.229   1.472
 4838TIP3   OH214458   7.977   5.758   0.017
 4838TIP3    H114459   7.970   5.676   0.065
 4838TIP3    H214460   7.887   5.785   0.002
 4839TIP3   OH214461   7.117   6.803   0.790
 4839TIP3    H114462   7.135   6.767   0.704
 4839TIP3    H214463   7.152   6.739   0.851
 4840TIP3   OH214464   0.274   6.969   5.345
 4840TIP3    H114465   0.351   7.012   5.382
 4840TIP3    H214466   0.218   6.953   5.420
 4841TIP3   OH214467   0.259   0.440   6.733
 4841TIP3    H114468   0.327   0.508   6.731
 4841TIP3    H214469   0.302   0.364   6.693
 4842TIP3   OH214470   6.800   3.561   2.267
 4842TIP3    H114471   6.855   3.617   2.211
 4842TIP3    H214472   6.845   3.560   2.351
 4843TIP3   OH214473   0.195   1.719   1.281
 4843TIP3    H114474   0.273   1.681   1.321
 4843TIP3    H214475   0.206   1.813   1.290
 4844TIP3   OH214476   6.310   4.952   3.931
 4844TIP3    H114477   6.349   4.997   4.005
 4844TIP3    H214478   6.254   5.018   3.889
 4845TIP3   OH214479   5.850   3.618   4.014
 4845TIP3    H114480   5.874   3.596   3.924
 4845TIP3    H214481   5.779   3.681   4.005
 4846TIP3   OH214482   6.932   2.466   1.975
 4846TIP3    H114483   6.907   2.557   1.965
 4846TIP3    H214484   6.900   2.442   2.062
 4847TIP3   OH214485   4.035   3.300   3.378
 4847TIP3    H114486   4.116   3.347   3.395
 4847TIP3    H214487   4.002   3.276   3.464
 4848TIP3   OH214488   5.685   6.271   1.467
 4848TIP3    H114489   5.729   6.352   1.496
 4848TIP3    H214490   5.742   6.235   1.400
 4849TIP3   OH214491   0.226   0.860   1.650
 4849TIP3    H114492   0.279   0.939   1.666
 4849TIP3    H214493   0.257   0.827   1.566
 4850TIP3   OH214494   4.128   0.058   6.763
 4850TIP3    H114495   4.172   0.040   6.846
 4850TIP3    H214496   4.104   0.151   6.768
 4851TIP3   OH214497   2.579   5.350   0.993
 4851TIP3    H114498   2.566   5.272   1.048
 4851TIP3    H214499   2.652   5.327   0.935
 4852TIP3   OH214500   2.523   4.080   0.486
 4852TIP3    H114501   2.547   4.075   0.579
 4852TIP3    H214502   2.460   4.010   0.473
 4853TIP3   OH214503   0.540   5.561   0.817
 4853TIP3    H114504   0.605   5.622   0.852
 4853TIP3    H214505   0.587   5.478   0.808
 4854TIP3   OH214506   4.567   5.514   1.994
 4854TIP3    H114507   4.565   5.418   1.994
 4854TIP3    H214508   4.539   5.539   2.081
 4855TIP3   OH214509   4.716   3.825   6.226
 4855TIP3    H114510   4.634   3.805   6.180
 4855TIP3    H214511   4.780   3.840   6.156
 4856TIP3   OH214512   5.474   2.507   3.065
 4856TIP3    H114513   5.454   2.508   3.159
 4856TIP3    H214514   5.536   2.578   3.053
 4857TIP3   OH214515   1.270   3.492   5.725
 4857TIP3    H114516   1.352   3.541   5.717
 4857TIP3    H214517   1.216   3.525   5.654
 4858TIP3   OH214518   3.683   5.149   6.202
 4858TIP3    H114519   3.615   5.127   6.139
 4858TIP3    H214520   3.636   5.170   6.283
 4859TIP3   OH214521   1.825   7.422   0.236
 4859TIP3    H114522   1.829   7.505   0.190
 4859TIP3    H214523   1.914   7.388   0.232
 4860TIP3   OH214524   7.921   3.641   1.427
 4860TIP3    H114525   7.887   3.729   1.446
 4860TIP3    H214526   7.868   3.611   1.353
 4861TIP3   OH214527   1.266   2.932   1.989
 4861TIP3    H114528   1.270   3.007   1.930
 4861TIP3    H214529   1.172   2.917   2.002
 4862TIP3   OH214530   0.393   7.044   0.913
 4862TIP3    H114531   0.464   7.008   0.966
 4862TIP3    H214532   0.431   7.121   0.870
 4863TIP3   OH214533   5.051   6.350   4.050
 4863TIP3    H114534   5.034   6.383   4.139
 4863TIP3    H214535   5.001   6.408   3.993
 4864TIP3   OH214536   3.696   1.316   4.258
 4864TIP3    H114537   3.668   1.353   4.341
 4864TIP3    H214538   3.628   1.341   4.196
 4865TIP3   OH214539   5.937   3.081   6.428
 4865TIP3    H114540   5.988   3.130   6.493
 4865TIP3    H214541   5.858   3.053   6.473
 4866TIP3   OH214542   6.379   6.634   3.968
 4866TIP3    H114543   6.398   6.601   4.056
 4866TIP3    H214544   6.356   6.556   3.918
 4867TIP3   OH214545   7.662   4.014   3.981
 4867TIP3    H114546   7.611   4.046   3.906
 4867TIP3    H214547   7.752   4.014   3.951
 4868TIP3   OH214548   0.682   7.741   3.701
 4868TIP3    H114549   0.673   7.819   3.756
 4868TIP3    H214550   0.593   7.710   3.688
 4869TIP3   OH214551   2.354   4.471   5.688
 4869TIP3    H114552   2.380   4.471   5.596
 4869TIP3    H214553   2.387   4.554   5.722
 4870TIP3   OH214554   4.145   6.500   2.839
 4870TIP3    H114555   4.168   6.479   2.749
 4870TIP3    H214556   4.099   6.584   2.833
 4871TIP3   OH214557   5.731   1.262   3.389
 4871TIP3    H114558   5.665   1.289   3.325
 4871TIP3    H214559   5.733   1.167   3.383
 4872TIP3   OH214560   5.204   3.145   0.957
 4872TIP3    H114561   5.127   3.091   0.978
 4872TIP3    H214562   5.278   3.085   0.961
 4873TIP3   OH214563   1.929   2.576   1.052
 4873TIP3    H114564   1.886   2.508   1.000
 4873TIP3    H214565   1.913   2.657   1.003
 4874TIP3   OH214566   4.410   3.341   6.288
 4874TIP3    H114567   4.494   3.308   6.320
 4874TIP3    H214568   4.424   3.436   6.278
 4875TIP3   OH214569   7.605   1.645   4.546
 4875TIP3    H114570   7.513   1.671   4.546
 4875TIP3    H214571   7.623   1.619   4.456
 4876TIP3   OH214572   4.771   0.907   6.326
 4876TIP3    H114573   4.700   0.941   6.381
 4876TIP3    H214574   4.730   0.836   6.277
 4877TIP3   OH214575   6.940   3.015   6.008
 4877TIP3    H114576   7.029   3.049   6.020
 4877TIP3    H214577   6.937   2.986   5.917
 4878TIP3   OH214578   0.749   6.255   5.947
 4878TIP3    H114579   0.775   6.248   6.039
 4878TIP3    H214580   0.743   6.349   5.931
 4879TIP3   OH214581   5.468   7.353   1.943
 4879TIP3    H114582   5.457   7.278   2.002
 4879TIP3    H214583   5.542   7.329   1.888
 4880TIP3   OH214584   2.095   0.378   0.741
 4880TIP3    H114585   2.160   0.353   0.675
 4880TIP3    H214586   2.124   0.334   0.821
 4881TIP3   OH214587   3.956   4.374   1.374
 4881TIP3    H114588   3.872   4.419   1.389
 4881TIP3    H214589   4.021   4.443   1.380
 4882TIP3   OH214590   6.345   7.105   1.041
 4882TIP3    H114591   6.275   7.081   0.980
 4882TIP3    H214592   6.365   7.023   1.087
 4883TIP3   OH214593   8.033   1.221   2.809
 4883TIP3    H114594   7.969   1.200   2.741
 4883TIP3    H214595   8.020   1.315   2.825
 4884TIP3   OH214596   5.564   4.229   0.728
 4884TIP3    H114597   5.645   4.183   0.709
 4884TIP3    H214598   5.513   4.222   0.647
 4885TIP3   OH214599   6.874   3.919   0.405
 4885TIP3    H114600   6.800   3.968   0.441
 4885TIP3    H214601   6.835   3.862   0.338
 4886TIP3   OH214602   7.851   1.005   1.740
 4886TIP3    H114603   7.780   1.050   1.694
 4886TIP3    H214604   7.808   0.964   1.815
 4887TIP3   OH214605   7.530   4.156   4.614
 4887TIP3    H114606   7.522   4.172   4.708
 4887TIP3    H214607   7.440   4.155   4.582
 4888TIP3   OH214608   3.544   1.410   1.819
 4888TIP3    H114609   3.629   1.454   1.816
 4888TIP3    H214610   3.494   1.448   1.747
 4889TIP3   OH214611   3.072   7.320   4.399
 4889TIP3    H114612   3.042   7.289   4.484
 4889TIP3    H214613   3.135   7.254   4.370
 4890TIP3   OH214614   0.149   1.437   3.286
 4890TIP3    H114615   0.184   1.524   3.306
 4890TIP3    H214616   0.199   1.408   3.209
 4891TIP3   OH214617   2.191   3.481   6.411
 4891TIP3    H114618   2.125   3.500   6.478
 4891TIP3    H214619   2.263   3.541   6.430
 4892TIP3   OH214620   5.304   4.733   1.290
 4892TIP3    H114621   5.385   4.699   1.253
 4892TIP3    H214622   5.244   4.739   1.215
 4893TIP3   OH214623   0.298   1.759   2.579
 4893TIP3    H114624   0.250   1.689   2.536
 4893TIP3    H214625   0.320   1.819   2.508
 4894TIP3   OH214626   4.575   5.784   5.764
 4894TIP3    H114627   4.546   5.694   5.748
 4894TIP3    H214628   4.647   5.797   5.703
 4895TIP3   OH214629   3.828   6.234   5.455
 4895TIP3    H114630   3.739   6.265   5.443
 4895TIP3    H214631   3.838   6.223   5.549
 4896TIP3   OH214632   3.040   4.665   5.212
 4896TIP3    H114633   2.971   4.642   5.150
 4896TIP3    H214634   3.023   4.757   5.234
 4897TIP3   OH214635   4.342   0.223   5.602
 4897TIP3    H114636   4.354   0.198   5.510
 4897TIP3    H214637   4.286   0.154   5.638
 4898TIP3   OH214638   7.141   2.258   5.272
 4898TIP3    H114639   7.214   2.284   5.215
 4898TIP3    H214640   7.147   2.317   5.348
 4899TIP3   OH214641   3.879   6.877   5.820
 4899TIP3    H114642   3.830   6.904   5.898
 4899TIP3    H214643   3.964   6.849   5.854
 4900TIP3   OH214644   0.087   1.557   2.528
 4900TIP3    H114645   0.024   1.627   2.540
 4900TIP3    H214646   0.074   1.499   2.604
 4901TIP3   OH214647   6.778   4.500   5.068
 4901TIP3    H114648   6.853   4.440   5.078
 4901TIP3    H214649   6.703   4.442   5.057
 4902TIP3   OH214650   4.885   2.846   6.467
 4902TIP3    H114651   4.860   2.932   6.500
 4902TIP3    H214652   4.923   2.863   6.381
 4903TIP3   OH214653   7.363   3.086   3.736
 4903TIP3    H114654   7.307   3.138   3.679
 4903TIP3    H214655   7.326   2.998   3.734
 4904TIP3   OH214656   5.161   4.784   4.888
 4904TIP3    H114657   5.094   4.846   4.861
 4904TIP3    H214658   5.232   4.838   4.922
 4905TIP3   OH214659   6.800   0.456   4.305
 4905TIP3    H114660   6.774   0.539   4.265
 4905TIP3    H214661   6.845   0.482   4.385
 4906TIP3   OH214662   8.043   6.385   1.864
 4906TIP3    H114663   7.953   6.355   1.861
 4906TIP3    H214664   8.063   6.394   1.958
 4907TIP3   OH214665   6.146   4.923   1.525
 4907TIP3    H114666   6.240   4.919   1.538
 4907TIP3    H214667   6.109   4.894   1.608
 4908TIP3   OH214668   6.727   0.058   4.488
 4908TIP3    H114669   6.770   0.129   4.536
 4908TIP3    H214670   6.720  -0.013   4.552
 4909TIP3   OH214671   5.944   4.767   3.787
 4909TIP3    H114672   5.965   4.803   3.873
 4909TIP3    H214673   5.971   4.836   3.726
 4910TIP3   OH214674   7.890   7.582   6.401
 4910TIP3    H114675   7.847   7.601   6.484
 4910TIP3    H214676   7.931   7.665   6.376
 4911TIP3   OH214677   7.752   1.238   1.896
 4911TIP3    H114678   7.705   1.319   1.914
 4911TIP3    H214679   7.713   1.205   1.815
 4912TIP3   OH214680   3.557   3.207   2.741
 4912TIP3    H114681   3.501   3.142   2.784
 4912TIP3    H214682   3.611   3.242   2.812
 4913TIP3   OH214683   0.313   1.312   4.761
 4913TIP3    H114684   0.218   1.321   4.757
 4913TIP3    H214685   0.343   1.393   4.802
 4914TIP3   OH214686   7.643   0.237   4.232
 4914TIP3    H114687   7.635   0.146   4.261
 4914TIP3    H214688   7.568   0.281   4.271
 4915TIP3   OH214689   4.769   5.403   2.252
 4915TIP3    H114690   4.780   5.344   2.326
 4915TIP3    H214691   4.686   5.447   2.267
 4916TIP3   OH214692   5.207   3.989   1.216
 4916TIP3    H114693   5.177   3.900   1.198
 4916TIP3    H214694   5.248   3.983   1.302
 4917TIP3   OH214695   0.739   6.512   5.582
 4917TIP3    H114696   0.777   6.442   5.636
 4917TIP3    H214697   0.800   6.522   5.509
 4918TIP3   OH214698   7.035   3.666   4.825
 4918TIP3    H114699   7.079   3.686   4.743
 4918TIP3    H214700   7.040   3.571   4.833
 4919TIP3   OH214701   7.709   0.522   5.510
 4919TIP3    H114702   7.756   0.441   5.490
 4919TIP3    H214703   7.680   0.555   5.425
 4920TIP3   OH214704   1.218   7.271   4.953
 4920TIP3    H114705   1.282   7.259   4.882
 4920TIP3    H214706   1.257   7.230   5.029
 4921TIP3   OH214707   5.495   4.477   2.158
 4921TIP3    H114708   5.403   4.453   2.145
 4921TIP3    H214709   5.513   4.452   2.249
 4922TIP3   OH214710   7.484   5.882   1.554
 4922TIP3    H114711   7.391   5.894   1.532
 4922TIP3    H214712   7.503   5.791   1.531
 4923TIP3   OH214713   0.731   1.729   5.693
 4923TIP3    H114714   0.688   1.814   5.703
 4923TIP3    H214715   0.813   1.737   5.742
 4924TIP3   OH214716   2.271   6.811   5.494
 4924TIP3    H114717   2.180   6.825   5.521
 4924TIP3    H214718   2.277   6.851   5.408
 4925TIP3   OH214719   6.436   1.266   3.668
 4925TIP3    H114720   6.490   1.335   3.706
 4925TIP3    H214721   6.366   1.252   3.733
 4926TIP3   OH214722   1.089   4.084   4.235
 4926TIP3    H114723   1.153   4.150   4.260
 4926TIP3    H214724   1.037   4.126   4.166
 4927TIP3   OH214725   2.594   3.039   1.445
 4927TIP3    H114726   2.684   3.007   1.446
 4927TIP3    H214727   2.601   3.130   1.418
 4928TIP3   OH214728   1.083   7.383   4.526
 4928TIP3    H114729   1.135   7.458   4.557
 4928TIP3    H214730   1.055   7.408   4.438
 4929TIP3   OH214731   1.253   6.413   6.524
 4929TIP3    H114732   1.229   6.367   6.444
 4929TIP3    H214733   1.338   6.377   6.548
 4930TIP3   OH214734   0.899   3.880   3.144
 4930TIP3    H114735   0.849   3.961   3.148
 4930TIP3    H214736   0.923   3.862   3.235
 4931TIP3   OH214737   4.259   6.874   5.252
 4931TIP3    H114738   4.270   6.920   5.335
 4931TIP3    H214739   4.236   6.785   5.276
 4932TIP3   OH214740   1.103   1.160   1.200
 4932TIP3    H114741   1.043   1.092   1.231
 4932TIP3    H214742   1.072   1.240   1.243
 4933TIP3   OH214743   2.259   6.237   0.460
 4933TIP3    H114744   2.313   6.208   0.533
 4933TIP3    H214745   2.173   6.197   0.475
 4934TIP3   OH214746   5.937   5.391   0.562
 4934TIP3    H114747   5.889   5.400   0.644
 4934TIP3    H214748   5.869   5.382   0.494
 4935TIP3   OH214749   2.495   4.219   3.053
 4935TIP3    H114750   2.483   4.305   3.094
 4935TIP3    H214751   2.410   4.199   3.014
 4936TIP3   OH214752   1.211   4.656   3.868
 4936TIP3    H114753   1.136   4.716   3.874
 4936TIP3    H214754   1.173   4.569   3.877
 4937TIP3   OH214755   7.955   1.922   2.377
 4937TIP3    H114756   8.036   1.892   2.336
 4937TIP3    H214757   7.906   1.841   2.394
 4938TIP3   OH214758   5.672   3.870   6.377
 4938TIP3    H114759   5.627   3.953   6.394
 4938TIP3    H214760   5.607   3.803   6.396
 4939TIP3   OH214761   7.159   4.453   2.217
 4939TIP3    H114762   7.175   4.489   2.304
 4939TIP3    H214763   7.064   4.457   2.206
 4940TIP3   OH214764   7.901   0.404   5.813
 4940TIP3    H114765   7.808   0.424   5.802
 4940TIP3    H214766   7.946   0.463   5.753
 4941TIP3   OH214767   2.162   0.404   6.023
 4941TIP3    H114768   2.137   0.326   5.974
 4941TIP3    H214769   2.201   0.462   5.958
 4942TIP3   OH214770   6.932   5.991   2.854
 4942TIP3    H114771   7.015   5.992   2.902
 4942TIP3    H214772   6.878   6.056   2.899
 4943TIP3   OH214773   1.399   5.611   5.466
 4943TIP3    H114774   1.330   5.677   5.470
 4943TIP3    H214775   1.478   5.658   5.495
 4944TIP3   OH214776   0.505   5.957   3.177
 4944TIP3    H114777   0.517   6.052   3.173
 4944TIP3    H214778   0.510   5.936   3.270
 4945TIP3   OH214779   5.424   4.719   6.727
 4945TIP3    H114780   5.362   4.735   6.799
 4945TIP3    H214781   5.510   4.727   6.768
 4946TIP3   OH214782   6.488   6.903   1.824
 4946TIP3    H114783   6.508   6.810   1.832
 4946TIP3    H214784   6.571   6.947   1.841
 4947TIP3   OH214785   5.679   1.005   3.240
 4947TIP3    H114786   5.765   0.963   3.230
 4947TIP3    H214787   5.627   0.944   3.292
 4948TIP3   OH214788   3.371   6.087   1.424
 4948TIP3    H114789   3.355   6.172   1.466
 4948TIP3    H214790   3.366   6.106   1.330
 4949TIP3   OH214791   4.166   6.168   5.160
 4949TIP3    H114792   4.200   6.232   5.097
 4949TIP3    H214793   4.126   6.100   5.106
 4950TIP3   OH214794   3.444   5.904   2.985
 4950TIP3    H114795   3.502   5.931   2.914
 4950TIP3    H214796   3.373   5.968   2.983
 4951TIP3   OH214797   3.697   6.679   0.343
 4951TIP3    H114798   3.632   6.638   0.400
 4951TIP3    H214799   3.781   6.650   0.379
 4952TIP3   OH214800   4.028   7.227   4.698
 4952TIP3    H114801   3.976   7.300   4.665
 4952TIP3    H214802   4.054   7.253   4.786
 4953TIP3   OH214803   5.873   5.812   5.116
 4953TIP3    H114804   5.872   5.779   5.206
 4953TIP3    H214805   5.782   5.804   5.087
 4954TIP3   OH214806   1.167   2.940   5.187
 4954TIP3    H114807   1.128   2.945   5.100
 4954TIP3    H214808   1.197   3.028   5.205
 4955TIP3   OH214809   1.381   6.068   3.332
 4955TIP3    H114810   1.391   5.980   3.297
 4955TIP3    H214811   1.468   6.107   3.324
 4956TIP3   OH214812   2.903   1.227   1.381
 4956TIP3    H114813   2.919   1.315   1.346
 4956TIP3    H214814   2.977   1.176   1.349
 4957TIP3   OH214815   4.077   5.275   4.395
 4957TIP3    H114816   4.159   5.314   4.364
 4957TIP3    H214817   4.095   5.181   4.400
 4958TIP3   OH214818   3.245   5.728   4.967
 4958TIP3    H114819   3.214   5.652   4.917
 4958TIP3    H214820   3.226   5.803   4.911
 4959TIP3   OH214821   0.225   0.665   6.235
 4959TIP3    H114822   0.221   0.585   6.288
 4959TIP3    H214823   0.140   0.669   6.191
 4960TIP3   OH214824   8.119   5.093   4.420
 4960TIP3    H114825   8.037   5.068   4.378
 4960TIP3    H214826   8.125   5.188   4.404
 4961TIP3   OH214827   5.413   2.507   1.740
 4961TIP3    H114828   5.390   2.567   1.810
 4961TIP3    H214829   5.446   2.429   1.785
 4962TIP3   OH214830   2.036   1.802   0.604
 4962TIP3    H114831   2.062   1.711   0.620
 4962TIP3    H214832   1.940   1.800   0.604
 4963TIP3   OH214833   5.476   4.905   4.734
 4963TIP3    H114834   5.421   4.982   4.747
 4963TIP3    H214835   5.472   4.858   4.817
 4964TIP3   OH214836   1.937   4.042   0.010
 4964TIP3    H114837   2.032   4.047   0.000
 4964TIP3    H214838   1.924   4.009   0.099
 4965TIP3   OH214839   5.814   3.081   1.321
 4965TIP3    H114840   5.884   3.094   1.257
 4965TIP3    H214841   5.733   3.088   1.270
 4966TIP3   OH214842   4.834   2.788   3.653
 4966TIP3    H114843   4.831   2.738   3.735
 4966TIP3    H214844   4.802   2.727   3.587
 4967TIP3   OH214845   4.865   0.214   3.548
 4967TIP3    H114846   4.937   0.266   3.585
 4967TIP3    H214847   4.905   0.161   3.480
 4968TIP3   OH214848   2.066   2.157   3.086
 4968TIP3    H114849   2.006   2.122   3.152
 4968TIP3    H214850   2.153   2.139   3.121
 4969TIP3   OH214851   1.427   1.120   4.741
 4969TIP3    H114852   1.519   1.094   4.748
 4969TIP3    H214853   1.379   1.037   4.734
 4970TIP3   OH214854   5.757   6.214   6.750
 4970TIP3    H114855   5.719   6.173   6.672
 4970TIP3    H214856   5.684   6.258   6.793
 4971TIP3   OH214857   0.269   4.807   5.994
 4971TIP3    H114858   0.175   4.811   5.979
 4971TIP3    H214859   0.283   4.728   6.046
 4972TIP3   OH214860   7.077   7.565   6.785
 4972TIP3    H114861   7.098   7.506   6.713
 4972TIP3    H214862   7.087   7.652   6.748
 4973TIP3   OH214863   4.161   2.517   1.647
 4973TIP3    H114864   4.154   2.612   1.654
 4973TIP3    H214865   4.131   2.498   1.558
 4974TIP3   OH214866   4.803   6.782   5.367
 4974TIP3    H114867   4.806   6.808   5.459
 4974TIP3    H214868   4.756   6.698   5.367
 4975TIP3   OH214869   5.537   0.335   5.559
 4975TIP3    H114870   5.446   0.364   5.548
 4975TIP3    H214871   5.589   0.405   5.519
 4976TIP3   OH214872   1.966   5.698   1.993
 4976TIP3    H114873   1.876   5.676   1.969
 4976TIP3    H214874   2.000   5.617   2.032
 4977TIP3   OH214875   2.563   6.413   4.665
 4977TIP3    H114876   2.536   6.482   4.726
 4977TIP3    H214877   2.633   6.366   4.712
 4978TIP3   OH214878   8.041   3.889   3.700
 4978TIP3    H114879   8.007   3.816   3.648
 4978TIP3    H214880   8.055   3.959   3.636
 4979TIP3   OH214881   7.694   6.812  -0.011
 4979TIP3    H114882   7.648   6.753  -0.070
 4979TIP3    H214883   7.626   6.843   0.049
 4980TIP3   OH214884   0.126   0.519   0.306
 4980TIP3    H114885   0.120   0.574   0.384
 4980TIP3    H214886   0.105   0.431   0.337
 4981TIP3   OH214887   2.720   4.804   0.141
 4981TIP3    H114888   2.705   4.838   0.053
 4981TIP3    H214889   2.633   4.797   0.180
 4982TIP3   OH214890   2.306   6.967   4.582
 4982TIP3    H114891   2.337   6.933   4.498
 4982TIP3    H214892   2.220   6.928   4.593
 4983TIP3   OH214893   0.642   3.771   4.049
 4983TIP3    H114894   0.560   3.723   4.050
 4983TIP3    H214895   0.680   3.756   4.136
 4984TIP3   OH214896   1.315   6.630   0.151
 4984TIP3    H114897   1.335   6.572   0.225
 4984TIP3    H214898   1.242   6.683   0.182
 4985TIP3   OH214899   3.324   1.021   5.042
 4985TIP3    H114900   3.257   1.005   5.109
 4985TIP3    H214901   3.394   1.066   5.089
 4986TIP3   OH214902   5.566   1.644   0.441
 4986TIP3    H114903   5.612   1.595   0.509
 4986TIP3    H214904   5.628   1.648   0.368
 4987TIP3   OH214905   6.516   0.099   4.337
 4987TIP3    H114906   6.589   0.079   4.396
 4987TIP3    H214907   6.445   0.043   4.368
 4988TIP3   OH214908   4.698   5.364   6.355
 4988TIP3    H114909   4.793   5.372   6.365
 4988TIP3    H214910   4.687   5.289   6.297
 4989TIP3   OH214911   1.762   3.425   2.397
 4989TIP3    H114912   1.753   3.378   2.314
 4989TIP3    H214913   1.840   3.480   2.385
 4990TIP3   OH214914   2.772   1.946   4.366
 4990TIP3    H114915   2.790   1.882   4.435
 4990TIP3    H214916   2.788   2.031   4.407
 4991TIP3   OH214917   7.671   7.743   6.566
 4991TIP3    H114918   7.632   7.668   6.610
 4991TIP3    H214919   7.727   7.783   6.632
 4992TIP3   OH214920   7.068   6.453   4.312
 4992TIP3    H114921   7.131   6.383   4.331
 4992TIP3    H214922   6.983   6.411   4.323
 4993TIP3   OH214923   8.158   5.705   4.378
 4993TIP3    H114924   8.147   5.756   4.458
 4993TIP3    H214925   8.177   5.617   4.409
 4994TIP3   OH214926   2.099   1.940   6.328
 4994TIP3    H114927   2.020   1.916   6.376
 4994TIP3    H214928   2.142   2.005   6.384
 4995TIP3   OH214929   1.440   1.402   5.674
 4995TIP3    H114930   1.399   1.321   5.705
 4995TIP3    H214931   1.385   1.472   5.709
 4996TIP3   OH214932   2.942   0.887   3.206
 4996TIP3    H114933   2.904   0.799   3.211
 4996TIP3    H214934   2.968   0.906   3.297
 4997TIP3   OH214935   3.127   1.133   4.849
 4997TIP3    H114936   3.205   1.114   4.901
 4997TIP3    H214937   3.078   1.197   4.902
 4998TIP3   OH214938   2.923   3.804   2.429
 4998TIP3    H114939   3.011   3.798   2.390
 4998TIP3    H214940   2.939   3.821   2.522
 4999TIP3   OH214941   2.452   3.644   5.533
 4999TIP3    H114942   2.396   3.721   5.528
 4999TIP3    H214943   2.392   3.571   5.544
 5000TIP3   OH214944   6.940   6.774   0.417
 5000TIP3    H114945   6.949   6.769   0.322
 5000TIP3    H214946   6.913   6.865   0.433
 5001TIP3   OH214947   0.683   3.042   1.019
 5001TIP3    H114948   0.661   3.044   1.112
 5001TIP3    H214949   0.598   3.054   0.975
 5002TIP3   OH214950   0.386   0.220   2.444
 5002TIP3    H114951   0.440   0.278   2.391
 5002TIP3    H214952   0.298   0.226   2.406
 5003TIP3   OH214953   5.983   0.847   4.674
 5003TIP3    H114954   5.924   0.915   4.706
 5003TIP3    H214955   6.002   0.793   4.751
 5004TIP3   OH214956   2.525   4.918   3.858
 5004TIP3    H114957   2.443   4.885   3.821
 5004TIP3    H214958   2.568   4.963   3.786
 5005TIP3   OH214959   4.158   2.508   3.496
 5005TIP3    H114960   4.183   2.415   3.493
 5005TIP3    H214961   4.082   2.510   3.554
 5006TIP3   OH214962   1.335   3.218   0.341
 5006TIP3    H114963   1.285   3.297   0.360
 5006TIP3    H214964   1.368   3.189   0.427
 5007TIP3   OH214965   1.943   7.483   0.516
 5007TIP3    H114966   1.917   7.514   0.429
 5007TIP3    H214967   1.974   7.562   0.561
 5008TIP3   OH214968   6.737   1.855   5.613
 5008TIP3    H114969   6.697   1.852   5.700
 5008TIP3    H214970   6.663   1.863   5.553
 5009TIP3   OH214971   8.109   6.186   6.695
 5009TIP3    H114972   8.170   6.202   6.767
 5009TIP3    H214973   8.165   6.178   6.618
 5010TIP3   OH214974   1.982   5.544   6.685
 5010TIP3    H114975   1.921   5.533   6.758
 5010TIP3    H214976   2.029   5.461   6.680
 5011TIP3   OH214977   4.518   4.154   6.202
 5011TIP3    H114978   4.547   4.212   6.131
 5011TIP3    H214979   4.435   4.118   6.171
 5012TIP3   OH214980   1.605   7.436   0.391
 5012TIP3    H114981   1.676   7.401   0.338
 5012TIP3    H214982   1.573   7.511   0.342
 5013TIP3   OH214983   2.841   6.479   2.017
 5013TIP3    H114984   2.874   6.527   1.941
 5013TIP3    H214985   2.854   6.539   2.091
 5014TIP3   OH214986   3.258   6.714   5.190
 5014TIP3    H114987   3.261   6.623   5.160
 5014TIP3    H214988   3.349   6.745   5.183
 5015TIP3   OH214989   3.860   6.627   5.428
 5015TIP3    H114990   3.829   6.709   5.389
 5015TIP3    H214991   3.939   6.651   5.476
 5016TIP3   OH214992   5.461   4.396   0.190
 5016TIP3    H114993   5.450   4.432   0.278
 5016TIP3    H214994   5.414   4.457   0.133
 5017TIP3   OH214995   6.211   5.555   3.072
 5017TIP3    H114996   6.166   5.630   3.111
 5017TIP3    H214997   6.266   5.520   3.142
 5018TIP3   OH214998   1.508   3.217   3.100
 5018TIP3    H114999   1.564   3.243   3.172
 5018TIP3    H215000   1.487   3.125   3.119
 5019TIP3   OH215001   6.964   0.724   0.865
 5019TIP3    H115002   6.961   0.789   0.935
 5019TIP3    H215003   7.037   0.667   0.889
 5020TIP3   OH215004   0.487   4.508   0.271
 5020TIP3    H115005   0.490   4.470   0.359
 5020TIP3    H215006   0.563   4.472   0.226
 5021TIP3   OH215007   3.196   1.233   2.496
 5021TIP3    H115008   3.240   1.149   2.483
 5021TIP3    H215009   3.248   1.278   2.562
 5022TIP3   OH215010   6.300   4.845   0.321
 5022TIP3    H115011   6.221   4.898   0.308
 5022TIP3    H215012   6.286   4.803   0.406
 5023TIP3   OH215013   7.379   2.150   6.421
 5023TIP3    H115014   7.420   2.203   6.352
 5023TIP3    H215015   7.447   2.141   6.487
 5024TIP3   OH215016   3.192   2.955   5.199
 5024TIP3    H115017   3.216   3.037   5.242
 5024TIP3    H215018   3.148   2.981   5.119
 5025TIP3   OH215019   0.141   7.414   3.597
 5025TIP3    H115020   0.192   7.429   3.518
 5025TIP3    H215021   0.085   7.491   3.604
 5026TIP3   OH215022   7.886   5.224   5.934
 5026TIP3    H115023   7.909   5.293   5.871
 5026TIP3    H215024   7.823   5.265   5.993
 5027TIP3   OH215025   2.105   2.762   3.329
 5027TIP3    H115026   2.150   2.806   3.401
 5027TIP3    H215027   2.155   2.786   3.251
 5028TIP3   OH215028   6.515   0.973   0.072
 5028TIP3    H115029   6.498   0.880   0.056
 5028TIP3    H215030   6.495   0.985   0.165
 5029TIP3   OH215031   7.794   4.691   1.238
 5029TIP3    H115032   7.857   4.763   1.239
 5029TIP3    H215033   7.745   4.703   1.157
 5030TIP3   OH215034   1.838   1.371   5.089
 5030TIP3    H115035   1.867   1.328   5.169
 5030TIP3    H215036   1.772   1.434   5.118
 5031TIP3   OH215037   4.583   4.147   2.698
 5031TIP3    H115038   4.677   4.140   2.679
 5031TIP3    H215039   4.554   4.056   2.705
 5032TIP3   OH215040   1.685   7.374   1.472
 5032TIP3    H115041   1.746   7.410   1.408
 5032TIP3    H215042   1.624   7.320   1.421
 5033TIP3   OH215043   2.567   6.333   3.330
 5033TIP3    H115044   2.479   6.319   3.298
 5033TIP3    H215045   2.560   6.411   3.386
 5034TIP3   OH215046   1.407   2.245   0.320
 5034TIP3    H115047   1.421   2.223   0.228
 5034TIP3    H215048   1.450   2.329   0.332
 5035TIP3   OH215049   1.111   0.211   3.925
 5035TIP3    H115050   1.158   0.212   4.009
 5035TIP3    H215051   1.180   0.202   3.859
 5036TIP3   OH215052   4.722   7.110   0.889
 5036TIP3    H115053   4.778   7.167   0.836
 5036TIP3    H215054   4.717   7.154   0.974
 5037TIP3   OH215055   6.726   4.685   2.035
 5037TIP3    H115056   6.701   4.776   2.022
 5037TIP3    H215057   6.735   4.676   2.130
 5038TIP3   OH215058   6.841   0.384   0.290
 5038TIP3    H115059   6.898   0.321   0.246
 5038TIP3    H215060   6.885   0.468   0.280
 5039TIP3   OH215061   0.976   0.846   1.610
 5039TIP3    H115062   1.018   0.817   1.529
 5039TIP3    H215063   0.915   0.776   1.632
 5040TIP3   OH215064   7.518   3.290   5.563
 5040TIP3    H115065   7.457   3.253   5.627
 5040TIP3    H215066   7.594   3.316   5.615
 5041TIP3   OH215067   4.436   6.972   2.850
 5041TIP3    H115068   4.444   7.042   2.916
 5041TIP3    H215069   4.463   7.013   2.768
 5042TIP3   OH215070   3.687   7.591   2.354
 5042TIP3    H115071   3.759   7.569   2.413
 5042TIP3    H215072   3.680   7.516   2.295
 5043TIP3   OH215073   3.811   1.247   5.867
 5043TIP3    H115074   3.833   1.312   5.800
 5043TIP3    H215075   3.844   1.285   5.949
 5044TIP3   OH215076   1.745   4.593   5.105
 5044TIP3    H115077   1.744   4.682   5.141
 5044TIP3    H215078   1.730   4.537   5.180
 5045TIP3   OH215079   3.041   3.194   1.413
 5045TIP3    H115080   3.128   3.217   1.380
 5045TIP3    H215081   2.981   3.220   1.343
 5046TIP3   OH215082   2.071   4.437   6.136
 5046TIP3    H115083   2.105   4.387   6.062
 5046TIP3    H215084   2.147   4.448   6.194
 5047TIP3   OH215085   7.906   1.672   3.255
 5047TIP3    H115086   7.904   1.583   3.291
 5047TIP3    H215087   7.822   1.710   3.281
 5048TIP3   OH215088   1.610   4.713   0.900
 5048TIP3    H115089   1.704   4.730   0.890
 5048TIP3    H215090   1.570   4.749   0.821
 5049TIP3   OH215091   4.972   1.698   5.653
 5049TIP3    H115092   5.027   1.755   5.600
 5049TIP3    H215093   5.020   1.615   5.657
 5050TIP3   OH215094   3.690   3.579   3.078
 5050TIP3    H115095   3.704   3.562   3.171
 5050TIP3    H215096   3.645   3.663   3.074
 5051TIP3   OH215097   5.034   5.295   3.076
 5051TIP3    H115098   5.000   5.301   3.166
 5051TIP3    H215099   5.126   5.321   3.083
 5052TIP3   OH215100   1.058   7.646   0.715
 5052TIP3    H115101   1.015   7.725   0.748
 5052TIP3    H215102   1.105   7.675   0.637
 5053TIP3   OH215103   7.661   6.698   5.898
 5053TIP3    H115104   7.647   6.710   5.992
 5053TIP3    H215105   7.626   6.778   5.858
 5054TIP3   OH215106   2.339   5.250   0.399
 5054TIP3    H115107   2.284   5.226   0.474
 5054TIP3    H215108   2.425   5.267   0.438
 5055TIP3   OH215109   5.746   2.559   1.780
 5055TIP3    H115110   5.688   2.516   1.841
 5055TIP3    H215111   5.688   2.598   1.714
 5056TIP3   OH215112   6.568   2.719   1.959
 5056TIP3    H115113   6.597   2.788   2.019
 5056TIP3    H215114   6.516   2.764   1.893
 5057TIP3   OH215115   2.727   5.369   0.000
 5057TIP3    H115116   2.757   5.278  -0.001
 5057TIP3    H215117   2.802   5.419  -0.032
 5058TIP3   OH215118   5.207   2.955   4.851
 5058TIP3    H115119   5.210   2.937   4.756
 5058TIP3    H215120   5.275   3.021   4.865
 5059TIP3   OH215121   7.053   3.845   0.625
 5059TIP3    H115122   7.003   3.814   0.700
 5059TIP3    H215123   6.986   3.869   0.561
 5060TIP3   OH215124   8.288   2.416   3.983
 5060TIP3    H115125   8.240   2.347   3.937
 5060TIP3    H215126   8.223   2.458   4.039
 5061TIP3   OH215127   4.902   0.723   3.905
 5061TIP3    H115128   4.978   0.731   3.848
 5061TIP3    H215129   4.872   0.633   3.894
 5062TIP3   OH215130   3.121   5.119   5.385
 5062TIP3    H115131   3.050   5.069   5.345
 5062TIP3    H215132   3.111   5.103   5.479
 5063TIP3   OH215133   0.086   2.736   0.989
 5063TIP3    H115134   0.084   2.649   0.949
 5063TIP3    H215135   0.143   2.788   0.932
 5064TIP3   OH215136   0.265   2.791   6.065
 5064TIP3    H115137   0.227   2.703   6.056
 5064TIP3    H215138   0.279   2.801   6.160
 5065TIP3   OH215139   6.319   5.930   1.260
 5065TIP3    H115140   6.327   5.880   1.179
 5065TIP3    H215141   6.404   5.972   1.271
 5066TIP3   OH215142   7.391   7.148   4.718
 5066TIP3    H115143   7.441   7.228   4.735
 5066TIP3    H215144   7.385   7.106   4.804
 5067TIP3   OH215145   5.435   6.798   0.693
 5067TIP3    H115146   5.388   6.770   0.772
 5067TIP3    H215147   5.439   6.719   0.639
 5068TIP3   OH215148   2.843   2.732   0.216
 5068TIP3    H115149   2.931   2.710   0.246
 5068TIP3    H215150   2.840   2.700   0.126
 5069TIP3   OH215151   3.290   4.221   2.266
 5069TIP3    H115152   3.281   4.315   2.250
 5069TIP3    H215153   3.295   4.181   2.179
 5070TIP3   OH215154   5.122   3.039   1.739
 5070TIP3    H115155   5.029   3.051   1.717
 5070TIP3    H215156   5.150   3.125   1.772
 5071TIP3   OH215157   5.491   2.313   4.930
 5071TIP3    H115158   5.462   2.238   4.878
 5071TIP3    H215159   5.412   2.363   4.948
 5072TIP3   OH215160   1.983   2.045   6.089
 5072TIP3    H115161   2.019   1.985   6.154
 5072TIP3    H215162   1.923   2.100   6.139
 5073TIP3   OH215163   5.502   5.850   6.004
 5073TIP3    H115164   5.511   5.757   6.025
 5073TIP3    H215165   5.590   5.876   5.977
 5074TIP3   OH215166   2.943   1.261   1.931
 5074TIP3    H115167   2.900   1.244   1.848
 5074TIP3    H215168   2.918   1.188   1.987
 5075TIP3   OH215169   6.837   5.832   4.450
 5075TIP3    H115170   6.801   5.744   4.437
 5075TIP3    H215171   6.788   5.867   4.525
 5076TIP3   OH215172   5.211   7.139   5.893
 5076TIP3    H115173   5.206   7.205   5.961
 5076TIP3    H215174   5.200   7.188   5.811
 5077TIP3   OH215175   7.946   6.222   5.757
 5077TIP3    H115176   8.031   6.202   5.796
 5077TIP3    H215177   7.890   6.245   5.831
 5078TIP3   OH215178   0.618   5.078   3.601
 5078TIP3    H115179   0.601   5.000   3.655
 5078TIP3    H215180   0.556   5.069   3.528
 5079TIP3   OH215181   5.320   4.255   6.542
 5079TIP3    H115182   5.304   4.307   6.463
 5079TIP3    H215183   5.234   4.223   6.568
 5080TIP3   OH215184   1.432   5.965   4.219
 5080TIP3    H115185   1.389   5.889   4.180
 5080TIP3    H215186   1.361   6.014   4.261
 5081TIP3   OH215187   7.180   5.334   6.393
 5081TIP3    H115188   7.177   5.428   6.377
 5081TIP3    H215189   7.252   5.322   6.455
 5082TIP3   OH215190   3.980   0.551   4.863
 5082TIP3    H115191   3.976   0.536   4.957
 5082TIP3    H215192   4.071   0.579   4.847
 5083TIP3   OH215193   4.804   4.238   4.490
 5083TIP3    H115194   4.859   4.300   4.539
 5083TIP3    H215195   4.726   4.227   4.544
 5084TIP3   OH215196   7.051   4.228   3.660
 5084TIP3    H115197   6.961   4.216   3.688
 5084TIP3    H215198   7.104   4.197   3.734
 5085TIP3   OH215199   3.899   0.394   2.412
 5085TIP3    H115200   3.933   0.460   2.471
 5085TIP3    H215201   3.914   0.429   2.324
 5086TIP3   OH215202   1.180   4.393   2.968
 5086TIP3    H115203   1.085   4.392   2.962
 5086TIP3    H215204   1.204   4.486   2.956
 5087TIP3   OH215205   6.248   7.343   6.687
 5087TIP3    H115206   6.184   7.274   6.706
 5087TIP3    H215207   6.317   7.298   6.640
 5088TIP3   OH215208   2.616   6.466   1.589
 5088TIP3    H115209   2.659   6.437   1.509
 5088TIP3    H215210   2.543   6.406   1.602
 5089TIP3   OH215211   7.618  -0.017   2.136
 5089TIP3    H115212   7.646  -0.025   2.044
 5089TIP3    H215213   7.643   0.072   2.160
 5090TIP3   OH215214   5.319   4.153   0.126
 5090TIP3    H115215   5.381   4.225   0.138
 5090TIP3    H215216   5.264   4.155   0.204
 5091TIP3   OH215217   6.681   0.211   2.364
 5091TIP3    H115218   6.728   0.217   2.447
 5091TIP3    H215219   6.749   0.221   2.297
 5092TIP3   OH215220   3.156   2.113   2.772
 5092TIP3    H115221   3.246   2.085   2.755
 5092TIP3    H215222   3.159   2.209   2.766
 5093TIP3   OH215223   5.701   0.784   6.720
 5093TIP3    H115224   5.656   0.704   6.749
 5093TIP3    H215225   5.792   0.773   6.749
 5094TIP3   OH215226   0.092   4.115   0.883
 5094TIP3    H115227   0.044   4.040   0.850
 5094TIP3    H215228   0.029   4.187   0.882
 5095TIP3   OH215229   8.078   3.220   3.333
 5095TIP3    H115230   8.133   3.165   3.277
 5095TIP3    H215231   8.036   3.281   3.272
 5096TIP3   OH215232   0.541   1.099   2.463
 5096TIP3    H115233   0.596   1.168   2.426
 5096TIP3    H215234   0.463   1.098   2.407
 5097TIP3   OH215235   0.180   2.164   0.137
 5097TIP3    H115236   0.199   2.208   0.220
 5097TIP3    H215237   0.240   2.205   0.074
 5098TIP3   OH215238   3.624   4.266   6.694
 5098TIP3    H115239   3.594   4.356   6.710
 5098TIP3    H215240   3.560   4.211   6.739
 5099TIP3   OH215241   3.840   5.640   4.292
 5099TIP3    H115242   3.874   5.592   4.367
 5099TIP3    H215243   3.835   5.731   4.322
 5100TIP3   OH215244   4.512   6.160   5.912
 5100TIP3    H115245   4.533   6.104   5.987
 5100TIP3    H215246   4.465   6.102   5.851
 5101TIP3   OH215247   3.960   4.273   3.100
 5101TIP3    H115248   3.876   4.319   3.106
 5101TIP3    H215249   3.999   4.306   3.018
 5102TIP3   OH215250   3.279   0.364   6.174
 5102TIP3    H115251   3.299   0.414   6.253
 5102TIP3    H215252   3.364   0.355   6.129
 5103TIP3   OH215253   1.734   2.252   0.033
 5103TIP3    H115254   1.772   2.289   0.112
 5103TIP3    H215255   1.743   2.157   0.043
 5104TIP3   OH215256   3.222   6.882   3.802
 5104TIP3    H115257   3.254   6.842   3.722
 5104TIP3    H215258   3.206   6.809   3.861
 5105TIP3   OH215259   3.315   4.157   0.681
 5105TIP3    H115260   3.383   4.159   0.748
 5105TIP3    H215261   3.343   4.089   0.620
 5106TIP3   OH215262   4.007   3.951   0.709
 5106TIP3    H115263   4.045   3.926   0.625
 5106TIP3    H215264   4.057   3.902   0.774
 5107TIP3   OH215265   5.339   4.080   2.604
 5107TIP3    H115266   5.290   4.003   2.634
 5107TIP3    H215267   5.406   4.093   2.672
 5108TIP3   OH215268   2.232   4.019   1.921
 5108TIP3    H115269   2.284   4.079   1.867
 5108TIP3    H215270   2.261   4.036   2.010
 5109TIP3   OH215271   6.193   6.612   4.238
 5109TIP3    H115272   6.282   6.578   4.232
 5109TIP3    H215273   6.201   6.704   4.211
 5110TIP3   OH215274   5.565   2.144   2.223
 5110TIP3    H115275   5.654   2.161   2.254
 5110TIP3    H215276   5.515   2.125   2.302
 5111TIP3   OH215277   4.267   5.367   4.186
 5111TIP3    H115278   4.330   5.304   4.149
 5111TIP3    H215279   4.306   5.452   4.170
 5112TIP3   OH215280   4.566   0.575   2.439
 5112TIP3    H115281   4.641   0.630   2.463
 5112TIP3    H215282   4.527   0.550   2.523
 5113TIP3   OH215283   1.344   2.646   1.626
 5113TIP3    H115284   1.280   2.718   1.624
 5113TIP3    H215285   1.344   2.611   1.537
 5114TIP3   OH215286   1.650   3.234   0.960
 5114TIP3    H115287   1.618   3.195   0.879
 5114TIP3    H215288   1.604   3.187   1.030
 5115TIP3   OH215289   0.238   2.964   2.166
 5115TIP3    H115290   0.240   3.006   2.253
 5115TIP3    H215291   0.327   2.971   2.134
 5116TIP3   OH215292   2.819   1.175   5.158
 5116TIP3    H115293   2.899   1.206   5.115
 5116TIP3    H215294   2.835   1.082   5.175
 5117TIP3   OH215295   1.037   0.962   0.569
 5117TIP3    H115296   0.989   0.880   0.584
 5117TIP3    H215297   0.972   1.022   0.533
 5118TIP3   OH215298   2.590   7.093   6.244
 5118TIP3    H115299   2.666   7.060   6.291
 5118TIP3    H215300   2.533   7.017   6.234
 5119TIP3   OH215301   5.695   4.032   3.024
 5119TIP3    H115302   5.636   4.063   3.093
 5119TIP3    H215303   5.707   3.939   3.043
 5120TIP3   OH215304   3.937   5.724   0.679
 5120TIP3    H115305   3.963   5.658   0.743
 5120TIP3    H215306   3.918   5.802   0.731
 5121TIP3   OH215307   0.888   7.032   6.055
 5121TIP3    H115308   0.840   7.107   6.022
 5121TIP3    H215309   0.967   7.070   6.094
 5122TIP3   OH215310   5.522   5.281   3.996
 5122TIP3    H115311   5.593   5.293   3.933
 5122TIP3    H215312   5.443   5.301   3.946
 5123TIP3   OH215313   0.707   0.488   3.848
 5123TIP3    H115314   0.707   0.405   3.896
 5123TIP3    H215315   0.615   0.503   3.826
 5124TIP3   OH215316   7.425   4.119   2.439
 5124TIP3    H115317   7.373   4.134   2.518
 5124TIP3    H215318   7.459   4.030   2.450
 5125TIP3   OH215319   3.109   2.861   0.044
 5125TIP3    H115320   3.094   2.954   0.027
 5125TIP3    H215321   3.105   2.853   0.139
 5126TIP3   OH215322   1.252   5.977   6.575
 5126TIP3    H115323   1.177   6.033   6.554
 5126TIP3    H215324   1.290   6.015   6.654
 5127TIP3   OH215325   4.376   0.990   0.961
 5127TIP3    H115326   4.428   0.958   1.035
 5127TIP3    H215327   4.345   1.076   0.989
 5128TIP3   OH215328   3.568   0.338   4.643
 5128TIP3    H115329   3.664   0.340   4.647
 5128TIP3    H215330   3.542   0.421   4.683
 5129TIP3   OH215331   3.870   0.161   2.840
 5129TIP3    H115332   3.839   0.187   2.753
 5129TIP3    H215333   3.793   0.169   2.896
 5130TIP3   OH215334   7.713   5.275   6.414
 5130TIP3    H115335   7.703   5.365   6.383
 5130TIP3    H215336   7.688   5.221   6.339
 5131TIP3   OH215337   5.134   0.011   2.817
 5131TIP3    H115338   5.186  -0.063   2.848
 5131TIP3    H215339   5.083   0.037   2.894
 5132TIP3   OH215340   6.283   2.706   0.372
 5132TIP3    H115341   6.248   2.766   0.438
 5132TIP3    H215342   6.205   2.668   0.331
 5133TIP3   OH215343   6.946   7.502   5.844
 5133TIP3    H115344   6.859   7.486   5.880
 5133TIP3    H215345   6.969   7.421   5.800
 5134TIP3   OH215346   3.534   4.445   1.826
 5134TIP3    H115347   3.610   4.487   1.867
 5134TIP3    H215348   3.549   4.351   1.839
 5135TIP3   OH215349   6.335   4.151   5.710
 5135TIP3    H115350   6.400   4.221   5.714
 5135TIP3    H215351   6.373   4.080   5.761
 5136TIP3   OH215352   7.113   6.389   6.693
 5136TIP3    H115353   7.027   6.429   6.699
 5136TIP3    H215354   7.129   6.380   6.599
 5137TIP3   OH215355   4.757   5.375   2.714
 5137TIP3    H115356   4.666   5.354   2.693
 5137TIP3    H215357   4.767   5.467   2.688
 5138TIP3   OH215358   4.518   2.475   2.974
 5138TIP3    H115359   4.541   2.393   2.930
 5138TIP3    H215360   4.532   2.456   3.067
 5139TIP3   OH215361   7.320   2.420   2.449
 5139TIP3    H115362   7.244   2.390   2.398
 5139TIP3    H215363   7.331   2.511   2.423
 5140TIP3   OH215364   3.509   5.117   2.485
 5140TIP3    H115365   3.591   5.088   2.527
 5140TIP3    H215366   3.462   5.162   2.555
 5141TIP3   OH215367   6.913   2.651   5.225
 5141TIP3    H115368   6.921   2.572   5.171
 5141TIP3    H215369   6.819   2.664   5.234
 5142TIP3   OH215370   6.503   5.992   6.010
 5142TIP3    H115371   6.558   6.058   5.969
 5142TIP3    H215372   6.423   6.038   6.034
 5143TIP3   OH215373   7.784   2.175   3.064
 5143TIP3    H115374   7.760   2.085   3.045
 5143TIP3    H215375   7.761   2.186   3.157
 5144TIP3   OH215376   3.852   6.450   4.932
 5144TIP3    H115377   3.889   6.398   5.003
 5144TIP3    H215378   3.884   6.408   4.852
 5145TIP3   OH215379   4.587   2.634   4.977
 5145TIP3    H115380   4.578   2.557   5.033
 5145TIP3    H215381   4.665   2.679   5.010
 5146TIP3   OH215382   4.119   6.841   2.151
 5146TIP3    H115383   4.074   6.757   2.143
 5146TIP3    H215384   4.183   6.828   2.221
 5147TIP3   OH215385   2.908   3.754   4.585
 5147TIP3    H115386   2.841   3.782   4.523
 5147TIP3    H215387   2.971   3.826   4.586
 5148TIP3   OH215388   1.277   3.983   1.055
 5148TIP3    H115389   1.272   4.075   1.032
 5148TIP3    H215390   1.368   3.969   1.080
 5149TIP3   OH215391   2.747   5.204   4.014
 5149TIP3    H115392   2.830   5.158   4.002
 5149TIP3    H215393   2.691   5.169   3.946
 5150TIP3   OH215394   0.132   0.163   2.826
 5150TIP3    H115395   0.124   0.215   2.906
 5150TIP3    H215396   0.180   0.219   2.765
 5151TIP3   OH215397   6.950   3.646   5.090
 5151TIP3    H115398   6.982   3.685   5.009
 5151TIP3    H215399   7.027   3.604   5.128
 5152TIP3   OH215400   3.991   3.184   1.581
 5152TIP3    H115401   3.982   3.134   1.662
 5152TIP3    H215402   4.040   3.263   1.607
 5153TIP3   OH215403   2.122   7.476   3.361
 5153TIP3    H115404   2.089   7.563   3.383
 5153TIP3    H215405   2.048   7.433   3.318
 5154TIP3   OH215406   3.382   3.389   4.819
 5154TIP3    H115407   3.375   3.432   4.904
 5154TIP3    H215408   3.344   3.302   4.833
 5155TIP3   OH215409   5.369   1.755   2.874
 5155TIP3    H115410   5.403   1.678   2.828
 5155TIP3    H215411   5.283   1.728   2.906
 5156TIP3   OH215412   6.733   6.564   4.277
 5156TIP3    H115413   6.659   6.584   4.335
 5156TIP3    H215414   6.766   6.480   4.309
 5157TIP3   OH215415   5.434   6.284   6.379
 5157TIP3    H115416   5.412   6.206   6.330
 5157TIP3    H215417   5.388   6.355   6.334
 5158TIP3   OH215418   2.747   7.705   6.173
 5158TIP3    H115419   2.727   7.763   6.246
 5158TIP3    H215420   2.811   7.754   6.121
 5159TIP3   OH215421   2.310   3.557   2.187
 5159TIP3    H115422   2.402   3.584   2.182
 5159TIP3    H215423   2.311   3.463   2.168
 5160TIP3   OH215424   5.730   7.185   2.107
 5160TIP3    H115425   5.755   7.266   2.153
 5160TIP3    H215426   5.773   7.115   2.156
 5161TIP3   OH215427   1.234   5.691   1.662
 5161TIP3    H115428   1.188   5.739   1.593
 5161TIP3    H215429   1.217   5.599   1.643
 5162TIP3   OH215430   4.077   5.267   6.232
 5162TIP3    H115431   3.990   5.230   6.247
 5162TIP3    H215432   4.115   5.213   6.162
 5163TIP3   OH215433   0.435   4.991   1.533
 5163TIP3    H115434   0.422   4.922   1.468
 5163TIP3    H215435   0.530   4.993   1.548
 5164TIP3   OH215436   5.662   0.266   4.908
 5164TIP3    H115437   5.615   0.183   4.915
 5164TIP3    H215438   5.731   0.249   4.844
 5165TIP3   OH215439   0.018   1.852   5.801
 5165TIP3    H115440  -0.011   1.844   5.710
 5165TIP3    H215441   0.037   1.762   5.828
 5166TIP3   OH215442   6.330   4.887   5.653
 5166TIP3    H115443   6.397   4.827   5.620
 5166TIP3    H215444   6.347   4.892   5.747
 5167TIP3   OH215445   0.194   2.294   3.306
 5167TIP3    H115446   0.131   2.232   3.342
 5167TIP3    H215447   0.280   2.262   3.335
 5168TIP3   OH215448   0.039   6.419   4.978
 5168TIP3    H115449   0.061   6.500   4.931
 5168TIP3    H215450  -0.043   6.390   4.938
 5169TIP3   OH215451   0.872   6.962   2.998
 5169TIP3    H115452   0.928   7.032   2.965
 5169TIP3    H215453   0.819   6.936   2.922
 5170TIP3   OH215454   2.669   4.942   5.500
 5170TIP3    H115455   2.711   4.984   5.425
 5170TIP3    H215456   2.601   4.886   5.462
 5171TIP3   OH215457   5.421   1.598   1.366
 5171TIP3    H115458   5.341   1.595   1.418
 5171TIP3    H215459   5.425   1.513   1.324
 5172TIP3   OH215460   7.451   3.069   3.442
 5172TIP3    H115461   7.442   3.122   3.521
 5172TIP3    H215462   7.459   3.132   3.371
 5173TIP3   OH215463   3.323   4.711   6.133
 5173TIP3    H115464   3.256   4.644   6.120
 5173TIP3    H215465   3.394   4.666   6.179
 5174TIP3   OH215466   5.627   5.545   5.425
 5174TIP3    H115467   5.562   5.557   5.494
 5174TIP3    H215468   5.596   5.469   5.375
 5175TIP3   OH215469   5.577   6.829   3.818
 5175TIP3    H115470   5.636   6.831   3.893
 5175TIP3    H215471   5.596   6.909   3.770
 5176TIP3   OH215472   2.938   0.555   6.265
 5176TIP3    H115473   3.016   0.599   6.231
 5176TIP3    H215474   2.968   0.510   6.344
 5177TIP3   OH215475   3.787   0.997   0.769
 5177TIP3    H115476   3.761   1.086   0.791
 5177TIP3    H215477   3.856   1.007   0.704
 5178TIP3   OH215478   4.652   5.985   0.305
 5178TIP3    H115479   4.674   5.901   0.264
 5178TIP3    H215480   4.614   6.037   0.235
 5179TIP3   OH215481   2.407   5.492   3.975
 5179TIP3    H115482   2.481   5.484   4.035
 5179TIP3    H215483   2.387   5.585   3.974
 5180TIP3   OH215484   1.023   1.223   4.419
 5180TIP3    H115485   0.967   1.223   4.497
 5180TIP3    H215486   1.091   1.287   4.439
 5181TIP3   OH215487   7.273   3.782   1.676
 5181TIP3    H115488   7.238   3.870   1.688
 5181TIP3    H215489   7.253   3.760   1.585
 5182TIP3   OH215490   1.948   6.382   0.561
 5182TIP3    H115491   2.021   6.382   0.622
 5182TIP3    H215492   1.887   6.446   0.596
 5183TIP3   OH215493   7.271   6.084   1.134
 5183TIP3    H115494   7.356   6.052   1.163
 5183TIP3    H215495   7.279   6.094   1.040
 5184TIP3   OH215496   2.256   0.395   0.277
 5184TIP3    H115497   2.215   0.460   0.220
 5184TIP3    H215498   2.302   0.337   0.218
 5185TIP3   OH215499   0.554   0.075   1.199
 5185TIP3    H115500   0.600   0.087   1.116
 5185TIP3    H215501   0.562   0.159   1.244
 5186TIP3   OH215502   3.664   6.904   0.739
 5186TIP3    H115503   3.660   6.814   0.706
 5186TIP3    H215504   3.607   6.953   0.680
 5187TIP3   OH215505   4.639   5.060   2.966
 5187TIP3    H115506   4.591   4.998   2.910
 5187TIP3    H215507   4.723   5.072   2.922
 5188TIP3   OH215508   5.256   2.805   2.880
 5188TIP3    H115509   5.231   2.858   2.955
 5188TIP3    H215510   5.246   2.715   2.909
 5189TIP3   OH215511   7.117   4.850   4.949
 5189TIP3    H115512   7.045   4.889   4.999
 5189TIP3    H215513   7.074   4.801   4.878
 5190TIP3   OH215514   5.310   7.513   2.655
 5190TIP3    H115515   5.219   7.541   2.652
 5190TIP3    H215516   5.332   7.515   2.749
 5191TIP3   OH215517   3.084   0.554   3.213
 5191TIP3    H115518   3.027   0.491   3.169
 5191TIP3    H215519   3.123   0.605   3.142
 5192TIP3   OH215520   4.651   1.740   3.725
 5192TIP3    H115521   4.737   1.781   3.719
 5192TIP3    H215522   4.603   1.774   3.649
 5193TIP3   OH215523   3.979   5.920   3.245
 5193TIP3    H115524   4.070   5.947   3.232
 5193TIP3    H215525   3.927   5.995   3.214
 5194TIP3   OH215526   1.984   4.267   4.876
 5194TIP3    H115527   1.913   4.231   4.824
 5194TIP3    H215528   2.037   4.318   4.814
 5195TIP3   OH215529   6.654   2.473   3.388
 5195TIP3    H115530   6.719   2.412   3.421
 5195TIP3    H215531   6.701   2.555   3.376
 5196TIP3   OH215532   2.628   1.176   1.370
 5196TIP3    H115533   2.619   1.126   1.289
 5196TIP3    H215534   2.718   1.207   1.369
 5197TIP3   OH215535   6.121   1.594   5.703
 5197TIP3    H115536   6.191   1.596   5.768
 5197TIP3    H215537   6.042   1.612   5.753
 5198TIP3   OH215538   1.560   1.629   2.565
 5198TIP3    H115539   1.531   1.687   2.636
 5198TIP3    H215540   1.544   1.541   2.598
 5199TIP3   OH215541   4.079   4.059   4.329
 5199TIP3    H115542   4.124   4.056   4.245
 5199TIP3    H215543   4.037   4.145   4.331
 5200TIP3   OH215544   2.293   5.612   4.852
 5200TIP3    H115545   2.377   5.571   4.834
 5200TIP3    H215546   2.260   5.639   4.767
 5201TIP3   OH215547   6.155   6.610   5.881
 5201TIP3    H115548   6.126   6.521   5.860
 5201TIP3    H215549   6.162   6.653   5.796
 5202TIP3   OH215550   5.646   1.410   2.986
 5202TIP3    H115551   5.563   1.367   2.967
 5202TIP3    H215552   5.682   1.362   3.060
 5203TIP3   OH215553   0.796   0.241   1.404
 5203TIP3    H115554   0.788   0.290   1.486
 5203TIP3    H215555   0.750   0.159   1.421
 5204TIP3   OH215556   2.698   1.564   2.932
 5204TIP3    H115557   2.720   1.617   2.856
 5204TIP3    H215558   2.772   1.576   2.991
 5205TIP3   OH215559   0.450   4.981   5.536
 5205TIP3    H115560   0.401   4.967   5.455
 5205TIP3    H215561   0.411   4.921   5.599
 5206TIP3   OH215562   7.863   7.067   3.563
 5206TIP3    H115563   7.908   7.113   3.634
 5206TIP3    H215564   7.888   7.114   3.484
 5207TIP3   OH215565   1.649   1.975   6.508
 5207TIP3    H115566   1.565   1.973   6.554
 5207TIP3    H215567   1.686   1.888   6.522
 5208TIP3   OH215568   2.047   5.412   6.412
 5208TIP3    H115569   2.124   5.469   6.409
 5208TIP3    H215570   2.065   5.353   6.486
 5209TIP3   OH215571   3.817   5.293   2.350
 5209TIP3    H115572   3.748   5.251   2.402
 5209TIP3    H215573   3.775   5.371   2.314
 5210TIP3   OH215574   4.351   3.465   0.491
 5210TIP3    H115575   4.299   3.438   0.567
 5210TIP3    H215576   4.429   3.409   0.494
 5211TIP3   OH215577   6.868   6.458   2.759
 5211TIP3    H115578   6.805   6.431   2.692
 5211TIP3    H215579   6.815   6.477   2.836
 5212TIP3   OH215580   2.982   6.173   1.545
 5212TIP3    H115581   2.891   6.191   1.520
 5212TIP3    H215582   2.991   6.213   1.631
 5213TIP3   OH215583   4.118   6.046   2.439
 5213TIP3    H115584   4.100   6.090   2.521
 5213TIP3    H215585   4.119   6.116   2.373
 5214TIP3   OH215586   7.553   0.054   3.797
 5214TIP3    H115587   7.596   0.129   3.756
 5214TIP3    H215588   7.572  -0.019   3.738
 5215TIP3   OH215589   3.171   1.137   4.312
 5215TIP3    H115590   3.217   1.215   4.344
 5215TIP3    H215591   3.187   1.137   4.218
 5216TIP3   OH215592   3.485   2.101   6.418
 5216TIP3    H115593   3.411   2.162   6.422
 5216TIP3    H215594   3.503   2.092   6.324
 5217TIP3   OH215595   3.562   5.951   1.116
 5217TIP3    H115596   3.582   5.863   1.087
 5217TIP3    H215597   3.517   5.940   1.199
 5218TIP3   OH215598   0.885   2.938   3.735
 5218TIP3    H115599   0.960   2.997   3.730
 5218TIP3    H215600   0.894   2.881   3.658
 5219TIP3   OH215601   3.502   2.333   0.222
 5219TIP3    H115602   3.426   2.329   0.164
 5219TIP3    H215603   3.474   2.290   0.303
 5220TIP3   OH215604   1.159   3.173   0.774
 5220TIP3    H115605   1.073   3.180   0.816
 5220TIP3    H215606   1.145   3.204   0.685
 5221TIP3   OH215607   5.431   1.512   4.775
 5221TIP3    H115608   5.436   1.441   4.839
 5221TIP3    H215609   5.347   1.500   4.731
 5222TIP3   OH215610   6.673   0.321   0.834
 5222TIP3    H115611   6.690   0.412   0.858
 5222TIP3    H215612   6.619   0.326   0.755
 5223TIP3   OH215613   4.221   7.532   5.329
 5223TIP3    H115614   4.224   7.605   5.267
 5223TIP3    H215615   4.235   7.574   5.414
 5224TIP3   OH215616   0.484   6.624   3.435
 5224TIP3    H115617   0.429   6.701   3.446
 5224TIP3    H215618   0.438   6.555   3.483
 5225TIP3   OH215619   7.659   6.549   4.620
 5225TIP3    H115620   7.606   6.470   4.630
 5225TIP3    H215621   7.644   6.577   4.530
 5226TIP3   OH215622   1.830   3.577   1.613
 5226TIP3    H115623   1.848   3.593   1.520
 5226TIP3    H215624   1.889   3.505   1.637
 5227TIP3   OH215625   4.679   6.449   6.117
 5227TIP3    H115626   4.709   6.492   6.037
 5227TIP3    H215627   4.584   6.442   6.106
 5228TIP3   OH215628   3.048   5.600   1.771
 5228TIP3    H115629   3.040   5.590   1.676
 5228TIP3    H215630   3.003   5.682   1.791
 5229TIP3   OH215631   2.457   7.207   3.490
 5229TIP3    H115632   2.500   7.292   3.477
 5229TIP3    H215633   2.371   7.218   3.450
 5230TIP3   OH215634   4.344   0.300   1.417
 5230TIP3    H115635   4.422   0.323   1.467
 5230TIP3    H215636   4.323   0.211   1.444
 5231TIP3   OH215637   3.255   7.678   2.597
 5231TIP3    H115638   3.200   7.709   2.525
 5231TIP3    H215639   3.255   7.583   2.587
 5232TIP3   OH215640   8.300   0.955   5.589
 5232TIP3    H115641   8.218   0.981   5.546
 5232TIP3    H215642   8.316   0.866   5.558
 5233TIP3   OH215643   7.958   3.028   0.924
 5233TIP3    H115644   7.976   2.940   0.891
 5233TIP3    H215645   7.933   3.015   1.015
 5234TIP3   OH215646   1.699   3.736   5.175
 5234TIP3    H115647   1.772   3.781   5.217
 5234TIP3    H215648   1.627   3.743   5.238
 5235TIP3   OH215649   8.141   1.552   3.497
 5235TIP3    H115650   8.185   1.618   3.443
 5235TIP3    H215651   8.202   1.535   3.569
 5236TIP3   OH215652   1.652   1.508   6.371
 5236TIP3    H115653   1.702   1.439   6.414
 5236TIP3    H215654   1.577   1.464   6.333
 5237TIP3   OH215655   7.387   2.233   5.722
 5237TIP3    H115656   7.304   2.243   5.768
 5237TIP3    H215657   7.451   2.216   5.792
 5238TIP3   OH215658   3.922   1.352   6.088
 5238TIP3    H115659   3.918   1.332   6.182
 5238TIP3    H215660   4.009   1.324   6.061
 5239TIP3   OH215661   7.330   6.813   5.167
 5239TIP3    H115662   7.325   6.794   5.261
 5239TIP3    H215663   7.421   6.796   5.144
 5240TIP3   OH215664   3.520   7.446   2.630
 5240TIP3    H115665   3.426   7.428   2.623
 5240TIP3    H215666   3.525   7.535   2.665
 5241TIP3   OH215667   5.653   7.155   3.912
 5241TIP3    H115668   5.733   7.190   3.874
 5241TIP3    H215669   5.628   7.218   3.979
 5242TIP3   OH215670   6.316   2.805   4.276
 5242TIP3    H115671   6.297   2.811   4.183
 5242TIP3    H215672   6.275   2.883   4.314
 5243TIP3   OH215673   3.835   3.274   0.998
 5243TIP3    H115674   3.777   3.321   0.938
 5243TIP3    H215675   3.777   3.220   1.051
 5244TIP3   OH215676   7.345   0.640   4.802
 5244TIP3    H115677   7.435   0.607   4.796
 5244TIP3    H215678   7.349   0.705   4.872
 5245TIP3   OH215679   6.711   4.322   4.444
 5245TIP3    H115680   6.653   4.397   4.461
 5245TIP3    H215681   6.772   4.354   4.377
 5246TIP3   OH215682   1.401   5.108   2.239
 5246TIP3    H115683   1.327   5.135   2.184
 5246TIP3    H215684   1.382   5.145   2.325
 5247TIP3   OH215685   0.354   3.361   6.525
 5247TIP3    H115686   0.380   3.302   6.596
 5247TIP3    H215687   0.340   3.304   6.450
 5248TIP3   OH215688   0.333   1.803   4.033
 5248TIP3    H115689   0.373   1.862   3.969
 5248TIP3    H215690   0.369   1.717   4.012
 5249TIP3   OH215691   1.688   3.472   6.003
 5249TIP3    H115692   1.675   3.567   6.002
 5249TIP3    H215693   1.641   3.440   5.927
 5250TIP3   OH215694   6.934   2.098   1.866
 5250TIP3    H115695   6.867   2.153   1.906
 5250TIP3    H215696   6.978   2.155   1.803
 5251TIP3   OH215697   4.149   4.820   5.818
 5251TIP3    H115698   4.177   4.825   5.910
 5251TIP3    H215699   4.230   4.825   5.768
 5252TIP3   OH215700   7.822   5.579   0.685
 5252TIP3    H115701   7.901   5.553   0.732
 5252TIP3    H215702   7.778   5.640   0.744
 5253TIP3   OH215703   4.583   1.369   1.147
 5253TIP3    H115704   4.622   1.288   1.116
 5253TIP3    H215705   4.568   1.420   1.067
 5254TIP3   OH215706   0.225   7.574   2.033
 5254TIP3    H115707   0.223   7.523   2.114
 5254TIP3    H215708   0.212   7.509   1.964
 5255TIP3   OH215709   0.527   2.774   4.788
 5255TIP3    H115710   0.544   2.758   4.881
 5255TIP3    H215711   0.598   2.729   4.743
 5256TIP3   OH215712   3.608   0.514   6.601
 5256TIP3    H115713   3.531   0.571   6.596
 5256TIP3    H215714   3.574   0.431   6.633
 5257TIP3   OH215715   4.327   1.842   1.298
 5257TIP3    H115716   4.305   1.768   1.355
 5257TIP3    H215717   4.351   1.913   1.359
 5258TIP3   OH215718   3.962   2.679   2.913
 5258TIP3    H115719   3.965   2.669   3.008
 5258TIP3    H215720   4.031   2.620   2.881
 5259TIP3   OH215721   7.162   3.464   1.541
 5259TIP3    H115722   7.131   3.470   1.631
 5259TIP3    H215723   7.086   3.439   1.490
 5260TIP3   OH215724   4.711   4.031   3.563
 5260TIP3    H115725   4.775   3.989   3.621
 5260TIP3    H215726   4.635   4.048   3.619
 5261TIP3   OH215727   5.338   4.390   1.232
 5261TIP3    H115728   5.346   4.393   1.137
 5261TIP3    H215729   5.382   4.470   1.262
 5262TIP3   OH215730   6.275   3.489   5.857
 5262TIP3    H115731   6.310   3.544   5.786
 5262TIP3    H215732   6.293   3.399   5.828
 5263TIP3   OH215733   3.317   3.852   2.592
 5263TIP3    H115734   3.295   3.831   2.683
 5263TIP3    H215735   3.282   3.940   2.579
 5264TIP3   OH215736   5.373   2.493   0.396
 5264TIP3    H115737   5.372   2.568   0.337
 5264TIP3    H215738   5.408   2.527   0.478
 5265TIP3   OH215739   2.336   4.150   1.674
 5265TIP3    H115740   2.336   4.238   1.638
 5265TIP3    H215741   2.396   4.155   1.749
 5266TIP3   OH215742   0.500   5.296   0.691
 5266TIP3    H115743   0.426   5.355   0.678
 5266TIP3    H215744   0.486   5.225   0.629
 5267TIP3   OH215745   7.748   0.721   3.717
 5267TIP3    H115746   7.789   0.667   3.784
 5267TIP3    H215747   7.741   0.663   3.641
 5268TIP3   OH215748   6.371   5.759   5.489
 5268TIP3    H115749   6.437   5.813   5.445
 5268TIP3    H215750   6.395   5.669   5.466
 5269TIP3   OH215751   5.673   3.572   6.723
 5269TIP3    H115752   5.637   3.507   6.664
 5269TIP3    H215753   5.641   3.547   6.810
 5270TIP3   OH215754   6.805   0.770   0.594
 5270TIP3    H115755   6.898   0.750   0.579
 5270TIP3    H215756   6.759   0.689   0.569
 5271TIP3   OH215757   5.941   6.801   4.195
 5271TIP3    H115758   5.857   6.829   4.159
 5271TIP3    H215759   5.926   6.711   4.224
 5272TIP3   OH215760   7.236   2.169   3.140
 5272TIP3    H115761   7.201   2.185   3.052
 5272TIP3    H215762   7.181   2.222   3.198
 5273TIP3   OH215763   2.518   5.538   2.712
 5273TIP3    H115764   2.492   5.623   2.748
 5273TIP3    H215765   2.606   5.524   2.747
 5274TIP3   OH215766   7.992   5.147   1.535
 5274TIP3    H115767   7.913   5.200   1.540
 5274TIP3    H215768   8.009   5.120   1.625
 5275TIP3   OH215769   0.240   6.735   6.554
 5275TIP3    H115770   0.319   6.776   6.520
 5275TIP3    H215771   0.172   6.759   6.491
 5276TIP3   OH215772   3.430   6.256   1.692
 5276TIP3    H115773   3.388   6.172   1.713
 5276TIP3    H215774   3.376   6.292   1.621
 5277TIP3   OH215775   5.391   0.521   6.484
 5277TIP3    H115776   5.420   0.441   6.528
 5277TIP3    H215777   5.296   0.520   6.492
 5278TIP3   OH215778   0.348   7.323   2.735
 5278TIP3    H115779   0.409   7.274   2.791
 5278TIP3    H215780   0.267   7.326   2.785
 5279TIP3   OH215781   2.661   0.182   5.667
 5279TIP3    H115782   2.671   0.172   5.762
 5279TIP3    H215783   2.604   0.258   5.657
 5280TIP3   OH215784   4.564   1.485   6.064
 5280TIP3    H115785   4.573   1.452   6.154
 5280TIP3    H215786   4.654   1.491   6.032
 5281TIP3   OH215787   4.322   2.525   2.297
 5281TIP3    H115788   4.246   2.494   2.345
 5281TIP3    H215789   4.365   2.586   2.357
 5282TIP3   OH215790   1.199   3.972   5.532
 5282TIP3    H115791   1.195   3.936   5.620
 5282TIP3    H215792   1.134   3.922   5.483
 5283TIP3   OH215793   0.720   1.875   2.871
 5283TIP3    H115794   0.747   1.884   2.780
 5283TIP3    H215795   0.624   1.873   2.868
 5284TIP3   OH215796   2.183   0.115   2.433
 5284TIP3    H115797   2.138   0.051   2.489
 5284TIP3    H215798   2.146   0.102   2.346
 5285TIP3   OH215799   3.499   0.702   6.012
 5285TIP3    H115800   3.428   0.687   5.950
 5285TIP3    H215801   3.539   0.616   6.024
 5286TIP3   OH215802   7.861   1.308   6.260
 5286TIP3    H115803   7.921   1.235   6.245
 5286TIP3    H215804   7.779   1.280   6.219
 5287TIP3   OH215805   4.972   1.380   2.026
 5287TIP3    H115806   4.982   1.295   2.068
 5287TIP3    H215807   4.906   1.425   2.078
 5288TIP3   OH215808   7.474  -0.006   5.908
 5288TIP3    H115809   7.534   0.039   5.968
 5288TIP3    H215810   7.529  -0.066   5.859
 5289TIP3   OH215811   6.484   1.045   1.131
 5289TIP3    H115812   6.413   0.982   1.143
 5289TIP3    H215813   6.554   0.995   1.088
 5290TIP3   OH215814   2.762   4.022   1.047
 5290TIP3    H115815   2.708   4.096   1.020
 5290TIP3    H215816   2.730   3.948   0.996
 5291TIP3   OH215817   1.040   2.605   3.037
 5291TIP3    H115818   1.085   2.671   2.984
 5291TIP3    H215819   0.972   2.569   2.979
 5292TIP3   OH215820   4.396   0.177   0.871
 5292TIP3    H115821   4.361   0.092   0.898
 5292TIP3    H215822   4.333   0.241   0.905
 5293TIP3   OH215823   7.594   7.668   0.414
 5293TIP3    H115824   7.534   7.733   0.376
 5293TIP3    H215825   7.678   7.713   0.419
 5294TIP3   OH215826   6.837   3.879   1.851
 5294TIP3    H115827   6.749   3.893   1.884
 5294TIP3    H215828   6.833   3.907   1.759
 5295TIP3   OH215829   4.533   0.748   4.623
 5295TIP3    H115830   4.604   0.736   4.687
 5295TIP3    H215831   4.479   0.669   4.633
 5296TIP3   OH215832   0.461   5.899   2.915
 5296TIP3    H115833   0.493   5.944   2.993
 5296TIP3    H215834   0.540   5.865   2.873
 5297TIP3   OH215835   5.878   6.231   4.053
 5297TIP3    H115836   5.884   6.232   3.958
 5297TIP3    H215837   5.800   6.282   4.073
 5298TIP3   OH215838   2.034   1.138   0.776
 5298TIP3    H115839   1.964   1.203   0.782
 5298TIP3    H215840   2.072   1.154   0.689
 5299TIP3   OH215841   4.430   2.710   1.891
 5299TIP3    H115842   4.490   2.752   1.830
 5299TIP3    H215843   4.486   2.671   1.957
 5300TIP3   OH215844   2.491   1.889   2.636
 5300TIP3    H115845   2.563   1.945   2.666
 5300TIP3    H215846   2.526   1.846   2.558
 5301TIP3   OH215847   0.192   5.218   0.090
 5301TIP3    H115848   0.212   5.174   0.007
 5301TIP3    H215849   0.182   5.147   0.153
 5302TIP3   OH215850   6.575   3.720   0.871
 5302TIP3    H115851   6.647   3.727   0.809
 5302TIP3    H215852   6.607   3.660   0.939
 5303TIP3   OH215853   2.102   0.013   1.797
 5303TIP3    H115854   2.152  -0.032   1.729
 5303TIP3    H215855   2.116   0.106   1.779
 5304TIP3   OH215856   5.887   0.369   6.689
 5304TIP3    H115857   5.868   0.279   6.715
 5304TIP3    H215858   5.862   0.421   6.765
 5305TIP3   OH215859   1.788   1.259   0.709
 5305TIP3    H115860   1.711   1.312   0.726
 5305TIP3    H215861   1.759   1.195   0.643
 5306TIP3   OH215862   4.036   7.512   2.724
 5306TIP3    H115863   4.114   7.517   2.778
 5306TIP3    H215864   3.969   7.558   2.774
 5307TIP3   OH215865   4.293   6.884   0.309
 5307TIP3    H115866   4.230   6.913   0.244
 5307TIP3    H215867   4.355   6.956   0.317
 5308TIP3   OH215868   0.446   0.752   4.570
 5308TIP3    H115869   0.458   0.713   4.657
 5308TIP3    H215870   0.352   0.749   4.556
 5309TIP3   OH215871   5.599   1.700   1.627
 5309TIP3    H115872   5.688   1.713   1.660
 5309TIP3    H215873   5.612   1.662   1.540
 5310TIP3   OH215874   2.605   6.784   4.199
 5310TIP3    H115875   2.519   6.768   4.238
 5310TIP3    H215876   2.590   6.857   4.138
 5311TIP3   OH215877   1.916   0.582   6.050
 5311TIP3    H115878   2.011   0.569   6.052
 5311TIP3    H215879   1.880   0.494   6.055
 5312TIP3   OH215880   4.106   0.657   3.941
 5312TIP3    H115881   4.168   0.592   3.975
 5312TIP3    H215882   4.023   0.637   3.985
 5313TIP3   OH215883   1.959   2.941   4.125
 5313TIP3    H115884   1.982   2.864   4.177
 5313TIP3    H215885   1.901   2.992   4.182
 5314TIP3   OH215886   0.120   4.839   4.679
 5314TIP3    H115887   0.161   4.807   4.598
 5314TIP3    H215888   0.031   4.806   4.675
 5315TIP3   OH215889   1.651   4.222   0.131
 5315TIP3    H115890   1.741   4.225   0.164
 5315TIP3    H215891   1.598   4.249   0.206
 5316TIP3   OH215892   5.077   6.638   5.577
 5316TIP3    H115893   5.031   6.718   5.552
 5316TIP3    H215894   5.059   6.628   5.671
 5317TIP3   OH215895   8.194   3.327   4.957
 5317TIP3    H115896   8.113   3.331   4.908
 5317TIP3    H215897   8.228   3.239   4.941
 5318TIP3   OH215898   7.481   2.025   6.623
 5318TIP3    H115899   7.548   1.966   6.589
 5318TIP3    H215900   7.414   1.967   6.659
 5319TIP3   OH215901   7.386   4.162   1.455
 5319TIP3    H115902   7.471   4.175   1.414
 5319TIP3    H215903   7.404   4.107   1.531
 5320TIP3   OH215904   6.960   5.183   3.363
 5320TIP3    H115905   6.942   5.186   3.457
 5320TIP3    H215906   6.898   5.119   3.328
 5321TIP3   OH215907   2.662   2.941   2.004
 5321TIP3    H115908   2.677   3.008   2.071
 5321TIP3    H215909   2.737   2.883   2.011
 5322TIP3   OH215910   5.271   3.009   0.537
 5322TIP3    H115911   5.252   3.087   0.485
 5322TIP3    H215912   5.191   2.956   0.530
 5323TIP3   OH215913   5.276   6.812   2.699
 5323TIP3    H115914   5.293   6.724   2.733
 5323TIP3    H215915   5.248   6.797   2.609
 5324TIP3   OH215916   2.973   7.016   5.461
 5324TIP3    H115917   3.007   6.933   5.493
 5324TIP3    H215918   2.988   7.013   5.367
 5325TIP3   OH215919   8.079   7.730   5.661
 5325TIP3    H115920   8.034   7.717   5.577
 5325TIP3    H215921   8.063   7.822   5.683
 5326TIP3   OH215922   0.693   0.607   5.380
 5326TIP3    H115923   0.654   0.578   5.462
 5326TIP3    H215924   0.746   0.683   5.404
 5327TIP3   OH215925   6.105   1.545   5.429
 5327TIP3    H115926   6.094   1.555   5.523
 5327TIP3    H215927   6.166   1.472   5.419
 5328TIP3   OH215928   0.506   4.221   1.641
 5328TIP3    H115929   0.565   4.290   1.610
 5328TIP3    H215930   0.418   4.251   1.617
 5329TIP3   OH215931   3.408   0.768   6.320
 5329TIP3    H115932   3.401   0.860   6.345
 5329TIP3    H215933   3.442   0.770   6.231
 5330TIP3   OH215934   0.850   5.968   1.277
 5330TIP3    H115935   0.796   6.040   1.245
 5330TIP3    H215936   0.881   5.997   1.363
 5331TIP3   OH215937   0.114   5.784   4.304
 5331TIP3    H115938   0.031   5.738   4.302
 5331TIP3    H215939   0.163   5.748   4.230
 5332TIP3   OH215940   7.329   2.478   0.227
 5332TIP3    H115941   7.262   2.534   0.186
 5332TIP3    H215942   7.286   2.442   0.304
 5333TIP3   OH215943   6.162   2.396   0.350
 5333TIP3    H115944   6.080   2.414   0.304
 5333TIP3    H215945   6.141   2.407   0.442
 5334TIP3   OH215946   7.349   1.375   5.100
 5334TIP3    H115947   7.397   1.392   5.019
 5334TIP3    H215948   7.353   1.458   5.148
 5335TIP3   OH215949   1.896   7.762   3.299
 5335TIP3    H115950   1.969   7.765   3.361
 5335TIP3    H215951   1.820   7.791   3.350
 5336TIP3   OH215952   2.657   7.725   3.821
 5336TIP3    H115953   2.585   7.712   3.882
 5336TIP3    H215954   2.726   7.665   3.851
 5337TIP3   OH215955   6.613   7.416   5.572
 5337TIP3    H115956   6.633   7.338   5.520
 5337TIP3    H215957   6.581   7.381   5.656
 5338TIP3   OH215958   2.218   3.210   0.505
 5338TIP3    H115959   2.253   3.294   0.536
 5338TIP3    H215960   2.167   3.233   0.427
 5339TIP3   OH215961   3.698   5.582   2.288
 5339TIP3    H115962   3.776   5.586   2.344
 5339TIP3    H215963   3.633   5.635   2.334
 5340TIP3   OH215964   6.637   4.415   6.384
 5340TIP3    H115965   6.585   4.480   6.338
 5340TIP3    H215966   6.578   4.341   6.397
 5341TIP3   OH215967   3.889   7.563   4.977
 5341TIP3    H115968   3.881   7.623   5.051
 5341TIP3    H215969   3.799   7.533   4.961
 5342TIP3   OH215970   4.938   4.811   3.828
 5342TIP3    H115971   4.978   4.898   3.834
 5342TIP3    H215972   4.951   4.772   3.915
 5343TIP3   OH215973   6.842   6.322   4.287
 5343TIP3    H115974   6.879   6.263   4.221
 5343TIP3    H215975   6.804   6.264   4.353
 5344TIP3   OH215976   3.437   6.491   5.689
 5344TIP3    H115977   3.475   6.429   5.752
 5344TIP3    H215978   3.513   6.530   5.645
 5345TIP3   OH215979   1.170   2.408   6.151
 5345TIP3    H115980   1.121   2.489   6.164
 5345TIP3    H215981   1.154   2.358   6.231
 5346TIP3   OH215982   1.839   0.253   2.085
 5346TIP3    H115983   1.845   0.340   2.047
 5346TIP3    H215984   1.768   0.210   2.037
 5347TIP3   OH215985   6.731   7.321   6.286
 5347TIP3    H115986   6.712   7.413   6.269
 5347TIP3    H215987   6.697   7.306   6.374
 5348TIP3   OH215988   1.592   3.619   2.133
 5348TIP3    H115989   1.537   3.558   2.183
 5348TIP3    H215990   1.569   3.603   2.042
 5349TIP3   OH215991   8.276   6.296   2.621
 5349TIP3    H115992   8.261   6.242   2.699
 5349TIP3    H215993   8.197   6.285   2.569
 5350TIP3   OH215994   0.412   2.750   0.375
 5350TIP3    H115995   0.478   2.749   0.445
 5350TIP3    H215996   0.399   2.843   0.355
 5351TIP3   OH215997   7.771   2.738   4.413
 5351TIP3    H115998   7.866   2.738   4.422
 5351TIP3    H215999   7.750   2.650   4.380
 5352TIP3   OH216000   5.143   6.095   4.108
 5352TIP3    H116001   5.122   6.102   4.201
 5352TIP3    H216002   5.129   6.183   4.073
 5353TIP3   OH216003   4.182   5.494  -0.008
 5353TIP3    H116004   4.094   5.515   0.024
 5353TIP3    H216005   4.185   5.399  -0.011
 5354TIP3   OH216006   7.595   3.622   3.692
 5354TIP3    H116007   7.623   3.544   3.740
 5354TIP3    H216008   7.671   3.645   3.639
 5355TIP3   OH216009   6.299   6.048   2.672
 5355TIP3    H116010   6.269   6.084   2.755
 5355TIP3    H216011   6.220   6.009   2.633
 5356TIP3   OH216012   3.646   4.644   0.905
 5356TIP3    H116013   3.674   4.730   0.872
 5356TIP3    H216014   3.595   4.664   0.983
 5357TIP3   OH216015   3.535   2.281   3.416
 5357TIP3    H116016   3.481   2.288   3.494
 5357TIP3    H216017   3.571   2.192   3.420
 5358TIP3   OH216018   5.958   1.845   0.858
 5358TIP3    H116019   5.904   1.888   0.791
 5358TIP3    H216020   6.018   1.788   0.808
 5359TIP3   OH216021   8.270   1.379   5.478
 5359TIP3    H116022   8.295   1.436   5.405
 5359TIP3    H216023   8.282   1.434   5.556
 5360TIP3   OH216024   7.564   5.658   6.537
 5360TIP3    H116025   7.597   5.623   6.455
 5360TIP3    H216026   7.634   5.717   6.567
 5361TIP3   OH216027   1.133   2.492   4.985
 5361TIP3    H116028   1.219   2.458   4.962
 5361TIP3    H216029   1.123   2.572   4.934
 5362TIP3   OH216030   7.197   4.070   0.978
 5362TIP3    H116031   7.129   4.118   1.023
 5362TIP3    H216032   7.151   4.015   0.915
 5363TIP3   OH216033   5.223   6.387   5.639
 5363TIP3    H116034   5.185   6.399   5.552
 5363TIP3    H216035   5.181   6.454   5.693
 5364TIP3   OH216036   6.876   0.097   0.407
 5364TIP3    H116037   6.934   0.109   0.333
 5364TIP3    H216038   6.809   0.165   0.397
 5365TIP3   OH216039   3.937   3.330   2.331
 5365TIP3    H116040   3.980   3.345   2.247
 5365TIP3    H216041   3.891   3.247   2.319
 5366TIP3   OH216042   2.614   0.475   3.206
 5366TIP3    H116043   2.648   0.558   3.239
 5366TIP3    H216044   2.548   0.449   3.270
 5367TIP3   OH216045   1.280   3.436   0.145
 5367TIP3    H116046   1.192   3.472   0.138
 5367TIP3    H216047   1.321   3.459   0.061
 5368TIP3   OH216048   4.937   3.102   4.947
 5368TIP3    H116049   4.918   3.027   4.891
 5368TIP3    H216050   4.869   3.100   5.014
 5369TIP3   OH216051   4.437   4.628   1.498
 5369TIP3    H116052   4.489   4.610   1.420
 5369TIP3    H216053   4.450   4.722   1.515
 5370TIP3   OH216054   8.062   1.344   0.059
 5370TIP3    H116055   8.028   1.422   0.104
 5370TIP3    H216056   8.006   1.334  -0.018
 5371TIP3   OH216057   7.650   7.140   2.359
 5371TIP3    H116058   7.689   7.067   2.311
 5371TIP3    H216059   7.566   7.156   2.315
 5372TIP3   OH216060   5.900   6.727   5.968
 5372TIP3    H116061   5.988   6.701   5.941
 5372TIP3    H216062   5.912   6.775   6.049
 5373TIP3   OH216063   8.052   0.887   0.051
 5373TIP3    H116064   8.069   0.963   0.105
 5373TIP3    H216065   8.070   0.812   0.107
 5374TIP3   OH216066   8.118   0.524   3.525
 5374TIP3    H116067   8.171   0.566   3.457
 5374TIP3    H216068   8.031   0.517   3.486
 5375TIP3   OH216069   1.673   4.517   0.460
 5375TIP3    H116070   1.730   4.484   0.530
 5375TIP3    H216071   1.717   4.596   0.429
 5376TIP3   OH216072   5.274   3.992   4.591
 5376TIP3    H116073   5.217   4.022   4.661
 5376TIP3    H216074   5.264   4.059   4.522
 5377TIP3   OH216075   0.344  -0.008   4.404
 5377TIP3    H116076   0.423  -0.046   4.364
 5377TIP3    H216077   0.362   0.086   4.409
 5378TIP3   OH216078   1.538   5.219   0.272
 5378TIP3    H116079   1.479   5.295   0.276
 5378TIP3    H216080   1.624   5.257   0.254
 5379TIP3   OH216081   1.295   0.934   3.920
 5379TIP3    H116082   1.263   0.844   3.924
 5379TIP3    H216083   1.365   0.937   3.986
 5380TIP3   OH216084   2.475   6.459   1.910
 5380TIP3    H116085   2.563   6.472   1.874
 5380TIP3    H216086   2.468   6.365   1.924
 5381TIP3   OH216087   1.037   7.747   4.105
 5381TIP3    H116088   0.971   7.729   4.038
 5381TIP3    H216089   1.041   7.843   4.109
 5382TIP3   OH216090   6.961   1.797   4.775
 5382TIP3    H116091   6.942   1.725   4.715
 5382TIP3    H216092   6.936   1.763   4.861
 5383TIP3   OH216093   6.422   4.794   5.232
 5383TIP3    H116094   6.487   4.783   5.162
 5383TIP3    H216095   6.470   4.833   5.304
 5384TIP3   OH216096   6.244   5.949   0.369
 5384TIP3    H116097   6.234   6.012   0.441
 5384TIP3    H216098   6.316   5.983   0.317
 5385TIP3   OH216099   2.372   4.100   1.411
 5385TIP3    H116100   2.365   4.111   1.505
 5385TIP3    H216101   2.422   4.176   1.381
 5386TIP3   OH216102   5.791   3.105   0.269
 5386TIP3    H116103   5.774   3.102   0.363
 5386TIP3    H216104   5.738   3.178   0.238
 5387TIP3   OH216105   4.115   3.421   2.781
 5387TIP3    H116106   4.024   3.446   2.797
 5387TIP3    H216107   4.131   3.350   2.843
 5388TIP3   OH216108   2.656   1.341   5.815
 5388TIP3    H116109   2.589   1.286   5.856
 5388TIP3    H216110   2.739   1.300   5.838
 5389TIP3   OH216111   5.795   3.167   2.507
 5389TIP3    H116112   5.865   3.150   2.443
 5389TIP3    H216113   5.769   3.258   2.488
 5390TIP3   OH216114   1.742   3.558   0.540
 5390TIP3    H116115   1.757   3.644   0.581
 5390TIP3    H216116   1.697   3.578   0.458
 5391TIP3   OH216117   4.000   0.081   5.657
 5391TIP3    H116118   3.963  -0.001   5.624
 5391TIP3    H216119   4.071   0.054   5.715
 5392TIP3   OH216120   0.253   5.591   3.080
 5392TIP3    H116121   0.196   5.624   3.011
 5392TIP3    H216122   0.214   5.506   3.104
 5393TIP3   OH216123   1.261   1.860   3.030
 5393TIP3    H116124   1.346   1.903   3.024
 5393TIP3    H216125   1.200   1.920   2.987
 5394TIP3   OH216126   7.916   2.638   5.721
 5394TIP3    H116127   7.919   2.729   5.692
 5394TIP3    H216128   8.002   2.622   5.759
 5395TIP3   OH216129   5.796   6.906   4.849
 5395TIP3    H116130   5.705   6.934   4.853
 5395TIP3    H216131   5.846   6.988   4.855
 5396TIP3   OH216132   1.199   6.483   3.089
 5396TIP3    H116133   1.243   6.568   3.086
 5396TIP3    H216134   1.193   6.462   3.183
 5397TIP3   OH216135   4.903   6.726   1.110
 5397TIP3    H116136   4.872   6.637   1.127
 5397TIP3    H216137   4.870   6.746   1.022
 5398TIP3   OH216138   4.688   4.541   2.614
 5398TIP3    H116139   4.633   4.505   2.684
 5398TIP3    H216140   4.776   4.542   2.650
 5399TIP3   OH216141   6.376   6.710   0.588
 5399TIP3    H116142   6.449   6.766   0.614
 5399TIP3    H216143   6.333   6.687   0.670
 5400TIP3   OH216144   7.482   6.691   1.456
 5400TIP3    H116145   7.548   6.680   1.525
 5400TIP3    H216146   7.532   6.700   1.375
 5401TIP3   OH216147   8.206   3.693   3.012
 5401TIP3    H116148   8.135   3.677   3.074
 5401TIP3    H216149   8.202   3.787   2.994
 5402TIP3   OH216150   6.838   1.093   5.912
 5402TIP3    H116151   6.780   1.116   5.985
 5402TIP3    H216152   6.826   0.999   5.901
 5403TIP3   OH216153   0.187   1.223   2.553
 5403TIP3    H116154   0.209   1.130   2.543
 5403TIP3    H216155   0.094   1.224   2.575
 5404TIP3   OH216156   7.603   2.170   0.570
 5404TIP3    H116157   7.656   2.250   0.563
 5404TIP3    H216158   7.574   2.168   0.661
 5405TIP3   OH216159   2.877   6.374   5.438
 5405TIP3    H116160   2.798   6.338   5.478
 5405TIP3    H216161   2.896   6.453   5.489
 5406TIP3   OH216162   7.210   7.523   0.044
 5406TIP3    H116163   7.169   7.607   0.022
 5406TIP3    H216164   7.138   7.467   0.071
 5407TIP3   OH216165   3.312   6.375   6.462
 5407TIP3    H116166   3.407   6.374   6.451
 5407TIP3    H216167   3.298   6.433   6.537
 5408TIP3   OH216168   3.572   0.585   3.953
 5408TIP3    H116169   3.482   0.589   3.986
 5408TIP3    H216170   3.570   0.520   3.883
 5409TIP3   OH216171   0.790   3.906   1.520
 5409TIP3    H116172   0.695   3.904   1.506
 5409TIP3    H216173   0.811   3.999   1.523
 5410TIP3   OH216174   7.477   1.456   5.820
 5410TIP3    H116175   7.496   1.540   5.861
 5410TIP3    H216176   7.398   1.471   5.768
 5411TIP3   OH216177   3.739   1.675   4.048
 5411TIP3    H116178   3.737   1.655   4.142
 5411TIP3    H216179   3.673   1.743   4.036
 5412TIP3   OH216180   6.358   1.589   3.034
 5412TIP3    H116181   6.277   1.628   3.003
 5412TIP3    H216182   6.365   1.616   3.126
 5413TIP3   OH216183   0.893   1.178   5.546
 5413TIP3    H116184   0.933   1.186   5.460
 5413TIP3    H216185   0.807   1.218   5.537
 5414TIP3   OH216186   5.920   7.288   0.244
 5414TIP3    H116187   5.842   7.267   0.193
 5414TIP3    H216188   5.907   7.242   0.327
 5415TIP3   OH216189   2.354   5.395   3.726
 5415TIP3    H116190   2.316   5.468   3.677
 5415TIP3    H216191   2.359   5.427   3.816
 5416TIP3   OH216192   0.264   5.955   2.731
 5416TIP3    H116193   0.322   5.926   2.801
 5416TIP3    H216194   0.315   5.945   2.651
 5417TIP3   OH216195   2.706   3.967   3.790
 5417TIP3    H116196   2.651   3.889   3.779
 5417TIP3    H216197   2.781   3.935   3.840
 5418TIP3   OH216198   3.043   7.274   5.455
 5418TIP3    H116199   3.010   7.188   5.481
 5418TIP3    H216200   2.969   7.317   5.411
 5419TIP3   OH216201   5.372   5.831   3.056
 5419TIP3    H116202   5.373   5.788   3.141
 5419TIP3    H216203   5.464   5.834   3.029
 5420TIP3   OH216204   7.676   7.757   1.158
 5420TIP3    H116205   7.612   7.826   1.143
 5420TIP3    H216206   7.631   7.694   1.215
 5421TIP3   OH216207   4.360   4.645   0.466
 5421TIP3    H116208   4.439   4.613   0.422
 5421TIP3    H216209   4.327   4.569   0.514
 5422TIP3   OH216210   3.308   6.098   5.046
 5422TIP3    H116211   3.216   6.102   5.073
 5422TIP3    H216212   3.323   6.181   5.000
 5423TIP3   OH216213   2.247   6.883   2.431
 5423TIP3    H116214   2.164   6.851   2.465
 5423TIP3    H216215   2.256   6.972   2.467
 5424TIP3   OH216216   1.396   4.391   1.383
 5424TIP3    H116217   1.446   4.374   1.463
 5424TIP3    H216218   1.337   4.463   1.407
 5425TIP3   OH216219   4.958   2.395   4.610
 5425TIP3    H116220   4.869   2.383   4.577
 5425TIP3    H216221   4.954   2.365   4.701
 5426TIP3   OH216222   8.151   7.596   0.467
 5426TIP3    H116223   8.216   7.550   0.414
 5426TIP3    H216224   8.067   7.556   0.444
 5427TIP3   OH216225   7.225   1.078   6.236
 5427TIP3    H116226   7.281   1.024   6.291
 5427TIP3    H216227   7.261   1.068   6.147
 5428TIP3   OH216228   0.230   2.280   6.386
 5428TIP3    H116229   0.229   2.223   6.462
 5428TIP3    H216230   0.171   2.352   6.409
 5429TIP3   OH216231   8.103   2.002   5.952
 5429TIP3    H116232   8.122   1.954   5.871
 5429TIP3    H216233   8.074   1.935   6.013
 5430TIP3   OH216234   3.310   5.953   6.426
 5430TIP3    H116235   3.237   5.893   6.415
 5430TIP3    H216236   3.381   5.899   6.462
 5431TIP3   OH216237   0.925   3.391   2.960
 5431TIP3    H116238   0.949   3.344   3.039
 5431TIP3    H216239   0.904   3.479   2.990
 5432TIP3   OH216240   5.333   0.671   5.766
 5432TIP3    H116241   5.416   0.635   5.737
 5432TIP3    H216242   5.279   0.595   5.786
 5433TIP3   OH216243   1.979   1.170   3.625
 5433TIP3    H116244   1.959   1.129   3.541
 5433TIP3    H216245   1.943   1.110   3.691
 5434TIP3   OH216246   0.399   4.894   0.359
 5434TIP3    H116247   0.435   4.917   0.273
 5434TIP3    H216248   0.469   4.845   0.402
 5435TIP3   OH216249   2.594   7.482   6.136
 5435TIP3    H116250   2.619   7.575   6.137
 5435TIP3    H216251   2.665   7.440   6.088
 5436TIP3   OH216252   2.631   1.040   1.791
 5436TIP3    H116253   2.582   1.098   1.849
 5436TIP3    H216254   2.579   1.038   1.710
 5437TIP3   OH216255   0.370   1.400   5.193
 5437TIP3    H116256   0.281   1.415   5.162
 5437TIP3    H216257   0.396   1.484   5.232
 5438TIP3   OH216258   8.048   4.536   2.306
 5438TIP3    H116259   7.988   4.461   2.298
 5438TIP3    H216260   7.991   4.612   2.306
 5439TIP3   OH216261   1.480   2.433   6.482
 5439TIP3    H116262   1.494   2.501   6.416
 5439TIP3    H216263   1.388   2.409   6.472
 5440TIP3   OH216264   0.606   3.261   4.699
 5440TIP3    H116265   0.541   3.206   4.742
 5440TIP3    H216266   0.632   3.211   4.621
 5441TIP3   OH216267   1.678   4.888   0.503
 5441TIP3    H116268   1.745   4.844   0.449
 5441TIP3    H216269   1.610   4.912   0.441
 5442TIP3   OH216270   3.115   4.660   2.761
 5442TIP3    H116271   3.120   4.640   2.668
 5442TIP3    H216272   3.204   4.685   2.785
 5443TIP3   OH216273   5.127   5.237   6.225
 5443TIP3    H116274   5.105   5.155   6.181
 5443TIP3    H216275   5.136   5.214   6.317
 5444TIP3   OH216276   3.772   0.209   6.723
 5444TIP3    H116277   3.702   0.169   6.671
 5444TIP3    H216278   3.729   0.235   6.804
 5445TIP3   OH216279   6.203   1.631   4.377
 5445TIP3    H116280   6.140   1.559   4.369
 5445TIP3    H216281   6.207   1.648   4.471
 5446TIP3   OH216282   2.109   7.714   6.472
 5446TIP3    H116283   2.090   7.778   6.403
 5446TIP3    H216284   2.203   7.725   6.490
 5447TIP3   OH216285   6.550   7.489   0.577
 5447TIP3    H116286   6.559   7.524   0.489
 5447TIP3    H216287   6.597   7.550   0.634
 5448TIP3   OH216288   6.256   4.008   5.395
 5448TIP3    H116289   6.300   3.924   5.408
 5448TIP3    H216290   6.279   4.059   5.472
 5449TIP3   OH216291   0.773   1.019   1.982
 5449TIP3    H116292   0.810   1.018   2.070
 5449TIP3    H216293   0.708   0.949   1.982
 5450TIP3   OH216294   5.140   6.716   6.216
 5450TIP3    H116295   5.055   6.725   6.173
 5450TIP3    H216296   5.173   6.806   6.222
 5451TIP3   OH216297   6.118   5.369   1.679
 5451TIP3    H116298   6.212   5.379   1.694
 5451TIP3    H216299   6.090   5.454   1.645
 5452TIP3   OH216300   7.493   5.214   3.407
 5452TIP3    H116301   7.578   5.213   3.363
 5452TIP3    H216302   7.438   5.272   3.354
 5453TIP3   OH216303   0.310   7.451   2.509
 5453TIP3    H116304   0.339   7.374   2.460
 5453TIP3    H216305   0.328   7.430   2.600
 5454TIP3   OH216306   6.085   3.797   5.021
 5454TIP3    H116307   6.148   3.835   4.959
 5454TIP3    H216308   6.048   3.872   5.067
 5455TIP3   OH216309   4.856   7.700   4.028
 5455TIP3    H116310   4.845   7.747   3.945
 5455TIP3    H216311   4.825   7.762   4.094
 5456TIP3   OH216312   2.251   6.092   1.758
 5456TIP3    H116313   2.171   6.142   1.745
 5456TIP3    H216314   2.284   6.122   1.843
 5457TIP3   OH216315   2.537   2.304   0.402
 5457TIP3    H116316   2.584   2.384   0.382
 5457TIP3    H216317   2.481   2.289   0.326
 5458TIP3   OH216318   7.476   4.789   1.395
 5458TIP3    H116319   7.477   4.883   1.378
 5458TIP3    H216320   7.393   4.773   1.440
 5459TIP3   OH216321   4.254   0.359   2.244
 5459TIP3    H116322   4.218   0.271   2.231
 5459TIP3    H216323   4.342   0.354   2.208
 5460TIP3   OH216324   5.941   3.138   4.047
 5460TIP3    H116325   5.919   3.047   4.070
 5460TIP3    H216326   6.008   3.163   4.110
 5461TIP3   OH216327   3.737   0.380   5.473
 5461TIP3    H116328   3.723   0.436   5.397
 5461TIP3    H216329   3.760   0.294   5.435
 5462TIP3   OH216330   2.647   4.465   0.874
 5462TIP3    H116331   2.731   4.431   0.842
 5462TIP3    H216332   2.606   4.504   0.797
 5463TIP3   OH216333   5.685   2.271   5.137
 5463TIP3    H116334   5.723   2.193   5.096
 5463TIP3    H216335   5.613   2.296   5.079
 5464TIP3   OH216336   1.268   6.879   6.497
 5464TIP3    H116337   1.180   6.905   6.528
 5464TIP3    H216338   1.251   6.809   6.435
 5465TIP3   OH216339   7.028   2.072   5.122
 5465TIP3    H116340   7.058   2.152   5.166
 5465TIP3    H216341   7.066   2.001   5.174
 5466TIP3   OH216342   5.761   2.318   1.543
 5466TIP3    H116343   5.749   2.277   1.629
 5466TIP3    H216344   5.845   2.364   1.550
 5467TIP3   OH216345   2.877   7.414   2.061
 5467TIP3    H116346   2.966   7.447   2.070
 5467TIP3    H216347   2.854   7.430   1.970
 5468TIP3   OH216348   6.663   1.401   3.758
 5468TIP3    H116349   6.630   1.462   3.824
 5468TIP3    H216350   6.755   1.425   3.747
 5469TIP3   OH216351   7.734   5.968   2.864
 5469TIP3    H116352   7.641   5.968   2.887
 5469TIP3    H216353   7.764   6.056   2.885
 5470TIP3   OH216354   4.536   7.749   3.592
 5470TIP3    H116355   4.606   7.703   3.546
 5470TIP3    H216356   4.504   7.686   3.657
 5471TIP3   OH216357   5.219   6.721   5.183
 5471TIP3    H116358   5.130   6.705   5.151
 5471TIP3    H216359   5.208   6.779   5.259
 5472TIP3   OH216360   6.687   4.951   1.757
 5472TIP3    H116361   6.776   4.919   1.773
 5472TIP3    H216362   6.630   4.885   1.795
 5473TIP3   OH216363   6.797   3.855   6.470
 5473TIP3    H116364   6.773   3.939   6.508
 5473TIP3    H216365   6.714   3.819   6.438
 5474TIP3   OH216366   0.383   5.810   1.287
 5474TIP3    H116367   0.368   5.846   1.199
 5474TIP3    H216368   0.452   5.745   1.275
 5475TIP3   OH216369   3.044   5.395   1.375
 5475TIP3    H116370   3.102   5.319   1.371
 5475TIP3    H216371   2.988   5.387   1.298
 5476TIP3   OH216372   2.508   0.086   2.614
 5476TIP3    H116373   2.432   0.141   2.633
 5476TIP3    H216374   2.471   0.000   2.594
 5477TIP3   OH216375   7.602   3.738   0.901
 5477TIP3    H116376   7.621   3.807   0.836
 5477TIP3    H216377   7.626   3.657   0.857
 5478TIP3   OH216378   0.740   6.529   5.971
 5478TIP3    H116379   0.795   6.521   6.049
 5478TIP3    H216380   0.653   6.504   6.000
 5479TIP3   OH216381   3.360   3.795   3.528
 5479TIP3    H116382   3.446   3.807   3.568
 5479TIP3    H216383   3.323   3.718   3.572
 5480TIP3   OH216384   3.858   4.418   6.520
 5480TIP3    H116385   3.946   4.401   6.553
 5480TIP3    H216386   3.806   4.435   6.598
 5481TIP3   OH216387   4.580   3.760   3.577
 5481TIP3    H116388   4.501   3.729   3.620
 5481TIP3    H216389   4.645   3.766   3.647
 5482TIP3   OH216390   0.985   3.734   3.748
 5482TIP3    H116391   1.051   3.665   3.754
 5482TIP3    H216392   0.975   3.765   3.838
 5483TIP3   OH216393   7.335   4.009   5.413
 5483TIP3    H116394   7.348   4.103   5.420
 5483TIP3    H216395   7.385   3.983   5.336
 5484TIP3   OH216396   4.276   3.707   3.399
 5484TIP3    H116397   4.206   3.730   3.461
 5484TIP3    H216398   4.241   3.631   3.352
 5485TIP3   OH216399   5.183   3.340   3.445
 5485TIP3    H116400   5.141   3.416   3.485
 5485TIP3    H216401   5.196   3.365   3.354
 5486TIP3   OH216402   8.182   2.759   6.687
 5486TIP3    H116403   8.105   2.816   6.686
 5486TIP3    H216404   8.237   2.793   6.616
 5487TIP3   OH216405   2.305   4.843   0.906
 5487TIP3    H116406   2.392   4.880   0.889
 5487TIP3    H216407   2.302   4.764   0.851
 5488TIP3   OH216408   7.224   0.234   3.208
 5488TIP3    H116409   7.182   0.274   3.285
 5488TIP3    H216410   7.265   0.155   3.242
 5489TIP3   OH216411   0.263   4.455   6.454
 5489TIP3    H116412   0.314   4.376   6.440
 5489TIP3    H216413   0.186   4.445   6.399
 5490TIP3   OH216414   4.157   5.936   0.933
 5490TIP3    H116415   4.193   5.860   0.887
 5490TIP3    H216416   4.208   6.010   0.900
 5491TIP3   OH216417   7.976   5.625   1.786
 5491TIP3    H116418   8.038   5.591   1.849
 5491TIP3    H216419   7.951   5.711   1.819
 5492TIP3   OH216420   1.858   7.772   3.694
 5492TIP3    H116421   1.915   7.715   3.744
 5492TIP3    H216422   1.782   7.785   3.750
 5493TIP3   OH216423   4.766   0.420   4.035
 5493TIP3    H116424   4.724   0.338   4.062
 5493TIP3    H216425   4.726   0.487   4.090
 5494TIP3   OH216426   3.196   7.608   6.064
 5494TIP3    H116427   3.223   7.532   6.014
 5494TIP3    H216428   3.131   7.652   6.009
 5495TIP3   OH216429   7.603   7.418   5.292
 5495TIP3    H116430   7.512   7.396   5.310
 5495TIP3    H216431   7.653   7.340   5.317
 5496TIP3   OH216432   5.348   5.927   5.764
 5496TIP3    H116433   5.341   6.022   5.768
 5496TIP3    H216434   5.394   5.903   5.845
 5497TIP3   OH216435   1.444   1.506   1.638
 5497TIP3    H116436   1.430   1.474   1.549
 5497TIP3    H216437   1.365   1.556   1.658
 5498TIP3   OH216438   5.048   3.079   4.262
 5498TIP3    H116439   4.979   3.059   4.325
 5498TIP3    H216440   5.125   3.098   4.316
 5499TIP3   OH216441   2.658   4.320   3.424
 5499TIP3    H116442   2.579   4.315   3.478
 5499TIP3    H216443   2.675   4.413   3.415
 5500TIP3   OH216444   0.409   7.341   2.258
 5500TIP3    H116445   0.486   7.373   2.304
 5500TIP3    H216446   0.439   7.261   2.215
 5501TIP3   OH216447   8.133   3.869   2.681
 5501TIP3    H116448   8.089   3.915   2.610
 5501TIP3    H216449   8.190   3.806   2.638
 5502TIP3   OH216450   7.390   2.774   4.092
 5502TIP3    H116451   7.428   2.862   4.102
 5502TIP3    H216452   7.295   2.788   4.097
 5503TIP3   OH216453   2.832   3.650   0.093
 5503TIP3    H116454   2.772   3.575   0.098
 5503TIP3    H216455   2.877   3.651   0.177
 5504TIP3   OH216456   5.377   5.129   4.848
 5504TIP3    H116457   5.299   5.136   4.792
 5504TIP3    H216458   5.363   5.194   4.916
 5505TIP3   OH216459   1.875   6.319   0.281
 5505TIP3    H116460   1.887   6.412   0.262
 5505TIP3    H216461   1.906   6.308   0.371
 5506TIP3   OH216462   3.770   0.763   0.932
 5506TIP3    H116463   3.736   0.841   0.889
 5506TIP3    H216464   3.807   0.710   0.861
 5507TIP3   OH216465   8.075   5.320   0.176
 5507TIP3    H116466   8.086   5.234   0.217
 5507TIP3    H216467   8.147   5.372   0.211
 5508TIP3   OH216468   7.511   5.035   5.093
 5508TIP3    H116469   7.584   4.984   5.057
 5508TIP3    H216470   7.459   5.058   5.016
 5509TIP3   OH216471   1.700   2.141   4.331
 5509TIP3    H116472   1.698   2.237   4.325
 5509TIP3    H216473   1.785   2.121   4.369
 5510TIP3   OH216474   7.286   5.147   2.262
 5510TIP3    H116475   7.259   5.056   2.275
 5510TIP3    H216476   7.205   5.197   2.272
 5511TIP3   OH216477   7.465   6.688   0.295
 5511TIP3    H116478   7.510   6.627   0.237
 5511TIP3    H216479   7.504   6.672   0.381
 5512TIP3   OH216480   3.133   0.754   5.575
 5512TIP3    H116481   3.069   0.703   5.526
 5512TIP3    H216482   3.080   0.808   5.634
 5513TIP3   OH216483   2.508   2.397   1.540
 5513TIP3    H116484   2.593   2.373   1.506
 5513TIP3    H216485   2.458   2.425   1.463
 5514TIP3   OH216486   7.518   6.516   5.406
 5514TIP3    H116487   7.564   6.514   5.490
 5514TIP3    H216488   7.582   6.488   5.342
 5515TIP3   OH216489   5.613   1.114   2.013
 5515TIP3    H116490   5.541   1.162   2.054
 5515TIP3    H216491   5.690   1.167   2.030
 5516TIP3   OH216492   6.480   6.417   0.107
 5516TIP3    H116493   6.508   6.488   0.164
 5516TIP3    H216494   6.559   6.364   0.096
 5517TIP3   OH216495   5.898   4.364   1.744
 5517TIP3    H116496   5.961   4.353   1.673
 5517TIP3    H216497   5.847   4.282   1.742
 5518TIP3   OH216498   7.088   3.594   5.829
 5518TIP3    H116499   7.011   3.554   5.869
 5518TIP3    H216500   7.053   3.664   5.774
 5519TIP3   OH216501   1.064   3.613   0.766
 5519TIP3    H116502   0.984   3.573   0.800
 5519TIP3    H216503   1.043   3.635   0.675
 5520TIP3   OH216504   7.430   5.662   6.134
 5520TIP3    H116505   7.428   5.745   6.087
 5520TIP3    H216506   7.383   5.601   6.078
 5521TIP3   OH216507   5.718   3.934   4.440
 5521TIP3    H116508   5.690   3.880   4.515
 5521TIP3    H216509   5.768   3.874   4.385
 5522TIP3   OH216510   7.691   0.552   0.973
 5522TIP3    H116511   7.722   0.564   1.062
 5522TIP3    H216512   7.722   0.464   0.949
 5523TIP3   OH216513   0.996   6.720   0.512
 5523TIP3    H116514   0.936   6.750   0.443
 5523TIP3    H216515   1.056   6.660   0.468
 5524TIP3   OH216516   0.987   3.263   1.077
 5524TIP3    H116517   1.064   3.319   1.068
 5524TIP3    H216518   1.017   3.191   1.134
 5525TIP3   OH216519   8.292   5.089   2.214
 5525TIP3    H116520   8.211   5.052   2.247
 5525TIP3    H216521   8.306   5.045   2.130
 5526TIP3   OH216522   5.675   5.534   6.548
 5526TIP3    H116523   5.708   5.619   6.518
 5526TIP3    H216524   5.741   5.471   6.521
 5527TIP3   OH216525   0.176   2.761   2.449
 5527TIP3    H116526   0.265   2.751   2.414
 5527TIP3    H216527   0.127   2.689   2.408
 5528TIP3   OH216528   1.950   6.752   6.271
 5528TIP3    H116529   2.024   6.755   6.331
 5528TIP3    H216530   1.885   6.809   6.311
 5529TIP3   OH216531   8.196   1.753   1.948
 5529TIP3    H116532   8.150   1.789   1.872
 5529TIP3    H216533   8.205   1.660   1.929
 5530TIP3   OH216534   2.257   4.312   2.441
 5530TIP3    H116535   2.319   4.370   2.398
 5530TIP3    H216536   2.191   4.370   2.480
 5531TIP3   OH216537   0.619   1.076   5.190
 5531TIP3    H116538   0.637   1.124   5.271
 5531TIP3    H216539   0.579   1.141   5.132
 5532TIP3   OH216540   2.865   3.647   1.680
 5532TIP3    H116541   2.922   3.571   1.685
 5532TIP3    H216542   2.910   3.715   1.730
 5533TIP3   OH216543   2.519   5.596   3.333
 5533TIP3    H116544   2.614   5.612   3.331
 5533TIP3    H216545   2.483   5.678   3.366
 5534TIP3   OH216546   5.754   6.857   5.212
 5534TIP3    H116547   5.801   6.827   5.134
 5534TIP3    H216548   5.665   6.825   5.200
 5535TIP3   OH216549   6.577   5.719   1.963
 5535TIP3    H116550   6.668   5.689   1.957
 5535TIP3    H216551   6.581   5.797   2.017
 5536TIP3   OH216552   4.373   0.222   5.173
 5536TIP3    H116553   4.326   0.244   5.093
 5536TIP3    H216554   4.443   0.287   5.179
 5537TIP3   OH216555   6.762   6.303   0.802
 5537TIP3    H116556   6.841   6.261   0.768
 5537TIP3    H216557   6.695   6.283   0.736
 5538TIP3   OH216558   6.850   7.278   4.077
 5538TIP3    H116559   6.932   7.287   4.125
 5538TIP3    H216560   6.811   7.366   4.080
 5539TIP3   OH216561   2.642   5.757   3.598
 5539TIP3    H116562   2.693   5.821   3.647
 5539TIP3    H216563   2.639   5.680   3.655
 5540TIP3   OH216564   0.186   1.855   2.839
 5540TIP3    H116565   0.221   1.771   2.869
 5540TIP3    H216566   0.160   1.840   2.749
 5541TIP3   OH216567   7.028   0.913   2.366
 5541TIP3    H116568   7.059   0.912   2.456
 5541TIP3    H216569   6.978   0.994   2.358
 5542TIP3   OH216570   1.037   0.411   4.769
 5542TIP3    H116571   1.105   0.364   4.817
 5542TIP3    H216572   0.985   0.455   4.837
 5543TIP3   OH216573   1.643   2.615   5.458
 5543TIP3    H116574   1.624   2.648   5.546
 5543TIP3    H216575   1.590   2.536   5.450
 5544TIP3   OH216576   1.199   2.645   5.829
 5544TIP3    H116577   1.188   2.606   5.742
 5544TIP3    H216578   1.123   2.702   5.839
 5545TIP3   OH216579   0.358   5.912   1.543
 5545TIP3    H116580   0.387   5.947   1.458
 5545TIP3    H216581   0.371   5.818   1.536
 5546TIP3   OH216582   1.949   6.983   5.141
 5546TIP3    H116583   1.993   6.953   5.221
 5546TIP3    H216584   1.935   6.904   5.090
 5547TIP3   OH216585   4.888   6.307   5.614
 5547TIP3    H116586   4.796   6.304   5.638
 5547TIP3    H216587   4.933   6.254   5.680
 5548TIP3   OH216588   0.888   2.869   2.309
 5548TIP3    H116589   0.861   2.846   2.397
 5548TIP3    H216590   0.821   2.832   2.252
 5549TIP3   OH216591   3.337   2.511   6.109
 5549TIP3    H116592   3.364   2.490   6.020
 5549TIP3    H216593   3.299   2.429   6.142
 5550TIP3   OH216594   7.225   5.451   3.954
 5550TIP3    H116595   7.144   5.441   4.004
 5550TIP3    H216596   7.289   5.396   4.000
 5551TIP3   OH216597   3.089   5.108   6.480
 5551TIP3    H116598   3.157   5.133   6.543
 5551TIP3    H216599   3.047   5.190   6.456
 5552TIP3   OH216600   8.016   1.814   5.029
 5552TIP3    H116601   8.074   1.825   5.105
 5552TIP3    H216602   7.928   1.829   5.064
 5553TIP3   OH216603   7.288   1.307   0.391
 5553TIP3    H116604   7.273   1.220   0.427
 5553TIP3    H216605   7.216   1.320   0.330
 5554TIP3   OH216606   2.190   7.839   2.004
 5554TIP3    H116607   2.276   7.837   2.047
 5554TIP3    H216608   2.150   7.755   2.027
 5555TIP3   OH216609   4.868   0.608   2.518
 5555TIP3    H116610   4.950   0.560   2.530
 5555TIP3    H216611   4.847   0.598   2.426
 5556TIP3   OH216612   4.507   7.248   0.617
 5556TIP3    H116613   4.475   7.241   0.706
 5556TIP3    H216614   4.490   7.339   0.592
 5557TIP3   OH216615   7.858   5.069   0.166
 5557TIP3    H116616   7.804   5.040   0.092
 5557TIP3    H216617   7.850   5.164   0.166
 5558TIP3   OH216618   5.519   5.486   6.308
 5558TIP3    H116619   5.444   5.543   6.325
 5558TIP3    H216620   5.576   5.497   6.385
 5559TIP3   OH216621   0.674   0.649   2.402
 5559TIP3    H116622   0.710   0.703   2.332
 5559TIP3    H216623   0.718   0.565   2.393
 5560TIP3   OH216624   5.205   3.681   4.113
 5560TIP3    H116625   5.142   3.614   4.141
 5560TIP3    H216626   5.223   3.732   4.192
 5561TIP3   OH216627   4.634   3.297   1.307
 5561TIP3    H116628   4.644   3.343   1.390
 5561TIP3    H216629   4.620   3.367   1.243
 5562TIP3   OH216630   1.937   5.477   1.424
 5562TIP3    H116631   1.935   5.435   1.338
 5562TIP3    H216632   1.993   5.421   1.477
 5563TIP3   OH216633   8.213   3.921   3.881
 5563TIP3    H116634   8.290   3.876   3.846
 5563TIP3    H216635   8.141   3.895   3.823
 5564TIP3   OH216636   2.454   2.744   0.084
 5564TIP3    H116637   2.448   2.652   0.061
 5564TIP3    H216638   2.460   2.745   0.180
 5565TIP3   OH216639   2.945   0.290   1.847
 5565TIP3    H116640   2.897   0.226   1.794
 5565TIP3    H216641   3.036   0.283   1.817
 5566TIP3   OH216642   0.104   0.211   0.901
 5566TIP3    H116643   0.163   0.283   0.922
 5566TIP3    H216644   0.133   0.139   0.957
 5567TIP3   OH216645   4.488   5.502   4.085
 5567TIP3    H116646   4.499   5.556   4.008
 5567TIP3    H216647   4.575   5.499   4.125
 5568TIP3   OH216648   4.083   3.160   0.774
 5568TIP3    H116649   4.006   3.185   0.824
 5568TIP3    H216650   4.063   3.073   0.740
 5569TIP3   OH216651   0.185   6.588   2.444
 5569TIP3    H116652   0.279   6.582   2.427
 5569TIP3    H216653   0.172   6.541   2.527
 5570TIP3   OH216654   1.785   6.206   5.715
 5570TIP3    H116655   1.853   6.198   5.782
 5570TIP3    H216656   1.707   6.234   5.761
 5571TIP3   OH216657   6.055   3.222   4.454
 5571TIP3    H116658   6.097   3.136   4.454
 5571TIP3    H216659   6.017   3.230   4.541
 5572TIP3   OH216660   2.139   1.197   2.733
 5572TIP3    H116661   2.106   1.115   2.695
 5572TIP3    H216662   2.231   1.179   2.752
 5573TIP3   OH216663   1.241   7.332   5.472
 5573TIP3    H116664   1.288   7.274   5.412
 5573TIP3    H216665   1.282   7.417   5.459
 5574TIP3   OH216666   5.038   1.167   2.176
 5574TIP3    H116667   5.116   1.156   2.123
 5574TIP3    H216668   5.042   1.095   2.240
 5575TIP3   OH216669   4.803   3.391   5.164
 5575TIP3    H116670   4.785   3.422   5.075
 5575TIP3    H216671   4.898   3.401   5.174
 5576TIP3   OH216672   4.119   7.434   1.346
 5576TIP3    H116673   4.076   7.418   1.262
 5576TIP3    H216674   4.205   7.470   1.322
 5577TIP3   OH216675   1.444   2.072   3.732
 5577TIP3    H116676   1.395   2.007   3.682
 5577TIP3    H216677   1.435   2.153   3.682
 5578TIP3   OH216678   2.628   3.302   1.208
 5578TIP3    H116679   2.655   3.327   1.296
 5578TIP3    H216680   2.658   3.212   1.198
 5579TIP3   OH216681   4.942   0.926   5.985
 5579TIP3    H116682   5.004   0.909   5.915
 5579TIP3    H216683   4.856   0.905   5.947
 5580TIP3   OH216684   5.628   4.455   3.613
 5580TIP3    H116685   5.613   4.392   3.542
 5580TIP3    H216686   5.723   4.467   3.613
 5581TIP3   OH216687   6.753   6.113   5.140
 5581TIP3    H116688   6.706   6.087   5.060
 5581TIP3    H216689   6.721   6.202   5.159
 5582TIP3   OH216690   4.015   2.417   0.514
 5582TIP3    H116691   3.928   2.423   0.552
 5582TIP3    H216692   4.010   2.471   0.434
 5583TIP3   OH216693   4.434   3.369   0.894
 5583TIP3    H116694   4.516   3.419   0.896
 5583TIP3    H216695   4.398   3.387   0.807
 5584TIP3   OH216696   5.913   3.592   1.053
 5584TIP3    H116697   5.926   3.508   1.008
 5584TIP3    H216698   5.910   3.656   0.982
 5585TIP3   OH216699   4.585   2.634   5.789
 5585TIP3    H116700   4.507   2.601   5.834
 5585TIP3    H216701   4.653   2.636   5.855
 5586TIP3   OH216702   6.140   1.303   3.756
 5586TIP3    H116703   6.179   1.389   3.740
 5586TIP3    H216704   6.047   1.315   3.741
 5587TIP3   OH216705   6.292   1.596   4.903
 5587TIP3    H116706   6.335   1.630   4.981
 5587TIP3    H216707   6.199   1.602   4.923
 5588TIP3   OH216708   0.490   2.651   2.412
 5588TIP3    H116709   0.472   2.652   2.318
 5588TIP3    H216710   0.535   2.735   2.428
 5589TIP3   OH216711   6.382   1.990   2.133
 5589TIP3    H116712   6.415   1.949   2.053
 5589TIP3    H216713   6.461   2.024   2.176
 5590TIP3   OH216714   5.767   0.520   4.849
 5590TIP3    H116715   5.712   0.496   4.775
 5590TIP3    H216716   5.753   0.451   4.913
 5591TIP3   OH216717   6.127   4.000   3.158
 5591TIP3    H116718   6.062   4.013   3.227
 5591TIP3    H216719   6.146   3.907   3.159
 5592TIP3   OH216720   6.001   4.014   6.541
 5592TIP3    H116721   6.020   3.973   6.626
 5592TIP3    H216722   6.041   3.955   6.477
 5593TIP3   OH216723   2.709   2.168   2.479
 5593TIP3    H116724   2.700   2.206   2.392
 5593TIP3    H216725   2.802   2.181   2.501
 5594TIP3   OH216726   7.885   3.647   2.182
 5594TIP3    H116727   7.794   3.649   2.152
 5594TIP3    H216728   7.935   3.679   2.107
 5595TIP3   OH216729   3.911   0.765   1.684
 5595TIP3    H116730   3.832   0.800   1.726
 5595TIP3    H216731   3.883   0.744   1.595
 5596TIP3   OH216732   1.464   6.777   3.345
 5596TIP3    H116733   1.484   6.849   3.405
 5596TIP3    H216734   1.370   6.761   3.358
 5597TIP3   OH216735   0.675   1.258   4.288
 5597TIP3    H116736   0.656   1.344   4.324
 5597TIP3    H216737   0.590   1.226   4.256
 5598TIP3   OH216738   2.546   6.572   2.412
 5598TIP3    H116739   2.607   6.498   2.420
 5598TIP3    H216740   2.467   6.533   2.375
 5599TIP3   OH216741   0.642   6.345   5.375
 5599TIP3    H116742   0.661   6.373   5.464
 5599TIP3    H216743   0.549   6.323   5.376
 5600TIP3   OH216744   2.601   6.447   3.926
 5600TIP3    H116745   2.656   6.406   3.992
 5600TIP3    H216746   2.632   6.411   3.843
 5601TIP3   OH216747   2.614   5.738   0.389
 5601TIP3    H116748   2.541   5.767   0.336
 5601TIP3    H216749   2.601   5.782   0.474
 5602TIP3   OH216750   1.024   3.537   4.054
 5602TIP3    H116751   1.115   3.556   4.079
 5602TIP3    H216752   0.994   3.617   4.012
 5603TIP3   OH216753   3.771   0.062   1.137
 5603TIP3    H116754   3.764   0.125   1.209
 5603TIP3    H216755   3.850   0.087   1.089
 5604TIP3   OH216756   2.980   5.337   4.220
 5604TIP3    H116757   2.995   5.272   4.152
 5604TIP3    H216758   2.981   5.421   4.175
 5605TIP3   OH216759   0.257   0.786   1.394
 5605TIP3    H116760   0.266   0.816   1.303
 5605TIP3    H216761   0.180   0.729   1.393
 5606TIP3   OH216762   4.953   5.402   6.436
 5606TIP3    H116763   5.016   5.357   6.493
 5606TIP3    H216764   4.938   5.486   6.480
 5607TIP3   OH216765   2.895   7.333   1.408
 5607TIP3    H116766   2.844   7.256   1.381
 5607TIP3    H216767   2.943   7.358   1.329
 5608TIP3   OH216768   2.457   0.374   4.787
 5608TIP3    H116769   2.409   0.407   4.862
 5608TIP3    H216770   2.414   0.415   4.711
 5609TIP3   OH216771   5.351   5.037   0.591
 5609TIP3    H116772   5.414   4.970   0.562
 5609TIP3    H216773   5.373   5.114   0.539
 5610TIP3   OH216774   5.713   1.984   5.416
 5610TIP3    H116775   5.640   1.985   5.478
 5610TIP3    H216776   5.737   2.076   5.405
 5611TIP3   OH216777   1.669   2.827   3.986
 5611TIP3    H116778   1.642   2.750   3.936
 5611TIP3    H216779   1.754   2.804   4.022
 5612TIP3   OH216780   6.544   1.996   5.446
 5612TIP3    H116781   6.517   2.082   5.478
 5612TIP3    H216782   6.578   2.011   5.358
 5613TIP3   OH216783   0.682   4.439   5.489
 5613TIP3    H116784   0.749   4.448   5.557
 5613TIP3    H216785   0.599   4.435   5.537
 5614TIP3   OH216786   1.333   1.647   0.413
 5614TIP3    H116787   1.328   1.573   0.353
 5614TIP3    H216788   1.280   1.620   0.488
 5615TIP3   OH216789   4.661   6.199   6.600
 5615TIP3    H116790   4.724   6.268   6.623
 5615TIP3    H216791   4.597   6.202   6.671
 5616TIP3   OH216792   7.093   7.255   3.385
 5616TIP3    H116793   7.132   7.175   3.349
 5616TIP3    H216794   7.092   7.240   3.480
 5617TIP3   OH216795   4.523   5.608   0.809
 5617TIP3    H116796   4.433   5.640   0.797
 5617TIP3    H216797   4.519   5.516   0.784
 5618TIP3   OH216798   0.191   5.466   5.612
 5618TIP3    H116799   0.273   5.507   5.640
 5618TIP3    H216800   0.209   5.438   5.522
 5619TIP3   OH216801   0.085   5.763   5.516
 5619TIP3    H116802   0.158   5.739   5.574
 5619TIP3    H216803   0.016   5.700   5.537
 5620TIP3   OH216804   0.826   1.088   4.131
 5620TIP3    H116805   0.803   1.159   4.193
 5620TIP3    H216806   0.911   1.057   4.161
 5621TIP3   OH216807   5.040   6.155   4.353
 5621TIP3    H116808   5.029   6.249   4.339
 5621TIP3    H216809   4.965   6.115   4.309
 5622TIP3   OH216810   3.854   2.635   1.957
 5622TIP3    H116811   3.939   2.595   1.973
 5622TIP3    H216812   3.834   2.614   1.866
 5623TIP3   OH216813   5.712   1.238   6.364
 5623TIP3    H116814   5.694   1.328   6.335
 5623TIP3    H216815   5.697   1.240   6.458
 5624TIP3   OH216816   3.352   0.389   4.916
 5624TIP3    H116817   3.323   0.444   4.988
 5624TIP3    H216818   3.387   0.450   4.851
 5625TIP3   OH216819   4.553   1.991   0.404
 5625TIP3    H116820   4.590   1.908   0.432
 5625TIP3    H216821   4.468   1.996   0.448
 5626TIP3   OH216822   4.276   5.092   3.918
 5626TIP3    H116823   4.347   5.038   3.882
 5626TIP3    H216824   4.235   5.037   3.985
 5627TIP3   OH216825   3.316   4.179   4.447
 5627TIP3    H116826   3.226   4.182   4.413
 5627TIP3    H216827   3.322   4.257   4.503
 5628TIP3   OH216828   4.636   4.008   0.690
 5628TIP3    H116829   4.604   3.963   0.612
 5628TIP3    H216830   4.641   3.939   0.757
 5629TIP3   OH216831   0.046   2.061   1.046
 5629TIP3    H116832   0.017   2.038   0.957
 5629TIP3    H216833  -0.014   2.013   1.104
 5630TIP3   OH216834   4.028   1.253   0.745
 5630TIP3    H116835   4.045   1.164   0.714
 5630TIP3    H216836   3.998   1.242   0.835
 5631TIP3   OH216837   0.685   5.709   3.705
 5631TIP3    H116838   0.778   5.714   3.682
 5631TIP3    H216839   0.649   5.641   3.647
 5632TIP3   OH216840   5.977   5.501   5.472
 5632TIP3    H116841   5.926   5.442   5.416
 5632TIP3    H216842   6.026   5.443   5.529
 5633TIP3   OH216843   6.611   0.025   3.476
 5633TIP3    H116844   6.673   0.038   3.547
 5633TIP3    H216845   6.591   0.113   3.444
 5634TIP3   OH216846   4.529   5.776   4.571
 5634TIP3    H116847   4.571   5.848   4.524
 5634TIP3    H216848   4.508   5.813   4.657
 5635TIP3   OH216849   0.651   2.231   5.773
 5635TIP3    H116850   0.642   2.227   5.868
 5635TIP3    H216851   0.630   2.321   5.750
 5636TIP3   OH216852   7.772   3.172   3.786
 5636TIP3    H116853   7.797   3.138   3.700
 5636TIP3    H216854   7.767   3.094   3.842
 5637TIP3   OH216855   7.668   3.359   2.902
 5637TIP3    H116856   7.660   3.451   2.924
 5637TIP3    H216857   7.581   3.333   2.871
 5638TIP3   OH216858   5.097   4.352   4.987
 5638TIP3    H116859   5.162   4.340   5.056
 5638TIP3    H216860   5.082   4.447   4.985
 5639TIP3   OH216861   8.045   0.331   3.063
 5639TIP3    H116862   8.017   0.242   3.042
 5639TIP3    H216863   8.048   0.376   2.978
 5640TIP3   OH216864   1.708   2.796   6.161
 5640TIP3    H116865   1.759   2.877   6.165
 5640TIP3    H216866   1.696   2.779   6.068
 5641TIP3   OH216867   0.485   5.490   4.991
 5641TIP3    H116868   0.568   5.486   5.039
 5641TIP3    H216869   0.478   5.404   4.948
 5642TIP3   OH216870   6.888   6.883   6.813
 5642TIP3    H116871   6.807   6.905   6.768
 5642TIP3    H216872   6.927   6.813   6.761
 5643TIP3   OH216873   3.489   4.064   0.890
 5643TIP3    H116874   3.447   3.978   0.895
 5643TIP3    H216875   3.500   4.089   0.982
 5644TIP3   OH216876   3.027   6.303   0.491
 5644TIP3    H116877   2.951   6.293   0.434
 5644TIP3    H216878   3.059   6.391   0.473
 5645TIP3   OH216879   3.515   7.729   2.668
 5645TIP3    H116880   3.555   7.786   2.602
 5645TIP3    H216881   3.423   7.722   2.643
 5646TIP3   OH216882   6.952   1.671   5.571
 5646TIP3    H116883   6.875   1.728   5.566
 5646TIP3    H216884   7.000   1.690   5.490
 5647TIP3   OH216885   6.923   1.733   3.066
 5647TIP3    H116886   6.992   1.740   3.000
 5647TIP3    H216887   6.887   1.822   3.074
 5648TIP3   OH216888   2.811   2.248   4.434
 5648TIP3    H116889   2.874   2.310   4.396
 5648TIP3    H216890   2.726   2.291   4.425
 5649TIP3   OH216891   3.788   2.055   6.091
 5649TIP3    H116892   3.694   2.064   6.076
 5649TIP3    H216893   3.808   2.120   6.159
 5650TIP3   OH216894   2.060   6.925   4.039
 5650TIP3    H116895   2.052   7.020   4.052
 5650TIP3    H216896   2.154   6.910   4.034
 5651TIP3   OH216897   2.898   0.152   3.015
 5651TIP3    H116898   2.814   0.118   3.045
 5651TIP3    H216899   2.962   0.087   3.045
 5652TIP3   OH216900   6.323   1.850   2.392
 5652TIP3    H116901   6.325   1.855   2.297
 5652TIP3    H216902   6.415   1.859   2.419
 5653TIP3   OH216903   7.355   0.495   2.170
 5653TIP3    H116904   7.343   0.414   2.219
 5653TIP3    H216905   7.276   0.504   2.117
 5654TIP3   OH216906   1.675   5.877   4.693
 5654TIP3    H116907   1.679   5.809   4.625
 5654TIP3    H216908   1.657   5.829   4.774
 5655TIP3   OH216909   1.415   1.956   3.382
 5655TIP3    H116910   1.371   2.032   3.420
 5655TIP3    H216911   1.485   1.993   3.328
 5656TIP3   OH216912   0.384   5.747   2.506
 5656TIP3    H116913   0.353   5.688   2.575
 5656TIP3    H216914   0.304   5.781   2.467
 5657TIP3   OH216915   4.200   2.338   1.164
 5657TIP3    H116916   4.232   2.248   1.167
 5657TIP3    H216917   4.219   2.367   1.074
 5658TIP3   OH216918   0.612   1.925   4.402
 5658TIP3    H116919   0.599   2.020   4.413
 5658TIP3    H216920   0.529   1.893   4.366
 5659TIP3   OH216921   8.067   3.586   2.781
 5659TIP3    H116922   8.057   3.659   2.719
 5659TIP3    H216923   8.127   3.620   2.848
 5660TIP3   OH216924   7.868   5.055   5.196
 5660TIP3    H116925   7.834   5.028   5.111
 5660TIP3    H216926   7.961   5.033   5.193
 5661TIP3   OH216927   1.319   3.893   3.856
 5661TIP3    H116928   1.291   3.826   3.793
 5661TIP3    H216929   1.409   3.914   3.830
 5662TIP3   OH216930   4.935   5.954   2.010
 5662TIP3    H116931   5.007   5.937   1.948
 5662TIP3    H216932   4.889   6.029   1.972
 5663TIP3   OH216933   3.699   6.433   1.353
 5663TIP3    H116934   3.784   6.459   1.316
 5663TIP3    H216935   3.635   6.457   1.285
 5664TIP3   OH216936   0.704   6.662   4.352
 5664TIP3    H116937   0.648   6.648   4.428
 5664TIP3    H216938   0.689   6.754   4.327
 5665TIP3   OH216939   8.174   3.373   6.569
 5665TIP3    H116940   8.136   3.329   6.493
 5665TIP3    H216941   8.163   3.310   6.641
 5666TIP3   OH216942   8.271   1.027   4.075
 5666TIP3    H116943   8.199   1.019   4.011
 5666TIP3    H216944   8.332   1.088   4.034
 5667TIP3   OH216945   4.534   2.923   6.728
 5667TIP3    H116946   4.473   2.858   6.763
 5667TIP3    H216947   4.606   2.872   6.692
 5668TIP3   OH216948   7.437   7.663   3.279
 5668TIP3    H116949   7.494   7.591   3.305
 5668TIP3    H216950   7.487   7.742   3.296
 5669TIP3   OH216951   8.305   6.268   2.050
 5669TIP3    H116952   8.269   6.291   2.136
 5669TIP3    H216953   8.246   6.201   2.016
 5670TIP3   OH216954   2.309   6.022   0.019
 5670TIP3    H116955   2.274   5.933   0.019
 5670TIP3    H216956   2.231   6.077   0.025
 5671TIP3   OH216957   7.609   6.511   5.677
 5671TIP3    H116958   7.576   6.452   5.744
 5671TIP3    H216959   7.595   6.598   5.713
 5672TIP3   OH216960   3.946   3.394   3.866
 5672TIP3    H116961   3.897   3.348   3.934
 5672TIP3    H216962   3.900   3.372   3.785
 5673TIP3   OH216963   7.495   5.258   3.968
 5673TIP3    H116964   7.562   5.241   4.034
 5673TIP3    H216965   7.525   5.210   3.891
 5674TIP3   OH216966   6.016   1.658   1.550
 5674TIP3    H116967   5.944   1.720   1.543
 5674TIP3    H216968   6.027   1.643   1.644
 5675TIP3   OH216969   4.932   4.516   1.195
 5675TIP3    H116970   4.849   4.560   1.177
 5675TIP3    H216971   4.928   4.435   1.144
 5676TIP3   OH216972   5.490   2.234   5.854
 5676TIP3    H116973   5.505   2.304   5.790
 5676TIP3    H216974   5.400   2.207   5.839
 5677TIP3   OH216975   5.225   3.085   1.359
 5677TIP3    H116976   5.198   3.068   1.449
 5677TIP3    H216977   5.313   3.122   1.367
 5678TIP3   OH216978   7.396   1.713   3.365
 5678TIP3    H116979   7.371   1.804   3.348
 5678TIP3    H216980   7.391   1.670   3.280
 5679TIP3   OH216981   6.379   0.555   2.598
 5679TIP3    H116982   6.303   0.567   2.540
 5679TIP3    H216983   6.437   0.628   2.575
 5680TIP3   OH216984   5.186   3.386   3.163
 5680TIP3    H116985   5.259   3.439   3.130
 5680TIP3    H216986   5.159   3.332   3.089
 5681TIP3   OH216987   0.772   0.004   1.006
 5681TIP3    H116988   0.836  -0.031   1.068
 5681TIP3    H216989   0.821   0.017   0.925
 5682TIP3   OH216990   2.908   3.590   5.818
 5682TIP3    H116991   2.959   3.509   5.824
 5682TIP3    H216992   2.973   3.660   5.825
 5683TIP3   OH216993   3.576   4.277   2.356
 5683TIP3    H116994   3.603   4.336   2.286
 5683TIP3    H216995   3.526   4.209   2.312
 5684TIP3   OH216996   1.320   6.454   5.324
 5684TIP3    H116997   1.360   6.534   5.289
 5684TIP3    H216998   1.349   6.451   5.415
 5685TIP3   OH216999   7.643   2.009   1.074
 5685TIP3    H117000   7.597   1.926   1.076
 5685TIP3    H217001   7.728   1.991   1.115
 5686TIP3   OH217002   4.886   0.339   6.130
 5686TIP3    H117003   4.827   0.371   6.062
 5686TIP3    H217004   4.853   0.253   6.154
 5687TIP3   OH217005   5.377   5.243   6.369
 5687TIP3    H117006   5.341   5.256   6.281
 5687TIP3    H217007   5.435   5.317   6.383
 5688TIP3   OH217008   1.073   3.743   6.755
 5688TIP3    H117009   1.061   3.717   6.663
 5688TIP3    H217010   1.168   3.746   6.767
 5689TIP3   OH217011   5.798   5.697   2.500
 5689TIP3    H117012   5.717   5.729   2.539
 5689TIP3    H217013   5.778   5.688   2.407
 5690TIP3   OH217014   5.021   2.663   1.941
 5690TIP3    H117015   4.964   2.724   1.895
 5690TIP3    H217016   4.965   2.625   2.009
 5691TIP3   OH217017   7.691   7.435   2.992
 5691TIP3    H117018   7.697   7.352   3.039
 5691TIP3    H217019   7.646   7.414   2.911
 5692TIP3   OH217020   8.208   5.228   1.890
 5692TIP3    H117021   8.220   5.262   1.979
 5692TIP3    H217022   8.270   5.278   1.837
 5693TIP3   OH217023   3.761   4.058   0.106
 5693TIP3    H117024   3.675   4.019   0.095
 5693TIP3    H217025   3.755   4.143   0.062
 5694TIP3   OH217026   2.510   7.213   5.685
 5694TIP3    H117027   2.436   7.238   5.629
 5694TIP3    H217028   2.483   7.240   5.773
 5695TIP3   OH217029   7.419   6.073   4.824
 5695TIP3    H117030   7.394   5.988   4.862
 5695TIP3    H217031   7.502   6.055   4.779
 5696TIP3   OH217032   6.426   6.485   4.187
 5696TIP3    H117033   6.438   6.390   4.190
 5696TIP3    H217034   6.442   6.513   4.277
 5697TIP3   OH217035   8.001   2.036   5.655
 5697TIP3    H117036   8.012   2.116   5.706
 5697TIP3    H217037   7.920   2.051   5.606
 5698TIP3   OH217038   1.220   6.953   2.891
 5698TIP3    H117039   1.125   6.952   2.886
 5698TIP3    H217040   1.249   6.923   2.804
 5699TIP3   OH217041   0.504   4.486   3.456
 5699TIP3    H117042   0.553   4.403   3.456
 5699TIP3    H217043   0.564   4.549   3.495
 5700TIP3   OH217044   3.137   1.466   6.525
 5700TIP3    H117045   3.181   1.415   6.457
 5700TIP3    H217046   3.184   1.444   6.606
 5701TIP3   OH217047   0.641   2.204   3.255
 5701TIP3    H117048   0.655   2.298   3.270
 5701TIP3    H217049   0.690   2.161   3.326
 5702TIP3   OH217050   0.235   1.701   1.607
 5702TIP3    H117051   0.236   1.790   1.643
 5702TIP3    H217052   0.327   1.681   1.589
 5703TIP3   OH217053   2.939   2.619   6.432
 5703TIP3    H117054   2.877   2.683   6.467
 5703TIP3    H217055   3.013   2.622   6.492
 5704TIP3   OH217056   6.606   3.725   2.408
 5704TIP3    H117057   6.629   3.738   2.500
 5704TIP3    H217058   6.679   3.674   2.372
 5705TIP3   OH217059   3.679   0.799   5.188
 5705TIP3    H117060   3.690   0.761   5.101
 5705TIP3    H217061   3.767   0.803   5.225
 5706TIP3   OH217062   3.095   0.975   3.470
 5706TIP3    H117063   3.188   0.980   3.452
 5706TIP3    H217064   3.073   1.060   3.508
 5707TIP3   OH217065   4.167   3.409   1.617
 5707TIP3    H117066   4.202   3.423   1.529
 5707TIP3    H217067   4.236   3.444   1.675
 5708TIP3   OH217068   1.023   4.937   4.982
 5708TIP3    H117069   1.108   4.909   5.018
 5708TIP3    H217070   1.038   5.027   4.955
 5709TIP3   OH217071   3.776   4.430   1.957
 5709TIP3    H117072   3.762   4.410   1.865
 5709TIP3    H217073   3.852   4.487   1.959
 5710TIP3   OH217074   5.183   7.006   6.255
 5710TIP3    H117075   5.200   7.014   6.348
 5710TIP3    H217076   5.265   7.032   6.213
 5711TIP3   OH217077   2.779   1.722   4.203
 5711TIP3    H117078   2.750   1.770   4.280
 5711TIP3    H217079   2.852   1.668   4.234
 5712TIP3   OH217080   4.817   2.912   4.803
 5712TIP3    H117081   4.731   2.938   4.770
 5712TIP3    H217082   4.848   2.847   4.741
 5713TIP3   OH217083   3.626   7.379   6.162
 5713TIP3    H117084   3.649   7.472   6.164
 5713TIP3    H217085   3.700   7.335   6.204
 5714TIP3   OH217086   6.646   6.817   3.874
 5714TIP3    H117087   6.714   6.809   3.941
 5714TIP3    H217088   6.571   6.771   3.912
 5715TIP3   OH217089   2.214   6.136   5.494
 5715TIP3    H117090   2.276   6.149   5.422
 5715TIP3    H217091   2.214   6.042   5.509
 5716TIP3   OH217092   6.072   4.830   4.021
 5716TIP3    H117093   6.157   4.855   3.984
 5716TIP3    H217094   6.060   4.890   4.094
 5717TIP3   OH217095   0.884   6.127   3.963
 5717TIP3    H117096   0.900   6.218   3.985
 5717TIP3    H217097   0.929   6.114   3.879
 5718TIP3   OH217098   2.561   6.106   5.461
 5718TIP3    H117099   2.580   6.198   5.478
 5718TIP3    H217100   2.512   6.106   5.378
 5719TIP3   OH217101   0.962   0.663   2.255
 5719TIP3    H117102   1.044   0.636   2.214
 5719TIP3    H217103   0.904   0.588   2.245
 5720TIP3   OH217104   5.078   5.882   1.381
 5720TIP3    H117105   5.046   5.801   1.342
 5720TIP3    H217106   5.012   5.948   1.357
 5721TIP3   OH217107   2.353   0.903   1.417
 5721TIP3    H117108   2.429   0.875   1.367
 5721TIP3    H217109   2.283   0.913   1.352
 5722TIP3   OH217110   6.233   6.742   3.355
 5722TIP3    H117111   6.192   6.824   3.327
 5722TIP3    H217112   6.295   6.721   3.286
 5723TIP3   OH217113   7.690   4.077   5.983
 5723TIP3    H117114   7.655   3.991   5.960
 5723TIP3    H217115   7.738   4.105   5.905
 5724TIP3   OH217116   5.798   2.099   3.771
 5724TIP3    H117117   5.719   2.140   3.807
 5724TIP3    H217118   5.847   2.171   3.733
 5725TIP3   OH217119   1.185   1.684   1.683
 5725TIP3    H117120   1.210   1.771   1.653
 5725TIP3    H217121   1.207   1.683   1.776
 5726TIP3   OH217122   7.506   5.763   4.647
 5726TIP3    H117123   7.452   5.756   4.726
 5726TIP3    H217124   7.576   5.699   4.661
 5727TIP3   OH217125   6.488   6.400   5.511
 5727TIP3    H117126   6.449   6.479   5.546
 5727TIP3    H217127   6.419   6.361   5.457
 5728TIP3   OH217128   4.166   2.318   0.883
 5728TIP3    H117129   4.246   2.370   0.889
 5728TIP3    H217130   4.159   2.295   0.791
 5729TIP3   OH217131   4.542   0.429   2.194
 5729TIP3    H117132   4.541   0.491   2.267
 5729TIP3    H217133   4.600   0.358   2.222
 5730TIP3   OH217134   0.696   4.670   4.619
 5730TIP3    H117135   0.601   4.672   4.627
 5730TIP3    H217136   0.728   4.721   4.694
 5731TIP3   OH217137   6.334   4.405   2.709
 5731TIP3    H117138   6.316   4.364   2.624
 5731TIP3    H217139   6.429   4.418   2.710
 5732TIP3   OH217140   6.448   5.504  -0.017
 5732TIP3    H117141   6.469   5.472   0.071
 5732TIP3    H217142   6.429   5.597  -0.005
 5733TIP3   OH217143   4.547   1.203   3.331
 5733TIP3    H117144   4.512   1.274   3.278
 5733TIP3    H217145   4.472   1.170   3.380
 5734TIP3   OH217146   3.063   1.725   2.218
 5734TIP3    H117147   3.045   1.656   2.155
 5734TIP3    H217148   3.100   1.680   2.294
 5735TIP3   OH217149   5.222   7.751   2.297
 5735TIP3    H117150   5.195   7.659   2.294
 5735TIP3    H217151   5.176   7.786   2.373
 5736TIP3   OH217152   1.634   1.539   0.955
 5736TIP3    H117153   1.625   1.491   0.873
 5736TIP3    H217154   1.712   1.592   0.944
 5737TIP3   OH217155   7.005   6.600   1.572
 5737TIP3    H117156   7.098   6.579   1.561
 5737TIP3    H217157   6.959   6.519   1.552
 5738TIP3   OH217158   0.482   0.481   5.248
 5738TIP3    H117159   0.465   0.402   5.300
 5738TIP3    H217160   0.551   0.526   5.296
 5739TIP3   OH217161   3.963   7.401   1.563
 5739TIP3    H117162   4.022   7.404   1.488
 5739TIP3    H217163   3.941   7.492   1.580
 5740TIP3   OH217164   8.131   5.283   0.791
 5740TIP3    H117165   8.135   5.259   0.698
 5740TIP3    H217166   8.082   5.211   0.832
 5741TIP3   OH217167   6.084   7.801   4.006
 5741TIP3    H117168   6.084   7.882   3.954
 5741TIP3    H217169   6.170   7.763   3.992
 5742TIP3   OH217170   4.103   4.295   4.635
 5742TIP3    H117171   4.102   4.315   4.541
 5742TIP3    H217172   4.031   4.233   4.647
 5743TIP3   OH217173   6.213   4.222   6.612
 5743TIP3    H117174   6.166   4.283   6.669
 5743TIP3    H217175   6.148   4.159   6.584
 5744TIP3   OH217176   4.743   1.229   5.785
 5744TIP3    H117177   4.666   1.235   5.841
 5744TIP3    H217178   4.800   1.300   5.815
 5745TIP3   OH217179   4.293   4.102   4.685
 5745TIP3    H117180   4.247   4.173   4.640
 5745TIP3    H217181   4.384   4.132   4.690
 5746TIP3   OH217182   5.716   5.541   3.914
 5746TIP3    H117183   5.710   5.636   3.908
 5746TIP3    H217184   5.665   5.519   3.992
 5747TIP3   OH217185   3.325   0.414   0.712
 5747TIP3    H117186   3.332   0.435   0.805
 5747TIP3    H217187   3.234   0.436   0.690
 5748TIP3   OH217188   6.187   2.081   5.332
 5748TIP3    H117189   6.144   2.039   5.258
 5748TIP3    H217190   6.199   2.011   5.396
 5749TIP3   OH217191   0.848   4.201   6.092
 5749TIP3    H117192   0.890   4.116   6.108
 5749TIP3    H217193   0.921   4.261   6.075
 5750TIP3   OH217194   6.119   0.341   2.075
 5750TIP3    H117195   6.156   0.390   2.002
 5750TIP3    H217196   6.174   0.263   2.082
 5751TIP3   OH217197   5.035   3.572   3.503
 5751TIP3    H117198   5.002   3.661   3.506
 5751TIP3    H217199   5.028   3.546   3.411
 5752TIP3   OH217200   2.566   5.823   0.024
 5752TIP3    H117201   2.595   5.775  -0.054
 5752TIP3    H217202   2.647   5.848   0.069
 5753TIP3   OH217203   2.138   0.245   3.217
 5753TIP3    H117204   2.195   0.274   3.145
 5753TIP3    H217205   2.115   0.326   3.263
 5754TIP3   OH217206   3.411   1.338   0.094
 5754TIP3    H117207   3.359   1.321   0.015
 5754TIP3    H217208   3.495   1.295   0.076
 5755TIP3   OH217209   1.973   0.869   2.944
 5755TIP3    H117210   2.048   0.809   2.942
 5755TIP3    H217211   2.006   0.947   2.988
 5756TIP3   OH217212   7.126   6.493   2.646
 5756TIP3    H117213   7.082   6.552   2.585
 5756TIP3    H217214   7.055   6.453   2.696
 5757TIP3   OH217215   1.908   7.195   6.267
 5757TIP3    H117216   1.857   7.250   6.325
 5757TIP3    H217217   1.999   7.210   6.293
 5758TIP3   OH217218   4.687   4.394   0.906
 5758TIP3    H117219   4.697   4.455   0.833
 5758TIP3    H217220   4.603   4.352   0.891
 5759TIP3   OH217221   7.005   0.195   3.013
 5759TIP3    H117222   7.033   0.203   2.922
 5759TIP3    H217223   7.079   0.229   3.064
 5760TIP3   OH217224   5.975   7.782   5.411
 5760TIP3    H117225   6.051   7.742   5.454
 5760TIP3    H217226   5.953   7.723   5.340
 5761TIP3   OH217227   1.494   7.652   1.776
 5761TIP3    H117228   1.508   7.592   1.703
 5761TIP3    H217229   1.403   7.637   1.803
 5762TIP3   OH217230   1.541   3.193   1.909
 5762TIP3    H117231   1.574   3.104   1.915
 5762TIP3    H217232   1.587   3.231   1.834
 5763TIP3   OH217233   5.756   5.942   5.908
 5763TIP3    H117234   5.768   6.014   5.970
 5763TIP3    H217235   5.800   5.867   5.949
 5764TIP3   OH217236   3.932   5.169   0.014
 5764TIP3    H117237   3.903   5.138  -0.072
 5764TIP3    H217238   3.946   5.089   0.066
 5765TIP3   OH217239   8.053   3.412   1.895
 5765TIP3    H117240   8.086   3.351   1.829
 5765TIP3    H217241   7.971   3.444   1.858
 5766TIP3   OH217242   4.844   3.733   4.651
 5766TIP3    H117243   4.754   3.722   4.681
 5766TIP3    H217244   4.837   3.793   4.577
 5767TIP3   OH217245   8.050   0.301   0.477
 5767TIP3    H117246   8.046   0.350   0.559
 5767TIP3    H217247   8.006   0.218   0.497
 5768TIP3   OH217248   2.475   4.338   1.265
 5768TIP3    H117249   2.476   4.332   1.169
 5768TIP3    H217250   2.546   4.399   1.286
 5769TIP3   OH217251   7.222   1.465   1.364
 5769TIP3    H117252   7.261   1.513   1.292
 5769TIP3    H217253   7.294   1.415   1.401
 5770TIP3   OH217254   1.901   6.077   2.425
 5770TIP3    H117255   1.809   6.074   2.450
 5770TIP3    H217256   1.948   6.088   2.508
 5771TIP3   OH217257   5.100   5.895   0.089
 5771TIP3    H117258   5.107   5.988   0.070
 5771TIP3    H217259   5.131   5.887   0.180
 5772TIP3   OH217260   5.910   3.467   2.439
 5772TIP3    H117261   5.819   3.455   2.414
 5772TIP3    H217262   5.908   3.538   2.504
 5773TIP3   OH217263   3.229   1.041   1.551
 5773TIP3    H117264   3.301   1.097   1.581
 5773TIP3    H217265   3.170   1.036   1.626
 5774TIP3   OH217266   8.156   6.575   0.522
 5774TIP3    H117267   8.138   6.603   0.433
 5774TIP3    H217268   8.207   6.647   0.560
 5775TIP3   OH217269   5.980   5.562   3.818
 5775TIP3    H117270   6.020   5.615   3.887
 5775TIP3    H217271   5.910   5.514   3.862
 5776TIP3   OH217272   4.826   5.923   3.073
 5776TIP3    H117273   4.836   5.874   3.155
 5776TIP3    H217274   4.799   5.857   3.009
 5777TIP3   OH217275   1.325   5.780   6.364
 5777TIP3    H117276   1.410   5.823   6.352
 5777TIP3    H217277   1.267   5.851   6.394
 5778TIP3   OH217278   0.125   5.163   2.909
 5778TIP3    H117279   0.166   5.085   2.873
 5778TIP3    H217280   0.034   5.138   2.924
 5779TIP3   OH217281   2.224   3.336   2.811
 5779TIP3    H117282   2.260   3.339   2.722
 5779TIP3    H217283   2.162   3.409   2.813
 5780TIP3   OH217284   0.640   0.504   1.160
 5780TIP3    H117285   0.595   0.552   1.229
 5780TIP3    H217286   0.681   0.571   1.105
 5781TIP3   OH217287   2.663   1.216   0.946
 5781TIP3    H117288   2.606   1.277   0.900
 5781TIP3    H217289   2.751   1.248   0.930
 5782TIP3   OH217290   7.412   1.875   2.771
 5782TIP3    H117291   7.320   1.860   2.746
 5782TIP3    H217292   7.462   1.819   2.711
 5783TIP3   OH217293   6.847   2.260   3.023
 5783TIP3    H117294   6.785   2.331   3.006
 5783TIP3    H217295   6.915   2.299   3.077
 5784TIP3   OH217296   3.346   6.469   6.196
 5784TIP3    H117297   3.312   6.426   6.275
 5784TIP3    H217298   3.329   6.562   6.210
 5785TIP3   OH217299   4.606   1.227   4.512
 5785TIP3    H117300   4.522   1.210   4.555
 5785TIP3    H217301   4.647   1.296   4.566
 5786TIP3   OH217302   2.924   0.488   4.850
 5786TIP3    H117303   2.971   0.430   4.790
 5786TIP3    H217304   2.917   0.438   4.931
 5787TIP3   OH217305   2.755   2.571   5.313
 5787TIP3    H117306   2.849   2.586   5.304
 5787TIP3    H217307   2.745   2.476   5.307
 5788TIP3   OH217308   8.234   4.533   6.590
 5788TIP3    H117309   8.154   4.573   6.624
 5788TIP3    H217310   8.300   4.602   6.596
 5789TIP3   OH217311   0.629   0.089   5.645
 5789TIP3    H117312   0.574   0.145   5.700
 5789TIP3    H217313   0.580   0.007   5.638
 5790TIP3   OH217314   1.511   0.772   5.157
 5790TIP3    H117315   1.466   0.819   5.227
 5790TIP3    H217316   1.565   0.707   5.201
 5791TIP3   OH217317   7.478   3.588   6.062
 5791TIP3    H117318   7.395   3.551   6.091
 5791TIP3    H217319   7.524   3.515   6.021
 5792TIP3   OH217320   7.731   7.740   1.550
 5792TIP3    H117321   7.653   7.689   1.528
 5792TIP3    H217322   7.804   7.680   1.535
 5793TIP3   OH217323   3.565   1.123   1.923
 5793TIP3    H117324   3.470   1.113   1.924
 5793TIP3    H217325   3.579   1.217   1.923
 5794TIP3   OH217326   6.107   5.875   2.105
 5794TIP3    H117327   6.058   5.950   2.072
 5794TIP3    H217328   6.102   5.810   2.034
 5795TIP3   OH217329   7.459   4.394   6.004
 5795TIP3    H117330   7.507   4.470   5.970
 5795TIP3    H217331   7.485   4.389   6.096
 5796TIP3   OH217332   3.453   3.560   0.635
 5796TIP3    H117333   3.448   3.507   0.715
 5796TIP3    H217334   3.380   3.530   0.581
 5797TIP3   OH217335   5.035   7.139   6.549
 5797TIP3    H117336   4.951   7.109   6.516
 5797TIP3    H217337   5.013   7.191   6.626
 5798TIP3   OH217338   6.251   2.224   4.989
 5798TIP3    H117339   6.213   2.137   4.995
 5798TIP3    H217340   6.260   2.241   4.895
 5799TIP3   OH217341   5.417   5.056   1.675
 5799TIP3    H117342   5.464   5.060   1.758
 5799TIP3    H217343   5.425   4.965   1.646
 5800TIP3   OH217344   6.670   5.673   4.263
 5800TIP3    H117345   6.681   5.679   4.168
 5800TIP3    H217346   6.677   5.763   4.294
 5801TIP3   OH217347   4.315   0.063   2.957
 5801TIP3    H117348   4.238   0.012   2.931
 5801TIP3    H217349   4.308   0.145   2.909
 5802TIP3   OH217350   4.852   6.093   0.956
 5802TIP3    H117351   4.944   6.071   0.966
 5802TIP3    H217352   4.836   6.090   0.862
 5803TIP3   OH217353   7.533   3.961   5.168
 5803TIP3    H117354   7.443   3.944   5.142
 5803TIP3    H217355   7.564   4.026   5.104
 5804TIP3   OH217356   6.596   7.601   2.659
 5804TIP3    H117357   6.578   7.690   2.688
 5804TIP3    H217358   6.665   7.570   2.718
 5805TIP3   OH217359   7.131   0.786   6.234
 5805TIP3    H117360   7.039   0.781   6.260
 5805TIP3    H217361   7.157   0.876   6.252
 5806TIP3   OH217362   1.597   0.530   2.172
 5806TIP3    H117363   1.632   0.481   2.097
 5806TIP3    H217364   1.557   0.464   2.228
 5807TIP3   OH217365   4.564   7.444   3.062
 5807TIP3    H117366   4.583   7.538   3.072
 5807TIP3    H217367   4.573   7.409   3.151
 5808TIP3   OH217368   3.652   0.086   5.487
 5808TIP3    H117369   3.593   0.023   5.445
 5808TIP3    H217370   3.607   0.112   5.567
 5809TIP3   OH217371   5.172   0.761   0.525
 5809TIP3    H117372   5.180   0.832   0.462
 5809TIP3    H217373   5.225   0.690   0.488
 5810TIP3   OH217374   0.321   7.718   4.806
 5810TIP3    H117375   0.415   7.708   4.821
 5810TIP3    H217376   0.294   7.787   4.866
 5811TIP3   OH217377   3.755   3.342   5.828
 5811TIP3    H117378   3.769   3.373   5.918
 5811TIP3    H217379   3.829   3.376   5.778
 5812TIP3   OH217380   7.152   1.943   5.334
 5812TIP3    H117381   7.118   1.856   5.354
 5812TIP3    H217382   7.097   2.003   5.385
 5813TIP3   OH217383   3.672   4.270   5.400
 5813TIP3    H117384   3.729   4.329   5.350
 5813TIP3    H217385   3.584   4.290   5.369
 5814TIP3   OH217386   2.424   6.211   0.659
 5814TIP3    H117387   2.471   6.277   0.607
 5814TIP3    H217388   2.392   6.258   0.736
 5815TIP3   OH217389   0.465   1.475   0.347
 5815TIP3    H117390   0.513   1.520   0.416
 5815TIP3    H217391   0.375   1.471   0.377
 5816TIP3   OH217392   7.396   5.358   5.702
 5816TIP3    H117393   7.367   5.320   5.785
 5816TIP3    H217394   7.317   5.363   5.649
 5817TIP3   OH217395   6.795   1.557   3.516
 5817TIP3    H117396   6.857   1.607   3.569
 5817TIP3    H217397   6.841   1.542   3.433
 5818TIP3   OH217398   4.315   0.492   3.680
 5818TIP3    H117399   4.369   0.530   3.749
 5818TIP3    H217400   4.377   0.449   3.621
 5819TIP3   OH217401   7.555   2.901   0.261
 5819TIP3    H117402   7.520   2.976   0.212
 5819TIP3    H217403   7.642   2.886   0.222
 5820TIP3   OH217404   1.954   7.145   5.437
 5820TIP3    H117405   2.016   7.160   5.508
 5820TIP3    H217406   1.873   7.185   5.468
 5821TIP3   OH217407   2.918   2.752   0.540
 5821TIP3    H117408   2.884   2.663   0.542
 5821TIP3    H217409   2.841   2.808   0.546
 5822TIP3   OH217410   5.174   0.955   0.315
 5822TIP3    H117411   5.115   1.015   0.360
 5822TIP3    H217412   5.161   0.973   0.222
 5823TIP3   OH217413   3.608   2.197   1.124
 5823TIP3    H117414   3.639   2.150   1.047
 5823TIP3    H217415   3.686   2.212   1.177
 5824TIP3   OH217416   1.188   0.511   5.143
 5824TIP3    H117417   1.256   0.461   5.188
 5824TIP3    H217418   1.125   0.444   5.115
 5825TIP3   OH217419   0.372   3.715   3.022
 5825TIP3    H117420   0.352   3.750   2.935
 5825TIP3    H217421   0.312   3.641   3.033
 5826TIP3   OH217422   5.317   5.350   5.040
 5826TIP3    H117423   5.352   5.421   4.985
 5826TIP3    H217424   5.248   5.392   5.091
 5827TIP3   OH217425   6.337   7.154   1.885
 5827TIP3    H117426   6.355   7.074   1.935
 5827TIP3    H217427   6.281   7.125   1.813
 5828TIP3   OH217428   5.524   2.963   3.173
 5828TIP3    H117429   5.512   2.878   3.131
 5828TIP3    H217430   5.614   2.987   3.154
 5829TIP3   OH217431   8.083   1.877   1.437
 5829TIP3    H117432   8.123   1.791   1.445
 5829TIP3    H217433   8.122   1.929   1.507
 5830TIP3   OH217434   1.097   1.500   0.939
 5830TIP3    H117435   1.107   1.565   0.869
 5830TIP3    H217436   1.187   1.480   0.966
 5831TIP3   OH217437   4.550   3.823   6.469
 5831TIP3    H117438   4.624   3.847   6.413
 5831TIP3    H217439   4.572   3.735   6.501
 5832TIP3   OH217440   6.203   6.671   0.795
 5832TIP3    H117441   6.168   6.714   0.716
 5832TIP3    H217442   6.153   6.710   0.867
 5833TIP3   OH217443   7.839   3.045   3.234
 5833TIP3    H117444   7.904   3.106   3.201
 5833TIP3    H217445   7.763   3.057   3.177
 5834TIP3   OH217446   2.071   3.318   1.416
 5834TIP3    H117447   2.094   3.410   1.401
 5834TIP3    H217448   2.132   3.268   1.361
 5835TIP3   OH217449   5.329   5.698   0.569
 5835TIP3    H117450   5.290   5.629   0.623
 5835TIP3    H217451   5.317   5.668   0.479
 5836TIP3   OH217452   5.416   5.995   5.131
 5836TIP3    H117453   5.422   6.089   5.112
 5836TIP3    H217454   5.501   5.959   5.103
 5837TIP3   OH217455   8.319   7.280   3.305
 5837TIP3    H117456   8.262   7.309   3.377
 5837TIP3    H217457   8.261   7.229   3.248
 5838TIP3   OH217458   0.297   4.571   4.806
 5838TIP3    H117459   0.272   4.659   4.833
 5838TIP3    H217460   0.227   4.515   4.840
 5839TIP3   OH217461   1.183   0.029   2.032
 5839TIP3    H117462   1.203  -0.061   2.003
 5839TIP3    H217463   1.172   0.021   2.127
 5840TIP3   OH217464   6.731   3.915   5.287
 5840TIP3    H117465   6.750   3.965   5.366
 5840TIP3    H217466   6.641   3.939   5.265
 5841TIP3   OH217467   1.349   3.878   1.409
 5841TIP3    H117468   1.402   3.878   1.489
 5841TIP3    H217469   1.344   3.970   1.383
 5842TIP3   OH217470   7.480   6.778   3.438
 5842TIP3    H117471   7.447   6.699   3.482
 5842TIP3    H217472   7.494   6.840   3.510
 5843TIP3   OH217473   3.020   7.771   1.946
 5843TIP3    H117474   2.965   7.740   1.874
 5843TIP3    H217475   3.084   7.829   1.905
 5844TIP3   OH217476   5.134   3.982   5.834
 5844TIP3    H117477   5.202   4.011   5.894
 5844TIP3    H217478   5.169   3.903   5.794
 5845TIP3   OH217479   7.070   3.222   3.765
 5845TIP3    H117480   7.111   3.289   3.820
 5845TIP3    H217481   7.059   3.147   3.823
 5846TIP3   OH217482   4.080   2.936   2.912
 5846TIP3    H117483   4.164   2.924   2.868
 5846TIP3    H217484   4.054   2.848   2.939
 5847TIP3   OH217485   3.000   0.732   4.578
 5847TIP3    H117486   3.061   0.734   4.652
 5847TIP3    H217487   2.958   0.818   4.580
 5848TIP3   OH217488   5.076   6.512   6.582
 5848TIP3    H117489   5.147   6.480   6.637
 5848TIP3    H217490   5.102   6.488   6.493
 5849TIP3   OH217491   2.799   7.797   4.488
 5849TIP3    H117492   2.831   7.747   4.564
 5849TIP3    H217493   2.854   7.767   4.416
 5850TIP3   OH217494   2.674   3.912   4.975
 5850TIP3    H117495   2.754   3.959   4.999
 5850TIP3    H217496   2.676   3.910   4.879
 5851TIP3   OH217497   4.182   5.119   1.331
 5851TIP3    H117498   4.274   5.094   1.322
 5851TIP3    H217499   4.148   5.118   1.242
 5852TIP3   OH217500   1.899   4.367   4.305
 5852TIP3    H117501   1.868   4.417   4.381
 5852TIP3    H217502   1.966   4.423   4.266
 5853TIP3   OH217503   4.420   7.135   0.329
 5853TIP3    H117504   4.366   7.179   0.395
 5853TIP3    H217505   4.467   7.205   0.285
 5854TIP3   OH217506   5.409   6.835   4.443
 5854TIP3    H117507   5.443   6.770   4.504
 5854TIP3    H217508   5.314   6.827   4.450
 5855TIP3   OH217509   1.907   5.817   3.583
 5855TIP3    H117510   1.958   5.863   3.649
 5855TIP3    H217511   1.934   5.725   3.591
 5856TIP3   OH217512   2.151   6.086   4.937
 5856TIP3    H117513   2.229   6.040   4.968
 5856TIP3    H217514   2.184   6.172   4.910
 5857TIP3   OH217515   5.704   0.834   4.346
 5857TIP3    H117516   5.680   0.832   4.253
 5857TIP3    H217517   5.736   0.922   4.361
 5858TIP3   OH217518   3.023   4.918   1.414
 5858TIP3    H117519   3.083   4.844   1.400
 5858TIP3    H217520   3.075   4.982   1.463
 5859TIP3   OH217521   6.722   7.661   6.564
 5859TIP3    H117522   6.639   7.623   6.534
 5859TIP3    H217523   6.731   7.631   6.654
 5860TIP3   OH217524   8.187   4.788   2.233
 5860TIP3    H117525   8.180   4.696   2.256
 5860TIP3    H217526   8.236   4.789   2.151
 5861TIP3   OH217527   3.235   6.306   1.515
 5861TIP3    H117528   3.169   6.282   1.580
 5861TIP3    H217529   3.206   6.391   1.482
 5862TIP3   OH217530   6.042   6.761   3.537
 5862TIP3    H117531   6.080   6.744   3.451
 5862TIP3    H217532   5.991   6.841   3.525
 5863TIP3   OH217533   0.608   4.606   3.189
 5863TIP3    H117534   0.634   4.676   3.129
 5863TIP3    H217535   0.520   4.629   3.217
 5864TIP3   OH217536   4.922   6.756   6.599
 5864TIP3    H117537   4.998   6.807   6.629
 5864TIP3    H217538   4.956   6.666   6.590
 5865TIP3   OH217539   2.155   5.004   6.222
 5865TIP3    H117540   2.080   4.969   6.271
 5865TIP3    H217541   2.124   5.089   6.190
 5866TIP3   OH217542   6.341   7.321   0.263
 5866TIP3    H117543   6.336   7.296   0.171
 5866TIP3    H217544   6.267   7.276   0.304
 5867TIP3   OH217545   2.407   7.569   2.241
 5867TIP3    H117546   2.318   7.540   2.219
 5867TIP3    H217547   2.397   7.620   2.321
 5868TIP3   OH217548   0.660   2.451   3.403
 5868TIP3    H117549   0.687   2.405   3.484
 5868TIP3    H217550   0.653   2.543   3.429
 5869TIP3   OH217551   7.208   5.975   2.924
 5869TIP3    H117552   7.257   6.051   2.953
 5869TIP3    H217553   7.187   5.927   3.004
 5870TIP3   OH217554   4.870   1.858   2.770
 5870TIP3    H117555   4.793   1.912   2.753
 5870TIP3    H217556   4.837   1.768   2.765
 5871TIP3   OH217557   6.599   3.079   5.738
 5871TIP3    H117558   6.581   3.040   5.823
 5871TIP3    H217559   6.564   3.017   5.674
 5872TIP3   OH217560   0.731   7.623   0.705
 5872TIP3    H117561   0.815   7.662   0.730
 5872TIP3    H217562   0.746   7.588   0.618
 5873TIP3   OH217563   5.511   2.754   5.627
 5873TIP3    H117564   5.494   2.824   5.689
 5873TIP3    H217565   5.452   2.771   5.554
 5874TIP3   OH217566   7.175   1.194   0.942
 5874TIP3    H117567   7.111   1.222   0.877
 5874TIP3    H217568   7.193   1.102   0.920
 5875TIP3   OH217569   1.829   7.408   6.401
 5875TIP3    H117570   1.907   7.404   6.457
 5875TIP3    H217571   1.861   7.446   6.319
 5876TIP3   OH217572   3.800   5.946   2.882
 5876TIP3    H117573   3.833   6.035   2.876
 5876TIP3    H217574   3.720   5.946   2.829
 5877TIP3   OH217575   8.242   1.150   5.091
 5877TIP3    H117576   8.303   1.216   5.122
 5877TIP3    H217577   8.156   1.189   5.102
 5878TIP3   OH217578   1.054   5.430   0.547
 5878TIP3    H117579   0.975   5.430   0.601
 5878TIP3    H217580   1.122   5.393   0.603
 5879TIP3   OH217581   5.738   4.248   2.250
 5879TIP3    H117582   5.665   4.188   2.238
 5879TIP3    H217583   5.732   4.275   2.342
 5880TIP3   OH217584   2.738   6.315   0.668
 5880TIP3    H117585   2.680   6.390   0.652
 5880TIP3    H217586   2.742   6.270   0.585
 5881TIP3   OH217587   2.228   2.554   2.901
 5881TIP3    H117588   2.323   2.551   2.903
 5881TIP3    H217589   2.207   2.636   2.856
 5882TIP3   OH217590   7.837   2.664   0.700
 5882TIP3    H117591   7.797   2.706   0.624
 5882TIP3    H217592   7.900   2.729   0.732
 5883TIP3   OH217593   7.652   4.424   2.761
 5883TIP3    H117594   7.639   4.401   2.853
 5883TIP3    H217595   7.742   4.398   2.742
 5884TIP3   OH217596   0.530   4.585   4.169
 5884TIP3    H117597   0.526   4.517   4.235
 5884TIP3    H217598   0.467   4.651   4.198
 5885TIP3   OH217599   0.847   2.279   6.374
 5885TIP3    H117600   0.898   2.237   6.305
 5885TIP3    H217601   0.904   2.276   6.451
 5886TIP3   OH217602   8.064   7.440   0.970
 5886TIP3    H117603   8.117   7.365   0.996
 5886TIP3    H217604   8.032   7.418   0.883
 5887TIP3   OH217605   2.913   2.609   2.678
 5887TIP3    H117606   2.883   2.698   2.695
 5887TIP3    H217607   2.905   2.564   2.762
 5888TIP3   OH217608   1.150   5.087   0.841
 5888TIP3    H117609   1.208   5.017   0.870
 5888TIP3    H217610   1.206   5.143   0.786
 5889TIP3   OH217611   0.705   3.538   3.863
 5889TIP3    H117612   0.659   3.488   3.931
 5889TIP3    H217613   0.729   3.620   3.905
 5890TIP3   OH217614   5.581   0.848   6.210
 5890TIP3    H117615   5.486   0.853   6.202
 5890TIP3    H217616   5.614   0.916   6.151
 5891TIP3   OH217617   7.071   2.397   2.312
 5891TIP3    H117618   6.993   2.345   2.330
 5891TIP3    H217619   7.038   2.486   2.297
 5892TIP3   OH217620   3.090   1.383   0.163
 5892TIP3    H117621   3.035   1.461   0.171
 5892TIP3    H217622   3.175   1.410   0.197
 5893TIP3   OH217623   4.953   1.060   0.466
 5893TIP3    H117624   4.997   1.137   0.430
 5893TIP3    H217625   4.901   1.026   0.394
 5894TIP3   OH217626   3.994   5.236   1.729
 5894TIP3    H117627   3.906   5.272   1.718
 5894TIP3    H217628   4.052   5.302   1.690
 5895TIP3   OH217629   7.091   4.001   0.209
 5895TIP3    H117630   7.044   3.990   0.292
 5895TIP3    H217631   7.102   4.096   0.201
 5896TIP3   OH217632   4.824   5.656   4.669
 5896TIP3    H117633   4.859   5.743   4.688
 5896TIP3    H217634   4.756   5.642   4.736
 5897TIP3   OH217635   1.462   0.970   4.164
 5897TIP3    H117636   1.418   1.043   4.206
 5897TIP3    H217637   1.482   0.910   4.236
 5898TIP3   OH217638   6.804   1.776   2.017
 5898TIP3    H117639   6.761   1.694   1.994
 5898TIP3    H217640   6.843   1.807   1.936
 5899TIP3   OH217641   6.845   4.441   0.953
 5899TIP3    H117642   6.777   4.390   0.908
 5899TIP3    H217643   6.800   4.518   0.986
 5900TIP3   OH217644   6.316   6.859   4.202
 5900TIP3    H117645   6.302   6.877   4.109
 5900TIP3    H217646   6.411   6.853   4.212
 5901TIP3   OH217647   6.256   3.509   6.723
 5901TIP3    H117648   6.163   3.526   6.738
 5901TIP3    H217649   6.257   3.440   6.657
 5902TIP3   OH217650   5.546   7.671   2.272
 5902TIP3    H117651   5.472   7.617   2.301
 5902TIP3    H217652   5.529   7.689   2.180
 5903TIP3   OH217653   6.640   3.164   4.639
 5903TIP3    H117654   6.554   3.150   4.599
 5903TIP3    H217655   6.641   3.257   4.662
 5904TIP3   OH217656   4.243   0.895   3.903
 5904TIP3    H117657   4.301   0.886   3.978
 5904TIP3    H217658   4.181   0.823   3.911
 5905TIP3   OH217659   1.804   1.447   4.029
 5905TIP3    H117660   1.797   1.512   3.959
 5905TIP3    H217661   1.883   1.472   4.076
 5906TIP3   OH217662   5.241   1.443   2.057
 5906TIP3    H117663   5.147   1.430   2.072
 5906TIP3    H217664   5.255   1.536   2.075
 5907TIP3   OH217665   6.866   7.827   5.800
 5907TIP3    H117666   6.847   7.734   5.792
 5907TIP3    H217667   6.788   7.870   5.764
 5908TIP3   OH217668   3.360   0.235   4.299
 5908TIP3    H117669   3.367   0.156   4.353
 5908TIP3    H217670   3.369   0.308   4.360
 5909TIP3   OH217671   7.365   6.379   3.327
 5909TIP3    H117672   7.398   6.414   3.409
 5909TIP3    H217673   7.355   6.455   3.270
 5910TIP3   OH217674   5.977   5.247   4.079
 5910TIP3    H117675   5.971   5.163   4.124
 5910TIP3    H217676   5.965   5.312   4.148
 5911TIP3   OH217677   4.528   0.723   0.349
 5911TIP3    H117678   4.449   0.760   0.308
 5911TIP3    H217679   4.519   0.744   0.442
 5912TIP3   OH217680   1.958   4.183   5.752
 5912TIP3    H117681   1.925   4.253   5.695
 5912TIP3    H217682   2.011   4.228   5.817
 5913TIP3   OH217683   3.696   4.929   5.305
 5913TIP3    H117684   3.665   4.982   5.378
 5913TIP3    H217685   3.642   4.850   5.308
 5914TIP3   OH217686   5.198   1.710   2.100
 5914TIP3    H117687   5.236   1.795   2.078
 5914TIP3    H217688   5.163   1.721   2.188
 5915TIP3   OH217689   7.061   1.309   5.456
 5915TIP3    H117690   7.140   1.263   5.427
 5915TIP3    H217691   7.083   1.343   5.543
 5916TIP3   OH217692   1.629   6.328   0.163
 5916TIP3    H117693   1.713   6.286   0.182
 5916TIP3    H217694   1.585   6.267   0.104
 5917TIP3   OH217695   1.284   7.648   3.199
 5917TIP3    H117696   1.348   7.670   3.131
 5917TIP3    H217697   1.336   7.642   3.279
 5918TIP3   OH217698   2.531   0.348   6.024
 5918TIP3    H117699   2.617   0.391   6.020
 5918TIP3    H217700   2.498   0.354   5.934
 5919TIP3   OH217701   8.246   0.149   4.442
 5919TIP3    H117702   8.168   0.203   4.450
 5919TIP3    H217703   8.219   0.077   4.385
 5920TIP3   OH217704   0.339   2.575   0.160
 5920TIP3    H117705   0.292   2.636   0.103
 5920TIP3    H217706   0.389   2.632   0.218
 5921TIP3   OH217707   2.877   2.773   6.762
 5921TIP3    H117708   2.830   2.811   6.687
 5921TIP3    H217709   2.968   2.765   6.732
 5922TIP3   OH217710   5.450   3.521   0.073
 5922TIP3    H117711   5.528   3.518   0.017
 5922TIP3    H217712   5.410   3.605   0.055
 5923TIP3   OH217713   5.309   5.629   4.014
 5923TIP3    H117714   5.322   5.723   4.027
 5923TIP3    H217715   5.375   5.587   4.068
 5924TIP3   OH217716   6.427   3.247   1.874
 5924TIP3    H117717   6.459   3.200   1.798
 5924TIP3    H217718   6.441   3.339   1.853
 5925TIP3   OH217719   5.723   1.604   4.676
 5925TIP3    H117720   5.727   1.677   4.737
 5925TIP3    H217721   5.764   1.637   4.596
 5926TIP3   OH217722   2.448   5.390   1.707
 5926TIP3    H117723   2.366   5.402   1.754
 5926TIP3    H217724   2.466   5.296   1.713
 5927TIP3   OH217725   7.473   1.157   0.223
 5927TIP3    H117726   7.413   1.195   0.159
 5927TIP3    H217727   7.453   1.202   0.305
 5928TIP3   OH217728   2.083   6.304   3.894
 5928TIP3    H117729   2.169   6.295   3.936
 5928TIP3    H217730   2.020   6.280   3.962
 5929TIP3   OH217731   1.162   3.586   3.143
 5929TIP3    H117732   1.189   3.504   3.101
 5929TIP3    H217733   1.067   3.577   3.153
 5930TIP3   OH217734   3.693   7.382   2.918
 5930TIP3    H117735   3.688   7.325   2.841
 5930TIP3    H217736   3.744   7.457   2.889
 5931TIP3   OH217737   7.754   3.978   4.228
 5931TIP3    H117738   7.780   4.068   4.245
 5931TIP3    H217739   7.732   3.977   4.135
 5932TIP3   OH217740   3.579   3.903   2.542
 5932TIP3    H117741   3.486   3.924   2.546
 5932TIP3    H217742   3.583   3.808   2.547
 5933TIP3   OH217743   4.919   3.509   6.602
 5933TIP3    H117744   4.873   3.425   6.605
 5933TIP3    H217745   5.007   3.487   6.571
 5934TIP3   OH217746   3.489   6.152   6.058
 5934TIP3    H117747   3.477   6.061   6.031
 5934TIP3    H217748   3.446   6.158   6.143
 5935TIP3   OH217749   6.755   6.968   4.622
 5935TIP3    H117750   6.771   7.041   4.682
 5935TIP3    H217751   6.843   6.936   4.598
 5936TIP3   OH217752   1.468   7.371   2.363
 5936TIP3    H117753   1.508   7.434   2.302
 5936TIP3    H217754   1.479   7.286   2.320
 5937TIP3   OH217755   4.089   1.628   4.408
 5937TIP3    H117756   4.045   1.567   4.349
 5937TIP3    H217757   4.170   1.652   4.363
 5938TIP3   OH217758   0.142   6.400   0.419
 5938TIP3    H117759   0.062   6.374   0.373
 5938TIP3    H217760   0.189   6.455   0.357
 5939TIP3   OH217761   7.437   4.598   4.092
 5939TIP3    H117762   7.528   4.571   4.103
 5939TIP3    H217763   7.386   4.530   4.135
 5940TIP3   OH217764   2.611   3.822   6.058
 5940TIP3    H117765   2.630   3.728   6.067
 5940TIP3    H217766   2.694   3.865   6.080
 5941TIP3   OH217767   7.442   6.636   6.146
 5941TIP3    H117768   7.446   6.592   6.231
 5941TIP3    H217769   7.415   6.726   6.167
 5942TIP3   OH217770   0.385   0.647   3.551
 5942TIP3    H117771   0.429   0.625   3.469
 5942TIP3    H217772   0.299   0.680   3.524
 5943TIP3   OH217773   3.447   1.766   6.279
 5943TIP3    H117774   3.367   1.730   6.317
 5943TIP3    H217775   3.429   1.859   6.269
 5944TIP3   OH217776   5.454   6.530   5.711
 5944TIP3    H117777   5.450   6.579   5.794
 5944TIP3    H217778   5.375   6.475   5.713
 5945TIP3   OH217779   0.954   5.845   1.065
 5945TIP3    H117780   0.883   5.889   1.113
 5945TIP3    H217781   0.955   5.756   1.100
 5946TIP3   OH217782   1.200   3.925   6.503
 5946TIP3    H117783   1.223   3.927   6.596
 5946TIP3    H217784   1.276   3.884   6.461
 5947TIP3   OH217785   7.192   1.123   4.406
 5947TIP3    H117786   7.159   1.204   4.365
 5947TIP3    H217787   7.287   1.135   4.410
 5948TIP3   OH217788   7.290   2.804   0.133
 5948TIP3    H117789   7.241   2.881   0.164
 5948TIP3    H217790   7.381   2.823   0.155
 5949TIP3   OH217791   6.054   0.298   1.134
 5949TIP3    H117792   6.047   0.375   1.190
 5949TIP3    H217793   6.125   0.247   1.173
 5950TIP3   OH217794   6.676   1.489   0.623
 5950TIP3    H117795   6.686   1.397   0.600
 5950TIP3    H217796   6.637   1.530   0.546
 5951TIP3   OH217797   7.119   1.327   6.092
 5951TIP3    H117798   7.081   1.279   6.165
 5951TIP3    H217799   7.125   1.262   6.021
 5952TIP3   OH217800   4.611   6.407   3.767
 5952TIP3    H117801   4.563   6.330   3.795
 5952TIP3    H217802   4.667   6.376   3.696
 5953TIP3   OH217803   3.478   2.584   3.626
 5953TIP3    H117804   3.425   2.619   3.554
 5953TIP3    H217805   3.467   2.489   3.620
 5954TIP3   OH217806   4.593   3.578   2.230
 5954TIP3    H117807   4.643   3.629   2.166
 5954TIP3    H217808   4.556   3.506   2.178
 5955TIP3   OH217809   0.158   4.614   1.511
 5955TIP3    H117810   0.114   4.529   1.514
 5955TIP3    H217811   0.086   4.677   1.508
 5956TIP3   OH217812   2.844   0.139   6.225
 5956TIP3    H117813   2.920   0.180   6.183
 5956TIP3    H217814   2.861   0.045   6.219
 5957TIP3   OH217815   5.695   1.573   1.374
 5957TIP3    H117816   5.716   1.656   1.331
 5957TIP3    H217817   5.600   1.569   1.375
 5958TIP3   OH217818   6.894   5.258   4.587
 5958TIP3    H117819   6.949   5.241   4.664
 5958TIP3    H217820   6.896   5.176   4.537
 5959TIP3   OH217821   1.454   1.305   1.382
 5959TIP3    H117822   1.400   1.241   1.427
 5959TIP3    H217823   1.435   1.292   1.289
 5960TIP3   OH217824   3.726   2.430   2.639
 5960TIP3    H117825   3.779   2.356   2.610
 5960TIP3    H217826   3.644   2.391   2.670
 5961TIP3   OH217827   5.766   3.626   5.094
 5961TIP3    H117828   5.741   3.661   5.179
 5961TIP3    H217829   5.689   3.578   5.064
 5962TIP3   OH217830   7.980   3.800   5.914
 5962TIP3    H117831   8.028   3.867   5.866
 5962TIP3    H217832   7.921   3.849   5.971
 5963TIP3   OH217833   6.811   3.534   3.416
 5963TIP3    H117834   6.808   3.569   3.505
 5963TIP3    H217835   6.722   3.502   3.399
 5964TIP3   OH217836   2.058   4.147   5.403
 5964TIP3    H117837   2.036   4.064   5.445
 5964TIP3    H217838   2.084   4.205   5.475
 5965TIP3   OH217839   8.299   6.631   2.221
 5965TIP3    H117840   8.356   6.625   2.297
 5965TIP3    H217841   8.210   6.626   2.257
 5966TIP3   OH217842   8.003   4.023   6.692
 5966TIP3    H117843   8.097   4.018   6.711
 5966TIP3    H217844   7.997   4.015   6.596
 5967TIP3   OH217845   7.532   7.781   0.068
 5967TIP3    H117846   7.603   7.796   0.130
 5967TIP3    H217847   7.454   7.772   0.123
 5968TIP3   OH217848   1.733   2.498   2.838
 5968TIP3    H117849   1.777   2.413   2.828
 5968TIP3    H217850   1.705   2.520   2.750
 5969TIP3   OH217851   4.768   6.712   1.532
 5969TIP3    H117852   4.841   6.655   1.505
 5969TIP3    H217853   4.690   6.664   1.506
 5970TIP3   OH217854   4.099   7.283   2.533
 5970TIP3    H117855   4.153   7.314   2.460
 5970TIP3    H217856   4.038   7.221   2.493
 5971TIP3   OH217857   5.506   6.969   4.217
 5971TIP3    H117858   5.528   7.038   4.280
 5971TIP3    H217859   5.444   6.913   4.263
 5972TIP3   OH217860   5.677   2.496   1.346
 5972TIP3    H117861   5.707   2.433   1.412
 5972TIP3    H217862   5.593   2.460   1.316
 5973TIP3   OH217863   5.140   1.179   5.774
 5973TIP3    H117864   5.171   1.165   5.863
 5973TIP3    H217865   5.099   1.096   5.750
 5974TIP3   OH217866   1.415   3.677   1.842
 5974TIP3    H117867   1.416   3.750   1.905
 5974TIP3    H217868   1.507   3.660   1.825
 5975TIP3   OH217869   0.751   7.453   5.704
 5975TIP3    H117870   0.813   7.413   5.644
 5975TIP3    H217871   0.674   7.474   5.650
 5976TIP3   OH217872   5.798   6.153   6.088
 5976TIP3    H117873   5.783   6.131   6.180
 5976TIP3    H217874   5.892   6.172   6.083
 5977TIP3   OH217875   7.148   0.756   5.958
 5977TIP3    H117876   7.077   0.700   5.927
 5977TIP3    H217877   7.147   0.745   6.053
 5978TIP3   OH217878   6.087   5.695   3.296
 5978TIP3    H117879   6.170   5.743   3.289
 5978TIP3    H217880   6.025   5.760   3.328
 5979TIP3   OH217881   4.013   6.444   4.115
 5979TIP3    H117882   4.100   6.416   4.142
 5979TIP3    H217883   3.957   6.422   4.189
 5980TIP3   OH217884   6.645   5.176   1.043
 5980TIP3    H117885   6.582   5.198   1.111
 5980TIP3    H217886   6.663   5.260   0.999
 5981TIP3   OH217887   3.923   7.012   4.552
 5981TIP3    H117888   3.950   7.075   4.618
 5981TIP3    H217889   3.960   7.045   4.470
 5982TIP3   OH217890   4.981   3.377   4.830
 5982TIP3    H117891   4.907   3.417   4.875
 5982TIP3    H217892   4.972   3.283   4.847
 5983TIP3   OH217893   0.996   1.752   1.167
 5983TIP3    H117894   0.921   1.725   1.220
 5983TIP3    H217895   1.061   1.684   1.181
 5984TIP3   OH217896   2.738   2.945   4.633
 5984TIP3    H117897   2.732   2.857   4.596
 5984TIP3    H217898   2.832   2.963   4.638
 5985TIP3   OH217899   0.026   3.150   5.499
 5985TIP3    H117900   0.019   3.058   5.527
 5985TIP3    H217901  -0.041   3.196   5.549
 5986TIP3   OH217902   0.780   2.644   0.376
 5986TIP3    H117903   0.686   2.646   0.355
 5986TIP3    H217904   0.804   2.552   0.370
 5987TIP3   OH217905   6.079   6.211   3.065
 5987TIP3    H117906   6.107   6.300   3.045
 5987TIP3    H217907   5.995   6.202   3.021
 5988TIP3   OH217908   0.717   7.459   5.278
 5988TIP3    H117909   0.806   7.431   5.257
 5988TIP3    H217910   0.662   7.417   5.212
 5989TIP3   OH217911   3.614   2.280   5.183
 5989TIP3    H117912   3.539   2.332   5.213
 5989TIP3    H217913   3.584   2.242   5.100
 5990TIP3   OH217914   4.660   2.736   0.776
 5990TIP3    H117915   4.640   2.738   0.869
 5990TIP3    H217916   4.616   2.658   0.743
 5991TIP3   OH217917   4.804   7.188   4.150
 5991TIP3    H117918   4.717   7.158   4.122
 5991TIP3    H217919   4.837   7.239   4.076
 5992TIP3   OH217920   2.388   0.203   4.208
 5992TIP3    H117921   2.318   0.190   4.272
 5992TIP3    H217922   2.421   0.291   4.226
 5993TIP3   OH217923   3.457   5.004   3.302
 5993TIP3    H117924   3.455   5.037   3.212
 5993TIP3    H217925   3.448   5.082   3.357
 5994TIP3   OH217926   1.460   6.012   1.509
 5994TIP3    H117927   1.375   6.035   1.547
 5994TIP3    H217928   1.501   5.956   1.575
 5995TIP3   OH217929   3.444   0.037   2.751
 5995TIP3    H117930   3.408   0.081   2.828
 5995TIP3    H217931   3.458   0.107   2.687
 5996TIP3   OH217932   7.554   3.354   1.119
 5996TIP3    H117933   7.562   3.337   1.025
 5996TIP3    H217934   7.507   3.278   1.153
 5997TIP3   OH217935   5.088   6.036   5.601
 5997TIP3    H117936   5.103   5.942   5.597
 5997TIP3    H217937   5.159   6.074   5.548
 5998TIP3   OH217938   3.446   7.621   3.202
 5998TIP3    H117939   3.435   7.545   3.144
 5998TIP3    H217940   3.492   7.686   3.150
 5999TIP3   OH217941   2.661   1.619   3.354
 5999TIP3    H117942   2.695   1.680   3.289
 5999TIP3    H217943   2.648   1.537   3.307
 6000TIP3   OH217944   5.483   0.890   0.800
 6000TIP3    H117945   5.451   0.921   0.885
 6000TIP3    H217946   5.444   0.949   0.736
 6001TIP3   OH217947   4.104   5.748   4.640
 6001TIP3    H117948   4.067   5.715   4.558
 6001TIP3    H217949   4.093   5.677   4.702
 6002TIP3   OH217950   7.131   3.563   1.150
 6002TIP3    H117951   7.216   3.600   1.128
 6002TIP3    H217952   7.140   3.470   1.132
 6003TIP3   OH217953   3.347   5.461   2.458
 6003TIP3    H117954   3.320   5.435   2.370
 6003TIP3    H217955   3.408   5.392   2.486
 6004TIP3   OH217956   4.746   4.295   4.223
 6004TIP3    H117957   4.726   4.387   4.244
 6004TIP3    H217958   4.762   4.254   4.307
 6005TIP3   OH217959   7.475   1.651   2.350
 6005TIP3    H117960   7.419   1.582   2.386
 6005TIP3    H217961   7.440   1.666   2.262
 6006TIP3   OH217962   5.812   7.443   3.237
 6006TIP3    H117963   5.817   7.394   3.154
 6006TIP3    H217964   5.899   7.435   3.275
 6007TIP3   OH217965   6.599   7.783   0.978
 6007TIP3    H117966   6.592   7.723   1.053
 6007TIP3    H217967   6.657   7.853   1.009
 6008TIP3   OH217968   3.086   0.757   4.095
 6008TIP3    H117969   3.143   0.782   4.022
 6008TIP3    H217970   3.009   0.717   4.054
 6009TIP3   OH217971   1.994   4.890   5.217
 6009TIP3    H117972   2.068   4.867   5.161
 6009TIP3    H217973   2.021   4.863   5.304
 6010TIP3   OH217974   2.169   4.874   0.066
 6010TIP3    H117975   2.201   4.951   0.113
 6010TIP3    H217976   2.073   4.886   0.066
 6011TIP3   OH217977   6.077   5.056   6.637
 6011TIP3    H117978   6.020   5.005   6.579
 6011TIP3    H217979   6.150   4.997   6.656
 6012TIP3   OH217980   6.719   7.164   1.073
 6012TIP3    H117981   6.685   7.108   1.004
 6012TIP3    H217982   6.766   7.233   1.027
 6013TIP3   OH217983   5.135   5.015   0.762
 6013TIP3    H117984   5.196   5.058   0.702
 6013TIP3    H217985   5.185   4.944   0.801
 6014TIP3   OH217986   4.962   3.275   2.120
 6014TIP3    H117987   4.988   3.185   2.141
 6014TIP3    H217988   4.989   3.326   2.197
 6015TIP3   OH217989   2.724   1.942   0.553
 6015TIP3    H117990   2.748   1.973   0.466
 6015TIP3    H217991   2.658   1.874   0.536
 6016TIP3   OH217992   7.742   2.239   2.745
 6016TIP3    H117993   7.760   2.272   2.833
 6016TIP3    H217994   7.654   2.269   2.725
 6017TIP3   OH217995   1.824   7.388   2.560
 6017TIP3    H117996   1.843   7.345   2.476
 6017TIP3    H217997   1.815   7.481   2.538
 6018TIP3   OH217998   1.729   1.702   6.552
 6018TIP3    H117999   1.803   1.687   6.493
 6018TIP3    H218000   1.666   1.632   6.531
 6019TIP3   OH218001   0.757   5.965   2.090
 6019TIP3    H118002   0.683   5.998   2.141
 6019TIP3    H218003   0.766   5.873   2.117
 6020TIP3   OH218004   0.853   1.561   2.355
 6020TIP3    H118005   0.821   1.470   2.359
 6020TIP3    H218006   0.784   1.609   2.308
 6021TIP3   OH218007   7.987   0.136   3.489
 6021TIP3    H118008   8.025   0.175   3.568
 6021TIP3    H218009   8.036   0.176   3.417
 6022TIP3   OH218010   1.286   1.600   4.421
 6022TIP3    H118011   1.258   1.551   4.499
 6022TIP3    H218012   1.375   1.628   4.441
 6023TIP3   OH218013   5.411   6.438   1.557
 6023TIP3    H118014   5.318   6.432   1.578
 6023TIP3    H218015   5.442   6.514   1.606
 6024TIP3   OH218016   5.081   7.613   5.617
 6024TIP3    H118017   5.064   7.555   5.543
 6024TIP3    H218018   5.146   7.676   5.583
 6025TIP3   OH218019   2.476   2.473   5.221
 6025TIP3    H118020   2.455   2.559   5.256
 6025TIP3    H218021   2.448   2.477   5.129
 6026TIP3   OH218022   6.395   2.513   6.417
 6026TIP3    H118023   6.456   2.583   6.441
 6026TIP3    H218024   6.451   2.437   6.404
 6027TIP3   OH218025   7.978   2.810   5.479
 6027TIP3    H118026   7.945   2.891   5.441
 6027TIP3    H218027   7.918   2.742   5.446
 6028TIP3   OH218028   7.490   4.584   0.279
 6028TIP3    H118029   7.524   4.625   0.200
 6028TIP3    H218030   7.568   4.561   0.330
 6029TIP3   OH218031   0.603   4.227   2.537
 6029TIP3    H118032   0.687   4.184   2.550
 6029TIP3    H218033   0.580   4.262   2.623
 6030TIP3   OH218034   3.951   6.685   0.079
 6030TIP3    H118035   3.977   6.600   0.112
 6030TIP3    H218036   4.017   6.707   0.014
 6031TIP3   OH218037   6.745   2.526   5.646
 6031TIP3    H118038   6.719   2.493   5.560
 6031TIP3    H218039   6.718   2.457   5.707
 6032TIP3   OH218040   7.835   4.370   2.283
 6032TIP3    H118041   7.795   4.305   2.224
 6032TIP3    H218042   7.761   4.407   2.331
 6033TIP3   OH218043   5.319   5.658   3.268
 6033TIP3    H118044   5.309   5.565   3.249
 6033TIP3    H218045   5.383   5.661   3.339
 6034TIP3   OH218046   4.983   2.987   2.190
 6034TIP3    H118047   4.945   3.024   2.270
 6034TIP3    H218048   4.923   2.918   2.164
 6035TIP3   OH218049   4.948   2.620   5.806
 6035TIP3    H118050   5.040   2.594   5.814
 6035TIP3    H218051   4.913   2.563   5.737
 6036TIP3   OH218052   4.155   0.409   1.263
 6036TIP3    H118053   4.086   0.348   1.291
 6036TIP3    H218054   4.232   0.383   1.314
 6037TIP3   OH218055   7.384   0.642   4.002
 6037TIP3    H118056   7.447   0.707   3.969
 6037TIP3    H218057   7.336   0.615   3.924
 6038TIP3   OH218058   7.682   7.603   4.902
 6038TIP3    H118059   7.663   7.678   4.957
 6038TIP3    H218060   7.658   7.527   4.955
 6039TIP3   OH218061   6.726   3.275   6.673
 6039TIP3    H118062   6.721   3.299   6.766
 6039TIP3    H218063   6.694   3.185   6.670
 6040TIP3   OH218064   5.011   7.124   2.560
 6040TIP3    H118065   5.099   7.143   2.593
 6040TIP3    H218066   5.016   7.034   2.529
 6041TIP3   OH218067   4.815   4.015   2.929
 6041TIP3    H118068   4.751   3.952   2.898
 6041TIP3    H218069   4.841   4.063   2.850
 6042TIP3   OH218070   0.029   2.257   1.232
 6042TIP3    H118071   0.110   2.265   1.281
 6042TIP3    H218072   0.051   2.203   1.156
 6043TIP3   OH218073   5.145   5.663   2.627
 6043TIP3    H118074   5.188   5.593   2.676
 6043TIP3    H218075   5.070   5.621   2.586
 6044TIP3   OH218076   1.221   5.794   4.354
 6044TIP3    H118077   1.255   5.812   4.442
 6044TIP3    H218078   1.129   5.771   4.368
 6045TIP3   OH218079   3.381   5.725   5.793
 6045TIP3    H118080   3.356   5.753   5.705
 6045TIP3    H218081   3.466   5.682   5.781
 6046TIP3   OH218082   4.226   5.099   0.771
 6046TIP3    H118083   4.249   5.040   0.699
 6046TIP3    H218084   4.134   5.121   0.754
 6047TIP3   OH218085   6.039   2.592   2.860
 6047TIP3    H118086   5.994   2.649   2.798
 6047TIP3    H218087   6.123   2.634   2.875
 6048TIP3   OH218088   2.921   1.672   5.773
 6048TIP3    H118089   2.988   1.740   5.770
 6048TIP3    H218090   2.838   1.719   5.775
 6049TIP3   OH218091   4.260   1.460   6.684
 6049TIP3    H118092   4.265   1.524   6.613
 6049TIP3    H218093   4.284   1.509   6.763
 6050TIP3   OH218094   4.171   6.881   6.264
 6050TIP3    H118095   4.251   6.929   6.286
 6050TIP3    H218096   4.133   6.930   6.192
 6051TIP3   OH218097   6.811   3.001   1.732
 6051TIP3    H118098   6.824   2.990   1.638
 6051TIP3    H218099   6.840   3.090   1.749
 6052TIP3   OH218100   2.956   7.392   5.037
 6052TIP3    H118101   3.018   7.321   5.056
 6052TIP3    H218102   2.882   7.376   5.096
 6053TIP3   OH218103   7.857   3.089   3.546
 6053TIP3    H118104   7.863   3.044   3.462
 6053TIP3    H218105   7.943   3.075   3.587
 6054TIP3   OH218106   3.258   2.244   6.401
 6054TIP3    H118107   3.263   2.311   6.469
 6054TIP3    H218108   3.184   2.189   6.427
 6055TIP3   OH218109   5.145   1.677   1.836
 6055TIP3    H118110   5.221   1.736   1.830
 6055TIP3    H218111   5.129   1.669   1.930
 6056TIP3   OH218112   4.632   5.419   4.750
 6056TIP3    H118113   4.708   5.364   4.769
 6056TIP3    H218114   4.623   5.416   4.655
 6057TIP3   OH218115   0.626   3.023   3.754
 6057TIP3    H118116   0.714   2.987   3.746
 6057TIP3    H218117   0.568   2.950   3.733
 6058TIP3   OH218118   2.616   2.783   5.281
 6058TIP3    H118119   2.600   2.762   5.189
 6058TIP3    H218120   2.668   2.709   5.313
 6059TIP3   OH218121   6.704   5.415   2.518
 6059TIP3    H118122   6.719   5.400   2.611
 6059TIP3    H218123   6.785   5.388   2.475
 6060TIP3   OH218124   4.665   5.790   1.411
 6060TIP3    H118125   4.699   5.838   1.335
 6060TIP3    H218126   4.625   5.857   1.466
 6061TIP3   OH218127   2.224   2.950   1.460
 6061TIP3    H118128   2.220   2.856   1.441
 6061TIP3    H218129   2.280   2.957   1.537
 6062TIP3   OH218130   0.757   1.656   0.128
 6062TIP3    H118131   0.843   1.671   0.088
 6062TIP3    H218132   0.741   1.735   0.180
 6063TIP3   OH218133   7.557   7.343   5.692
 6063TIP3    H118134   7.652   7.345   5.677
 6063TIP3    H218135   7.531   7.252   5.676
 6064TIP3   OH218136   3.868   4.119   1.702
 6064TIP3    H118137   3.890   4.098   1.793
 6064TIP3    H218138   3.925   4.063   1.650
 6065TIP3   OH218139   6.400   0.406   4.935
 6065TIP3    H118140   6.417   0.391   5.028
 6065TIP3    H218141   6.320   0.460   4.934
 6066TIP3   OH218142   4.842   1.982   0.733
 6066TIP3    H118143   4.779   1.911   0.716
 6066TIP3    H218144   4.922   1.936   0.757
 6067TIP3   OH218145   7.084   3.519   5.378
 6067TIP3    H118146   7.169   3.482   5.401
 6067TIP3    H218147   7.050   3.460   5.310
 6068TIP3   OH218148   7.406   3.006   4.725
 6068TIP3    H118149   7.429   2.913   4.737
 6068TIP3    H218150   7.489   3.047   4.698
 6069TIP3   OH218151   7.605   1.292   5.299
 6069TIP3    H118152   7.575   1.250   5.219
 6069TIP3    H218153   7.692   1.256   5.313
 6070TIP3   OH218154   6.438   2.465   0.411
 6070TIP3    H118155   6.391   2.395   0.365
 6070TIP3    H218156   6.395   2.545   0.381
 6071TIP3   OH218157   5.393   6.293   3.881
 6071TIP3    H118158   5.412   6.330   3.967
 6071TIP3    H218159   5.446   6.346   3.820
 6072TIP3   OH218160   7.295   3.448   3.734
 6072TIP3    H118161   7.372   3.463   3.789
 6072TIP3    H218162   7.329   3.406   3.656
 6073TIP3   OH218163   7.617   3.279   6.199
 6073TIP3    H118164   7.533   3.278   6.154
 6073TIP3    H218165   7.679   3.243   6.135
 6074TIP3   OH218166   5.479   2.723   3.618
 6074TIP3    H118167   5.389   2.694   3.599
 6074TIP3    H218168   5.480   2.815   3.594
 6075TIP3   OH218169   5.616   3.136   1.138
 6075TIP3    H118170   5.656   3.196   1.075
 6075TIP3    H218171   5.632   3.049   1.102
 6076TIP3   OH218172   7.416   7.734   0.769
 6076TIP3    H118173   7.407   7.694   0.855
 6076TIP3    H218174   7.410   7.828   0.786
 6077TIP3   OH218175   1.022   6.625   4.027
 6077TIP3    H118176   1.108   6.594   4.055
 6077TIP3    H218177   0.985   6.553   3.976
 6078TIP3   OH218178   0.551   6.239   0.293
 6078TIP3    H118179   0.521   6.158   0.251
 6078TIP3    H218180   0.615   6.275   0.232
 6079TIP3   OH218181   3.933   5.689   5.616
 6079TIP3    H118182   4.022   5.658   5.633
 6079TIP3    H218183   3.901   5.716   5.702
 6080TIP3   OH218184   3.617   6.975   6.463
 6080TIP3    H118185   3.588   6.884   6.464
 6080TIP3    H218186   3.649   6.990   6.553
 6081TIP3   OH218187   7.164   2.581   6.702
 6081TIP3    H118188   7.118   2.666   6.704
 6081TIP3    H218189   7.150   2.545   6.789
 6082TIP3   OH218190   2.352   4.379   4.440
 6082TIP3    H118191   2.318   4.324   4.369
 6082TIP3    H218192   2.281   4.441   4.457
 6083TIP3   OH218193   3.751   0.110   3.664
 6083TIP3    H118194   3.762   0.019   3.636
 6083TIP3    H218195   3.667   0.111   3.710
 6084TIP3   OH218196   3.143   5.946   1.502
 6084TIP3    H118197   3.226   5.978   1.466
 6084TIP3    H218198   3.089   6.025   1.511
 6085TIP3   OH218199   7.565   5.819   4.000
 6085TIP3    H118200   7.634   5.826   3.934
 6085TIP3    H218201   7.611   5.795   4.080
 6086TIP3   OH218202   8.269   5.711   1.733
 6086TIP3    H118203   8.233   5.675   1.814
 6086TIP3    H218204   8.230   5.798   1.725
 6087TIP3   OH218205   0.267   5.111   1.041
 6087TIP3    H118206   0.225   5.161   0.970
 6087TIP3    H218207   0.292   5.028   1.001
 6088TIP3   OH218208   0.886   5.611   1.964
 6088TIP3    H118209   0.873   5.598   2.057
 6088TIP3    H218210   0.953   5.679   1.958
 6089TIP3   OH218211   1.390   5.739   6.053
 6089TIP3    H118212   1.345   5.660   6.023
 6089TIP3    H218213   1.378   5.739   6.148
 6090TIP3   OH218214   1.937   2.887   5.737
 6090TIP3    H118215   1.886   2.935   5.802
 6090TIP3    H218216   1.904   2.918   5.652
 6091TIP3   OH218217   6.233   3.341   3.951
 6091TIP3    H118218   6.204   3.251   3.940
 6091TIP3    H218219   6.200   3.367   4.037
 6092TIP3   OH218220   2.271   2.072   1.576
 6092TIP3    H118221   2.198   2.119   1.536
 6092TIP3    H218222   2.232   1.992   1.611
 6093TIP3   OH218223   0.775   5.391   0.666
 6093TIP3    H118224   0.696   5.337   0.666
 6093TIP3    H218225   0.809   5.384   0.756
 6094TIP3   OH218226   0.756   6.664   6.389
 6094TIP3    H118227   0.849   6.647   6.378
 6094TIP3    H218228   0.749   6.760   6.391
 6095TIP3   OH218229   6.861   0.524   5.585
 6095TIP3    H118230   6.826   0.613   5.579
 6095TIP3    H218231   6.908   0.522   5.668
 6096TIP3   OH218232   5.918   2.614   4.248
 6096TIP3    H118233   5.992   2.557   4.269
 6096TIP3    H218234   5.900   2.597   4.156
 6097TIP3   OH218235   7.923   5.472   6.776
 6097TIP3    H118236   7.921   5.507   6.865
 6097TIP3    H218237   7.998   5.515   6.735
 6098TIP3   OH218238   1.850   5.580   2.308
 6098TIP3    H118239   1.791   5.519   2.264
 6098TIP3    H218240   1.925   5.526   2.334
 6099TIP3   OH218241   6.570   1.021   4.192
 6099TIP3    H118242   6.534   1.101   4.154
 6099TIP3    H218243   6.493   0.966   4.208
 6100TIP3   OH218244   7.803   5.268   1.818
 6100TIP3    H118245   7.852   5.256   1.899
 6100TIP3    H218246   7.783   5.178   1.789
 6101TIP3   OH218247   0.215   6.805   4.704
 6101TIP3    H118248   0.215   6.881   4.762
 6101TIP3    H218249   0.308   6.786   4.689
 6102TIP3   OH218250   6.827   5.931   3.768
 6102TIP3    H118251   6.920   5.916   3.787
 6102TIP3    H218252   6.820   5.924   3.673
 6103TIP3   OH218253   7.694   1.618   5.565
 6103TIP3    H118254   7.647   1.645   5.644
 6103TIP3    H218255   7.782   1.654   5.577
 6104TIP3   OH218256   3.813   7.421   4.029
 6104TIP3    H118257   3.833   7.330   4.049
 6104TIP3    H218258   3.743   7.417   3.964
 6105TIP3   OH218259   7.870   5.375   1.342
 6105TIP3    H118260   7.817   5.317   1.397
 6105TIP3    H218261   7.957   5.374   1.382
 6106TIP3   OH218262   1.207   5.529   2.824
 6106TIP3    H118263   1.156   5.448   2.814
 6106TIP3    H218264   1.142   5.599   2.816
 6107TIP3   OH218265   5.890   5.858   2.988
 6107TIP3    H118266   5.974   5.897   3.011
 6107TIP3    H218267   5.912   5.783   2.933
 6108TIP3   OH218268   6.266   7.613   0.275
 6108TIP3    H118269   6.282   7.520   0.261
 6108TIP3    H218270   6.341   7.657   0.233
 6109TIP3   OH218271   3.783   1.564   5.710
 6109TIP3    H118272   3.761   1.614   5.789
 6109TIP3    H218273   3.879   1.564   5.707
 6110TIP3   OH218274   5.574   4.691   4.621
 6110TIP3    H118275   5.550   4.756   4.688
 6110TIP3    H218276   5.542   4.728   4.539
 6111TIP3   OH218277   0.537   3.659   0.578
 6111TIP3    H118278   0.602   3.660   0.648
 6111TIP3    H218279   0.477   3.730   0.600
 6112TIP3   OH218280   6.872   1.508   6.122
 6112TIP3    H118281   6.907   1.494   6.210
 6112TIP3    H218282   6.935   1.467   6.064
 6113TIP3   OH218283   3.253   2.421   0.106
 6113TIP3    H118284   3.159   2.419   0.122
 6113TIP3    H218285   3.262   2.447   0.015
 6114TIP3   OH218286   3.504   5.346   4.017
 6114TIP3    H118287   3.562   5.284   4.062
 6114TIP3    H218288   3.546   5.431   4.029
 6115TIP3   OH218289   6.139   2.943   4.457
 6115TIP3    H118290   6.074   2.879   4.486
 6115TIP3    H218291   6.204   2.944   4.527
 6116TIP3   OH218292   7.232   3.911   4.369
 6116TIP3    H118293   7.245   3.817   4.358
 6116TIP3    H218294   7.320   3.949   4.360
 6117TIP3   OH218295   6.934   2.327   6.182
 6117TIP3    H118296   6.963   2.374   6.104
 6117TIP3    H218297   6.895   2.394   6.238
 6118TIP3   OH218298   5.811   3.500   2.009
 6118TIP3    H118299   5.798   3.595   2.010
 6118TIP3    H218300   5.891   3.486   2.061
 6119TIP3   OH218301   3.922   1.614   0.033
 6119TIP3    H118302   3.855   1.583   0.093
 6119TIP3    H218303   3.944   1.702   0.065
 6120TIP3   OH218304   7.630   3.673   0.499
 6120TIP3    H118305   7.689   3.703   0.568
 6120TIP3    H218306   7.554   3.637   0.545
 6121TIP3   OH218307   1.059   2.095   6.231
 6121TIP3    H118308   1.122   2.030   6.261
 6121TIP3    H218309   0.977   2.046   6.219
 6122TIP3   OH218310   1.978   1.777   2.068
 6122TIP3    H118311   1.994   1.758   2.160
 6122TIP3    H218312   2.011   1.699   2.022
 6123TIP3   OH218313   0.308   1.390   3.892
 6123TIP3    H118314   0.222   1.424   3.869
 6123TIP3    H218315   0.367   1.465   3.881
 6124TIP3   OH218316   6.548   7.722   3.977
 6124TIP3    H118317   6.617   7.781   3.947
 6124TIP3    H218318   6.568   7.706   4.069
 6125TIP3   OH218319   3.237   6.464   5.078
 6125TIP3    H118320   3.291   6.430   5.150
 6125TIP3    H218321   3.261   6.410   5.002
 6126TIP3   OH218322   1.777   0.416   1.363
 6126TIP3    H118323   1.768   0.508   1.389
 6126TIP3    H218324   1.862   0.411   1.320
 6127TIP3   OH218325   2.650   3.708   2.546
 6127TIP3    H118326   2.723   3.690   2.487
 6127TIP3    H218327   2.681   3.682   2.632
 6128TIP3   OH218328   5.038   3.754   2.529
 6128TIP3    H118329   5.076   3.707   2.455
 6128TIP3    H218330   4.987   3.688   2.576
 6129TIP3   OH218331   8.046   4.879   0.588
 6129TIP3    H118332   8.045   4.803   0.530
 6129TIP3    H218333   7.967   4.928   0.565
 6130TIP3   OH218334   3.413   2.954   1.405
 6130TIP3    H118335   3.386   2.866   1.431
 6130TIP3    H218336   3.426   2.948   1.310
 6131TIP3   OH218337   1.160   0.224   1.712
 6131TIP3    H118338   1.154   0.135   1.745
 6131TIP3    H218339   1.251   0.250   1.729
 6132TIP3   OH218340   0.381   0.858   3.932
 6132TIP3    H118341   0.397   0.852   3.838
 6132TIP3    H218342   0.406   0.948   3.955
 6133TIP3   OH218343   5.402   1.081   5.108
 6133TIP3    H118344   5.386   0.996   5.066
 6133TIP3    H218345   5.324   1.096   5.161
 6134TIP3   OH218346   2.742   3.234   2.390
 6134TIP3    H118347   2.835   3.255   2.404
 6134TIP3    H218348   2.699   3.319   2.384
 6135TIP3   OH218349   0.263   5.956   6.004
 6135TIP3    H118350   0.356   5.942   5.984
 6135TIP3    H218351   0.238   5.880   6.056
 6136TIP3   OH218352   7.685   3.663   4.572
 6136TIP3    H118353   7.748   3.688   4.639
 6136TIP3    H218354   7.657   3.746   4.533
 6137TIP3   OH218355   5.704   2.146   1.160
 6137TIP3    H118356   5.762   2.201   1.106
 6137TIP3    H218357   5.660   2.088   1.097
 6138TIP3   OH218358   2.400   3.872   5.762
 6138TIP3    H118359   2.358   3.847   5.680
 6138TIP3    H218360   2.364   3.958   5.783
 6139TIP3   OH218361   5.249   2.438   6.159
 6139TIP3    H118362   5.185   2.481   6.216
 6139TIP3    H218363   5.334   2.467   6.190
 6140TIP3   OH218364   0.333   3.666   2.179
 6140TIP3    H118365   0.267   3.612   2.223
 6140TIP3    H218366   0.312   3.656   2.086
 6141TIP3   OH218367   3.823   4.845   2.554
 6141TIP3    H118368   3.864   4.862   2.469
 6141TIP3    H218369   3.897   4.832   2.614
 6142TIP3   OH218370   6.160   1.239   3.366
 6142TIP3    H118371   6.123   1.283   3.443
 6142TIP3    H218372   6.235   1.293   3.341
 6143TIP3   OH218373   4.074   4.872   0.938
 6143TIP3    H118374   4.149   4.823   0.903
 6143TIP3    H218375   4.006   4.861   0.871
 6144TIP3   OH218376   5.652   6.688   0.418
 6144TIP3    H118377   5.582   6.706   0.355
 6144TIP3    H218378   5.687   6.603   0.392
 6145TIP3   OH218379   4.249   0.666   2.286
 6145TIP3    H118380   4.332   0.690   2.326
 6145TIP3    H218381   4.272   0.596   2.225
 6146TIP3   OH218382   6.577   3.175   2.533
 6146TIP3    H118383   6.602   3.239   2.466
 6146TIP3    H218384   6.497   3.135   2.499
 6147TIP3   OH218385   2.464   3.383   5.951
 6147TIP3    H118386   2.430   3.428   5.873
 6147TIP3    H218387   2.447   3.291   5.935
 6148TIP3   OH218388   6.290   0.957   0.301
 6148TIP3    H118389   6.240   1.019   0.354
 6148TIP3    H218390   6.264   0.976   0.210
 6149TIP3   OH218391   4.492   3.850   1.323
 6149TIP3    H118392   4.420   3.840   1.384
 6149TIP3    H218393   4.453   3.892   1.246
 6150TIP3   OH218394   0.753   3.475   5.154
 6150TIP3    H118395   0.751   3.568   5.133
 6150TIP3    H218396   0.671   3.440   5.119
 6151TIP3   OH218397   4.052   2.600   6.391
 6151TIP3    H118398   4.094   2.514   6.388
 6151TIP3    H218399   3.967   2.587   6.350
 6152TIP3   OH218400   0.355   4.710   3.189
 6152TIP3    H118401   0.295   4.640   3.162
 6152TIP3    H218402   0.323   4.788   3.143
 6153TIP3   OH218403   3.275   5.905   2.553
 6153TIP3    H118404   3.267   5.979   2.613
 6153TIP3    H218405   3.216   5.927   2.480
 6154TIP3   OH218406   3.690   3.126   1.199
 6154TIP3    H118407   3.672   3.044   1.154
 6154TIP3    H218408   3.694   3.103   1.292
 6155TIP3   OH218409   1.610   5.692   4.890
 6155TIP3    H118410   1.624   5.597   4.887
 6155TIP3    H218411   1.515   5.701   4.892
 6156TIP3   OH218412   8.332   5.260   3.901
 6156TIP3    H118413   8.237   5.257   3.894
 6156TIP3    H218414   8.363   5.233   3.815
 6157TIP3   OH218415   5.889   0.852   6.198
 6157TIP3    H118416   5.941   0.773   6.213
 6157TIP3    H218417   5.799   0.820   6.191
 6158TIP3   OH218418   1.079   7.643   2.687
 6158TIP3    H118419   0.993   7.635   2.729
 6158TIP3    H218420   1.140   7.604   2.750
 6159TIP3   OH218421   0.763   7.415   4.303
 6159TIP3    H118422   0.732   7.325   4.309
 6159TIP3    H218423   0.855   7.408   4.278
 6160TIP3   OH218424   4.520   5.632   1.106
 6160TIP3    H118425   4.502   5.605   1.016
 6160TIP3    H218426   4.468   5.711   1.119
 6161TIP3   OH218427   1.424   2.337   3.664
 6161TIP3    H118428   1.366   2.343   3.588
 6161TIP3    H218429   1.366   2.353   3.739
 6162TIP3   OH218430   5.387   7.512   4.993
 6162TIP3    H118431   5.371   7.600   5.026
 6162TIP3    H218432   5.308   7.490   4.945
 6163TIP3   OH218433   3.718   0.514   1.487
 6163TIP3    H118434   3.743   0.590   1.435
 6163TIP3    H218435   3.801   0.474   1.513
 6164TIP3   OH218436   5.436   6.686   1.721
 6164TIP3    H118437   5.393   6.719   1.643
 6164TIP3    H218438   5.365   6.651   1.775
 6165TIP3   OH218439   5.456   3.027   0.724
 6165TIP3    H118440   5.398   3.021   0.648
 6165TIP3    H218441   5.419   2.964   0.787
 6166TIP3   OH218442   1.284   2.746   5.344
 6166TIP3    H118443   1.235   2.800   5.282
 6166TIP3    H218444   1.345   2.807   5.387
 6167TIP3   OH218445   1.349   7.448   0.865
 6167TIP3    H118446   1.419   7.395   0.903
 6167TIP3    H218447   1.288   7.384   0.828
 6168TIP3   OH218448   0.717   1.407   5.862
 6168TIP3    H118449   0.641   1.444   5.907
 6168TIP3    H218450   0.695   1.314   5.851
 6169TIP3   OH218451   4.920   0.520   1.901
 6169TIP3    H118452   4.955   0.432   1.888
 6169TIP3    H218453   4.956   0.571   1.829
 6170TIP3   OH218454   0.089   2.126   5.790
 6170TIP3    H118455   0.040   2.044   5.801
 6170TIP3    H218456   0.044   2.171   5.719
 6171TIP3   OH218457   4.711   3.057   6.342
 6171TIP3    H118458   4.634   3.079   6.395
 6171TIP3    H218459   4.684   2.979   6.293
 6172TIP3   OH218460   5.470   2.853   2.028
 6172TIP3    H118461   5.519   2.827   2.106
 6172TIP3    H218462   5.384   2.879   2.062
 6173TIP3   OH218463   5.968   7.212   2.802
 6173TIP3    H118464   5.939   7.298   2.771
 6173TIP3    H218465   6.060   7.207   2.774
 6174TIP3   OH218466   4.198   4.146   0.797
 6174TIP3    H118467   4.243   4.121   0.716
 6174TIP3    H218468   4.110   4.109   0.787
 6175TIP3   OH218469   8.027   4.588   4.345
 6175TIP3    H118470   8.074   4.516   4.386
 6175TIP3    H218471   7.936   4.576   4.371
 6176TIP3   OH218472   1.424   1.062   1.793
 6176TIP3    H118473   1.497   1.091   1.738
 6176TIP3    H218474   1.353   1.122   1.771
 6177TIP3   OH218475   7.711   6.702   0.422
 6177TIP3    H118476   7.730   6.784   0.378
 6177TIP3    H218477   7.698   6.638   0.352
 6178TIP3   OH218478   7.052   7.402   1.894
 6178TIP3    H118479   7.132   7.455   1.885
 6178TIP3    H218480   7.080   7.324   1.942
 6179TIP3   OH218481   2.162   2.465   4.887
 6179TIP3    H118482   2.120   2.551   4.897
 6179TIP3    H218483   2.136   2.436   4.799
 6180TIP3   OH218484   0.310   0.522   1.722
 6180TIP3    H118485   0.308   0.429   1.699
 6180TIP3    H218486   0.369   0.527   1.798
 6181TIP3   OH218487   6.414   5.818   3.626
 6181TIP3    H118488   6.443   5.899   3.584
 6181TIP3    H218489   6.409   5.755   3.555
 6182TIP3   OH218490   1.702   4.291   5.929
 6182TIP3    H118491   1.633   4.275   5.994
 6182TIP3    H218492   1.769   4.226   5.950
 6183TIP3   OH218493   6.721   0.685   4.191
 6183TIP3    H118494   6.767   0.739   4.126
 6183TIP3    H218495   6.630   0.713   4.186
 6184TIP3   OH218496   5.837   5.966   2.287
 6184TIP3    H118497   5.787   6.015   2.353
 6184TIP3    H218498   5.771   5.932   2.228
 6185TIP3   OH218499   4.119   5.855   6.398
 6185TIP3    H118500   4.147   5.858   6.307
 6185TIP3    H218501   4.194   5.890   6.447
 6186TIP3   OH218502   6.943   0.437   0.622
 6186TIP3    H118503   6.947   0.470   0.712
 6186TIP3    H218504   6.962   0.513   0.567
 6187TIP3   OH218505   6.620   4.019   0.472
 6187TIP3    H118506   6.633   4.090   0.408
 6187TIP3    H218507   6.534   3.985   0.452
 6188TIP3   OH218508   5.188   4.546   2.781
 6188TIP3    H118509   5.258   4.504   2.731
 6188TIP3    H218510   5.232   4.583   2.858
 6189TIP3   OH218511   0.814   4.328   1.302
 6189TIP3    H118512   0.839   4.262   1.366
 6189TIP3    H218513   0.896   4.369   1.276
 6190TIP3   OH218514   3.073   0.152   1.150
 6190TIP3    H118515   3.144   0.097   1.118
 6190TIP3    H218516   3.009   0.089   1.184
 6191TIP3   OH218517   1.318   0.611   3.192
 6191TIP3    H118518   1.345   0.547   3.258
 6191TIP3    H218519   1.223   0.604   3.190
 6192TIP3   OH218520   5.976   0.652   5.188
 6192TIP3    H118521   5.901   0.693   5.229
 6192TIP3    H218522   5.943   0.567   5.157
 6193TIP3   OH218523   4.562   1.827   4.240
 6193TIP3    H118524   4.649   1.835   4.278
 6193TIP3    H218525   4.575   1.834   4.146
 6194TIP3   OH218526   7.023   5.777   2.157
 6194TIP3    H118527   7.045   5.783   2.250
 6194TIP3    H218528   7.108   5.778   2.113
 6195TIP3   OH218529   6.863   5.996   0.553
 6195TIP3    H118530   6.777   6.012   0.515
 6195TIP3    H218531   6.884   6.077   0.599
 6196TIP3   OH218532   2.536   4.012   4.508
 6196TIP3    H118533   2.521   4.099   4.545
 6196TIP3    H218534   2.471   4.003   4.439
 6197TIP3   OH218535   2.045   0.207   2.732
 6197TIP3    H118536   2.124   0.218   2.680
 6197TIP3    H218537   1.978   0.179   2.670
 6198TIP3   OH218538   4.161   6.250   3.438
 6198TIP3    H118539   4.084   6.196   3.459
 6198TIP3    H218540   4.147   6.331   3.488
 6199TIP3   OH218541   6.825   2.074   6.402
 6199TIP3    H118542   6.761   2.130   6.447
 6199TIP3    H218543   6.908   2.119   6.414
 6200TIP3   OH218544   7.785   4.280   3.828
 6200TIP3    H118545   7.751   4.365   3.801
 6200TIP3    H218546   7.880   4.292   3.831
 6201TIP3   OH218547   7.245   3.297   6.654
 6201TIP3    H118548   7.242   3.341   6.739
 6201TIP3    H218549   7.333   3.258   6.651
 6202TIP3   OH218550   3.002   3.423   1.624
 6202TIP3    H118551   3.065   3.353   1.637
 6202TIP3    H218552   3.025   3.461   1.539
 6203TIP3   OH218553   2.977   3.580   4.331
 6203TIP3    H118554   2.944   3.665   4.362
 6203TIP3    H218555   2.929   3.515   4.382
 6204TIP3   OH218556   6.126   2.870   1.736
 6204TIP3    H118557   6.084   2.862   1.650
 6204TIP3    H218558   6.092   2.796   1.786
 6205TIP3   OH218559   1.403   6.775   5.559
 6205TIP3    H118560   1.478   6.831   5.578
 6205TIP3    H218561   1.340   6.795   5.628
 6206TIP3   OH218562   3.036   6.948   5.189
 6206TIP3    H118563   2.954   6.938   5.141
 6206TIP3    H218564   3.087   6.870   5.168
 6207TIP3   OH218565   7.866   3.932   6.137
 6207TIP3    H118566   7.807   3.869   6.179
 6207TIP3    H218567   7.811   4.008   6.118
 6208TIP3   OH218568   4.654   0.629   1.961
 6208TIP3    H118569   4.743   0.605   1.934
 6208TIP3    H218570   4.633   0.567   2.031
 6209TIP3   OH218571   5.513   6.803   0.203
 6209TIP3    H118572   5.568   6.772   0.131
 6209TIP3    H218573   5.426   6.768   0.183
 6210TIP3   OH218574   1.109   6.448   3.339
 6210TIP3    H118575   1.077   6.510   3.404
 6210TIP3    H218576   1.030   6.408   3.304
 6211TIP3   OH218577   5.627   6.633   3.581
 6211TIP3    H118578   5.559   6.677   3.530
 6211TIP3    H218579   5.674   6.703   3.625
 6212TIP3   OH218580   2.276   1.021   5.044
 6212TIP3    H118581   2.362   0.987   5.068
 6212TIP3    H218582   2.249   1.072   5.121
 6213TIP3   OH218583   7.910   6.861   2.930
 6213TIP3    H118584   7.860   6.788   2.967
 6213TIP3    H218585   7.995   6.856   2.974
 6214TIP3   OH218586   0.822   1.514   3.040
 6214TIP3    H118587   0.735   1.473   3.039
 6214TIP3    H218588   0.862   1.487   2.957
 6215TIP3   OH218589   0.214   4.942   3.130
 6215TIP3    H118590   0.138   4.977   3.177
 6215TIP3    H218591   0.204   4.974   3.041
 6216TIP3   OH218592   2.508   3.747   5.183
 6216TIP3    H118593   2.457   3.666   5.174
 6216TIP3    H218594   2.501   3.789   5.097
 6217TIP3   OH218595   4.494   1.224   2.715
 6217TIP3    H118596   4.533   1.220   2.628
 6217TIP3    H218597   4.401   1.241   2.699
 6218TIP3   OH218598   5.557   6.430   0.095
 6218TIP3    H118599   5.608   6.510   0.082
 6218TIP3    H218600   5.611   6.361   0.055
 6219TIP3   OH218601   7.785   3.117   4.214
 6219TIP3    H118602   7.698   3.153   4.197
 6219TIP3    H218603   7.796   3.126   4.309
 6220TIP3   OH218604   7.980   0.075   3.011
 6220TIP3    H118605   7.972   0.026   3.093
 6220TIP3    H218606   8.065   0.049   2.977
 6221TIP3   OH218607   8.325   2.358   5.303
 6221TIP3    H118608   8.232   2.352   5.280
 6221TIP3    H218609   8.369   2.299   5.242
 6222TIP3   OH218610   5.147   3.021   2.713
 6222TIP3    H118611   5.178   2.932   2.727
 6222TIP3    H218612   5.226   3.073   2.702
 6223TIP3   OH218613   0.122   4.819   6.475
 6223TIP3    H118614   0.088   4.754   6.413
 6223TIP3    H218615   0.210   4.839   6.443
 6224TIP3   OH218616   6.691   4.334   2.140
 6224TIP3    H118617   6.634   4.410   2.143
 6224TIP3    H218618   6.735   4.334   2.225
 6225TIP3   OH218619   7.722   6.054   0.374
 6225TIP3    H118620   7.689   5.993   0.307
 6225TIP3    H218621   7.669   6.133   0.362
 6226TIP3   OH218622   1.252   2.828   2.428
 6226TIP3    H118623   1.332   2.875   2.405
 6226TIP3    H218624   1.262   2.743   2.385
 6227TIP3   OH218625   0.230   4.236   3.442
 6227TIP3    H118626   0.297   4.169   3.427
 6227TIP3    H218627   0.147   4.193   3.424
 6228TIP3   OH218628   1.247   5.273   0.651
 6228TIP3    H118629   1.263   5.201   0.590
 6228TIP3    H218630   1.333   5.308   0.669
 6229TIP3   OH218631   0.646   7.779   4.062
 6229TIP3    H118632   0.615   7.728   4.137
 6229TIP3    H218633   0.701   7.718   4.013
 6230TIP3   OH218634   0.091   0.339   3.532
 6230TIP3    H118635   0.141   0.318   3.611
 6230TIP3    H218636   0.000   0.339   3.561
 6231TIP3   OH218637   4.289   6.178   0.886
 6231TIP3    H118638   4.353   6.248   0.901
 6231TIP3    H218639   4.297   6.157   0.793
 6232TIP3   OH218640   0.000   3.163   2.903
 6232TIP3    H118641   0.088   3.135   2.877
 6232TIP3    H218642  -0.019   3.237   2.846
 6233TIP3   OH218643   6.251   6.217   0.859
 6233TIP3    H118644   6.165   6.192   0.891
 6233TIP3    H218645   6.294   6.259   0.934
 6234TIP3   OH218646   2.789   5.293   0.826
 6234TIP3    H118647   2.847   5.366   0.803
 6234TIP3    H218648   2.836   5.215   0.796
 6235TIP3   OH218649   2.912   4.306   0.500
 6235TIP3    H118650   2.921   4.210   0.499
 6235TIP3    H218651   2.903   4.330   0.408
 6236TIP3   OH218652   6.732   2.082   2.769
 6236TIP3    H118653   6.717   2.127   2.686
 6236TIP3    H218654   6.821   2.107   2.794
 6237TIP3   OH218655   2.144   1.813   1.635
 6237TIP3    H118656   2.141   1.764   1.553
 6237TIP3    H218657   2.064   1.789   1.681
 6238TIP3   OH218658   4.503   3.708   4.434
 6238TIP3    H118659   4.563   3.761   4.381
 6238TIP3    H218660   4.424   3.702   4.381
 6239TIP3   OH218661   4.765   4.829   2.579
 6239TIP3    H118662   4.765   4.739   2.547
 6239TIP3    H218663   4.743   4.882   2.503
 6240TIP3   OH218664   6.353   3.676   5.672
 6240TIP3    H118665   6.408   3.641   5.602
 6240TIP3    H218666   6.289   3.732   5.626
 6241TIP3   OH218667   6.324   3.681   2.368
 6241TIP3    H118668   6.414   3.711   2.381
 6241TIP3    H218669   6.287   3.744   2.306
 6242TIP3   OH218670   7.855   1.144   4.645
 6242TIP3    H118671   7.842   1.093   4.565
 6242TIP3    H218672   7.807   1.225   4.630
 6243TIP3   OH218673   3.964   1.916   4.779
 6243TIP3    H118674   4.046   1.891   4.735
 6243TIP3    H218675   3.931   1.834   4.816
 6244TIP3   OH218676   0.863   3.518   3.209
 6244TIP3    H118677   0.843   3.503   3.301
 6244TIP3    H218678   0.788   3.566   3.176
 6245TIP3   OH218679   2.178   7.110   6.736
 6245TIP3    H118680   2.168   7.038   6.799
 6245TIP3    H218681   2.151   7.072   6.652
 6246TIP3   OH218682   4.979   7.232   1.577
 6246TIP3    H118683   5.009   7.154   1.529
 6246TIP3    H218684   4.883   7.227   1.571
 6247TIP3   OH218685   3.001   2.989   0.757
 6247TIP3    H118686   3.073   3.051   0.770
 6247TIP3    H218687   3.006   2.965   0.665
 6248TIP3   OH218688   2.020   2.155   1.532
 6248TIP3    H118689   2.023   2.246   1.500
 6248TIP3    H218690   1.961   2.158   1.606
 6249TIP3   OH218691   8.068   2.388   3.376
 6249TIP3    H118692   8.153   2.373   3.417
 6249TIP3    H218693   8.079   2.470   3.327
 6250TIP3   OH218694   4.238   1.044   1.912
 6250TIP3    H118695   4.311   1.039   1.973
 6250TIP3    H218696   4.160   1.054   1.967
 6251TIP3   OH218697   2.985   2.179   0.657
 6251TIP3    H118698   2.903   2.174   0.705
 6251TIP3    H218699   2.961   2.208   0.569
 6252TIP3   OH218700   2.307   0.583   1.549
 6252TIP3    H118701   2.263   0.511   1.596
 6252TIP3    H218702   2.350   0.540   1.476
 6253TIP3   OH218703   1.687   3.192   3.303
 6253TIP3    H118704   1.718   3.103   3.316
 6253TIP3    H218705   1.765   3.241   3.277
 6254TIP3   OH218706   1.368   5.292   2.442
 6254TIP3    H118707   1.450   5.340   2.442
 6254TIP3    H218708   1.324   5.320   2.362
 6255TIP3   OH218709   2.201   4.590   1.873
 6255TIP3    H118710   2.148   4.645   1.815
 6255TIP3    H218711   2.220   4.645   1.948
 6256TIP3   OH218712   4.753   7.683   3.410
 6256TIP3    H118713   4.816   7.611   3.408
 6256TIP3    H218714   4.803   7.760   3.383
 6257TIP3   OH218715   2.497   1.820   5.262
 6257TIP3    H118716   2.414   1.853   5.295
 6257TIP3    H218717   2.540   1.782   5.339
 6258TIP3   OH218718   5.623   2.768   4.130
 6258TIP3    H118719   5.569   2.723   4.195
 6258TIP3    H218720   5.575   2.848   4.111
 6259TIP3   OH218721   6.793   1.693   0.937
 6259TIP3    H118722   6.875   1.669   0.893
 6259TIP3    H218723   6.725   1.648   0.886
 6260TIP3   OH218724   0.415   2.570   3.700
 6260TIP3    H118725   0.324   2.541   3.692
 6260TIP3    H218726   0.460   2.495   3.740
 6261TIP3   OH218727   5.409   3.041   3.746
 6261TIP3    H118728   5.450   3.039   3.659
 6261TIP3    H218729   5.315   3.041   3.728
 6262TIP3   OH218730   7.841   3.519   1.654
 6262TIP3    H118731   7.803   3.442   1.612
 6262TIP3    H218732   7.892   3.561   1.585
 6263TIP3   OH218733   3.517   0.165   3.822
 6263TIP3    H118734   3.469   0.240   3.787
 6263TIP3    H218735   3.540   0.191   3.911
 6264TIP3   OH218736   1.872   5.461   1.102
 6264TIP3    H118737   1.788   5.449   1.147
 6264TIP3    H218738   1.850   5.510   1.023
 6265TIP3   OH218739   2.257   4.359   5.141
 6265TIP3    H118740   2.247   4.265   5.152
 6265TIP3    H218741   2.205   4.397   5.212
 6266TIP3   OH218742   3.892   5.016   3.953
 6266TIP3    H118743   3.952   5.085   3.979
 6266TIP3    H218744   3.936   4.934   3.976
 6267TIP3   OH218745   3.776   2.695   0.517
 6267TIP3    H118746   3.760   2.616   0.465
 6267TIP3    H218747   3.806   2.663   0.602
 6268TIP3   OH218748   3.468   1.491   2.817
 6268TIP3    H118749   3.420   1.574   2.812
 6268TIP3    H218750   3.556   1.513   2.786
 6269TIP3   OH218751   0.911   7.145   6.404
 6269TIP3    H118752   0.980   7.188   6.353
 6269TIP3    H218753   0.877   7.214   6.461
 6270TIP3   OH218754   2.528   7.709   3.535
 6270TIP3    H118755   2.584   7.758   3.596
 6270TIP3    H218756   2.538   7.755   3.451
 6271TIP3   OH218757   8.237   3.583   3.963
 6271TIP3    H118758   8.212   3.556   4.051
 6271TIP3    H218759   8.331   3.562   3.957
 6272TIP3   OH218760   5.429   1.852   2.352
 6272TIP3    H118761   5.350   1.886   2.395
 6272TIP3    H218762   5.499   1.867   2.415
 6273TIP3   OH218763   0.881   5.522   0.159
 6273TIP3    H118764   0.809   5.512   0.097
 6273TIP3    H218765   0.959   5.498   0.108
 6274TIP3   OH218766   2.828   4.615   2.655
 6274TIP3    H118767   2.816   4.687   2.592
 6274TIP3    H218768   2.787   4.540   2.613
 6275TIP3   OH218769   0.834   1.830   0.507
 6275TIP3    H118770   0.911   1.845   0.452
 6275TIP3    H218771   0.831   1.907   0.564
 6276TIP3   OH218772   2.189   7.118   2.774
 6276TIP3    H118773   2.098   7.140   2.796
 6276TIP3    H218774   2.196   7.025   2.793
 6277TIP3   OH218775   0.182   2.102   2.020
 6277TIP3    H118776   0.103   2.155   2.012
 6277TIP3    H218777   0.247   2.162   2.057
 6278TIP3   OH218778   4.094   2.897   3.788
 6278TIP3    H118779   4.154   2.837   3.832
 6278TIP3    H218780   4.149   2.970   3.760
 6279TIP3   OH218781   6.476   7.678   5.596
 6279TIP3    H118782   6.521   7.600   5.629
 6279TIP3    H218783   6.507   7.687   5.506
 6280TIP3   OH218784   4.136   0.574   5.801
 6280TIP3    H118785   4.101   0.489   5.775
 6280TIP3    H218786   4.149   0.567   5.896
 6281TIP3   OH218787   2.448   3.691   4.779
 6281TIP3    H118788   2.531   3.727   4.749
 6281TIP3    H218789   2.384   3.759   4.759
 6282TIP3   OH218790   3.592   1.136   5.758
 6282TIP3    H118791   3.670   1.125   5.813
 6282TIP3    H218792   3.540   1.057   5.776
 6283TIP3   OH218793   1.635   2.417   4.163
 6283TIP3    H118794   1.652   2.393   4.071
 6283TIP3    H218795   1.615   2.510   4.160
 6284TIP3   OH218796   6.496   1.732   2.773
 6284TIP3    H118797   6.509   1.732   2.868
 6284TIP3    H218798   6.584   1.727   2.736
 6285TIP3   OH218799   0.534   6.235   3.047
 6285TIP3    H118800   0.458   6.235   3.105
 6285TIP3    H218801   0.559   6.327   3.039
 6286TIP3   OH218802   4.047   6.489   6.156
 6286TIP3    H118803   3.973   6.471   6.214
 6286TIP3    H218804   4.124   6.461   6.206
 6287TIP3   OH218805   6.822   6.793   3.406
 6287TIP3    H118806   6.808   6.701   3.431
 6287TIP3    H218807   6.846   6.790   3.314
 6288TIP3   OH218808   0.290   1.012   2.358
 6288TIP3    H118809   0.210   0.961   2.347
 6288TIP3    H218810   0.360   0.947   2.361
 6289TIP3   OH218811   3.708   2.389   3.739
 6289TIP3    H118812   3.643   2.458   3.722
 6289TIP3    H218813   3.660   2.307   3.728
 6290TIP3   OH218814   3.244   5.504   3.538
 6290TIP3    H118815   3.297   5.462   3.606
 6290TIP3    H218816   3.154   5.498   3.572
 6291TIP3   OH218817   4.071   5.117   1.065
 6291TIP3    H118818   4.085   5.035   1.017
 6291TIP3    H218819   3.985   5.148   1.034
 6292TIP3   OH218820   0.960   2.245   0.661
 6292TIP3    H118821   0.984   2.171   0.718
 6292TIP3    H218822   1.028   2.245   0.594
 6293TIP3   OH218823   3.240   3.036   3.739
 6293TIP3    H118824   3.182   3.024   3.664
 6293TIP3    H218825   3.326   3.007   3.709
 6294TIP3   OH218826   2.042   6.777   5.311
 6294TIP3    H118827   2.103   6.735   5.371
 6294TIP3    H218828   2.031   6.714   5.240
 6295TIP3   OH218829   6.358   1.760   5.552
 6295TIP3    H118830   6.384   1.793   5.466
 6295TIP3    H218831   6.263   1.771   5.554
 6296TIP3   OH218832   6.490   3.968   1.627
 6296TIP3    H118833   6.445   4.046   1.661
 6296TIP3    H218834   6.430   3.932   1.562
 6297TIP3   OH218835   2.873   6.325   6.522
 6297TIP3    H118836   2.939   6.384   6.557
 6297TIP3    H218837   2.921   6.245   6.501
 6298TIP3   OH218838   4.590   6.799   2.073
 6298TIP3    H118839   4.677   6.780   2.037
 6298TIP3    H218840   4.547   6.850   2.005
 6299TIP3   OH218841   0.358   4.652   5.242
 6299TIP3    H118842   0.316   4.570   5.216
 6299TIP3    H218843   0.285   4.713   5.257
 6300TIP3   OH218844   3.043   5.309   3.041
 6300TIP3    H118845   3.083   5.379   2.989
 6300TIP3    H218846   3.106   5.293   3.111
 6301TIP3   OH218847   1.479   3.877   2.839
 6301TIP3    H118848   1.486   3.838   2.926
 6301TIP3    H218849   1.385   3.880   2.822
 6302TIP3   OH218850   4.638   2.266   4.080
 6302TIP3    H118851   4.582   2.290   4.006
 6302TIP3    H218852   4.580   2.275   4.156
 6303TIP3   OH218853   4.805   3.527   3.754
 6303TIP3    H118854   4.844   3.609   3.783
 6303TIP3    H218855   4.816   3.527   3.659
 6304TIP3   OH218856   1.262   4.420   0.011
 6304TIP3    H118857   1.350   4.452   0.028
 6304TIP3    H218858   1.252   4.344   0.068
 6305TIP3   OH218859   4.271   1.995   3.915
 6305TIP3    H118860   4.248   1.928   3.850
 6305TIP3    H218861   4.239   1.959   3.998
 6306TIP3   OH218862   0.418   0.042   0.593
 6306TIP3    H118863   0.467  -0.031   0.554
 6306TIP3    H218864   0.458   0.053   0.679
 6307TIP3   OH218865   5.294   4.540   5.145
 6307TIP3    H118866   5.290   4.546   5.049
 6307TIP3    H218867   5.381   4.505   5.163
 6308TIP3   OH218868   0.371   5.202   1.280
 6308TIP3    H118869   0.399   5.143   1.349
 6308TIP3    H218870   0.333   5.144   1.213
 6309TIP3   OH218871   6.331   3.033   3.052
 6309TIP3    H118872   6.257   3.058   2.997
 6309TIP3    H218873   6.314   2.943   3.077
 6310TIP3   OH218874   0.118   0.823   3.003
 6310TIP3    H118875   0.045   0.883   2.990
 6310TIP3    H218876   0.181   0.846   2.935
 6311TIP3   OH218877   7.482   7.144   1.668
 6311TIP3    H118878   7.467   7.051   1.652
 6311TIP3    H218879   7.395   7.183   1.669
 6312TIP3   OH218880   6.362   4.261   5.296
 6312TIP3    H118881   6.295   4.325   5.272
 6312TIP3    H218882   6.315   4.177   5.296
 6313TIP3   OH218883   0.278   3.153   4.842
 6313TIP3    H118884   0.199   3.132   4.791
 6313TIP3    H218885   0.271   3.100   4.921
 6314TIP3   OH218886   8.294   6.594   1.928
 6314TIP3    H118887   8.308   6.626   2.017
 6314TIP3    H218888   8.199   6.596   1.916
 6315TIP3   OH218889   7.452   7.414   3.674
 6315TIP3    H118890   7.365   7.425   3.710
 6315TIP3    H218891   7.440   7.420   3.579
 6316TIP3   OH218892   1.497   6.527   4.448
 6316TIP3    H118893   1.409   6.561   4.463
 6316TIP3    H218894   1.518   6.551   4.357
 6317TIP3   OH218895   2.151   1.911   5.649
 6317TIP3    H118896   2.193   1.994   5.626
 6317TIP3    H218897   2.209   1.872   5.715
 6318TIP3   OH218898   2.085   2.954   0.098
 6318TIP3    H118899   2.046   3.020   0.040
 6318TIP3    H218900   2.177   2.953   0.073
 6319TIP3   OH218901   7.153   3.042   3.998
 6319TIP3    H118902   7.089   2.970   4.000
 6319TIP3    H218903   7.225   3.008   3.945
 6320TIP3   OH218904   6.093   5.537   4.785
 6320TIP3    H118905   6.143   5.457   4.803
 6320TIP3    H218906   6.003   5.515   4.809
 6321TIP3   OH218907   0.524   3.942   1.389
 6321TIP3    H118908   0.527   3.849   1.414
 6321TIP3    H218909   0.438   3.953   1.349
 6322TIP3   OH218910   4.849   3.742   0.601
 6322TIP3    H118911   4.797   3.670   0.565
 6322TIP3    H218912   4.808   3.762   0.685
 6323TIP3   OH218913   6.993   6.863   2.587
 6323TIP3    H118914   7.034   6.949   2.585
 6323TIP3    H218915   7.017   6.826   2.672
 6324TIP3   OH218916   7.587   7.774   5.123
 6324TIP3    H118917   7.675   7.768   5.160
 6324TIP3    H218918   7.529   7.747   5.194
 6325TIP3   OH218919   2.206   4.770   2.080
 6325TIP3    H118920   2.247   4.855   2.069
 6325TIP3    H218921   2.112   4.787   2.074
 6326TIP3   OH218922   4.155   0.875   1.622
 6326TIP3    H118923   4.064   0.847   1.631
 6326TIP3    H218924   4.196   0.806   1.570
 6327TIP3   OH218925   1.322   1.205   3.713
 6327TIP3    H118926   1.333   1.288   3.668
 6327TIP3    H218927   1.405   1.159   3.701
 6328TIP3   OH218928   3.752   5.201   2.847
 6328TIP3    H118929   3.686   5.263   2.877
 6328TIP3    H218930   3.772   5.148   2.925
 6329TIP3   OH218931   0.233   0.935   0.465
 6329TIP3    H118932   0.279   0.865   0.418
 6329TIP3    H218933   0.142   0.907   0.466
 6330TIP3   OH218934   0.807   0.240   4.687
 6330TIP3    H118935   0.737   0.277   4.742
 6330TIP3    H218936   0.882   0.299   4.702
 6331TIP3   OH218937   8.110   7.012   3.360
 6331TIP3    H118938   8.131   7.070   3.286
 6331TIP3    H218939   8.017   7.028   3.376
 6332TIP3   OH218940   7.142   0.428   1.141
 6332TIP3    H118941   7.054   0.443   1.109
 6332TIP3    H218942   7.179   0.362   1.083
 6333TIP3   OH218943   1.634   5.018   2.094
 6333TIP3    H118944   1.620   4.923   2.093
 6333TIP3    H218945   1.567   5.051   2.154
 6334TIP3   OH218946   3.166   3.718   0.410
 6334TIP3    H118947   3.158   3.683   0.499
 6334TIP3    H218948   3.078   3.708   0.373
 6335TIP3   OH218949   7.836   0.445   6.489
 6335TIP3    H118950   7.750   0.447   6.447
 6335TIP3    H218951   7.893   0.493   6.429
 6336TIP3   OH218952   1.398   0.691   3.645
 6336TIP3    H118953   1.370   0.767   3.594
 6336TIP3    H218954   1.334   0.684   3.715
 6337TIP3   OH218955   2.229   1.635   2.019
 6337TIP3    H118956   2.284   1.695   1.968
 6337TIP3    H218957   2.170   1.597   1.955
 6338TIP3   OH218958   2.794   7.167   6.422
 6338TIP3    H118959   2.849   7.218   6.362
 6338TIP3    H218960   2.760   7.232   6.484
 6339TIP3   OH218961   0.455   1.416   6.203
 6339TIP3    H118962   0.465   1.509   6.185
 6339TIP3    H218963   0.381   1.389   6.147
 6340TIP3   OH218964   3.670   2.606   1.253
 6340TIP3    H118965   3.598   2.651   1.208
 6340TIP3    H218966   3.712   2.675   1.306
 6341TIP3   OH218967   6.429   7.443   5.786
 6341TIP3    H118968   6.397   7.494   5.861
 6341TIP3    H218969   6.422   7.352   5.814
 6342TIP3   OH218970   7.478   6.738   1.112
 6342TIP3    H118971   7.560   6.689   1.122
 6342TIP3    H218972   7.505   6.830   1.106
 6343TIP3   OH218973   3.845   3.917   6.479
 6343TIP3    H118974   3.902   3.843   6.458
 6343TIP3    H218975   3.764   3.899   6.431
 6344TIP3   OH218976   0.775   1.238   3.897
 6344TIP3    H118977   0.824   1.193   3.829
 6344TIP3    H218978   0.802   1.195   3.979
 6345TIP3   OH218979   6.333   2.662   2.914
 6345TIP3    H118980   6.327   2.578   2.960
 6345TIP3    H218981   6.337   2.728   2.983
 6346TIP3   OH218982   0.986   2.279   6.637
 6346TIP3    H118983   0.892   2.291   6.652
 6346TIP3    H218984   1.010   2.206   6.695
 6347TIP3   OH218985   0.929   6.742   2.320
 6347TIP3    H118986   0.978   6.675   2.369
 6347TIP3    H218987   0.887   6.794   2.388
 6348TIP3   OH218988   1.686   1.186   1.335
 6348TIP3    H118989   1.600   1.211   1.370
 6348TIP3    H218990   1.688   1.224   1.248
 6349TIP3   OH218991   6.817   2.817   3.464
 6349TIP3    H118992   6.820   2.911   3.483
 6349TIP3    H218993   6.876   2.778   3.528
 6350TIP3   OH218994   4.730   6.399   2.700
 6350TIP3    H118995   4.686   6.374   2.782
 6350TIP3    H218996   4.703   6.490   2.685
 6351TIP3   OH218997   5.896   3.543   1.330
 6351TIP3    H118998   5.910   3.495   1.249
 6351TIP3    H218999   5.960   3.507   1.391
 6352TIP3   OH219000   5.683   5.274   0.473
 6352TIP3    H119001   5.728   5.258   0.390
 6352TIP3    H219002   5.592   5.289   0.447
 6353TIP3   OH219003   6.092   3.181   3.541
 6353TIP3    H119004   6.021   3.159   3.601
 6353TIP3    H219005   6.133   3.259   3.579
 6354TIP3   OH219006   1.466   3.802   5.339
 6354TIP3    H119007   1.395   3.740   5.357
 6354TIP3    H219008   1.432   3.859   5.270
 6355TIP3   OH219009   3.978   0.766   2.228
 6355TIP3    H119010   3.935   0.718   2.299
 6355TIP3    H219011   4.056   0.714   2.208
 6356TIP3   OH219012   6.963   5.541   4.560
 6356TIP3    H119013   6.934   5.452   4.582
 6356TIP3    H219014   7.020   5.529   4.484
 6357TIP3   OH219015   1.801   2.450   4.726
 6357TIP3    H119016   1.753   2.400   4.793
 6357TIP3    H219017   1.849   2.384   4.676
 6358TIP3   OH219018   7.927   5.876   5.347
 6358TIP3    H119019   7.979   5.953   5.370
 6358TIP3    H219020   7.954   5.810   5.411
 6359TIP3   OH219021   4.810   7.171   3.161
 6359TIP3    H119022   4.779   7.085   3.191
 6359TIP3    H219023   4.740   7.232   3.184
 6360TIP3   OH219024   2.545   4.181   4.092
 6360TIP3    H119025   2.564   4.087   4.086
 6360TIP3    H219026   2.534   4.209   4.001
 6361TIP3   OH219027   5.214   1.251   3.803
 6361TIP3    H119028   5.297   1.228   3.761
 6361TIP3    H219029   5.214   1.346   3.807
 6362TIP3   OH219030   2.288   5.516   6.376
 6362TIP3    H119031   2.367   5.525   6.428
 6362TIP3    H219032   2.305   5.567   6.297
 6363TIP3   OH219033   6.183   7.113   3.578
 6363TIP3    H119034   6.218   7.074   3.657
 6363TIP3    H219035   6.233   7.074   3.507
 6364TIP3   OH219036   6.427   4.461   3.873
 6364TIP3    H119037   6.331   4.466   3.876
 6364TIP3    H219038   6.453   4.546   3.836
 6365TIP3   OH219039   0.893   3.853   2.051
 6365TIP3    H119040   0.888   3.948   2.065
 6365TIP3    H219041   0.968   3.825   2.104
 6366TIP3   OH219042   1.136   7.830   6.587
 6366TIP3    H119043   1.219   7.852   6.628
 6366TIP3    H219044   1.078   7.807   6.660
 6367TIP3   OH219045   2.290   0.721   5.184
 6367TIP3    H119046   2.230   0.767   5.243
 6367TIP3    H219047   2.366   0.778   5.179
 6368TIP3   OH219048   2.002   5.808   0.179
 6368TIP3    H119049   2.045   5.817   0.094
 6368TIP3    H219050   2.007   5.895   0.218
 6369TIP3   OH219051   4.143   5.970   5.463
 6369TIP3    H119052   4.194   6.050   5.477
 6369TIP3    H219053   4.210   5.902   5.449
 6370TIP3   OH219054   2.873   7.377   4.710
 6370TIP3    H119055   2.845   7.329   4.632
 6370TIP3    H219056   2.837   7.327   4.783
 6371TIP3   OH219057   5.808   0.939   1.003
 6371TIP3    H119058   5.889   0.988   1.018
 6371TIP3    H219059   5.828   0.883   0.927
 6372TIP3   OH219060   4.794   1.652   4.028
 6372TIP3    H119061   4.826   1.743   4.022
 6372TIP3    H219062   4.822   1.612   3.946
 6373TIP3   OH219063   8.256   2.761   1.236
 6373TIP3    H119064   8.308   2.757   1.156
 6373TIP3    H219065   8.168   2.785   1.206
 6374TIP3   OH219066   3.602   2.231   4.153
 6374TIP3    H119067   3.605   2.141   4.121
 6374TIP3    H219068   3.512   2.244   4.183
 6375TIP3   OH219069   0.101   1.165   2.846
 6375TIP3    H119070   0.037   1.236   2.853
 6375TIP3    H219071   0.047   1.086   2.834
 6376TIP3   OH219072   5.718   3.282   4.382
 6376TIP3    H119073   5.797   3.299   4.434
 6376TIP3    H219074   5.748   3.283   4.291
 6377TIP3   OH219075   7.037   1.885   6.530
 6377TIP3    H119076   7.127   1.906   6.505
 6377TIP3    H219077   6.984   1.951   6.486
 6378TIP3   OH219078   0.046   2.486   6.455
 6378TIP3    H119079   0.077   2.537   6.530
 6378TIP3    H219080  -0.010   2.546   6.406
 6379TIP3   OH219081   5.449   4.076   3.243
 6379TIP3    H119082   5.397   4.048   3.167
 6379TIP3    H219083   5.393   4.139   3.288
 6380TIP3   OH219084   0.208   5.577   1.659
 6380TIP3    H119085   0.144   5.522   1.613
 6380TIP3    H219086   0.155   5.632   1.717
 6381TIP3   OH219087   2.904   5.968   4.842
 6381TIP3    H119088   2.848   5.910   4.789
 6381TIP3    H219089   2.856   5.981   4.923
 6382TIP3   OH219090   5.178   1.546   5.348
 6382TIP3    H119091   5.226   1.463   5.359
 6382TIP3    H219092   5.202   1.576   5.260
 6383TIP3   OH219093   0.216   3.915   0.465
 6383TIP3    H119094   0.178   3.952   0.386
 6383TIP3    H219095   0.311   3.919   0.451
 6384TIP3   OH219096   2.845   4.572   3.429
 6384TIP3    H119097   2.878   4.659   3.453
 6384TIP3    H219098   2.919   4.529   3.387
 6385TIP3   OH219099   8.054   3.932   0.645
 6385TIP3    H119100   8.020   3.944   0.556
 6385TIP3    H219101   8.015   3.850   0.675
 6386TIP3   OH219102   6.796   4.205   3.786
 6386TIP3    H119103   6.836   4.207   3.873
 6386TIP3    H219104   6.712   4.162   3.799
 6387TIP3   OH219105   1.960   6.734   5.017
 6387TIP3    H119106   1.899   6.732   4.944
 6387TIP3    H219107   2.036   6.685   4.986
 6388TIP3   OH219108   2.844   7.424   2.910
 6388TIP3    H119109   2.932   7.387   2.908
 6388TIP3    H219110   2.846   7.487   2.982
 6389TIP3   OH219111   5.320   1.405   6.143
 6389TIP3    H119112   5.257   1.358   6.197
 6389TIP3    H219113   5.265   1.460   6.085
 6390TIP3   OH219114   2.658   6.059   3.963
 6390TIP3    H119115   2.721   6.001   4.005
 6390TIP3    H219116   2.639   6.126   4.029
 6391TIP3   OH219117   0.465   6.988   2.887
 6391TIP3    H119118   0.428   6.985   2.799
 6391TIP3    H219119   0.494   7.079   2.898
 6392TIP3   OH219120   6.585   4.617   0.160
 6392TIP3    H119121   6.602   4.688   0.222
 6392TIP3    H219122   6.594   4.537   0.211
 6393TIP3   OH219123   6.098   0.202   6.339
 6393TIP3    H119124   6.172   0.244   6.384
 6393TIP3    H219125   6.034   0.186   6.408
 6394TIP3   OH219126   0.642   6.633   1.351
 6394TIP3    H119127   0.683   6.663   1.432
 6394TIP3    H219128   0.550   6.657   1.361
 6395TIP3   OH219129   8.066   7.135   5.932
 6395TIP3    H119130   7.995   7.199   5.935
 6395TIP3    H219131   8.029   7.056   5.973
 6396TIP3   OH219132   2.102   5.629   1.057
 6396TIP3    H119133   2.097   5.540   1.093
 6396TIP3    H219134   2.022   5.637   1.003
 6397TIP3   OH219135   3.335   2.785   6.090
 6397TIP3    H119136   3.329   2.695   6.122
 6397TIP3    H219137   3.421   2.816   6.121
 6398TIP3   OH219138   3.603   4.069   6.233
 6398TIP3    H119139   3.589   4.163   6.248
 6398TIP3    H219140   3.525   4.027   6.269
 6399TIP3   OH219141   0.872   4.979   2.122
 6399TIP3    H119142   0.967   4.968   2.129
 6399TIP3    H219143   0.836   4.910   2.177
 6400TIP3   OH219144   3.539   4.153   2.694
 6400TIP3    H119145   3.542   4.202   2.612
 6400TIP3    H219146   3.570   4.066   2.672
 6401TIP3   OH219147   7.646   6.274   4.564
 6401TIP3    H119148   7.713   6.245   4.502
 6401TIP3    H219149   7.629   6.197   4.618
 6402TIP3   OH219150   2.419   1.179   2.800
 6402TIP3    H119151   2.444   1.245   2.865
 6402TIP3    H219152   2.487   1.113   2.805
 6403TIP3   OH219153   1.274   5.531   4.168
 6403TIP3    H119154   1.186   5.565   4.151
 6403TIP3    H219155   1.308   5.508   4.082
 6404TIP3   OH219156   5.828   6.911   0.238
 6404TIP3    H119157   5.873   6.939   0.318
 6404TIP3    H219158   5.767   6.843   0.268
 6405TIP3   OH219159   0.554   2.035   6.447
 6405TIP3    H119160   0.536   2.127   6.467
 6405TIP3    H219161   0.633   2.014   6.496
 6406TIP3   OH219162   8.105   5.767   3.846
 6406TIP3    H119163   8.138   5.693   3.795
 6406TIP3    H219164   8.126   5.745   3.937
 6407TIP3   OH219165   6.013   4.914   2.507
 6407TIP3    H119166   6.090   4.927   2.564
 6407TIP3    H219167   6.006   4.819   2.498
 6408TIP3   OH219168   1.425   7.632   6.009
 6408TIP3    H119169   1.454   7.577   6.081
 6408TIP3    H219170   1.364   7.577   5.960
 6409TIP3   OH219171   5.198   6.446   5.949
 6409TIP3    H119172   5.284   6.470   5.984
 6409TIP3    H219173   5.166   6.377   6.008
 6410TIP3   OH219174   4.397   6.524   2.979
 6410TIP3    H119175   4.309   6.516   2.944
 6410TIP3    H219176   4.446   6.571   2.912
 6411TIP3   OH219177   7.963   1.442   4.026
 6411TIP3    H119178   7.914   1.362   4.048
 6411TIP3    H219179   7.921   1.474   3.946
 6412TIP3   OH219180   0.985   4.716   0.724
 6412TIP3    H119181   1.036   4.719   0.643
 6412TIP3    H219182   0.894   4.724   0.696
 6413TIP3   OH219183   5.164   6.607   0.680
 6413TIP3    H119184   5.243   6.561   0.649
 6413TIP3    H219185   5.143   6.667   0.609
 6414TIP3   OH219186   6.065   3.696   5.280
 6414TIP3    H119187   6.060   3.606   5.246
 6414TIP3    H219188   6.077   3.750   5.202
 6415TIP3   OH219189   7.843   6.057   0.800
 6415TIP3    H119190   7.894   6.127   0.760
 6415TIP3    H219191   7.837   6.081   0.892
 6416TIP3   OH219192   3.991   0.403   0.238
 6416TIP3    H119193   3.956   0.383   0.151
 6416TIP3    H219194   4.039   0.485   0.225
 6417TIP3   OH219195   5.777   2.721   3.312
 6417TIP3    H119196   5.838   2.651   3.286
 6417TIP3    H219197   5.703   2.674   3.353
 6418TIP3   OH219198   2.505   5.256   4.263
 6418TIP3    H119199   2.590   5.283   4.229
 6418TIP3    H219200   2.470   5.197   4.195
 6419TIP3   OH219201   3.333   0.083   6.469
 6419TIP3    H119202   3.361   0.114   6.383
 6419TIP3    H219203   3.318  -0.011   6.458
 6420TIP3   OH219204   2.514   1.338   1.732
 6420TIP3    H119205   2.436   1.339   1.787
 6420TIP3    H219206   2.502   1.262   1.675
 6421TIP3   OH219207   2.963   1.458   3.684
 6421TIP3    H119208   2.933   1.502   3.605
 6421TIP3    H219209   2.952   1.523   3.753
 6422TIP3   OH219210   4.934   0.926   3.526
 6422TIP3    H119211   5.010   0.937   3.470
 6422TIP3    H219212   4.882   1.005   3.512
 6423TIP3   OH219213   7.663   7.656   0.680
 6423TIP3    H119214   7.580   7.676   0.724
 6423TIP3    H219215   7.652   7.691   0.592
 6424TIP3   OH219216   3.518   4.544   6.738
 6424TIP3    H119217   3.465   4.553   6.659
 6424TIP3    H219218   3.454   4.535   6.809
 6425TIP3   OH219219   4.913   5.136   0.472
 6425TIP3    H119220   4.931   5.051   0.431
 6425TIP3    H219221   4.874   5.113   0.557
 6426TIP3   OH219222   7.813   1.980   0.505
 6426TIP3    H119223   7.842   1.915   0.569
 6426TIP3    H219224   7.731   2.014   0.541
 6427TIP3   OH219225   1.504   0.322   4.058
 6427TIP3    H119226   1.424   0.273   4.076
 6427TIP3    H219227   1.575   0.261   4.080
 6428TIP3   OH219228   3.326   5.507   1.723
 6428TIP3    H119229   3.312   5.413   1.735
 6428TIP3    H219230   3.250   5.548   1.763
 6429TIP3   OH219231   3.645   1.388   6.052
 6429TIP3    H119232   3.602   1.452   6.109
 6429TIP3    H219233   3.738   1.394   6.077
 6430TIP3   OH219234   1.617   1.045   0.676
 6430TIP3    H119235   1.590   1.002   0.595
 6430TIP3    H219236   1.666   0.977   0.723
 6431TIP3   OH219237   1.017   7.125   3.960
 6431TIP3    H119238   1.058   7.040   3.944
 6431TIP3    H219239   0.924   7.110   3.946
 6432TIP3   OH219240   1.080   3.818   2.249
 6432TIP3    H119241   1.171   3.791   2.243
 6432TIP3    H219242   1.083   3.910   2.274
 6433TIP3   OH219243   1.765   7.291   0.996
 6433TIP3    H119244   1.679   7.248   0.996
 6433TIP3    H219245   1.801   7.270   0.910
 6434TIP3   OH219246   0.720   0.371   1.744
 6434TIP3    H119247   0.707   0.278   1.763
 6434TIP3    H219248   0.658   0.416   1.802
 6435TIP3   OH219249   0.776   2.800   5.494
 6435TIP3    H119250   0.862   2.815   5.454
 6435TIP3    H219251   0.747   2.888   5.519
 6436TIP3   OH219252   5.297   0.462   3.955
 6436TIP3    H119253   5.383   0.496   3.932
 6436TIP3    H219254   5.245   0.540   3.975
 6437TIP3   OH219255   1.479   4.507   5.565
 6437TIP3    H119256   1.469   4.443   5.635
 6437TIP3    H219257   1.571   4.500   5.539
 6438TIP3   OH219258   5.963   1.334   5.884
 6438TIP3    H119259   5.908   1.377   5.949
 6438TIP3    H219260   5.918   1.348   5.801
 6439TIP3   OH219261   0.921   1.189   0.369
 6439TIP3    H119262   0.900   1.254   0.302
 6439TIP3    H219263   0.846   1.130   0.371
 6440TIP3   OH219264   5.566   1.970   6.293
 6440TIP3    H119265   5.609   1.958   6.378
 6440TIP3    H219266   5.564   2.065   6.281
 6441TIP3   OH219267   7.883   6.407   2.134
 6441TIP3    H119268   7.816   6.338   2.140
 6441TIP3    H219269   7.835   6.485   2.106
 6442TIP3   OH219270   6.043   2.836   3.527
 6442TIP3    H119271   6.116   2.839   3.466
 6442TIP3    H219272   5.984   2.905   3.497
 6443TIP3   OH219273   4.866   4.266   4.824
 6443TIP3    H119274   4.887   4.332   4.758
 6443TIP3    H219275   4.902   4.300   4.905
 6444TIP3   OH219276   0.800   6.537   0.645
 6444TIP3    H119277   0.845   6.607   0.597
 6444TIP3    H219278   0.789   6.467   0.580
 6445TIP3   OH219279   1.194   2.894   0.124
 6445TIP3    H119280   1.149   2.809   0.121
 6445TIP3    H219281   1.136   2.949   0.177
 6446TIP3   OH219282   7.933   0.902   3.019
 6446TIP3    H119283   7.842   0.880   3.036
 6446TIP3    H219284   7.960   0.842   2.950
 6447TIP3   OH219285   1.490   7.594   5.666
 6447TIP3    H119286   1.401   7.558   5.662
 6447TIP3    H219287   1.479   7.683   5.699
 6448TIP3   OH219288   0.645   5.289   4.427
 6448TIP3    H119289   0.583   5.266   4.358
 6448TIP3    H219290   0.602   5.261   4.508
 6449TIP3   OH219291   7.057   6.245   1.949
 6449TIP3    H119292   7.126   6.246   1.882
 6449TIP3    H219293   7.097   6.203   2.024
 6450TIP3   OH219294   2.780   0.176   5.919
 6450TIP3    H119295   2.855   0.178   5.860
 6450TIP3    H219296   2.814   0.209   6.002
 6451TIP3   OH219297   6.970   1.994   2.445
 6451TIP3    H119298   6.995   1.952   2.363
 6451TIP3    H219299   7.052   2.026   2.482
 6452TIP3   OH219300   3.104   6.835   2.773
 6452TIP3    H119301   3.042   6.773   2.812
 6452TIP3    H219302   3.076   6.844   2.682
 6453TIP3   OH219303   5.114   5.504   6.755
 6453TIP3    H119304   5.137   5.469   6.841
 6453TIP3    H219305   5.180   5.466   6.696
 6454TIP3   OH219306   6.898   6.546   2.118
 6454TIP3    H119307   6.834   6.615   2.103
 6454TIP3    H219308   6.861   6.469   2.074
 6455TIP3   OH219309   3.130   6.818   5.606
 6455TIP3    H119310   3.172   6.828   5.691
 6455TIP3    H219311   3.194   6.772   5.552
 6456TIP3   OH219312   6.025   0.625   6.286
 6456TIP3    H119313   6.037   0.619   6.381
 6456TIP3    H219314   6.052   0.539   6.254
 6457TIP3   OH219315   6.885   6.532   4.930
 6457TIP3    H119316   6.964   6.523   4.876
 6457TIP3    H219317   6.919   6.550   5.018
 6458TIP3   OH219318   4.201   3.450   3.773
 6458TIP3    H119319   4.240   3.422   3.856
 6458TIP3    H219320   4.107   3.440   3.787
 6459TIP3   OH219321   2.160   3.143   1.783
 6459TIP3    H119322   2.153   3.095   1.700
 6459TIP3    H219323   2.246   3.119   1.818
 6460TIP3   OH219324   8.294   4.721   5.937
 6460TIP3    H119325   8.269   4.699   6.026
 6460TIP3    H219326   8.214   4.754   5.896
 6461TIP3   OH219327   4.124   0.537   6.061
 6461TIP3    H119328   4.141   0.503   6.149
 6461TIP3    H219329   4.030   0.557   6.061
 6462TIP3   OH219330   1.629   0.532   0.751
 6462TIP3    H119331   1.710   0.558   0.708
 6462TIP3    H219332   1.578   0.614   0.758
 6463TIP3   OH219333   6.283   5.669   6.564
 6463TIP3    H119334   6.338   5.606   6.611
 6463TIP3    H219335   6.195   5.654   6.601
 6464TIP3   OH219336   6.365   6.208   2.902
 6464TIP3    H119337   6.441   6.235   2.954
 6464TIP3    H219338   6.291   6.218   2.961
 6465TIP3   OH219339   0.040   6.144   4.961
 6465TIP3    H119340   0.124   6.122   4.920
 6465TIP3    H219341   0.028   6.237   4.943
 6466TIP3   OH219342   6.016   6.262   0.220
 6466TIP3    H119343   6.101   6.297   0.194
 6466TIP3    H219344   5.953   6.313   0.168
 6467TIP3   OH219345   4.990   2.715   3.268
 6467TIP3    H119346   5.004   2.658   3.344
 6467TIP3    H219347   4.931   2.783   3.300
 6468TIP3   OH219348   6.628   5.512   1.215
 6468TIP3    H119349   6.578   5.539   1.292
 6468TIP3    H219350   6.607   5.579   1.149
 6469TIP3   OH219351   6.413   6.908   1.563
 6469TIP3    H119352   6.456   6.883   1.645
 6469TIP3    H219353   6.340   6.964   1.590
 6470TIP3   OH219354   3.151   2.061   4.977
 6470TIP3    H119355   3.093   1.988   4.958
 6470TIP3    H219356   3.102   2.138   4.947
 6471TIP3   OH219357   2.748   3.412   4.401
 6471TIP3    H119358   2.658   3.442   4.385
 6471TIP3    H219359   2.739   3.341   4.465
 6472TIP3   OH219360   6.106   7.269   5.618
 6472TIP3    H119361   6.048   7.318   5.677
 6472TIP3    H219362   6.048   7.237   5.549
 6473TIP3   OH219363   8.194   4.342   1.730
 6473TIP3    H119364   8.114   4.329   1.781
 6473TIP3    H219365   8.233   4.255   1.723
 6474TIP3   OH219366   5.049   5.087   4.852
 6474TIP3    H119367   4.967   5.038   4.861
 6474TIP3    H219368   5.047   5.151   4.923
 6475TIP3   OH219369   6.642   5.597   2.278
 6475TIP3    H119370   6.639   5.690   2.302
 6475TIP3    H219371   6.608   5.551   2.355
 6476TIP3   OH219372   3.994   2.932   0.596
 6476TIP3    H119373   3.908   2.964   0.570
 6476TIP3    H219374   4.041   2.920   0.514
 6477TIP3   OH219375   0.187   5.368   4.093
 6477TIP3    H119376   0.141   5.433   4.040
 6477TIP3    H219377   0.203   5.295   4.033
 6478TIP3   OH219378   6.108   6.961   4.359
 6478TIP3    H119379   6.057   6.902   4.304
 6478TIP3    H219380   6.196   6.960   4.322
 6479TIP3   OH219381   4.096   6.150   6.086
 6479TIP3    H119382   4.163   6.184   6.144
 6479TIP3    H219383   4.028   6.217   6.084
 6480TIP3   OH219384   4.064   1.091   0.345
 6480TIP3    H119385   4.117   1.076   0.267
 6480TIP3    H219386   4.092   1.177   0.377
 6481TIP3   OH219387   2.680   3.382   0.961
 6481TIP3    H119388   2.744   3.312   0.951
 6481TIP3    H219389   2.634   3.362   1.043
 6482TIP3   OH219390   1.924   5.489   2.656
 6482TIP3    H119391   1.894   5.413   2.606
 6482TIP3    H219392   1.995   5.525   2.605
 6483TIP3   OH219393   8.098   3.526   0.711
 6483TIP3    H119394   8.059   3.608   0.742
 6483TIP3    H219395   8.115   3.476   0.791
 6484TIP3   OH219396   1.223   4.519   4.293
 6484TIP3    H119397   1.152   4.499   4.232
 6484TIP3    H219398   1.181   4.518   4.380
 6485TIP3   OH219399   6.691   3.308   4.036
 6485TIP3    H119400   6.651   3.346   4.114
 6485TIP3    H219401   6.695   3.214   4.055
 6486TIP3   OH219402   3.681   3.347   0.786
 6486TIP3    H119403   3.590   3.370   0.768
 6486TIP3    H219404   3.729   3.382   0.711
 6487TIP3   OH219405   5.456   2.131   0.664
 6487TIP3    H119406   5.481   2.041   0.642
 6487TIP3    H219407   5.385   2.152   0.604
 6488TIP3   OH219408   3.833   2.926   5.548
 6488TIP3    H119409   3.830   2.833   5.569
 6488TIP3    H219410   3.861   2.967   5.630
 6489TIP3   OH219411   6.767   4.920   1.067
 6489TIP3    H119412   6.720   5.001   1.087
 6489TIP3    H219413   6.847   4.949   1.024
 6490TIP3   OH219414   5.425   4.105   4.948
 6490TIP3    H119415   5.506   4.110   4.897
 6490TIP3    H219416   5.453   4.119   5.039
 6491TIP3   OH219417   3.015   4.101   6.481
 6491TIP3    H119418   2.940   4.043   6.467
 6491TIP3    H219419   3.004   4.171   6.417
 6492TIP3   OH219420   4.594   4.206   0.336
 6492TIP3    H119421   4.567   4.124   0.378
 6492TIP3    H219422   4.654   4.246   0.399
 6493TIP3   OH219423   1.743   2.855   0.686
 6493TIP3    H119424   1.682   2.782   0.678
 6493TIP3    H219425   1.796   2.850   0.606
 6494TIP3   OH219426   4.525   1.855   3.517
 6494TIP3    H119427   4.530   1.933   3.462
 6494TIP3    H219428   4.432   1.845   3.536
 6495TIP3   OH219429   0.192   2.347   4.180
 6495TIP3    H119430   0.164   2.256   4.185
 6495TIP3    H219431   0.141   2.384   4.108
 6496TIP3   OH219432   5.862   6.241   2.183
 6496TIP3    H119433   5.855   6.150   2.214
 6496TIP3    H219434   5.836   6.237   2.091
 6497TIP3   OH219435   3.665   4.888   0.097
 6497TIP3    H119436   3.668   4.801   0.057
 6497TIP3    H219437   3.702   4.946   0.031
 6498TIP3   OH219438   5.244   1.043   4.690
 6498TIP3    H119439   5.230   1.024   4.782
 6498TIP3    H219440   5.160   1.079   4.660
 6499TIP3   OH219441   1.645   2.556   3.840
 6499TIP3    H119442   1.674   2.465   3.845
 6499TIP3    H219443   1.566   2.552   3.786
 6500TIP3   OH219444   4.117   4.862   2.027
 6500TIP3    H119445   4.210   4.838   2.035
 6500TIP3    H219446   4.109   4.898   1.939
 6501TIP3   OH219447   3.965   7.346   4.392
 6501TIP3    H119448   3.882   7.311   4.424
 6501TIP3    H219449   4.017   7.270   4.368
 6502TIP3   OH219450   0.398   1.691   6.260
 6502TIP3    H119451   0.420   1.721   6.348
 6502TIP3    H219452   0.311   1.652   6.269
 6503TIP3   OH219453   1.409   0.333   6.459
 6503TIP3    H119454   1.504   0.326   6.469
 6503TIP3    H219455   1.384   0.253   6.413
 6504TIP3   OH219456   4.438   4.570   4.276
 6504TIP3    H119457   4.430   4.481   4.309
 6504TIP3    H219458   4.468   4.561   4.186
 6505TIP3   OH219459   1.228   1.073   6.314
 6505TIP3    H119460   1.203   1.005   6.253
 6505TIP3    H219461   1.283   1.029   6.379
 6506TIP3   OH219462   0.181   7.239   5.450
 6506TIP3    H119463   0.135   7.173   5.398
 6506TIP3    H219464   0.155   7.323   5.411
 6507TIP3   OH219465   2.531   4.493   6.602
 6507TIP3    H119466   2.619   4.484   6.638
 6507TIP3    H219467   2.538   4.566   6.540
 6508TIP3   OH219468   1.049   3.351   4.243
 6508TIP3    H119469   1.030   3.418   4.178
 6508TIP3    H219470   1.035   3.268   4.197
 6509TIP3   OH219471   7.100   4.498   0.460
 6509TIP3    H119472   7.086   4.530   0.371
 6509TIP3    H219473   7.193   4.477   0.464
 6510TIP3   OH219474   4.993   3.657   5.170
 6510TIP3    H119475   5.001   3.652   5.075
 6510TIP3    H219476   5.007   3.567   5.200
 6511TIP3   OH219477   3.909   0.666   3.220
 6511TIP3    H119478   3.875   0.691   3.306
 6511TIP3    H219479   3.994   0.710   3.214
 6512TIP3   OH219480   7.088   4.071   5.577
 6512TIP3    H119481   6.997   4.072   5.549
 6512TIP3    H219482   7.093   4.142   5.641
 6513TIP3   OH219483   6.079   4.032   0.832
 6513TIP3    H119484   6.123   4.083   0.765
 6513TIP3    H219485   6.142   3.964   0.856
 6514TIP3   OH219486   1.924   2.960   2.679
 6514TIP3    H119487   1.969   3.027   2.628
 6514TIP3    H219488   1.845   3.002   2.710
 6515TIP3   OH219489   8.122   1.655   0.706
 6515TIP3    H119490   8.192   1.592   0.687
 6515TIP3    H219491   8.110   1.703   0.624
 6516TIP3   OH219492   3.129   7.356   2.929
 6516TIP3    H119493   3.219   7.388   2.928
 6516TIP3    H219494   3.137   7.263   2.909
 6517TIP3   OH219495   6.965   6.756   4.616
 6517TIP3    H119496   7.009   6.826   4.567
 6517TIP3    H219497   6.972   6.784   4.707
 6518TIP3   OH219498   1.889   0.926   1.636
 6518TIP3    H119499   1.927   1.008   1.667
 6518TIP3    H219500   1.964   0.868   1.624
 6519TIP3   OH219501   3.301   3.027   0.256
 6519TIP3    H119502   3.267   3.061   0.173
 6519TIP3    H219503   3.235   3.053   0.321
 6520TIP3   OH219504   1.829   2.122   5.043
 6520TIP3    H119505   1.888   2.099   5.115
 6520TIP3    H219506   1.783   2.040   5.023
 6521TIP3   OH219507   7.707   2.542   1.830
 6521TIP3    H119508   7.618   2.573   1.851
 6521TIP3    H219509   7.747   2.614   1.781
 6522TIP3   OH219510   4.195   6.230   1.123
 6522TIP3    H119511   4.279   6.196   1.090
 6522TIP3    H219512   4.142   6.241   1.044
 6523TIP3   OH219513   2.684   4.734   1.740
 6523TIP3    H119514   2.710   4.826   1.737
 6523TIP3    H219515   2.599   4.734   1.783
 6524TIP3   OH219516   7.252   2.058   2.585
 6524TIP3    H119517   7.317   2.076   2.653
 6524TIP3    H219518   7.303   2.059   2.503
 6525TIP3   OH219519   5.710   3.297   5.126
 6525TIP3    H119520   5.773   3.339   5.185
 6525TIP3    H219521   5.638   3.360   5.119
 6526TIP3   OH219522   2.465   4.816   0.249
 6526TIP3    H119523   2.467   4.821   0.345
 6526TIP3    H219524   2.403   4.747   0.230
 6527TIP3   OH219525   0.130   2.978   3.800
 6527TIP3    H119526   0.041   3.012   3.811
 6527TIP3    H219527   0.172   3.040   3.741
 6528TIP3   OH219528   7.731   0.856   6.136
 6528TIP3    H119529   7.644   0.865   6.097
 6528TIP3    H219530   7.735   0.923   6.204
 6529TIP3   OH219531   3.974   1.106   1.978
 6529TIP3    H119532   3.944   1.106   2.069
 6529TIP3    H219533   3.932   1.031   1.938
 6530TIP3   OH219534   7.221   3.866   4.647
 6530TIP3    H119535   7.307   3.840   4.680
 6530TIP3    H219536   7.231   3.867   4.552
 6531TIP3   OH219537   6.509   1.381  -0.045
 6531TIP3    H119538   6.544   1.462  -0.007
 6531TIP3    H219539   6.418   1.377  -0.015
 6532TIP3   OH219540   1.215   2.567   1.945
 6532TIP3    H119541   1.279   2.630   1.978
 6532TIP3    H219542   1.144   2.568   2.009
 6533TIP3   OH219543   6.236   4.436   4.163
 6533TIP3    H119544   6.215   4.491   4.087
 6533TIP3    H219545   6.170   4.367   4.162
 6534TIP3   OH219546   4.550   0.488   3.520
 6534TIP3    H119547   4.604   0.495   3.441
 6534TIP3    H219548   4.606   0.522   3.590
 6535TIP3   OH219549   7.690   3.020   0.608
 6535TIP3    H119550   7.717   2.954   0.544
 6535TIP3    H219551   7.720   3.103   0.571
 6536TIP3   OH219552   5.659   1.986   6.568
 6536TIP3    H119553   5.602   1.985   6.645
 6536TIP3    H219554   5.685   2.078   6.559
 6537TIP3   OH219555   4.908   3.034   0.989
 6537TIP3    H119556   4.964   2.997   1.058
 6537TIP3    H219557   4.913   2.969   0.919
 6538TIP3   OH219558   0.356   0.432   5.890
 6538TIP3    H119559   0.360   0.337   5.901
 6538TIP3    H219560   0.404   0.448   5.809
 6539TIP3   OH219561   2.256   4.564   2.859
 6539TIP3    H119562   2.305   4.482   2.859
 6539TIP3    H219563   2.323   4.632   2.869
 6540TIP3   OH219564   0.983   7.539   6.049
 6540TIP3    H119565   0.894   7.555   6.020
 6540TIP3    H219566   1.002   7.610   6.111
 6541TIP3   OH219567   2.031   1.452   6.241
 6541TIP3    H119568   1.993   1.540   6.235
 6541TIP3    H219569   2.104   1.461   6.302
 6542TIP3   OH219570   7.606   5.113   4.691
 6542TIP3    H119571   7.596   5.161   4.609
 6542TIP3    H219572   7.603   5.181   4.759
 6543TIP3   OH219573   6.819   1.354   6.591
 6543TIP3    H119574   6.821   1.323   6.681
 6543TIP3    H219575   6.730   1.335   6.561
 6544TIP3   OH219576   5.226   4.983   2.854
 6544TIP3    H119577   5.182   4.904   2.824
 6544TIP3    H219578   5.163   5.026   2.911
 6545TIP3   OH219579   5.123   6.489   0.152
 6545TIP3    H119580   5.170   6.570   0.133
 6545TIP3    H219581   5.058   6.514   0.217
 6546TIP3   OH219582   7.710   0.750   1.801
 6546TIP3    H119583   7.650   0.677   1.815
 6546TIP3    H219584   7.674   0.821   1.853
 6547TIP3   OH219585   2.371   2.074   4.000
 6547TIP3    H119586   2.407   2.160   4.019
 6547TIP3    H219587   2.443   2.013   4.019
 6548TIP3   OH219588   6.698   3.373   0.061
 6548TIP3    H119589   6.643   3.450   0.049
 6548TIP3    H219590   6.714   3.341  -0.028
 6549TIP3   OH219591   5.420   5.565   5.915
 6549TIP3    H119592   5.387   5.600   5.832
 6549TIP3    H219593   5.341   5.533   5.960
 6550TIP3   OH219594   6.439   1.517   5.333
 6550TIP3    H119595   6.520   1.490   5.376
 6550TIP3    H219596   6.376   1.525   5.404
 6551TIP3   OH219597   2.993   6.991   4.407
 6551TIP3    H119598   3.039   6.976   4.325
 6551TIP3    H219599   3.057   6.968   4.475
 6552TIP3   OH219600   6.266   1.954   2.939
 6552TIP3    H119601   6.194   2.014   2.956
 6552TIP3    H219602   6.236   1.870   2.972
 6553TIP3   OH219603   6.669   5.975   6.696
 6553TIP3    H119604   6.575   5.986   6.685
 6553TIP3    H219605   6.682   5.969   6.790
 6554TIP3   OH219606   1.658   7.652   3.041
 6554TIP3    H119607   1.668   7.605   2.959
 6554TIP3    H219608   1.627   7.739   3.016
 6555TIP3   OH219609   4.270   1.013   6.408
 6555TIP3    H119610   4.204   1.019   6.477
 6555TIP3    H219611   4.239   0.944   6.350
 6556TIP3   OH219612   8.013   1.311   5.509
 6556TIP3    H119613   8.102   1.340   5.487
 6556TIP3    H219614   8.025   1.250   5.582
 6557TIP3   OH219615   2.997   7.477   1.141
 6557TIP3    H119616   2.956   7.519   1.065
 6557TIP3    H219617   3.091   7.489   1.126
 6558TIP3   OH219618   7.353   3.277   5.251
 6558TIP3    H119619   7.354   3.338   5.324
 6558TIP3    H219620   7.440   3.284   5.212
 6559TIP3   OH219621   6.212   5.967   5.388
 6559TIP3    H119622   6.213   5.875   5.417
 6559TIP3    H219623   6.132   6.003   5.428
 6560TIP3   OH219624   4.799   0.544   1.521
 6560TIP3    H119625   4.813   0.513   1.432
 6560TIP3    H219626   4.861   0.616   1.532
 6561TIP3   OH219627   5.176   1.644   3.996
 6561TIP3    H119628   5.263   1.644   4.037
 6561TIP3    H219629   5.131   1.719   4.035
 6562TIP3   OH219630   4.896   6.554   3.492
 6562TIP3    H119631   4.977   6.528   3.536
 6562TIP3    H219632   4.869   6.476   3.443
 6563TIP3   OH219633   7.846   2.424   2.956
 6563TIP3    H119634   7.826   2.490   3.022
 6563TIP3    H219635   7.844   2.341   3.003
 6564TIP3   OH219636   3.513   6.556   3.239
 6564TIP3    H119637   3.510   6.577   3.332
 6564TIP3    H219638   3.579   6.615   3.204
 6565TIP3   OH219639   0.161   2.695   3.516
 6565TIP3    H119640   0.124   2.732   3.596
 6565TIP3    H219641   0.103   2.623   3.494
 6566TIP3   OH219642   6.719   2.520   1.153
 6566TIP3    H119643   6.706   2.591   1.091
 6566TIP3    H219644   6.784   2.463   1.111
 6567TIP3   OH219645   0.784   3.414   3.457
 6567TIP3    H119646   0.722   3.342   3.453
 6567TIP3    H219647   0.740   3.480   3.512
 6568TIP3   OH219648   2.165   7.191   4.265
 6568TIP3    H119649   2.114   7.173   4.186
 6568TIP3    H219650   2.114   7.257   4.312
 6569TIP3   OH219651   1.688   6.129   3.713
 6569TIP3    H119652   1.612   6.151   3.659
 6569TIP3    H219653   1.662   6.051   3.761
 6570TIP3   OH219654   5.990   1.505   0.084
 6570TIP3    H119655   6.009   1.490  -0.009
 6570TIP3    H219656   5.927   1.437   0.107
 6571TIP3   OH219657   0.450   3.136   6.700
 6571TIP3    H119658   0.402   3.089   6.631
 6571TIP3    H219659   0.486   3.067   6.756
 6572TIP3   OH219660   3.894   2.340   0.876
 6572TIP3    H119661   3.984   2.359   0.900
 6572TIP3    H219662   3.843   2.360   0.955
 6573TIP3   OH219663   2.315   0.151   3.408
 6573TIP3    H119664   2.263   0.147   3.488
 6573TIP3    H219665   2.258   0.198   3.346
 6574TIP3   OH219666   2.630   7.302   0.792
 6574TIP3    H119667   2.674   7.262   0.717
 6574TIP3    H219668   2.613   7.229   0.851
 6575TIP3   OH219669   7.844   4.277   6.111
 6575TIP3    H119670   7.923   4.231   6.083
 6575TIP3    H219671   7.773   4.229   6.068
 6576TIP3   OH219672   2.264   4.723   5.339
 6576TIP3    H119673   2.266   4.760   5.251
 6576TIP3    H219674   2.196   4.656   5.336
 6577TIP3   OH219675   2.913   2.673   5.721
 6577TIP3    H119676   2.959   2.750   5.754
 6577TIP3    H219677   2.981   2.608   5.706
 6578TIP3   OH219678   4.387   3.985   3.174
 6578TIP3    H119679   4.408   3.966   3.265
 6578TIP3    H219680   4.305   4.033   3.177
 6579TIP3   OH219681   6.528   0.780   5.579
 6579TIP3    H119682   6.505   0.720   5.649
 6579TIP3    H219683   6.623   0.785   5.581
 6580TIP3   OH219684   6.617   0.418   1.211
 6580TIP3    H119685   6.536   0.468   1.217
 6580TIP3    H219686   6.605   0.345   1.272
 6581TIP3   OH219687   4.957   1.896   6.749
 6581TIP3    H119688   4.921   1.871   6.834
 6581TIP3    H219689   4.907   1.843   6.686
 6582TIP3   OH219690   4.042   2.077   4.976
 6582TIP3    H119691   4.003   2.038   4.898
 6582TIP3    H219692   4.123   2.117   4.945
 6583TIP3   OH219693   6.736   5.079   0.501
 6583TIP3    H119694   6.766   5.101   0.590
 6583TIP3    H219695   6.805   5.022   0.466
 6584TIP3   OH219696   1.570   1.462   4.198
 6584TIP3    H119697   1.628   1.429   4.129
 6584TIP3    H219698   1.482   1.438   4.169
 6585TIP3   OH219699   6.094   7.578   2.488
 6585TIP3    H119700   6.147   7.594   2.566
 6585TIP3    H219701   6.005   7.568   2.521
 6586TIP3   OH219702   0.747   3.244   3.122
 6586TIP3    H119703   0.748   3.253   3.026
 6586TIP3    H219704   0.818   3.301   3.152
 6587TIP3   OH219705   7.676   3.514   0.761
 6587TIP3    H119706   7.718   3.456   0.825
 6587TIP3    H219707   7.716   3.490   0.678
 6588TIP3   OH219708   1.795   4.313   1.133
 6588TIP3    H119709   1.703   4.292   1.121
 6588TIP3    H219710   1.811   4.387   1.073
 6589TIP3   OH219711   2.338   3.872   4.991
 6589TIP3    H119712   2.423   3.916   4.981
 6589TIP3    H219713   2.304   3.864   4.902
 6590TIP3   OH219714   3.596   6.417   6.070
 6590TIP3    H119715   3.588   6.323   6.088
 6590TIP3    H219716   3.549   6.459   6.142
 6591TIP3   OH219717   1.099   6.506   5.637
 6591TIP3    H119718   1.067   6.465   5.718
 6591TIP3    H219719   1.178   6.457   5.615
 6592TIP3   OH219720   2.699   6.346   2.408
 6592TIP3    H119721   2.775   6.338   2.350
 6592TIP3    H219722   2.706   6.271   2.467
 6593TIP3   OH219723   3.249   3.609   6.132
 6593TIP3    H119724   3.328   3.597   6.184
 6593TIP3    H219725   3.241   3.704   6.122
 6594TIP3   OH219726   8.289   6.322   3.683
 6594TIP3    H119727   8.273   6.263   3.610
 6594TIP3    H219728   8.271   6.410   3.648
 6595TIP3   OH219729   4.391   0.085   3.889
 6595TIP3    H119730   4.379   0.091   3.984
 6595TIP3    H219731   4.375  -0.008   3.869
 6596TIP3   OH219732   4.256   1.560   1.366
 6596TIP3    H119733   4.280   1.476   1.326
 6596TIP3    H219734   4.180   1.588   1.316
 6597TIP3   OH219735   4.691   2.035   5.703
 6597TIP3    H119736   4.716   2.064   5.615
 6597TIP3    H219737   4.663   1.945   5.691
 6598TIP3   OH219738   7.023   0.680   3.180
 6598TIP3    H119739   7.068   0.624   3.243
 6598TIP3    H219740   6.942   0.705   3.223
 6599TIP3   OH219741   4.911   7.628   0.783
 6599TIP3    H119742   4.922   7.596   0.872
 6599TIP3    H219743   4.852   7.703   0.792
 6600TIP3   OH219744   6.087   5.459   6.295
 6600TIP3    H119745   6.120   5.372   6.318
 6600TIP3    H219746   6.058   5.451   6.204
 6601TIP3   OH219747   5.382   4.866   1.878
 6601TIP3    H119748   5.435   4.796   1.916
 6601TIP3    H219749   5.370   4.929   1.949
 6602TIP3   OH219750   2.062   6.414   4.938
 6602TIP3    H119751   2.142   6.460   4.911
 6602TIP3    H219752   2.025   6.381   4.857
 6603TIP3   OH219753   0.374   7.784   1.919
 6603TIP3    H119754   0.392   7.862   1.971
 6603TIP3    H219755   0.328   7.725   1.979
 6604TIP3   OH219756   1.626   5.140   0.598
 6604TIP3    H119757   1.655   5.189   0.521
 6604TIP3    H219758   1.660   5.052   0.585
 6605TIP3   OH219759   7.025   2.381   0.818
 6605TIP3    H119760   7.080   2.318   0.770
 6605TIP3    H219761   6.955   2.403   0.757
 6606TIP3   OH219762   1.733   0.228   4.674
 6606TIP3    H119763   1.762   0.242   4.764
 6606TIP3    H219764   1.810   0.244   4.620
 6607TIP3   OH219765   1.348   2.214   2.058
 6607TIP3    H119766   1.401   2.146   2.019
 6607TIP3    H219767   1.270   2.219   2.002
 6608TIP3   OH219768   3.850   1.341   0.480
 6608TIP3    H119769   3.829   1.424   0.522
 6608TIP3    H219770   3.934   1.315   0.518
 6609TIP3   OH219771   0.575   7.561   0.247
 6609TIP3    H119772   0.621   7.639   0.216
 6609TIP3    H219773   0.532   7.526   0.169
 6610TIP3   OH219774   1.012   4.721   4.113
 6610TIP3    H119775   1.002   4.706   4.207
 6610TIP3    H219776   1.013   4.634   4.074
 6611TIP3   OH219777   2.063   6.087   5.808
 6611TIP3    H119778   2.005   6.048   5.743
 6611TIP3    H219779   2.118   6.014   5.837
 6612TIP3   OH219780   0.993   2.159   4.049
 6612TIP3    H119781   1.004   2.251   4.075
 6612TIP3    H219782   1.082   2.124   4.048
 6613TIP3   OH219783   2.762   1.011   5.761
 6613TIP3    H119784   2.694   1.051   5.707
 6613TIP3    H219785   2.823   1.083   5.779
 6614TIP3   OH219786   2.804   5.921   3.754
 6614TIP3    H119787   2.768   5.943   3.839
 6614TIP3    H219788   2.897   5.907   3.770
 6615TIP3   OH219789   6.537   3.150   0.028
 6615TIP3    H119790   6.457   3.175  -0.017
 6615TIP3    H219791   6.589   3.231   0.031
 6616TIP3   OH219792   5.266   7.508   3.385
 6616TIP3    H119793   5.351   7.535   3.418
 6616TIP3    H219794   5.283   7.424   3.343
 6617TIP3   OH219795   4.919   3.812   1.305
 6617TIP3    H119796   5.006   3.802   1.344
 6617TIP3    H219797   4.880   3.725   1.312
 6618TIP3   OH219798   5.719   4.816   3.445
 6618TIP3    H119799   5.738   4.738   3.393
 6618TIP3    H219800   5.744   4.889   3.389
 6619TIP3   OH219801   0.727   5.612   3.977
 6619TIP3    H119802   0.812   5.579   3.951
 6619TIP3    H219803   0.695   5.661   3.901
 6620TIP3   OH219804   4.112   4.986   1.783
 6620TIP3    H119805   4.157   4.960   1.703
 6620TIP3    H219806   4.084   5.077   1.766
 6621TIP3   OH219807   3.473   7.380   2.017
 6621TIP3    H119808   3.512   7.333   1.943
 6621TIP3    H219809   3.510   7.468   2.011
 6622TIP3   OH219810   6.937   3.861   6.218
 6622TIP3    H119811   6.884   3.870   6.297
 6622TIP3    H219812   6.966   3.770   6.220
 6623TIP3   OH219813   6.881   7.345   4.527
 6623TIP3    H119814   6.845   7.309   4.608
 6623TIP3    H219815   6.973   7.360   4.547
 6624TIP3   OH219816   7.479   2.876   1.121
 6624TIP3    H119817   7.525   2.896   1.039
 6624TIP3    H219818   7.507   2.944   1.182
 6625TIP3   OH219819   6.342   5.698   2.557
 6625TIP3    H119820   6.374   5.765   2.497
 6625TIP3    H219821   6.262   5.665   2.516
 6626TIP3   OH219822   3.774   1.252   2.737
 6626TIP3    H119823   3.828   1.207   2.803
 6626TIP3    H219824   3.692   1.202   2.735
 6627TIP3   OH219825   4.494   4.257   0.743
 6627TIP3    H119826   4.522   4.165   0.735
 6627TIP3    H219827   4.548   4.303   0.679
 6628TIP3   OH219828   4.218   5.812   4.929
 6628TIP3    H119829   4.148   5.758   4.892
 6628TIP3    H219830   4.212   5.796   5.024
 6629TIP3   OH219831   1.731   1.245   0.250
 6629TIP3    H119832   1.673   1.169   0.257
 6629TIP3    H219833   1.813   1.210   0.216
 6630TIP3   OH219834   3.123   6.818   0.166
 6630TIP3    H119835   3.071   6.785   0.092
 6630TIP3    H219836   3.206   6.770   0.160
 6631TIP3   OH219837   0.229   5.595   2.678
 6631TIP3    H119838   0.216   5.500   2.686
 6631TIP3    H219839   0.140   5.632   2.678
 6632TIP3   OH219840   1.390   2.633   3.720
 6632TIP3    H119841   1.296   2.620   3.733
 6632TIP3    H219842   1.399   2.653   3.626
 6633TIP3   OH219843   5.066   4.115   6.245
 6633TIP3    H119844   5.006   4.054   6.287
 6633TIP3    H219845   5.153   4.076   6.258
 6634TIP3   OH219846   0.565   0.626   3.266
 6634TIP3    H119847   0.489   0.656   3.216
 6634TIP3    H219848   0.569   0.532   3.251
 6635TIP3   OH219849   6.272   7.133   3.063
 6635TIP3    H119850   6.232   7.213   3.096
 6635TIP3    H219851   6.366   7.147   3.073
 6636TIP3   OH219852   0.529   3.430   0.090
 6636TIP3    H119853   0.571   3.372   0.025
 6636TIP3    H219854   0.582   3.420   0.169
 6637TIP3   OH219855   1.863   6.275   3.498
 6637TIP3    H119856   1.937   6.336   3.505
 6637TIP3    H219857   1.888   6.203   3.556
 6638TIP3   OH219858   3.040   6.111   5.124
 6638TIP3    H119859   3.010   6.164   5.198
 6638TIP3    H219860   2.960   6.088   5.077
 6639TIP3   OH219861   3.847   2.143   1.592
 6639TIP3    H119862   3.764   2.111   1.558
 6639TIP3    H219863   3.870   2.081   1.662
 6640TIP3   OH219864   1.747   6.958   0.897
 6640TIP3    H119865   1.665   6.912   0.914
 6640TIP3    H219866   1.793   6.956   0.981
 6641TIP3   OH219867   2.346   6.390   0.824
 6641TIP3    H119868   2.411   6.397   0.893
 6641TIP3    H219869   2.287   6.464   0.839
 6642TIP3   OH219870   5.722   1.143   1.204
 6642TIP3    H119871   5.688   1.073   1.148
 6642TIP3    H219872   5.661   1.146   1.278
 6643TIP3   OH219873   2.480   0.845   0.875
 6643TIP3    H119874   2.478   0.758   0.913
 6643TIP3    H219875   2.573   0.865   0.865
 6644TIP3   OH219876   3.469   0.847   3.651
 6644TIP3    H119877   3.405   0.852   3.721
 6644TIP3    H219878   3.554   0.862   3.693
 6645TIP3   OH219879   2.003   4.911   2.416
 6645TIP3    H119880   2.067   4.972   2.377
 6645TIP3    H219881   1.923   4.927   2.367
 6646TIP3   OH219882   2.027   2.077   0.084
 6646TIP3    H119883   2.084   2.050   0.011
 6646TIP3    H219884   1.942   2.040   0.062
 6647TIP3   OH219885   5.101   2.677   1.592
 6647TIP3    H119886   5.114   2.585   1.615
 6647TIP3    H219887   5.167   2.694   1.525
 6648TIP3   OH219888   1.493   0.032   2.273
 6648TIP3    H119889   1.532  -0.021   2.204
 6648TIP3    H219890   1.502   0.122   2.242
 6649TIP3   OH219891   2.087   1.299   6.026
 6649TIP3    H119892   2.068   1.356   6.100
 6649TIP3    H219893   2.182   1.308   6.013
 6650TIP3   OH219894   8.079   1.772   0.472
 6650TIP3    H119895   8.063   1.854   0.426
 6650TIP3    H219896   8.158   1.737   0.432
 6651TIP3   OH219897   1.098   5.986   2.160
 6651TIP3    H119898   1.161   5.966   2.230
 6651TIP3    H219899   1.015   6.002   2.206
 6652TIP3   OH219900   1.606   5.862   5.932
 6652TIP3    H119901   1.550   5.803   5.981
 6652TIP3    H219902   1.638   5.925   5.997
 6653TIP3   OH219903   7.609   3.745   2.131
 6653TIP3    H119904   7.620   3.766   2.223
 6653TIP3    H219905   7.615   3.830   2.086
 6654TIP3   OH219906  -0.002   4.697   3.303
 6654TIP3    H119907   0.063   4.637   3.267
 6654TIP3    H219908   0.050   4.766   3.345
 6655TIP3   OH219909   0.913   4.158   1.519
 6655TIP3    H119910   0.990   4.123   1.474
 6655TIP3    H219911   0.948   4.220   1.583
 6656TIP3   OH219912   3.120   5.539   4.086
 6656TIP3    H119913   3.203   5.569   4.050
 6656TIP3    H219914   3.125   5.562   4.179
 6657TIP3   OH219915   1.064   1.593   3.546
 6657TIP3    H119916   1.145   1.603   3.497
 6657TIP3    H219917   1.023   1.679   3.542
 6658TIP3   OH219918   5.885   3.072   1.851
 6658TIP3    H119919   5.793   3.094   1.836
 6658TIP3    H219920   5.914   3.032   1.769
 6659TIP3   OH219921   2.710   0.453   4.509
 6659TIP3    H119922   2.722   0.430   4.602
 6659TIP3    H219923   2.792   0.496   4.485
 6660TIP3   OH219924   2.339   6.813   0.351
 6660TIP3    H119925   2.402   6.872   0.393
 6660TIP3    H219926   2.303   6.864   0.279
 6661TIP3   OH219927   5.542   4.140   2.775
 6661TIP3    H119928   5.557   4.046   2.780
 6661TIP3    H219929   5.573   4.174   2.859
 6662TIP3   OH219930   4.297   4.967   4.477
 6662TIP3    H119931   4.224   4.946   4.419
 6662TIP3    H219932   4.260   4.963   4.565
 6663TIP3   OH219933   2.734   2.359   0.878
 6663TIP3    H119934   2.828   2.374   0.874
 6663TIP3    H219935   2.720   2.313   0.961
 6664TIP3   OH219936   6.593   1.288   1.123
 6664TIP3    H119937   6.632   1.320   1.205
 6664TIP3    H219938   6.542   1.212   1.149
 6665TIP3   OH219939   1.314   0.149   2.764
 6665TIP3    H119940   1.325   0.223   2.823
 6665TIP3    H219941   1.389   0.155   2.705
 6666TIP3   OH219942   2.260   3.838   5.533
 6666TIP3    H119943   2.261   3.867   5.441
 6666TIP3    H219944   2.168   3.844   5.559
 6667TIP3   OH219945   0.727   7.137   4.208
 6667TIP3    H119946   0.743   7.051   4.171
 6667TIP3    H219947   0.685   7.186   4.137
 6668TIP3   OH219948   3.845   4.711   5.566
 6668TIP3    H119949   3.875   4.683   5.652
 6668TIP3    H219950   3.770   4.768   5.584
 6669TIP3   OH219951   1.016   2.622   6.151
 6669TIP3    H119952   1.032   2.650   6.241
 6669TIP3    H219953   1.050   2.694   6.098
 6670TIP3   OH219954   2.107   5.988   3.978
 6670TIP3    H119955   2.040   6.003   3.912
 6670TIP3    H219956   2.067   6.021   4.059
 6671TIP3   OH219957   5.122   4.289   2.535
 6671TIP3    H119958   5.110   4.197   2.511
 6671TIP3    H219959   5.208   4.293   2.575
 6672TIP3   OH219960   6.281   4.117   4.535
 6672TIP3    H119961   6.221   4.076   4.597
 6672TIP3    H219962   6.360   4.135   4.587
 6673TIP3   OH219963   1.995   6.562   0.176
 6673TIP3    H119964   2.073   6.519   0.142
 6673TIP3    H219965   1.973   6.628   0.110
 6674TIP3   OH219966   0.660   7.161   2.170
 6674TIP3    H119967   0.671   7.176   2.076
 6674TIP3    H219968   0.744   7.183   2.209
 6675TIP3   OH219969   6.517   0.592   5.344
 6675TIP3    H119970   6.516   0.598   5.440
 6675TIP3    H219971   6.425   0.596   5.319
 6676TIP3   OH219972   8.149   6.368   1.625
 6676TIP3    H119973   8.131   6.348   1.716
 6676TIP3    H219974   8.242   6.348   1.613
 6677TIP3   OH219975   5.346   6.217   5.826
 6677TIP3    H119976   5.334   6.277   5.752
 6677TIP3    H219977   5.272   6.236   5.884
 6678TIP3   OH219978   8.240   2.683   4.041
 6678TIP3    H119979   8.334   2.671   4.054
 6678TIP3    H219980   8.211   2.732   4.117
 6679TIP3   OH219981   6.935   3.773   5.665
 6679TIP3    H119982   6.884   3.748   5.588
 6679TIP3    H219983   6.894   3.854   5.695
 6680TIP3   OH219984   6.067   4.318   4.504
 6680TIP3    H119985   5.984   4.365   4.492
 6680TIP3    H219986   6.132   4.388   4.515
 6681TIP3   OH219987   3.729   4.062   3.208
 6681TIP3    H119988   3.808   4.009   3.208
 6681TIP3    H219989   3.694   4.053   3.119
 6682TIP3   OH219990   4.333   1.696   3.334
 6682TIP3    H119991   4.423   1.665   3.337
 6682TIP3    H219992   4.306   1.701   3.426
 6683TIP3   OH219993   6.582   7.768   3.466
 6683TIP3    H119994   6.505   7.712   3.456
 6683TIP3    H219995   6.614   7.780   3.377
 6684TIP3   OH219996   4.302   6.307   4.948
 6684TIP3    H119997   4.255   6.239   4.900
 6684TIP3    H219998   4.389   6.308   4.909
 6685TIP3   OH219999   0.795   0.609   0.824
 6685TIP3    H120000   0.881   0.642   0.798
 6685TIP3    H220001   0.756   0.681   0.873
 6686TIP3   OH220002   3.031   7.641   3.693
 6686TIP3    H120003   3.094   7.708   3.666
 6686TIP3    H220004   2.968   7.637   3.621
 6687TIP3   OH220005   4.512   6.295   1.117
 6687TIP3    H120006   4.467   6.357   1.173
 6687TIP3    H220007   4.491   6.323   1.028
 6688TIP3   OH220008   4.945   1.329   0.790
 6688TIP3    H120009   4.970   1.244   0.824
 6688TIP3    H220010   4.913   1.378   0.866
 6689TIP3   OH220011   6.029   1.707   6.133
 6689TIP3    H120012   6.012   1.709   6.039
 6689TIP3    H220013   5.966   1.769   6.170
 6690TIP3   OH220014   2.218   7.293   2.232
 6690TIP3    H120015   2.258   7.228   2.290
 6690TIP3    H220016   2.221   7.374   2.282
 6691TIP3   OH220017   7.529   2.404   3.773
 6691TIP3    H120018   7.621   2.396   3.797
 6691TIP3    H220019   7.481   2.368   3.848
 6692TIP3   OH220020   3.935   0.485   1.908
 6692TIP3    H120021   3.847   0.487   1.870
 6692TIP3    H220022   3.992   0.514   1.836
 6693TIP3   OH220023   5.986   7.522   4.450
 6693TIP3    H120024   6.061   7.516   4.510
 6693TIP3    H220025   6.018   7.573   4.376
 6694TIP3   OH220026   2.800   4.432   0.221
 6694TIP3    H120027   2.735   4.364   0.207
 6694TIP3    H220028   2.798   4.485   0.141
 6695TIP3   OH220029   5.810   7.714   2.810
 6695TIP3    H120030   5.742   7.734   2.745
 6695TIP3    H220031   5.886   7.764   2.780
 6696TIP3   OH220032   0.892   3.450   0.456
 6696TIP3    H120033   0.829   3.456   0.385
 6696TIP3    H220034   0.931   3.538   0.462
 6697TIP3   OH220035   6.280   7.583   2.678
 6697TIP3    H120036   6.364   7.560   2.639
 6697TIP3    H220037   6.288   7.556   2.770
 6698TIP3   OH220038   0.353   0.278   1.612
 6698TIP3    H120039   0.438   0.310   1.582
 6698TIP3    H220040   0.330   0.211   1.548
 6699TIP3   OH220041   2.037   5.430   5.165
 6699TIP3    H120042   2.064   5.408   5.254
 6699TIP3    H220043   1.956   5.479   5.176
 6700TIP3   OH220044   3.688   3.148   3.898
 6700TIP3    H120045   3.712   3.100   3.818
 6700TIP3    H220046   3.624   3.092   3.941
 6701TIP3   OH220047   2.776   0.449   6.048
 6701TIP3    H120048   2.832   0.499   5.989
 6701TIP3    H220049   2.797   0.482   6.135
 6702TIP3   OH220050   4.189   3.254   6.584
 6702TIP3    H120051   4.202   3.216   6.497
 6702TIP3    H220052   4.262   3.221   6.636
 6703TIP3   OH220053   6.740   0.730   2.991
 6703TIP3    H120054   6.723   0.753   2.899
 6703TIP3    H220055   6.799   0.798   3.022
 6704TIP3   OH220056   2.198   2.703   2.013
 6704TIP3    H120057   2.197   2.724   2.106
 6704TIP3    H220058   2.271   2.641   2.003
 6705TIP3   OH220059   2.504  -0.013   6.372
 6705TIP3    H120060   2.472   0.052   6.435
 6705TIP3    H220061   2.554   0.038   6.308
 6706TIP3   OH220062   6.189   4.702   3.024
 6706TIP3    H120063   6.274   4.665   3.046
 6706TIP3    H220064   6.127   4.632   3.043
 6707TIP3   OH220065   2.960   2.809   3.082
 6707TIP3    H120066   2.939   2.734   3.137
 6707TIP3    H220067   2.943   2.779   2.993
 6708TIP3   OH220068   5.333   3.855   0.269
 6708TIP3    H120069   5.360   3.945   0.248
 6708TIP3    H220070   5.347   3.806   0.188
 6709TIP3   OH220071   4.541   3.796   5.225
 6709TIP3    H120072   4.628   3.814   5.190
 6709TIP3    H220073   4.499   3.742   5.157
 6710TIP3   OH220074   2.230   6.154   6.372
 6710TIP3    H120075   2.313   6.108   6.382
 6710TIP3    H220076   2.247   6.242   6.406
 6711TIP3   OH220077   4.574   0.165   3.518
 6711TIP3    H120078   4.601   0.248   3.478
 6711TIP3    H220079   4.654   0.130   3.558
 6712TIP3   OH220080   0.083   6.863   5.511
 6712TIP3    H120081   0.051   6.779   5.543
 6712TIP3    H220082   0.014   6.895   5.453
 6713TIP3   OH220083   6.257   3.355   6.464
 6713TIP3    H120084   6.254   3.358   6.369
 6713TIP3    H220085   6.282   3.265   6.484
 6714TIP3   OH220086   0.076   3.556   5.333
 6714TIP3    H120087   0.004   3.590   5.386
 6714TIP3    H220088   0.098   3.472   5.374
 6715TIP3   OH220089   2.816   4.239   5.445
 6715TIP3    H120090   2.846   4.327   5.470
 6715TIP3    H220091   2.728   4.253   5.411
 6716TIP3   OH220092   3.864   1.008   1.143
 6716TIP3    H120093   3.918   0.983   1.068
 6716TIP3    H220094   3.775   0.989   1.116
 6717TIP3   OH220095   7.757   0.340   4.997
 6717TIP3    H120096   7.723   0.299   5.076
 6717TIP3    H220097   7.730   0.283   4.926
 6718TIP3   OH220098   7.170   1.992   4.733
 6718TIP3    H120099   7.193   1.980   4.641
 6718TIP3    H220100   7.100   1.929   4.749
 6719TIP3   OH220101   5.119   4.336   0.069
 6719TIP3    H120102   5.072   4.323  -0.013
 6719TIP3    H220103   5.197   4.281   0.061
 6720TIP3   OH220104   1.384   3.791   6.113
 6720TIP3    H120105   1.423   3.797   6.026
 6720TIP3    H220106   1.346   3.877   6.128
 6721TIP3   OH220107   7.491   6.887   4.412
 6721TIP3    H120108   7.432   6.820   4.447
 6721TIP3    H220109   7.453   6.970   4.440
 6722TIP3   OH220110   3.482   4.116   5.113
 6722TIP3    H120111   3.471   4.196   5.062
 6722TIP3    H220112   3.398   4.102   5.156
 6723TIP3   OH220113   3.363   7.797   1.899
 6723TIP3    H120114   3.352   7.713   1.854
 6723TIP3    H220115   3.307   7.858   1.851
 6724TIP3   OH220116   0.018   2.892   5.588
 6724TIP3    H120117   0.009   2.805   5.549
 6724TIP3    H220118  -0.054   2.899   5.649
 6725TIP3   OH220119   2.206   2.606   2.310
 6725TIP3    H120120   2.153   2.541   2.357
 6725TIP3    H220121   2.166   2.690   2.331
 6726TIP3   OH220122   5.112   4.342   1.713
 6726TIP3    H120123   5.184   4.385   1.667
 6726TIP3    H220124   5.034   4.369   1.665
 6727TIP3   OH220125   5.908   3.437   5.287
 6727TIP3    H120126   5.978   3.384   5.326
 6727TIP3    H220127   5.859   3.470   5.362
 6728TIP3   OH220128   1.980   3.912   0.241
 6728TIP3    H120129   2.060   3.962   0.259
 6728TIP3    H220130   1.940   3.900   0.328
 6729TIP3   OH220131   7.784   7.758   4.250
 6729TIP3    H120132   7.876   7.777   4.272
 6729TIP3    H220133   7.735   7.832   4.286
 6730TIP3   OH220134   4.779   3.603   1.609
 6730TIP3    H120135   4.696   3.556   1.603
 6730TIP3    H220136   4.816   3.597   1.521
 6731TIP3   OH220137   5.249   7.380   1.708
 6731TIP3    H120138   5.299   7.308   1.745
 6731TIP3    H220139   5.263   7.453   1.769
 6732TIP3   OH220140   6.784   4.392   4.170
 6732TIP3    H120141   6.794   4.486   4.157
 6732TIP3    H220142   6.692   4.374   4.149
 6733TIP3   OH220143   2.661   3.105   0.419
 6733TIP3    H120144   2.749   3.109   0.382
 6733TIP3    H220145   2.647   3.013   0.440
 6734TIP3   OH220146   2.152   6.654   5.745
 6734TIP3    H120147   2.135   6.570   5.702
 6734TIP3    H220148   2.080   6.710   5.718
 6735TIP3   OH220149   7.158   1.736   5.043
 6735TIP3    H120150   7.206   1.677   4.986
 6735TIP3    H220151   7.164   1.821   5.000
 6736TIP3   OH220152   1.131   1.527   6.401
 6736TIP3    H120153   1.210   1.577   6.377
 6736TIP3    H220154   1.128   1.533   6.496
 6737TIP3   OH220155   2.960   4.117   2.240
 6737TIP3    H120156   2.884   4.164   2.206
 6737TIP3    H220157   2.940   4.102   2.332
 6738TIP3   OH220158   5.666   7.829   6.730
 6738TIP3    H120159   5.589   7.883   6.745
 6738TIP3    H220160   5.642   7.742   6.763
 6739TIP3   OH220161   7.021   0.187   1.532
 6739TIP3    H120162   6.942   0.232   1.562
 6739TIP3    H220163   7.018   0.102   1.576
 6740TIP3   OH220164   4.266   1.826   5.552
 6740TIP3    H120165   4.315   1.891   5.502
 6740TIP3    H220166   4.179   1.825   5.512
 6741TIP3   OH220167   1.221   2.792   3.971
 6741TIP3    H120168   1.277   2.715   3.980
 6741TIP3    H220169   1.158   2.767   3.903
 6742TIP3   OH220170   4.157   1.340   1.764
 6742TIP3    H120171   4.178   1.256   1.803
 6742TIP3    H220172   4.140   1.320   1.672
 6743TIP3   OH220173   4.420   7.001   6.516
 6743TIP3    H120174   4.437   6.913   6.550
 6743TIP3    H220175   4.413   6.990   6.421
 6744TIP3   OH220176   3.077   0.671   6.745
 6744TIP3    H120177   3.131   0.641   6.672
 6744TIP3    H220178   2.993   0.627   6.731
 6745TIP3   OH220179   0.914   2.651   3.622
 6745TIP3    H120180   0.830   2.676   3.583
 6745TIP3    H220181   0.952   2.589   3.560
 6746TIP3   OH220182   5.226   3.861   2.727
 6746TIP3    H120183   5.248   3.769   2.717
 6746TIP3    H220184   5.138   3.869   2.690
 6747TIP3   OH220185   3.200   1.916   2.002
 6747TIP3    H120186   3.149   1.983   2.048
 6747TIP3    H220187   3.256   1.878   2.069
 6748TIP3   OH220188   6.947   3.577   6.202
 6748TIP3    H120189   6.890   3.587   6.125
 6748TIP3    H220190   6.888   3.550   6.272
 6749TIP3   OH220191   5.167   2.341   3.339
 6749TIP3    H120192   5.226   2.310   3.269
 6749TIP3    H220193   5.173   2.273   3.406
 6750TIP3   OH220194   6.283   2.192   4.711
 6750TIP3    H120195   6.371   2.160   4.726
 6750TIP3    H220196   6.290   2.248   4.634
 6751TIP3   OH220197   1.966   6.304   1.919
 6751TIP3    H120198   1.952   6.214   1.891
 6751TIP3    H220199   1.943   6.357   1.843
 6752TIP3   OH220200   4.496   0.466   0.458
 6752TIP3    H120201   4.403   0.463   0.478
 6752TIP3    H220202   4.509   0.552   0.418
 6753TIP3   OH220203   5.696   4.066   4.834
 6753TIP3    H120204   5.758   4.138   4.823
 6753TIP3    H220205   5.718   4.027   4.919
 6754TIP3   OH220206   2.954   0.003   0.897
 6754TIP3    H120207   2.883  -0.061   0.892
 6754TIP3    H220208   2.913   0.082   0.934
 6755TIP3   OH220209   3.923   3.544   2.500
 6755TIP3    H120210   3.948   3.478   2.436
 6755TIP3    H220211   3.897   3.493   2.577
 6756TIP3   OH220212   7.204   7.389   6.619
 6756TIP3    H120213   7.176   7.298   6.632
 6756TIP3    H220214   7.299   7.383   6.607
 6757TIP3   OH220215   3.537   2.287   2.246
 6757TIP3    H120216   3.490   2.251   2.170
 6757TIP3    H220217   3.567   2.210   2.294
 6758TIP3   OH220218   1.262   7.538   5.083
 6758TIP3    H120219   1.277   7.495   4.999
 6758TIP3    H220220   1.297   7.626   5.072
 6759TIP3   OH220221   7.635   0.103   2.467
 6759TIP3    H120222   7.657   0.126   2.557
 6759TIP3    H220223   7.649   0.009   2.462
 6760TIP3   OH220224   8.140   3.959   4.445
 6760TIP3    H120225   8.231   3.946   4.472
 6760TIP3    H220226   8.142   3.945   4.350
 6761TIP3   OH220227   1.682   5.672   4.499
 6761TIP3    H120228   1.777   5.662   4.505
 6761TIP3    H220229   1.649   5.582   4.490
 6762TIP3   OH220230   7.030   6.003   1.250
 6762TIP3    H120231   6.983   6.081   1.220
 6762TIP3    H220232   7.122   6.023   1.231
 6763TIP3   OH220233   7.786   6.703   2.194
 6763TIP3    H120234   7.780   6.686   2.100
 6763TIP3    H220235   7.719   6.770   2.211
 6764TIP3   OH220236   7.852   4.194   5.797
 6764TIP3    H120237   7.859   4.160   5.708
 6764TIP3    H220238   7.805   4.277   5.787
 6765TIP3   OH220239   1.071   6.223   6.255
 6765TIP3    H120240   1.066   6.152   6.190
 6765TIP3    H220241   1.148   6.273   6.229
 6766TIP3   OH220242   8.318   5.045   3.286
 6766TIP3    H120243   8.232   5.025   3.322
 6766TIP3    H220244   8.358   5.103   3.351
 6767TIP3   OH220245   0.298   5.644   4.074
 6767TIP3    H120246   0.362   5.714   4.088
 6767TIP3    H220247   0.345   5.563   4.094
 6768TIP3   OH220248   3.421   2.943   2.043
 6768TIP3    H120249   3.509   2.910   2.029
 6768TIP3    H220250   3.371   2.911   1.968
 6769TIP3   OH220251   4.958   3.793   4.894
 6769TIP3    H120252   5.033   3.851   4.902
 6769TIP3    H220253   4.924   3.811   4.806
 6770TIP3   OH220254   3.215   1.389   1.568
 6770TIP3    H120255   3.202   1.324   1.637
 6770TIP3    H220256   3.298   1.431   1.590
 6771TIP3   OH220257   2.500   5.176   1.887
 6771TIP3    H120258   2.474   5.265   1.912
 6771TIP3    H220259   2.418   5.128   1.878
 6772TIP3   OH220260   3.756   2.592   0.067
 6772TIP3    H120261   3.826   2.623   0.009
 6772TIP3    H220262   3.701   2.537   0.011
 6773TIP3   OH220263   7.354   1.831   0.929
 6773TIP3    H120264   7.341   1.741   0.899
 6773TIP3    H220265   7.406   1.822   1.009
 6774TIP3   OH220266   3.007   2.925   4.613
 6774TIP3    H120267   3.089   2.897   4.655
 6774TIP3    H220268   3.024   3.015   4.586
 6775TIP3   OH220269   6.736   6.711   2.510
 6775TIP3    H120270   6.775   6.798   2.507
 6775TIP3    H220271   6.807   6.651   2.487
 6776TIP3   OH220272   0.302   4.659   6.254
 6776TIP3    H120273   0.340   4.731   6.304
 6776TIP3    H220274   0.286   4.591   6.320
 6777TIP3   OH220275   1.375   6.753   4.270
 6777TIP3    H120276   1.346   6.677   4.220
 6777TIP3    H220277   1.467   6.765   4.246
 6778TIP3   OH220278   5.717   7.052   2.525
 6778TIP3    H120279   5.793   7.068   2.581
 6778TIP3    H220280   5.754   7.020   2.443
 6779TIP3   OH220281   3.673   7.241   4.322
 6779TIP3    H120282   3.689   7.334   4.307
 6779TIP3    H220283   3.603   7.219   4.261
 6780TIP3   OH220284   0.575   1.529   2.406
 6780TIP3    H120285   0.598   1.462   2.341
 6780TIP3    H220286   0.514   1.587   2.360
 6781TIP3   OH220287   4.472   7.807   2.524
 6781TIP3    H120288   4.526   7.801   2.445
 6781TIP3    H220289   4.533   7.793   2.596
 6782TIP3   OH220290   3.522   3.926   4.583
 6782TIP3    H120291   3.489   4.009   4.617
 6782TIP3    H220292   3.508   3.864   4.655
 6783TIP3   OH220293   2.685   3.762   5.370
 6783TIP3    H120294   2.637   3.713   5.437
 6783TIP3    H220295   2.631   3.753   5.291
 6784TIP3   OH220296   2.307   6.022   2.943
 6784TIP3    H120297   2.297   6.117   2.953
 6784TIP3    H220298   2.228   5.985   2.983
 6785TIP3   OH220299   3.075   0.306   0.045
 6785TIP3    H120300   3.093   0.241   0.113
 6785TIP3    H220301   3.144   0.372   0.057
 6786TIP3   OH220302   8.176   1.968   5.342
 6786TIP3    H120303   8.096   1.916   5.352
 6786TIP3    H220304   8.150   2.043   5.289
 6787TIP3   OH220305   7.765   2.820   4.690
 6787TIP3    H120306   7.753   2.839   4.597
 6787TIP3    H220307   7.844   2.766   4.693
 6788TIP3   OH220308   1.663   7.561   6.770
 6788TIP3    H120309   1.653   7.501   6.696
 6788TIP3    H220310   1.576   7.598   6.782
 6789TIP3   OH220311   4.763   0.788   2.199
 6789TIP3    H120312   4.813   0.707   2.207
 6789TIP3    H220313   4.802   0.834   2.125
 6790TIP3   OH220314   5.683   5.095   2.069
 6790TIP3    H120315   5.709   5.157   2.001
 6790TIP3    H220316   5.718   5.132   2.150
 6791TIP3   OH220317   3.558   3.033   0.173
 6791TIP3    H120318   3.473   3.009   0.208
 6791TIP3    H220319   3.541   3.061   0.083
 6792TIP3   OH220320   0.138   6.704   3.287
 6792TIP3    H120321   0.079   6.766   3.330
 6792TIP3    H220322   0.093   6.620   3.291
 6793TIP3   OH220323   4.838   2.640   3.882
 6793TIP3    H120324   4.850   2.571   3.947
 6793TIP3    H220325   4.848   2.721   3.931
 6794TIP3   OH220326   5.702   1.664   2.920
 6794TIP3    H120327   5.622   1.716   2.928
 6794TIP3    H220328   5.673   1.574   2.935
 6795TIP3   OH220329   1.958   1.822   6.710
 6795TIP3    H120330   1.869   1.791   6.720
 6795TIP3    H220331   1.990   1.834   6.799
 6796TIP3   OH220332   8.116   3.749   1.733
 6796TIP3    H120333   8.110   3.741   1.828
 6796TIP3    H220334   8.028   3.775   1.705
 6797TIP3   OH220335   1.759   2.698   5.886
 6797TIP3    H120336   1.828   2.687   5.821
 6797TIP3    H220337   1.740   2.610   5.916
 6798TIP3   OH220338   4.783   0.068   6.238
 6798TIP3    H120339   4.696   0.108   6.239
 6798TIP3    H220340   4.782   0.010   6.163
 6799TIP3   OH220341   6.675   1.458   4.539
 6799TIP3    H120342   6.739   1.387   4.530
 6799TIP3    H220343   6.592   1.418   4.512
 6800TIP3   OH220344   0.155   4.476   3.861
 6800TIP3    H120345   0.235   4.444   3.903
 6800TIP3    H220346   0.167   4.456   3.768
 6801TIP3   OH220347   3.822   6.262   3.833
 6801TIP3    H120348   3.844   6.179   3.793
 6801TIP3    H220349   3.726   6.262   3.838
 6802TIP3   OH220350   4.773   7.309   2.551
 6802TIP3    H120351   4.861   7.273   2.537
 6802TIP3    H220352   4.752   7.286   2.642
 6803TIP3   OH220353   7.487   7.184   0.789
 6803TIP3    H120354   7.431   7.116   0.751
 6803TIP3    H220355   7.426   7.240   0.839
 6804TIP3   OH220356   4.513   4.754   6.136
 6804TIP3    H120357   4.581   4.785   6.197
 6804TIP3    H220358   4.535   4.663   6.120
 6805TIP3   OH220359   3.631   1.945   3.781
 6805TIP3    H120360   3.595   1.885   3.716
 6805TIP3    H220361   3.585   2.027   3.766
 6806TIP3   OH220362   0.722   7.701   5.387
 6806TIP3    H120363   0.672   7.743   5.316
 6806TIP3    H220364   0.723   7.608   5.364
 6807TIP3   OH220365   2.087   1.108   1.496
 6807TIP3    H120366   2.120   1.087   1.408
 6807TIP3    H220367   2.005   1.155   1.481
 6808TIP3   OH220368   6.902   2.492   5.937
 6808TIP3    H120369   6.855   2.412   5.915
 6808TIP3    H220370   6.835   2.560   5.937
 6809TIP3   OH220371   6.044   1.261   2.474
 6809TIP3    H120372   6.041   1.353   2.498
 6809TIP3    H220373   5.977   1.220   2.529
 6810TIP3   OH220374   7.416   7.388   0.451
 6810TIP3    H120375   7.476   7.336   0.397
 6810TIP3    H220376   7.442   7.479   0.435
 6811TIP3   OH220377   5.447   2.263   5.452
 6811TIP3    H120378   5.390   2.248   5.528
 6811TIP3    H220379   5.429   2.188   5.395
 6812TIP3   OH220380   6.201   0.974   3.337
 6812TIP3    H120381   6.292   0.961   3.363
 6812TIP3    H220382   6.183   1.066   3.356
 6813TIP3   OH220383   0.905   0.038   0.517
 6813TIP3    H120384   0.868   0.111   0.467
 6813TIP3    H220385   0.926   0.076   0.603
 6814TIP3   OH220386   0.285   6.308   2.043
 6814TIP3    H120387   0.324   6.221   2.051
 6814TIP3    H220388   0.197   6.299   2.079
 6815TIP3   OH220389   0.581   1.146   2.835
 6815TIP3    H120390   0.559   1.222   2.781
 6815TIP3    H220391   0.627   1.183   2.911
 6816TIP3   OH220392   0.730   2.624   6.012
 6816TIP3    H120393   0.708   2.564   6.083
 6816TIP3    H220394   0.757   2.705   6.057
 6817TIP3   OH220395   4.011   6.386   3.249
 6817TIP3    H120396   4.068   6.322   3.291
 6817TIP3    H220397   4.012   6.363   3.157
 6818TIP3   OH220398   6.353   4.256   2.476
 6818TIP3    H120399   6.387   4.278   2.390
 6818TIP3    H220400   6.258   4.247   2.464
 6819TIP3   OH220401   5.787   1.380   0.230
 6819TIP3    H120402   5.708   1.352   0.183
 6819TIP3    H220403   5.785   1.331   0.312
 6820TIP3   OH220404   0.684   4.899   4.426
 6820TIP3    H120405   0.719   4.907   4.337
 6820TIP3    H220406   0.702   4.808   4.451
 6821TIP3   OH220407   7.165   3.410   6.394
 6821TIP3    H120408   7.194   3.363   6.472
 6821TIP3    H220409   7.073   3.429   6.410
 6822TIP3   OH220410   5.955   2.697   1.063
 6822TIP3    H120411   6.017   2.733   1.126
 6822TIP3    H220412   5.955   2.603   1.080
 6823TIP3   OH220413   1.028   2.690   6.475
 6823TIP3    H120414   1.073   2.769   6.506
 6823TIP3    H220415   0.936   2.704   6.499
 6824TIP3   OH220416   1.149   6.694   1.072
 6824TIP3    H120417   1.069   6.659   1.034
 6824TIP3    H220418   1.182   6.624   1.128
 6825TIP3   OH220419   1.821   4.776   1.298
 6825TIP3    H120420   1.742   4.742   1.340
 6825TIP3    H220421   1.789   4.822   1.220
 6826TIP3   OH220422   0.530   2.807   1.749
 6826TIP3    H120423   0.446   2.836   1.714
 6826TIP3    H220424   0.595   2.864   1.706
 6827TIP3   OH220425   3.183   6.482   2.744
 6827TIP3    H120426   3.165   6.524   2.660
 6827TIP3    H220427   3.278   6.487   2.754
 6828TIP3   OH220428   0.045   7.030   0.706
 6828TIP3    H120429  -0.032   7.054   0.757
 6828TIP3    H220430   0.114   7.089   0.737
 6829TIP3   OH220431   0.769   6.150   6.242
 6829TIP3    H120432   0.703   6.146   6.311
 6829TIP3    H220433   0.817   6.232   6.259
 6830TIP3   OH220434   2.761   1.198   0.461
 6830TIP3    H120435   2.848   1.215   0.425
 6830TIP3    H220436   2.703   1.256   0.413
 6831TIP3   OH220437   3.009   5.623   1.503
 6831TIP3    H120438   2.973   5.691   1.446
 6831TIP3    H220439   3.041   5.555   1.443
 6832TIP3   OH220440   2.270   1.211   4.609
 6832TIP3    H120441   2.231   1.247   4.689
 6832TIP3    H220442   2.334   1.277   4.582
 6833TIP3   OH220443   1.915   3.039   0.320
 6833TIP3    H120444   1.830   3.008   0.288
 6833TIP3    H220445   1.979   2.996   0.263
 6834TIP3   OH220446   5.268   2.404   4.339
 6834TIP3    H120447   5.348   2.416   4.289
 6834TIP3    H220448   5.214   2.480   4.317
 6835TIP3   OH220449   1.498   6.579   2.126
 6835TIP3    H120450   1.514   6.501   2.179
 6835TIP3    H220451   1.552   6.647   2.166
 6836TIP3   OH220452   4.000   0.122   1.651
 6836TIP3    H120453   3.947   0.055   1.608
 6836TIP3    H220454   3.970   0.122   1.742
 6837TIP3   OH220455   6.216   6.412   0.086
 6837TIP3    H120456   6.215   6.500   0.124
 6837TIP3    H220457   6.308   6.387   0.087
 6838TIP3   OH220458   0.053   4.683   5.163
 6838TIP3    H120459   0.087   4.694   5.074
 6838TIP3    H220460   0.067   4.768   5.204
 6839TIP3   OH220461   1.230   2.114   3.529
 6839TIP3    H120462   1.166   2.101   3.598
 6839TIP3    H220463   1.220   2.206   3.504
 6840TIP3   OH220464   3.301   6.987   1.246
 6840TIP3    H120465   3.207   6.992   1.262
 6840TIP3    H220466   3.314   7.035   1.165
 6841TIP3   OH220467   3.493   7.649  -0.016
 6841TIP3    H120468   3.440   7.578   0.021
 6841TIP3    H220469   3.564   7.660   0.048
 6842TIP3   OH220470   1.708   1.452   2.967
 6842TIP3    H120471   1.673   1.367   2.942
 6842TIP3    H220472   1.799   1.451   2.938
 6843TIP3   OH220473   2.674   2.654   2.237
 6843TIP3    H120474   2.729   2.579   2.263
 6843TIP3    H220475   2.595   2.614   2.200
 6844TIP3   OH220476   7.451   1.627   1.455
 6844TIP3    H120477   7.478   1.713   1.486
 6844TIP3    H220478   7.400   1.590   1.527
 6845TIP3   OH220479   5.536   0.867   1.460
 6845TIP3    H120480   5.605   0.840   1.399
 6845TIP3    H220481   5.455   0.839   1.418
 6846TIP3   OH220482   7.078   2.237   6.724
 6846TIP3    H120483   6.989   2.267   6.703
 6846TIP3    H220484   7.103   2.183   6.649
 6847TIP3   OH220485   3.338   7.356   5.278
 6847TIP3    H120486   3.377   7.366   5.191
 6847TIP3    H220487   3.320   7.262   5.285
 6848TIP3   OH220488   4.003   0.365   0.815
 6848TIP3    H120489   4.062   0.337   0.746
 6848TIP3    H220490   3.927   0.400   0.769
 6849TIP3   OH220491   5.060   0.441   0.323
 6849TIP3    H120492   5.121   0.435   0.396
 6849TIP3    H220493   5.012   0.358   0.326
 6850TIP3   OH220494   3.096   5.432   0.100
 6850TIP3    H120495   3.119   5.516   0.061
 6850TIP3    H220496   3.159   5.370   0.062
 6851TIP3   OH220497   5.307   6.279   2.143
 6851TIP3    H120498   5.311   6.228   2.062
 6851TIP3    H220499   5.218   6.315   2.145
 6852TIP3   OH220500   5.655   3.199   5.851
 6852TIP3    H120501   5.700   3.218   5.769
 6852TIP3    H220502   5.659   3.281   5.900
 6853TIP3   OH220503   3.059   5.335   2.595
 6853TIP3    H120504   3.021   5.333   2.507
 6853TIP3    H220505   3.106   5.253   2.603
 6854TIP3   OH220506   8.262   6.728   6.364
 6854TIP3    H120507   8.212   6.732   6.445
 6854TIP3    H220508   8.269   6.634   6.345
 6855TIP3   OH220509   2.196   1.524   2.397
 6855TIP3    H120510   2.236   1.588   2.456
 6855TIP3    H220511   2.229   1.440   2.427
 6856TIP3   OH220512   2.732   6.692   6.356
 6856TIP3    H120513   2.722   6.740   6.438
 6856TIP3    H220514   2.775   6.754   6.297
 6857TIP3   OH220515   6.215   0.109   3.574
 6857TIP3    H120516   6.202   0.084   3.666
 6857TIP3    H220517   6.268   0.188   3.578
 6858TIP3   OH220518   7.215   1.687   5.757
 6858TIP3    H120519   7.224   1.752   5.826
 6858TIP3    H220520   7.122   1.686   5.737
 6859TIP3   OH220521   2.258   1.915   2.267
 6859TIP3    H120522   2.227   1.991   2.316
 6859TIP3    H220523   2.203   1.843   2.297
 6860TIP3   OH220524   8.275   0.716   5.475
 6860TIP3    H120525   8.329   0.641   5.500
 6860TIP3    H220526   8.299   0.734   5.384
 6861TIP3   OH220527   1.039   3.669   0.459
 6861TIP3    H120528   1.013   3.716   0.380
 6861TIP3    H220529   1.127   3.637   0.440
 6862TIP3   OH220530   0.845   4.858   3.953
 6862TIP3    H120531   0.910   4.847   3.884
 6862TIP3    H220532   0.888   4.827   4.032
 6863TIP3   OH220533   7.098   2.053   4.012
 6863TIP3    H120534   7.106   2.035   4.105
 6863TIP3    H220535   7.031   1.992   3.982
 6864TIP3   OH220536   6.734   0.869   2.747
 6864TIP3    H120537   6.801   0.886   2.681
 6864TIP3    H220538   6.651   0.890   2.704
 6865TIP3   OH220539   7.323   3.306   4.964
 6865TIP3    H120540   7.303   3.264   5.048
 6865TIP3    H220541   7.418   3.313   4.963
 6866TIP3   OH220542   5.494   6.540   6.000
 6866TIP3    H120543   5.515   6.447   6.004
 6866TIP3    H220544   5.537   6.579   6.076
 6867TIP3   OH220545   4.556   4.559   4.035
 6867TIP3    H120546   4.553   4.499   3.961
 6867TIP3    H220547   4.569   4.645   3.996
 6868TIP3   OH220548   8.205   2.896   5.823
 6868TIP3    H120549   8.274   2.833   5.844
 6868TIP3    H220550   8.244   2.981   5.839
 6869TIP3   OH220551   6.199   2.816   2.395
 6869TIP3    H120552   6.228   2.831   2.306
 6869TIP3    H220553   6.181   2.904   2.430
 6870TIP3   OH220554   1.417   2.059   1.800
 6870TIP3    H120555   1.498   2.090   1.760
 6870TIP3    H220556   1.444   2.016   1.881
 6871TIP3   OH220557   4.684   2.350   1.832
 6871TIP3    H120558   4.589   2.336   1.829
 6871TIP3    H220559   4.715   2.321   1.747
 6872TIP3   OH220560   4.669   3.068   3.813
 6872TIP3    H120561   4.724   3.124   3.869
 6872TIP3    H220562   4.731   3.007   3.773
 6873TIP3   OH220563   1.187   6.233   2.957
 6873TIP3    H120564   1.100   6.254   2.989
 6873TIP3    H220565   1.244   6.301   2.995
 6874TIP3   OH220566   0.287   7.627   4.183
 6874TIP3    H120567   0.198   7.662   4.173
 6874TIP3    H220568   0.344   7.698   4.154
 6875TIP3   OH220569   7.806   0.097   2.789
 6875TIP3    H120570   7.865   0.104   2.863
 6875TIP3    H220571   7.741   0.032   2.816
 6876TIP3   OH220572   1.619   4.332   6.184
 6876TIP3    H120573   1.591   4.422   6.200
 6876TIP3    H220574   1.709   4.329   6.218
 6877TIP3   OH220575   4.604   2.768   4.008
 6877TIP3    H120576   4.575   2.837   3.949
 6877TIP3    H220577   4.614   2.691   3.953
 6878TIP3   OH220578   4.283   7.225   4.557
 6878TIP3    H120579   4.273   7.136   4.592
 6878TIP3    H220580   4.201   7.269   4.578
 6879TIP3   OH220581   5.491   6.834   2.183
 6879TIP3    H120582   5.582   6.827   2.212
 6879TIP3    H220583   5.473   6.750   2.140
 6880TIP3   OH220584   6.913   6.059   0.112
 6880TIP3    H120585   6.889   5.988   0.051
 6880TIP3    H220586   6.953   6.014   0.186
 6881TIP3   OH220587   5.044   4.375   1.986
 6881TIP3    H120588   5.081   4.371   1.898
 6881TIP3    H220589   5.028   4.468   2.001
 6882TIP3   OH220590   2.632   1.452   6.314
 6882TIP3    H120591   2.598   1.541   6.303
 6882TIP3    H220592   2.727   1.462   6.317
 6883TIP3   OH220593   7.811   6.077   4.426
 6883TIP3    H120594   7.867   6.039   4.358
 6883TIP3    H220595   7.749   6.008   4.448
 6884TIP3   OH220596   3.420   0.843   2.657
 6884TIP3    H120597   3.434   0.803   2.571
 6884TIP3    H220598   3.404   0.769   2.715
 6885TIP3   OH220599   2.667   2.092   2.736
 6885TIP3    H120600   2.678   2.114   2.644
 6885TIP3    H220601   2.756   2.079   2.769
 6886TIP3   OH220602   7.170   3.359   2.788
 6886TIP3    H120603   7.134   3.349   2.876
 6886TIP3    H220604   7.124   3.294   2.735
 6887TIP3   OH220605   1.440   1.715   1.242
 6887TIP3    H120606   1.505   1.772   1.283
 6887TIP3    H220607   1.391   1.773   1.183
 6888TIP3   OH220608   4.520   5.471   6.507
 6888TIP3    H120609   4.436   5.430   6.483
 6888TIP3    H220610   4.583   5.436   6.444
 6889TIP3   OH220611   7.446   6.372   6.657
 6889TIP3    H120612   7.419   6.334   6.574
 6889TIP3    H220613   7.541   6.384   6.649
 6890TIP3   OH220614   6.873   1.056   0.361
 6890TIP3    H120615   6.829   1.133   0.324
 6890TIP3    H220616   6.956   1.051   0.315
 6891TIP3   OH220617   2.574   4.299   4.606
 6891TIP3    H120618   2.591   4.378   4.657
 6891TIP3    H220619   2.502   4.322   4.547
 6892TIP3   OH220620   4.720   2.690   4.596
 6892TIP3    H120621   4.680   2.777   4.593
 6892TIP3    H220622   4.649   2.630   4.617
 6893TIP3   OH220623   3.055   7.004   1.946
 6893TIP3    H120624   3.131   7.052   1.980
 6893TIP3    H220625   2.980   7.047   1.987
 6894TIP3   OH220626   7.487   1.150   3.951
 6894TIP3    H120627   7.467   1.164   3.858
 6894TIP3    H220628   7.433   1.074   3.975
 6895TIP3   OH220629   2.407   4.168   5.795
 6895TIP3    H120630   2.498   4.149   5.818
 6895TIP3    H220631   2.411   4.252   5.750
 6896TIP3   OH220632   5.386   6.289   4.987
 6896TIP3    H120633   5.384   6.370   4.937
 6896TIP3    H220634   5.410   6.316   5.076
 6897TIP3   OH220635   1.377   2.476   1.397
 6897TIP3    H120636   1.392   2.401   1.454
 6897TIP3    H220637   1.464   2.497   1.362
 6898TIP3   OH220638   5.220   4.561   6.586
 6898TIP3    H120639   5.305   4.531   6.554
 6898TIP3    H220640   5.230   4.655   6.598
 6899TIP3   OH220641   0.418   7.072   1.934
 6899TIP3    H120642   0.354   7.010   1.899
 6899TIP3    H220643   0.489   7.017   1.967
 6900TIP3   OH220644   5.330   0.118   1.777
 6900TIP3    H120645   5.242   0.089   1.753
 6900TIP3    H220646   5.386   0.043   1.756
 6901TIP3   OH220647   3.430   4.434   3.588
 6901TIP3    H120648   3.403   4.356   3.539
 6901TIP3    H220649   3.508   4.466   3.542
 6902TIP3   OH220650   2.236   1.505   2.726
 6902TIP3    H120651   2.330   1.496   2.710
 6902TIP3    H220652   2.209   1.420   2.761
 6903TIP3   OH220653   7.354   3.516   5.721
 6903TIP3    H120654   7.280   3.499   5.779
 6903TIP3    H220655   7.431   3.499   5.775
 6904TIP3   OH220656   0.362   2.766   6.610
 6904TIP3    H120657   0.457   2.765   6.626
 6904TIP3    H220658   0.341   2.858   6.594
 6905TIP3   OH220659   1.685   7.086   1.766
 6905TIP3    H120660   1.696   7.022   1.836
 6905TIP3    H220661   1.767   7.082   1.717
 6906TIP3   OH220662   0.558   2.395   1.221
 6906TIP3    H120663   0.525   2.319   1.173
 6906TIP3    H220664   0.558   2.466   1.157
 6907TIP3   OH220665   1.855   6.052   4.791
 6907TIP3    H120666   1.787   5.994   4.758
 6907TIP3    H220667   1.936   6.002   4.781
 6908TIP3   OH220668   0.548   5.568   2.322
 6908TIP3    H120669   0.535   5.477   2.347
 6908TIP3    H220670   0.491   5.617   2.381
 6909TIP3   OH220671   5.225   0.453   5.878
 6909TIP3    H120672   5.198   0.436   5.968
 6909TIP3    H220673   5.185   0.383   5.827
 6910TIP3   OH220674   4.658   1.655   5.023
 6910TIP3    H120675   4.591   1.599   5.063
 6910TIP3    H220676   4.617   1.741   5.018
 6911TIP3   OH220677   6.710   4.018   0.865
 6911TIP3    H120678   6.704   4.101   0.818
 6911TIP3    H220679   6.620   3.984   0.863
 6912TIP3   OH220680   7.526   0.493   4.519
 6912TIP3    H120681   7.478   0.550   4.459
 6912TIP3    H220682   7.504   0.405   4.492
 6913TIP3   OH220683   0.060   3.485   4.807
 6913TIP3    H120684   0.010   3.429   4.866
 6913TIP3    H220685   0.006   3.564   4.799
 6914TIP3   OH220686   2.504   2.375   5.468
 6914TIP3    H120687   2.495   2.401   5.376
 6914TIP3    H220688   2.544   2.452   5.510
 6915TIP3   OH220689   2.032   4.207   4.538
 6915TIP3    H120690   2.041   4.302   4.531
 6915TIP3    H220691   1.960   4.194   4.600
 6916TIP3   OH220692   3.804   3.071   5.836
 6916TIP3    H120693   3.827   3.162   5.817
 6916TIP3    H220694   3.715   3.075   5.870
 6917TIP3   OH220695   6.007   7.595   4.877
 6917TIP3    H120696   6.014   7.691   4.874
 6917TIP3    H220697   6.092   7.564   4.844
 6918TIP3   OH220698   5.294   1.886   3.229
 6918TIP3    H120699   5.386   1.898   3.208
 6918TIP3    H220700   5.249   1.887   3.144
 6919TIP3   OH220701   4.691   5.036   0.191
 6919TIP3    H120702   4.616   5.050   0.134
 6919TIP3    H220703   4.676   4.950   0.231
 6920TIP3   OH220704   1.816   5.738   5.793
 6920TIP3    H120705   1.839   5.813   5.738
 6920TIP3    H220706   1.733   5.763   5.834
 6921TIP3   OH220707   3.711   5.145   5.025
 6921TIP3    H120708   3.658   5.223   5.005
 6921TIP3    H220709   3.773   5.175   5.091
 6922TIP3   OH220710   4.235   4.661   3.280
 6922TIP3    H120711   4.256   4.597   3.211
 6922TIP3    H220712   4.194   4.608   3.349
 6923TIP3   OH220713   1.337   5.501   3.876
 6923TIP3    H120714   1.265   5.503   3.813
 6923TIP3    H220715   1.368   5.591   3.880
 6924TIP3   OH220716   0.139   3.379   6.725
 6924TIP3    H120717   0.158   3.300   6.674
 6924TIP3    H220718   0.083   3.431   6.667
 6925TIP3   OH220719   7.733   2.416   0.649
 6925TIP3    H120720   7.822   2.379   0.648
 6925TIP3    H220721   7.747   2.509   0.666
 6926TIP3   OH220722   5.673   3.209   4.842
 6926TIP3    H120723   5.710   3.214   4.930
 6926TIP3    H220724   5.639   3.297   4.825
 6927TIP3   OH220725   3.469   1.445   0.680
 6927TIP3    H120726   3.407   1.383   0.717
 6927TIP3    H220727   3.458   1.437   0.585
 6928TIP3   OH220728   3.150   2.674   5.211
 6928TIP3    H120729   3.094   2.635   5.278
 6928TIP3    H220730   3.148   2.768   5.231
 6929TIP3   OH220731   4.137   4.382   2.521
 6929TIP3    H120732   4.227   4.359   2.541
 6929TIP3    H220733   4.084   4.328   2.580
 6930TIP3   OH220734   6.519   5.936   2.186
 6930TIP3    H120735   6.460   5.860   2.189
 6930TIP3    H220736   6.568   5.930   2.268
 6931TIP3   OH220737   0.961   0.306   6.053
 6931TIP3    H120738   0.926   0.322   6.141
 6931TIP3    H220739   0.895   0.343   5.994
 6932TIP3   OH220740   5.422   7.602   0.073
 6932TIP3    H120741   5.413   7.511   0.043
 6932TIP3    H220742   5.505   7.602   0.122
 6933TIP3   OH220743   1.708   0.913   2.518
 6933TIP3    H120744   1.711   0.841   2.456
 6933TIP3    H220745   1.786   0.965   2.499
 6934TIP3   OH220746   7.910   3.387   3.207
 6934TIP3    H120747   7.861   3.412   3.285
 6934TIP3    H220748   7.894   3.458   3.145
 6935TIP3   OH220749   1.142   6.401   1.553
 6935TIP3    H120750   1.231   6.404   1.517
 6935TIP3    H220751   1.129   6.488   1.591
 6936TIP3   OH220752   0.314   4.956   3.769
 6936TIP3    H120753   0.402   4.922   3.756
 6936TIP3    H220754   0.261   4.880   3.790
 6937TIP3   OH220755   3.844   3.896   5.166
 6937TIP3    H120756   3.930   3.926   5.196
 6937TIP3    H220757   3.855   3.803   5.150
 6938TIP3   OH220758   3.655   5.474   5.231
 6938TIP3    H120759   3.692   5.504   5.148
 6938TIP3    H220760   3.717   5.504   5.297
 6939TIP3   OH220761   7.038   4.587   0.194
 6939TIP3    H120762   7.115   4.575   0.137
 6939TIP3    H220763   6.982   4.646   0.145
 6940TIP3   OH220764   7.123   7.275   4.655
 6940TIP3    H120765   7.202   7.222   4.655
 6940TIP3    H220766   7.078   7.253   4.737
 6941TIP3   OH220767   5.060   6.916   5.653
 6941TIP3    H120768   5.094   7.005   5.662
 6941TIP3    H220769   5.116   6.863   5.709
 6942TIP3   OH220770   1.493   2.072   5.920
 6942TIP3    H120771   1.505   2.125   5.841
 6942TIP3    H220772   1.517   2.131   5.992
 6943TIP3   OH220773   3.413   6.033   4.422
 6943TIP3    H120774   3.367   5.964   4.469
 6943TIP3    H220775   3.504   6.025   4.449
 6944TIP3   OH220776   8.028   2.682   2.664
 6944TIP3    H120777   8.068   2.736   2.732
 6944TIP3    H220778   8.038   2.592   2.696
 6945TIP3   OH220779   8.290   4.009   5.005
 6945TIP3    H120780   8.280   3.958   4.924
 6945TIP3    H220781   8.227   4.080   4.995
 6946TIP3   OH220782   6.284   6.317   5.078
 6946TIP3    H120783   6.326   6.234   5.054
 6946TIP3    H220784   6.306   6.376   5.006
 6947TIP3   OH220785   1.065   6.322   4.181
 6947TIP3    H120786   1.107   6.395   4.226
 6947TIP3    H220787   0.971   6.336   4.194
 6948TIP3   OH220788   0.422   4.229   6.440
 6948TIP3    H120789   0.390   4.212   6.352
 6948TIP3    H220790   0.421   4.143   6.483
 6949TIP3   OH220791   2.745   1.591   0.467
 6949TIP3    H120792   2.671   1.560   0.518
 6949TIP3    H220793   2.706   1.636   0.392
 6950TIP3   OH220794   2.560   2.540   6.729
 6950TIP3    H120795   2.640   2.551   6.781
 6950TIP3    H220796   2.496   2.506   6.791
 6951TIP3   OH220797   3.443   0.357   1.844
 6951TIP3    H120798   3.377   0.316   1.900
 6951TIP3    H220799   3.447   0.302   1.766
 6952TIP3   OH220800   0.335   5.052   2.576
 6952TIP3    H120801   0.305   5.055   2.485
 6952TIP3    H220802   0.402   5.120   2.581
 6953TIP3   OH220803   7.314   7.328   5.392
 6953TIP3    H120804   7.232   7.374   5.409
 6953TIP3    H220805   7.303   7.243   5.434
 6954TIP3   OH220806   3.803   5.718   2.517
 6954TIP3    H120807   3.884   5.733   2.566
 6954TIP3    H220808   3.738   5.701   2.584
 6955TIP3   OH220809   7.588   1.897   5.354
 6955TIP3    H120810   7.540   1.961   5.407
 6955TIP3    H220811   7.520   1.852   5.304
 6956TIP3   OH220812   4.862   2.728   1.045
 6956TIP3    H120813   4.837   2.639   1.067
 6956TIP3    H220814   4.950   2.720   1.009
 6957TIP3   OH220815   7.536   4.722   0.682
 6957TIP3    H120816   7.628   4.695   0.690
 6957TIP3    H220817   7.491   4.671   0.749
 6958TIP3   OH220818   2.716   0.105   1.407
 6958TIP3    H120819   2.775   0.179   1.416
 6958TIP3    H220820   2.759   0.046   1.345
 6959TIP3   OH220821   1.225   0.664   0.219
 6959TIP3    H120822   1.263   0.591   0.267
 6959TIP3    H220823   1.279   0.672   0.140
 6960TIP3   OH220824   1.199   2.382   3.453
 6960TIP3    H120825   1.252   2.448   3.410
 6960TIP3    H220826   1.112   2.421   3.461
 6961TIP3   OH220827   5.438   7.331   0.021
 6961TIP3    H120828   5.384   7.335  -0.058
 6961TIP3    H220829   5.424   7.243   0.055
 6962TIP3   OH220830   7.109   1.452   4.519
 6962TIP3    H120831   7.069   1.397   4.452
 6962TIP3    H220832   7.200   1.461   4.493
 6963TIP3   OH220833   3.496   3.145   1.574
 6963TIP3    H120834   3.525   3.107   1.657
 6963TIP3    H220835   3.471   3.069   1.521
 6964TIP3   OH220836   7.637   5.263   2.591
 6964TIP3    H120837   7.584   5.343   2.595
 6964TIP3    H220838   7.576   5.196   2.561
 6965TIP3   OH220839   2.231   6.747   3.640
 6965TIP3    H120840   2.312   6.706   3.671
 6965TIP3    H220841   2.164   6.679   3.649
 6966TIP3   OH220842   5.940   2.146   6.713
 6966TIP3    H120843   5.889   2.139   6.794
 6966TIP3    H220844   5.990   2.065   6.709
 6967TIP3   OH220845   1.126   5.099   3.672
 6967TIP3    H120846   1.085   5.165   3.728
 6967TIP3    H220847   1.148   5.147   3.592
 6968TIP3   OH220848   0.713   1.467   5.565
 6968TIP3    H120849   0.754   1.437   5.646
 6968TIP3    H220850   0.704   1.562   5.576
 6969TIP3   OH220851   1.686   1.595   0.470
 6969TIP3    H120852   1.748   1.526   0.447
 6969TIP3    H220853   1.717   1.672   0.422
 6970TIP3   OH220854   5.092   3.716   3.050
 6970TIP3    H120855   5.010   3.690   3.009
 6970TIP3    H220856   5.089   3.812   3.052
 6971TIP3   OH220857   7.269   3.922   5.054
 6971TIP3    H120858   7.248   3.869   4.977
 6971TIP3    H220859   7.235   4.009   5.034
 6972TIP3   OH220860   5.742   1.467   5.989
 6972TIP3    H120861   5.674   1.446   5.925
 6972TIP3    H220862   5.694   1.482   6.071
 6973TIP3   OH220863   1.393   0.741   1.759
 6973TIP3    H120864   1.398   0.686   1.837
 6973TIP3    H220865   1.344   0.818   1.787
 6974TIP3   OH220866   5.046   5.390   1.825
 6974TIP3    H120867   5.043   5.325   1.895
 6974TIP3    H220868   4.955   5.418   1.813
 6975TIP3   OH220869   8.256   0.811   1.028
 6975TIP3    H120870   8.280   0.899   1.058
 6975TIP3    H220871   8.203   0.775   1.099
 6976TIP3   OH220872   5.953   7.672   5.179
 6976TIP3    H120873   6.005   7.737   5.131
 6976TIP3    H220874   5.925   7.610   5.112
 6977TIP3   OH220875   1.257   6.206   0.376
 6977TIP3    H120876   1.211   6.226   0.458
 6977TIP3    H220877   1.193   6.158   0.324
 6978TIP3   OH220878   6.286   6.524   0.386
 6978TIP3    H120879   6.377   6.499   0.372
 6978TIP3    H220880   6.290   6.604   0.439
 6979TIP3   OH220881   6.780   0.207   1.106
 6979TIP3    H120882   6.804   0.202   1.198
 6979TIP3    H220883   6.732   0.289   1.098
 6980TIP3   OH220884   1.888   2.649   3.200
 6980TIP3    H120885   1.955   2.707   3.234
 6980TIP3    H220886   1.937   2.578   3.158
 6981TIP3   OH220887   5.213   0.384   4.985
 6981TIP3    H120888   5.149   0.455   4.988
 6981TIP3    H220889   5.249   0.388   4.897
 6982TIP3   OH220890   4.107   1.592   2.193
 6982TIP3    H120891   4.104   1.497   2.205
 6982TIP3    H220892   4.042   1.609   2.125
 6983TIP3   OH220893   3.268   6.388   6.730
 6983TIP3    H120894   3.229   6.459   6.781
 6983TIP3    H220895   3.209   6.314   6.742
 6984TIP3   OH220896   0.745   2.319   3.623
 6984TIP3    H120897   0.709   2.266   3.695
 6984TIP3    H220898   0.779   2.254   3.561
 6985TIP3   OH220899   3.695   7.800   5.108
 6985TIP3    H120900   3.767   7.773   5.165
 6985TIP3    H220901   3.649   7.867   5.157
 6986TIP3   OH220902   1.200   5.822   0.360
 6986TIP3    H120903   1.183   5.913   0.385
 6986TIP3    H220904   1.116   5.778   0.371
 6987TIP3   OH220905   4.290   3.895   4.364
 6987TIP3    H120906   4.252   3.821   4.315
 6987TIP3    H220907   4.217   3.955   4.376
 6988TIP3   OH220908   3.503   0.698   2.455
 6988TIP3    H120909   3.429   0.638   2.446
 6988TIP3    H220910   3.559   0.680   2.379
 6989TIP3   OH220911   3.332   6.015   0.680
 6989TIP3    H120912   3.288   5.948   0.628
 6989TIP3    H220913   3.325   6.095   0.628
 6990TIP3   OH220914   6.164   4.496   3.643
 6990TIP3    H120915   6.242   4.496   3.588
 6990TIP3    H220916   6.096   4.532   3.588
 6991TIP3   OH220917   3.558   6.357   4.662
 6991TIP3    H120918   3.605   6.303   4.598
 6991TIP3    H220919   3.477   6.382   4.618
 6992TIP3   OH220920   7.524   3.117   6.407
 6992TIP3    H120921   7.457   3.078   6.351
 6992TIP3    H220922   7.568   3.180   6.350
 6993TIP3   OH220923   1.866   3.298   3.870
 6993TIP3    H120924   1.785   3.270   3.828
 6993TIP3    H220925   1.838   3.337   3.953
 6994TIP3   OH220926   4.572   7.095   2.626
 6994TIP3    H120927   4.543   7.087   2.535
 6994TIP3    H220928   4.503   7.146   2.670
 6995TIP3   OH220929   2.087   7.240   4.536
 6995TIP3    H120930   2.145   7.198   4.472
 6995TIP3    H220931   2.033   7.168   4.570
 6996TIP3   OH220932   2.778   4.570   0.482
 6996TIP3    H120933   2.839   4.497   0.486
 6996TIP3    H220934   2.755   4.576   0.389
 6997TIP3   OH220935   0.518   5.627   2.999
 6997TIP3    H120936   0.437   5.582   3.024
 6997TIP3    H220937   0.504   5.718   3.026
 6998TIP3   OH220938   5.974   2.733   4.533
 6998TIP3    H120939   5.937   2.700   4.451
 6998TIP3    H220940   6.015   2.657   4.574
 6999TIP3   OH220941   5.923   7.043   1.739
 6999TIP3    H120942   5.893   6.999   1.659
 6999TIP3    H220943   5.907   6.980   1.808
 7000TIP3   OH220944   0.736   3.725   0.754
 7000TIP3    H120945   0.816   3.766   0.721
 7000TIP3    H220946   0.698   3.790   0.814
 7001TIP3   OH220947   4.468   2.703   2.477
 7001TIP3    H120948   4.472   2.675   2.569
 7001TIP3    H220949   4.500   2.793   2.478
 7002TIP3   OH220950   0.382   2.720   5.802
 7002TIP3    H120951   0.370   2.663   5.726
 7002TIP3    H220952   0.453   2.680   5.852
 7003TIP3   OH220953   3.453   0.253   6.666
 7003TIP3    H120954   3.413   0.219   6.746
 7003TIP3    H220955   3.396   0.221   6.596
 7004TIP3   OH220956   4.121   6.803   0.728
 7004TIP3    H120957   4.164   6.739   0.671
 7004TIP3    H220958   4.099   6.876   0.670
 7005TIP3   OH220959   0.451   5.883   4.230
 7005TIP3    H120960   0.474   5.815   4.294
 7005TIP3    H220961   0.535   5.913   4.196
 7006TIP3   OH220962   6.870   4.680   0.384
 7006TIP3    H120963   6.793   4.624   0.390
 7006TIP3    H220964   6.928   4.636   0.323
 7007TIP3   OH220965   4.501   0.465   2.716
 7007TIP3    H120966   4.568   0.398   2.704
 7007TIP3    H220967   4.425   0.432   2.669
 7008TIP3   OH220968   5.277   3.376   1.998
 7008TIP3    H120969   5.330   3.455   2.009
 7008TIP3    H220970   5.233   3.388   1.914
 7009TIP3   OH220971   7.483   7.190   5.179
 7009TIP3    H120972   7.408   7.245   5.201
 7009TIP3    H220973   7.460   7.152   5.094
 7010TIP3   OH220974   7.570   7.105   6.612
 7010TIP3    H120975   7.564   7.044   6.686
 7010TIP3    H220976   7.648   7.077   6.564
 7011TIP3   OH220977   5.569   7.582   3.512
 7011TIP3    H120978   5.535   7.669   3.492
 7011TIP3    H220979   5.609   7.592   3.599
 7012TIP3   OH220980   2.586   3.453   2.416
 7012TIP3    H120981   2.591   3.518   2.346
 7012TIP3    H220982   2.598   3.503   2.497
 7013TIP3   OH220983   6.205   4.901   6.442
 7013TIP3    H120984   6.210   4.860   6.356
 7013TIP3    H220985   6.294   4.930   6.461
 7014TIP3   OH220986   5.403   5.817   0.013
 7014TIP3    H120987   5.434   5.906   0.033
 7014TIP3    H220988   5.326   5.806   0.068
 7015TIP3   OH220989   8.148   7.457   2.641
 7015TIP3    H120990   8.214   7.525   2.626
 7015TIP3    H220991   8.182   7.380   2.596
 7016TIP3   OH220992   5.780   6.735   1.628
 7016TIP3    H120993   5.738   6.748   1.714
 7016TIP3    H220994   5.873   6.744   1.646
 7017TIP3   OH220995   0.352   0.471   0.094
 7017TIP3    H120996   0.315   0.418   0.023
 7017TIP3    H220997   0.292   0.458   0.167
 7018TIP3   OH220998   7.122   3.668   3.528
 7018TIP3    H120999   7.214   3.654   3.504
 7018TIP3    H221000   7.114   3.631   3.616
 7019TIP3   OH221001   5.910   5.026   4.739
 7019TIP3    H121002   5.880   4.940   4.768
 7019TIP3    H221003   6.005   5.024   4.751
 7020TIP3   OH221004   0.538   4.824   2.812
 7020TIP3    H121005   0.458   4.864   2.847
 7020TIP3    H221006   0.509   4.777   2.733
 7021TIP3   OH221007   6.608   2.763   4.662
 7021TIP3    H121008   6.623   2.696   4.595
 7021TIP3    H221009   6.539   2.818   4.626
 7022TIP3   OH221010   1.954   4.090   4.221
 7022TIP3    H121011   2.043   4.055   4.228
 7022TIP3    H221012   1.954   4.167   4.278
 7023TIP3   OH221013   4.028   0.293   6.758
 7023TIP3    H121014   4.060   0.334   6.678
 7023TIP3    H221015   3.934   0.282   6.744
 7024TIP3   OH221016   0.706   1.195   3.315
 7024TIP3    H121017   0.617   1.229   3.324
 7024TIP3    H221018   0.762   1.264   3.351
 7025TIP3   OH221019   0.895   5.377   2.827
 7025TIP3    H121020   0.880   5.462   2.785
 7025TIP3    H221021   0.828   5.372   2.896
 7026TIP3   OH221022   7.716   7.748   3.204
 7026TIP3    H121023   7.688   7.737   3.114
 7026TIP3    H221024   7.765   7.830   3.205
 7027TIP3   OH221025   7.854   4.974   0.421
 7027TIP3    H121026   7.838   5.028   0.344
 7027TIP3    H221027   7.778   4.917   0.427
 7028TIP3   OH221028   3.658   0.910   2.230
 7028TIP3    H121029   3.711   0.832   2.244
 7028TIP3    H221030   3.721   0.977   2.202
 7029TIP3   OH221031   3.277   4.991   6.208
 7029TIP3    H121032   3.349   5.024   6.261
 7029TIP3    H221033   3.290   4.896   6.207
 7030TIP3   OH221034   2.740   1.937   0.973
 7030TIP3    H121035   2.722   1.936   1.067
 7030TIP3    H221036   2.656   1.962   0.933
 7031TIP3   OH221037   5.163   4.455   3.366
 7031TIP3    H121038   5.168   4.370   3.323
 7031TIP3    H221039   5.253   4.477   3.388
 7032TIP3   OH221040   4.641   1.248   0.865
 7032TIP3    H121041   4.713   1.262   0.804
 7032TIP3    H221042   4.595   1.333   0.867
 7033TIP3   OH221043   1.826   3.136   4.262
 7033TIP3    H121044   1.764   3.162   4.330
 7033TIP3    H221045   1.776   3.140   4.181
 7034TIP3   OH221046   2.857   6.940   3.588
 7034TIP3    H121047   2.782   6.990   3.620
 7034TIP3    H221048   2.932   6.996   3.606
 7035TIP3   OH221049   8.161   7.394   2.940
 7035TIP3    H121050   8.125   7.441   2.865
 7035TIP3    H221051   8.105   7.317   2.950
 7036TIP3   OH221052   0.328   6.921   2.664
 7036TIP3    H121053   0.251   6.925   2.607
 7036TIP3    H221054   0.388   6.862   2.619
 7037TIP3   OH221055   7.936   4.535   4.655
 7037TIP3    H121056   7.871   4.594   4.694
 7037TIP3    H221057   7.886   4.483   4.592
 7038TIP3   OH221058   5.411   1.465   3.218
 7038TIP3    H121059   5.430   1.372   3.230
 7038TIP3    H221060   5.340   1.466   3.153
 7039TIP3   OH221061   6.282   7.081   5.306
 7039TIP3    H121062   6.331   7.120   5.234
 7039TIP3    H221063   6.193   7.072   5.271
 7040TIP3   OH221064   3.608   2.551   2.220
 7040TIP3    H121065   3.554   2.587   2.149
 7040TIP3    H221066   3.609   2.457   2.203
 7041TIP3   OH221067   5.911   0.642   3.464
 7041TIP3    H121068   5.869   0.596   3.392
 7041TIP3    H221069   5.845   0.641   3.534
 7042TIP3   OH221070   5.242   1.176   1.508
 7042TIP3    H121071   5.181   1.249   1.496
 7042TIP3    H221072   5.248   1.164   1.603
 7043TIP3   OH221073   0.834   5.143   3.404
 7043TIP3    H121074   0.926   5.127   3.427
 7043TIP3    H221075   0.785   5.085   3.462
 7044TIP3   OH221076   3.485   7.091   1.604
 7044TIP3    H121077   3.566   7.052   1.571
 7044TIP3    H221078   3.497   7.186   1.593
 7045TIP3   OH221079   8.222   7.608   5.985
 7045TIP3    H121080   8.195   7.549   6.055
 7045TIP3    H221081   8.143   7.658   5.964
 7046TIP3   OH221082   7.797   7.317   2.033
 7046TIP3    H121083   7.803   7.223   2.020
 7046TIP3    H221084   7.750   7.327   2.116
 7047TIP3   OH221085   2.583   7.114   0.015
 7047TIP3    H121086   2.561   7.033   0.061
 7047TIP3    H221087   2.634   7.164   0.079
 7048TIP3   OH221088   2.294   0.452   4.582
 7048TIP3    H121089   2.314   0.545   4.595
 7048TIP3    H221090   2.206   0.451   4.545
 7049TIP3   OH221091   7.389   1.355   1.066
 7049TIP3    H121092   7.345   1.439   1.078
 7049TIP3    H221093   7.327   1.303   1.015
 7050TIP3   OH221094   5.615   6.417   3.761
 7050TIP3    H121095   5.582   6.478   3.694
 7050TIP3    H221096   5.669   6.471   3.818
 7051TIP3   OH221097   6.675   0.123   1.439
 7051TIP3    H121098   6.591   0.168   1.448
 7051TIP3    H221099   6.736   0.178   1.488
 7052TIP3   OH221100   0.104   5.784   0.425
 7052TIP3    H121101   0.031   5.734   0.461
 7052TIP3    H221102   0.062   5.845   0.363
 7053TIP3   OH221103   1.911   7.746   3.026
 7053TIP3    H121104   1.955   7.722   3.108
 7053TIP3    H221105   1.820   7.721   3.040
 7054TIP3   OH221106   4.939   3.188   6.352
 7054TIP3    H121107   4.859   3.142   6.325
 7054TIP3    H221108   4.920   3.218   6.441
 7055TIP3   OH221109   5.855   0.478   2.332
 7055TIP3    H121110   5.812   0.465   2.417
 7055TIP3    H221111   5.795   0.534   2.283
 7056TIP3   OH221112   6.957   7.506   5.247
 7056TIP3    H121113   6.896   7.561   5.199
 7056TIP3    H221114   7.032   7.497   5.188
 7057TIP3   OH221115   0.225   1.928   0.260
 7057TIP3    H121116   0.207   2.008   0.212
 7057TIP3    H221117   0.294   1.884   0.209
 7058TIP3   OH221118   5.563   0.053   4.792
 7058TIP3    H121119   5.467   0.055   4.792
 7058TIP3    H221120   5.588   0.065   4.701
 7059TIP3   OH221121   6.920   4.973   2.325
 7059TIP3    H121122   6.870   5.014   2.254
 7059TIP3    H221123   6.867   4.898   2.352
 7060TIP3   OH221124   2.686   5.483   2.999
 7060TIP3    H121125   2.608   5.501   3.051
 7060TIP3    H221126   2.734   5.416   3.048
 7061TIP3   OH221127   4.410   7.584   1.304
 7061TIP3    H121128   4.355   7.662   1.310
 7061TIP3    H221129   4.493   7.610   1.345
 7062TIP3   OH221130   5.130   3.364   6.211
 7062TIP3    H121131   5.050   3.329   6.171
 7062TIP3    H221132   5.109   3.456   6.228
 7063TIP3   OH221133   0.552   5.994   4.972
 7063TIP3    H121134   0.577   6.074   5.019
 7063TIP3    H221135   0.583   6.009   4.882
 7064TIP3   OH221136   6.521   0.849   3.868
 7064TIP3    H121137   6.428   0.866   3.855
 7064TIP3    H221138   6.555   0.930   3.907
 7065TIP3   OH221139   1.725   5.190   3.853
 7065TIP3    H121140   1.634   5.185   3.883
 7065TIP3    H221141   1.754   5.277   3.878
 7066TIP3   OH221142   4.019   1.321   6.737
 7066TIP3    H121143   4.002   1.362   6.822
 7066TIP3    H221144   4.106   1.353   6.712
 7067TIP3   OH221145   6.895   7.062   0.438
 7067TIP3    H121146   6.850   7.057   0.353
 7067TIP3    H221147   6.886   7.153   0.464
 7068TIP3   OH221148   8.174   1.928   1.176
 7068TIP3    H121149   8.150   1.939   1.269
 7068TIP3    H221150   8.170   1.834   1.161
 7069TIP3   OH221151   2.336   0.983   3.633
 7069TIP3    H121152   2.329   0.979   3.729
 7069TIP3    H221153   2.316   1.074   3.612
 7070TIP3   OH221154   3.268   4.405   1.503
 7070TIP3    H121155   3.358   4.398   1.469
 7070TIP3    H221156   3.270   4.482   1.560
 7071TIP3   OH221157   5.723   4.340   2.590
 7071TIP3    H121158   5.669   4.363   2.665
 7071TIP3    H221159   5.722   4.244   2.588
 7072TIP3   OH221160   1.157   7.112   2.032
 7072TIP3    H121161   1.074   7.078   1.998
 7072TIP3    H221162   1.199   7.035   2.072
 7073TIP3   OH221163   7.688   4.973   0.964
 7073TIP3    H121164   7.703   5.017   1.048
 7073TIP3    H221165   7.681   4.881   0.986
 7074TIP3   OH221166   2.402   3.127   5.908
 7074TIP3    H121167   2.415   3.043   5.865
 7074TIP3    H221168   2.454   3.121   5.988
 7075TIP3   OH221169   1.190   5.497   4.473
 7075TIP3    H121170   1.199   5.415   4.425
 7075TIP3    H221171   1.238   5.561   4.421
 7076TIP3   OH221172   2.301   6.014   2.370
 7076TIP3    H121173   2.266   6.029   2.458
 7076TIP3    H221174   2.391   6.046   2.374
 7077TIP3   OH221175   4.121   4.623   1.359
 7077TIP3    H121176   4.117   4.708   1.403
 7077TIP3    H221177   4.215   4.608   1.345
 7078TIP3   OH221178   0.162   4.081   3.040
 7078TIP3    H121179   0.100   4.146   3.006
 7078TIP3    H221180   0.114   4.038   3.111
 7079TIP3   OH221181   5.668   0.119   2.491
 7079TIP3    H121182   5.621   0.097   2.572
 7079TIP3    H221183   5.606   0.100   2.421
 7080TIP3   OH221184   1.445   4.980   0.884
 7080TIP3    H121185   1.516   5.044   0.898
 7080TIP3    H221186   1.471   4.933   0.805
 7081TIP3   OH221187   3.890   2.857   1.021
 7081TIP3    H121188   3.956   2.834   0.956
 7081TIP3    H221189   3.929   2.929   1.070
 7082TIP3   OH221190   3.032   4.717   1.077
 7082TIP3    H121191   3.055   4.638   1.028
 7082TIP3    H221192   3.069   4.789   1.025
 7083TIP3   OH221193   4.171   4.146   3.213
 7083TIP3    H121194   4.187   4.231   3.253
 7083TIP3    H221195   4.098   4.161   3.153
 7084TIP3   OH221196   7.292   0.577   6.336
 7084TIP3    H121197   7.245   0.657   6.310
 7084TIP3    H221198   7.278   0.570   6.430
 7085TIP3   OH221199   4.929   1.566   5.001
 7085TIP3    H121200   4.843   1.601   4.979
 7085TIP3    H221201   4.988   1.642   4.994
 7086TIP3   OH221202   4.427   6.427   6.690
 7086TIP3    H121203   4.471   6.432   6.775
 7086TIP3    H221204   4.468   6.496   6.638
 7087TIP3   OH221205   7.283   0.434   4.995
 7087TIP3    H121206   7.270   0.363   4.931
 7087TIP3    H221207   7.281   0.513   4.942
 7088TIP3   OH221208   6.271   6.197   2.291
 7088TIP3    H121209   6.245   6.284   2.320
 7088TIP3    H221210   6.253   6.196   2.197
 7089TIP3   OH221211   6.659   4.233   0.300
 7089TIP3    H121212   6.599   4.204   0.232
 7089TIP3    H221213   6.731   4.276   0.252
 7090TIP3   OH221214   0.961   3.886   3.440
 7090TIP3    H121215   1.015   3.807   3.431
 7090TIP3    H221216   0.887   3.858   3.494
 7091TIP3   OH221217   1.366   3.568   1.521
 7091TIP3    H121218   1.440   3.613   1.561
 7091TIP3    H221219   1.402   3.485   1.490
 7092TIP3   OH221220   4.707   0.473   6.687
 7092TIP3    H121221   4.723   0.406   6.621
 7092TIP3    H221222   4.792   0.488   6.728
 7093TIP3   OH221223   2.850   4.301   5.896
 7093TIP3    H121224   2.805   4.386   5.896
 7093TIP3    H221225   2.887   4.294   5.808
 7094TIP3   OH221226   2.953   7.353   0.430
 7094TIP3    H121227   2.969   7.443   0.402
 7094TIP3    H221228   2.963   7.301   0.350
 7095TIP3   OH221229   5.558   5.582   4.605
 7095TIP3    H121230   5.542   5.649   4.539
 7095TIP3    H221231   5.604   5.512   4.559
 7096TIP3   OH221232   6.806   0.723   1.310
 7096TIP3    H121233   6.851   0.693   1.231
 7096TIP3    H221234   6.862   0.791   1.346
 7097TIP3   OH221235   2.080   1.824   0.320
 7097TIP3    H121236   2.049   1.830   0.411
 7097TIP3    H221237   2.066   1.912   0.284
 7098TIP3   OH221238   0.497   4.317   5.135
 7098TIP3    H121239   0.518   4.224   5.143
 7098TIP3    H221240   0.566   4.362   5.183
 7099TIP3   OH221241   2.316   5.261   3.246
 7099TIP3    H121242   2.271   5.178   3.262
 7099TIP3    H221243   2.274   5.324   3.305
 7100TIP3   OH221244   7.089   3.401   3.042
 7100TIP3    H121245   7.000   3.431   3.061
 7100TIP3    H221246   7.140   3.426   3.119
 7101TIP3   OH221247   2.991   3.713   1.945
 7101TIP3    H121248   2.950   3.766   2.014
 7101TIP3    H221249   3.061   3.767   1.911
 7102TIP3   OH221250   3.689   3.059   4.775
 7102TIP3    H121251   3.743   3.086   4.849
 7102TIP3    H221252   3.643   2.981   4.805
 7103TIP3   OH221253   7.069   1.403   4.903
 7103TIP3    H121254   7.076   1.359   4.987
 7103TIP3    H221255   7.110   1.343   4.841
 7104TIP3   OH221256   8.222   1.013   0.463
 7104TIP3    H121257   8.170   0.933   0.468
 7104TIP3    H221258   8.182   1.064   0.392
 7105TIP3   OH221259   0.382   7.411   5.255
 7105TIP3    H121260   0.327   7.338   5.226
 7105TIP3    H221261   0.333   7.489   5.230
 7106TIP3   OH221262   3.741   1.366   2.108
 7106TIP3    H121263   3.744   1.284   2.158
 7106TIP3    H221264   3.710   1.341   2.021
 7107TIP3   OH221265   5.084   0.940   5.213
 7107TIP3    H121266   5.079   0.846   5.227
 7107TIP3    H221267   4.996   0.973   5.233
 7108TIP3   OH221268   6.777   0.253   2.714
 7108TIP3    H121269   6.693   0.293   2.738
 7108TIP3    H221270   6.755   0.163   2.690
 7109TIP3   OH221271   0.993   3.342   1.894
 7109TIP3    H121272   0.993   3.434   1.867
 7109TIP3    H221273   1.082   3.327   1.926
 7110TIP3   OH221274   5.789   1.808   6.231
 7110TIP3    H121275   5.744   1.778   6.310
 7110TIP3    H221276   5.732   1.875   6.194
 7111TIP3   OH221277   1.813   2.968   3.367
 7111TIP3    H121278   1.869   2.940   3.295
 7111TIP3    H221279   1.866   2.951   3.446
 7112TIP3   OH221280   8.095   6.173   4.312
 7112TIP3    H121281   8.072   6.181   4.405
 7112TIP3    H221282   8.050   6.246   4.270
 7113TIP3   OH221283   1.634   2.209   3.521
 7113TIP3    H121284   1.589   2.269   3.581
 7113TIP3    H221285   1.583   2.213   3.440
 7114TIP3   OH221286   7.670   6.954   1.447
 7114TIP3    H121287   7.705   6.933   1.361
 7114TIP3    H221288   7.598   6.892   1.460
 7115TIP3   OH221289   1.247   3.035   4.410
 7115TIP3    H121290   1.229   2.974   4.339
 7115TIP3    H221291   1.268   3.117   4.366
 7116TIP3   OH221292   6.962   1.875   4.215
 7116TIP3    H121293   6.875   1.847   4.244
 7116TIP3    H221294   6.979   1.822   4.137
 7117TIP3   OH221295   2.280   5.386   1.938
 7117TIP3    H121296   2.245   5.298   1.921
 7117TIP3    H221297   2.222   5.422   2.006
 7118TIP3   OH221298   8.033   7.055   0.380
 7118TIP3    H121299   7.939   7.043   0.363
 7118TIP3    H221300   8.056   6.984   0.440
 7119TIP3   OH221301   7.038   7.829   1.110
 7119TIP3    H121302   6.990   7.817   1.027
 7119TIP3    H221303   7.114   7.772   1.101
 7120TIP3   OH221304   0.537   6.365   6.747
 7120TIP3    H121305   0.620   6.390   6.706
 7120TIP3    H221306   0.473   6.427   6.711
 7121TIP3   OH221307   6.146   4.139   5.953
 7121TIP3    H121308   6.187   4.207   5.901
 7121TIP3    H221309   6.057   4.133   5.919
 7122TIP3   OH221310   3.464   2.654   1.646
 7122TIP3    H121311   3.377   2.624   1.670
 7122TIP3    H221312   3.501   2.583   1.594
 7123TIP3   OH221313   1.874   0.178   0.808
 7123TIP3    H121314   1.933   0.227   0.751
 7123TIP3    H221315   1.800   0.238   0.822
 7124TIP3   OH221316   7.879   5.929   0.559
 7124TIP3    H121317   7.832   5.983   0.496
 7124TIP3    H221318   7.860   5.968   0.644
 7125TIP3   OH221319   1.128   6.646   1.667
 7125TIP3    H121320   1.087   6.684   1.589
 7125TIP3    H221321   1.075   6.680   1.740
 7126TIP3   OH221322   4.032   6.219   2.681
 7126TIP3    H121323   4.112   6.198   2.730
 7126TIP3    H221324   3.965   6.232   2.747
 7127TIP3   OH221325   3.003   2.715   4.277
 7127TIP3    H121326   2.908   2.722   4.268
 7127TIP3    H221327   3.033   2.806   4.282
 7128TIP3   OH221328   2.216   5.878   3.739
 7128TIP3    H121329   2.160   5.930   3.796
 7128TIP3    H221330   2.290   5.936   3.719
 7129TIP3   OH221331   2.678   3.992   1.886
 7129TIP3    H121332   2.733   4.010   1.963
 7129TIP3    H221333   2.705   4.058   1.822
 7130TIP3   OH221334   3.651   4.810   3.644
 7130TIP3    H121335   3.730   4.860   3.625
 7130TIP3    H221336   3.641   4.818   3.739
 7131TIP3   OH221337   2.174   2.715   0.161
 7131TIP3    H121338   2.121   2.788   0.129
 7131TIP3    H221339   2.264   2.747   0.156
 7132TIP3   OH221340   4.656   2.321   1.043
 7132TIP3    H121341   4.607   2.272   1.110
 7132TIP3    H221342   4.692   2.396   1.090
 7133TIP3   OH221343   2.409   3.771   3.289
 7133TIP3    H121344   2.360   3.689   3.282
 7133TIP3    H221345   2.361   3.822   3.354
 7134TIP3   OH221346   7.033   2.208   3.771
 7134TIP3    H121347   7.068   2.167   3.850
 7134TIP3    H221348   6.939   2.188   3.774
 7135TIP3   OH221349   3.209   7.586   3.893
 7135TIP3    H121350   3.132   7.593   3.837
 7135TIP3    H221351   3.276   7.547   3.837
 7136TIP3   OH221352   5.999   2.859   0.833
 7136TIP3    H121353   5.964   2.794   0.894
 7136TIP3    H221354   5.921   2.903   0.799
 7137TIP3   OH221355   1.947   3.653   0.802
 7137TIP3    H121356   1.990   3.618   0.724
 7137TIP3    H221357   1.887   3.584   0.829
 7138TIP3   OH221358   6.197   5.270   4.812
 7138TIP3    H121359   6.200   5.191   4.757
 7138TIP3    H221360   6.289   5.296   4.821
 7139TIP3   OH221361   7.935   0.888   5.022
 7139TIP3    H121362   7.894   0.963   4.980
 7139TIP3    H221363   7.862   0.828   5.040
 7140TIP3   OH221364   1.580   4.366   6.718
 7140TIP3    H121365   1.521   4.331   6.652
 7140TIP3    H221366   1.661   4.384   6.671
 7141TIP3   OH221367   7.090   4.321   3.403
 7141TIP3    H121368   7.151   4.395   3.412
 7141TIP3    H221369   7.085   4.284   3.492
 7142TIP3   OH221370   1.441   3.072   4.791
 7142TIP3    H121371   1.491   3.099   4.714
 7142TIP3    H221372   1.502   3.021   4.843
 7143TIP3   OH221373   6.918   2.543   4.875
 7143TIP3    H121374   7.006   2.579   4.883
 7143TIP3    H221375   6.918   2.467   4.934
 7144TIP3   OH221376   3.888   4.936   1.228
 7144TIP3    H121377   3.899   4.985   1.146
 7144TIP3    H221378   3.823   4.986   1.278
 7145TIP3   OH221379   3.614   4.299   0.504
 7145TIP3    H121380   3.618   4.244   0.582
 7145TIP3    H221381   3.521   4.305   0.483
 7146TIP3   OH221382   1.979   4.351   3.203
 7146TIP3    H121383   2.031   4.277   3.174
 7146TIP3    H221384   2.003   4.423   3.144
 7147TIP3   OH221385   0.883   4.371   3.764
 7147TIP3    H121386   0.834   4.292   3.745
 7147TIP3    H221387   0.929   4.392   3.683
 7148TIP3   OH221388   2.572   5.771   0.718
 7148TIP3    H121389   2.661   5.748   0.689
 7148TIP3    H221390   2.555   5.855   0.675
 7149TIP3   OH221391   3.531   1.133   6.064
 7149TIP3    H121392   3.558   1.219   6.033
 7149TIP3    H221393   3.597   1.073   6.028
 7150TIP3   OH221394   3.029   1.613   4.278
 7150TIP3    H121395   3.102   1.672   4.295
 7150TIP3    H221396   3.025   1.556   4.354
 7151TIP3   OH221397   8.088   4.016   6.359
 7151TIP3    H121398   8.050   4.033   6.272
 7151TIP3    H221399   8.113   4.102   6.391
 7152TIP3   OH221400   6.716   2.188   5.200
 7152TIP3    H121401   6.625   2.204   5.176
 7152TIP3    H221402   6.724   2.092   5.202
 7153TIP3   OH221403   6.417   7.170   5.091
 7153TIP3    H121404   6.383   7.211   5.011
 7153TIP3    H221405   6.478   7.104   5.060
 7154TIP3   OH221406   6.832   0.715   2.263
 7154TIP3    H121407   6.893   0.788   2.277
 7154TIP3    H221408   6.780   0.742   2.187
 7155TIP3   OH221409   6.598   0.074   5.427
 7155TIP3    H121410   6.571   0.120   5.347
 7155TIP3    H221411   6.528   0.092   5.490
 7156TIP3   OH221412   4.573   0.417   1.525
 7156TIP3    H121413   4.664   0.441   1.510
 7156TIP3    H221414   4.538   0.486   1.582
 7157TIP3   OH221415   0.425   5.277   6.179
 7157TIP3    H121416   0.403   5.347   6.241
 7157TIP3    H221417   0.520   5.270   6.183
 7158TIP3   OH221418   0.774   1.360   4.977
 7158TIP3    H121419   0.755   1.372   5.070
 7158TIP3    H221420   0.783   1.265   4.966
 7159TIP3   OH221421   4.076   4.353   1.091
 7159TIP3    H121422   4.017   4.358   1.166
 7159TIP3    H221423   4.021   4.377   1.016
 7160TIP3   OH221424   6.212   6.137   2.036
 7160TIP3    H121425   6.299   6.104   2.013
 7160TIP3    H221426   6.181   6.180   1.956
 7161TIP3   OH221427   6.714   1.868   3.405
 7161TIP3    H121428   6.620   1.887   3.408
 7161TIP3    H221429   6.721   1.799   3.339
 7162TIP3   OH221430   4.980   6.295   3.361
 7162TIP3    H121431   5.035   6.224   3.394
 7162TIP3    H221432   4.918   6.253   3.303
 7163TIP3   OH221433   7.272   2.997   6.166
 7163TIP3    H121434   7.305   2.950   6.243
 7163TIP3    H221435   7.257   2.929   6.101
 7164TIP3   OH221436   1.595   7.232   2.996
 7164TIP3    H121437   1.670   7.290   2.980
 7164TIP3    H221438   1.605   7.205   3.087
 7165TIP3   OH221439   4.780   6.986   6.565
 7165TIP3    H121440   4.835   6.907   6.564
 7165TIP3    H221441   4.739   6.988   6.478
 7166TIP3   OH221442   6.804   4.399   2.382
 7166TIP3    H121443   6.885   4.440   2.412
 7166TIP3    H221444   6.801   4.316   2.428
 7167TIP3   OH221445   6.061   0.607   3.170
 7167TIP3    H121446   5.974   0.570   3.185
 7167TIP3    H221447   6.117   0.531   3.155
 7168TIP3   OH221448   4.645   3.342   2.541
 7168TIP3    H121449   4.563   3.311   2.504
 7168TIP3    H221450   4.619   3.398   2.615
 7169TIP3   OH221451   1.686   6.936   4.553
 7169TIP3    H121452   1.593   6.946   4.534
 7169TIP3    H221453   1.698   6.982   4.636
 7170TIP3   OH221454   6.269   2.241   5.677
 7170TIP3    H121455   6.211   2.181   5.630
 7170TIP3    H221456   6.280   2.200   5.763
 7171TIP3   OH221457   0.303   6.405   2.917
 7171TIP3    H121458   0.345   6.464   2.980
 7171TIP3    H221459   0.218   6.384   2.957
 7172TIP3   OH221460   8.276   0.796   6.227
 7172TIP3    H121461   8.303   0.888   6.226
 7172TIP3    H221462   8.216   0.787   6.154
 7173TIP3   OH221463   7.532   1.121   0.931
 7173TIP3    H121464   7.501   1.179   1.001
 7173TIP3    H221465   7.628   1.123   0.940
 7174TIP3   OH221466   7.382   3.644   4.426
 7174TIP3    H121467   7.408   3.629   4.518
 7174TIP3    H221468   7.373   3.556   4.390
 7175TIP3   OH221469   1.212   7.806   4.440
 7175TIP3    H121470   1.124   7.781   4.467
 7175TIP3    H221471   1.261   7.724   4.438
 7176TIP3   OH221472   5.113   2.952   1.163
 7176TIP3    H121473   5.189   2.901   1.134
 7176TIP3    H221474   5.148   3.009   1.231
 7177TIP3   OH221475   0.584   7.229   3.977
 7177TIP3    H121476   0.502   7.212   4.025
 7177TIP3    H221477   0.584   7.323   3.964
 7178TIP3   OH221478   2.968   3.654   5.543
 7178TIP3    H121479   2.950   3.612   5.628
 7178TIP3    H221480   2.889   3.637   5.491
 7179TIP3   OH221481   0.867   4.955   1.126
 7179TIP3    H121482   0.941   4.957   1.187
 7179TIP3    H221483   0.874   4.869   1.083
 7180TIP3   OH221484   4.526   2.374   1.337
 7180TIP3    H121485   4.523   2.409   1.425
 7180TIP3    H221486   4.513   2.450   1.280
 7181TIP3   OH221487   7.575   6.274   0.330
 7181TIP3    H121488   7.595   6.352   0.277
 7181TIP3    H221489   7.480   6.272   0.335
 7182TIP3   OH221490   6.668   7.566   1.510
 7182TIP3    H121491   6.705   7.505   1.446
 7182TIP3    H221492   6.577   7.538   1.520
 7183TIP3   OH221493   4.155   0.842   6.234
 7183TIP3    H121494   4.083   0.799   6.279
 7183TIP3    H221495   4.120   0.864   6.148
 7184TIP3   OH221496   5.296   6.081   2.556
 7184TIP3    H121497   5.370   6.122   2.601
 7184TIP3    H221498   5.240   6.154   2.529
 7185TIP3   OH221499   3.957   1.177   3.390
 7185TIP3    H121500   3.946   1.120   3.314
 7185TIP3    H221501   3.902   1.253   3.371
 7186TIP3   OH221502   7.848   6.855   3.847
 7186TIP3    H121503   7.878   6.899   3.927
 7186TIP3    H221504   7.929   6.838   3.798
 7187TIP3   OH221505   5.778   2.230   0.025
 7187TIP3    H121506   5.785   2.173  -0.052
 7187TIP3    H221507   5.810   2.315  -0.005
 7188TIP3   OH221508   1.155   5.095   6.758
 7188TIP3    H121509   1.098   5.018   6.762
 7188TIP3    H221510   1.097   5.165   6.730
 7189TIP3   OH221511   1.836   4.667   2.850
 7189TIP3    H121512   1.818   4.601   2.784
 7189TIP3    H221513   1.878   4.739   2.803
 7190TIP3   OH221514   5.773   4.979   6.783
 7190TIP3    H121515   5.751   4.891   6.753
 7190TIP3    H221516   5.861   4.995   6.748
 7191TIP3   OH221517   4.778   1.888   1.449
 7191TIP3    H121518   4.707   1.928   1.498
 7191TIP3    H221519   4.837   1.853   1.517
 7192TIP3   OH221520   5.014   2.114   0.117
 7192TIP3    H121521   5.108   2.107   0.096
 7192TIP3    H221522   5.011   2.167   0.197
 7193TIP3   OH221523   1.062   6.918   2.642
 7193TIP3    H121524   0.966   6.920   2.648
 7193TIP3    H221525   1.087   7.009   2.626
 7194TIP3   OH221526   4.379   5.086   3.177
 7194TIP3    H121527   4.412   5.106   3.090
 7194TIP3    H221528   4.284   5.081   3.166
 7195TIP3   OH221529   1.821   1.455   1.955
 7195TIP3    H121530   1.740   1.470   2.003
 7195TIP3    H221531   1.845   1.365   1.975
 7196TIP3   OH221532   1.179   1.628   2.441
 7196TIP3    H121533   1.239   1.644   2.368
 7196TIP3    H221534   1.167   1.714   2.482
 7197TIP3   OH221535   6.935   1.042   5.566
 7197TIP3    H121536   6.901   1.128   5.542
 7197TIP3    H221537   7.029   1.055   5.579
 7198TIP3   OH221538   4.298   3.471   2.177
 7198TIP3    H121539   4.353   3.514   2.242
 7198TIP3    H221540   4.358   3.448   2.106
 7199TIP3   OH221541   8.032   5.096   5.719
 7199TIP3    H121542   7.938   5.095   5.704
 7199TIP3    H221543   8.070   5.072   5.635
 7200TIP3   OH221544   7.039   7.491   5.495
 7200TIP3    H121545   6.996   7.504   5.411
 7200TIP3    H221546   7.057   7.580   5.527
 7201TIP3   OH221547   6.092   5.333   2.917
 7201TIP3    H121548   6.123   5.388   2.989
 7201TIP3    H221549   6.091   5.392   2.841
 7202TIP3   OH221550   4.968   0.210   2.303
 7202TIP3    H121551   4.960   0.176   2.392
 7202TIP3    H221552   5.032   0.152   2.261
 7203TIP3   OH221553   8.175   1.296   3.689
 7203TIP3    H121554   8.079   1.301   3.684
 7203TIP3    H221555   8.199   1.227   3.628
 7204TIP3   OH221556   2.041   6.443   1.556
 7204TIP3    H121557   2.030   6.513   1.492
 7204TIP3    H221558   2.132   6.450   1.583
 7205TIP3   OH221559   6.353   1.018   1.938
 7205TIP3    H121560   6.308   1.083   1.991
 7205TIP3    H221561   6.297   1.005   1.862
 7206TIP3   OH221562   6.488   3.243   3.651
 7206TIP3    H121563   6.573   3.273   3.683
 7206TIP3    H221564   6.462   3.309   3.586
 7207TIP3   OH221565   3.034   0.865   4.847
 7207TIP3    H121566   3.059   0.957   4.856
 7207TIP3    H221567   2.958   0.866   4.789
 7208TIP3   OH221568   8.072   6.317   1.366
 7208TIP3    H121569   8.131   6.375   1.317
 7208TIP3    H221570   8.091   6.336   1.458
 7209TIP3   OH221571   5.089   5.257   4.008
 7209TIP3    H121572   5.008   5.233   4.052
 7209TIP3    H221573   5.063   5.277   3.918
 7210TIP3   OH221574   4.499   2.073   2.142
 7210TIP3    H121575   4.474   2.078   2.235
 7210TIP3    H221576   4.457   2.150   2.103
 7211TIP3   OH221577   6.702   7.697   0.744
 7211TIP3    H121578   6.767   7.765   0.727
 7211TIP3    H221579   6.660   7.722   0.826
 7212TIP3   OH221580   6.208   4.759   1.284
 7212TIP3    H121581   6.223   4.832   1.345
 7212TIP3    H221582   6.151   4.795   1.216
 7213TIP3   OH221583   6.232   3.427   5.345
 7213TIP3    H121584   6.242   3.383   5.260
 7213TIP3    H221585   6.306   3.396   5.397
 7214TIP3   OH221586   0.904   5.514   2.277
 7214TIP3    H121587   0.879   5.454   2.347
 7214TIP3    H221588   0.897   5.462   2.197
 7215TIP3   OH221589   5.152   3.204   2.964
 7215TIP3    H121590   5.136   3.130   2.905
 7215TIP3    H221591   5.227   3.176   3.017
 7216TIP3   OH221592   2.884   6.954   1.745
 7216TIP3    H121593   2.924   6.888   1.689
 7216TIP3    H221594   2.934   6.949   1.826
 7217TIP3   OH221595   2.311   3.072   6.290
 7217TIP3    H121596   2.338   3.164   6.295
 7217TIP3    H221597   2.392   3.024   6.273
 7218TIP3   OH221598   7.985   3.240   4.767
 7218TIP3    H121599   7.999   3.167   4.707
 7218TIP3    H221600   7.916   3.292   4.726
 7219TIP3   OH221601   1.272   5.402   0.261
 7219TIP3    H121602   1.238   5.411   0.172
 7219TIP3    H221603   1.222   5.329   0.298
 7220TIP3   OH221604   1.739   0.463   5.746
 7220TIP3    H121605   1.795   0.536   5.717
 7220TIP3    H221606   1.659   0.505   5.777
 7221TIP3   OH221607   1.839   5.250   2.036
 7221TIP3    H121608   1.822   5.230   1.944
 7221TIP3    H221609   1.809   5.172   2.084
 7222TIP3   OH221610   2.505   6.340   6.411
 7222TIP3    H121611   2.586   6.354   6.362
 7222TIP3    H221612   2.499   6.245   6.422
 7223TIP3   OH221613   5.052   1.581   6.361
 7223TIP3    H121614   5.008   1.504   6.326
 7223TIP3    H221615   4.997   1.610   6.434
 7224TIP3   OH221616   2.053   0.848   5.318
 7224TIP3    H121617   2.003   0.771   5.344
 7224TIP3    H221618   1.995   0.922   5.337
 7225TIP3   OH221619   2.457   5.865   1.946
 7225TIP3    H121620   2.473   5.921   2.023
 7225TIP3    H221621   2.540   5.868   1.897
 7226TIP3   OH221622   2.794   5.636   6.507
 7226TIP3    H121623   2.766   5.547   6.531
 7226TIP3    H221624   2.813   5.631   6.414
 7227TIP3   OH221625   7.466   1.338   2.168
 7227TIP3    H121626   7.526   1.411   2.187
 7227TIP3    H221627   7.404   1.374   2.105
 7228TIP3   OH221628   4.091   3.591   6.130
 7228TIP3    H121629   4.063   3.595   6.222
 7228TIP3    H221630   4.151   3.665   6.120
 7229TIP3   OH221631   6.233   1.037   1.686
 7229TIP3    H121632   6.161   1.031   1.748
 7229TIP3    H221633   6.191   1.052   1.601
 7230TIP3   OH221634   4.524   5.231   6.731
 7230TIP3    H121635   4.467   5.213   6.806
 7230TIP3    H221636   4.545   5.324   6.738
 7231TIP3   OH221637   7.828   5.221   2.813
 7231TIP3    H121638   7.747   5.222   2.762
 7231TIP3    H221639   7.895   5.253   2.752
 7232TIP3   OH221640   6.118   7.237   4.973
 7232TIP3    H121641   6.150   7.270   5.057
 7232TIP3    H221642   6.189   7.256   4.911
 7233TIP3   OH221643   3.677   5.958   3.451
 7233TIP3    H121644   3.613   5.994   3.390
 7233TIP3    H221645   3.726   6.034   3.483
 7234TIP3   OH221646   6.114   5.936   3.850
 7234TIP3    H121647   6.073   5.882   3.918
 7234TIP3    H221648   6.204   5.947   3.880
 7235TIP3   OH221649   1.569   5.831   1.702
 7235TIP3    H121650   1.579   5.780   1.622
 7235TIP3    H221651   1.636   5.797   1.761
 7236TIP3   OH221652   1.699   2.970   1.934
 7236TIP3    H121653   1.752   2.892   1.951
 7236TIP3    H221654   1.758   3.030   1.889
 7237TIP3   OH221655   2.980   3.394   2.611
 7237TIP3    H121656   3.056   3.356   2.653
 7237TIP3    H221657   3.006   3.406   2.520
 7238TIP3   OH221658   0.794   7.647   5.875
 7238TIP3    H121659   0.804   7.731   5.830
 7238TIP3    H221660   0.784   7.584   5.804
 7239TIP3   OH221661   0.663   6.637   4.725
 7239TIP3    H121662   0.681   6.731   4.721
 7239TIP3    H221663   0.568   6.631   4.717
 7240TIP3   OH221664   0.437   1.804   6.007
 7240TIP3    H121665   0.435   1.765   6.094
 7240TIP3    H221666   0.361   1.862   6.004
 7241TIP3   OH221667   1.497   6.016   0.430
 7241TIP3    H121668   1.466   5.988   0.516
 7241TIP3    H221669   1.435   6.083   0.402
 7242TIP3   OH221670   4.811   2.723   3.066
 7242TIP3    H121671   4.892   2.723   3.117
 7242TIP3    H221672   4.742   2.718   3.133
 7243TIP3   OH221673   3.604   4.432   4.166
 7243TIP3    H121674   3.677   4.391   4.121
 7243TIP3    H221675   3.529   4.420   4.108
 7244TIP3   OH221676   2.851   3.825   1.448
 7244TIP3    H121677   2.841   3.787   1.536
 7244TIP3    H221678   2.862   3.918   1.464
 7245TIP3   OH221679   0.176   6.306   4.535
 7245TIP3    H121680   0.120   6.230   4.527
 7245TIP3    H221681   0.255   6.273   4.579
 7246TIP3   OH221682   4.290   6.001   6.578
 7246TIP3    H121683   4.307   6.089   6.544
 7246TIP3    H221684   4.297   6.010   6.673
 7247TIP3   OH221685   2.278   3.673   2.779
 7247TIP3    H121686   2.286   3.637   2.691
 7247TIP3    H221687   2.206   3.736   2.773
 7248TIP3   OH221688   0.319   3.088   4.494
 7248TIP3    H121689   0.326   3.016   4.431
 7248TIP3    H221690   0.370   3.059   4.570
 7249TIP3   OH221691   6.290   1.669   6.486
 7249TIP3    H121692   6.210   1.656   6.537
 7249TIP3    H221693   6.360   1.664   6.551
 7250TIP3   OH221694   2.891   0.598   5.845
 7250TIP3    H121695   2.871   0.577   5.754
 7250TIP3    H221696   2.950   0.673   5.840
 7251TIP3   OH221697   7.750   4.506   0.694
 7251TIP3    H121698   7.815   4.506   0.764
 7251TIP3    H221699   7.690   4.434   0.716
 7252TIP3   OH221700   1.187   0.972   2.891
 7252TIP3    H121701   1.176   0.918   2.969
 7252TIP3    H221702   1.099   1.004   2.872
 7253TIP3   OH221703   1.907   3.151   1.888
 7253TIP3    H121704   1.983   3.123   1.837
 7253TIP3    H221705   1.935   3.231   1.932
 7254TIP3   OH221706   6.732   6.797   2.779
 7254TIP3    H121707   6.727   6.749   2.696
 7254TIP3    H221708   6.826   6.808   2.794
 7255TIP3   OH221709   2.850   7.363   6.260
 7255TIP3    H121710   2.876   7.444   6.302
 7255TIP3    H221711   2.811   7.390   6.177
 7256TIP3   OH221712   4.683   2.834   6.140
 7256TIP3    H121713   4.721   2.887   6.071
 7256TIP3    H221714   4.724   2.748   6.129
 7257TIP3   OH221715   1.173   0.486   6.236
 7257TIP3    H121716   1.159   0.546   6.163
 7257TIP3    H221717   1.262   0.505   6.266
 7258TIP3   OH221718   6.123   4.697   4.329
 7258TIP3    H121719   6.060   4.653   4.272
 7258TIP3    H221720   6.118   4.789   4.303
 7259TIP3   OH221721   4.002   3.030   4.032
 7259TIP3    H121722   4.002   3.029   3.937
 7259TIP3    H221723   4.070   3.094   4.055
 7260TIP3   OH221724   4.421   5.566   2.889
 7260TIP3    H121725   4.432   5.577   2.795
 7260TIP3    H221726   4.432   5.472   2.904
 7261TIP3   OH221727   2.813   0.147   4.652
 7261TIP3    H121728   2.842   0.098   4.575
 7261TIP3    H221729   2.749   0.089   4.695
 7262TIP3   OH221730   6.638   7.002   6.249
 7262TIP3    H121731   6.718   7.040   6.283
 7262TIP3    H221732   6.597   7.072   6.198
 7263TIP3   OH221733   3.471   6.064   0.258
 7263TIP3    H121734   3.412   6.099   0.190
 7263TIP3    H221735   3.422   5.992   0.297
 7264TIP3   OH221736   7.849   6.038   3.175
 7264TIP3    H121737   7.843   6.086   3.093
 7264TIP3    H221738   7.936   5.998   3.174
 7265TIP3   OH221739   3.331   3.577   1.068
 7265TIP3    H121740   3.405   3.539   1.115
 7265TIP3    H221741   3.266   3.596   1.136
 7266TIP3   OH221742   7.246   5.833   1.939
 7266TIP3    H121743   7.288   5.751   1.914
 7266TIP3    H221744   7.180   5.848   1.870
 7267TIP3   OH221745   4.026   5.232   4.094
 7267TIP3    H121746   4.106   5.279   4.117
 7267TIP3    H221747   4.012   5.171   4.167
 7268TIP3   OH221748   7.444   4.477   0.803
 7268TIP3    H121749   7.432   4.383   0.808
 7268TIP3    H221750   7.467   4.504   0.892
 7269TIP3   OH221751   1.683   6.925   6.635
 7269TIP3    H121752   1.689   6.838   6.596
 7269TIP3    H221753   1.733   6.982   6.576
 7270TIP3   OH221754   2.614   7.671   3.245
 7270TIP3    H121755   2.706   7.646   3.241
 7270TIP3    H221756   2.573   7.602   3.299
 7271TIP3   OH221757   4.443   4.522   1.966
 7271TIP3    H121758   4.448   4.518   1.871
 7271TIP3    H221759   4.414   4.435   1.992
 7272TIP3   OH221760   1.841   3.065   5.021
 7272TIP3    H121761   1.864   3.138   4.962
 7272TIP3    H221762   1.768   3.022   4.977
 7273TIP3   OH221763   0.552   6.162   6.483
 7273TIP3    H121764   0.559   6.247   6.527
 7273TIP3    H221765   0.467   6.127   6.510
 7274TIP3   OH221766   6.599   7.169   1.336
 7274TIP3    H121767   6.519   7.221   1.327
 7274TIP3    H221768   6.640   7.175   1.250
 7275TIP3   OH221769   0.407   0.184   1.901
 7275TIP3    H121770   0.496   0.162   1.929
 7275TIP3    H221771   0.412   0.277   1.877
 7276TIP3   OH221772   3.348   7.142   4.410
 7276TIP3    H121773   3.377   7.228   4.441
 7276TIP3    H221774   3.410   7.119   4.340
 7277TIP3   OH221775   7.172   0.794   1.957
 7277TIP3    H121776   7.090   0.843   1.963
 7277TIP3    H221777   7.145   0.702   1.961
 7278TIP3   OH221778   1.416   0.640   2.022
 7278TIP3    H121779   1.414   0.714   2.082
 7278TIP3    H221780   1.492   0.589   2.049
 7279TIP3   OH221781   0.719   6.843   2.821
 7279TIP3    H121782   0.663   6.888   2.884
 7279TIP3    H221783   0.670   6.764   2.798
 7280TIP3   OH221784   6.860   5.955   3.504
 7280TIP3    H121785   6.907   5.935   3.423
 7280TIP3    H221786   6.874   6.049   3.517
 7281TIP3   OH221787   3.820   0.178   2.189
 7281TIP3    H121788   3.835   0.169   2.095
 7281TIP3    H221789   3.801   0.089   2.219
 7282TIP3   OH221790   4.553   1.472   0.611
 7282TIP3    H121791   4.647   1.455   0.615
 7282TIP3    H221792   4.512   1.386   0.616
 7283TIP3   OH221793   6.336   0.886   4.236
 7283TIP3    H121794   6.288   0.848   4.309
 7283TIP3    H221795   6.334   0.819   4.168
 7284TIP3   OH221796   0.588   1.496   3.359
 7284TIP3    H121797   0.532   1.420   3.373
 7284TIP3    H221798   0.674   1.468   3.390
 7285TIP3   OH221799   0.334   3.882   1.212
 7285TIP3    H121800   0.348   3.968   1.171
 7285TIP3    H221801   0.284   3.832   1.148
 7286TIP3   OH221802   0.474   3.306   2.455
 7286TIP3    H121803   0.558   3.322   2.413
 7286TIP3    H221804   0.438   3.394   2.470
 7287TIP3   OH221805   5.750   4.247   6.211
 7287TIP3    H121806   5.819   4.202   6.162
 7287TIP3    H221807   5.774   4.234   6.303
 7288TIP3   OH221808   5.838   6.394   0.065
 7288TIP3    H121809   5.806   6.345  -0.011
 7288TIP3    H221810   5.869   6.477   0.028
 7289TIP3   OH221811   0.454   5.608   6.084
 7289TIP3    H121812   0.490   5.675   6.026
 7289TIP3    H221813   0.512   5.533   6.072
 7290TIP3   OH221814   0.679   1.889   0.267
 7290TIP3    H121815   0.725   1.886   0.351
 7290TIP3    H221816   0.619   1.963   0.275
 7291TIP3   OH221817   0.973   5.672   2.513
 7291TIP3    H121818   1.038   5.617   2.469
 7291TIP3    H221819   0.894   5.617   2.518
 7292TIP3   OH221820   4.164   5.322   1.988
 7292TIP3    H121821   4.224   5.338   1.914
 7292TIP3    H221822   4.211   5.261   2.044
 7293TIP3   OH221823   0.185   3.635   6.333
 7293TIP3    H121824   0.242   3.584   6.390
 7293TIP3    H221825   0.188   3.724   6.370
 7294TIP3   OH221826   0.874   6.086   0.882
 7294TIP3    H121827   0.866   6.013   0.944
 7294TIP3    H221828   0.822   6.156   0.922
 7295TIP3   OH221829   7.211   6.363   1.217
 7295TIP3    H121830   7.248   6.450   1.230
 7295TIP3    H221831   7.127   6.378   1.174
 7296TIP3   OH221832   3.772   3.962   5.785
 7296TIP3    H121833   3.692   3.953   5.836
 7296TIP3    H221834   3.835   4.002   5.845
 7297TIP3   OH221835   6.511   2.894   5.941
 7297TIP3    H121836   6.470   2.835   6.004
 7297TIP3    H221837   6.520   2.841   5.861
 7298TIP3   OH221838   0.393   3.238   1.821
 7298TIP3    H121839   0.472   3.246   1.874
 7298TIP3    H221840   0.386   3.321   1.775
 7299TIP3   OH221841   2.442   2.377   0.849
 7299TIP3    H121842   2.534   2.376   0.876
 7299TIP3    H221843   2.404   2.299   0.890
 7300TIP3   OH221844   6.349   3.918   0.425
 7300TIP3    H121845   6.258   3.937   0.451
 7300TIP3    H221846   6.346   3.827   0.394
 7301TIP3   OH221847   1.742   6.052   2.025
 7301TIP3    H121848   1.796   5.973   2.027
 7301TIP3    H221849   1.658   6.023   1.991
 7302TIP3   OH221850   3.478   3.702   2.011
 7302TIP3    H121851   3.520   3.627   2.055
 7302TIP3    H221852   3.403   3.664   1.966
 7303TIP3   OH221853   0.525   4.744   6.683
 7303TIP3    H121854   0.456   4.719   6.744
 7303TIP3    H221855   0.501   4.832   6.654
 7304TIP3   OH221856   3.184   5.736   2.149
 7304TIP3    H121857   3.223   5.803   2.094
 7304TIP3    H221858   3.244   5.727   2.223
 7305TIP3   OH221859   2.174   4.468   4.012
 7305TIP3    H121860   2.249   4.478   3.953
 7305TIP3    H221861   2.136   4.384   3.989
 7306TIP3   OH221862   4.549   2.007   6.145
 7306TIP3    H121863   4.623   2.064   6.167
 7306TIP3    H221864   4.471   2.061   6.160
 7307TIP3   OH221865   5.615   3.606   2.926
 7307TIP3    H121866   5.667   3.662   2.983
 7307TIP3    H221867   5.679   3.556   2.876
 7308TIP3   OH221868   7.396   4.518   2.644
 7308TIP3    H121869   7.472   4.485   2.691
 7308TIP3    H221870   7.345   4.439   2.624
 7309TIP3   OH221871   5.220   3.662   2.308
 7309TIP3    H121872   5.164   3.654   2.231
 7309TIP3    H221873   5.257   3.750   2.302
 7310TIP3   OH221874   1.701   0.072   3.401
 7310TIP3    H121875   1.706  -0.010   3.450
 7310TIP3    H221876   1.789   0.085   3.367
 7311TIP3   OH221877   5.000   3.406   3.955
 7311TIP3    H121878   5.059   3.343   3.913
 7311TIP3    H221879   4.957   3.356   4.025
 7312TIP3   OH221880   6.075   5.997   5.100
 7312TIP3    H121881   6.168   5.994   5.123
 7312TIP3    H221882   6.036   6.053   5.167
 7313TIP3   OH221883   1.592   3.088   6.189
 7313TIP3    H121884   1.686   3.071   6.198
 7313TIP3    H221885   1.581   3.180   6.215
 7314TIP3   OH221886   4.576   0.952   4.441
 7314TIP3    H121887   4.594   1.031   4.492
 7314TIP3    H221888   4.552   0.886   4.507
 7315TIP3   OH221889  -0.007   7.509   5.714
 7315TIP3    H121890  -0.008   7.437   5.777
 7315TIP3    H221891  -0.017   7.588   5.768
 7316TIP3   OH221892   2.052   4.438   5.558
 7316TIP3    H121893   1.993   4.499   5.604
 7316TIP3    H221894   2.137   4.451   5.600
 7317TIP3   OH221895   4.792   6.805   3.065
 7317TIP3    H121896   4.831   6.850   3.140
 7317TIP3    H221897   4.760   6.722   3.101
 7318TIP3   OH221898   6.026   6.988   5.293
 7318TIP3    H121899   5.938   6.950   5.294
 7318TIP3    H221900   6.085   6.914   5.281
 7319TIP3   OH221901   1.711   0.141   3.815
 7319TIP3    H121902   1.621   0.124   3.843
 7319TIP3    H221903   1.754   0.055   3.820
 7320TIP3   OH221904   2.201   6.818   3.252
 7320TIP3    H121905   2.203   6.887   3.186
 7320TIP3    H221906   2.226   6.862   3.333
 7321TIP3   OH221907   4.524   7.595   6.789
 7321TIP3    H121908   4.473   7.665   6.829
 7321TIP3    H221909   4.523   7.615   6.695
 7322TIP3   OH221910   5.639   0.930   5.186
 7322TIP3    H121911   5.662   0.838   5.193
 7322TIP3    H221912   5.545   0.931   5.168
 7323TIP3   OH221913   0.693   6.479   5.127
 7323TIP3    H121914   0.669   6.562   5.168
 7323TIP3    H221915   0.681   6.414   5.196
 7324TIP3   OH221916   3.530   1.367   0.421
 7324TIP3    H121917   3.625   1.366   0.435
 7324TIP3    H221918   3.516   1.306   0.348
 7325TIP3   OH221919   0.094   0.399   3.827
 7325TIP3    H121920   0.141   0.317   3.810
 7325TIP3    H221921   0.041   0.381   3.905
 7326TIP3   OH221922   5.403   0.808   5.039
 7326TIP3    H121923   5.399   0.727   5.091
 7326TIP3    H221924   5.399   0.779   4.948
 7327TIP3   OH221925   6.246   0.932   3.703
 7327TIP3    H121926   6.322   0.967   3.657
 7327TIP3    H221927   6.227   0.850   3.657
 7328TIP3   OH221928   2.203   0.360   2.202
 7328TIP3    H121929   2.194   0.441   2.150
 7328TIP3    H221930   2.256   0.302   2.147
 7329TIP3   OH221931   3.173   3.938   2.158
 7329TIP3    H121932   3.084   3.964   2.181
 7329TIP3    H221933   3.170   3.924   2.063
 7330TIP3   OH221934   3.200   1.734   5.475
 7330TIP3    H121935   3.268   1.796   5.446
 7330TIP3    H221936   3.198   1.667   5.406
 7331TIP3   OH221937   6.906   6.771   1.760
 7331TIP3    H121938   6.931   6.702   1.699
 7331TIP3    H221939   6.971   6.767   1.830
 7332TIP3   OH221940   0.100   1.463   4.153
 7332TIP3    H121941   0.089   1.449   4.059
 7332TIP3    H221942   0.015   1.440   4.190
 7333TIP3   OH221943   7.796   4.441   6.319
 7333TIP3    H121944   7.823   4.398   6.238
 7333TIP3    H221945   7.700   4.445   6.313
 7334TIP3   OH221946   5.309   2.253   1.468
 7334TIP3    H121947   5.315   2.332   1.414
 7334TIP3    H221948   5.343   2.183   1.412
 7335TIP3   OH221949   7.174   1.232   6.495
 7335TIP3    H121950   7.153   1.147   6.457
 7335TIP3    H221951   7.110   1.292   6.458
 7336TIP3   OH221952   6.277   3.880   2.192
 7336TIP3    H121953   6.206   3.944   2.186
 7336TIP3    H221954   6.322   3.885   2.108
 7337TIP3   OH221955   4.362   6.234   1.813
 7337TIP3    H121956   4.295   6.191   1.759
 7337TIP3    H221957   4.343   6.327   1.805
 7338TIP3   OH221958   0.460   0.202   5.264
 7338TIP3    H121959   0.453   0.128   5.324
 7338TIP3    H221960   0.394   0.184   5.196
 7339TIP3   OH221961   1.669   6.260   3.303
 7339TIP3    H121962   1.742   6.275   3.363
 7339TIP3    H221963   1.622   6.343   3.302
 7340TIP3   OH221964   2.849   7.742   0.605
 7340TIP3    H121965   2.868   7.648   0.609
 7340TIP3    H221966   2.818   7.764   0.693
 7341TIP3   OH221967   7.079   0.737   4.671
 7341TIP3    H121968   7.080   0.825   4.634
 7341TIP3    H221969   7.171   0.712   4.677
 7342TIP3   OH221970   2.579   0.192   3.379
 7342TIP3    H121971   2.484   0.182   3.371
 7342TIP3    H221972   2.591   0.263   3.442
 7343TIP3   OH221973   1.696   7.299   5.500
 7343TIP3    H121974   1.721   7.358   5.430
 7343TIP3    H221975   1.612   7.261   5.471
 7344TIP3   OH221976   5.759   2.876   6.326
 7344TIP3    H121977   5.771   2.970   6.316
 7344TIP3    H221978   5.734   2.845   6.239
 7345TIP3   OH221979   7.458   3.801   6.358
 7345TIP3    H121980   7.474   3.895   6.366
 7345TIP3    H221981   7.541   3.766   6.324
 7346TIP3   OH221982   3.375   7.578   3.460
 7346TIP3    H121983   3.285   7.601   3.437
 7346TIP3    H221984   3.423   7.582   3.378
 7347TIP3   OH221985   1.800   2.425   1.975
 7347TIP3    H121986   1.808   2.474   2.057
 7347TIP3    H221987   1.821   2.335   1.999
 7348TIP3   OH221988   3.732   5.141   3.423
 7348TIP3    H121989   3.724   5.067   3.363
 7348TIP3    H221990   3.782   5.107   3.497
 7349TIP3   OH221991   0.273   2.378   2.410
 7349TIP3    H121992   0.231   2.298   2.378
 7349TIP3    H221993   0.367   2.359   2.405
 7350TIP3   OH221994   7.498   1.476   4.879
 7350TIP3    H121995   7.425   1.529   4.849
 7350TIP3    H221996   7.569   1.538   4.893
 7351TIP3   OH221997   5.214   0.668   3.316
 7351TIP3    H121998   5.187   0.760   3.308
 7351TIP3    H221999   5.159   0.622   3.253
 7352TIP3   OH222000   0.265   0.071   3.069
 7352TIP3    H122001   0.214   0.023   3.003
 7352TIP3    H222002   0.209   0.144   3.094
 7353TIP3   OH222003   5.129   4.366   4.213
 7353TIP3    H122004   5.111   4.391   4.122
 7353TIP3    H222005   5.203   4.306   4.207
 7354TIP3   OH222006   7.879   5.692   3.186
 7354TIP3    H122007   7.974   5.680   3.187
 7354TIP3    H222008   7.865   5.776   3.229
 7355TIP3   OH222009   1.502   5.087   1.792
 7355TIP3    H122010   1.518   5.055   1.881
 7355TIP3    H222011   1.456   5.015   1.748
 7356TIP3   OH222012   0.852   1.937   5.088
 7356TIP3    H122013   0.942   1.969   5.097
 7356TIP3    H222014   0.800   1.997   5.141
 7357TIP3   OH222015   4.733   6.553   3.152
 7357TIP3    H122016   4.813   6.536   3.102
 7357TIP3    H222017   4.718   6.472   3.201
 7358TIP3   OH222018   1.590   6.803   2.726
 7358TIP3    H122019   1.648   6.853   2.783
 7358TIP3    H222020   1.543   6.743   2.785
 7359TIP3   OH222021   5.397   3.097   5.335
 7359TIP3    H122022   5.488   3.077   5.312
 7359TIP3    H222023   5.355   3.117   5.251
 7360TIP3   OH222024   2.194   1.152   4.064
 7360TIP3    H122025   2.116   1.187   4.106
 7360TIP3    H222026   2.192   1.190   3.976
 7361TIP3   OH222027   0.500   4.422   2.749
 7361TIP3    H122028   0.420   4.370   2.740
 7361TIP3    H222029   0.479   4.506   2.708
 7362TIP3   OH222030   4.765   0.614   4.496
 7362TIP3    H122031   4.780   0.673   4.423
 7362TIP3    H222032   4.803   0.659   4.572
 7363TIP3   OH222033   2.597   7.173   5.133
 7363TIP3    H122034   2.588   7.196   5.225
 7363TIP3    H222035   2.520   7.210   5.090
 7364TIP3   OH222036   5.688   2.725   1.510
 7364TIP3    H122037   5.701   2.658   1.444
 7364TIP3    H222038   5.625   2.786   1.471
 7365TIP3   OH222039   6.712   3.377   3.753
 7365TIP3    H122040   6.712   3.368   3.848
 7365TIP3    H222041   6.749   3.464   3.737
 7366TIP3   OH222042   1.230   1.563   0.660
 7366TIP3    H122043   1.168   1.491   0.670
 7366TIP3    H222044   1.312   1.530   0.697
 7367TIP3   OH222045   5.544   1.965   1.018
 7367TIP3    H122046   5.535   1.886   1.071
 7367TIP3    H222047   5.455   1.983   0.987
 7368TIP3   OH222048   0.472   6.101   2.544
 7368TIP3    H122049   0.507   6.171   2.599
 7368TIP3    H222050   0.401   6.142   2.495
 7369TIP3   OH222051   4.699   2.075   2.660
 7369TIP3    H122052   4.684   2.125   2.579
 7369TIP3    H222053   4.654   1.992   2.644
 7370TIP3   OH222054   6.323   2.463   1.474
 7370TIP3    H122055   6.401   2.454   1.419
 7370TIP3    H222056   6.353   2.509   1.552
 7371TIP3   OH222057   4.306   0.925   2.850
 7371TIP3    H122058   4.232   0.864   2.860
 7371TIP3    H222059   4.382   0.868   2.834
 7372TIP3   OH222060   1.811   1.869   0.459
 7372TIP3    H122061   1.843   1.939   0.403
 7372TIP3    H222062   1.782   1.913   0.539
 7373TIP3   OH222063   5.623   0.855   4.099
 7373TIP3    H122064   5.579   0.936   4.124
 7373TIP3    H222065   5.552   0.793   4.082
 7374TIP3   OH222066   6.931   7.423   3.826
 7374TIP3    H122067   6.909   7.357   3.892
 7374TIP3    H222068   6.861   7.487   3.832
 7375TIP3   OH222069   7.656   6.522   0.797
 7375TIP3    H122070   7.598   6.460   0.841
 7375TIP3    H222071   7.726   6.468   0.762
 7376TIP3   OH222072   3.822   5.162   5.489
 7376TIP3    H122073   3.756   5.105   5.529
 7376TIP3    H222074   3.778   5.200   5.413
 7377TIP3   OH222075   4.127   5.551   0.296
 7377TIP3    H122076   4.197   5.586   0.351
 7377TIP3    H222077   4.075   5.627   0.271
 7378TIP3   OH222078   2.944   7.619   2.692
 7378TIP3    H122079   2.995   7.597   2.615
 7378TIP3    H222080   2.908   7.535   2.721
 7379TIP3   OH222081   4.163   3.296   6.100
 7379TIP3    H122082   4.133   3.386   6.095
 7379TIP3    H222083   4.245   3.295   6.049
 7380TIP3   OH222084   4.289   5.970   4.627
 7380TIP3    H122085   4.232   5.903   4.665
 7380TIP3    H222086   4.261   5.976   4.536
 7381TIP3   OH222087   5.930   0.099   0.148
 7381TIP3    H122088   5.864   0.039   0.113
 7381TIP3    H222089   6.013   0.054   0.134
 7382TIP3   OH222090   7.527   2.626   1.392
 7382TIP3    H122091   7.616   2.645   1.420
 7382TIP3    H222092   7.475   2.698   1.428
 7383TIP3   OH222093   3.969   5.512   6.664
 7383TIP3    H122094   3.925   5.518   6.748
 7383TIP3    H222095   4.052   5.558   6.678
 7384TIP3   OH222096   5.950   5.911   0.680
 7384TIP3    H122097   5.919   5.852   0.611
 7384TIP3    H222098   6.005   5.975   0.635
 7385TIP3   OH222099   0.616   1.757   1.278
 7385TIP3    H122100   0.694   1.745   1.332
 7385TIP3    H222101   0.567   1.827   1.321
 7386TIP3   OH222102   5.415   7.014   6.077
 7386TIP3    H122103   5.494   6.991   6.028
 7386TIP3    H222104   5.357   7.055   6.012
 7387TIP3   OH222105   7.462   5.953   2.781
 7387TIP3    H122106   7.423   5.991   2.703
 7387TIP3    H222107   7.399   5.971   2.851
 7388TIP3   OH222108   0.795   3.356   2.718
 7388TIP3    H122109   0.822   3.436   2.675
 7388TIP3    H222110   0.841   3.357   2.802
 7389TIP3   OH222111   5.333   1.314   1.155
 7389TIP3    H122112   5.275   1.375   1.109
 7389TIP3    H222113   5.419   1.356   1.152
 7390TIP3   OH222114   2.311   3.406   4.141
 7390TIP3    H122115   2.339   3.467   4.072
 7390TIP3    H222116   2.364   3.328   4.125
 7391TIP3   OH222117   0.282   4.909   1.281
 7391TIP3    H122118   0.312   4.818   1.273
 7391TIP3    H222119   0.187   4.904   1.272
 7392TIP3   OH222120   4.938   5.682   1.808
 7392TIP3    H122121   4.912   5.610   1.865
 7392TIP3    H222122   4.856   5.716   1.772
 7393TIP3   OH222123   2.532   7.652   4.274
 7393TIP3    H122124   2.461   7.715   4.279
 7393TIP3    H222125   2.611   7.706   4.268
 7394TIP3   OH222126   4.679   2.138   5.422
 7394TIP3    H122127   4.683   2.229   5.453
 7394TIP3    H222128   4.630   2.143   5.340
 7395TIP3   OH222129   5.318   4.500   3.649
 7395TIP3    H122130   5.231   4.539   3.657
 7395TIP3    H222131   5.308   4.411   3.681
 7396TIP3   OH222132   0.944   4.723   4.398
 7396TIP3    H122133   0.958   4.659   4.467
 7396TIP3    H222134   0.979   4.805   4.435
 7397TIP3   OH222135   4.520   1.490   4.463
 7397TIP3    H122136   4.526   1.420   4.397
 7397TIP3    H222137   4.599   1.542   4.449
 7398TIP3   OH222138   7.925   3.386   5.794
 7398TIP3    H122139   7.883   3.471   5.785
 7398TIP3    H222140   7.990   3.384   5.724
 7399TIP3   OH222141   1.231   7.499   2.885
 7399TIP3    H122142   1.227   7.480   2.979
 7399TIP3    H222143   1.261   7.417   2.845
 7400TIP3   OH222144   5.652   3.387   2.410
 7400TIP3    H122145   5.585   3.448   2.379
 7400TIP3    H222146   5.613   3.300   2.399
 7401TIP3   OH222147   1.080   0.705   5.763
 7401TIP3    H122148   1.024   0.646   5.712
 7401TIP3    H222149   1.071   0.790   5.720
 7402TIP3   OH222150   6.139   2.856   3.777
 7402TIP3    H122151   6.086   2.852   3.698
 7402TIP3    H222152   6.203   2.926   3.759
 7403TIP3   OH222153   8.148   2.802   1.803
 7403TIP3    H122154   8.204   2.872   1.770
 7403TIP3    H222155   8.208   2.738   1.841
 7404TIP3   OH222156   0.142   4.146   1.158
 7404TIP3    H122157   0.192   4.227   1.171
 7404TIP3    H222158   0.114   4.150   1.066
 7405TIP3   OH222159   4.382   4.598   5.709
 7405TIP3    H122160   4.340   4.534   5.766
 7405TIP3    H222161   4.465   4.617   5.751
 7406TIP3   OH222162   8.168   5.590   1.987
 7406TIP3    H122163   8.211   5.510   2.017
 7406TIP3    H222164   8.172   5.650   2.061
 7407TIP3   OH222165   7.720   7.521   2.543
 7407TIP3    H122166   7.780   7.463   2.496
 7407TIP3    H222167   7.675   7.464   2.606
 7408TIP3   OH222168   3.231   6.662   4.382
 7408TIP3    H122169   3.298   6.725   4.407
 7408TIP3    H222170   3.155   6.716   4.360
 7409TIP3   OH222171   0.493   3.197   6.084
 7409TIP3    H122172   0.500   3.269   6.021
 7409TIP3    H222173   0.522   3.120   6.034
 7410TIP3   OH222174   7.352   3.771   1.040
 7410TIP3    H122175   7.428   3.768   0.981
 7410TIP3    H222176   7.362   3.852   1.089
 7411TIP3   OH222177   5.159   7.093   0.517
 7411TIP3    H122178   5.140   7.046   0.598
 7411TIP3    H222179   5.231   7.044   0.477
 7412TIP3   OH222180   0.493   3.809   3.781
 7412TIP3    H122181   0.583   3.816   3.749
 7412TIP3    H222182   0.474   3.896   3.817
 7413TIP3   OH222183   4.681   7.537   2.472
 7413TIP3    H122184   4.679   7.601   2.543
 7413TIP3    H222185   4.713   7.457   2.513
 7414TIP3   OH222186   0.735   1.254   1.849
 7414TIP3    H122187   0.681   1.304   1.910
 7414TIP3    H222188   0.760   1.176   1.898
 7415TIP3   OH222189   1.773   1.971   2.585
 7415TIP3    H122190   1.851   1.916   2.593
 7415TIP3    H222191   1.746   1.987   2.676
 7416TIP3   OH222192   1.482   5.494   1.981
 7416TIP3    H122193   1.470   5.433   1.909
 7416TIP3    H222194   1.431   5.571   1.956
 7417TIP3   OH222195   5.319   0.421   4.428
 7417TIP3    H122196   5.394   0.479   4.418
 7417TIP3    H222197   5.295   0.428   4.520
 7418TIP3   OH222198   7.189   0.436   3.916
 7418TIP3    H122199   7.123   0.428   3.847
 7418TIP3    H222200   7.258   0.375   3.891
 7419TIP3   OH222201   2.791   4.212   4.453
 7419TIP3    H122202   2.727   4.216   4.524
 7419TIP3    H222203   2.744   4.245   4.376
 7420TIP3   OH222204   8.309   0.524   1.126
 7420TIP3    H122205   8.223   0.557   1.101
 7420TIP3    H222206   8.297   0.429   1.134
 7421TIP3   OH222207   3.240   5.771   3.586
 7421TIP3    H122208   3.326   5.762   3.546
 7421TIP3    H222209   3.188   5.700   3.548
 7422TIP3   OH222210   6.455   4.635   2.497
 7422TIP3    H122211   6.434   4.667   2.584
 7422TIP3    H222212   6.369   4.617   2.457
 7423TIP3   OH222213   4.237   0.385   0.996
 7423TIP3    H122214   4.149   0.379   0.959
 7423TIP3    H222215   4.222   0.395   1.090
 7424TIP3   OH222216   3.849   3.196   0.085
 7424TIP3    H122217   3.917   3.255   0.054
 7424TIP3    H222218   3.787   3.254   0.131
 7425TIP3   OH222219   6.287   0.794   1.574
 7425TIP3    H122220   6.318   0.877   1.611
 7425TIP3    H222221   6.198   0.785   1.608
 7426TIP3   OH222222   6.553   6.903   0.072
 7426TIP3    H122223   6.561   6.906   0.167
 7426TIP3    H222224   6.522   6.990   0.047
 7427TIP3   OH222225   3.041   6.570   0.424
 7427TIP3    H122226   3.135   6.579   0.432
 7427TIP3    H222227   3.005   6.614   0.501
 7428TIP3   OH222228   1.839   2.646   3.607
 7428TIP3    H122229   1.757   2.667   3.652
 7428TIP3    H222230   1.819   2.568   3.556
 7429TIP3   OH222231   2.639   3.262   5.661
 7429TIP3    H122232   2.671   3.276   5.572
 7429TIP3    H222233   2.602   3.346   5.687
 7430TIP3   OH222234   2.391   7.483   3.391
 7430TIP3    H122235   2.296   7.479   3.403
 7430TIP3    H222236   2.424   7.524   3.471
 7431TIP3   OH222237   6.812   6.347   1.931
 7431TIP3    H122238   6.751   6.280   1.961
 7431TIP3    H222239   6.898   6.308   1.941
 7432TIP3   OH222240   0.467   5.328   0.263
 7432TIP3    H122241   0.508   5.411   0.240
 7432TIP3    H222242   0.390   5.353   0.314
 7433TIP3   OH222243   2.900   2.872   2.746
 7433TIP3    H122244   2.838   2.942   2.730
 7433TIP3    H222245   2.986   2.913   2.734
 7434TIP3   OH222246   6.700   6.960   5.790
 7434TIP3    H122247   6.611   6.977   5.820
 7434TIP3    H222248   6.753   7.027   5.833
 7435TIP3   OH222249   4.965   7.700   6.528
 7435TIP3    H122250   4.875   7.694   6.496
 7435TIP3    H222251   4.969   7.640   6.602
 7436TIP3   OH222252   5.491   4.242   1.943
 7436TIP3    H122253   5.495   4.334   1.971
 7436TIP3    H222254   5.511   4.244   1.850
 7437TIP3   OH222255   0.415   0.154   5.941
 7437TIP3    H122256   0.420   0.059   5.953
 7437TIP3    H222257   0.483   0.188   6.000
 7438TIP3   OH222258   5.607   0.136   6.666
 7438TIP3    H122259   5.537   0.107   6.724
 7438TIP3    H222260   5.658   0.056   6.648
 7439TIP3   OH222261   1.129   6.407   4.442
 7439TIP3    H122262   1.201   6.468   4.458
 7439TIP3    H222263   1.052   6.452   4.477
 7440TIP3   OH222264   4.091   5.539   4.818
 7440TIP3    H122265   4.043   5.458   4.800
 7440TIP3    H222266   4.183   5.512   4.820
 7441TIP3   OH222267   2.269   3.303   2.085
 7441TIP3    H122268   2.294   3.258   2.004
 7441TIP3    H222269   2.279   3.236   2.153
 7442TIP3   OH222270   1.804   6.088   4.433
 7442TIP3    H122271   1.897   6.100   4.415
 7442TIP3    H222272   1.777   6.017   4.376
 7443TIP3   OH222273   7.932   6.360   4.150
 7443TIP3    H122274   7.944   6.419   4.075
 7443TIP3    H222275   7.909   6.418   4.222
 7444TIP3   OH222276   4.010   1.949   2.847
 7444TIP3    H122277   4.046   1.955   2.936
 7444TIP3    H222278   4.069   1.890   2.801
 7445TIP3   OH222279   2.120   6.619   2.206
 7445TIP3    H122280   2.106   6.596   2.298
 7445TIP3    H222281   2.186   6.688   2.208
 7446TIP3   OH222282   1.066   6.783   1.409
 7446TIP3    H122283   1.160   6.791   1.428
 7446TIP3    H222284   1.056   6.819   1.321
 7447TIP3   OH222285   7.976   7.722   5.980
 7447TIP3    H122286   8.032   7.791   6.015
 7447TIP3    H222287   7.897   7.725   6.034
 7448TIP3   OH222288   1.064   1.184   2.409
 7448TIP3    H122289   1.136   1.142   2.362
 7448TIP3    H222290   1.012   1.111   2.442
 7449TIP3   OH222291   2.616   0.023   1.652
 7449TIP3    H122292   2.647   0.054   1.568
 7449TIP3    H222293   2.695   0.006   1.703
 7450TIP3   OH222294   4.025   1.791   5.435
 7450TIP3    H122295   4.041   1.821   5.345
 7450TIP3    H222296   3.930   1.800   5.446
 7451TIP3   OH222297   2.178   7.117   1.337
 7451TIP3    H122298   2.236   7.186   1.305
 7451TIP3    H222299   2.098   7.163   1.364
 7452TIP3   OH222300   0.315   1.616   1.986
 7452TIP3    H122301   0.360   1.601   1.902
 7452TIP3    H222302   0.269   1.699   1.974
 7453TIP3   OH222303   3.009   6.320   6.183
 7453TIP3    H122304   3.069   6.266   6.131
 7453TIP3    H222305   2.955   6.257   6.230
 7454TIP3   OH222306   6.056   3.238   2.051
 7454TIP3    H122307   6.148   3.211   2.043
 7454TIP3    H222308   6.015   3.205   1.971
 7455TIP3   OH222309   7.596   1.452   2.795
 7455TIP3    H122310   7.662   1.514   2.826
 7455TIP3    H222311   7.618   1.436   2.703
 7456TIP3   OH222312   5.098   5.835   4.964
 7456TIP3    H122313   5.154   5.840   5.041
 7456TIP3    H222314   5.127   5.908   4.909
 7457TIP3   OH222315   5.972   3.151   2.843
 7457TIP3    H122316   5.936   3.075   2.798
 7457TIP3    H222317   5.909   3.171   2.912
 7458TIP3   OH222318   4.914   3.113   1.342
 7458TIP3    H122319   4.992   3.090   1.292
 7458TIP3    H222320   4.857   3.036   1.336
 7459TIP3   OH222321   1.482   0.821   1.502
 7459TIP3    H122322   1.422   0.771   1.447
 7459TIP3    H222323   1.467   0.787   1.591
 7460TIP3   OH222324   5.273   1.171   4.318
 7460TIP3    H122325   5.230   1.087   4.333
 7460TIP3    H222326   5.206   1.237   4.337
 7461TIP3   OH222327   1.390   0.369   1.700
 7461TIP3    H122328   1.457   0.304   1.681
 7461TIP3    H222329   1.386   0.424   1.622
 7462TIP3   OH222330   1.217   1.544   1.233
 7462TIP3    H122331   1.239   1.537   1.140
 7462TIP3    H222332   1.293   1.587   1.273
 7463TIP3   OH222333   4.656   1.807   1.200
 7463TIP3    H122334   4.683   1.885   1.249
 7463TIP3    H222335   4.617   1.750   1.267
 7464TIP3   OH222336   8.060   6.889   1.852
 7464TIP3    H122337   7.968   6.913   1.854
 7464TIP3    H222338   8.069   6.833   1.775
 7465TIP3   OH222339   0.298   4.164   4.422
 7465TIP3    H122340   0.370   4.129   4.475
 7465TIP3    H222341   0.320   4.257   4.412
 7466TIP3   OH222342   4.640   7.365   5.924
 7466TIP3    H122343   4.728   7.360   5.884
 7466TIP3    H222344   4.622   7.276   5.952
 7467TIP3   OH222345   1.123   5.342   5.581
 7467TIP3    H122346   1.100   5.249   5.584
 7467TIP3    H222347   1.115   5.365   5.488
 7468TIP3   OH222348   5.512   7.152   0.908
 7468TIP3    H122349   5.558   7.169   0.990
 7468TIP3    H222350   5.576   7.174   0.839
 7469TIP3   OH222351   4.481   2.164   0.789
 7469TIP3    H122352   4.388   2.140   0.789
 7469TIP3    H222353   4.510   2.152   0.879
 7470TIP3   OH222354   5.220   5.101   1.169
 7470TIP3    H122355   5.211   5.154   1.248
 7470TIP3    H222356   5.302   5.129   1.129
 7471TIP3   OH222357   2.192   2.101   3.639
 7471TIP3    H122358   2.172   2.064   3.725
 7471TIP3    H222359   2.225   2.026   3.588
 7472TIP3   OH222360   2.753   2.308   5.310
 7472TIP3    H122361   2.688   2.237   5.311
 7472TIP3    H222362   2.817   2.282   5.376
 7473TIP3   OH222363   1.024   4.963   4.511
 7473TIP3    H122364   1.082   5.013   4.568
 7473TIP3    H222365   0.982   5.028   4.456
 7474TIP3   OH222366   2.302   3.292   4.981
 7474TIP3    H122367   2.221   3.286   4.931
 7474TIP3    H222368   2.315   3.204   5.017
 7475TIP3   OH222369   7.136   7.012   6.196
 7475TIP3    H122370   7.076   7.087   6.191
 7475TIP3    H222371   7.096   6.946   6.141
 7476TIP3   OH222372   1.446   5.272   6.777
 7476TIP3    H122373   1.383   5.235   6.714
 7476TIP3    H222374   1.428   5.366   6.775
 7477TIP3   OH222375   7.341   1.966   3.261
 7477TIP3    H122376   7.400   1.926   3.197
 7477TIP3    H222377   7.323   2.053   3.226
 7478TIP3   OH222378   5.810   4.244   6.479
 7478TIP3    H122379   5.814   4.293   6.561
 7478TIP3    H222380   5.875   4.174   6.489
 7479TIP3   OH222381   0.123   2.634   5.841
 7479TIP3    H122382   0.189   2.677   5.788
 7479TIP3    H222383   0.173   2.577   5.900
 7480TIP3   OH222384   2.919   4.467   3.874
 7480TIP3    H122385   2.913   4.546   3.820
 7480TIP3    H222386   3.003   4.476   3.921
 7481TIP3   OH222387   7.994   3.692   5.327
 7481TIP3    H122388   8.045   3.742   5.264
 7481TIP3    H222389   7.904   3.723   5.316
 7482TIP3   OH222390   2.584   6.010   3.032
 7482TIP3    H122391   2.630   5.938   2.990
 7482TIP3    H222392   2.492   5.995   3.010
 7483TIP3   OH222393   5.981   3.214   1.589
 7483TIP3    H122394   5.962   3.122   1.605
 7483TIP3    H222395   5.896   3.253   1.569
 7484TIP3   OH222396   2.009   6.771   2.544
 7484TIP3    H122397   1.994   6.786   2.638
 7484TIP3    H222398   1.921   6.765   2.507
 7485TIP3   OH222399   6.864   6.075   2.231
 7485TIP3    H122400   6.826   6.038   2.311
 7485TIP3    H222401   6.863   6.002   2.169
 7486TIP3   OH222402   6.822   2.475   0.351
 7486TIP3    H122403   6.778   2.513   0.274
 7486TIP3    H222404   6.771   2.506   0.425
 7487TIP3   OH222405   5.549   5.814   3.310
 7487TIP3    H122406   5.624   5.873   3.309
 7487TIP3    H222407   5.588   5.726   3.308
 7488TIP3   OH222408   1.799   6.966   6.384
 7488TIP3    H122409   1.708   6.967   6.354
 7488TIP3    H222410   1.844   7.025   6.324
 7489TIP3   OH222411   2.763   7.191   5.637
 7489TIP3    H122412   2.672   7.203   5.667
 7489TIP3    H222413   2.755   7.139   5.558
 7490TIP3   OH222414   0.922   3.511   6.142
 7490TIP3    H122415   0.961   3.579   6.086
 7490TIP3    H222416   0.828   3.519   6.128
 7491TIP3   OH222417   3.745   2.088   0.912
 7491TIP3    H122418   3.813   2.147   0.946
 7491TIP3    H222419   3.779   2.000   0.929
 7492TIP3   OH222420   7.408   4.422   1.607
 7492TIP3    H122421   7.447   4.439   1.522
 7492TIP3    H222422   7.410   4.327   1.616
 7493TIP3   OH222423   0.436   2.848   3.667
 7493TIP3    H122424   0.406   2.758   3.683
 7493TIP3    H222425   0.357   2.896   3.644
 7494TIP3   OH222426   5.864   5.725   5.995
 7494TIP3    H122427   5.796   5.665   6.026
 7494TIP3    H222428   5.875   5.703   5.903
 7495TIP3   OH222429   7.166   4.909   2.484
 7495TIP3    H122430   7.086   4.950   2.451
 7495TIP3    H222431   7.162   4.920   2.579
 7496TIP3   OH222432   3.610   6.927   3.942
 7496TIP3    H122433   3.575   7.000   3.890
 7496TIP3    H222434   3.541   6.907   4.005
 7497TIP3   OH222435   5.596   3.443   1.853
 7497TIP3    H122436   5.562   3.529   1.830
 7497TIP3    H222437   5.682   3.461   1.892
 7498TIP3   OH222438   0.376   0.662   6.622
 7498TIP3    H122439   0.285   0.686   6.639
 7498TIP3    H222440   0.420   0.744   6.601
 7499TIP3   OH222441   4.211   1.510   5.395
 7499TIP3    H122442   4.134   1.539   5.345
 7499TIP3    H222443   4.178   1.498   5.485
 7500TIP3   OH222444   5.585   1.041   2.923
 7500TIP3    H122445   5.575   1.010   2.833
 7500TIP3    H222446   5.553   0.968   2.977
 7501TIP3   OH222447   4.275   0.230   3.161
 7501TIP3    H122448   4.305   0.164   3.098
 7501TIP3    H222449   4.182   0.211   3.173
 7502TIP3   OH222450   6.658   6.433   6.123
 7502TIP3    H122451   6.689   6.442   6.214
 7502TIP3    H222452   6.709   6.498   6.075
 7503TIP3   OH222453   4.898   1.867   1.720
 7503TIP3    H122454   4.964   1.917   1.769
 7503TIP3    H222455   4.903   1.778   1.756
 7504TIP3   OH222456   1.444   2.863   6.684
 7504TIP3    H122457   1.385   2.938   6.674
 7504TIP3    H222458   1.529   2.901   6.705
 7505TIP3   OH222459   1.097   0.850   2.642
 7505TIP3    H122460   1.130   0.868   2.730
 7505TIP3    H222461   1.175   0.826   2.592
 7506TIP3   OH222462   4.447   6.783   3.455
 7506TIP3    H122463   4.431   6.793   3.361
 7506TIP3    H222464   4.542   6.792   3.465
 7507TIP3   OH222465   6.703   3.891   3.943
 7507TIP3    H122466   6.698   3.801   3.974
 7507TIP3    H222467   6.692   3.944   4.022
 7508TIP3   OH222468   2.590   3.926   4.092
 7508TIP3    H122469   2.638   3.860   4.042
 7508TIP3    H222470   2.554   3.879   4.167
 7509TIP3   OH222471   7.632   2.118   2.346
 7509TIP3    H122472   7.619   2.087   2.257
 7509TIP3    H222473   7.601   2.047   2.402
 7510TIP3   OH222474   8.168   7.135   3.124
 7510TIP3    H122475   8.209   7.067   3.071
 7510TIP3    H222476   8.086   7.155   3.078
 7511TIP3   OH222477   6.018   4.790   1.725
 7511TIP3    H122478   5.940   4.801   1.780
 7511TIP3    H222479   6.048   4.701   1.743
 7512TIP3   OH222480   8.241   1.269   3.293
 7512TIP3    H122481   8.232   1.240   3.202
 7512TIP3    H222482   8.320   1.323   3.293
 7513TIP3   OH222483   4.868   1.135   0.105
 7513TIP3    H122484   4.948   1.086   0.120
 7513TIP3    H222485   4.887   1.191   0.030
 7514TIP3   OH222486   1.373   2.137   2.523
 7514TIP3    H122487   1.447   2.128   2.463
 7514TIP3    H222488   1.394   2.213   2.576
 7515TIP3   OH222489   6.281   0.739   6.010
 7515TIP3    H122490   6.273   0.778   6.097
 7515TIP3    H222491   6.233   0.798   5.952
 7516TIP3   OH222492   7.086   7.696   3.687
 7516TIP3    H122493   7.000   7.722   3.654
 7516TIP3    H222494   7.117   7.630   3.625
 7517TIP3   OH222495   6.691   3.479   6.302
 7517TIP3    H122496   6.630   3.410   6.277
 7517TIP3    H222497   6.636   3.555   6.321
 7518TIP3   OH222498   0.243   2.831   4.709
 7518TIP3    H122499   0.191   2.846   4.788
 7518TIP3    H222500   0.330   2.809   4.742
 7519TIP3   OH222501   2.184   0.993   2.370
 7519TIP3    H122502   2.223   0.914   2.407
 7519TIP3    H222503   2.252   1.030   2.314
 7520TIP3   OH222504   0.824   4.412   6.496
 7520TIP3    H122505   0.885   4.338   6.501
 7520TIP3    H222506   0.881   4.489   6.503
 7521TIP3   OH222507   3.909   7.399   0.637
 7521TIP3    H122508   3.979   7.375   0.698
 7521TIP3    H222509   3.899   7.494   0.648
 7522TIP3   OH222510   3.074   4.337   3.423
 7522TIP3    H122511   3.003   4.282   3.455
 7522TIP3    H222512   3.129   4.353   3.500
 7523TIP3   OH222513   7.618   0.578   6.743
 7523TIP3    H122514   7.710   0.576   6.716
 7523TIP3    H222515   7.583   0.493   6.718
 7524TIP3   OH222516   7.206   6.581   4.906
 7524TIP3    H122517   7.181   6.506   4.960
 7524TIP3    H222518   7.295   6.561   4.877
 7525TIP3   OH222519   3.866   2.552   1.704
 7525TIP3    H122520   3.842   2.521   1.617
 7525TIP3    H222521   3.956   2.523   1.717
 7526TIP3   OH222522   2.366   7.315   2.872
 7526TIP3    H122523   2.313   7.395   2.865
 7526TIP3    H222524   2.312   7.247   2.833
 7527TIP3   OH222525   4.668   7.199   2.273
 7527TIP3    H122526   4.742   7.138   2.266
 7527TIP3    H222527   4.708   7.285   2.281
 7528TIP3   OH222528   1.590   3.787   3.121
 7528TIP3    H122529   1.496   3.805   3.126
 7528TIP3    H222530   1.609   3.733   3.197
 7529TIP3   OH222531   1.407   0.326   3.171
 7529TIP3    H122532   1.425   0.380   3.248
 7529TIP3    H222533   1.341   0.375   3.122
 7530TIP3   OH222534   0.153   4.301   1.732
 7530TIP3    H122535   0.076   4.358   1.734
 7530TIP3    H222536   0.133   4.236   1.665
 7531TIP3   OH222537   4.595   4.157   1.278
 7531TIP3    H122538   4.550   4.106   1.212
 7531TIP3    H222539   4.686   4.129   1.273
 7532TIP3   OH222540   4.878   0.813   5.377
 7532TIP3    H122541   4.822   0.779   5.447
 7532TIP3    H222542   4.960   0.836   5.421
 7533TIP3   OH222543   0.785   0.048   2.987
 7533TIP3    H122544   0.818  -0.017   3.049
 7533TIP3    H222545   0.848   0.120   2.993
 7534TIP3   OH222546   7.316   1.897   5.909
 7534TIP3    H122547   7.251   1.959   5.875
 7534TIP3    H222548   7.398   1.925   5.869
 7535TIP3   OH222549   1.057   0.728   4.330
 7535TIP3    H122550   0.982   0.773   4.369
 7535TIP3    H222551   1.096   0.679   4.402
 7536TIP3   OH222552   6.639   2.684   5.191
 7536TIP3    H122553   6.677   2.680   5.103
 7536TIP3    H222554   6.580   2.759   5.188
 7537TIP3   OH222555   1.136   7.479   1.232
 7537TIP3    H122556   1.132   7.395   1.186
 7537TIP3    H222557   1.227   7.487   1.259
 7538TIP3   OH222558   3.457   0.623   1.924
 7538TIP3    H122559   3.457   0.527   1.915
 7538TIP3    H222560   3.549   0.646   1.930
 7539TIP3   OH222561   2.238   3.758   6.742
 7539TIP3    H122562   2.247   3.845   6.779
 7539TIP3    H222563   2.211   3.773   6.652
 7540TIP3   OH222564   6.440   0.344   2.064
 7540TIP3    H122565   6.487   0.371   2.143
 7540TIP3    H222566   6.403   0.259   2.086
 7541TIP3   OH222567   0.891   5.006   2.869
 7541TIP3    H122568   0.830   5.000   2.796
 7541TIP3    H222569   0.945   4.928   2.862
 7542TIP3   OH222570   5.353   7.557   0.446
 7542TIP3    H122571   5.435   7.571   0.399
 7542TIP3    H222572   5.368   7.478   0.499
 7543TIP3   OH222573   3.875   7.693   4.681
 7543TIP3    H122574   3.789   7.655   4.699
 7543TIP3    H222575   3.915   7.703   4.768
 7544TIP3   OH222576   1.417   3.454   2.263
 7544TIP3    H122577   1.344   3.459   2.201
 7544TIP3    H222578   1.376   3.442   2.348
 7545TIP3   OH222579   4.527   1.217   5.973
 7545TIP3    H122580   4.525   1.301   6.020
 7545TIP3    H222581   4.493   1.154   6.035
 7546TIP3   OH222582   6.045   4.184   4.035
 7546TIP3    H122583   5.993   4.117   3.991
 7546TIP3    H222584   6.022   4.174   4.128
 7547TIP3   OH222585   5.103   0.099   0.759
 7547TIP3    H122586   5.136   0.016   0.794
 7547TIP3    H222587   5.182   0.152   0.746
 7548TIP3   OH222588   2.162   0.249   0.956
 7548TIP3    H122589   2.171   0.154   0.965
 7548TIP3    H222590   2.234   0.285   1.008
 7549TIP3   OH222591   5.772   3.560   5.494
 7549TIP3    H122592   5.717   3.516   5.558
 7549TIP3    H222593   5.710   3.611   5.441
 7550TIP3   OH222594   2.337   5.518   0.156
 7550TIP3    H122595   2.376   5.445   0.107
 7550TIP3    H222596   2.304   5.577   0.088
 7551TIP3   OH222597   3.500   3.437   6.766
 7551TIP3    H122598   3.417   3.394   6.784
 7551TIP3    H222599   3.528   3.402   6.682
 7552TIP3   OH222600   2.089   2.899   3.903
 7552TIP3    H122601   2.038   2.818   3.899
 7552TIP3    H222602   2.070   2.936   3.989
 7553TIP3   OH222603   2.992   5.987   4.594
 7553TIP3    H122604   2.938   6.020   4.666
 7553TIP3    H222605   2.995   5.892   4.607
 7554TIP3   OH222606   4.784   0.489   2.904
 7554TIP3    H122607   4.758   0.534   2.985
 7554TIP3    H222608   4.789   0.558   2.839
 7555TIP3   OH222609   2.905   7.806   5.251
 7555TIP3    H122610   2.894   7.792   5.157
 7555TIP3    H222611   2.954   7.729   5.281
 7556TIP3   OH222612   5.837   7.546   6.308
 7556TIP3    H122613   5.823   7.640   6.306
 7556TIP3    H222614   5.749   7.508   6.305
 7557TIP3   OH222615   6.952   6.144   3.104
 7557TIP3    H122616   6.970   6.188   3.187
 7557TIP3    H222617   6.858   6.158   3.089
 7558TIP3   OH222618   2.832   7.147   2.756
 7558TIP3    H122619   2.782   7.224   2.784
 7558TIP3    H222620   2.824   7.085   2.829
 7559TIP3   OH222621   2.033   1.720   2.312
 7559TIP3    H122622   2.089   1.643   2.325
 7559TIP3    H222623   1.980   1.723   2.392
 7560TIP3   OH222624   0.694   1.702   6.139
 7560TIP3    H122625   0.612   1.710   6.092
 7560TIP3    H222626   0.756   1.756   6.090
 7561TIP3   OH222627   0.671   7.270   1.904
 7561TIP3    H122628   0.594   7.232   1.862
 7561TIP3    H222629   0.664   7.364   1.886
 7562TIP3   OH222630   5.671   2.633   2.567
 7562TIP3    H122631   5.699   2.542   2.561
 7562TIP3    H222632   5.593   2.631   2.622
 7563TIP3   OH222633   7.080   0.636   6.525
 7563TIP3    H122634   7.044   0.570   6.584
 7563TIP3    H222635   7.020   0.637   6.451
 7564TIP3   OH222636   2.278   6.655   1.957
 7564TIP3    H122637   2.311   6.700   2.035
 7564TIP3    H222638   2.350   6.598   1.930
 7565TIP3   OH222639   5.460   7.103   4.561
 7565TIP3    H122640   5.430   7.015   4.540
 7565TIP3    H222641   5.505   7.093   4.646
 7566TIP3   OH222642   4.696   3.791   0.855
 7566TIP3    H122643   4.692   3.826   0.944
 7566TIP3    H222644   4.709   3.697   0.867
 7567TIP3   OH222645   2.178   5.717   5.904
 7567TIP3    H122646   2.134   5.780   5.961
 7567TIP3    H222647   2.222   5.770   5.837
 7568TIP3   OH222648   6.153   6.464   2.955
 7568TIP3    H122649   6.224   6.442   2.895
 7568TIP3    H222650   6.082   6.495   2.898
 7569TIP3   OH222651   1.402   7.103   1.909
 7569TIP3    H122652   1.450   7.029   1.946
 7569TIP3    H222653   1.325   7.112   1.966
 7570TIP3   OH222654   5.532   6.102   6.558
 7570TIP3    H122655   5.502   6.163   6.491
 7570TIP3    H222656   5.456   6.088   6.614
 7571TIP3   OH222657   4.139   6.652   3.890
 7571TIP3    H122658   4.050   6.620   3.874
 7571TIP3    H222659   4.187   6.576   3.921
 7572TIP3   OH222660   2.178   0.940   4.371
 7572TIP3    H122661   2.196   1.007   4.305
 7572TIP3    H222662   2.152   0.863   4.321
 7573TIP3   OH222663   7.672   2.564   2.711
 7573TIP3    H122664   7.732   2.528   2.777
 7573TIP3    H222665   7.613   2.491   2.690
 7574TIP3   OH222666   4.801   6.031   3.407
 7574TIP3    H122667   4.781   5.943   3.378
 7574TIP3    H222668   4.890   6.026   3.441
 7575TIP3   OH222669   3.847   0.039   5.312
 7575TIP3    H122670   3.872  -0.048   5.344
 7575TIP3    H222671   3.794   0.076   5.382
 7576TIP3   OH222672   7.937   0.243   1.208
 7576TIP3    H122673   8.024   0.210   1.188
 7576TIP3    H222674   7.878   0.188   1.157
 7577TIP3   OH222675   6.799   7.644   0.489
 7577TIP3    H122676   6.761   7.630   0.575
 7577TIP3    H222677   6.882   7.597   0.491
 7578TIP3   OH222678   1.626   6.191   3.041
 7578TIP3    H122679   1.639   6.198   3.136
 7578TIP3    H222680   1.600   6.100   3.027
 7579TIP3   OH222681   7.964   7.155   2.637
 7579TIP3    H122682   8.029   7.108   2.584
 7579TIP3    H222683   7.971   7.246   2.607
 7580TIP3   OH222684   1.303   7.190   0.166
 7580TIP3    H122685   1.306   7.216   0.259
 7580TIP3    H222686   1.360   7.113   0.162
 7581TIP3   OH222687   2.935   3.896   1.731
 7581TIP3    H122688   2.922   3.922   1.822
 7581TIP3    H222689   2.913   3.975   1.680
 7582TIP3   OH222690   4.487   1.543   1.695
 7582TIP3    H122691   4.474   1.452   1.667
 7582TIP3    H222692   4.477   1.594   1.614
 7583TIP3   OH222693   2.060   7.181   3.039
 7583TIP3    H122694   2.092   7.268   3.017
 7583TIP3    H222695   1.977   7.173   2.993
 7584TIP3   OH222696   5.903   6.218   3.345
 7584TIP3    H122697   5.846   6.277   3.395
 7584TIP3    H222698   5.983   6.268   3.330
 7585TIP3   OH222699   1.598   1.187   2.956
 7585TIP3    H122700   1.670   1.148   2.906
 7585TIP3    H222701   1.519   1.165   2.907
 7586TIP3   OH222702   0.514   5.849   5.966
 7586TIP3    H122703   0.594   5.885   6.006
 7586TIP3    H222704   0.536   5.842   5.873
 7587TIP3   OH222705   0.468   7.295   3.569
 7587TIP3    H122706   0.487   7.244   3.648
 7587TIP3    H222707   0.379   7.270   3.545
 7588TIP3   OH222708   3.733   1.807   5.488
 7588TIP3    H122709   3.690   1.771   5.566
 7588TIP3    H222710   3.688   1.891   5.473
 7589TIP3   OH222711   5.313   3.273   0.390
 7589TIP3    H122712   5.317   3.282   0.485
 7589TIP3    H222713   5.231   3.316   0.365
 7590TIP3   OH222714   4.727   2.607   3.464
 7590TIP3    H122715   4.779   2.526   3.461
 7590TIP3    H222716   4.698   2.620   3.374
 7591TIP3   OH222717   7.795   5.116   1.188
 7591TIP3    H122718   7.854   5.182   1.152
 7591TIP3    H222719   7.853   5.056   1.235
 7592TIP3   OH222720   0.071   4.494   2.229
 7592TIP3    H122721  -0.003   4.433   2.222
 7592TIP3    H222722   0.083   4.505   2.324
 7593TIP3   OH222723   4.801   3.031   5.187
 7593TIP3    H122724   4.720   3.060   5.229
 7593TIP3    H222725   4.868   3.041   5.255
 7594TIP3   OH222726   8.108   2.466   5.529
 7594TIP3    H122727   8.123   2.500   5.617
 7594TIP3    H222728   8.013   2.456   5.522
 7595TIP3   OH222729   5.118   0.633   1.153
 7595TIP3    H122730   5.071   0.688   1.090
 7595TIP3    H222731   5.210   0.642   1.129
 7596TIP3   OH222732   5.531   1.331   1.588
 7596TIP3    H122733   5.491   1.291   1.511
 7596TIP3    H222734   5.462   1.386   1.625
 7597TIP3   OH222735   4.233   7.281   0.477
 7597TIP3    H122736   4.208   7.355   0.533
 7597TIP3    H222737   4.204   7.307   0.389
 7598TIP3   OH222738   7.356   2.065   3.910
 7598TIP3    H122739   7.269   2.030   3.927
 7598TIP3    H222740   7.358   2.079   3.815
 7599TIP3   OH222741   8.288   7.107   5.055
 7599TIP3    H122742   8.198   7.076   5.048
 7599TIP3    H222743   8.282   7.200   5.033
 7600TIP3   OH222744   5.255   7.802   5.038
 7600TIP3    H122745   5.175   7.766   5.077
 7600TIP3    H222746   5.233   7.813   4.945
 7601TIP3   OH222747   2.656   1.969   1.919
 7601TIP3    H122748   2.704   1.888   1.940
 7601TIP3    H222749   2.614   1.993   2.002
 7602TIP3   OH222750   4.708   5.194   1.844
 7602TIP3    H122751   4.686   5.207   1.936
 7602TIP3    H222752   4.791   5.147   1.845
 7603TIP3   OH222753   7.056   2.516   3.004
 7603TIP3    H122754   7.044   2.468   3.086
 7603TIP3    H222755   7.003   2.595   3.015
 7604TIP3   OH222756   0.963   2.515   3.363
 7604TIP3    H122757   0.927   2.433   3.329
 7604TIP3    H222758   0.909   2.584   3.324
 7605TIP3   OH222759   2.644   2.564   4.139
 7605TIP3    H122760   2.721   2.527   4.096
 7605TIP3    H222761   2.671   2.652   4.165
 7606TIP3   OH222762   5.288   0.111   4.701
 7606TIP3    H122763   5.193   0.120   4.709
 7606TIP3    H222764   5.302   0.094   4.608
 7607TIP3   OH222765   6.056   6.511   3.667
 7607TIP3    H122766   6.107   6.523   3.587
 7607TIP3    H222767   6.040   6.599   3.700
 7608TIP3   OH222768   2.093   4.904   3.885
 7608TIP3    H122769   2.009   4.908   3.929
 7608TIP3    H222770   2.127   4.993   3.890
 7609TIP3   OH222771   1.969   0.323   4.606
 7609TIP3    H122772   1.966   0.418   4.596
 7609TIP3    H222773   2.038   0.307   4.671
 7610TIP3   OH222774   4.589   4.758   1.946
 7610TIP3    H122775   4.664   4.736   2.001
 7610TIP3    H222776   4.515   4.712   1.987
 7611TIP3   OH222777   5.002   4.936   1.143
 7611TIP3    H122778   4.947   5.014   1.132
 7611TIP3    H222779   5.091   4.969   1.138
 7612TIP3   OH222780   7.663   7.181   4.293
 7612TIP3    H122781   7.673   7.088   4.269
 7612TIP3    H222782   7.568   7.193   4.300
 7613TIP3   OH222783   0.970   2.680   5.635
 7613TIP3    H122784   1.019   2.615   5.585
 7613TIP3    H222785   0.894   2.700   5.580
 7614TIP3   OH222786   5.328   0.289   3.324
 7614TIP3    H122787   5.286   0.223   3.269
 7614TIP3    H222788   5.377   0.344   3.262
 7615TIP3   OH222789   6.424   0.468   3.280
 7615TIP3    H122790   6.385   0.405   3.219
 7615TIP3    H222791   6.432   0.548   3.229
 7616TIP3   OH222792   8.104   4.180   6.088
 7616TIP3    H122793   8.184   4.151   6.133
 7616TIP3    H222794   8.128   4.181   5.996
 7617TIP3   OH222795   4.727   7.181   0.170
 7617TIP3    H122796   4.800   7.229   0.131
 7617TIP3    H222797   4.763   7.147   0.252
 7618TIP3   OH222798   1.480   7.440   6.582
 7618TIP3    H122799   1.413   7.446   6.513
 7618TIP3    H222800   1.456   7.509   6.643
 7619TIP3   OH222801   0.167   1.449   6.577
 7619TIP3    H122802   0.147   1.366   6.534
 7619TIP3    H222803   0.261   1.446   6.595
 7620TIP3   OH222804   7.462   6.316   1.158
 7620TIP3    H122805   7.511   6.309   1.239
 7620TIP3    H222806   7.371   6.301   1.184
 7621TIP3   OH222807   5.300   7.259   3.224
 7621TIP3    H122808   5.227   7.222   3.175
 7621TIP3    H222809   5.363   7.286   3.157
 7622TIP3   OH222810   3.867   5.254   3.221
 7622TIP3    H122811   3.816   5.325   3.181
 7622TIP3    H222812   3.839   5.253   3.312
 7623TIP3   OH222813   7.336   2.554   2.980
 7623TIP3    H122814   7.377   2.478   3.021
 7623TIP3    H222815   7.242   2.539   2.989
 7624TIP3   OH222816   7.524   5.523   2.615
 7624TIP3    H122817   7.568   5.605   2.639
 7624TIP3    H222818   7.475   5.545   2.535
 7625TIP3   OH222819   2.755   5.111   0.052
 7625TIP3    H122820   2.678   5.137   0.101
 7625TIP3    H222821   2.807   5.060   0.114
 7626TIP3   OH222822   5.351   4.197   4.282
 7626TIP3    H122823   5.422   4.228   4.226
 7626TIP3    H222824   5.344   4.263   4.350
 7627TIP3   OH222825   4.216   0.676   5.527
 7627TIP3    H122826   4.272   0.749   5.553
 7627TIP3    H222827   4.155   0.665   5.600
 7628TIP3   OH222828   1.300   0.606   2.768
 7628TIP3    H122829   1.356   0.644   2.701
 7628TIP3    H222830   1.228   0.566   2.720
 7629TIP3   OH222831   6.310   6.441   3.765
 7629TIP3    H122832   6.286   6.369   3.825
 7629TIP3    H222833   6.226   6.480   3.741
 7630TIP3   OH222834   7.759   1.452   0.756
 7630TIP3    H122835   7.843   1.407   0.752
 7630TIP3    H222836   7.742   1.462   0.850
 7631TIP3   OH222837   5.197   1.321   6.405
 7631TIP3    H122838   5.111   1.321   6.448
 7631TIP3    H222839   5.237   1.404   6.431
 7632TIP3   OH222840   7.435   0.806   2.000
 7632TIP3    H122841   7.343   0.782   2.010
 7632TIP3    H222842   7.477   0.728   1.963
 7633TIP3   OH222843   3.435   4.989   0.942
 7633TIP3    H122844   3.497   4.997   0.869
 7633TIP3    H222845   3.419   5.079   0.970
 7634TIP3   OH222846   0.478   7.426   1.166
 7634TIP3    H122847   0.507   7.451   1.078
 7634TIP3    H222848   0.470   7.330   1.162
 7635TIP3   OH222849   3.146   0.543   1.845
 7635TIP3    H122850   3.192   0.504   1.770
 7635TIP3    H222851   3.210   0.603   1.884
 7636TIP3   OH222852   4.187   6.884   3.456
 7636TIP3    H122853   4.275   6.866   3.489
 7636TIP3    H222854   4.195   6.874   3.361
 7637TIP3   OH222855   6.145   7.523   3.702
 7637TIP3    H122856   6.216   7.563   3.753
 7637TIP3    H222857   6.103   7.597   3.658
 7638TIP3   OH222858   2.062   0.692   6.410
 7638TIP3    H122859   2.144   0.725   6.372
 7638TIP3    H222860   2.050   0.606   6.369
 7639TIP3   OH222861   4.733   3.528   0.499
 7639TIP3    H122862   4.672   3.454   0.507
 7639TIP3    H222863   4.776   3.515   0.415
 7640TIP3   OH222864   4.948   0.181   0.341
 7640TIP3    H122865   4.957   0.098   0.388
 7640TIP3    H222866   4.981   0.162   0.253
 7641TIP3   OH222867   2.945   5.441   5.023
 7641TIP3    H122868   2.917   5.499   5.094
 7641TIP3    H222869   2.865   5.394   4.998
 7642TIP3   OH222870   4.073   1.347   2.915
 7642TIP3    H122871   4.140   1.359   2.983
 7642TIP3    H222872   4.013   1.282   2.951
 7643TIP3   OH222873   6.056   1.018   2.923
 7643TIP3    H122874   6.070   1.100   2.969
 7643TIP3    H222875   6.105   0.953   2.974
 7644TIP3   OH222876   2.140   2.865   2.349
 7644TIP3    H122877   2.107   2.931   2.288
 7644TIP3    H222878   2.213   2.909   2.394
 7645TIP3   OH222879   0.665   5.372   2.994
 7645TIP3    H122880   0.603   5.299   2.997
 7645TIP3    H222881   0.610   5.451   2.995
 7646TIP3   OH222882   1.388   5.302   2.882
 7646TIP3    H122883   1.326   5.297   2.809
 7646TIP3    H222884   1.342   5.351   2.950
 7647TIP3   OH222885   7.127   3.584   2.240
 7647TIP3    H122886   7.060   3.628   2.187
 7647TIP3    H222887   7.187   3.546   2.175
 7648TIP3   OH222888   8.260   4.713   6.224
 7648TIP3    H122889   8.287   4.803   6.204
 7648TIP3    H222890   8.171   4.722   6.257
 7649TIP3   OH222891   2.971   0.993   2.942
 7649TIP3    H122892   2.966   1.089   2.947
 7649TIP3    H222893   2.942   0.963   3.028
 7650TIP3   OH222894   6.021   0.499   1.369
 7650TIP3    H122895   6.095   0.552   1.340
 7650TIP3    H222896   5.949   0.562   1.378
 7651TIP3   OH222897   1.487   7.234   6.767
 7651TIP3    H122898   1.483   7.289   6.689
 7651TIP3    H222899   1.451   7.149   6.739
 7652TIP3   OH222900   1.215   7.494   5.912
 7652TIP3    H122901   1.173   7.436   5.848
 7652TIP3    H222902   1.149   7.508   5.979
 7653TIP3   OH222903   3.407   3.803   6.542
 7653TIP3    H122904   3.405   3.778   6.634
 7653TIP3    H222905   3.315   3.818   6.520
 7654TIP3   OH222906   4.530   4.644   2.985
 7654TIP3    H122907   4.520   4.711   3.053
 7654TIP3    H222908   4.625   4.634   2.975
 7655TIP3   OH222909   2.293   4.867   3.677
 7655TIP3    H122910   2.313   4.961   3.668
 7655TIP3    H222911   2.216   4.865   3.734
 7656TIP3   OH222912   2.566   6.125   5.759
 7656TIP3    H122913   2.556   6.212   5.797
 7656TIP3    H222914   2.558   6.138   5.665
 7657TIP3   OH222915   6.283   7.651   6.383
 7657TIP3    H122916   6.264   7.736   6.342
 7657TIP3    H222917   6.259   7.663   6.475
 7658TIP3   OH222918   0.550   1.413   3.066
 7658TIP3    H122919   0.583   1.413   3.155
 7658TIP3    H222920   0.456   1.399   3.076
 7659TIP3   OH222921   4.369   2.778   3.175
 7659TIP3    H122922   4.375   2.870   3.149
 7659TIP3    H222923   4.346   2.781   3.268
 7660TIP3   OH222924   7.210   4.967   4.388
 7660TIP3    H122925   7.146   5.022   4.342
 7660TIP3    H222926   7.285   4.963   4.329
 7661TIP3   OH222927   0.312   2.066   3.963
 7661TIP3    H122928   0.236   2.053   4.020
 7661TIP3    H222929   0.382   2.093   4.022
 7662TIP3   OH222930   6.964   3.262   2.574
 7662TIP3    H122931   7.046   3.240   2.530
 7662TIP3    H222932   6.903   3.193   2.547
 7663TIP3   OH222933   6.538   5.712   3.339
 7663TIP3    H122934   6.614   5.742   3.290
 7663TIP3    H222935   6.469   5.776   3.319
 7664TIP3   OH222936   8.248   1.575   4.628
 7664TIP3    H122937   8.240   1.572   4.723
 7664TIP3    H222938   8.341   1.596   4.613
 7665TIP3   OH222939   4.818   6.948   2.318
 7665TIP3    H122940   4.816   6.937   2.413
 7665TIP3    H222941   4.739   6.905   2.288
 7666TIP3   OH222942   5.606   3.380   3.264
 7666TIP3    H122943   5.616   3.285   3.270
 7666TIP3    H222944   5.680   3.416   3.313
 7667TIP3   OH222945   6.592   1.803   2.199
 7667TIP3    H122946   6.588   1.711   2.225
 7667TIP3    H222947   6.683   1.817   2.173
 7668TIP3   OH222948   6.511   6.711   1.429
 7668TIP3    H122949   6.451   6.763   1.482
 7668TIP3    H222950   6.585   6.769   1.412
 7669TIP3   OH222951   1.549   4.909   6.560
 7669TIP3    H122952   1.555   5.004   6.563
 7669TIP3    H222953   1.631   4.879   6.599
 7670TIP3   OH222954   1.727   1.319   1.090
 7670TIP3    H122955   1.714   1.412   1.073
 7670TIP3    H222956   1.688   1.275   1.014
 7671TIP3   OH222957   7.795   6.427   3.166
 7671TIP3    H122958   7.848   6.377   3.228
 7671TIP3    H222959   7.705   6.396   3.181
 7672TIP3   OH222960   1.902   0.589   0.680
 7672TIP3    H122961   1.977   0.533   0.697
 7672TIP3    H222962   1.891   0.586   0.585
 7673TIP3   OH222963   4.375   1.840   0.055
 7673TIP3    H122964   4.347   1.783   0.127
 7673TIP3    H222965   4.425   1.782  -0.002
 7674TIP3   OH222966   5.513   4.447   3.861
 7674TIP3    H122967   5.552   4.462   3.775
 7674TIP3    H222968   5.440   4.388   3.844
 7675TIP3   OH222969   1.801   5.758   4.071
 7675TIP3    H122970   1.767   5.809   4.144
 7675TIP3    H222971   1.825   5.674   4.110
 7676TIP3   OH222972   1.171   1.275   6.072
 7676TIP3    H122973   1.138   1.229   6.150
 7676TIP3    H222974   1.123   1.357   6.070
 7677TIP3   OH222975   5.843   6.977   1.451
 7677TIP3    H122976   5.874   6.982   1.361
 7677TIP3    H222977   5.817   6.885   1.463
 7678TIP3   OH222978   3.491   1.180   5.188
 7678TIP3    H122979   3.576   1.165   5.146
 7678TIP3    H222980   3.501   1.144   5.276
 7679TIP3   OH222981   7.811   1.916   4.802
 7679TIP3    H122982   7.887   1.885   4.850
 7679TIP3    H222983   7.826   1.888   4.712
 7680TIP3   OH222984   6.166   0.150   0.915
 7680TIP3    H122985   6.102   0.198   0.968
 7680TIP3    H222986   6.162   0.192   0.829
 7681TIP3   OH222987   1.983   3.897   4.802
 7681TIP3    H122988   1.922   3.928   4.735
 7681TIP3    H222989   1.946   3.815   4.832
 7682TIP3   OH222990   4.637   0.365   1.201
 7682TIP3    H122991   4.552   0.323   1.189
 7682TIP3    H222992   4.616   0.455   1.226
 7683TIP3   OH222993   8.308   7.694   0.686
 7683TIP3    H122994   8.325   7.613   0.734
 7683TIP3    H222995   8.239   7.671   0.624
 7684TIP3   OH222996   0.400   7.721   2.423
 7684TIP3    H122997   0.493   7.704   2.409
 7684TIP3    H222998   0.362   7.636   2.443
 7685TIP3   OH222999   8.076   6.768   1.455
 7685TIP3    H123000   8.093   6.859   1.480
 7685TIP3    H223001   8.117   6.759   1.369
 7686TIP3   OH223002   2.530   7.121   2.338
 7686TIP3    H123003   2.538   7.088   2.428
 7686TIP3    H223004   2.550   7.214   2.345
 7687TIP3   OH223005   8.265   0.089   5.037
 7687TIP3    H123006   8.178   0.049   5.042
 7687TIP3    H223007   8.322   0.020   5.004
 7688TIP3   OH223008   0.420   6.667   4.939
 7688TIP3    H123009   0.362   6.677   5.014
 7688TIP3    H223010   0.506   6.695   4.970
 7689TIP3   OH223011   5.026   0.570   5.613
 7689TIP3    H123012   4.932   0.555   5.602
 7689TIP3    H223013   5.037   0.586   5.707
 7690TIP3   OH223014   5.240   6.747   0.089
 7690TIP3    H123015   5.223   6.774  -0.001
 7690TIP3    H223016   5.175   6.795   0.141
 7691TIP3   OH223017   6.037   2.039   5.711
 7691TIP3    H123018   6.074   1.958   5.678
 7691TIP3    H223019   6.063   2.041   5.803
 7692TIP3   OH223020   1.562   0.231   3.581
 7692TIP3    H123021   1.634   0.231   3.644
 7692TIP3    H223022   1.595   0.179   3.507
 7693TIP3   OH223023   4.327   6.756   6.579
 7693TIP3    H123024   4.396   6.692   6.599
 7693TIP3    H223025   4.278   6.717   6.507
 7694TIP3   OH223026   3.580   7.502   5.023
 7694TIP3    H123027   3.526   7.577   5.048
 7694TIP3    H223028   3.517   7.431   5.010
 7695TIP3   OH223029   4.358   4.032   5.151
 7695TIP3    H123030   4.263   4.046   5.153
 7695TIP3    H223031   4.380   4.007   5.241
 7696TIP3   OH223032   7.306   1.878   0.305
 7696TIP3    H123033   7.219   1.919   0.306
 7696TIP3    H223034   7.367   1.951   0.294
 7697TIP3   OH223035   2.136   2.468   6.664
 7697TIP3    H123036   2.131   2.550   6.615
 7697TIP3    H223037   2.212   2.423   6.627
 7698TIP3   OH223038   7.942   2.666   3.945
 7698TIP3    H123039   7.913   2.752   3.975
 7698TIP3    H223040   8.037   2.672   3.946
 7699TIP3   OH223041   7.349   1.349   0.695
 7699TIP3    H123042   7.316   1.350   0.605
 7699TIP3    H223043   7.347   1.256   0.720
 7700TIP3   OH223044   5.230   0.696   4.317
 7700TIP3    H123045   5.159   0.660   4.370
 7700TIP3    H223046   5.275   0.757   4.375
 7701TIP3   OH223047   0.163   3.925   1.443
 7701TIP3    H123048   0.095   3.944   1.378
 7701TIP3    H223049   0.242   3.911   1.392
 7702TIP3   OH223050   1.347   3.631   4.301
 7702TIP3    H123051   1.435   3.598   4.316
 7702TIP3    H223052   1.312   3.578   4.229
 7703TIP3   OH223053   6.626   7.245   5.924
 7703TIP3    H123054   6.706   7.198   5.902
 7703TIP3    H223055   6.656   7.321   5.973
 7704TIP3   OH223056   1.954   6.259   0.899
 7704TIP3    H123057   1.920   6.210   0.824
 7704TIP3    H223058   2.034   6.212   0.924
 7705TIP3   OH223059   2.022   5.047   4.534
 7705TIP3    H123060   2.073   4.968   4.513
 7705TIP3    H223061   1.938   5.015   4.564
 7706TIP3   OH223062   5.089   3.363   2.354
 7706TIP3    H123063   5.059   3.452   2.337
 7706TIP3    H223064   5.134   3.369   2.439
 7707TIP3   OH223065   4.806   4.013   3.316
 7707TIP3    H123066   4.727   4.032   3.265
 7707TIP3    H223067   4.776   4.008   3.407
 7708TIP3   OH223068   1.785   0.688   4.447
 7708TIP3    H123069   1.848   0.649   4.507
 7708TIP3    H223070   1.825   0.679   4.361
 7709TIP3   OH223071   6.350   7.303   1.240
 7709TIP3    H123072   6.280   7.355   1.199
 7709TIP3    H223073   6.359   7.226   1.184
 7710TIP3   OH223074   1.118   3.096   2.443
 7710TIP3    H123075   1.037   3.085   2.492
 7710TIP3    H223076   1.175   3.026   2.474
 7711TIP3   OH223077   5.932   3.601   6.255
 7711TIP3    H123078   5.884   3.519   6.259
 7711TIP3    H223079   6.006   3.589   6.315
 7712TIP3   OH223080   2.249   2.854   3.528
 7712TIP3    H123081   2.277   2.853   3.620
 7712TIP3    H223082   2.244   2.947   3.506
 7713TIP3   OH223083   2.845   6.607   6.738
 7713TIP3    H123084   2.850   6.702   6.729
 7713TIP3    H223085   2.879   6.574   6.655
 7714TIP3   OH223086   1.878   2.509   2.216
 7714TIP3    H123087   1.880   2.586   2.272
 7714TIP3    H223088   1.962   2.466   2.232
 7715TIP3   OH223089   3.347   4.194   3.417
 7715TIP3    H123090   3.254   4.178   3.404
 7715TIP3    H223091   3.369   4.146   3.497
 7716TIP3   OH223092   2.657   0.160   5.319
 7716TIP3    H123093   2.600   0.221   5.366
 7716TIP3    H223094   2.698   0.108   5.387
 7717TIP3   OH223095   2.314   7.811   4.436
 7717TIP3    H123096   2.376   7.883   4.426
 7717TIP3    H223097   2.232   7.852   4.462
 7718TIP3   OH223098   5.876   0.762   0.733
 7718TIP3    H123099   5.932   0.785   0.659
 7718TIP3    H223100   5.823   0.689   0.702
 7719TIP3   OH223101   1.158   4.980   3.030
 7719TIP3    H123102   1.139   4.966   2.937
 7719TIP3    H223103   1.098   5.049   3.056
 7720TIP3   OH223104   2.980   3.370   3.515
 7720TIP3    H123105   2.972   3.309   3.588
 7720TIP3    H223106   2.891   3.378   3.481
 7721TIP3   OH223107   7.260   5.137   0.478
 7721TIP3    H123108   7.259   5.169   0.568
 7721TIP3    H223109   7.263   5.042   0.487
 7722TIP3   OH223110   6.423   0.374   6.738
 7722TIP3    H123111   6.454   0.284   6.747
 7722TIP3    H223112   6.502   0.427   6.732
 7723TIP3   OH223113   2.850   1.774   5.227
 7723TIP3    H123114   2.820   1.862   5.200
 7723TIP3    H223115   2.814   1.763   5.315
 7724TIP3   OH223116   5.951   6.391   6.641
 7724TIP3    H123117   5.894   6.316   6.661
 7724TIP3    H223118   5.980   6.375   6.551
 7725TIP3   OH223119   3.253   6.728   6.319
 7725TIP3    H123120   3.169   6.682   6.315
 7725TIP3    H223121   3.240   6.807   6.267
 7726TIP3   OH223122   6.834   1.771   6.682
 7726TIP3    H123123   6.843   1.849   6.737
 7726TIP3    H223124   6.888   1.789   6.605
 7727TIP3   OH223125   3.904   3.808   4.140
 7727TIP3    H123126   3.920   3.824   4.233
 7727TIP3    H223127   3.918   3.714   4.130
 7728TIP3   OH223128   3.057   4.304   0.736
 7728TIP3    H123129   2.992   4.327   0.670
 7728TIP3    H223130   3.107   4.232   0.696
 7729TIP3   OH223131   5.480   4.371   5.877
 7729TIP3    H123132   5.537   4.342   5.806
 7729TIP3    H223133   5.396   4.389   5.835
 7730TIP3   OH223134   8.091   5.449   5.906
 7730TIP3    H123135   8.063   5.383   5.969
 7730TIP3    H223136   8.011   5.471   5.857
 7731TIP3   OH223137   0.632   7.203   6.232
 7731TIP3    H123138   0.654   7.242   6.147
 7731TIP3    H223139   0.717   7.183   6.271
 7732TIP3   OH223140   2.267   2.965   2.588
 7732TIP3    H123141   2.339   2.906   2.613
 7732TIP3    H223142   2.310   3.048   2.567
 7733TIP3   OH223143   5.417   6.054   2.300
 7733TIP3    H123144   5.417   6.070   2.394
 7733TIP3    H223145   5.377   6.133   2.262
 7734TIP3   OH223146   4.518   0.405   5.969
 7734TIP3    H123147   4.611   0.426   5.972
 7734TIP3    H223148   4.491   0.430   5.880
 7735TIP3   OH223149   4.374   4.804   0.973
 7735TIP3    H123150   4.350   4.769   0.886
 7735TIP3    H223151   4.401   4.727   1.023
 7736TIP3   OH223152   2.638   5.012   3.416
 7736TIP3    H123153   2.654   5.063   3.337
 7736TIP3    H223154   2.568   4.951   3.392
 7737TIP3   OH223155   7.391   1.360   4.126
 7737TIP3    H123156   7.420   1.445   4.092
 7737TIP3    H223157   7.422   1.297   4.061
 7738TIP3   OH223158   1.633   1.034   1.596
 7738TIP3    H123159   1.724   1.005   1.591
 7738TIP3    H223160   1.582   0.957   1.572
 7739TIP3   OH223161   3.903   4.115   1.969
 7739TIP3    H123162   3.878   4.034   2.015
 7739TIP3    H223163   3.928   4.175   2.039
 7740TIP3   OH223164   6.287   5.517   4.399
 7740TIP3    H123165   6.233   5.498   4.322
 7740TIP3    H223166   6.229   5.567   4.456
 7741TIP3   OH223167   6.934   2.245   1.622
 7741TIP3    H123168   6.907   2.300   1.549
 7741TIP3    H223169   6.862   2.182   1.633
 7742TIP3   OH223170   0.081   0.280   1.712
 7742TIP3    H123171   0.072   0.213   1.779
 7742TIP3    H223172   0.149   0.247   1.653
 7743TIP3   OH223173   7.572   5.873   4.390
 7743TIP3    H123174   7.637   5.803   4.386
 7743TIP3    H223175   7.512   5.846   4.460
 7744TIP3   OH223176   5.131   5.148   1.711
 7744TIP3    H123177   5.147   5.241   1.723
 7744TIP3    H223178   5.212   5.114   1.674
 7745TIP3   OH223179   4.323  -0.028   0.043
 7745TIP3    H123180   4.316   0.067   0.042
 7745TIP3    H223181   4.340  -0.052  -0.048
 7746TIP3   OH223182   5.363   4.753   0.298
 7746TIP3    H123183   5.327   4.701   0.371
 7746TIP3    H223184   5.315   4.722   0.221
 7747TIP3   OH223185   4.903   2.861   0.773
 7747TIP3    H123186   4.973   2.819   0.822
 7747TIP3    H223187   4.828   2.802   0.782
 7748TIP3   OH223188   6.203   2.561   5.257
 7748TIP3    H123189   6.176   2.536   5.169
 7748TIP3    H223190   6.172   2.490   5.313
 7749TIP3   OH223191   2.961   1.249   3.300
 7749TIP3    H123192   3.015   1.172   3.317
 7749TIP3    H223193   2.993   1.281   3.215
 7750TIP3   OH223194   7.883   0.993   3.672
 7750TIP3    H123195   7.808   0.935   3.677
 7750TIP3    H223196   7.959   0.935   3.661
 7751TIP3   OH223197   0.527   1.012   0.231
 7751TIP3    H123198   0.452   1.053   0.186
 7751TIP3    H223199   0.516   1.036   0.323
 7752TIP3   OH223200   2.423   5.081   4.073
 7752TIP3    H123201   2.348   5.080   4.013
 7752TIP3    H223202   2.489   5.027   4.030
 7753TIP3   OH223203   2.540   0.846   1.241
 7753TIP3    H123204   2.559   0.771   1.185
 7753TIP3    H223205   2.529   0.919   1.180
 7754TIP3   OH223206   1.693   7.754   0.281
 7754TIP3    H123207   1.638   7.753   0.202
 7754TIP3    H223208   1.692   7.845   0.309
 7755TIP3   OH223209   5.229   3.805   6.507
 7755TIP3    H123210   5.311   3.840   6.544
 7755TIP3    H223211   5.160   3.856   6.549
 7756TIP3   OH223212   0.743   4.298   5.258
 7756TIP3    H123213   0.737   4.203   5.272
 7756TIP3    H223214   0.724   4.336   5.344
 7757TIP3   OH223215   1.961   7.042   4.725
 7757TIP3    H123216   1.962   6.966   4.667
 7757TIP3    H223217   1.871   7.047   4.756
 7758TIP3   OH223218   5.388   2.808   5.394
 7758TIP3    H123219   5.408   2.741   5.328
 7758TIP3    H223220   5.400   2.891   5.347
 7759TIP3   OH223221   4.488   7.354   1.147
 7759TIP3    H123222   4.453   7.429   1.194
 7759TIP3    H223223   4.573   7.338   1.187
 7760TIP3   OH223224   0.265   3.468   3.029
 7760TIP3    H123225   0.324   3.398   3.058
 7760TIP3    H223226   0.199   3.473   3.098
 7761TIP3   OH223227   0.860   4.024   5.012
 7761TIP3    H123228   0.924   4.094   5.001
 7761TIP3    H223229   0.827   4.007   4.924
 7762TIP3   OH223230   5.791   2.426   6.170
 7762TIP3    H123231   5.725   2.360   6.192
 7762TIP3    H223232   5.803   2.418   6.076
 7763TIP3   OH223233   3.919   1.698   4.945
 7763TIP3    H123234   4.013   1.689   4.965
 7763TIP3    H223235   3.877   1.700   5.031
 7764TIP3   OH223236   6.106   2.561   6.401
 7764TIP3    H123237   6.192   2.532   6.371
 7764TIP3    H223238   6.059   2.480   6.420
 7765TIP3   OH223239   0.007   5.462   0.283
 7765TIP3    H123240  -0.016   5.523   0.354
 7765TIP3    H223241   0.023   5.518   0.208
 7766TIP3   OH223242   0.468   2.561   4.138
 7766TIP3    H123243   0.436   2.648   4.112
 7766TIP3    H223244   0.535   2.578   4.204
 7767TIP3   OH223245   4.801   0.569   5.239
 7767TIP3    H123246   4.843   0.555   5.154
 7767TIP3    H223247   4.840   0.649   5.272
 7768TIP3   OH223248   3.309   7.135   3.893
 7768TIP3    H123249   3.263   7.055   3.868
 7768TIP3    H223250   3.239   7.193   3.925
 7769TIP3   OH223251   4.480   0.632   1.700
 7769TIP3    H123252   4.533   0.634   1.780
 7769TIP3    H223253   4.417   0.703   1.711
 7770TIP3   OH223254   2.176   7.519   0.286
 7770TIP3    H123255   2.220   7.546   0.367
 7770TIP3    H223256   2.125   7.595   0.260
 7771TIP3   OH223257   4.950   4.710   0.444
 7771TIP3    H123258   4.970   4.685   0.353
 7771TIP3    H223259   4.861   4.743   0.441
 7772TIP3   OH223260   3.447   6.120   0.920
 7772TIP3    H123261   3.487   6.045   0.965
 7772TIP3    H223262   3.408   6.082   0.842
 7773TIP3   OH223263   4.344   1.213   6.226
 7773TIP3    H123264   4.296   1.278   6.278
 7773TIP3    H223265   4.333   1.131   6.273
 7774TIP3   OH223266   5.981   3.737   5.542
 7774TIP3    H123267   5.893   3.703   5.524
 7774TIP3    H223268   6.023   3.741   5.456
 7775TIP3   OH223269   7.531   0.011   2.894
 7775TIP3    H123270   7.482   0.093   2.897
 7775TIP3    H223271   7.492  -0.043   2.964
 7776TIP3   OH223272   7.325   3.754   3.082
 7776TIP3    H123273   7.401   3.732   3.029
 7776TIP3    H223274   7.355   3.748   3.172
 7777TIP3   OH223275   2.342   3.605   1.578
 7777TIP3    H123276   2.270   3.641   1.527
 7777TIP3    H223277   2.346   3.660   1.656
 7778TIP3   OH223278   1.737   4.519   5.410
 7778TIP3    H123279   1.751   4.591   5.471
 7778TIP3    H223280   1.768   4.441   5.456
 7779TIP3   OH223281   0.092   5.780   5.891
 7779TIP3    H123282   0.125   5.868   5.909
 7779TIP3    H223283   0.154   5.744   5.828
 7780TIP3   OH223284   3.840   5.109   0.932
 7780TIP3    H123285   3.784   5.035   0.907
 7780TIP3    H223286   3.895   5.125   0.856
 7781TIP3   OH223287   8.265   6.359   0.711
 7781TIP3    H123288   8.261   6.438   0.657
 7781TIP3    H223289   8.190   6.306   0.681
 7782TIP3   OH223290   4.789   6.495   1.908
 7782TIP3    H123291   4.695   6.493   1.892
 7782TIP3    H223292   4.806   6.584   1.939
 7783TIP3   OH223293   8.317   4.467   2.489
 7783TIP3    H123294   8.358   4.430   2.567
 7783TIP3    H223295   8.223   4.458   2.505
 7784TIP3   OH223296   8.044   1.354   5.060
 7784TIP3    H123297   8.036   1.298   4.983
 7784TIP3    H223298   7.971   1.415   5.053
 7785TIP3   OH223299   4.503   3.859   2.118
 7785TIP3    H123300   4.481   3.846   2.210
 7785TIP3    H223301   4.572   3.925   2.119
 7786TIP3   OH223302   2.555   3.582   0.074
 7786TIP3    H123303   2.570   3.498   0.117
 7786TIP3    H223304   2.461   3.586   0.059
 7787TIP3   OH223305   5.721   4.532   5.049
 7787TIP3    H123306   5.709   4.618   5.009
 7787TIP3    H223307   5.686   4.471   4.985
 7788TIP3   OH223308   1.967   7.697   0.263
 7788TIP3    H123309   1.876   7.724   0.274
 7788TIP3    H223310   1.989   7.722   0.173
 7789TIP3   OH223311   4.054   4.596   4.673
 7789TIP3    H123312   4.143   4.614   4.643
 7789TIP3    H223313   4.057   4.506   4.705
 7790TIP3   OH223314   2.896   3.032   2.195
 7790TIP3    H123315   2.959   3.096   2.228
 7790TIP3    H223316   2.854   2.998   2.274
 7791TIP3   OH223317   3.415   2.004   3.285
 7791TIP3    H123318   3.455   2.033   3.204
 7791TIP3    H223319   3.463   1.925   3.309
 7792TIP3   OH223320   1.164   7.013   0.502
 7792TIP3    H123321   1.178   6.933   0.551
 7792TIP3    H223322   1.080   7.001   0.459
 7793TIP3   OH223323   0.475   3.328   5.845
 7793TIP3    H123324   0.407   3.295   5.786
 7793TIP3    H223325   0.556   3.322   5.794
 7794TIP3   OH223326   2.332   7.568   1.113
 7794TIP3    H123327   2.354   7.517   1.035
 7794TIP3    H223328   2.327   7.504   1.183
 7795TIP3   OH223329   3.495   5.615   5.431
 7795TIP3    H123330   3.518   5.573   5.348
 7795TIP3    H223331   3.400   5.625   5.427
 7796TIP3   OH223332   7.181   4.969   4.654
 7796TIP3    H123333   7.097   4.925   4.666
 7796TIP3    H223334   7.184   4.992   4.562
 7797TIP3   OH223335   3.359   2.414   6.613
 7797TIP3    H123336   3.381   2.455   6.697
 7797TIP3    H223337   3.331   2.487   6.558
 7798TIP3   OH223338   5.427   3.806  -0.002
 7798TIP3    H123339   5.418   3.836  -0.093
 7798TIP3    H223340   5.514   3.834   0.025
 7799TIP3   OH223341   7.343   3.472   5.451
 7799TIP3    H123342   7.437   3.473   5.433
 7799TIP3    H223343   7.337   3.471   5.547
 7800TIP3   OH223344   0.150   6.262   0.044
 7800TIP3    H123345   0.211   6.335   0.051
 7800TIP3    H223346   0.106   6.260   0.129
 7801TIP3   OH223347   6.520   0.787   2.107
 7801TIP3    H123348   6.495   0.810   2.197
 7801TIP3    H223349   6.439   0.796   2.056
 7802TIP3   OH223350   3.106   0.698   5.064
 7802TIP3    H123351   3.071   0.752   5.135
 7802TIP3    H223352   3.076   0.741   4.984
 7803TIP3   OH223353   3.268   6.748   2.171
 7803TIP3    H123354   3.202   6.709   2.113
 7803TIP3    H223355   3.290   6.678   2.232
 7804TIP3   OH223356   6.135   3.186   0.206
 7804TIP3    H123357   6.207   3.129   0.234
 7804TIP3    H223358   6.057   3.131   0.212
 7805TIP3   OH223359   6.509   4.306   3.021
 7805TIP3    H123360   6.553   4.292   2.937
 7805TIP3    H223361   6.417   4.285   3.004
 7806TIP3   OH223362   1.159   1.391   2.807
 7806TIP3    H123363   1.189   1.440   2.730
 7806TIP3    H223364   1.174   1.450   2.880
 7807TIP3   OH223365   0.967   4.227   4.719
 7807TIP3    H123366   0.909   4.270   4.657
 7807TIP3    H223367   0.946   4.134   4.711
 7808TIP3   OH223368   3.581   1.148   4.020
 7808TIP3    H123369   3.549   1.181   4.104
 7808TIP3    H223370   3.501   1.132   3.969
 7809TIP3   OH223371   2.068   4.898   6.696
 7809TIP3    H123372   2.124   4.902   6.773
 7809TIP3    H223373   2.096   4.819   6.650
 7810TIP3   OH223374   7.486   7.801   4.232
 7810TIP3    H123375   7.487   7.878   4.176
 7810TIP3    H223376   7.523   7.831   4.315
 7811TIP3   OH223377   6.857   5.700   5.254
 7811TIP3    H123378   6.852   5.617   5.301
 7811TIP3    H223379   6.948   5.727   5.264
 7812TIP3   OH223380   6.113   1.914   4.935
 7812TIP3    H123381   6.144   1.908   5.025
 7812TIP3    H223382   6.092   1.824   4.910
 7813TIP3   OH223383   5.375   5.022   4.330
 7813TIP3    H123384   5.351   5.049   4.242
 7813TIP3    H223385   5.297   5.039   4.383
 7814TIP3   OH223386   2.712   4.132   1.317
 7814TIP3    H123387   2.710   4.082   1.235
 7814TIP3    H223388   2.654   4.206   1.300
 7815TIP3   OH223389   6.428   3.964   5.876
 7815TIP3    H123390   6.363   3.895   5.892
 7815TIP3    H223391   6.439   4.006   5.961
 7816TIP3   OH223392   2.998   6.343   2.923
 7816TIP3    H123393   3.042   6.388   2.850
 7816TIP3    H223394   3.027   6.391   3.001
 7817TIP3   OH223395   4.970   0.084   3.065
 7817TIP3    H123396   4.901   0.053   3.005
 7817TIP3    H223397   4.944   0.174   3.085
 7818TIP3   OH223398   4.970   7.636   1.670
 7818TIP3    H123399   4.968   7.550   1.712
 7818TIP3    H223400   5.047   7.634   1.614
 7819TIP3   OH223401   2.096   5.535   0.275
 7819TIP3    H123402   2.083   5.614   0.221
 7819TIP3    H223403   2.171   5.491   0.235
 7820TIP3   OH223404   2.844   5.502   4.783
 7820TIP3    H123405   2.849   5.441   4.709
 7820TIP3    H223406   2.902   5.464   4.849
 7821TIP3   OH223407   5.473   7.779   2.582
 7821TIP3    H123408   5.461   7.685   2.567
 7821TIP3    H223409   5.447   7.792   2.673
 7822TIP3   OH223410   5.105   4.132   0.311
 7822TIP3    H123411   5.028   4.092   0.269
 7822TIP3    H223412   5.126   4.073   0.383
 7823TIP3   OH223413   1.642   2.572   0.799
 7823TIP3    H123414   1.590   2.598   0.723
 7823TIP3    H223415   1.732   2.574   0.768
 7824TIP3   OH223416   5.732   3.762   3.091
 7824TIP3    H123417   5.821   3.777   3.060
 7824TIP3    H223418   5.737   3.773   3.186
 7825TIP3   OH223419   8.032   4.770   3.309
 7825TIP3    H123420   7.969   4.700   3.326
 7825TIP3    H223421   8.117   4.727   3.312
 7826TIP3   OH223422   0.904   6.120   3.301
 7826TIP3    H123423   0.830   6.168   3.338
 7826TIP3    H223424   0.934   6.176   3.228
 7827TIP3   OH223425   6.868   6.673   3.112
 7827TIP3    H123426   6.812   6.743   3.145
 7827TIP3    H223427   6.917   6.714   3.040
 7828TIP3   OH223428   7.566   6.287   3.181
 7828TIP3    H123429   7.566   6.303   3.086
 7828TIP3    H223430   7.477   6.309   3.209
 7829TIP3   OH223431   6.453   5.749   5.872
 7829TIP3    H123432   6.503   5.792   5.941
 7829TIP3    H223433   6.503   5.763   5.792
 7830TIP3   OH223434   6.525   4.133   3.829
 7830TIP3    H123435   6.481   4.073   3.889
 7830TIP3    H223436   6.470   4.212   3.829
 7831TIP3   OH223437   3.039   1.165   6.474
 7831TIP3    H123438   3.122   1.209   6.458
 7831TIP3    H223439   3.063   1.072   6.483
 7832TIP3   OH223440   7.532   6.885   5.711
 7832TIP3    H123441   7.595   6.954   5.694
 7832TIP3    H223442   7.450   6.932   5.731
 7833TIP3   OH223443   5.901   5.349   6.589
 7833TIP3    H123444   5.834   5.293   6.630
 7833TIP3    H223445   5.947   5.290   6.529
 7834TIP3   OH223446   0.843   2.343   4.633
 7834TIP3    H123447   0.845   2.285   4.557
 7834TIP3    H223448   0.899   2.301   4.698
 7835TIP3   OH223449   2.917   1.714   6.762
 7835TIP3    H123450   2.857   1.651   6.721
 7835TIP3    H223451   3.001   1.669   6.764
 7836TIP3   OH223452   3.956   7.233   2.829
 7836TIP3    H123453   4.017   7.163   2.806
 7836TIP3    H223454   3.989   7.311   2.785
 7837TIP3   OH223455   5.082   3.760   4.432
 7837TIP3    H123456   5.008   3.702   4.412
 7837TIP3    H223457   5.064   3.839   4.380
 7838TIP3   OH223458   2.306   2.450   1.294
 7838TIP3    H123459   2.297   2.470   1.201
 7838TIP3    H223460   2.342   2.530   1.333
 7839TIP3   OH223461   5.227   7.347   4.638
 7839TIP3    H123462   5.302   7.346   4.579
 7839TIP3    H223463   5.216   7.440   4.660
 7840TIP3   OH223464   1.792   4.942   6.703
 7840TIP3    H123465   1.787   5.038   6.699
 7840TIP3    H223466   1.884   4.922   6.691
 7841TIP3   OH223467   4.363   5.571   4.474
 7841TIP3    H123468   4.319   5.589   4.391
 7841TIP3    H223469   4.409   5.653   4.495
 7842TIP3   OH223470   3.033   6.069   1.953
 7842TIP3    H123471   3.075   6.072   2.039
 7842TIP3    H223472   3.103   6.042   1.893
 7843TIP3   OH223473   6.847   2.900   4.704
 7843TIP3    H123474   6.761   2.859   4.695
 7843TIP3    H223475   6.909   2.827   4.704
 7844TIP3   OH223476   6.008   6.910   6.296
 7844TIP3    H123477   6.010   6.965   6.374
 7844TIP3    H223478   5.957   6.960   6.233
 7845TIP3   OH223479   6.015   0.609   2.147
 7845TIP3    H123480   5.979   0.581   2.232
 7845TIP3    H223481   6.035   0.527   2.101
 7846TIP3   OH223482   2.724   5.956   5.925
 7846TIP3    H123483   2.814   5.959   5.893
 7846TIP3    H223484   2.676   6.015   5.866
 7847TIP3   OH223485   5.051   2.312   4.089
 7847TIP3    H123486   5.120   2.368   4.054
 7847TIP3    H223487   4.972   2.365   4.085
 7848TIP3   OH223488   3.854   6.356   2.030
 7848TIP3    H123489   3.761   6.362   2.009
 7848TIP3    H223490   3.876   6.264   2.017
 7849TIP3   OH223491   0.138   1.363   0.927
 7849TIP3    H123492   0.216   1.410   0.896
 7849TIP3    H223493   0.154   1.350   1.020
 7850TIP3   OH223494   6.962   1.374   0.357
 7850TIP3    H123495   7.017   1.316   0.305
 7850TIP3    H223496   6.872   1.347   0.337
 7851TIP3   OH223497   1.930   7.192   1.351
 7851TIP3    H123498   1.853   7.136   1.360
 7851TIP3    H223499   1.902   7.263   1.293
 7852TIP3   OH223500   1.165   7.180   2.658
 7852TIP3    H123501   1.170   7.246   2.589
 7852TIP3    H223502   1.247   7.191   2.707
 7853TIP3   OH223503   7.426   4.121   6.206
 7853TIP3    H123504   7.464   4.147   6.122
 7853TIP3    H223505   7.331   4.129   6.194
 7854TIP3   OH223506   4.079   0.950   0.940
 7854TIP3    H123507   4.057   0.861   0.914
 7854TIP3    H223508   4.168   0.964   0.905
 7855TIP3   OH223509   6.079   7.704   6.036
 7855TIP3    H123510   6.047   7.747   6.116
 7855TIP3    H223511   6.143   7.640   6.067
 7856TIP3   OH223512   1.688   2.692   2.098
 7856TIP3    H123513   1.738   2.649   2.167
 7856TIP3    H223514   1.739   2.677   2.018
 7857TIP3   OH223515   5.029   3.229   0.598
 7857TIP3    H123516   4.998   3.314   0.566
 7857TIP3    H223517   4.952   3.172   0.590
 7858TIP3   OH223518   7.710   0.704   5.713
 7858TIP3    H123519   7.803   0.681   5.714
 7858TIP3    H223520   7.674   0.651   5.642
 7859TIP3   OH223521   6.749   3.024   4.106
 7859TIP3    H123522   6.752   2.973   4.187
 7859TIP3    H223523   6.787   2.967   4.040
 7860TIP3   OH223524   7.472   1.758   5.675
 7860TIP3    H123525   7.395   1.709   5.703
 7860TIP3    H223526   7.449   1.794   5.590
 7861TIP3   OH223527   8.006   3.107   1.972
 7861TIP3    H123528   8.033   3.065   2.054
 7861TIP3    H223529   8.088   3.127   1.927
 7862TIP3   OH223530   7.613   5.277   5.886
 7862TIP3    H123531   7.642   5.365   5.859
 7862TIP3    H223532   7.552   5.251   5.818
 7863TIP3   OH223533   3.495   6.432   1.175
 7863TIP3    H123534   3.449   6.515   1.179
 7863TIP3    H223535   3.427   6.366   1.183
 7864TIP3   OH223536   5.970   7.003   2.625
 7864TIP3    H123537   5.960   7.060   2.701
 7864TIP3    H223538   6.055   7.025   2.589
 7865TIP3   OH223539   8.048   0.639   1.146
 7865TIP3    H123540   8.001   0.581   1.086
 7865TIP3    H223541   8.030   0.604   1.233
 7866TIP3   OH223542   1.248   2.227   3.223
 7866TIP3    H123543   1.241   2.275   3.305
 7866TIP3    H223544   1.158   2.224   3.189
 7867TIP3   OH223545   0.835   6.740   1.208
 7867TIP3    H123546   0.756   6.718   1.258
 7867TIP3    H223547   0.809   6.815   1.154
 7868TIP3   OH223548   2.027   2.787   0.522
 7868TIP3    H123549   1.943   2.790   0.476
 7868TIP3    H223550   2.012   2.731   0.598
 7869TIP3   OH223551   0.365   7.411   4.624
 7869TIP3    H123552   0.343   7.464   4.547
 7869TIP3    H223553   0.322   7.455   4.697
 7870TIP3   OH223554   0.731   0.387   4.902
 7870TIP3    H123555   0.739   0.477   4.934
 7870TIP3    H223556   0.641   0.362   4.921
 7871TIP3   OH223557   1.422   2.628   3.432
 7871TIP3    H123558   1.376   2.640   3.348
 7871TIP3    H223559   1.513   2.616   3.408
 7872TIP3   OH223560   1.607   7.607   2.757
 7872TIP3    H123561   1.531   7.581   2.706
 7872TIP3    H223562   1.642   7.683   2.710
 7873TIP3   OH223563   7.422   0.226   4.429
 7873TIP3    H123564   7.364   0.174   4.374
 7873TIP3    H223565   7.428   0.176   4.511
 7874TIP3   OH223566   2.522   1.774   0.549
 7874TIP3    H123567   2.450   1.771   0.487
 7874TIP3    H223568   2.482   1.761   0.635
 7875TIP3   OH223569   5.304   4.729   6.037
 7875TIP3    H123570   5.223   4.681   6.018
 7875TIP3    H223571   5.324   4.775   5.955
 7876TIP3   OH223572   2.976   0.508   4.419
 7876TIP3    H123573   3.063   0.491   4.383
 7876TIP3    H223574   2.986   0.589   4.468
 7877TIP3   OH223575   3.142   1.814   5.719
 7877TIP3    H123576   3.215   1.873   5.737
 7877TIP3    H223577   3.165   1.774   5.635
 7878TIP3   OH223578   6.360   7.541   1.552
 7878TIP3    H123579   6.337   7.604   1.620
 7878TIP3    H223580   6.320   7.574   1.472
 7879TIP3   OH223581   3.957   5.904   2.090
 7879TIP3    H123582   4.000   5.989   2.095
 7879TIP3    H223583   3.909   5.896   2.173
 7880TIP3   OH223584   1.060   5.690   4.096
 7880TIP3    H123585   1.011   5.770   4.115
 7880TIP3    H223586   1.049   5.678   4.002
 7881TIP3   OH223587   4.825   3.769   6.606
 7881TIP3    H123588   4.800   3.786   6.697
 7881TIP3    H223589   4.883   3.693   6.611
 7882TIP3   OH223590   5.061   6.164   1.764
 7882TIP3    H123591   5.000   6.198   1.829
 7882TIP3    H223592   5.015   6.090   1.725
 7883TIP3   OH223593   3.520   6.457   0.385
 7883TIP3    H123594   3.473   6.427   0.308
 7883TIP3    H223595   3.573   6.382   0.412
 7884TIP3   OH223596   0.682   3.997   4.643
 7884TIP3    H123597   0.775   3.987   4.664
 7884TIP3    H223598   0.666   3.935   4.572
 7885TIP3   OH223599   1.230   7.124   3.455
 7885TIP3    H123600   1.289   7.199   3.450
 7885TIP3    H223601   1.195   7.127   3.544
 7886TIP3   OH223602   1.632   5.786   3.492
 7886TIP3    H123603   1.716   5.758   3.527
 7886TIP3    H223604   1.654   5.853   3.427
 7887TIP3   OH223605   2.266   6.911   0.082
 7887TIP3    H123606   2.252   7.002   0.057
 7887TIP3    H223607   2.302   6.870   0.004
 7888TIP3   OH223608   6.498   0.292   2.673
 7888TIP3    H123609   6.486   0.381   2.640
 7888TIP3    H223610   6.438   0.239   2.622
 7889TIP3   OH223611   8.048   2.411   2.775
 7889TIP3    H123612   8.115   2.350   2.807
 7889TIP3    H223613   7.974   2.398   2.834
 7890TIP3   OH223614   4.323   4.753   1.773
 7890TIP3    H123615   4.320   4.827   1.713
 7890TIP3    H223616   4.397   4.772   1.831
 7891TIP3   OH223617   7.741   0.154   6.740
 7891TIP3    H123618   7.784   0.238   6.759
 7891TIP3    H223619   7.773   0.095   6.807
 7892TIP3   OH223620   3.631   6.326   1.888
 7892TIP3    H123621   3.571   6.321   1.814
 7892TIP3    H223622   3.682   6.246   1.883
 7893TIP3   OH223623   2.958   4.936   1.925
 7893TIP3    H123624   2.991   5.021   1.952
 7893TIP3    H223625   2.894   4.955   1.856
 7894TIP3   OH223626   4.258   5.754   5.204
 7894TIP3    H123627   4.188   5.712   5.255
 7894TIP3    H223628   4.325   5.686   5.194
 7895TIP3   OH223629   3.546   2.960   6.169
 7895TIP3    H123630   3.604   2.892   6.135
 7895TIP3    H223631   3.551   3.031   6.105
 7896TIP3   OH223632   2.673   0.782   4.227
 7896TIP3    H123633   2.580   0.802   4.214
 7896TIP3    H223634   2.684   0.779   4.322
 7897TIP3   OH223635   7.801   4.081   0.169
 7897TIP3    H123636   7.845   4.162   0.142
 7897TIP3    H223637   7.721   4.110   0.211
 7898TIP3   OH223638   4.677   1.741   5.718
 7898TIP3    H123639   4.772   1.749   5.705
 7898TIP3    H223640   4.661   1.647   5.728
 7899TIP3   OH223641   1.114   1.858   4.442
 7899TIP3    H123642   1.204   1.881   4.419
 7899TIP3    H223643   1.112   1.762   4.443
 7900TIP3   OH223644   7.475   5.013   2.928
 7900TIP3    H123645   7.552   4.990   2.875
 7900TIP3    H223646   7.446   5.097   2.892
 7901TIP3   OH223647   0.127   0.095   1.909
 7901TIP3    H123648   0.097   0.124   1.995
 7901TIP3    H223649   0.214   0.133   1.900
 7902TIP3   OH223650   6.668   2.785   0.956
 7902TIP3    H123651   6.716   2.772   0.874
 7902TIP3    H223652   6.722   2.846   1.006
 7903TIP3   OH223653   3.550   6.322   4.953
 7903TIP3    H123654   3.533   6.338   4.860
 7903TIP3    H223655   3.539   6.407   4.995
 7904TIP3   OH223656   5.635   6.379   2.280
 7904TIP3    H123657   5.660   6.462   2.320
 7904TIP3    H223658   5.705   6.360   2.218
 7905TIP3   OH223659   6.062   6.784   1.672
 7905TIP3    H123660   6.124   6.745   1.611
 7905TIP3    H223661   6.096   6.761   1.759
 7906TIP3   OH223662   0.040   7.371   4.990
 7906TIP3    H123663   0.011   7.445   4.936
 7906TIP3    H223664   0.019   7.397   5.080
 7907TIP3   OH223665   6.271   5.159   1.476
 7907TIP3    H123666   6.309   5.176   1.562
 7907TIP3    H223667   6.222   5.078   1.486
 7908TIP3   OH223668   0.406   1.103   4.633
 7908TIP3    H123669   0.381   1.194   4.649
 7908TIP3    H223670   0.340   1.051   4.678
 7909TIP3   OH223671   5.034   4.868   4.070
 7909TIP3    H123672   5.103   4.817   4.112
 7909TIP3    H223673   5.080   4.927   4.011
 7910TIP3   OH223674   3.510   5.882   1.899
 7910TIP3    H123675   3.520   5.840   1.814
 7910TIP3    H223676   3.575   5.953   1.898
 7911TIP3   OH223677   7.068   7.235   5.036
 7911TIP3    H123678   7.103   7.311   4.990
 7911TIP3    H223679   6.990   7.210   4.986
 7912TIP3   OH223680   6.465   2.269   5.472
 7912TIP3    H123681   6.483   2.356   5.437
 7912TIP3    H223682   6.412   2.285   5.550
 7913TIP3   OH223683   6.368   1.106   6.120
 7913TIP3    H123684   6.330   1.167   6.183
 7913TIP3    H223685   6.297   1.046   6.098
 7914TIP3   OH223686   4.154   6.153   3.732
 7914TIP3    H123687   4.226   6.095   3.705
 7914TIP3    H223688   4.101   6.163   3.653
 7915TIP3   OH223689   2.922   0.782   5.279
 7915TIP3    H123690   2.844   0.804   5.228
 7915TIP3    H223691   2.888   0.738   5.358
 7916TIP3   OH223692   6.265   5.567   0.908
 7916TIP3    H123693   6.283   5.492   0.851
 7916TIP3    H223694   6.312   5.548   0.988
 7917TIP3   OH223695   7.914   3.741   0.797
 7917TIP3    H123696   7.832   3.771   0.757
 7917TIP3    H223697   7.941   3.813   0.853
 7918TIP3   OH223698   3.764   2.367   4.323
 7918TIP3    H123699   3.689   2.365   4.383
 7918TIP3    H223700   3.733   2.322   4.245
 7919TIP3   OH223701   5.156   0.900   5.816
 7919TIP3    H123702   5.190   0.881   5.728
 7919TIP3    H223703   5.234   0.897   5.872
 7920TIP3   OH223704   7.837   7.417   1.718
 7920TIP3    H123705   7.793   7.429   1.633
 7920TIP3    H223706   7.916   7.471   1.712
 7921TIP3   OH223707   2.693   1.823   6.539
 7921TIP3    H123708   2.696   1.833   6.634
 7921TIP3    H223709   2.608   1.784   6.521
 7922TIP3   OH223710   4.859   4.156   2.675
 7922TIP3    H123711   4.923   4.208   2.723
 7922TIP3    H223712   4.898   4.143   2.589
 7923TIP3   OH223713   2.824   7.285   4.183
 7923TIP3    H123714   2.882   7.341   4.234
 7923TIP3    H223715   2.771   7.346   4.132
 7924TIP3   OH223716   8.117   7.207   6.676
 7924TIP3    H123717   8.195   7.232   6.726
 7924TIP3    H223718   8.118   7.112   6.674
 7925TIP3   OH223719   4.950   6.953   5.975
 7925TIP3    H123720   5.030   7.005   5.979
 7925TIP3    H223721   4.913   6.972   5.889
 7926TIP3   OH223722   5.176   5.867   2.429
 7926TIP3    H123723   5.204   5.941   2.483
 7926TIP3    H223724   5.189   5.790   2.485
 7927TIP3   OH223725   3.250   5.237   1.790
 7927TIP3    H123726   3.288   5.154   1.818
 7927TIP3    H223727   3.212   5.275   1.869
 7928TIP3   OH223728   6.338   4.428   4.754
 7928TIP3    H123729   6.410   4.366   4.744
 7928TIP3    H223730   6.303   4.439   4.666
 7929TIP3   OH223731   1.792   6.501   4.291
 7929TIP3    H123732   1.876   6.482   4.333
 7929TIP3    H223733   1.733   6.432   4.321
 7930TIP3   OH223734   2.147   2.031   2.845
 7930TIP3    H123735   2.120   2.082   2.921
 7930TIP3    H223736   2.239   2.055   2.831
 7931TIP3   OH223737   2.947   3.260   0.664
 7931TIP3    H123738   2.904   3.185   0.705
 7931TIP3    H223739   3.030   3.269   0.711
 7932TIP3   OH223740   2.543   1.452   0.879
 7932TIP3    H123741   2.449   1.448   0.857
 7932TIP3    H223742   2.586   1.465   0.795
 7933TIP3   OH223743   5.955   4.948   1.321
 7933TIP3    H123744   6.011   4.920   1.393
 7933TIP3    H223745   5.910   5.026   1.356
 7934TIP3   OH223746   6.388   5.103   2.439
 7934TIP3    H123747   6.403   5.035   2.506
 7934TIP3    H223748   6.294   5.120   2.444
 7935TIP3   OH223749   3.384   1.731   0.706
 7935TIP3    H123750   3.396   1.650   0.656
 7935TIP3    H223751   3.294   1.726   0.737
 7936TIP3   OH223752   7.471   0.030  -0.032
 7936TIP3    H123753   7.468   0.022   0.063
 7936TIP3    H223754   7.533   0.100  -0.049
 7937TIP3   OH223755   7.101   1.566   0.242
 7937TIP3    H123756   7.026   1.615   0.209
 7937TIP3    H223757   7.064   1.501   0.301
 7938TIP3   OH223758   6.053   3.032   3.172
 7938TIP3    H123759   5.998   2.966   3.130
 7938TIP3    H223760   6.000   3.064   3.245
 7939TIP3   OH223761   1.155   4.911   2.088
 7939TIP3    H123762   1.131   4.819   2.081
 7939TIP3    H223763   1.214   4.916   2.164
 7940TIP3   OH223764   6.686   1.153   6.139
 7940TIP3    H123765   6.667   1.245   6.158
 7940TIP3    H223766   6.600   1.112   6.132
 7941TIP3   OH223767   3.034   6.557   6.548
 7941TIP3    H123768   3.058   6.566   6.455
 7941TIP3    H223769   3.102   6.606   6.594
 7942TIP3   OH223770   4.116   3.459   6.406
 7942TIP3    H123771   4.197   3.493   6.368
 7942TIP3    H223772   4.145   3.409   6.483
 7943TIP3   OH223773   0.215   6.112   1.662
 7943TIP3    H123774   0.281   6.080   1.723
 7943TIP3    H223775   0.226   6.057   1.584
 7944TIP3   OH223776   1.864   3.432   4.972
 7944TIP3    H123777   1.919   3.366   4.930
 7944TIP3    H223778   1.857   3.403   5.063
 7945TIP3   OH223779   4.193   6.566   1.274
 7945TIP3    H123780   4.235   6.600   1.195
 7945TIP3    H223781   4.111   6.526   1.242
 7946TIP3   OH223782   4.217   7.189   3.564
 7946TIP3    H123783   4.205   7.254   3.495
 7946TIP3    H223784   4.201   7.105   3.521
 7947TIP3   OH223785   7.291   6.238   6.479
 7947TIP3    H123786   7.280   6.290   6.400
 7947TIP3    H223787   7.224   6.170   6.473
 7948TIP3   OH223788   4.298   7.276   5.355
 7948TIP3    H123789   4.244   7.217   5.303
 7948TIP3    H223790   4.265   7.363   5.335
 7949TIP3   OH223791   2.515   5.003   2.896
 7949TIP3    H123792   2.539   5.082   2.847
 7949TIP3    H223793   2.502   5.034   2.986
 7950TIP3   OH223794   0.869   5.330   2.081
 7950TIP3    H123795   0.883   5.236   2.069
 7950TIP3    H223796   0.778   5.345   2.057
 7951TIP3   OH223797   6.400   5.866   0.637
 7951TIP3    H123798   6.322   5.862   0.693
 7951TIP3    H223799   6.368   5.841   0.550
 7952TIP3   OH223800   5.708   2.379   2.622
 7952TIP3    H123801   5.658   2.376   2.703
 7952TIP3    H223802   5.799   2.373   2.650
 7953TIP3   OH223803   5.894   7.429   3.778
 7953TIP3    H123804   5.964   7.475   3.732
 7953TIP3    H223805   5.937   7.393   3.856
 7954TIP3   OH223806   3.279   1.547   1.045
 7954TIP3    H123807   3.243   1.496   0.972
 7954TIP3    H223808   3.309   1.481   1.108
 7955TIP3   OH223809   3.837   5.949   5.390
 7955TIP3    H123810   3.920   5.922   5.430
 7955TIP3    H223811   3.830   6.042   5.411
 7956TIP3   OH223812   6.271   3.046   1.968
 7956TIP3    H123813   6.262   2.974   1.906
 7956TIP3    H223814   6.322   3.112   1.922
 7957TIP3   OH223815   3.943   2.852   6.488
 7957TIP3    H123816   3.917   2.819   6.402
 7957TIP3    H223817   4.038   2.853   6.486
 7958TIP3   OH223818   2.614   7.334   6.589
 7958TIP3    H123819   2.593   7.419   6.628
 7958TIP3    H223820   2.556   7.327   6.514
 7959TIP3   OH223821   6.890   3.177   4.768
 7959TIP3    H123822   6.827   3.151   4.701
 7959TIP3    H223823   6.957   3.108   4.765
 7960TIP3   OH223824   3.178   1.725   1.350
 7960TIP3    H123825   3.105   1.763   1.398
 7960TIP3    H223826   3.150   1.636   1.329
 7961TIP3   OH223827   0.985   4.470   5.164
 7961TIP3    H123828   0.916   4.404   5.166
 7961TIP3    H223829   0.993   4.493   5.071
 7962TIP3   OH223830   7.583   6.772   2.713
 7962TIP3    H123831   7.624   6.763   2.627
 7962TIP3    H223832   7.586   6.866   2.732
 7963TIP3   OH223833   2.175   1.963   1.987
 7963TIP3    H123834   2.224   1.976   2.068
 7963TIP3    H223835   2.100   1.909   2.013
 7964TIP3   OH223836   6.124   2.201   0.106
 7964TIP3    H123837   6.041   2.213   0.152
 7964TIP3    H223838   6.147   2.289   0.076
 7965TIP3   OH223839   4.434   4.936   5.915
 7965TIP3    H123840   4.498   4.927   5.845
 7965TIP3    H223841   4.452   4.864   5.975
 7966TIP3   OH223842   5.466   5.406   1.933
 7966TIP3    H123843   5.424   5.354   2.001
 7966TIP3    H223844   5.398   5.420   1.867
 7967TIP3   OH223845   1.136   6.813   0.712
 7967TIP3    H123846   1.193   6.738   0.730
 7967TIP3    H223847   1.059   6.774   0.670
 7968TIP3   OH223848   2.081   1.522   0.514
 7968TIP3    H123849   2.156   1.464   0.502
 7968TIP3    H223850   2.064   1.558   0.427
 7969TIP3   OH223851   5.963   3.899   4.250
 7969TIP3    H123852   5.968   3.983   4.295
 7969TIP3    H223853   6.055   3.872   4.241
 7970TIP3   OH223854   6.318   0.660   3.992
 7970TIP3    H123855   6.352   0.643   3.904
 7970TIP3    H223856   6.365   0.599   4.048
 7971TIP3   OH223857   7.552   6.161   6.450
 7971TIP3    H123858   7.460   6.132   6.454
 7971TIP3    H223859   7.589   6.131   6.533
 7972TIP3   OH223860   3.432   0.019   1.122
 7972TIP3    H123861   3.384   0.030   1.040
 7972TIP3    H223862   3.519   0.054   1.104
 7973TIP3   OH223863   0.967   0.411   1.653
 7973TIP3    H123864   0.881   0.397   1.693
 7973TIP3    H223865   1.011   0.326   1.660
 7974TIP3   OH223866   8.172   4.544   2.822
 7974TIP3    H123867   8.199   4.608   2.888
 7974TIP3    H223868   8.198   4.459   2.858
 7975TIP3   OH223869   4.804   5.782   0.205
 7975TIP3    H123870   4.849   5.848   0.259
 7975TIP3    H223871   4.806   5.703   0.259
 7976TIP3   OH223872   7.975   0.041   1.695
 7976TIP3    H123873   7.898   0.074   1.649
 7976TIP3    H223874   8.014   0.119   1.735
 7977TIP3   OH223875   8.026   7.414   3.185
 7977TIP3    H123876   7.985   7.493   3.148
 7977TIP3    H223877   8.089   7.387   3.119
 7978TIP3   OH223878   3.693   2.800   5.987
 7978TIP3    H123879   3.651   2.851   5.918
 7978TIP3    H223880   3.741   2.732   5.942
 7979TIP3   OH223881   5.491   2.267   3.466
 7979TIP3    H123882   5.431   2.320   3.518
 7979TIP3    H223883   5.436   2.200   3.426
 7980TIP3   OH223884   5.371   3.154   2.671
 7980TIP3    H123885   5.405   3.214   2.737
 7980TIP3    H223886   5.421   3.173   2.592
 7981TIP3   OH223887   5.540   5.023   6.514
 7981TIP3    H123888   5.487   5.059   6.443
 7981TIP3    H223889   5.507   5.066   6.593
 7982TIP3   OH223890   7.328   1.137   2.639
 7982TIP3    H123891   7.343   1.204   2.706
 7982TIP3    H223892   7.414   1.096   2.627
 7983TIP3   OH223893   7.157   4.874   0.910
 7983TIP3    H123894   7.184   4.803   0.851
 7983TIP3    H223895   7.234   4.889   0.965
 7984TIP3   OH223896   4.589   6.885   0.814
 7984TIP3    H123897   4.627   6.972   0.826
 7984TIP3    H223898   4.657   6.825   0.845
 7985TIP3   OH223899   2.632   7.423   2.220
 7985TIP3    H123900   2.692   7.457   2.153
 7985TIP3    H223901   2.561   7.487   2.223
 7986TIP3   OH223902   1.122   4.192   5.057
 7986TIP3    H123903   1.161   4.270   5.097
 7986TIP3    H223904   1.182   4.168   4.986
 7987TIP3   OH223905   7.963   4.957   6.817
 7987TIP3    H123906   7.905   5.030   6.794
 7987TIP3    H223907   8.051   4.992   6.808
 7988TIP3   OH223908   5.193   2.145   6.413
 7988TIP3    H123909   5.246   2.074   6.450
 7988TIP3    H223910   5.190   2.127   6.319
 7989TIP3   OH223911   0.672   5.142   6.463
 7989TIP3    H123912   0.759   5.154   6.499
 7989TIP3    H223913   0.687   5.118   6.372
 7990TIP3   OH223914   2.542   2.765   3.066
 7990TIP3    H123915   2.532   2.672   3.089
 7990TIP3    H223916   2.547   2.765   2.970
 7991TIP3   OH223917   7.730   5.258   1.538
 7991TIP3    H123918   7.680   5.178   1.518
 7991TIP3    H223919   7.731   5.261   1.634
 7992TIP3   OH223920   3.338   2.019   5.193
 7992TIP3    H123921   3.270   2.000   5.129
 7992TIP3    H223922   3.407   2.062   5.143
 7993TIP3   OH223923   5.912   0.763   3.724
 7993TIP3    H123924   5.869   0.822   3.662
 7993TIP3    H223925   6.003   0.761   3.697
 7994TIP3   OH223926   1.303   6.732   6.243
 7994TIP3    H123927   1.341   6.705   6.159
 7994TIP3    H223928   1.353   6.810   6.267
 7995TIP3   OH223929   6.964   2.279   2.677
 7995TIP3    H123930   6.923   2.252   2.594
 7995TIP3    H223931   7.050   2.312   2.651
 7996TIP3   OH223932   3.235   5.683   0.042
 7996TIP3    H123933   3.277   5.684   0.128
 7996TIP3    H223934   3.197   5.770   0.032
 7997TIP3   OH223935   0.506   1.111   3.969
 7997TIP3    H123936   0.470   1.133   4.055
 7997TIP3    H223937   0.578   1.173   3.956
 7998TIP3   OH223938   3.936   1.047   4.652
 7998TIP3    H123939   3.988   0.968   4.659
 7998TIP3    H223940   3.934   1.083   4.740
 7999TIP3   OH223941   6.040   1.836   2.324
 7999TIP3    H123942   6.094   1.899   2.373
 7999TIP3    H223943   6.087   1.753   2.334
 8000TIP3   OH223944   1.154   2.173   0.862
 8000TIP3    H123945   1.110   2.131   0.936
 8000TIP3    H223946   1.178   2.101   0.803
 8001TIP3   OH223947   0.806   0.764   0.290
 8001TIP3    H123948   0.766   0.841   0.330
 8001TIP3    H223949   0.860   0.726   0.359
 8002TIP3   OH223950   0.999   6.874   6.552
 8002TIP3    H123951   0.909   6.871   6.519
 8002TIP3    H223952   1.002   6.954   6.605
 8003TIP3   OH223953   5.945   4.307   3.708
 8003TIP3    H123954   5.930   4.324   3.801
 8003TIP3    H223955   6.027   4.351   3.688
 8004TIP3   OH223956   5.785   2.926   3.489
 8004TIP3    H123957   5.764   2.854   3.429
 8004TIP3    H223958   5.769   2.889   3.576
 8005TIP3   OH223959   5.750   7.345   2.970
 8005TIP3    H123960   5.759   7.255   2.940
 8005TIP3    H223961   5.803   7.397   2.909
 8006TIP3   OH223962   6.306   7.206   5.803
 8006TIP3    H123963   6.272   7.242   5.885
 8006TIP3    H223964   6.244   7.234   5.736
 8007TIP3   OH223965   3.252   0.523   4.140
 8007TIP3    H123966   3.159   0.547   4.144
 8007TIP3    H223967   3.296   0.590   4.192
 8008TIP3   OH223968   0.616   6.051   4.055
 8008TIP3    H123969   0.573   6.133   4.029
 8008TIP3    H223970   0.707   6.061   4.027
 8009TIP3   OH223971   6.441   5.455   6.685
 8009TIP3    H123972   6.432   5.477   6.778
 8009TIP3    H223973   6.526   5.493   6.660
 8010TIP3   OH223974   7.492   0.781   6.555
 8010TIP3    H123975   7.436   0.706   6.579
 8010TIP3    H223976   7.581   0.744   6.553
 8011TIP3   OH223977   5.726   0.181   0.549
 8011TIP3    H123978   5.821   0.174   0.558
 8011TIP3    H223979   5.694   0.091   0.556
 8012TIP3   OH223980   3.044   5.291   4.819
 8012TIP3    H123981   3.064   5.327   4.906
 8012TIP3    H223982   3.124   5.244   4.794
 8013TIP3   OH223983   1.249   6.866   2.112
 8013TIP3    H123984   1.255   6.780   2.071
 8013TIP3    H223985   1.192   6.853   2.187
 8014TIP3   OH223986   5.960   5.227   4.539
 8014TIP3    H123987   5.940   5.138   4.567
 8014TIP3    H223988   5.875   5.272   4.541
 8015TIP3   OH223989   7.642   6.145   2.032
 8015TIP3    H123990   7.604   6.232   2.047
 8015TIP3    H223991   7.696   6.128   2.109
 8016TIP3   OH223992   1.951   3.785   1.235
 8016TIP3    H123993   1.976   3.875   1.254
 8016TIP3    H223994   1.961   3.777   1.140
 8017TIP3   OH223995   3.223   3.130   5.780
 8017TIP3    H123996   3.233   3.124   5.875
 8017TIP3    H223997   3.310   3.156   5.749
 8018TIP3   OH223998   2.221   3.857   3.480
 8018TIP3    H123999   2.206   3.899   3.565
 8018TIP3    H224000   2.140   3.810   3.461
 8019TIP3   OH224001   3.210   5.725   5.517
 8019TIP3    H124002   3.119   5.723   5.489
 8019TIP3    H224003   3.237   5.816   5.505
 8020TIP3   OH224004   2.538   0.473   0.556
 8020TIP3    H124005   2.518   0.457   0.648
 8020TIP3    H224006   2.631   0.454   0.548
 8021TIP3   OH224007   2.862   0.406   3.122
 8021TIP3    H124008   2.857   0.348   3.046
 8021TIP3    H224009   2.850   0.348   3.197
 8022TIP3   OH224010   5.704   1.809   5.163
 8022TIP3    H124011   5.704   1.854   5.247
 8022TIP3    H224012   5.778   1.748   5.169
 8023TIP3   OH224013   6.888   6.048   5.391
 8023TIP3    H124014   6.848   6.051   5.303
 8023TIP3    H224015   6.814   6.056   5.451
 8024TIP3   OH224016   0.591   4.445   1.193
 8024TIP3    H124017   0.523   4.385   1.164
 8024TIP3    H224018   0.657   4.389   1.234
 8025TIP3   OH224019   1.126   7.661   6.342
 8025TIP3    H124020   1.136   7.746   6.298
 8025TIP3    H224021   1.122   7.683   6.435
 8026TIP3   OH224022   2.045   4.034   5.020
 8026TIP3    H124023   2.030   4.118   4.976
 8026TIP3    H224024   2.022   3.969   4.954
 8027TIP3   OH224025   0.662   2.698   3.523
 8027TIP3    H124026   0.588   2.669   3.576
 8027TIP3    H224027   0.627   2.771   3.472
 8028TIP3   OH224028   1.130   2.495   1.292
 8028TIP3    H124029   1.143   2.483   1.198
 8028TIP3    H224030   1.218   2.501   1.328
 8029TIP3   OH224031   0.935   0.014   1.917
 8029TIP3    H124032   0.985  -0.022   1.844
 8029TIP3    H224033   1.001   0.030   1.985
 8030TIP3   OH224034   5.090   0.674   0.805
 8030TIP3    H124035   4.995   0.667   0.816
 8030TIP3    H224036   5.102   0.696   0.713
 8031TIP3   OH224037   7.353   5.357   0.344
 8031TIP3    H124038   7.350   5.410   0.424
 8031TIP3    H224039   7.331   5.269   0.373
 8032TIP3   OH224040  -0.034   4.082   2.056
 8032TIP3    H124041   0.018   4.139   2.112
 8032TIP3    H224042   0.020   4.003   2.046
 8033TIP3   OH224043   5.219   4.074   1.711
 8033TIP3    H124044   5.232   4.162   1.676
 8033TIP3    H224045   5.144   4.082   1.770
 8034TIP3   OH224046   7.883   0.544   3.888
 8034TIP3    H124047   7.975   0.571   3.888
 8034TIP3    H224048   7.879   0.474   3.954
 8035TIP3   OH224049   2.446   1.353   6.483
 8035TIP3    H124050   2.391   1.412   6.431
 8035TIP3    H224051   2.534   1.362   6.445
 8036TIP3   OH224052   5.551   2.581   3.939
 8036TIP3    H124053   5.606   2.647   3.981
 8036TIP3    H224054   5.468   2.627   3.922
 8037TIP3   OH224055   2.592   1.247   6.696
 8037TIP3    H124056   2.542   1.282   6.622
 8037TIP3    H224057   2.527   1.204   6.751
 8038TIP3   OH224058   0.176   7.002   3.002
 8038TIP3    H124059   0.237   6.975   3.071
 8038TIP3    H224060   0.202   6.949   2.926
 8039TIP3   OH224061   1.966   3.753   3.422
 8039TIP3    H124062   1.949   3.688   3.354
 8039TIP3    H224063   1.912   3.828   3.397
 8040TIP3   OH224064   1.277   3.658   2.558
 8040TIP3    H124065   1.212   3.632   2.623
 8040TIP3    H224066   1.240   3.631   2.475
 8041TIP3   OH224067   0.985   2.339   5.607
 8041TIP3    H124068   1.042   2.415   5.593
 8041TIP3    H224069   0.965   2.342   5.700
 8042TIP3   OH224070   0.277   2.419   2.848
 8042TIP3    H124071   0.268   2.442   2.756
 8042TIP3    H224072   0.346   2.352   2.849
 8043TIP3   OH224073   6.587   2.188   0.204
 8043TIP3    H124074   6.598   2.107   0.155
 8043TIP3    H224075   6.662   2.190   0.263
 8044TIP3   OH224076   1.090   4.421   0.425
 8044TIP3    H124077   1.004   4.430   0.465
 8044TIP3    H224078   1.082   4.348   0.364
 8045TIP3   OH224079   2.242   0.844   0.706
 8045TIP3    H124080   2.295   0.883   0.776
 8045TIP3    H224081   2.226   0.754   0.735
 8046TIP3   OH224082   7.138   1.327   4.218
 8046TIP3    H124083   7.227   1.351   4.193
 8046TIP3    H224084   7.086   1.345   4.140
 8047TIP3   OH224085   3.786   5.516   4.708
 8047TIP3    H124086   3.839   5.440   4.733
 8047TIP3    H224087   3.716   5.518   4.773
 8048TIP3   OH224088   5.514   6.328   3.244
 8048TIP3    H124089   5.435   6.285   3.211
 8048TIP3    H224090   5.522   6.298   3.334
 8049TIP3   OH224091   6.723   3.826   0.201
 8049TIP3    H124092   6.689   3.736   0.200
 8049TIP3    H224093   6.652   3.878   0.162
 8050TIP3   OH224094   0.223   3.902   2.796
 8050TIP3    H124095   0.316   3.883   2.788
 8050TIP3    H224096   0.218   3.963   2.870
 8051TIP3   OH224097   4.082   2.113   0.250
 8051TIP3    H124098   4.163   2.165   0.253
 8051TIP3    H224099   4.014   2.176   0.225
 8052TIP3   OH224100   0.464   2.178   3.007
 8052TIP3    H124101   0.515   2.165   3.088
 8052TIP3    H224102   0.390   2.119   3.016
 8053TIP3   OH224103   6.796   5.599   1.683
 8053TIP3    H124104   6.766   5.529   1.626
 8053TIP3    H224105   6.766   5.680   1.641
 8054TIP3   OH224106   3.190   7.077   1.547
 8054TIP3    H124107   3.154   6.992   1.570
 8054TIP3    H224108   3.261   7.057   1.485
 8055TIP3   OH224109   5.562   4.743   3.161
 8055TIP3    H124110   5.567   4.838   3.174
 8055TIP3    H224111   5.646   4.720   3.121
 8056TIP3   OH224112   2.700   0.672   1.398
 8056TIP3    H124113   2.667   0.740   1.340
 8056TIP3    H224114   2.644   0.677   1.476
 8057TIP3   OH224115   1.812   1.014   4.460
 8057TIP3    H124116   1.906   0.996   4.470
 8057TIP3    H224117   1.788   0.971   4.379
 8058TIP3   OH224118   7.305   5.196   5.902
 8058TIP3    H124119   7.321   5.188   5.996
 8058TIP3    H224120   7.210   5.186   5.893
 8059TIP3   OH224121   6.378   5.086   6.043
 8059TIP3    H124122   6.345   5.146   6.110
 8059TIP3    H224123   6.302   5.068   5.989
 8060TIP3   OH224124   5.643   2.740   3.055
 8060TIP3    H124125   5.673   2.763   2.968
 8060TIP3    H224126   5.720   2.749   3.111
 8061TIP3   OH224127   6.748   3.332   5.446
 8061TIP3    H124128   6.803   3.408   5.466
 8061TIP3    H224129   6.807   3.270   5.404
 8062TIP3   OH224130   0.990   6.386   1.263
 8062TIP3    H124131   0.960   6.348   1.345
 8062TIP3    H224132   1.079   6.415   1.281
 8063TIP3   OH224133   6.753   0.027   5.992
 8063TIP3    H124134   6.739  -0.037   6.060
 8063TIP3    H224135   6.833  -0.002   5.947
 8064TIP3   OH224136   4.569   2.497   6.576
 8064TIP3    H124137   4.587   2.556   6.650
 8064TIP3    H224138   4.570   2.554   6.499
 8065TIP3   OH224139   6.929   2.241   0.309
 8065TIP3    H124140   6.942   2.336   0.303
 8065TIP3    H224141   6.849   2.231   0.362
 8066TIP3   OH224142   7.375   4.154   1.735
 8066TIP3    H124143   7.442   4.089   1.714
 8066TIP3    H224144   7.392   4.177   1.827
 8067TIP3   OH224145   1.901   3.207   2.531
 8067TIP3    H124146   1.846   3.279   2.501
 8067TIP3    H224147   1.963   3.192   2.459
 8068TIP3   OH224148   7.141   4.687   4.471
 8068TIP3    H124149   7.183   4.764   4.432
 8068TIP3    H224150   7.066   4.722   4.519
 8069TIP3   OH224151   3.438   7.394   3.027
 8069TIP3    H124152   3.524   7.394   2.984
 8069TIP3    H224153   3.435   7.310   3.073
 8070TIP3   OH224154   3.836   6.489   6.766
 8070TIP3    H124155   3.875   6.475   6.852
 8070TIP3    H224156   3.893   6.554   6.724
 8071TIP3   OH224157   4.320   6.011   0.670
 8071TIP3    H124158   4.372   5.963   0.605
 8071TIP3    H224159   4.230   5.986   0.652
 8072TIP3   OH224160   2.053   0.868   0.240
 8072TIP3    H124161   2.019   0.955   0.221
 8072TIP3    H224162   2.109   0.880   0.317
 8073TIP3   OH224163   3.372   4.078   4.769
 8073TIP3    H124164   3.336   4.153   4.720
 8073TIP3    H224165   3.298   4.047   4.822
 8074TIP3   OH224166   0.835   1.782   3.100
 8074TIP3    H124167   0.844   1.692   3.066
 8074TIP3    H224168   0.798   1.831   3.027
 8075TIP3   OH224169   6.363   3.404   2.396
 8075TIP3    H124170   6.335   3.489   2.362
 8075TIP3    H224171   6.282   3.359   2.419
 8076TIP3   OH224172   0.460   3.960   6.534
 8076TIP3    H124173   0.385   3.918   6.490
 8076TIP3    H224174   0.526   3.891   6.538
 8077TIP3   OH224175   0.111   0.238   0.602
 8077TIP3    H124176   0.123   0.325   0.642
 8077TIP3    H224177   0.105   0.179   0.677
 8078TIP3   OH224178   5.590   7.075   6.298
 8078TIP3    H124179   5.515   7.090   6.241
 8078TIP3    H224180   5.600   7.158   6.346
 8079TIP3   OH224181   3.693   1.622   0.187
 8079TIP3    H124182   3.642   1.703   0.194
 8079TIP3    H224183   3.752   1.625   0.263
 8080TIP3   OH224184   1.511   4.352   0.325
 8080TIP3    H124185   1.434   4.378   0.375
 8080TIP3    H224186   1.585   4.382   0.378
 8081TIP3   OH224187   5.602   5.964   2.118
 8081TIP3    H124188   5.539   5.999   2.180
 8081TIP3    H224189   5.636   6.041   2.071
 8082TIP3   OH224190   3.478   3.204   2.058
 8082TIP3    H124191   3.475   3.112   2.031
 8082TIP3    H224192   3.571   3.224   2.065
 8083TIP3   OH224193   7.489   4.457   6.332
 8083TIP3    H124194   7.499   4.412   6.416
 8083TIP3    H224195   7.400   4.435   6.303
 8084TIP3   OH224196   3.165   5.089   1.581
 8084TIP3    H124197   3.176   5.126   1.669
 8084TIP3    H224198   3.254   5.086   1.545
 8085TIP3   OH224199   5.046   7.664   5.180
 8085TIP3    H124200   4.987   7.737   5.197
 8085TIP3    H224201   5.049   7.616   5.263
 8086TIP3   OH224202   1.822   0.834   3.483
 8086TIP3    H124203   1.897   0.842   3.542
 8086TIP3    H224204   1.790   0.745   3.497
 8087TIP3   OH224205   4.764   0.558   5.528
 8087TIP3    H124206   4.759   0.541   5.434
 8087TIP3    H224207   4.726   0.480   5.568
 8088TIP3   OH224208   8.144   4.145   0.367
 8088TIP3    H124209   8.159   4.198   0.444
 8088TIP3    H224210   8.066   4.183   0.326
 8089TIP3   OH224211   8.011   5.851   0.856
 8089TIP3    H124212   7.992   5.830   0.947
 8089TIP3    H224213   7.944   5.915   0.832
 8090TIP3   OH224214   4.925   6.658   5.161
 8090TIP3    H124215   4.877   6.717   5.219
 8090TIP3    H224216   4.917   6.572   5.202
 8091TIP3   OH224217   0.154   5.882   6.392
 8091TIP3    H124218   0.163   5.803   6.446
 8091TIP3    H224219   0.141   5.848   6.303
 8092TIP3   OH224220   3.253   2.824   4.678
 8092TIP3    H124221   3.295   2.757   4.732
 8092TIP3    H224222   3.317   2.842   4.609
 8093TIP3   OH224223   5.476   3.180   6.681
 8093TIP3    H124224   5.412   3.120   6.643
 8093TIP3    H224225   5.449   3.190   6.772
 8094TIP3   OH224226   0.443   3.466   2.805
 8094TIP3    H124227   0.521   3.521   2.804
 8094TIP3    H224228   0.399   3.489   2.887
 8095TIP3   OH224229   6.488   4.511   2.157
 8095TIP3    H124230   6.425   4.560   2.209
 8095TIP3    H224231   6.525   4.576   2.097
 8096TIP3   OH224232   4.745   1.304   1.717
 8096TIP3    H124233   4.760   1.352   1.798
 8096TIP3    H224234   4.726   1.215   1.746
 8097TIP3   OH224235   2.094   7.067   0.561
 8097TIP3    H124236   2.086   7.075   0.656
 8097TIP3    H224237   2.019   7.014   0.535
 8098TIP3   OH224238   7.920   1.761   5.715
 8098TIP3    H124239   7.942   1.849   5.684
 8098TIP3    H224240   7.876   1.776   5.798
 8099TIP3   OH224241   6.579   0.155   0.309
 8099TIP3    H124242   6.570   0.155   0.405
 8099TIP3    H224243   6.556   0.065   0.284
 8100TIP3   OH224244   4.586   4.923   4.882
 8100TIP3    H124245   4.558   4.833   4.898
 8100TIP3    H224246   4.576   4.935   4.788
 8101TIP3   OH224247   0.227   5.356   0.432
 8101TIP3    H124248   0.196   5.411   0.504
 8101TIP3    H224249   0.161   5.366   0.363
 8102TIP3   OH224250   0.330   3.983   3.462
 8102TIP3    H124251   0.322   3.931   3.382
 8102TIP3    H224252   0.421   3.972   3.489
 8103TIP3   OH224253   6.901   0.882   2.034
 8103TIP3    H124254   6.848   0.876   1.954
 8103TIP3    H224255   6.848   0.934   2.094
 8104TIP3   OH224256   7.088   6.098   4.555
 8104TIP3    H124257   7.176   6.135   4.550
 8104TIP3    H224258   7.030   6.169   4.529
 8105TIP3   OH224259   3.396   5.501   4.289
 8105TIP3    H124260   3.408   5.566   4.221
 8105TIP3    H224261   3.367   5.422   4.243
 8106TIP3   OH224262   1.275   6.415   6.173
 8106TIP3    H124263   1.225   6.441   6.095
 8106TIP3    H224264   1.298   6.499   6.214
 8107TIP3   OH224265   2.635   1.850   4.675
 8107TIP3    H124266   2.705   1.792   4.645
 8107TIP3    H224267   2.582   1.795   4.732
 8108TIP3   OH224268   8.257   7.504   4.002
 8108TIP3    H124269   8.297   7.585   4.034
 8108TIP3    H224270   8.292   7.436   4.061
 8109TIP3   OH224271   4.232   6.583   2.046
 8109TIP3    H124272   4.228   6.593   1.950
 8109TIP3    H224273   4.140   6.584   2.073
 8110TIP3   OH224274   3.739   0.262   2.611
 8110TIP3    H124275   3.780   0.297   2.532
 8110TIP3    H224276   3.646   0.280   2.601
 8111TIP3   OH224277   1.924   4.963   0.657
 8111TIP3    H124278   1.841   5.010   0.658
 8111TIP3    H224279   1.972   5.002   0.583
 8112TIP3   OH224280   7.765   0.822   0.090
 8112TIP3    H124281   7.852   0.862   0.087
 8112TIP3    H224282   7.778   0.734   0.055
 8113TIP3   OH224283   7.195   3.224   1.847
 8113TIP3    H124284   7.262   3.277   1.804
 8113TIP3    H224285   7.140   3.192   1.776
 8114TIP3   OH224286   4.931   5.469   0.616
 8114TIP3    H124287   4.948   5.401   0.681
 8114TIP3    H224288   4.836   5.470   0.606
 8115TIP3   OH224289   0.333   7.549   5.794
 8115TIP3    H124290   0.313   7.487   5.864
 8115TIP3    H224291   0.369   7.495   5.724
 8116TIP3   OH224292   5.884   1.393   1.265
 8116TIP3    H124293   5.825   1.455   1.309
 8116TIP3    H224294   5.827   1.338   1.212
 8117TIP3   OH224295   5.795   4.972   0.351
 8117TIP3    H124296   5.790   5.060   0.314
 8117TIP3    H224297   5.832   4.918   0.281
 8118TIP3   OH224298   0.918   0.656   2.697
 8118TIP3    H124299   0.960   0.727   2.648
 8118TIP3    H224300   0.919   0.687   2.788
 8119TIP3   OH224301   6.984   3.948   5.217
 8119TIP3    H124302   6.898   3.978   5.246
 8119TIP3    H224303   6.966   3.889   5.144
 8120TIP3   OH224304   7.001   7.768   1.865
 8120TIP3    H124305   7.041   7.748   1.950
 8120TIP3    H224306   7.047   7.846   1.835
 8121TIP3   OH224307   2.801   1.001   0.635
 8121TIP3    H124308   2.775   1.080   0.587
 8121TIP3    H224309   2.722   0.946   0.635
 8122TIP3   OH224310   4.466   5.397   3.244
 8122TIP3    H124311   4.382   5.435   3.219
 8122TIP3    H224312   4.493   5.345   3.168
 8123TIP3   OH224313   8.116   4.751   3.693
 8123TIP3    H124314   8.022   4.768   3.696
 8123TIP3    H224315   8.150   4.815   3.631
 8124TIP3   OH224316   5.838   0.984   6.459
 8124TIP3    H124317   5.783   1.061   6.448
 8124TIP3    H224318   5.903   0.991   6.389
 8125TIP3   OH224319   0.586   2.619   4.401
 8125TIP3    H124320   0.513   2.564   4.430
 8125TIP3    H224321   0.634   2.637   4.482
 8126TIP3   OH224322   4.498   5.786   3.041
 8126TIP3    H124323   4.578   5.802   2.991
 8126TIP3    H224324   4.462   5.705   3.004
 8127TIP3   OH224325   6.392   3.149   1.500
 8127TIP3    H124326   6.341   3.219   1.541
 8127TIP3    H224327   6.439   3.109   1.573
 8128TIP3   OH224328   2.862   2.419   2.225
 8128TIP3    H124329   2.946   2.407   2.181
 8128TIP3    H224330   2.813   2.339   2.206
 8129TIP3   OH224331   8.279   5.525   0.536
 8129TIP3    H124332   8.239   5.443   0.565
 8129TIP3    H224333   8.270   5.584   0.611
 8130TIP3   OH224334   7.273   2.805   1.321
 8130TIP3    H124335   7.314   2.855   1.391
 8130TIP3    H224336   7.318   2.835   1.241
 8131TIP3   OH224337   6.879   1.629   4.576
 8131TIP3    H124338   6.808   1.570   4.551
 8131TIP3    H224339   6.959   1.584   4.550
 8132TIP3   OH224340   7.761   3.630   4.069
 8132TIP3    H124341   7.675   3.659   4.099
 8132TIP3    H224342   7.747   3.602   3.979
 8133TIP3   OH224343   2.300   6.378   2.359
 8133TIP3    H124344   2.263   6.331   2.284
 8133TIP3    H224345   2.235   6.367   2.428
 8134TIP3   OH224346   0.729   2.306   5.122
 8134TIP3    H124347   0.802   2.270   5.070
 8134TIP3    H224348   0.690   2.230   5.165
 8135TIP3   OH224349   7.565   5.542   4.241
 8135TIP3    H124350   7.622   5.483   4.291
 8135TIP3    H224351   7.510   5.584   4.307
 8136TIP3   OH224352   2.436   3.559   0.369
 8136TIP3    H124353   2.494   3.501   0.318
 8136TIP3    H224354   2.348   3.527   0.350
 8137TIP3   OH224355   5.730   6.136   0.710
 8137TIP3    H124356   5.706   6.149   0.801
 8137TIP3    H224357   5.715   6.042   0.695
 8138TIP3   OH224358   6.020   3.476   2.189
 8138TIP3    H124359   6.045   3.389   2.158
 8138TIP3    H224360   5.996   3.462   2.281
 8139TIP3   OH224361   1.529   1.823   6.046
 8139TIP3    H124362   1.515   1.912   6.013
 8139TIP3    H224363   1.494   1.766   5.977
 8140TIP3   OH224364   2.415   3.163   1.891
 8140TIP3    H124365   2.488   3.199   1.941
 8140TIP3    H224366   2.454   3.094   1.837
 8141TIP3   OH224367   3.304   5.713   2.727
 8141TIP3    H124368   3.311   5.787   2.667
 8141TIP3    H224369   3.383   5.662   2.711
 8142TIP3   OH224370   4.001   1.851   3.542
 8142TIP3    H124371   3.977   1.915   3.609
 8142TIP3    H224372   3.918   1.810   3.518
 8143TIP3   OH224373   7.156   7.201   2.062
 8143TIP3    H124374   7.231   7.158   2.022
 8143TIP3    H224375   7.132   7.145   2.136
 8144TIP3   OH224376   1.494   1.915   2.052
 8144TIP3    H124377   1.539   1.937   2.133
 8144TIP3    H224378   1.417   1.865   2.079
 8145TIP3   OH224379   5.408   7.107   6.743
 8145TIP3    H124380   5.484   7.083   6.795
 8145TIP3    H224381   5.426   7.196   6.714
 8146TIP3   OH224382   2.296   6.632   4.927
 8146TIP3    H124383   2.312   6.592   5.012
 8146TIP3    H224384   2.380   6.673   4.904
 8147TIP3   OH224385   3.459   0.189   6.061
 8147TIP3    H124386   3.499   0.182   6.148
 8147TIP3    H224387   3.413   0.105   6.050
 8148TIP3   OH224388   3.933   1.940   3.972
 8148TIP3    H124389   4.003   1.916   4.033
 8148TIP3    H224390   3.858   1.889   4.001
 8149TIP3   OH224391   7.934   3.591   6.183
 8149TIP3    H124392   7.943   3.496   6.184
 8149TIP3    H224393   8.009   3.622   6.133
 8150TIP3   OH224394   3.370   6.164   5.789
 8150TIP3    H124395   3.372   6.207   5.874
 8150TIP3    H224396   3.459   6.132   5.776
 8151TIP3   OH224397   2.524   2.714   6.029
 8151TIP3    H124398   2.580   2.732   6.104
 8151TIP3    H224399   2.449   2.666   6.064
 8152TIP3   OH224400   4.754   3.256   4.558
 8152TIP3    H124401   4.723   3.245   4.648
 8152TIP3    H224402   4.838   3.301   4.567
 8153TIP3   OH224403   2.111   7.113   4.951
 8153TIP3    H124404   2.063   7.096   4.870
 8153TIP3    H224405   2.051   7.086   5.020
 8154TIP3   OH224406   6.383   6.250   0.397
 8154TIP3    H124407   6.377   6.258   0.302
 8154TIP3    H224408   6.295   6.267   0.429
 8155TIP3   OH224409   6.740   7.459   2.927
 8155TIP3    H124410   6.784   7.529   2.879
 8155TIP3    H224411   6.708   7.502   3.007
 8156TIP3   OH224412   4.877   0.748   1.269
 8156TIP3    H124413   4.879   0.842   1.285
 8156TIP3    H224414   4.925   0.736   1.188
 8157TIP3   OH224415   5.687   6.437   1.979
 8157TIP3    H124416   5.595   6.454   1.999
 8157TIP3    H224417   5.736   6.501   2.031
 8158TIP3   OH224418   6.758   3.128   0.915
 8158TIP3    H124419   6.844   3.115   0.876
 8158TIP3    H224420   6.759   3.077   0.996
 8159TIP3   OH224421   0.993   6.823   5.914
 8159TIP3    H124422   0.911   6.800   5.869
 8159TIP3    H224423   0.969   6.897   5.970
 8160TIP3   OH224424   0.538   6.354   4.064
 8160TIP3    H124425   0.570   6.347   4.154
 8160TIP3    H224426   0.455   6.402   4.071
 8161TIP3   OH224427   2.367   3.093   1.225
 8161TIP3    H124428   2.333   3.069   1.311
 8161TIP3    H224429   2.433   3.027   1.205
 8162TIP3   OH224430   5.314   4.377   4.481
 8162TIP3    H124431   5.301   4.336   4.566
 8162TIP3    H224432   5.284   4.467   4.494
 8163TIP3   OH224433   0.956   4.167   2.810
 8163TIP3    H124434   1.026   4.154   2.746
 8163TIP3    H224435   0.878   4.180   2.757
 8164TIP3   OH224436   7.910   5.945   4.779
 8164TIP3    H124437   7.872   5.898   4.853
 8164TIP3    H224438   7.983   5.995   4.816
 8165TIP3   OH224439   7.667   1.304   4.780
 8165TIP3    H124440   7.706   1.367   4.720
 8165TIP3    H224441   7.591   1.350   4.817
 8166TIP3   OH224442   4.559   0.217   6.211
 8166TIP3    H124443   4.552   0.259   6.125
 8166TIP3    H224444   4.492   0.149   6.210
 8167TIP3   OH224445   6.814   7.172   2.655
 8167TIP3    H124446   6.736   7.136   2.697
 8167TIP3    H224447   6.781   7.235   2.591
 8168TIP3   OH224448   6.793   6.833   5.108
 8168TIP3    H124449   6.882   6.858   5.085
 8168TIP3    H224450   6.763   6.903   5.168
 8169TIP3   OH224451   3.363   1.360   1.224
 8169TIP3    H124452   3.337   1.275   1.191
 8169TIP3    H224453   3.452   1.348   1.256
 8170TIP3   OH224454   7.034   5.965   4.301
 8170TIP3    H124455   6.964   5.928   4.354
 8170TIP3    H224456   7.092   6.007   4.364
 8171TIP3   OH224457   3.224   3.132   0.755
 8171TIP3    H124458   3.293   3.066   0.741
 8171TIP3    H224459   3.224   3.146   0.850
 8172TIP3   OH224460   4.937   4.635   2.115
 8172TIP3    H124461   4.841   4.634   2.116
 8172TIP3    H224462   4.962   4.600   2.201
 8173TIP3   OH224463   5.464   2.900   2.330
 8173TIP3    H124464   5.428   2.834   2.389
 8173TIP3    H224465   5.387   2.946   2.297
 8174TIP3   OH224466   1.295   2.188   4.971
 8174TIP3    H124467   1.225   2.209   4.909
 8174TIP3    H224468   1.285   2.094   4.987
 8175TIP3   OH224469   4.822   1.697   0.678
 8175TIP3    H124470   4.909   1.667   0.653
 8175TIP3    H224471   4.824   1.701   0.773
 8176TIP3   OH224472   1.884   1.875   1.429
 8176TIP3    H124473   1.966   1.886   1.381
 8176TIP3    H224474   1.889   1.786   1.465
 8177TIP3   OH224475   3.157   7.568   2.102
 8177TIP3    H124476   3.249   7.594   2.098
 8177TIP3    H224477   3.115   7.618   2.033
 8178TIP3   OH224478   1.368   0.898   1.165
 8178TIP3    H124479   1.288   0.846   1.158
 8178TIP3    H224480   1.428   0.858   1.102
 8179TIP3   OH224481   8.056   7.464   0.028
 8179TIP3    H124482   8.007   7.433   0.104
 8179TIP3    H224483   8.148   7.462   0.056
 8180TIP3   OH224484   2.739   6.417   6.297
 8180TIP3    H124485   2.765   6.509   6.289
 8180TIP3    H224486   2.803   6.380   6.358
 8181TIP3   OH224487   1.317   6.266   5.064
 8181TIP3    H124488   1.267   6.205   5.117
 8181TIP3    H224489   1.251   6.318   5.018
 8182TIP3   OH224490   2.171   2.458   4.013
 8182TIP3    H124491   2.080   2.434   4.027
 8182TIP3    H224492   2.167   2.539   3.961
 8183TIP3   OH224493   3.222   1.100   5.614
 8183TIP3    H124494   3.141   1.084   5.565
 8183TIP3    H224495   3.289   1.113   5.547
 8184TIP3   OH224496   4.640   0.982   4.767
 8184TIP3    H124497   4.554   1.000   4.805
 8184TIP3    H224498   4.693   0.952   4.841
 8185TIP3   OH224499   6.948   1.447   2.550
 8185TIP3    H124500   7.006   1.375   2.525
 8185TIP3    H224501   6.988   1.525   2.510
 8186TIP3   OH224502   4.029   5.414   0.629
 8186TIP3    H124503   4.056   5.449   0.714
 8186TIP3    H224504   4.101   5.436   0.570
 8187TIP3   OH224505   2.982   2.454   0.270
 8187TIP3    H124506   2.893   2.418   0.268
 8187TIP3    H224507   3.029   2.399   0.332
 8188TIP3   OH224508   0.183   7.617   1.493
 8188TIP3    H124509   0.144   7.587   1.576
 8188TIP3    H224510   0.267   7.655   1.519
 8189TIP3   OH224511   6.634   2.050   6.774
 8189TIP3    H124512   6.656   2.104   6.698
 8189TIP3    H224513   6.555   2.002   6.747
 8190TIP3   OH224514   7.312   6.471   2.081
 8190TIP3    H124515   7.247   6.526   2.037
 8190TIP3    H224516   7.262   6.394   2.109
 8191TIP3   OH224517   2.951   5.671   3.617
 8191TIP3    H124518   3.026   5.706   3.666
 8191TIP3    H224519   2.899   5.625   3.683
 8192TIP3   OH224520   5.738   6.085   4.481
 8192TIP3    H124521   5.666   6.066   4.540
 8192TIP3    H224522   5.814   6.042   4.521
 8193TIP3   OH224523   3.457   0.568   4.723
 8193TIP3    H124524   3.508   0.621   4.663
 8193TIP3    H224525   3.455   0.619   4.804
 8194TIP3   OH224526   1.160   2.977   6.442
 8194TIP3    H124527   1.145   3.072   6.440
 8194TIP3    H224528   1.164   2.955   6.535
 8195TIP3   OH224529   1.210   1.904   2.484
 8195TIP3    H124530   1.300   1.880   2.460
 8195TIP3    H224531   1.196   1.988   2.440
 8196TIP3   OH224532   5.030   1.287   2.901
 8196TIP3    H124533   4.936   1.277   2.917
 8196TIP3    H224534   5.069   1.207   2.936
 8197TIP3   OH224535   2.644   3.571   2.818
 8197TIP3    H124536   2.594   3.517   2.879
 8197TIP3    H224537   2.654   3.655   2.864
 8198TIP3   OH224538   6.731   6.873   1.569
 8198TIP3    H124539   6.801   6.827   1.615
 8198TIP3    H224540   6.713   6.950   1.623
 8199TIP3   OH224541   7.354   2.058   4.930
 8199TIP3    H124542   7.303   2.033   4.854
 8199TIP3    H224543   7.335   2.151   4.942
 8200TIP3   OH224544   0.500   1.267   5.009
 8200TIP3    H124545   0.452   1.293   4.930
 8200TIP3    H224546   0.459   1.318   5.079
 8201TIP3   OH224547   3.826   2.740   6.723
 8201TIP3    H124548   3.778   2.815   6.758
 8201TIP3    H224549   3.874   2.774   6.648
 8202TIP3   OH224550   6.617   7.521   4.620
 8202TIP3    H124551   6.542   7.533   4.560
 8202TIP3    H224552   6.694   7.525   4.563
 8203TIP3   OH224553   2.783   0.984   2.771
 8203TIP3    H124554   2.734   1.063   2.796
 8203TIP3    H224555   2.860   0.985   2.828
 8204TIP3   OH224556   1.629   7.644   3.803
 8204TIP3    H124557   1.613   7.588   3.879
 8204TIP3    H224558   1.567   7.613   3.737
 8205TIP3   OH224559   4.084   2.694   5.836
 8205TIP3    H124560   4.124   2.770   5.879
 8205TIP3    H224561   4.081   2.717   5.743
 8206TIP3   OH224562   7.714   5.726   2.403
 8206TIP3    H124563   7.631   5.770   2.385
 8206TIP3    H224564   7.754   5.779   2.473
 8207TIP3   OH224565   2.561   5.535   4.797
 8207TIP3    H124566   2.567   5.545   4.892
 8207TIP3    H224567   2.651   5.527   4.768
 8208TIP3   OH224568   7.627   5.755   2.694
 8208TIP3    H124569   7.558   5.812   2.729
 8208TIP3    H224570   7.708   5.793   2.727
 8209TIP3   OH224571   1.050   4.553   3.206
 8209TIP3    H124572   1.140   4.548   3.238
 8209TIP3    H224573   1.033   4.467   3.168
 8210TIP3   OH224574   0.212   2.715   5.322
 8210TIP3    H124575   0.122   2.726   5.353
 8210TIP3    H224576   0.204   2.661   5.244
 8211TIP3   OH224577   4.857   4.857   1.528
 8211TIP3    H124578   4.947   4.830   1.509
 8211TIP3    H224579   4.833   4.808   1.606
 8212TIP3   OH224580   0.715   7.036   5.799
 8212TIP3    H124581   0.718   6.940   5.792
 8212TIP3    H224582   0.624   7.059   5.783
 8213TIP3   OH224583   1.466   7.036   1.559
 8213TIP3    H124584   1.504   7.056   1.645
 8213TIP3    H224585   1.379   7.078   1.561
 8214TIP3   OH224586   6.204   0.850   3.106
 8214TIP3    H124587   6.196   0.890   3.192
 8214TIP3    H224588   6.171   0.761   3.118
 8215TIP3   OH224589   8.263   2.873   4.551
 8215TIP3    H124590   8.310   2.956   4.546
 8215TIP3    H224591   8.332   2.808   4.563
 8216TIP3   OH224592   6.411   5.915   6.591
 8216TIP3    H124593   6.385   5.823   6.603
 8216TIP3    H224594   6.395   5.932   6.498
 8217TIP3   OH224595   2.716   3.299   2.731
 8217TIP3    H124596   2.698   3.388   2.761
 8217TIP3    H224597   2.806   3.303   2.699
 8218TIP3   OH224598   2.244   5.012   1.355
 8218TIP3    H124599   2.198   4.949   1.411
 8218TIP3    H224600   2.174   5.065   1.317
 8219TIP3   OH224601   4.260   7.640   0.239
 8219TIP3    H124602   4.317   7.624   0.164
 8219TIP3    H224603   4.289   7.725   0.273
 8220TIP3   OH224604   3.183   0.820   4.345
 8220TIP3    H124605   3.256   0.757   4.343
 8220TIP3    H224606   3.132   0.800   4.267
 8221TIP3   OH224607   2.028   3.686   3.694
 8221TIP3    H124608   2.076   3.765   3.718
 8221TIP3    H224609   1.992   3.705   3.607
 8222TIP3   OH224610   0.954   4.271   0.722
 8222TIP3    H124611   0.912   4.283   0.807
 8222TIP3    H224612   0.959   4.177   0.710
 8223TIP3   OH224613   2.671   6.343   3.694
 8223TIP3    H124614   2.744   6.377   3.640
 8223TIP3    H224615   2.655   6.255   3.660
 8224TIP3   OH224616   6.818   5.291   0.228
 8224TIP3    H124617   6.877   5.364   0.206
 8224TIP3    H224618   6.862   5.244   0.299
 8225TIP3   OH224619   4.244   5.747   4.288
 8225TIP3    H124620   4.199   5.713   4.211
 8225TIP3    H224621   4.187   5.818   4.319
 8226TIP3   OH224622   4.486   5.414   0.277
 8226TIP3    H124623   4.423   5.343   0.287
 8226TIP3    H224624   4.571   5.371   0.280
 8227TIP3   OH224625   6.853   1.499   1.819
 8227TIP3    H124626   6.807   1.546   1.750
 8227TIP3    H224627   6.785   1.451   1.866
 8228TIP3   OH224628   8.002   5.159   3.049
 8228TIP3    H124629   7.969   5.177   3.136
 8228TIP3    H224630   7.947   5.211   2.990
 8229TIP3   OH224631   2.632   0.046   3.644
 8229TIP3    H124632   2.547   0.011   3.669
 8229TIP3    H224633   2.614   0.099   3.567
 8230TIP3   OH224634   5.976   2.711   0.346
 8230TIP3    H124635   5.967   2.629   0.298
 8230TIP3    H224636   5.888   2.730   0.380
 8231TIP3   OH224637   2.976   1.567   1.681
 8231TIP3    H124638   3.017   1.505   1.620
 8231TIP3    H224639   3.044   1.584   1.747
 8232TIP3   OH224640   8.106   2.816   0.672
 8232TIP3    H124641   8.190   2.770   0.665
 8232TIP3    H224642   8.080   2.831   0.581
 8233TIP3   OH224643   4.628   6.651   5.805
 8233TIP3    H124644   4.550   6.596   5.817
 8233TIP3    H224645   4.638   6.696   5.889
 8234TIP3   OH224646   7.436   6.557   2.669
 8234TIP3    H124647   7.511   6.587   2.721
 8234TIP3    H224648   7.368   6.623   2.683
 8235TIP3   OH224649   4.769   7.637   1.132
 8235TIP3    H124650   4.801   7.723   1.157
 8235TIP3    H224651   4.682   7.654   1.095
 8236TIP3   OH224652   2.468   1.094   1.576
 8236TIP3    H124653   2.532   1.125   1.512
 8236TIP3    H224654   2.411   1.035   1.527
 8237TIP3   OH224655   2.424   7.548   5.775
 8237TIP3    H124656   2.501   7.490   5.774
 8237TIP3    H224657   2.404   7.561   5.682
 8238TIP3   OH224658   5.904   2.560   4.801
 8238TIP3    H124659   5.814   2.548   4.770
 8238TIP3    H224660   5.896   2.569   4.896
 8239TIP3   OH224661   1.958   5.303   0.446
 8239TIP3    H124662   2.023   5.366   0.414
 8239TIP3    H224663   1.905   5.283   0.370
 8240TIP3   OH224664   5.036   4.017   2.446
 8240TIP3    H124665   5.003   4.011   2.356
 8240TIP3    H224666   5.045   3.926   2.474
 8241TIP3   OH224667   0.999   1.941   1.435
 8241TIP3    H124668   1.025   2.024   1.394
 8241TIP3    H224669   1.046   1.874   1.384
 8242TIP3   OH224670   6.937   0.327   4.998
 8242TIP3    H124671   6.906   0.342   4.909
 8242TIP3    H224672   7.024   0.367   5.001
 8243TIP3   OH224673   6.756   2.102   3.741
 8243TIP3    H124674   6.664   2.087   3.717
 8243TIP3    H224675   6.795   2.015   3.740
 8244TIP3   OH224676   5.999   5.291   0.975
 8244TIP3    H124677   5.958   5.218   1.020
 8244TIP3    H224678   5.945   5.304   0.897
 8245TIP3   OH224679   6.658   0.072   6.585
 8245TIP3    H124680   6.567   0.064   6.615
 8245TIP3    H224681   6.666   0.163   6.558
 8246TIP3   OH224682   1.969   6.030   1.846
 8246TIP3    H124683   1.916   6.027   1.766
 8246TIP3    H224684   2.034   5.961   1.834
 8247TIP3   OH224685   8.281   7.294   5.910
 8247TIP3    H124686   8.217   7.223   5.909
 8247TIP3    H224687   8.364   7.253   5.888
 8248TIP3   OH224688   2.571   3.631   4.278
 8248TIP3    H124689   2.531   3.557   4.323
 8248TIP3    H224690   2.618   3.592   4.205
 8249TIP3   OH224691   6.686   7.547   3.794
 8249TIP3    H124692   6.632   7.477   3.758
 8249TIP3    H224693   6.639   7.575   3.873
 8250TIP3   OH224694   2.247   0.559   1.157
 8250TIP3    H124695   2.317   0.553   1.221
 8250TIP3    H224696   2.182   0.617   1.196
 8251TIP3   OH224697   6.740   0.203   5.145
 8251TIP3    H124698   6.775   0.196   5.234
 8251TIP3    H224699   6.809   0.246   5.096
 8252TIP3   OH224700   1.539   1.461   4.588
 8252TIP3    H124701   1.579   1.378   4.563
 8252TIP3    H224702   1.469   1.437   4.648
 8253TIP3   OH224703   5.109   3.315   0.040
 8253TIP3    H124704   5.188   3.322  -0.013
 8253TIP3    H224705   5.085   3.222   0.036
 8254TIP3   OH224706   3.202   2.930   2.952
 8254TIP3    H124707   3.252   2.917   3.033
 8254TIP3    H224708   3.116   2.958   2.981
 8255TIP3   OH224709   0.107   5.039   5.594
 8255TIP3    H124710   0.081   4.960   5.641
 8255TIP3    H224711   0.143   5.096   5.662
 8256TIP3   OH224712   4.256   5.713   6.184
 8256TIP3    H124713   4.200   5.701   6.107
 8256TIP3    H224714   4.214   5.660   6.252
 8257TIP3   OH224715   4.749   3.857   3.823
 8257TIP3    H124716   4.817   3.814   3.875
 8257TIP3    H224717   4.712   3.923   3.882
 8258TIP3   OH224718   5.518   4.789   5.267
 8258TIP3    H124719   5.568   4.756   5.342
 8258TIP3    H224720   5.521   4.884   5.277
 8259TIP3   OH224721   5.193   6.713   2.439
 8259TIP3    H124722   5.261   6.652   2.467
 8259TIP3    H224723   5.111   6.668   2.456
 8260TIP3   OH224724   2.896   3.471   5.277
 8260TIP3    H124725   2.818   3.454   5.224
 8260TIP3    H224726   2.924   3.559   5.251
 8261TIP3   OH224727   3.638   5.303   1.552
 8261TIP3    H124728   3.636   5.336   1.642
 8261TIP3    H224729   3.625   5.380   1.498
 8262TIP3   OH224730   3.308   3.377   5.564
 8262TIP3    H124731   3.280   3.420   5.483
 8262TIP3    H224732   3.276   3.434   5.634
 8263TIP3   OH224733   0.375   0.683   2.198
 8263TIP3    H124734   0.421   0.650   2.121
 8263TIP3    H224735   0.408   0.772   2.210
 8264TIP3   OH224736   5.859   6.531   4.186
 8264TIP3    H124737   5.780   6.477   4.187
 8264TIP3    H224738   5.892   6.523   4.097
 8265TIP3   OH224739   1.461   3.985   1.657
 8265TIP3    H124740   1.514   3.984   1.737
 8265TIP3    H224741   1.376   3.950   1.684
 8266TIP3   OH224742   7.203   4.042   3.856
 8266TIP3    H124743   7.179   3.955   3.887
 8266TIP3    H224744   7.296   4.034   3.833
 8267TIP3   OH224745   7.558   2.007   5.831
 8267TIP3    H124746   7.626   1.999   5.764
 8267TIP3    H224747   7.571   2.093   5.869
 8268TIP3   OH224748   5.776   6.127   1.697
 8268TIP3    H124749   5.757   6.181   1.620
 8268TIP3    H224750   5.725   6.047   1.683
 8269TIP3   OH224751   0.710   5.039   0.679
 8269TIP3    H124752   0.746   5.053   0.767
 8269TIP3    H224753   0.780   5.064   0.620
 8270TIP3   OH224754   0.130   6.040   4.444
 8270TIP3    H124755   0.104   5.969   4.385
 8270TIP3    H224756   0.212   6.010   4.483
 8271TIP3   OH224757   2.608   7.048   3.658
 8271TIP3    H124758   2.575   7.106   3.589
 8271TIP3    H224759   2.543   7.055   3.728
 8272TIP3   OH224760   2.947   5.879   0.215
 8272TIP3    H124761   2.985   5.870   0.127
 8272TIP3    H224762   2.958   5.792   0.254
 8273TIP3   OH224763   2.785   0.447   5.611
 8273TIP3    H124764   2.689   0.450   5.615
 8273TIP3    H224765   2.807   0.362   5.649
 8274TIP3   OH224766   5.131   5.214   6.537
 8274TIP3    H124767   5.218   5.248   6.516
 8274TIP3    H224768   5.136   5.187   6.628
 8275TIP3   OH224769   4.904   2.829   1.690
 8275TIP3    H124770   4.986   2.780   1.694
 8275TIP3    H224771   4.927   2.912   1.648
 8276TIP3   OH224772   1.031   6.151   6.513
 8276TIP3    H124773   1.048   6.182   6.424
 8276TIP3    H224774   0.941   6.117   6.509
 8277TIP3   OH224775   7.989   4.709   6.690
 8277TIP3    H124776   7.916   4.659   6.724
 8277TIP3    H224777   7.996   4.785   6.749
 8278TIP3   OH224778   3.275   3.396   1.920
 8278TIP3    H124779   3.185   3.383   1.952
 8278TIP3    H224780   3.328   3.336   1.972
 8279TIP3   OH224781   6.107   2.337   5.380
 8279TIP3    H124782   6.148   2.253   5.361
 8279TIP3    H224783   6.013   2.320   5.374
 8280TIP3   OH224784   4.783   0.885   0.291
 8280TIP3    H124785   4.700   0.839   0.282
 8280TIP3    H224786   4.842   0.820   0.331
 8281TIP3   OH224787   1.673   6.059   6.139
 8281TIP3    H124788   1.625   6.132   6.178
 8281TIP3    H224789   1.756   6.097   6.111
 8282TIP3   OH224790   3.882   2.228   4.019
 8282TIP3    H124791   3.923   2.159   3.966
 8282TIP3    H224792   3.832   2.181   4.085
 8283TIP3   OH224793   1.708   4.375   0.857
 8283TIP3    H124794   1.761   4.296   0.845
 8283TIP3    H224795   1.638   4.366   0.793
 8284TIP3   OH224796   5.098   4.867   6.687
 8284TIP3    H124797   5.155   4.830   6.755
 8284TIP3    H224798   5.065   4.948   6.725
 8285TIP3   OH224799   3.930   0.596   5.573
 8285TIP3    H124800   3.855   0.541   5.552
 8285TIP3    H224801   4.000   0.534   5.595
 8286TIP3   OH224802   8.136   0.312   2.636
 8286TIP3    H124803   8.140   0.261   2.554
 8286TIP3    H224804   8.211   0.371   2.630
 8287TIP3   OH224805   1.774   5.123   1.725
 8287TIP3    H124806   1.682   5.098   1.727
 8287TIP3    H224807   1.821   5.041   1.706
 8288TIP3   OH224808   3.293   1.074   6.187
 8288TIP3    H124809   3.292   1.139   6.257
 8288TIP3    H224810   3.347   1.113   6.118
 8289TIP3   OH224811   4.664   1.510   6.462
 8289TIP3    H124812   4.705   1.491   6.378
 8289TIP3    H224813   4.648   1.424   6.502
 8290TIP3   OH224814   3.496   2.150   3.061
 8290TIP3    H124815   3.449   2.229   3.087
 8290TIP3    H224816   3.495   2.152   2.966
 8291TIP3   OH224817   8.125   0.690   3.955
 8291TIP3    H124818   8.213   0.704   3.921
 8291TIP3    H224819   8.138   0.668   4.047
 8292TIP3   OH224820   0.610   6.777   3.269
 8292TIP3    H124821   0.693   6.753   3.229
 8292TIP3    H224822   0.598   6.715   3.340
 8293TIP3   OH224823   1.374   5.735   0.897
 8293TIP3    H124824   1.373   5.659   0.955
 8293TIP3    H224825   1.321   5.709   0.821
 8294TIP3   OH224826   0.976   0.964   5.682
 8294TIP3    H124827   0.972   0.987   5.774
 8294TIP3    H224828   0.955   1.045   5.635
 8295TIP3   OH224829   6.380   2.523   4.146
 8295TIP3    H124830   6.352   2.580   4.218
 8295TIP3    H224831   6.307   2.525   4.084
 8296TIP3   OH224832   7.672   2.219   3.298
 8296TIP3    H124833   7.654   2.147   3.359
 8296TIP3    H224834   7.644   2.298   3.345
 8297TIP3   OH224835   7.987   4.395   6.547
 8297TIP3    H124836   7.940   4.447   6.482
 8297TIP3    H224837   8.078   4.423   6.539
 8298TIP3   OH224838   2.647   4.901   5.910
 8298TIP3    H124839   2.623   4.955   5.986
 8298TIP3    H224840   2.668   4.964   5.841
 8299TIP3   OH224841   1.821   7.387   0.734
 8299TIP3    H124842   1.855   7.405   0.647
 8299TIP3    H224843   1.778   7.469   0.760
 8300TIP3   OH224844   3.081   0.384   0.860
 8300TIP3    H124845   3.096   0.358   0.769
 8300TIP3    H224846   3.069   0.479   0.856
 8301TIP3   OH224847   3.474   3.674   4.728
 8301TIP3    H124848   3.534   3.659   4.801
 8301TIP3    H224849   3.445   3.587   4.703
 8302TIP3   OH224850   3.076   5.389   5.666
 8302TIP3    H124851   2.990   5.424   5.640
 8302TIP3    H224852   3.131   5.401   5.590
 8303TIP3   OH224853   8.008   7.006   5.062
 8303TIP3    H124854   8.005   7.039   4.972
 8303TIP3    H224855   7.995   7.084   5.116
 8304TIP3   OH224856   3.569   6.787   1.742
 8304TIP3    H124857   3.484   6.829   1.732
 8304TIP3    H224858   3.552   6.694   1.726
 8305TIP3   OH224859   6.763   4.584   5.845
 8305TIP3    H124860   6.710   4.533   5.907
 8305TIP3    H224861   6.823   4.634   5.900
 8306TIP3   OH224862   3.879   7.252   6.255
 8306TIP3    H124863   3.903   7.173   6.304
 8306TIP3    H224864   3.962   7.300   6.246
 8307TIP3   OH224865   6.209   1.392   5.991
 8307TIP3    H124866   6.186   1.401   6.083
 8307TIP3    H224867   6.138   1.338   5.954
 8308TIP3   OH224868   7.907   0.092   0.075
 8308TIP3    H124869   7.902   0.037   0.153
 8308TIP3    H224870   7.988   0.065   0.032
 8309TIP3   OH224871   6.824   1.847   2.613
 8309TIP3    H124872   6.892   1.885   2.558
 8309TIP3    H224873   6.810   1.912   2.683
 8310TIP3   OH224874   3.128   6.115   0.262
 8310TIP3    H124875   3.109   6.184   0.199
 8310TIP3    H224876   3.074   6.041   0.234
 8311TIP3   OH224877   7.317   6.821   4.725
 8311TIP3    H124878   7.267   6.901   4.738
 8311TIP3    H224879   7.255   6.751   4.746
 8312TIP3   OH224880   2.290   1.387   1.923
 8312TIP3    H124881   2.208   1.406   1.876
 8312TIP3    H224882   2.298   1.458   1.987
 8313TIP3   OH224883   2.662   4.104   5.878
 8313TIP3    H124884   2.747   4.149   5.879
 8313TIP3    H224885   2.684   4.011   5.868
 8314TIP3   OH224886   1.660   3.712   4.042
 8314TIP3    H124887   1.721   3.663   3.987
 8314TIP3    H224888   1.714   3.745   4.114
 8315TIP3   OH224889   6.600   2.705   6.555
 8315TIP3    H124890   6.631   2.652   6.628
 8315TIP3    H224891   6.611   2.796   6.585
 8316TIP3   OH224892   5.726   2.945   6.035
 8316TIP3    H124893   5.720   3.011   5.965
 8316TIP3    H224894   5.675   2.871   6.003
 8317TIP3   OH224895   1.480   7.268   1.040
 8317TIP3    H124896   1.421   7.317   1.097
 8317TIP3    H224897   1.479   7.179   1.076
 8318TIP3   OH224898   3.901   7.743   0.751
 8318TIP3    H124899   3.825   7.786   0.790
 8318TIP3    H224900   3.929   7.680   0.818
 8319TIP3   OH224901   6.921   3.698   0.014
 8319TIP3    H124902   6.872   3.702   0.096
 8319TIP3    H224903   6.929   3.790  -0.013
 8320TIP3   OH224904   3.284   0.689   5.799
 8320TIP3    H124905   3.243   0.701   5.714
 8320TIP3    H224906   3.319   0.600   5.797
 8321TIP3   OH224907   3.348   4.361   4.651
 8321TIP3    H124908   3.299   4.441   4.674
 8321TIP3    H224909   3.435   4.375   4.689
 8322TIP3   OH224910   1.171   5.772   5.409
 8322TIP3    H124911   1.157   5.787   5.315
 8322TIP3    H224912   1.093   5.725   5.438
 8323TIP3   OH224913   2.511   6.506   2.735
 8323TIP3    H124914   2.593   6.532   2.692
 8323TIP3    H224915   2.443   6.552   2.686
 8324TIP3   OH224916   0.785   6.314   0.125
 8324TIP3    H124917   0.852   6.380   0.107
 8324TIP3    H224918   0.751   6.290   0.038
 8325TIP3   OH224919   0.060   7.819   4.422
 8325TIP3    H124920  -0.032   7.822   4.397
 8325TIP3    H224921   0.105   7.868   4.353
 8326TIP3   OH224922   7.886   6.753   3.254
 8326TIP3    H124923   7.825   6.826   3.244
 8326TIP3    H224924   7.856   6.687   3.192
 8327TIP3   OH224925   7.648   2.985   1.667
 8327TIP3    H124926   7.710   2.960   1.735
 8327TIP3    H224927   7.690   3.060   1.623
 8328TIP3   OH224928   2.620   7.490   1.022
 8328TIP3    H124929   2.713   7.507   1.007
 8328TIP3    H224930   2.596   7.426   0.954
 8329TIP3   OH224931   6.155   1.286   1.197
 8329TIP3    H124932   6.124   1.204   1.233
 8329TIP3    H224933   6.085   1.349   1.217
 8330TIP3   OH224934   5.983   1.126   1.573
 8330TIP3    H124935   6.000   1.144   1.481
 8330TIP3    H224936   5.922   1.194   1.600
 8331TIP3   OH224937   7.548   1.426   1.844
 8331TIP3    H124938   7.460   1.393   1.862
 8331TIP3    H224939   7.543   1.520   1.862
 8332TIP3   OH224940   1.301   3.727   0.356
 8332TIP3    H124941   1.252   3.808   0.370
 8332TIP3    H224942   1.304   3.716   0.261
 8333TIP3   OH224943   0.677   4.381   2.994
 8333TIP3    H124944   0.652   4.460   3.041
 8333TIP3    H224945   0.631   4.386   2.911
 8334TIP3   OH224946   7.513   0.163   1.217
 8334TIP3    H124947   7.487   0.188   1.306
 8334TIP3    H224948   7.434   0.124   1.180
 8335TIP3   OH224949   4.539   5.542   2.268
 8335TIP3    H124950   4.537   5.616   2.329
 8335TIP3    H224951   4.484   5.476   2.309
 8336TIP3   OH224952   0.772   1.680   1.761
 8336TIP3    H124953   0.824   1.608   1.797
 8336TIP3    H224954   0.831   1.755   1.759
 8337TIP3   OH224955   0.191   6.852   0.890
 8337TIP3    H124956   0.211   6.796   0.815
 8337TIP3    H224957   0.249   6.928   0.879
 8338TIP3   OH224958   2.056   5.020   0.412
 8338TIP3    H124959   2.104   5.080   0.469
 8338TIP3    H224960   2.060   5.061   0.325
 8339TIP3   OH224961   0.277   0.154   6.308
 8339TIP3    H124962   0.222   0.181   6.235
 8339TIP3    H224963   0.338   0.226   6.321
 8340TIP3   OH224964   7.761   5.014   1.724
 8340TIP3    H124965   7.695   4.970   1.671
 8340TIP3    H224966   7.823   4.945   1.748
 8341TIP3   OH224967   8.123   5.894   0.445
 8341TIP3    H124968   8.180   5.947   0.501
 8341TIP3    H224969   8.036   5.904   0.484
 8342TIP3   OH224970   4.015   1.289   4.915
 8342TIP3    H124971   4.059   1.313   4.834
 8342TIP3    H224972   4.043   1.199   4.931
 8343TIP3   OH224973   5.370   6.722   1.166
 8343TIP3    H124974   5.360   6.814   1.191
 8343TIP3    H224975   5.332   6.673   1.240
 8344TIP3   OH224976   0.680   6.615   0.895
 8344TIP3    H124977   0.597   6.583   0.861
 8344TIP3    H224978   0.740   6.612   0.820
 8345TIP3   OH224979   2.210   3.891   0.986
 8345TIP3    H124980   2.297   3.925   1.006
 8345TIP3    H224981   2.226   3.811   0.935
 8346TIP3   OH224982   5.444   4.834   5.015
 8346TIP3    H124983   5.383   4.874   5.077
 8346TIP3    H224984   5.506   4.787   5.071
 8347TIP3   OH224985   5.901   5.983   4.193
 8347TIP3    H124986   5.815   5.980   4.235
 8347TIP3    H224987   5.904   6.067   4.148
 8348TIP3   OH224988   0.951   5.096   0.614
 8348TIP3    H124989   1.011   5.057   0.551
 8348TIP3    H224990   1.005   5.110   0.692
 8349TIP3   OH224991   3.957   1.881   4.429
 8349TIP3    H124992   3.948   1.913   4.340
 8349TIP3    H224993   4.027   1.816   4.424
 8350TIP3   OH224994   5.625   3.735   1.796
 8350TIP3    H124995   5.574   3.816   1.796
 8350TIP3    H224996   5.611   3.697   1.710
 8351TIP3   OH224997   6.029   4.574   2.262
 8351TIP3    H124998   5.962   4.540   2.203
 8351TIP3    H224999   5.992   4.562   2.349
 8352TIP3   OH225000   5.922   4.633   2.538
 8352TIP3    H125001   5.957   4.544   2.538
 8352TIP3    H225002   5.930   4.662   2.628
 8353TIP3   OH225003   4.988   7.535   3.092
 8353TIP3    H125004   5.013   7.467   3.155
 8353TIP3    H225005   5.061   7.540   3.031
 8354TIP3   OH225006   3.437   5.935   2.199
 8354TIP3    H125007   3.462   5.910   2.110
 8354TIP3    H225008   3.433   5.853   2.247
 8355TIP3   OH225009   6.375   1.371   4.738
 8355TIP3    H125010   6.447   1.337   4.791
 8355TIP3    H225011   6.320   1.419   4.800
 8356TIP3   OH225012   2.858   1.196   1.669
 8356TIP3    H125013   2.861   1.190   1.573
 8356TIP3    H225014   2.785   1.140   1.695
 8357TIP3   OH225015   5.673   2.832   2.795
 8357TIP3    H125016   5.633   2.793   2.718
 8357TIP3    H225017   5.677   2.926   2.776
 8358TIP3   OH225018   1.651   5.412   2.170
 8358TIP3    H125019   1.703   5.346   2.125
 8358TIP3    H225020   1.582   5.435   2.108
 8359TIP3   OH225021   3.482   7.319   0.731
 8359TIP3    H125022   3.469   7.224   0.728
 8359TIP3    H225023   3.570   7.330   0.764
 8360TIP3   OH225024   1.520   3.851   0.635
 8360TIP3    H125025   1.483   3.927   0.680
 8360TIP3    H225026   1.464   3.778   0.662
 8361TIP3   OH225027   3.611   5.119   0.599
 8361TIP3    H125028   3.676   5.126   0.529
 8361TIP3    H225029   3.616   5.202   0.646
 8362TIP3   OH225030   2.884   4.866   4.476
 8362TIP3    H125031   2.888   4.955   4.512
 8362TIP3    H225032   2.847   4.878   4.389
 8363TIP3   OH225033   5.846   2.294   5.399
 8363TIP3    H125034   5.797   2.281   5.318
 8363TIP3    H225035   5.781   2.325   5.461
 8364TIP3   OH225036   7.562   6.396   2.110
 8364TIP3    H125037   7.473   6.423   2.085
 8364TIP3    H225038   7.569   6.422   2.202
 8365TIP3   OH225039   3.786   1.215   5.236
 8365TIP3    H125040   3.790   1.249   5.147
 8365TIP3    H225041   3.774   1.292   5.291
 8366TIP3   OH225042   1.317   0.749   2.488
 8366TIP3    H125043   1.400   0.776   2.528
 8366TIP3    H225044   1.329   0.656   2.468
 8367TIP3   OH225045   2.588   0.138   6.163
 8367TIP3    H125046   2.680   0.139   6.190
 8367TIP3    H225047   2.581   0.211   6.102
 8368TIP3   OH225048   4.442   1.431   5.538
 8368TIP3    H125049   4.362   1.406   5.583
 8368TIP3    H225050   4.449   1.369   5.465
 8369TIP3   OH225051   2.636   6.896   1.509
 8369TIP3    H125052   2.702   6.832   1.481
 8369TIP3    H225053   2.657   6.913   1.600
 8370TIP3   OH225054   8.146   7.215   0.560
 8370TIP3    H125055   8.240   7.212   0.544
 8370TIP3    H225056   8.107   7.169   0.486
 8371TIP3   OH225057   1.533   4.583   6.243
 8371TIP3    H125058   1.542   4.621   6.330
 8371TIP3    H225059   1.554   4.654   6.183
 8372TIP3   OH225060   0.425   3.748   6.211
 8372TIP3    H125061   0.402   3.730   6.303
 8372TIP3    H225062   0.390   3.674   6.163
 8373TIP3   OH225063   4.826   6.325   4.939
 8373TIP3    H125064   4.913   6.297   4.968
 8373TIP3    H225065   4.766   6.287   5.004
 8374TIP3   OH225066   5.953   2.337   6.384
 8374TIP3    H125067   5.893   2.319   6.455
 8374TIP3    H225068   5.898   2.367   6.312
 8375TIP3   OH225069   2.628   3.852   0.045
 8375TIP3    H125070   2.614   3.758   0.031
 8375TIP3    H225071   2.616   3.891  -0.041
 8376TIP3   OH225072   7.564   1.521   0.393
 8376TIP3    H125073   7.491   1.565   0.437
 8376TIP3    H225074   7.574   1.438   0.439
 8377TIP3   OH225075   3.607   1.905   2.592
 8377TIP3    H125076   3.619   1.836   2.526
 8377TIP3    H225077   3.640   1.867   2.673
 8378TIP3   OH225078   3.715   5.271   3.751
 8378TIP3    H125079   3.748   5.296   3.837
 8378TIP3    H225080   3.780   5.304   3.689
 8379TIP3   OH225081   4.852   2.564   2.160
 8379TIP3    H125082   4.920   2.566   2.228
 8379TIP3    H225083   4.860   2.476   2.122
 8380TIP3   OH225084   4.195   6.631   6.377
 8380TIP3    H125085   4.112   6.593   6.405
 8380TIP3    H225086   4.171   6.698   6.313
 8381TIP3   OH225087   4.848   0.560   3.447
 8381TIP3    H125088   4.810   0.475   3.427
 8381TIP3    H225089   4.935   0.557   3.408
 8382TIP3   OH225090   1.743   3.428   4.097
 8382TIP3    H125091   1.793   3.450   4.175
 8382TIP3    H225092   1.681   3.361   4.125
 8383TIP3   OH225093   2.950   7.641   4.672
 8383TIP3    H125094   2.918   7.551   4.681
 8383TIP3    H225095   3.035   7.632   4.630
 8384TIP3   OH225096   0.027   7.607   3.150
 8384TIP3    H125097   0.114   7.567   3.149
 8384TIP3    H225098  -0.009   7.588   3.063
 8385TIP3   OH225099   0.387   1.565   4.877
 8385TIP3    H125100   0.353   1.614   4.802
 8385TIP3    H225101   0.338   1.600   4.952
 8386TIP3   OH225102   5.678   3.319   0.962
 8386TIP3    H125103   5.742   3.388   0.945
 8386TIP3    H225104   5.601   3.345   0.910
 8387TIP3   OH225105   5.314   1.246   0.458
 8387TIP3    H125106   5.378   1.222   0.391
 8387TIP3    H225107   5.337   1.193   0.534
 8388TIP3   OH225108   6.450   2.885   1.074
 8388TIP3    H125109   6.531   2.859   1.029
 8388TIP3    H225110   6.393   2.917   1.004
 8389TIP3   OH225111   7.098   3.792   1.873
 8389TIP3    H125112   7.161   3.785   1.800
 8389TIP3    H225113   7.019   3.826   1.832
 8390TIP3   OH225114   1.677   7.647   5.100
 8390TIP3    H125115   1.608   7.617   5.041
 8390TIP3    H225116   1.726   7.712   5.050
 8391TIP3   OH225117   5.293   1.527   0.487
 8391TIP3    H125118   5.299   1.432   0.497
 8391TIP3    H225119   5.381   1.554   0.463
 8392TIP3   OH225120   0.425   3.715   0.875
 8392TIP3    H125121   0.500   3.718   0.935
 8392TIP3    H225122   0.398   3.806   0.865
 8393TIP3   OH225123   6.026   4.599   6.524
 8393TIP3    H125124   5.930   4.602   6.527
 8393TIP3    H225125   6.046   4.553   6.442
 8394TIP3   OH225126   3.541   2.356   4.486
 8394TIP3    H125127   3.476   2.358   4.415
 8394TIP3    H225128   3.489   2.361   4.566
 8395TIP3   OH225129   6.234   0.617   4.965
 8395TIP3    H125130   6.143   0.639   4.946
 8395TIP3    H225131   6.277   0.702   4.978
 8396TIP3   OH225132   5.958   7.262   5.373
 8396TIP3    H125133   5.954   7.169   5.352
 8396TIP3    H225134   6.038   7.294   5.329
 8397TIP3   OH225135   1.037   4.496   1.269
 8397TIP3    H125136   1.059   4.519   1.359
 8397TIP3    H225137   1.110   4.530   1.217
 8398TIP3   OH225138   2.399   3.831   0.388
 8398TIP3    H125139   2.304   3.839   0.382
 8398TIP3    H225140   2.416   3.738   0.372
 8399TIP3   OH225141   2.776   1.980   3.453
 8399TIP3    H125142   2.732   2.002   3.535
 8399TIP3    H225143   2.829   2.057   3.433
 8400TIP3   OH225144   3.616   3.673   4.958
 8400TIP3    H125145   3.588   3.764   4.958
 8400TIP3    H225146   3.680   3.667   5.029
 8401TIP3   OH225147   5.283   4.336   6.296
 8401TIP3    H125148   5.311   4.267   6.236
 8401TIP3    H225149   5.322   4.416   6.262
 8402TIP3   OH225150   7.593   3.224   3.192
 8402TIP3    H125151   7.516   3.207   3.137
 8402TIP3    H225152   7.659   3.256   3.131
 8403TIP3   OH225153   0.490   7.813   6.055
 8403TIP3    H125154   0.441   7.816   5.974
 8403TIP3    H225155   0.436   7.762   6.115
 8404TIP3   OH225156   5.323   2.354   3.673
 8404TIP3    H125157   5.306   2.263   3.695
 8404TIP3    H225158   5.266   2.404   3.731
 8405TIP3   OH225159   5.528   0.658   1.762
 8405TIP3    H125160   5.498   0.647   1.672
 8405TIP3    H225161   5.520   0.752   1.778
 8406TIP3   OH225162   5.942   7.704   1.903
 8406TIP3    H125163   5.947   7.798   1.889
 8406TIP3    H225164   5.957   7.692   1.997
 8407TIP3   OH225165   2.575   7.426   4.423
 8407TIP3    H125166   2.542   7.503   4.376
 8407TIP3    H225167   2.670   7.431   4.413
 8408TIP3   OH225168   2.504   4.935   6.569
 8408TIP3    H125169   2.547   4.876   6.631
 8408TIP3    H225170   2.460   5.000   6.624
 8409TIP3   OH225171   8.050   0.418   0.707
 8409TIP3    H125172   8.091   0.483   0.765
 8409TIP3    H225173   7.979   0.380   0.760
 8410TIP3   OH225174   6.281   5.198   0.999
 8410TIP3    H125175   6.335   5.249   0.939
 8410TIP3    H225176   6.192   5.232   0.988
 8411TIP3   OH225177   3.266   5.037   0.101
 8411TIP3    H125178   3.353   5.072   0.122
 8411TIP3    H225179   3.242   4.986   0.178
 8412TIP3   OH225180   3.268   7.393   2.566
 8412TIP3    H125181   3.208   7.330   2.606
 8412TIP3    H225182   3.283   7.360   2.478
 8413TIP3   OH225183   3.596   3.745   4.262
 8413TIP3    H125184   3.639   3.659   4.253
 8413TIP3    H225185   3.644   3.787   4.334
 8414TIP3   OH225186   3.602   5.547   1.439
 8414TIP3    H125187   3.617   5.635   1.473
 8414TIP3    H225188   3.506   5.537   1.439
 8415TIP3   OH225189   3.169   2.973   2.645
 8415TIP3    H125190   3.215   3.047   2.685
 8415TIP3    H225191   3.222   2.897   2.668
 8416TIP3   OH225192   8.034   3.919   2.396
 8416TIP3    H125193   7.973   3.900   2.325
 8416TIP3    H225194   8.027   4.014   2.408
 8417TIP3   OH225195   1.282   0.261   2.292
 8417TIP3    H125196   1.267   0.324   2.222
 8417TIP3    H225197   1.199   0.213   2.300
 8418TIP3   OH225198   5.581   1.503   6.240
 8418TIP3    H125199   5.491   1.473   6.251
 8418TIP3    H225200   5.585   1.586   6.289
 8419TIP3   OH225201   4.068   0.941   3.509
 8419TIP3    H125202   4.071   0.955   3.604
 8419TIP3    H225203   4.019   1.016   3.475
 8420TIP3   OH225204   8.057   3.658   4.903
 8420TIP3    H125205   8.114   3.633   4.976
 8420TIP3    H225206   8.117   3.680   4.832
 8421TIP3   OH225207   1.005   3.720   1.629
 8421TIP3    H125208   1.022   3.666   1.552
 8421TIP3    H225209   0.931   3.776   1.604
 8422TIP3   OH225210   3.546   4.598   3.241
 8422TIP3    H125211   3.524   4.629   3.328
 8422TIP3    H225212   3.524   4.670   3.182
 8423TIP3   OH225213   0.708   7.790   2.011
 8423TIP3    H125214   0.802   7.799   1.998
 8423TIP3    H225215   0.673   7.769   1.924
 8424TIP3   OH225216   4.555   2.363   4.762
 8424TIP3    H125217   4.562   2.445   4.810
 8424TIP3    H225218   4.470   2.327   4.789
 8425TIP3   OH225219   7.380   0.969   4.161
 8425TIP3    H125220   7.376   1.045   4.220
 8425TIP3    H225221   7.472   0.945   4.159
 8426TIP3   OH225222   7.666   4.261   0.799
 8426TIP3    H125223   7.604   4.232   0.732
 8426TIP3    H225224   7.750   4.224   0.773
 8427TIP3   OH225225   4.244   0.527   2.903
 8427TIP3    H125226   4.325   0.522   2.954
 8427TIP3    H225227   4.230   0.621   2.891
 8428TIP3   OH225228   3.359   2.775   6.720
 8428TIP3    H125229   3.308   2.779   6.801
 8428TIP3    H225230   3.411   2.856   6.720
 8429TIP3   OH225231   7.832   0.714   0.365
 8429TIP3    H125232   7.908   0.717   0.307
 8429TIP3    H225233   7.780   0.640   0.333
 8430TIP3   OH225234   1.880   6.854   1.632
 8430TIP3    H125235   1.790   6.858   1.665
 8430TIP3    H225236   1.933   6.838   1.709
 8431TIP3   OH225237   0.603   3.336   1.039
 8431TIP3    H125238   0.645   3.252   1.026
 8431TIP3    H225239   0.674   3.395   1.066
 8432TIP3   OH225240   1.189   3.174   5.941
 8432TIP3    H125241   1.226   3.260   5.961
 8432TIP3    H225242   1.265   3.117   5.928
 8433TIP3   OH225243   3.339   4.465   0.243
 8433TIP3    H125244   3.248   4.445   0.220
 8433TIP3    H225245   3.346   4.442   0.335
 8434TIP3   OH225246   3.789   7.458   5.248
 8434TIP3    H125247   3.778   7.374   5.203
 8434TIP3    H225248   3.869   7.494   5.211
 8435TIP3   OH225249   3.022   2.527   2.926
 8435TIP3    H125250   2.960   2.522   2.999
 8435TIP3    H225251   3.106   2.547   2.967
 8436TIP3   OH225252   0.944   0.710   2.978
 8436TIP3    H125253   1.015   0.666   3.023
 8436TIP3    H225254   0.869   0.650   2.985
 8437TIP3   OH225255   7.769   6.996   2.004
 8437TIP3    H125256   7.787   6.943   2.081
 8437TIP3    H225257   7.699   6.949   1.958
 8438TIP3   OH225258   2.026   4.923   1.881
 8438TIP3    H125259   1.960   4.885   1.940
 8438TIP3    H225260   2.039   4.857   1.813
 8439TIP3   OH225261   8.145   0.436   2.349
 8439TIP3    H125262   8.172   0.344   2.354
 8439TIP3    H225263   8.077   0.437   2.281
 8440TIP3   OH225264   5.175   7.819   0.792
 8440TIP3    H125265   5.159   7.792   0.882
 8440TIP3    H225266   5.179   7.736   0.743
 8441TIP3   OH225267   3.445   1.130   6.788
 8441TIP3    H125268   3.527   1.129   6.837
 8441TIP3    H225269   3.435   1.041   6.755
 8442TIP3   OH225270   4.311   2.755   3.905
 8442TIP3    H125271   4.314   2.732   3.998
 8442TIP3    H225272   4.366   2.690   3.862
 8443TIP3   OH225273   3.464   3.817   5.736
 8443TIP3    H125274   3.505   3.731   5.725
 8443TIP3    H225275   3.481   3.840   5.827
 8444TIP3   OH225276   2.679   0.979   4.905
 8444TIP3    H125277   2.728   0.965   4.824
 8444TIP3    H225278   2.638   1.065   4.893
 8445TIP3   OH225279   4.705   4.861   0.897
 8445TIP3    H125280   4.611   4.843   0.897
 8445TIP3    H225281   4.739   4.808   0.970
 8446TIP3   OH225282   5.701   0.499   0.944
 8446TIP3    H125283   5.685   0.587   0.910
 8446TIP3    H225284   5.796   0.489   0.943
 8447TIP3   OH225285   4.211   4.691   4.363
 8447TIP3    H125286   4.133   4.635   4.370
 8447TIP3    H225287   4.282   4.631   4.339
 8448TIP3   OH225288   4.549   2.643   2.737
 8448TIP3    H125289   4.628   2.683   2.774
 8448TIP3    H225290   4.519   2.581   2.804
 8449TIP3   OH225291   1.486   1.352   5.410
 8449TIP3    H125292   1.502   1.367   5.503
 8449TIP3    H225293   1.422   1.280   5.408
 8450TIP3   OH225294   8.012   0.409   0.191
 8450TIP3    H125295   7.919   0.405   0.169
 8450TIP3    H225296   8.020   0.357   0.271
 8451TIP3   OH225297   6.700   3.745   2.664
 8451TIP3    H125298   6.769   3.754   2.729
 8451TIP3    H225299   6.619   3.748   2.715
 8452TIP3   OH225300   8.226   5.968   5.409
 8452TIP3    H125301   8.266   5.915   5.478
 8452TIP3    H225302   8.293   5.974   5.341
 8453TIP3   OH225303   6.644   6.821   6.441
 8453TIP3    H125304   6.636   6.898   6.385
 8453TIP3    H225305   6.689   6.852   6.519
 8454TIP3   OH225306   0.106   3.920   4.472
 8454TIP3    H125307   0.182   3.978   4.474
 8454TIP3    H225308   0.143   3.832   4.486
 8455TIP3   OH225309   1.820   2.125   2.008
 8455TIP3    H125310   1.848   2.048   2.058
 8455TIP3    H225311   1.863   2.115   1.923
 8456TIP3   OH225312   6.905   5.164   4.879
 8456TIP3    H125313   6.869   5.092   4.930
 8456TIP3    H225314   6.922   5.233   4.943
 8457TIP3   OH225315   3.753   6.058   1.947
 8457TIP3    H125316   3.822   6.008   1.989
 8457TIP3    H225317   3.752   6.026   1.857
 8458TIP3   OH225318   7.910   3.849   0.050
 8458TIP3    H125319   7.869   3.915   0.106
 8458TIP3    H225320   7.854   3.772   0.058
 8459TIP3   OH225321   3.655   2.973   5.195
 8459TIP3    H125322   3.750   2.969   5.182
 8459TIP3    H225323   3.629   3.058   5.160
 8460TIP3   OH225324   6.245   3.355   6.182
 8460TIP3    H125325   6.231   3.427   6.122
 8460TIP3    H225326   6.245   3.276   6.127
 8461TIP3   OH225327   7.078   3.021   3.057
 8461TIP3    H125328   7.171   3.036   3.071
 8461TIP3    H225329   7.060   3.056   2.970
 8462TIP3   OH225330   7.950   3.341   6.060
 8462TIP3    H125331   7.916   3.350   5.971
 8462TIP3    H225332   8.042   3.315   6.048
 8463TIP3   OH225333   4.212   6.926   1.894
 8463TIP3    H125334   4.126   6.961   1.870
 8463TIP3    H225335   4.201   6.895   1.984
 8464TIP3   OH225336   5.702   2.843   0.828
 8464TIP3    H125337   5.672   2.927   0.793
 8464TIP3    H225338   5.668   2.841   0.918
 8465TIP3   OH225339   6.993   7.440   0.612
 8465TIP3    H125340   6.934   7.372   0.645
 8465TIP3    H225341   7.061   7.393   0.564
 8466TIP3   OH225342   2.390   1.862   6.557
 8466TIP3    H125343   2.355   1.818   6.635
 8466TIP3    H225344   2.439   1.936   6.591
 8467TIP3   OH225345   3.425   2.186   2.022
 8467TIP3    H125346   3.405   2.244   1.949
 8467TIP3    H225347   3.484   2.120   1.985
 8468TIP3   OH225348   2.444   1.135   1.986
 8468TIP3    H125349   2.393   1.216   1.985
 8468TIP3    H225350   2.431   1.100   2.075
 8469TIP3   OH225351   4.474   6.702   4.093
 8469TIP3    H125352   4.497   6.690   4.001
 8469TIP3    H225353   4.386   6.740   4.091
 8470TIP3   OH225354   0.404   6.162   6.120
 8470TIP3    H125355   0.429   6.161   6.212
 8470TIP3    H225356   0.347   6.086   6.110
 8471TIP3   OH225357   5.598   5.532   3.117
 8471TIP3    H125358   5.511   5.494   3.128
 8471TIP3    H225359   5.615   5.528   3.023
 8472TIP3   OH225360   6.306   5.357   5.542
 8472TIP3    H125361   6.218   5.323   5.557
 8472TIP3    H225362   6.308   5.380   5.449
 8473TIP3   OH225363   5.733   5.549   1.684
 8473TIP3    H125364   5.679   5.499   1.745
 8473TIP3    H225365   5.777   5.614   1.739
 8474TIP3   OH225366   3.831   2.219   6.332
 8474TIP3    H125367   3.759   2.272   6.366
 8474TIP3    H225368   3.892   2.212   6.405
 8475TIP3   OH225369   6.891   0.585   1.715
 8475TIP3    H125370   6.947   0.657   1.685
 8475TIP3    H225371   6.844   0.556   1.637
 8476TIP3   OH225372   1.342   4.654   3.186
 8476TIP3    H125373   1.344   4.564   3.220
 8476TIP3    H225374   1.430   4.668   3.150
 8477TIP3   OH225375   1.128   0.310   0.409
 8477TIP3    H125376   1.209   0.265   0.384
 8477TIP3    H225377   1.071   0.301   0.333
 8478TIP3   OH225378   5.892   6.409   1.261
 8478TIP3    H125379   5.939   6.328   1.284
 8478TIP3    H225380   5.816   6.379   1.212
 8479TIP3   OH225381   3.425   7.497   4.338
 8479TIP3    H125382   3.443   7.433   4.406
 8479TIP3    H225383   3.509   7.540   4.321
 8480TIP3   OH225384   0.429   2.877   4.344
 8480TIP3    H125385   0.445   2.898   4.252
 8480TIP3    H225386   0.505   2.826   4.371
 8481TIP3   OH225387   4.454   0.742   5.003
 8481TIP3    H125388   4.459   0.832   5.035
 8481TIP3    H225389   4.369   0.736   4.961
 8482TIP3   OH225390   3.611   6.612   0.710
 8482TIP3    H125391   3.555   6.541   0.742
 8482TIP3    H225392   3.697   6.594   0.747
 8483TIP3   OH225393   7.404   3.665   3.473
 8483TIP3    H125394   7.456   3.621   3.406
 8483TIP3    H225395   7.460   3.665   3.551
 8484TIP3   OH225396   3.849   4.346   4.060
 8484TIP3    H125397   3.830   4.252   4.050
 8484TIP3    H225398   3.918   4.349   4.127
 8485TIP3   OH225399   4.540   3.472   1.523
 8485TIP3    H125400   4.479   3.499   1.454
 8485TIP3    H225401   4.492   3.488   1.604
 8486TIP3   OH225402   1.536   4.755   2.796
 8486TIP3    H125403   1.518   4.821   2.863
 8486TIP3    H225404   1.624   4.725   2.815
 8487TIP3   OH225405   5.647   6.614   2.434
 8487TIP3    H125406   5.656   6.549   2.503
 8487TIP3    H225407   5.721   6.674   2.448
 8488TIP3   OH225408   0.857   1.132   4.609
 8488TIP3    H125409   0.926   1.138   4.674
 8488TIP3    H225410   0.778   1.111   4.660
 8489TIP3   OH225411   5.470   6.524   4.060
 8489TIP3    H125412   5.410   6.574   4.005
 8489TIP3    H225413   5.461   6.564   4.147
 8490TIP3   OH225414   4.377   5.356   0.822
 8490TIP3    H125415   4.331   5.372   0.904
 8490TIP3    H225416   4.391   5.261   0.820
 8491TIP3   OH225417   1.048   2.873   5.919
 8491TIP3    H125418   1.071   2.915   6.001
 8491TIP3    H225419   0.965   2.913   5.893
 8492TIP3   OH225420   2.511   5.896   2.628
 8492TIP3    H125421   2.562   5.827   2.586
 8492TIP3    H225422   2.426   5.894   2.583
 8493TIP3   OH225423   1.017   4.092   3.616
 8493TIP3    H125424   1.025   4.025   3.548
 8493TIP3    H225425   1.006   4.174   3.568
 8494TIP3   OH225426   5.334   4.756   3.478
 8494TIP3    H125427   5.321   4.764   3.383
 8494TIP3    H225428   5.332   4.846   3.510
 8495TIP3   OH225429   4.287   7.568   0.562
 8495TIP3    H125430   4.256   7.603   0.479
 8495TIP3    H225431   4.315   7.644   0.612
 8496TIP3   OH225432   3.894   6.645   0.828
 8496TIP3    H125433   3.918   6.566   0.778
 8496TIP3    H225434   3.971   6.701   0.821
 8497TIP3   OH225435   7.931   3.916   3.105
 8497TIP3    H125436   7.995   3.912   3.034
 8497TIP3    H225437   7.891   4.003   3.096
 8498TIP3   OH225438   0.419   4.655   2.626
 8498TIP3    H125439   0.463   4.651   2.542
 8498TIP3    H225440   0.327   4.668   2.605
 8499TIP3   OH225441   2.779   2.304   1.495
 8499TIP3    H125442   2.809   2.250   1.422
 8499TIP3    H225443   2.767   2.242   1.567
 8500TIP3   OH225444   1.283   1.754   0.977
 8500TIP3    H125445   1.309   1.830   1.030
 8500TIP3    H225446   1.325   1.770   0.892
 8501TIP3   OH225447   6.342   0.127   1.541
 8501TIP3    H125448   6.338   0.036   1.572
 8501TIP3    H225449   6.342   0.179   1.621
 8502TIP3   OH225450   2.326   5.169   5.054
 8502TIP3    H125451   2.242   5.150   5.012
 8502TIP3    H225452   2.377   5.089   5.042
 8503TIP3   OH225453   8.139   0.114   4.700
 8503TIP3    H125454   8.177   0.081   4.618
 8503TIP3    H225455   8.213   0.152   4.747
 8504TIP3   OH225456   7.830   1.708   0.632
 8504TIP3    H125457   7.786   1.636   0.675
 8504TIP3    H225458   7.923   1.684   0.633
 8505TIP3   OH225459   6.040   6.422   4.359
 8505TIP3    H125460   6.098   6.497   4.373
 8505TIP3    H225461   5.991   6.444   4.280
 8506TIP3   OH225462   5.801   1.786   2.455
 8506TIP3    H125463   5.824   1.867   2.500
 8506TIP3    H225464   5.855   1.785   2.376
 8507TIP3   OH225465   5.281   2.770   4.020
 8507TIP3    H125466   5.272   2.773   4.115
 8507TIP3    H225467   5.261   2.860   3.991
 8508TIP3   OH225468   3.618   0.807   4.314
 8508TIP3    H125469   3.676   0.844   4.247
 8508TIP3    H225470   3.628   0.865   4.389
 8509TIP3   OH225471   3.313   0.022   5.210
 8509TIP3    H125472   3.297   0.033   5.117
 8509TIP3    H225473   3.320   0.111   5.244
 8510TIP3   OH225474   3.799   2.188   6.730
 8510TIP3    H125475   3.826   2.153   6.644
 8510TIP3    H225476   3.821   2.281   6.725
 8511TIP3   OH225477   3.857   3.364   2.732
 8511TIP3    H125478   3.876   3.270   2.737
 8511TIP3    H225479   3.841   3.390   2.823
 8512TIP3   OH225480   5.334   4.278   4.738
 8512TIP3    H125481   5.359   4.212   4.802
 8512TIP3    H225482   5.317   4.357   4.791
 8513TIP3   OH225483   1.319   2.160   2.897
 8513TIP3    H125484   1.383   2.088   2.905
 8513TIP3    H225485   1.315   2.197   2.985
 8514TIP3   OH225486   4.146   1.144   4.160
 8514TIP3    H125487   4.052   1.152   4.144
 8514TIP3    H225488   4.186   1.155   4.073
 8515TIP3   OH225489   3.947   6.480   4.482
 8515TIP3    H125490   3.926   6.562   4.528
 8515TIP3    H225491   4.025   6.448   4.526
 8516TIP3   OH225492   4.411   0.481   5.699
 8516TIP3    H125493   4.385   0.401   5.653
 8516TIP3    H225494   4.344   0.545   5.673
 8517TIP3   OH225495   4.403   1.110   6.664
 8517TIP3    H125496   4.353   1.099   6.745
 8517TIP3    H225497   4.369   1.191   6.626
 8518TIP3   OH225498   0.730   5.911   6.141
 8518TIP3    H125499   0.657   5.890   6.199
 8518TIP3    H225500   0.762   5.995   6.173
 8519TIP3   OH225501   4.977   5.238   5.322
 8519TIP3    H125502   5.072   5.231   5.334
 8519TIP3    H225503   4.958   5.180   5.249
 8520TIP3   OH225504   3.208   2.055   0.574
 8520TIP3    H125505   3.122   2.086   0.604
 8520TIP3    H225506   3.260   2.049   0.653
 8521TIP3   OH225507   7.467   0.495   5.613
 8521TIP3    H125508   7.552   0.513   5.572
 8521TIP3    H225509   7.487   0.430   5.680
 8522TIP3   OH225510   2.746   6.357   5.144
 8522TIP3    H125511   2.651   6.372   5.153
 8522TIP3    H225512   2.786   6.439   5.174
 8523TIP3   OH225513   3.455   1.059   4.377
 8523TIP3    H125514   3.527   1.024   4.430
 8523TIP3    H225515   3.463   1.154   4.384
 8524TIP3   OH225516   0.775   5.057   4.165
 8524TIP3    H125517   0.698   5.111   4.150
 8524TIP3    H225518   0.787   5.008   4.084
 8525TIP3   OH225519   4.750   1.846   3.107
 8525TIP3    H125520   4.805   1.806   3.039
 8525TIP3    H225521   4.728   1.774   3.166
 8526TIP3   OH225522   8.315   1.215   0.084
 8526TIP3    H125523   8.224   1.239   0.066
 8526TIP3    H225524   8.322   1.216   0.179
 8527TIP3   OH225525   0.627   0.276   1.023
 8527TIP3    H125526   0.643   0.361   1.063
 8527TIP3    H225527   0.713   0.236   1.016
 8528TIP3   OH225528   1.671   2.228   1.682
 8528TIP3    H125529   1.736   2.158   1.691
 8528TIP3    H225530   1.680   2.257   1.591
 8529TIP3   OH225531   6.350   2.493   5.703
 8529TIP3    H125532   6.297   2.414   5.693
 8529TIP3    H225533   6.386   2.487   5.791
 8530TIP3   OH225534   1.090   5.670   5.789
 8530TIP3    H125535   1.004   5.684   5.828
 8530TIP3    H225536   1.073   5.657   5.696
 8531TIP3   OH225537   6.349   0.919   6.639
 8531TIP3    H125538   6.317   0.838   6.679
 8531TIP3    H225539   6.384   0.892   6.554
 8532TIP3   OH225540   5.825   3.378   4.160
 8532TIP3    H125541   5.888   3.338   4.101
 8532TIP3    H225542   5.811   3.466   4.124
 8533TIP3   OH225543   1.589   1.456   0.148
 8533TIP3    H125544   1.501   1.465   0.185
 8533TIP3    H225545   1.632   1.392   0.204
 8534TIP3   OH225546   1.543   1.654   4.980
 8534TIP3    H125547   1.615   1.601   5.013
 8534TIP3    H225548   1.472   1.640   5.043
 8535TIP3   OH225549   2.270   3.044   0.961
 8535TIP3    H125550   2.307   3.080   1.042
 8535TIP3    H225551   2.305   3.101   0.892
 8536TIP3   OH225552   0.794   3.480   0.857
 8536TIP3    H125553   0.747   3.501   0.937
 8536TIP3    H225554   0.773   3.553   0.797
 8537TIP3   OH225555   5.770   3.971   5.108
 8537TIP3    H125556   5.775   3.934   5.196
 8537TIP3    H225557   5.855   4.012   5.095
 8538TIP3   OH225558   4.117   1.523   5.038
 8538TIP3    H125559   4.072   1.515   5.122
 8538TIP3    H225560   4.121   1.434   5.005
 8539TIP3   OH225561   5.146   1.785   4.737
 8539TIP3    H125562   5.097   1.863   4.761
 8539TIP3    H225563   5.084   1.733   4.685
 8540TIP3   OH225564   5.342   6.496   2.491
 8540TIP3    H125565   5.425   6.489   2.444
 8540TIP3    H225566   5.360   6.461   2.578
 8541TIP3   OH225567   3.585   3.847   3.086
 8541TIP3    H125568   3.560   3.900   3.010
 8541TIP3    H225569   3.520   3.870   3.153
 8542TIP3   OH225570   4.902   1.529   1.307
 8542TIP3    H125571   4.870   1.501   1.393
 8542TIP3    H225572   4.912   1.624   1.315
 8543TIP3   OH225573   3.818   6.305   2.824
 8543TIP3    H125574   3.726   6.292   2.847
 8543TIP3    H225575   3.826   6.400   2.811
 8544TIP3   OH225576   5.320   3.936   2.356
 8544TIP3    H125577   5.296   3.979   2.273
 8544TIP3    H225578   5.300   4.002   2.423
 8545TIP3   OH225579   0.135   7.767   1.236
 8545TIP3    H125580   0.148   7.701   1.304
 8545TIP3    H225581   0.122   7.717   1.156
 8546TIP3   OH225582   7.225   5.231   4.660
 8546TIP3    H125583   7.288   5.218   4.589
 8546TIP3    H225584   7.193   5.143   4.680
 8547TIP3   OH225585   6.320   2.780   3.180
 8547TIP3    H125586   6.404   2.762   3.223
 8547TIP3    H225587   6.270   2.830   3.245
 8548TIP3   OH225588   2.804   2.118   5.048
 8548TIP3    H125589   2.768   2.032   5.025
 8548TIP3    H225590   2.839   2.152   4.965
 8549TIP3   OH225591   5.520   1.299   2.341
 8549TIP3    H125592   5.557   1.387   2.329
 8549TIP3    H225593   5.582   1.255   2.399
 8550TIP3   OH225594   1.009   5.478   0.865
 8550TIP3    H125595   1.027   5.563   0.903
 8550TIP3    H225596   0.942   5.440   0.922
 8551TIP3   OH225597   5.502   4.595   0.672
 8551TIP3    H125598   5.549   4.650   0.735
 8551TIP3    H225599   5.410   4.603   0.698
 8552TIP3   OH225600   6.381   2.489   3.127
 8552TIP3    H125601   6.332   2.554   3.178
 8552TIP3    H225602   6.354   2.405   3.164
 8553TIP3   OH225603   0.402   6.914   4.160
 8553TIP3    H125604   0.349   6.901   4.239
 8553TIP3    H225605   0.363   6.990   4.117
 8554TIP3   OH225606   4.145   1.977   3.078
 8554TIP3    H125607   4.140   1.982   3.173
 8554TIP3    H225608   4.138   2.068   3.048
 8555TIP3   OH225609   3.650   1.780   1.902
 8555TIP3    H125610   3.625   1.833   1.826
 8555TIP3    H225611   3.686   1.700   1.865
 8556TIP3   OH225612   2.403   6.966   3.062
 8556TIP3    H125613   2.489   6.982   3.023
 8556TIP3    H225614   2.347   6.945   2.988
 8557TIP3   OH225615   3.629   2.657   2.815
 8557TIP3    H125616   3.710   2.695   2.779
 8557TIP3    H225617   3.603   2.718   2.885
 8558TIP3   OH225618   2.692   2.317   6.110
 8558TIP3    H125619   2.738   2.374   6.048
 8558TIP3    H225620   2.733   2.231   6.099
 8559TIP3   OH225621   2.681   6.420   0.066
 8559TIP3    H125622   2.728   6.378  -0.006
 8559TIP3    H225623   2.683   6.514   0.046
 8560TIP3   OH225624   1.183   6.914   4.386
 8560TIP3    H125625   1.198   6.982   4.452
 8560TIP3    H225626   1.089   6.895   4.391
 8561TIP3   OH225627   3.040   7.005   0.393
 8561TIP3    H125628   3.056   6.934   0.331
 8561TIP3    H225629   3.006   7.077   0.340
 8562TIP3   OH225630   2.874   4.086   1.555
 8562TIP3    H125631   2.935   4.160   1.556
 8562TIP3    H225632   2.812   4.107   1.485
 8563TIP3   OH225633   7.926   5.679   2.826
 8563TIP3    H125634   7.934   5.711   2.736
 8563TIP3    H225635   7.961   5.749   2.880
 8564TIP3   OH225636   5.061   7.572   2.562
 8564TIP3    H125637   4.995   7.552   2.628
 8564TIP3    H225638   5.037   7.515   2.488
 8565TIP3   OH225639   0.899   1.182   3.664
 8565TIP3    H125640   0.927   1.188   3.572
 8565TIP3    H225641   0.956   1.244   3.710
 8566TIP3   OH225642   2.000   5.850   4.923
 8566TIP3    H125643   2.019   5.773   4.977
 8566TIP3    H225644   2.058   5.917   4.958
 8567TIP3   OH225645   1.004   4.205   3.301
 8567TIP3    H125646   0.942   4.171   3.237
 8567TIP3    H225647   1.074   4.140   3.304
 8568TIP3   OH225648   6.347   0.551   0.157
 8568TIP3    H125649   6.278   0.492   0.126
 8568TIP3    H225650   6.415   0.493   0.191
 8569TIP3   OH225651   2.247   2.940   0.598
 8569TIP3    H125652   2.198   3.021   0.587
 8569TIP3    H225653   2.188   2.872   0.565
 8570TIP3   OH225654   5.090   7.472   2.309
 8570TIP3    H125655   5.014   7.479   2.251
 8570TIP3    H225656   5.141   7.401   2.272
 8571TIP3   OH225657   2.605   2.747   1.632
 8571TIP3    H125658   2.676   2.803   1.664
 8571TIP3    H225659   2.598   2.677   1.697
 8572TIP3   OH225660   1.661   4.646   3.498
 8572TIP3    H125661   1.607   4.639   3.577
 8572TIP3    H225662   1.695   4.735   3.499
 8573TIP3   OH225663   6.987   2.012   1.025
 8573TIP3    H125664   6.919   2.070   0.992
 8573TIP3    H225665   7.049   2.004   0.952
 8574TIP3   OH225666   0.877   5.117   0.903
 8574TIP3    H125667   0.972   5.122   0.888
 8574TIP3    H225668   0.869   5.059   0.979
 8575TIP3   OH225669   2.207   3.142   5.714
 8575TIP3    H125670   2.231   3.137   5.806
 8575TIP3    H225671   2.290   3.134   5.667
 8576TIP3   OH225672   3.784   7.686   2.736
 8576TIP3    H125673   3.692   7.696   2.710
 8576TIP3    H225674   3.791   7.734   2.819
 8577TIP3   OH225675   2.091   5.113   3.551
 8577TIP3    H125676   1.996   5.102   3.544
 8577TIP3    H225677   2.126   5.078   3.469
 8578TIP3   OH225678   5.487   2.468   0.057
 8578TIP3    H125679   5.432   2.532   0.102
 8578TIP3    H225680   5.531   2.518  -0.012
 8579TIP3   OH225681   1.154   7.006   6.180
 8579TIP3    H125682   1.234   6.988   6.129
 8579TIP3    H225683   1.187   7.032   6.267
 8580TIP3   OH225684   4.156   3.303   4.226
 8580TIP3    H125685   4.201   3.225   4.194
 8580TIP3    H225686   4.074   3.271   4.263
 8581TIP3   OH225687   6.501   0.234   4.739
 8581TIP3    H125688   6.483   0.288   4.816
 8581TIP3    H225689   6.571   0.175   4.767
 8582TIP3   OH225690   2.083   7.549   2.353
 8582TIP3    H125691   2.055   7.590   2.271
 8582TIP3    H225692   2.033   7.467   2.356
 8583TIP3   OH225693   1.635   3.412   5.105
 8583TIP3    H125694   1.675   3.420   5.018
 8583TIP3    H225695   1.586   3.493   5.116
 8584TIP3   OH225696   8.211   0.219   3.271
 8584TIP3    H125697   8.136   0.256   3.225
 8584TIP3    H225698   8.282   0.223   3.208
 8585TIP3   OH225699   6.181   2.498   4.985
 8585TIP3    H125700   6.224   2.413   4.988
 8585TIP3    H225701   6.089   2.478   4.967
 8586TIP3   OH225702   8.160   4.377   2.064
 8586TIP3    H125703   8.093   4.319   2.027
 8586TIP3    H225704   8.111   4.451   2.099
 8587TIP3   OH225705   4.638   4.643   5.796
 8587TIP3    H125706   4.671   4.732   5.801
 8587TIP3    H225707   4.675   4.607   5.715
 8588TIP3   OH225708   1.429   3.767   3.410
 8588TIP3    H125709   1.476   3.688   3.438
 8588TIP3    H225710   1.479   3.839   3.447
 8589TIP3   OH225711   1.509   5.955   0.689
 8589TIP3    H125712   1.541   5.980   0.776
 8589TIP3    H225713   1.417   5.933   0.703
 8590TIP3   OH225714   7.559   7.380   4.770
 8590TIP3    H125715   7.646   7.362   4.805
 8590TIP3    H225716   7.569   7.463   4.724
 8591TIP3   OH225717   0.218   3.069   3.049
 8591TIP3    H125718   0.243   2.985   3.009
 8591TIP3    H225719   0.193   3.046   3.139
 8592TIP3   OH225720   2.502   3.836   1.115
 8592TIP3    H125721   2.471   3.844   1.205
 8592TIP3    H225722   2.439   3.777   1.073
 8593TIP3   OH225723   1.001   5.603   5.520
 8593TIP3    H125724   1.043   5.518   5.534
 8593TIP3    H225725   0.908   5.585   5.517
 8594TIP3   OH225726   7.332   6.186   3.672
 8594TIP3    H125727   7.281   6.123   3.620
 8594TIP3    H225728   7.383   6.235   3.607
 8595TIP3   OH225729   6.420   2.536   1.715
 8595TIP3    H125730   6.500   2.519   1.764
 8595TIP3    H225731   6.350   2.508   1.774
 8596TIP3   OH225732   5.789   5.123   6.485
 8596TIP3    H125733   5.819   5.035   6.461
 8596TIP3    H225734   5.711   5.108   6.538
 8597TIP3   OH225735   6.256   6.720   3.058
 8597TIP3    H125736   6.348   6.742   3.076
 8597TIP3    H225737   6.251   6.625   3.070
 8598TIP3   OH225738   3.634   4.696   4.079
 8598TIP3    H125739   3.628   4.605   4.109
 8598TIP3    H225740   3.652   4.746   4.159
 8599TIP3   OH225741   7.703   0.661   5.227
 8599TIP3    H125742   7.692   0.696   5.139
 8599TIP3    H225743   7.644   0.585   5.230
 8600TIP3   OH225744   6.049   2.949   5.056
 8600TIP3    H125745   6.109   3.013   5.017
 8600TIP3    H225746   6.018   2.991   5.137
 8601TIP3   OH225747   1.390   4.281   2.618
 8601TIP3    H125748   1.472   4.258   2.576
 8601TIP3    H225749   1.405   4.265   2.711
 8602TIP3   OH225750   2.237   5.048   2.250
 8602TIP3    H125751   2.317   4.995   2.242
 8602TIP3    H225752   2.246   5.092   2.334
 8603TIP3   OH225753   7.529   2.995   4.016
 8603TIP3    H125754   7.536   3.073   4.070
 8603TIP3    H225755   7.489   3.026   3.934
 8604TIP3   OH225756   3.060   1.944   2.968
 8604TIP3    H125757   3.111   1.985   2.899
 8604TIP3    H225758   2.982   1.999   2.977
 8605TIP3   OH225759   0.628   7.563   6.527
 8605TIP3    H125760   0.708   7.595   6.487
 8605TIP3    H225761   0.578   7.524   6.455
 8606TIP3   OH225762   2.388   0.821   2.797
 8606TIP3    H125763   2.462   0.810   2.857
 8606TIP3    H225764   2.405   0.759   2.727
 8607TIP3   OH225765   3.450   3.845   0.650
 8607TIP3    H125766   3.462   3.750   0.658
 8607TIP3    H225767   3.520   3.882   0.704
 8608TIP3   OH225768   5.943   6.679   0.148
 8608TIP3    H125769   5.943   6.627   0.229
 8608TIP3    H225770   5.904   6.763   0.173
 8609TIP3   OH225771   3.309   0.851   3.878
 8609TIP3    H125772   3.331   0.853   3.971
 8609TIP3    H225773   3.258   0.930   3.863
 8610TIP3   OH225774   2.666   3.401   0.268
 8610TIP3    H125775   2.716   3.453   0.331
 8610TIP3    H225776   2.732   3.346   0.225
 8611TIP3   OH225777   5.465   1.657   4.550
 8611TIP3    H125778   5.480   1.611   4.632
 8611TIP3    H225779   5.539   1.633   4.495
 8612TIP3   OH225780   1.859   3.981   3.984
 8612TIP3    H125781   1.799   3.909   3.967
 8612TIP3    H225782   1.869   3.982   4.079
 8613TIP3   OH225783   5.683   7.673   3.163
 8613TIP3    H125784   5.698   7.584   3.193
 8613TIP3    H225785   5.769   7.715   3.166
 8614TIP3   OH225786   3.870   4.852   1.824
 8614TIP3    H125787   3.887   4.808   1.740
 8614TIP3    H225788   3.945   4.911   1.835
 8615TIP3   OH225789   1.885   0.435   5.286
 8615TIP3    H125790   1.948   0.370   5.316
 8615TIP3    H225791   1.897   0.509   5.345
 8616TIP3   OH225792   6.683   2.921   2.667
 8616TIP3    H125793   6.690   3.004   2.620
 8616TIP3    H225794   6.591   2.897   2.661
 8617TIP3   OH225795   2.929   3.885   3.934
 8617TIP3    H125796   2.891   3.904   4.020
 8617TIP3    H225797   3.021   3.866   3.953
 8618TIP3   OH225798   0.133   7.092   1.374
 8618TIP3    H125799   0.108   7.092   1.281
 8618TIP3    H225800   0.050   7.084   1.421
 8619TIP3   OH225801   6.990   7.820   3.274
 8619TIP3    H125802   7.066   7.873   3.300
 8619TIP3    H225803   7.026   7.756   3.213
 8620TIP3   OH225804   3.251   0.732   0.577
 8620TIP3    H125805   3.172   0.785   0.562
 8620TIP3    H225806   3.324   0.790   0.553
 8621TIP3   OH225807   4.757   3.833   5.720
 8621TIP3    H125808   4.709   3.750   5.712
 8621TIP3    H225809   4.837   3.820   5.670
 8622TIP3   OH225810   5.483   0.270   6.346
 8622TIP3    H125811   5.414   0.216   6.308
 8622TIP3    H225812   5.495   0.341   6.283
 8623TIP3   OH225813   2.584   7.117   4.730
 8623TIP3    H125814   2.587   7.122   4.634
 8623TIP3    H225815   2.497   7.149   4.753
 8624TIP3   OH225816   4.401   1.641   6.532
 8624TIP3    H125817   4.453   1.562   6.516
 8624TIP3    H225818   4.437   1.706   6.472
 8625TIP3   OH225819   3.841   2.564   5.884
 8625TIP3    H125820   3.830   2.513   5.804
 8625TIP3    H225821   3.927   2.605   5.874
 8626TIP3   OH225822   3.651   2.089   2.383
 8626TIP3    H125823   3.742   2.063   2.370
 8626TIP3    H225824   3.623   2.042   2.462
 8627TIP3   OH225825   3.945   2.795   2.205
 8627TIP3    H125826   4.023   2.751   2.171
 8627TIP3    H225827   3.872   2.755   2.158
 8628TIP3   OH225828   6.830   2.706   6.209
 8628TIP3    H125829   6.804   2.664   6.127
 8628TIP3    H225830   6.846   2.634   6.270
 8629TIP3   OH225831   1.711   1.877   3.174
 8629TIP3    H125832   1.759   1.943   3.225
 8629TIP3    H225833   1.761   1.796   3.187
 8630TIP3   OH225834   5.420   6.569   4.573
 8630TIP3    H125835   5.437   6.561   4.479
 8630TIP3    H225836   5.335   6.526   4.586
 8631TIP3   OH225837   6.508   1.736   6.631
 8631TIP3    H125838   6.548   1.780   6.556
 8631TIP3    H225839   6.581   1.721   6.692
 8632TIP3   OH225840   1.432   1.782   2.775
 8632TIP3    H125841   1.445   1.800   2.868
 8632TIP3    H225842   1.337   1.788   2.763
 8633TIP3   OH225843   1.800   5.469   1.847
 8633TIP3    H125844   1.706   5.457   1.835
 8633TIP3    H225845   1.820   5.552   1.805
 8634TIP3   OH225846   2.359   4.977   6.032
 8634TIP3    H125847   2.429   5.032   6.067
 8634TIP3    H225848   2.287   4.985   6.095
 8635TIP3   OH225849   4.655   5.289   1.409
 8635TIP3    H125850   4.726   5.282   1.472
 8635TIP3    H225851   4.666   5.376   1.370
 8636TIP3   OH225852   6.475   4.877   2.131
 8636TIP3    H125853   6.510   4.959   2.164
 8636TIP3    H225854   6.385   4.874   2.165
 8637TIP3   OH225855   6.218   4.491   5.276
 8637TIP3    H125856   6.132   4.493   5.318
 8637TIP3    H225857   6.218   4.568   5.218
 8638TIP3   OH225858   3.335   4.225   1.984
 8638TIP3    H125859   3.376   4.150   2.026
 8638TIP3    H225860   3.388   4.240   1.905
 8639TIP3   OH225861   1.956   2.028   4.382
 8639TIP3    H125862   1.974   1.935   4.395
 8639TIP3    H225863   2.033   2.061   4.335
 8640TIP3   OH225864   5.125   6.005   6.237
 8640TIP3    H125865   5.212   5.964   6.238
 8640TIP3    H225866   5.064   5.932   6.230
 8641TIP3   OH225867   3.049   6.314   4.084
 8641TIP3    H125868   3.032   6.234   4.034
 8641TIP3    H225869   3.051   6.383   4.017
 8642TIP3   OH225870   8.006   2.497   5.233
 8642TIP3    H125871   7.962   2.555   5.295
 8642TIP3    H225872   7.934   2.453   5.187
 8643TIP3   OH225873   0.726   0.551   2.998
 8643TIP3    H125874   0.674   0.522   2.923
 8643TIP3    H225875   0.661   0.581   3.061
 8644TIP3   OH225876   7.756   0.507   0.161
 8644TIP3    H125877   7.678   0.521   0.215
 8644TIP3    H225878   7.722   0.478   0.077
 8645TIP3   OH225879   4.432   6.074   0.143
 8645TIP3    H125880   4.478   6.129   0.079
 8645TIP3    H225881   4.388   6.008   0.089
 8646TIP3   OH225882   4.456   7.663   0.045
 8646TIP3    H125883   4.532   7.606   0.033
 8646TIP3    H225884   4.491   7.752   0.044
 8647TIP3   OH225885   2.442   7.430   3.118
 8647TIP3    H125886   2.415   7.410   3.207
 8647TIP3    H225887   2.378   7.385   3.062
 8648TIP3   OH225888   5.302   4.286   3.852
 8648TIP3    H125889   5.280   4.193   3.851
 8648TIP3    H225890   5.234   4.326   3.907
 8649TIP3   OH225891   6.593   1.683   4.660
 8649TIP3    H125892   6.629   1.605   4.616
 8649TIP3    H225893   6.585   1.657   4.751
 8650TIP3   OH225894   8.126   1.016   1.268
 8650TIP3    H125895   8.213   1.048   1.241
 8650TIP3    H225896   8.143   0.969   1.349
 8651TIP3   OH225897   5.113   6.689   3.929
 8651TIP3    H125898   5.086   6.754   3.994
 8651TIP3    H225899   5.166   6.737   3.866
 8652TIP3   OH225900   5.594   0.132   3.486
 8652TIP3    H125901   5.622   0.192   3.555
 8652TIP3    H225902   5.505   0.106   3.512
 8653TIP3   OH225903   0.379   4.204   6.746
 8653TIP3    H125904   0.419   4.133   6.798
 8653TIP3    H225905   0.313   4.160   6.692
 8654TIP3   OH225906   4.098   4.344   4.955
 8654TIP3    H125907   4.084   4.252   4.934
 8654TIP3    H225908   4.013   4.385   4.938
 8655TIP3   OH225909   1.644   5.488   3.674
 8655TIP3    H125910   1.734   5.508   3.648
 8655TIP3    H225911   1.626   5.548   3.746
 8656TIP3   OH225912   6.567   1.896   3.990
 8656TIP3    H125913   6.517   1.876   4.070
 8656TIP3    H225914   6.507   1.951   3.939
 8657TIP3   OH225915   6.931   3.779   3.384
 8657TIP3    H125916   7.001   3.754   3.444
 8657TIP3    H225917   6.877   3.701   3.376
 8658TIP3   OH225918   7.378   4.938   1.056
 8658TIP3    H125919   7.362   4.995   1.131
 8658TIP3    H225920   7.382   4.850   1.093
 8659TIP3   OH225921   1.407   2.738   4.831
 8659TIP3    H125922   1.498   2.722   4.807
 8659TIP3    H225923   1.378   2.657   4.874
 8660TIP3   OH225924   6.251   3.619   1.788
 8660TIP3    H125925   6.335   3.664   1.776
 8660TIP3    H225926   6.236   3.621   1.882
 8661TIP3   OH225927   0.696   5.020   2.698
 8661TIP3    H125928   0.616   5.070   2.685
 8661TIP3    H225929   0.667   4.939   2.739
 8662TIP3   OH225930   3.850   2.772   2.676
 8662TIP3    H125931   3.909   2.774   2.601
 8662TIP3    H225932   3.891   2.710   2.737
 8663TIP3   OH225933   2.063   6.318   4.676
 8663TIP3    H125934   2.122   6.275   4.614
 8663TIP3    H225935   1.979   6.321   4.631
 8664TIP3   OH225936   5.462   7.676   6.374
 8664TIP3    H125937   5.453   7.741   6.304
 8664TIP3    H225938   5.546   7.633   6.357
 8665TIP3   OH225939   1.004   1.375   4.782
 8665TIP3    H125940   0.950   1.381   4.861
 8665TIP3    H225941   1.042   1.287   4.786
 8666TIP3   OH225942   2.660   1.807   6.246
 8666TIP3    H125943   2.565   1.821   6.238
 8666TIP3    H225944   2.680   1.744   6.176
 8667TIP3   OH225945   2.843   6.610   4.643
 8667TIP3    H125946   2.907   6.638   4.708
 8667TIP3    H225947   2.865   6.661   4.565
 8668TIP3   OH225948   3.150   1.074   1.281
 8668TIP3    H125949   3.227   1.093   1.227
 8668TIP3    H225950   3.185   1.061   1.369
 8669TIP3   OH225951   1.935   1.638   5.865
 8669TIP3    H125952   1.864   1.585   5.829
 8669TIP3    H225953   1.894   1.722   5.885
 8670TIP3   OH225954   6.264   3.914   4.357
 8670TIP3    H125955   6.283   3.997   4.402
 8670TIP3    H225956   6.224   3.859   4.425
 8671TIP3   OH225957   3.046   4.399   3.155
 8671TIP3    H125958   3.051   4.380   3.249
 8671TIP3    H225959   3.137   4.410   3.128
 8672TIP3   OH225960   1.460   0.539   4.512
 8672TIP3    H125961   1.443   0.494   4.595
 8672TIP3    H225962   1.556   0.544   4.507
 8673TIP3   OH225963   3.189   0.410   1.115
 8673TIP3    H125964   3.169   0.357   1.192
 8673TIP3    H225965   3.133   0.374   1.046
 8674TIP3   OH225966   0.433   4.230   2.946
 8674TIP3    H125967   0.480   4.271   3.018
 8674TIP3    H225968   0.361   4.183   2.989
 8675TIP3   OH225969   2.366   5.785   0.252
 8675TIP3    H125970   2.341   5.698   0.222
 8675TIP3    H225971   2.419   5.820   0.180
 8676TIP3   OH225972   2.487   6.961   1.259
 8676TIP3    H125973   2.533   6.915   1.329
 8676TIP3    H225974   2.401   6.983   1.296
 8677TIP3   OH225975   3.226   5.977   3.269
 8677TIP3    H125976   3.147   6.013   3.310
 8677TIP3    H225977   3.194   5.910   3.209
 8678TIP3   OH225978   7.057   3.140   1.605
 8678TIP3    H125979   7.066   3.045   1.590
 8678TIP3    H225980   7.105   3.179   1.531
 8679TIP3   OH225981   2.518   2.848   2.647
 8679TIP3    H125982   2.571   2.928   2.642
 8679TIP3    H225983   2.551   2.794   2.576
 8680TIP3   OH225984   7.313   1.106   5.096
 8680TIP3    H125985   7.221   1.085   5.112
 8680TIP3    H225986   7.316   1.202   5.096
 8681TIP3   OH225987   0.652   6.492   2.999
 8681TIP3    H125988   0.640   6.517   2.907
 8681TIP3    H225989   0.694   6.568   3.040
 8682TIP3   OH225990   2.057   0.930   3.907
 8682TIP3    H125991   2.031   0.912   3.997
 8682TIP3    H225992   2.135   0.985   3.915
 8683TIP3   OH225993   2.035   4.138   2.101
 8683TIP3    H125994   1.965   4.174   2.046
 8683TIP3    H225995   2.076   4.071   2.046
 8684TIP3   OH225996   7.840   6.420   1.276
 8684TIP3    H125997   7.792   6.339   1.260
 8684TIP3    H225998   7.926   6.391   1.307
 8685TIP3   OH225999   1.364   5.355   6.398
 8685TIP3    H126000   1.329   5.267   6.409
 8685TIP3    H226001   1.390   5.359   6.306
 8686TIP3   OH226002   6.442   2.862   5.077
 8686TIP3    H126003   6.470   2.929   5.016
 8686TIP3    H226004   6.407   2.792   5.022
 8687TIP3   OH226005   6.505   3.758   4.257
 8687TIP3    H126006   6.458   3.681   4.223
 8687TIP3    H226007   6.435   3.819   4.280
 8688TIP3   OH226008   1.630   4.411   2.279
 8688TIP3    H126009   1.615   4.361   2.359
 8688TIP3    H226010   1.569   4.485   2.284
 8689TIP3   OH226011   7.282   5.744   5.137
 8689TIP3    H126012   7.339   5.701   5.200
 8689TIP3    H226013   7.218   5.792   5.190
 8690TIP3   OH226014   7.651   1.277   3.520
 8690TIP3    H126015   7.570   1.270   3.570
 8690TIP3    H226016   7.642   1.358   3.469
 8691TIP3   OH226017   5.064   7.221   3.409
 8691TIP3    H126018   5.032   7.190   3.324
 8691TIP3    H226019   5.158   7.234   3.396
 8692TIP3   OH226020   2.481   7.297   5.946
 8692TIP3    H126021   2.396   7.278   5.986
 8692TIP3    H226022   2.506   7.382   5.981
 8693TIP3   OH226023   8.054   6.623   5.290
 8693TIP3    H126024   8.047   6.540   5.244
 8693TIP3    H226025   7.979   6.623   5.350
 8694TIP3   OH226026   6.517   0.046   5.866
 8694TIP3    H126027   6.598   0.051   5.916
 8694TIP3    H226028   6.457   0.106   5.911
 8695TIP3   OH226029   2.004   3.524   2.868
 8695TIP3    H126030   1.965   3.562   2.789
 8695TIP3    H226031   1.941   3.457   2.895
 8696TIP3   OH226032   3.938   3.403   1.314
 8696TIP3    H126033   3.930   3.331   1.377
 8696TIP3    H226034   3.945   3.360   1.229
 8697TIP3   OH226035   3.038   3.137   2.976
 8697TIP3    H126036   2.968   3.200   2.992
 8697TIP3    H226037   3.073   3.162   2.890
 8698TIP3   OH226038   4.802   7.823   4.319
 8698TIP3    H126039   4.722   7.792   4.362
 8698TIP3    H226040   4.872   7.800   4.381
 8699TIP3   OH226041   3.780   3.613   1.296
 8699TIP3    H126042   3.762   3.648   1.383
 8699TIP3    H226043   3.821   3.528   1.311
 8700TIP3   OH226044   5.876   6.644   4.488
 8700TIP3    H126045   5.796   6.689   4.514
 8700TIP3    H226046   5.847   6.574   4.429
 8701TIP3   OH226047   6.962   0.094   0.123
 8701TIP3    H126048   7.049   0.127   0.100
 8701TIP3    H226049   6.958   0.006   0.084
 8702TIP3   OH226050   3.165   0.692   1.190
 8702TIP3    H126051   3.167   0.609   1.143
 8702TIP3    H226052   3.086   0.736   1.158
 8703TIP3   OH226053   8.189   4.059   4.723
 8703TIP3    H126054   8.165   4.029   4.636
 8703TIP3    H226055   8.116   4.115   4.750
 8704TIP3   OH226056   4.115   5.534   6.327
 8704TIP3    H126057   4.100   5.441   6.310
 8704TIP3    H226058   4.028   5.571   6.339
 8705TIP3   OH226059   7.393   0.966   2.970
 8705TIP3    H126060   7.407   1.042   2.914
 8705TIP3    H226061   7.299   0.951   2.967
 8706TIP3   OH226062   2.687   1.736   5.455
 8706TIP3    H126063   2.774   1.742   5.495
 8706TIP3    H226064   2.648   1.659   5.495
 8707TIP3   OH226065   2.771   6.140   1.905
 8707TIP3    H126066   2.790   6.221   1.858
 8707TIP3    H226067   2.852   6.120   1.953
 8708TIP3   OH226068   4.848   5.005   0.709
 8708TIP3    H126069   4.940   4.982   0.725
 8708TIP3    H226070   4.801   4.966   0.783
 8709TIP3   OH226071   0.094   0.665   1.777
 8709TIP3    H126072   0.158   0.596   1.759
 8709TIP3    H226073   0.134   0.745   1.742
 8710TIP3   OH226074   8.288   5.477   6.695
 8710TIP3    H126075   8.218   5.519   6.645
 8710TIP3    H226076   8.297   5.532   6.773
 8711TIP3   OH226077   6.832   5.157   3.597
 8711TIP3    H126078   6.810   5.235   3.649
 8711TIP3    H226079   6.747   5.117   3.578
 8712TIP3   OH226080   6.818   3.007   4.463
 8712TIP3    H126081   6.828   2.976   4.553
 8712TIP3    H226082   6.723   3.013   4.450
 8713TIP3   OH226083   3.443   6.400   0.895
 8713TIP3    H126084   3.458   6.404   0.990
 8713TIP3    H226085   3.473   6.314   0.869
 8714TIP3   OH226086   6.552   1.931   2.549
 8714TIP3    H126087   6.535   1.957   2.640
 8714TIP3    H226088   6.644   1.955   2.534
 8715TIP3   OH226089   3.192   6.249   4.566
 8715TIP3    H126090   3.109   6.278   4.529
 8715TIP3    H226091   3.259   6.295   4.516
 8716TIP3   OH226092   4.386   3.168   4.568
 8716TIP3    H126093   4.408   3.203   4.482
 8716TIP3    H226094   4.313   3.108   4.552
 8717TIP3   OH226095   7.242   3.379   0.145
 8717TIP3    H126096   7.166   3.342   0.099
 8717TIP3    H226097   7.257   3.463   0.102
 8718TIP3   OH226098   7.502   7.119   0.400
 8718TIP3    H126099   7.587   7.135   0.441
 8718TIP3    H226100   7.444   7.093   0.472
 8719TIP3   OH226101   3.475   3.698   1.283
 8719TIP3    H126102   3.449   3.707   1.374
 8719TIP3    H226103   3.498   3.787   1.255
 8720TIP3   OH226104   1.913   2.329   6.751
 8720TIP3    H126105   1.895   2.266   6.682
 8720TIP3    H226106   1.985   2.381   6.718
 8721TIP3   OH226107   1.674   1.669   3.426
 8721TIP3    H126108   1.714   1.625   3.350
 8721TIP3    H226109   1.580   1.668   3.407
 8722TIP3   OH226110   5.823   4.452   2.100
 8722TIP3    H126111   5.769   4.379   2.133
 8722TIP3    H226112   5.776   4.485   2.024
 8723TIP3   OH226113   3.964   4.105   1.268
 8723TIP3    H126114   3.992   4.162   1.339
 8723TIP3    H226115   3.895   4.153   1.224
 8724TIP3   OH226116   5.410   7.609   3.827
 8724TIP3    H126117   5.500   7.609   3.795
 8724TIP3    H226118   5.386   7.516   3.829
 8725TIP3   OH226119   4.193   1.434   6.340
 8725TIP3    H126120   4.152   1.501   6.286
 8725TIP3    H226121   4.176   1.461   6.430
 8726TIP3   OH226122   4.794   0.902   4.250
 8726TIP3    H126123   4.700   0.894   4.266
 8726TIP3    H226124   4.812   0.996   4.257
 8727TIP3   OH226125   4.354   3.253   1.844
 8727TIP3    H126126   4.311   3.255   1.929
 8727TIP3    H226127   4.330   3.168   1.807
 8728TIP3   OH226128   6.325   7.676   3.822
 8728TIP3    H126129   6.408   7.678   3.869
 8728TIP3    H226130   6.331   7.747   3.757
 8729TIP3   OH226131   0.328   1.401   4.345
 8729TIP3    H126132   0.403   1.459   4.335
 8729TIP3    H226133   0.260   1.438   4.288
 8730TIP3   OH226134   3.067   4.896   5.904
 8730TIP3    H126135   3.102   4.852   5.982
 8730TIP3    H226136   3.007   4.962   5.938
 8731TIP3   OH226137   6.457   3.513   0.053
 8731TIP3    H126138   6.362   3.523   0.045
 8731TIP3    H226139   6.470   3.480   0.142
 8732TIP3   OH226140   0.229   4.836   3.434
 8732TIP3    H126141   0.256   4.926   3.418
 8732TIP3    H226142   0.268   4.785   3.363
 8733TIP3   OH226143   6.211   3.897   6.364
 8733TIP3    H126144   6.261   3.917   6.443
 8733TIP3    H226145   6.195   3.802   6.369
 8734TIP3   OH226146   6.924   5.391   6.521
 8734TIP3    H126147   7.001   5.359   6.474
 8734TIP3    H226148   6.943   5.373   6.613
 8735TIP3   OH226149   3.856   0.639   6.646
 8735TIP3    H126150   3.890   0.655   6.734
 8735TIP3    H226151   3.784   0.577   6.659
 8736TIP3   OH226152   7.749   4.041   2.383
 8736TIP3    H126153   7.728   4.087   2.302
 8736TIP3    H226154   7.804   4.102   2.433
 8737TIP3   OH226155   0.907   0.690   6.582
 8737TIP3    H126156   0.924   0.645   6.499
 8737TIP3    H226157   0.896   0.619   6.646
 8738TIP3   OH226158   1.040   1.464   5.145
 8738TIP3    H126159   1.001   1.512   5.072
 8738TIP3    H226160   0.994   1.498   5.222
 8739TIP3   OH226161   2.292   6.496   0.395
 8739TIP3    H126162   2.250   6.418   0.430
 8739TIP3    H226163   2.363   6.463   0.340
 8740TIP3   OH226164   8.280   1.440   0.639
 8740TIP3    H126165   8.287   1.358   0.590
 8740TIP3    H226166   8.369   1.455   0.673
 8741TIP3   OH226167   7.168   5.448   2.994
 8741TIP3    H126168   7.112   5.457   2.917
 8741TIP3    H226169   7.111   5.411   3.061
 8742TIP3   OH226170   4.338   4.246   5.549
 8742TIP3    H126171   4.339   4.185   5.622
 8742TIP3    H226172   4.429   4.276   5.541
 8743TIP3   OH226173   5.202   7.768   3.256
 8743TIP3    H126174   5.210   7.725   3.341
 8743TIP3    H226175   5.124   7.824   3.265
 8744TIP3   OH226176   2.980   4.401   2.428
 8744TIP3    H126177   3.032   4.384   2.506
 8744TIP3    H226178   3.040   4.387   2.355
 8745TIP3   OH226179   5.282   3.280   3.923
 8745TIP3    H126180   5.284   3.311   3.833
 8745TIP3    H226181   5.335   3.344   3.971
 8746TIP3   OH226182   0.172   5.562   4.581
 8746TIP3    H126183   0.117   5.504   4.529
 8746TIP3    H226184   0.112   5.631   4.611
 8747TIP3   OH226185   6.489   3.754   1.778
 8747TIP3    H126186   6.477   3.827   1.716
 8747TIP3    H226187   6.481   3.795   1.864
 8748TIP3   OH226188   5.466   3.965   4.103
 8748TIP3    H126189   5.389   3.987   4.156
 8748TIP3    H226190   5.460   4.023   4.027
 8749TIP3   OH226191   6.451   2.335   3.700
 8749TIP3    H126192   6.357   2.322   3.712
 8749TIP3    H226193   6.481   2.255   3.657
 8750TIP3   OH226194   3.557   6.041   5.365
 8750TIP3    H126195   3.560   6.099   5.289
 8750TIP3    H226196   3.638   5.990   5.360
 8751TIP3   OH226197   3.714   2.573   5.007
 8751TIP3    H126198   3.646   2.538   5.063
 8751TIP3    H226199   3.739   2.500   4.950
 8752TIP3   OH226200   7.982   1.382   3.381
 8752TIP3    H126201   8.064   1.341   3.355
 8752TIP3    H226202   8.008   1.454   3.438
 8753TIP3   OH226203   2.464   0.970   0.411
 8753TIP3    H126204   2.461   1.066   0.412
 8753TIP3    H226205   2.535   0.948   0.471
 8754TIP3   OH226206   6.151   4.722   5.489
 8754TIP3    H126207   6.151   4.742   5.395
 8754TIP3    H226208   6.235   4.753   5.521
 8755TIP3   OH226209   0.973   3.817   6.376
 8755TIP3    H126210   1.043   3.871   6.412
 8755TIP3    H226211   0.897   3.838   6.431
 8756TIP3   OH226212   2.867   3.858   6.157
 8756TIP3    H126213   2.936   3.920   6.131
 8756TIP3    H226214   2.906   3.772   6.144
 8757TIP3   OH226215   3.598   2.706   2.488
 8757TIP3    H126216   3.651   2.650   2.544
 8757TIP3    H226217   3.609   2.669   2.400
 8758TIP3   OH226218   6.992   2.372   3.242
 8758TIP3    H126219   6.969   2.332   3.326
 8758TIP3    H226220   6.952   2.459   3.244
 8759TIP3   OH226221   0.410   2.455   6.255
 8759TIP3    H126222   0.495   2.427   6.221
 8759TIP3    H226223   0.367   2.373   6.281
 8760TIP3   OH226224   0.304   3.266   5.463
 8760TIP3    H126225   0.225   3.226   5.428
 8760TIP3    H226226   0.371   3.249   5.397
 8761TIP3   OH226227   3.530   1.438   4.772
 8761TIP3    H126228   3.508   1.454   4.864
 8761TIP3    H226229   3.616   1.478   4.761
 8762TIP3   OH226230   5.987   1.031   3.632
 8762TIP3    H126231   6.070   1.012   3.675
 8762TIP3    H226232   5.985   1.126   3.624
 8763TIP3   OH226233   4.506   5.837   6.546
 8763TIP3    H126234   4.459   5.918   6.527
 8763TIP3    H226235   4.443   5.768   6.525
 8764TIP3   OH226236   8.276   4.231   6.467
 8764TIP3    H126237   8.243   4.313   6.505
 8764TIP3    H226238   8.308   4.257   6.380
 8765TIP3   OH226239   6.305   0.666   6.743
 8765TIP3    H126240   6.343   0.692   6.828
 8765TIP3    H226241   6.245   0.595   6.765
 8766TIP3   OH226242   1.790   0.339   4.935
 8766TIP3    H126243   1.757   0.268   4.990
 8766TIP3    H226244   1.736   0.415   4.959
 8767TIP3   OH226245   3.932   5.385   3.594
 8767TIP3    H126246   3.981   5.445   3.651
 8767TIP3    H226247   3.999   5.338   3.545
 8768TIP3   OH226248   2.329   6.887   4.025
 8768TIP3    H126249   2.363   6.800   4.008
 8768TIP3    H226250   2.400   6.947   4.001
 8769TIP3   OH226251   4.886   4.127   1.625
 8769TIP3    H126252   4.817   4.072   1.589
 8769TIP3    H226253   4.927   4.167   1.547
 8770TIP3   OH226254   4.629   4.088   3.123
 8770TIP3    H126255   4.662   4.084   3.033
 8770TIP3    H226256   4.541   4.052   3.119
 8771TIP3   OH226257   4.071   2.753   1.251
 8771TIP3    H126258   3.984   2.769   1.289
 8771TIP3    H226259   4.103   2.840   1.228
 8772TIP3   OH226260   4.030   1.640   1.228
 8772TIP3    H126261   4.027   1.588   1.148
 8772TIP3    H226262   3.982   1.720   1.206
 8773TIP3   OH226263   0.110   6.894   2.194
 8773TIP3    H126264   0.067   6.923   2.114
 8773TIP3    H226265   0.087   6.801   2.201
 8774TIP3   OH226266   3.126   4.794   5.492
 8774TIP3    H126267   3.063   4.756   5.553
 8774TIP3    H226268   3.074   4.854   5.438
 8775TIP3   OH226269   4.488   1.489   0.903
 8775TIP3    H126270   4.440   1.478   0.821
 8775TIP3    H226271   4.428   1.535   0.960
 8776TIP3   OH226272   5.996   2.030   1.702
 8776TIP3    H126273   6.010   2.125   1.698
 8776TIP3    H226274   6.083   1.994   1.722
 8777TIP3   OH226275   7.175   0.560   4.198
 8777TIP3    H126276   7.220   0.588   4.119
 8777TIP3    H226277   7.144   0.472   4.178
 8778TIP3   OH226278   8.117   0.954   1.720
 8778TIP3    H126279   8.024   0.973   1.708
 8778TIP3    H226280   8.123   0.913   1.806
 8779TIP3   OH226281   2.208   2.679   5.135
 8779TIP3    H126282   2.130   2.705   5.085
 8779TIP3    H226283   2.275   2.662   5.068
 8780TIP3   OH226284   0.402   1.635   3.541
 8780TIP3    H126285   0.343   1.684   3.484
 8780TIP3    H226286   0.465   1.595   3.481
 8781TIP3   OH226287   6.886   2.286   4.322
 8781TIP3    H126288   6.842   2.313   4.403
 8781TIP3    H226289   6.818   2.240   4.272
 8782TIP3   OH226290   1.235   4.852   5.136
 8782TIP3    H126291   1.260   4.932   5.181
 8782TIP3    H226292   1.318   4.813   5.108
 8783TIP3   OH226293   2.745   2.706   6.185
 8783TIP3    H126294   2.837   2.730   6.175
 8783TIP3    H226295   2.746   2.626   6.237
 8784TIP3   OH226296   0.166   1.523   6.280
 8784TIP3    H126297   0.159   1.508   6.186
 8784TIP3    H226298   0.187   1.437   6.317
 8785TIP3   OH226299   4.421   5.987   5.235
 8785TIP3    H126300   4.341   5.948   5.200
 8785TIP3    H226301   4.396   6.078   5.256
 8786TIP3   OH226302   4.319   6.691   5.488
 8786TIP3    H126303   4.260   6.635   5.437
 8786TIP3    H226304   4.270   6.771   5.504
 8787TIP3   OH226305   7.410   1.107   1.301
 8787TIP3    H126306   7.390   1.053   1.378
 8787TIP3    H226307   7.425   1.194   1.337
 8788TIP3   OH226308   2.765   3.743   1.192
 8788TIP3    H126309   2.677   3.776   1.170
 8788TIP3    H226310   2.788   3.789   1.272
 8789TIP3   OH226311   1.706   5.008   5.540
 8789TIP3    H126312   1.707   4.931   5.596
 8789TIP3    H226313   1.613   5.024   5.523
 8790TIP3   OH226314   7.397   2.723   4.558
 8790TIP3    H126315   7.399   2.638   4.513
 8790TIP3    H226316   7.402   2.701   4.651
 8791TIP3   OH226317   1.336   3.732   6.678
 8791TIP3    H126318   1.422   3.730   6.722
 8791TIP3    H226319   1.343   3.665   6.610
 8792TIP3   OH226320   5.280   7.009   6.516
 8792TIP3    H126321   5.342   7.065   6.563
 8792TIP3    H226322   5.194   7.048   6.534
 8793TIP3   OH226323   6.267   0.330   6.512
 8793TIP3    H126324   6.322   0.355   6.587
 8793TIP3    H226325   6.252   0.412   6.465
 8794TIP3   OH226326   3.058   5.652   0.318
 8794TIP3    H126327   3.047   5.560   0.293
 8794TIP3    H226328   3.153   5.666   0.317
 8795TIP3   OH226329   3.782   2.202   2.041
 8795TIP3    H126330   3.741   2.184   1.957
 8795TIP3    H226331   3.715   2.181   2.106
 8796TIP3   OH226332   0.144   2.670   1.803
 8796TIP3    H126333   0.143   2.620   1.722
 8796TIP3    H226334   0.167   2.759   1.776
 8797TIP3   OH226335   6.210   2.234   4.076
 8797TIP3    H126336   6.185   2.326   4.068
 8797TIP3    H226337   6.152   2.199   4.144
 8798TIP3   OH226338   6.583   2.423   1.371
 8798TIP3    H126339   6.633   2.439   1.291
 8798TIP3    H226340   6.566   2.329   1.370
 8799TIP3   OH226341   1.273   7.178   3.855
 8799TIP3    H126342   1.303   7.168   3.945
 8799TIP3    H226343   1.197   7.235   3.862
 8800TIP3   OH226344   6.107   1.959   2.056
 8800TIP3    H126345   6.098   1.910   2.138
 8800TIP3    H226346   6.196   1.942   2.027
 8801TIP3   OH226347   6.902   7.019   3.527
 8801TIP3    H126348   6.891   7.005   3.621
 8801TIP3    H226349   6.880   6.935   3.488
 8802TIP3   OH226350   6.713   6.581   5.539
 8802TIP3    H126351   6.697   6.638   5.464
 8802TIP3    H226352   6.652   6.508   5.527
 8803TIP3   OH226353   1.473   5.746   2.797
 8803TIP3    H126354   1.411   5.815   2.775
 8803TIP3    H226355   1.460   5.680   2.729
 8804TIP3   OH226356   3.699   0.585   2.734
 8804TIP3    H126357   3.666   0.565   2.647
 8804TIP3    H226358   3.758   0.513   2.755
 8805TIP3   OH226359   3.193   6.447   0.798
 8805TIP3    H126360   3.231   6.490   0.721
 8805TIP3    H226361   3.267   6.428   0.855
 8806TIP3   OH226362   1.418   6.476   1.064
 8806TIP3    H126363   1.448   6.385   1.062
 8806TIP3    H226364   1.356   6.479   1.137
 8807TIP3   OH226365   1.225   0.346   5.974
 8807TIP3    H126366   1.147   0.301   6.005
 8807TIP3    H226367   1.205   0.439   5.984
 8808TIP3   OH226368   0.794   2.590   5.092
 8808TIP3    H126369   0.811   2.643   5.014
 8808TIP3    H226370   0.881   2.563   5.121
 8809TIP3   OH226371   1.037   3.247   3.155
 8809TIP3    H126372   1.033   3.251   3.250
 8809TIP3    H226373   1.058   3.155   3.136
 8810TIP3   OH226374   0.727   5.282   3.749
 8810TIP3    H126375   0.708   5.208   3.691
 8810TIP3    H226376   0.786   5.338   3.698
 8811TIP3   OH226377   4.938   2.924   5.820
 8811TIP3    H126378   4.964   2.833   5.802
 8811TIP3    H226379   5.018   2.966   5.853
 8812TIP3   OH226380   6.950   7.584   0.855
 8812TIP3    H126381   6.964   7.536   0.773
 8812TIP3    H226382   6.927   7.672   0.826
 8813TIP3   OH226383   1.739   1.978   0.048
 8813TIP3    H126384   1.716   1.905   0.105
 8813TIP3    H226385   1.762   1.936  -0.035
 8814TIP3   OH226386   6.004   4.507   3.118
 8814TIP3    H126387   6.023   4.512   3.212
 8814TIP3    H226388   6.013   4.415   3.096
 8815TIP3   OH226389   6.455   6.986   5.889
 8815TIP3    H126390   6.401   7.056   5.853
 8815TIP3    H226391   6.442   6.992   5.983
 8816TIP3   OH226392   7.314   0.806   3.200
 8816TIP3    H126393   7.376   0.823   3.130
 8816TIP3    H226394   7.308   0.888   3.248
 8817TIP3   OH226395   4.225   0.543   5.278
 8817TIP3    H126396   4.226   0.583   5.366
 8817TIP3    H226397   4.318   0.529   5.258
 8818TIP3   OH226398   4.051   0.324   5.360
 8818TIP3    H126399   4.018   0.282   5.281
 8818TIP3    H226400   4.123   0.379   5.329
 8819TIP3   OH226401   3.866   6.811   1.577
 8819TIP3    H126402   3.855   6.815   1.482
 8819TIP3    H226403   3.778   6.790   1.610
 8820TIP3   OH226404   3.068   7.640   1.400
 8820TIP3    H126405   3.098   7.550   1.412
 8820TIP3    H226406   2.974   7.636   1.419
 8821TIP3   OH226407   4.956   3.515   6.049
 8821TIP3    H126408   4.869   3.556   6.050
 8821TIP3    H226409   4.939   3.425   6.020
 8822TIP3   OH226410   2.007   6.729   1.400
 8822TIP3    H126411   1.982   6.760   1.487
 8822TIP3    H226412   2.094   6.767   1.385
 8823TIP3   OH226413   5.699   6.157   1.955
 8823TIP3    H126414   5.671   6.248   1.943
 8823TIP3    H226415   5.733   6.131   1.870
 8824TIP3   OH226416   4.298   5.520   5.858
 8824TIP3    H126417   4.382   5.552   5.893
 8824TIP3    H226418   4.233   5.581   5.894
 8825TIP3   OH226419   7.769   4.625   3.045
 8825TIP3    H126420   7.681   4.647   3.012
 8825TIP3    H226421   7.828   4.678   2.992
 8826TIP3   OH226422   1.735   6.605   2.564
 8826TIP3    H126423   1.677   6.677   2.591
 8826TIP3    H226424   1.712   6.590   2.472
 8827TIP3   OH226425   0.831   3.298   1.317
 8827TIP3    H126426   0.788   3.216   1.293
 8827TIP3    H226427   0.891   3.316   1.245
 8828TIP3   OH226428   7.863   6.770   4.615
 8828TIP3    H126429   7.774   6.804   4.625
 8828TIP3    H226430   7.857   6.679   4.645
 8829TIP3   OH226431   3.133   6.360   2.119
 8829TIP3    H126432   3.156   6.405   2.038
 8829TIP3    H226433   3.171   6.413   2.188
 8830TIP3   OH226434   4.086   3.913   5.968
 8830TIP3    H126435   4.034   3.904   6.048
 8830TIP3    H226436   4.048   3.990   5.924
 8831TIP3   OH226437   6.342   3.987   3.580
 8831TIP3    H126438   6.417   3.942   3.619
 8831TIP3    H226439   6.378   4.069   3.547
 8832TIP3   OH226440   2.356   6.335   1.612
 8832TIP3    H126441   2.380   6.278   1.686
 8832TIP3    H226442   2.367   6.279   1.535
 8833TIP3   OH226443   4.363   5.400   1.782
 8833TIP3    H126444   4.349   5.328   1.720
 8833TIP3    H226445   4.445   5.440   1.754
 8834TIP3   OH226446   2.912   4.278   5.095
 8834TIP3    H126447   2.959   4.215   5.148
 8834TIP3    H226448   2.901   4.236   5.010
 8835TIP3   OH226449   5.970   0.702   4.899
 8835TIP3    H126450   5.942   0.726   4.988
 8835TIP3    H226451   5.911   0.631   4.874
 8836TIP3   OH226452   5.282   7.028   0.963
 8836TIP3    H126453   5.284   6.934   0.947
 8836TIP3    H226454   5.371   7.058   0.942
 8837TIP3   OH226455   5.486   5.693   1.529
 8837TIP3    H126456   5.490   5.611   1.577
 8837TIP3    H226457   5.393   5.716   1.527
 8838TIP3   OH226458   2.189   2.905   6.548
 8838TIP3    H126459   2.276   2.866   6.545
 8838TIP3    H226460   2.176   2.942   6.460
 8839TIP3   OH226461   6.573   1.215   2.815
 8839TIP3    H126462   6.593   1.166   2.736
 8839TIP3    H226463   6.531   1.295   2.784
 8840TIP3   OH226464   8.128   3.761   2.007
 8840TIP3    H126465   8.162   3.686   2.056
 8840TIP3    H226466   8.194   3.829   2.019
 8841TIP3   OH226467   2.235   7.526   4.399
 8841TIP3    H126468   2.260   7.618   4.415
 8841TIP3    H226469   2.292   7.476   4.457
 8842TIP3   OH226470   0.948   7.460   5.125
 8842TIP3    H126471   0.942   7.425   5.036
 8842TIP3    H226472   1.042   7.471   5.140
 8843TIP3   OH226473   6.186   7.103   1.665
 8843TIP3    H126474   6.094   7.087   1.687
 8843TIP3    H226475   6.185   7.183   1.613
 8844TIP3   OH226476   4.520   2.503   0.674
 8844TIP3    H126477   4.558   2.455   0.601
 8844TIP3    H226478   4.444   2.548   0.636
 8845TIP3   OH226479   4.149   1.726   6.247
 8845TIP3    H126480   4.078   1.685   6.197
 8845TIP3    H226481   4.224   1.726   6.188
 8846TIP3   OH226482   4.175   3.517   5.464
 8846TIP3    H126483   4.129   3.435   5.449
 8846TIP3    H226484   4.107   3.585   5.460
 8847TIP3   OH226485   2.936   4.432   6.219
 8847TIP3    H126486   2.854   4.482   6.227
 8847TIP3    H226487   2.994   4.471   6.284
 8848TIP3   OH226488   1.462   1.704   3.667
 8848TIP3    H126489   1.555   1.701   3.693
 8848TIP3    H226490   1.461   1.761   3.589
 8849TIP3   OH226491   5.167   6.522   3.325
 8849TIP3    H126492   5.092   6.463   3.331
 8849TIP3    H226493   5.157   6.565   3.240
 8850TIP3   OH226494   2.939   0.820   2.013
 8850TIP3    H126495   2.898   0.734   2.001
 8850TIP3    H226496   2.964   0.847   1.925
 8851TIP3   OH226497   6.549   7.137   2.542
 8851TIP3    H126498   6.533   7.169   2.631
 8851TIP3    H226499   6.616   7.196   2.507
 8852TIP3   OH226500   3.223   1.012   4.578
 8852TIP3    H126501   3.184   1.029   4.664
 8852TIP3    H226502   3.305   1.062   4.580
 8853TIP3   OH226503   8.132   5.871   5.750
 8853TIP3    H126504   8.198   5.804   5.767
 8853TIP3    H226505   8.174   5.954   5.774
 8854TIP3   OH226506   1.350   5.157   0.063
 8854TIP3    H126507   1.432   5.192   0.099
 8854TIP3    H226508   1.377   5.081   0.012
 8855TIP3   OH226509   1.117   3.045   3.626
 8855TIP3    H126510   1.157   2.976   3.573
 8855TIP3    H226511   1.187   3.073   3.685
 8856TIP3   OH226512   7.233   0.767   3.588
 8856TIP3    H126513   7.285   0.693   3.556
 8856TIP3    H226514   7.297   0.837   3.603
 8857TIP3   OH226515   2.917   1.989   5.668
 8857TIP3    H126516   2.904   1.908   5.620
 8857TIP3    H226517   2.989   2.033   5.623
 8858TIP3   OH226518   1.649   2.679   4.729
 8858TIP3    H126519   1.676   2.589   4.747
 8858TIP3    H226520   1.686   2.699   4.643
 8859TIP3   OH226521   3.971   5.903   5.085
 8859TIP3    H126522   3.962   5.908   5.181
 8859TIP3    H226523   3.942   5.814   5.064
 8860TIP3   OH226524   1.132   2.545   5.473
 8860TIP3    H126525   1.190   2.616   5.447
 8860TIP3    H226526   1.191   2.471   5.490
 8861TIP3   OH226527   7.336   2.407   6.261
 8861TIP3    H126528   7.267   2.429   6.323
 8861TIP3    H226529   7.293   2.351   6.197
 8862TIP3   OH226530   5.180   2.723   2.556
 8862TIP3    H126531   5.170   2.665   2.631
 8862TIP3    H226532   5.268   2.758   2.565
 8863TIP3   OH226533   7.780   0.326   2.368
 8863TIP3    H126534   7.759   0.247   2.418
 8863TIP3    H226535   7.783   0.396   2.434
 8864TIP3   OH226536   6.501   6.637   1.961
 8864TIP3    H126537   6.481   6.570   2.026
 8864TIP3    H226538   6.586   6.672   1.987
 8865TIP3   OH226539   0.295   6.075   6.528
 8865TIP3    H126540   0.249   6.153   6.499
 8865TIP3    H226541   0.253   6.003   6.481
 8866TIP3   OH226542   2.260   0.609   4.940
 8866TIP3    H126543   2.169   0.586   4.957
 8866TIP3    H226544   2.294   0.638   5.024
 8867TIP3   OH226545   3.315   5.002   2.809
 8867TIP3    H126546   3.332   4.915   2.773
 8867TIP3    H226547   3.271   5.049   2.738
 8868TIP3   OH226548   6.817   0.328   6.179
 8868TIP3    H126549   6.867   0.268   6.234
 8868TIP3    H226550   6.736   0.280   6.159
 8869TIP3   OH226551   1.182   3.972   1.693
 8869TIP3    H126552   1.199   3.919   1.771
 8869TIP3    H226553   1.139   3.912   1.632
 8870TIP3   OH226554   2.025   4.476   5.294
 8870TIP3    H126555   2.037   4.461   5.388
 8870TIP3    H226556   1.947   4.531   5.287
 8871TIP3   OH226557   0.766   3.806   3.628
 8871TIP3    H126558   0.724   3.724   3.603
 8871TIP3    H226559   0.849   3.780   3.668
 8872TIP3   OH226560   2.232   1.572   1.486
 8872TIP3    H126561   2.200   1.507   1.549
 8872TIP3    H226562   2.327   1.563   1.490
 8873TIP3   OH226563   0.857   2.561   1.009
 8873TIP3    H126564   0.790   2.619   0.974
 8873TIP3    H226565   0.890   2.606   1.087
 8874TIP3   OH226566   1.694   3.630   1.869
 8874TIP3    H126567   1.777   3.678   1.874
 8874TIP3    H226568   1.702   3.576   1.791
 8875TIP3   OH226569   5.694   3.060   0.618
 8875TIP3    H126570   5.599   3.049   0.626
 8875TIP3    H226571   5.706   3.154   0.607
 8876TIP3   OH226572   3.554   3.908   5.988
 8876TIP3    H126573   3.525   3.878   6.074
 8876TIP3    H226574   3.532   4.001   5.987
 8877TIP3   OH226575   7.650   4.287   3.565
 8877TIP3    H126576   7.600   4.368   3.561
 8877TIP3    H226577   7.666   4.273   3.658
 8878TIP3   OH226578   5.766   0.592   3.886
 8878TIP3    H126579   5.681   0.596   3.842
 8878TIP3    H226580   5.822   0.650   3.835
 8879TIP3   OH226581   1.672   0.449   2.923
 8879TIP3    H126582   1.594   0.492   2.959
 8879TIP3    H226583   1.650   0.435   2.831
 8880TIP3   OH226584   4.231   0.425   1.657
 8880TIP3    H126585   4.262   0.335   1.646
 8880TIP3    H226586   4.254   0.447   1.747
 8881TIP3   OH226587   6.918   3.546   2.499
 8881TIP3    H126588   6.911   3.458   2.536
 8881TIP3    H226589   6.930   3.603   2.576
 8882TIP3   OH226590   7.748   3.159   5.947
 8882TIP3    H126591   7.731   3.097   5.875
 8882TIP3    H226592   7.843   3.156   5.959
 8883TIP3   OH226593   3.688   5.745   1.586
 8883TIP3    H126594   3.779   5.718   1.579
 8883TIP3    H226595   3.649   5.683   1.647
 8884TIP3   OH226596   1.583   0.304   6.217
 8884TIP3    H126597   1.541   0.265   6.141
 8884TIP3    H226598   1.654   0.244   6.239
 8885TIP3   OH226599   3.660   5.751   0.889
 8885TIP3    H126600   3.709   5.671   0.909
 8885TIP3    H226601   3.726   5.814   0.863
 8886TIP3   OH226602   6.647   2.357   5.829
 8886TIP3    H126603   6.634   2.269   5.794
 8886TIP3    H226604   6.567   2.374   5.880
 8887TIP3   OH226605   0.837   0.150   3.938
 8887TIP3    H126606   0.798   0.184   3.858
 8887TIP3    H226607   0.931   0.170   3.930
 8888TIP3   OH226608   0.908   7.757   2.233
 8888TIP3    H126609   0.814   7.763   2.217
 8888TIP3    H226610   0.916   7.762   2.328
 8889TIP3   OH226611   4.738   4.647   4.895
 8889TIP3    H126612   4.757   4.650   4.801
 8889TIP3    H226613   4.644   4.633   4.899
 8890TIP3   OH226614   1.344   7.782   3.671
 8890TIP3    H126615   1.301   7.806   3.753
 8890TIP3    H226616   1.346   7.864   3.620
 8891TIP3   OH226617   1.588   1.180   4.481
 8891TIP3    H126618   1.670   1.142   4.449
 8891TIP3    H226619   1.568   1.130   4.560
 8892TIP3   OH226620   5.516   1.038   1.662
 8892TIP3    H126621   5.542   0.972   1.598
 8892TIP3    H226622   5.533   1.122   1.619
 8893TIP3   OH226623   5.728   5.311   1.886
 8893TIP3    H126624   5.810   5.341   1.925
 8893TIP3    H226625   5.660   5.361   1.931
 8894TIP3   OH226626   7.461   0.811   6.087
 8894TIP3    H126627   7.433   0.858   6.008
 8894TIP3    H226628   7.401   0.736   6.092
 8895TIP3   OH226629   0.088   2.161   0.708
 8895TIP3    H126630   0.013   2.220   0.714
 8895TIP3    H226631   0.065   2.099   0.639
 8896TIP3   OH226632   0.133   7.454   2.278
 8896TIP3    H126633   0.213   7.437   2.328
 8896TIP3    H226634   0.098   7.534   2.315
 8897TIP3   OH226635   7.850   3.191   5.442
 8897TIP3    H126636   7.904   3.187   5.521
 8897TIP3    H226637   7.827   3.284   5.434
 8898TIP3   OH226638   2.467   0.617   0.332
 8898TIP3    H126639   2.504   0.573   0.408
 8898TIP3    H226640   2.379   0.578   0.322
 8899TIP3   OH226641   0.080   1.080   1.182
 8899TIP3    H126642   0.095   1.172   1.164
 8899TIP3    H226643   0.144   1.058   1.250
 8900TIP3   OH226644   5.778   2.130   4.124
 8900TIP3    H126645   5.765   2.220   4.156
 8900TIP3    H226646   5.846   2.138   4.058
 8901TIP3   OH226647   4.148   7.426   4.957
 8901TIP3    H126648   4.211   7.494   4.934
 8901TIP3    H226649   4.070   7.474   4.985
 8902TIP3   OH226650   1.696   5.891   4.285
 8902TIP3    H126651   1.604   5.913   4.270
 8902TIP3    H226652   1.693   5.821   4.351
 8903TIP3   OH226653   1.746   1.659   2.169
 8903TIP3    H126654   1.710   1.702   2.091
 8903TIP3    H226655   1.841   1.667   2.159
 8904TIP3   OH226656   6.508   1.240   5.898
 8904TIP3    H126657   6.459   1.190   5.963
 8904TIP3    H226658   6.516   1.328   5.935
 8905TIP3   OH226659   8.043   0.210   5.213
 8905TIP3    H126660   8.046   0.123   5.172
 8905TIP3    H226661   8.057   0.193   5.306
 8906TIP3   OH226662   3.845   6.568   6.365
 8906TIP3    H126663   3.755   6.583   6.394
 8906TIP3    H226664   3.893   6.544   6.444
 8907TIP3   OH226665   8.190   6.151   5.857
 8907TIP3    H126666   8.193   6.165   5.952
 8907TIP3    H226667   8.281   6.158   5.829
 8908TIP3   OH226668   1.151   3.019   5.635
 8908TIP3    H126669   1.230   3.042   5.685
 8908TIP3    H226670   1.124   2.934   5.671
 8909TIP3   OH226671   1.613   6.546   6.757
 8909TIP3    H126672   1.661   6.610   6.810
 8909TIP3    H226673   1.648   6.559   6.668
 8910TIP3   OH226674   0.712   2.058   2.212
 8910TIP3    H126675   0.655   1.986   2.238
 8910TIP3    H226676   0.736   2.038   2.122
 8911TIP3   OH226677   1.398   2.302   4.389
 8911TIP3    H126678   1.445   2.330   4.311
 8911TIP3    H226679   1.424   2.365   4.457
 8912TIP3   OH226680   0.521   5.164   4.148
 8912TIP3    H126681   0.435   5.166   4.106
 8912TIP3    H226682   0.563   5.245   4.120
 8913TIP3   OH226683   2.330   6.593   3.095
 8913TIP3    H126684   2.234   6.599   3.100
 8913TIP3    H226685   2.361   6.678   3.124
 8914TIP3   OH226686   3.719   4.161   0.769
 8914TIP3    H126687   3.636   4.117   0.786
 8914TIP3    H226688   3.698   4.255   0.772
 8915TIP3   OH226689   7.413   2.201   2.836
 8915TIP3    H126690   7.339   2.234   2.887
 8915TIP3    H226691   7.435   2.117   2.878
 8916TIP3   OH226692   2.325   4.595   0.761
 8916TIP3    H126693   2.265   4.605   0.687
 8916TIP3    H226694   2.408   4.568   0.721
 8917TIP3   OH226695   1.382   4.081   2.260
 8917TIP3    H126696   1.339   4.164   2.278
 8917TIP3    H226697   1.369   4.029   2.340
 8918TIP3   OH226698   4.034   2.583   1.038
 8918TIP3    H126699   4.017   2.669   1.076
 8918TIP3    H226700   4.111   2.596   0.982
 8919TIP3   OH226701   0.522   5.290   5.597
 8919TIP3    H126702   0.536   5.262   5.688
 8919TIP3    H226703   0.609   5.285   5.557
 8920TIP3   OH226704   3.275   7.408   5.531
 8920TIP3    H126705   3.201   7.349   5.519
 8920TIP3    H226706   3.314   7.416   5.444
 8921TIP3   OH226707   3.219   1.282   6.701
 8921TIP3    H126708   3.140   1.248   6.659
 8921TIP3    H226709   3.278   1.207   6.706
 8922TIP3   OH226710   3.393   2.831   2.652
 8922TIP3    H126711   3.425   2.870   2.733
 8922TIP3    H226712   3.460   2.767   2.629
 8923TIP3   OH226713   4.619   6.214   2.224
 8923TIP3    H126714   4.710   6.240   2.212
 8923TIP3    H226715   4.580   6.285   2.276
 8924TIP3   OH226716   3.863   1.168   6.357
 8924TIP3    H126717   3.913   1.136   6.432
 8924TIP3    H226718   3.878   1.103   6.288
 8925TIP3   OH226719   8.210   3.556   1.187
 8925TIP3    H126720   8.132   3.603   1.158
 8925TIP3    H226721   8.206   3.472   1.141
 8926TIP3   OH226722   2.364   2.898   3.215
 8926TIP3    H126723   2.421   2.847   3.158
 8926TIP3    H226724   2.291   2.925   3.158
 8927TIP3   OH226725   6.449   1.489   5.640
 8927TIP3    H126726   6.523   1.518   5.693
 8927TIP3    H226727   6.372   1.511   5.693
 8928TIP3   OH226728   4.972   4.241   2.269
 8928TIP3    H126729   4.917   4.250   2.191
 8928TIP3    H226730   4.917   4.271   2.341
 8929TIP3   OH226731   1.032   4.237   6.551
 8929TIP3    H126732   1.029   4.151   6.508
 8929TIP3    H226733   1.057   4.218   6.641
 8930TIP3   OH226734   0.147   7.705   6.207
 8930TIP3    H126735   0.114   7.690   6.119
 8930TIP3    H226736   0.072   7.690   6.265
 8931TIP3   OH226737   1.027   4.057   5.281
 8931TIP3    H126738   1.081   4.105   5.217
 8931TIP3    H226739   0.939   4.089   5.266
 8932TIP3   OH226740   5.161   2.167   4.899
 8932TIP3    H126741   5.133   2.146   4.810
 8932TIP3    H226742   5.180   2.261   4.896
 8933TIP3   OH226743   5.097   5.782   4.306
 8933TIP3    H126744   5.118   5.854   4.366
 8933TIP3    H226745   5.002   5.771   4.314
 8934TIP3   OH226746   2.780   3.346   5.984
 8934TIP3    H126747   2.711   3.329   5.920
 8934TIP3    H226748   2.861   3.350   5.932
 8935TIP3   OH226749   1.960   4.244   6.344
 8935TIP3    H126750   2.048   4.249   6.382
 8935TIP3    H226751   1.968   4.290   6.260
 8936TIP3   OH226752   4.885   6.329   2.302
 8936TIP3    H126753   4.917   6.239   2.308
 8936TIP3    H226754   4.933   6.377   2.370
 8937TIP3   OH226755   4.371   6.477   3.438
 8937TIP3    H126756   4.306   6.481   3.508
 8937TIP3    H226757   4.401   6.568   3.428
 8938TIP3   OH226758   8.207   7.156   0.176
 8938TIP3    H126759   8.147   7.174   0.248
 8938TIP3    H226760   8.258   7.237   0.167
 8939TIP3   OH226761   7.120   4.797   4.160
 8939TIP3    H126762   7.148   4.881   4.196
 8939TIP3    H226763   7.190   4.773   4.099
 8940TIP3   OH226764   0.372   6.239   3.461
 8940TIP3    H126765   0.341   6.259   3.372
 8940TIP3    H226766   0.348   6.147   3.475
 8941TIP3   OH226767   7.263   1.882   6.717
 8941TIP3    H126768   7.170   1.867   6.698
 8941TIP3    H226769   7.270   1.873   6.812
 8942TIP3   OH226770   4.242   1.191   2.424
 8942TIP3    H126771   4.204   1.191   2.511
 8942TIP3    H226772   4.250   1.099   2.400
 8943TIP3   OH226773   2.897   6.601   2.264
 8943TIP3    H126774   2.833   6.535   2.291
 8943TIP3    H226775   2.896   6.665   2.335
 8944TIP3   OH226776   7.143   2.140   4.321
 8944TIP3    H126777   7.064   2.193   4.315
 8944TIP3    H226778   7.113   2.059   4.362
 8945TIP3   OH226779   4.048   2.769   4.171
 8945TIP3    H126780   3.967   2.719   4.161
 8945TIP3    H226781   4.035   2.847   4.117
 8946TIP3   OH226782   0.323   6.757   2.928
 8946TIP3    H126783   0.362   6.715   3.004
 8946TIP3    H226784   0.364   6.844   2.924
 8947TIP3   OH226785   0.608   4.835   3.786
 8947TIP3    H126786   0.635   4.756   3.740
 8947TIP3    H226787   0.680   4.854   3.846
 8948TIP3   OH226788   5.878   3.755   2.303
 8948TIP3    H126789   5.901   3.765   2.211
 8948TIP3    H226790   5.890   3.662   2.322
 8949TIP3   OH226791   3.846   5.324   5.728
 8949TIP3    H126792   3.846   5.262   5.655
 8949TIP3    H226793   3.800   5.401   5.695
 8950TIP3   OH226794   0.564   3.999   6.195
 8950TIP3    H126795   0.496   3.932   6.183
 8950TIP3    H226796   0.642   3.950   6.220
 8951TIP3   OH226797   6.132   6.741   2.669
 8951TIP3    H126798   6.128   6.825   2.715
 8951TIP3    H226799   6.080   6.682   2.723
 8952TIP3   OH226800   0.627   0.600   2.704
 8952TIP3    H126801   0.686   0.637   2.769
 8952TIP3    H226802   0.637   0.505   2.714
 8953TIP3   OH226803   3.898   1.652   2.866
 8953TIP3    H126804   3.924   1.634   2.957
 8953TIP3    H226805   3.978   1.681   2.823
 8954TIP3   OH226806   0.692   2.375   1.758
 8954TIP3    H126807   0.753   2.327   1.814
 8954TIP3    H226808   0.746   2.409   1.687
 8955TIP3   OH226809   2.461   6.093   0.280
 8955TIP3    H126810   2.425   6.179   0.302
 8955TIP3    H226811   2.419   6.070   0.197
 8956TIP3   OH226812   4.775   3.945   4.452
 8956TIP3    H126813   4.682   3.965   4.441
 8956TIP3    H226814   4.816   4.031   4.463
 8957TIP3   OH226815   1.325   6.893   3.760
 8957TIP3    H126816   1.289   6.970   3.802
 8957TIP3    H226817   1.405   6.924   3.717
 8958TIP3   OH226818   6.435   0.837   3.238
 8958TIP3    H126819   6.478   0.921   3.220
 8958TIP3    H226820   6.397   0.812   3.154
 8959TIP3   OH226821   2.950   4.749   3.748
 8959TIP3    H126822   3.041   4.779   3.743
 8959TIP3    H226823   2.919   4.750   3.658
 8960TIP3   OH226824   4.566   4.850   4.026
 8960TIP3    H126825   4.617   4.927   4.001
 8960TIP3    H226826   4.550   4.861   4.120
 8961TIP3   OH226827   3.195   2.080   5.569
 8961TIP3    H126828   3.190   2.043   5.481
 8961TIP3    H226829   3.258   2.025   5.615
 8962TIP3   OH226830   3.569   0.543   0.628
 8962TIP3    H126831   3.481   0.516   0.652
 8962TIP3    H226832   3.577   0.632   0.662
 8963TIP3   OH226833   2.017   6.893   6.577
 8963TIP3    H126834   1.980   6.899   6.665
 8963TIP3    H226835   1.943   6.912   6.519
 8964TIP3   OH226836   8.182   2.276   1.670
 8964TIP3    H126837   8.092   2.270   1.637
 8964TIP3    H226838   8.201   2.369   1.670
 8965TIP3   OH226839   5.566   2.183   3.164
 8965TIP3    H126840   5.634   2.140   3.215
 8965TIP3    H226841   5.613   2.243   3.106
 8966TIP3   OH226842   4.097   2.478   5.247
 8966TIP3    H126843   4.164   2.541   5.222
 8966TIP3    H226844   4.015   2.526   5.241
 8967TIP3   OH226845   3.820   3.726   0.566
 8967TIP3    H126846   3.896   3.784   0.570
 8967TIP3    H226847   3.772   3.743   0.647
 8968TIP3   OH226848   5.401   6.466   0.329
 8968TIP3    H126849   5.472   6.466   0.265
 8968TIP3    H226850   5.369   6.376   0.330
 8969TIP3   OH226851   2.937   3.009   3.949
 8969TIP3    H126852   2.880   2.977   4.019
 8969TIP3    H226853   3.025   3.009   3.986
 8970TIP3   OH226854   3.334   1.555   4.321
 8970TIP3    H126855   3.350   1.649   4.312
 8970TIP3    H226856   3.240   1.549   4.341
 8971TIP3   OH226857   6.993   4.498   1.612
 8971TIP3    H126858   7.070   4.531   1.657
 8971TIP3    H226859   6.921   4.552   1.644
 8972TIP3   OH226860   5.261   3.202   2.211
 8972TIP3    H126861   5.265   3.241   2.124
 8972TIP3    H226862   5.191   3.249   2.256
 8973TIP3   OH226863   1.835   5.248   2.527
 8973TIP3    H126864   1.765   5.183   2.523
 8973TIP3    H226865   1.889   5.219   2.601
 8974TIP3   OH226866   5.994   2.837   2.728
 8974TIP3    H126867   6.082   2.863   2.703
 8974TIP3    H226868   5.940   2.858   2.652
 8975TIP3   OH226869   0.433   5.429   1.646
 8975TIP3    H126870   0.384   5.347   1.642
 8975TIP3    H226871   0.367   5.497   1.638
 8976TIP3   OH226872  -0.016   1.118   6.067
 8976TIP3    H126873   0.072   1.080   6.065
 8976TIP3    H226874  -0.032   1.138   6.159
 8977TIP3   OH226875   6.025   0.768   1.655
 8977TIP3    H126876   6.015   0.850   1.703
 8977TIP3    H226877   5.970   0.706   1.702
 8978TIP3   OH226878   7.899   3.368   4.169
 8978TIP3    H126879   7.819   3.420   4.170
 8978TIP3    H226880   7.869   3.277   4.166
 8979TIP3   OH226881   3.331   2.696   5.831
 8979TIP3    H126882   3.315   2.730   5.919
 8979TIP3    H226883   3.408   2.744   5.801
 8980TIP3   OH226884   6.199   2.267   2.125
 8980TIP3    H126885   6.162   2.188   2.166
 8980TIP3    H226886   6.135   2.336   2.143
 8981TIP3   OH226887   0.750   3.062   4.229
 8981TIP3    H126888   0.682   3.072   4.163
 8981TIP3    H226889   0.777   2.970   4.222
 8982TIP3   OH226890   6.200   1.168   4.664
 8982TIP3    H126891   6.236   1.081   4.651
 8982TIP3    H226892   6.275   1.222   4.690
 8983TIP3   OH226893   7.099   1.218   0.188
 8983TIP3    H126894   7.077   1.125   0.178
 8983TIP3    H226895   7.063   1.259   0.109
 8984TIP3   OH226896   2.948   1.337   3.013
 8984TIP3    H126897   2.971   1.343   2.920
 8984TIP3    H226898   2.916   1.425   3.035
 8985TIP3   OH226899   7.351   5.583   1.870
 8985TIP3    H126900   7.291   5.509   1.877
 8985TIP3    H226901   7.419   5.553   1.810
 8986TIP3   OH226902   3.298   3.498   4.494
 8986TIP3    H126903   3.307   3.402   4.492
 8986TIP3    H226904   3.345   3.528   4.417
 8987TIP3   OH226905   3.734   7.239   1.314
 8987TIP3    H126906   3.688   7.158   1.292
 8987TIP3    H226907   3.766   7.225   1.403
 8988TIP3   OH226908   0.194   1.079   1.430
 8988TIP3    H126909   0.120   1.113   1.480
 8988TIP3    H226910   0.209   0.992   1.467
 8989TIP3   OH226911   7.411   2.335   0.939
 8989TIP3    H126912   7.502   2.362   0.952
 8989TIP3    H226913   7.367   2.413   0.903
 8990TIP3   OH226914   4.568   2.757   0.243
 8990TIP3    H126915   4.648   2.745   0.191
 8990TIP3    H226916   4.599   2.796   0.325
 8991TIP3   OH226917   8.042   6.150   4.581
 8991TIP3    H126918   8.114   6.088   4.591
 8991TIP3    H226919   7.968   6.096   4.553
 8992TIP3   OH226920   0.521   0.318   6.627
 8992TIP3    H126921   0.443   0.265   6.609
 8992TIP3    H226922   0.560   0.278   6.705
 8993TIP3   OH226923   6.007   2.583   2.478
 8993TIP3    H126924   6.021   2.676   2.499
 8993TIP3    H226925   6.023   2.576   2.384
 8994TIP3   OH226926   2.695   1.307   3.301
 8994TIP3    H126927   2.788   1.287   3.296
 8994TIP3    H226928   2.660   1.246   3.366
 8995TIP3   OH226929   6.046   0.736   0.505
 8995TIP3    H126930   6.039   0.641   0.492
 8995TIP3    H226931   6.137   0.750   0.531
 8996TIP3   OH226932   7.059   1.692   2.845
 8996TIP3    H126933   7.136   1.721   2.796
 8996TIP3    H226934   6.999   1.659   2.779
 8997TIP3   OH226935   6.918   5.678   3.548
 8997TIP3    H126936   6.854   5.609   3.565
 8997TIP3    H226937   6.905   5.701   3.456
 8998TIP3   OH226938   4.584   5.937   2.685
 8998TIP3    H126939   4.636   6.017   2.674
 8998TIP3    H226940   4.493   5.967   2.684
 8999TIP3   OH226941   1.865   4.712   4.071
 8999TIP3    H126942   1.800   4.660   4.118
 8999TIP3    H226943   1.837   4.803   4.083
 9000TIP3   OH226944   5.377   0.892   3.637
 9000TIP3    H126945   5.364   0.800   3.610
 9000TIP3    H226946   5.431   0.886   3.716
 9001TIP3   OH226947   2.594   0.000   4.726
 9001TIP3    H126948   2.540   0.002   4.805
 9001TIP3    H226949   2.546   0.052   4.662
 9002TIP3   OH226950   5.167   5.757   3.511
 9002TIP3    H126951   5.237   5.694   3.528
 9002TIP3    H226952   5.212   5.835   3.477
 9003TIP3   OH226953   6.174   7.204   2.430
 9003TIP3    H126954   6.200   7.252   2.509
 9003TIP3    H226955   6.110   7.260   2.388
 9004TIP3   OH226956   1.741   3.570   3.247
 9004TIP3    H126957   1.797   3.495   3.229
 9004TIP3    H226958   1.733   3.615   3.163
 9005TIP3   OH226959   8.176   6.937   6.697
 9005TIP3    H126960   8.163   6.909   6.788
 9005TIP3    H226961   8.144   6.863   6.645
 9006TIP3   OH226962   2.276   3.983   0.636
 9006TIP3    H126963   2.221   3.906   0.620
 9006TIP3    H226964   2.359   3.947   0.668
 9007TIP3   OH226965   5.876   4.890   2.242
 9007TIP3    H126966   5.823   4.874   2.164
 9007TIP3    H226967   5.919   4.807   2.260
 9008TIP3   OH226968   4.057   4.828   5.426
 9008TIP3    H126969   3.997   4.784   5.486
 9008TIP3    H226970   4.138   4.778   5.432
 9009TIP3   OH226971   5.452   6.583   2.062
 9009TIP3    H126972   5.381   6.604   2.002
 9009TIP3    H226973   5.423   6.503   2.107
 9010TIP3   OH226974   2.025   4.591   6.604
 9010TIP3    H126975   1.982   4.585   6.689
 9010TIP3    H226976   2.112   4.554   6.618
 9011TIP3   OH226977   0.806   2.848   4.010
 9011TIP3    H126978   0.738   2.810   3.954
 9011TIP3    H226979   0.846   2.916   3.955
 9012TIP3   OH226980   5.471   4.427   3.060
 9012TIP3    H126981   5.562   4.400   3.059
 9012TIP3    H226982   5.422   4.348   3.037
 9013TIP3   OH226983   3.213   6.116   2.717
 9013TIP3    H126984   3.201   6.125   2.811
 9013TIP3    H226985   3.124   6.121   2.681
 9014TIP3   OH226986   6.219   5.651   6.035
 9014TIP3    H126987   6.306   5.674   6.001
 9014TIP3    H226988   6.175   5.735   6.047
 9015TIP3   OH226989   2.008   3.402   2.035
 9015TIP3    H126990   1.969   3.476   2.081
 9015TIP3    H226991   2.084   3.378   2.087
 9016TIP3   OH226992   8.078   0.584   6.773
 9016TIP3    H126993   8.157   0.530   6.777
 9016TIP3    H226994   8.108   0.667   6.736
 9017TIP3   OH226995   7.594   3.404   5.905
 9017TIP3    H126996   7.688   3.407   5.886
 9017TIP3    H226997   7.579   3.316   5.940
 9018TIP3   OH226998   6.380   4.002   2.584
 9018TIP3    H126999   6.441   4.002   2.657
 9018TIP3    H227000   6.367   4.095   2.562
 9019TIP3   OH227001   6.903   2.503   4.119
 9019TIP3    H127002   6.828   2.468   4.167
 9019TIP3    H227003   6.976   2.446   4.144
 9020TIP3   OH227004   5.712   2.113   6.007
 9020TIP3    H127005   5.700   2.184   5.944
 9020TIP3    H227006   5.629   2.110   6.055
 9021TIP3   OH227007   7.190   1.068   5.608
 9021TIP3    H127008   7.225   0.989   5.648
 9021TIP3    H227009   7.262   1.101   5.554
 9022TIP3   OH227010   1.345   7.046   3.093
 9022TIP3    H127011   1.338   7.041   2.997
 9022TIP3    H227012   1.257   7.026   3.124
 9023TIP3   OH227013   2.037   0.218   5.372
 9023TIP3    H127014   2.116   0.202   5.321
 9023TIP3    H227015   1.994   0.132   5.376
 9024TIP3   OH227016   5.093   0.385   2.547
 9024TIP3    H127017   5.138   0.362   2.466
 9024TIP3    H227018   5.037   0.310   2.565
 9025TIP3   OH227019   4.502   7.517   1.880
 9025TIP3    H127020   4.490   7.566   1.799
 9025TIP3    H227021   4.594   7.531   1.903
 9026TIP3   OH227022   5.613   2.031   1.778
 9026TIP3    H127023   5.651   1.943   1.777
 9026TIP3    H227024   5.552   2.029   1.852
 9027TIP3   OH227025   7.579   4.250   4.127
 9027TIP3    H127026   7.626   4.331   4.107
 9027TIP3    H227027   7.609   4.188   4.061
 9028TIP3   OH227028   0.613   3.597   5.547
 9028TIP3    H127029   0.614   3.641   5.632
 9028TIP3    H227030   0.532   3.546   5.547
 9029TIP3   OH227031   6.704   2.139   4.138
 9029TIP3    H127032   6.621   2.151   4.091
 9029TIP3    H227033   6.754   2.078   4.084
 9030TIP3   OH227034   7.782   3.282   0.899
 9030TIP3    H127035   7.693   3.259   0.874
 9030TIP3    H227036   7.834   3.204   0.880
 9031TIP3   OH227037   7.534   4.710   2.930
 9031TIP3    H127038   7.506   4.802   2.927
 9031TIP3    H227039   7.463   4.665   2.975
 9032TIP3   OH227040   8.087   6.733   6.568
 9032TIP3    H127041   8.039   6.785   6.504
 9032TIP3    H227042   8.019   6.699   6.627
 9033TIP3   OH227043   2.558   0.014   4.322
 9033TIP3    H127044   2.524   0.017   4.411
 9033TIP3    H227045   2.525   0.094   4.281
 9034TIP3   OH227046   7.785   1.174   3.951
 9034TIP3    H127047   7.708   1.192   3.898
 9034TIP3    H227048   7.800   1.080   3.942
 9035TIP3   OH227049   3.940   5.592   1.531
 9035TIP3    H127050   3.995   5.600   1.609
 9035TIP3    H227051   3.955   5.502   1.501
 9036TIP3   OH227052   3.095   0.104   2.560
 9036TIP3    H127053   3.011   0.108   2.514
 9036TIP3    H227054   3.150   0.048   2.505
 9037TIP3   OH227055   7.544   0.528   1.958
 9037TIP3    H127056   7.628   0.484   1.947
 9037TIP3    H227057   7.516   0.505   2.047
 9038TIP3   OH227058   0.155   3.436   4.017
 9038TIP3    H127059   0.171   3.448   4.111
 9038TIP3    H227060   0.132   3.343   4.008
 9039TIP3   OH227061   2.055   1.534   4.104
 9039TIP3    H127062   2.113   1.607   4.125
 9039TIP3    H227063   2.113   1.468   4.064
 9040TIP3   OH227064   2.474   7.110   3.925
 9040TIP3    H127065   2.408   7.177   3.906
 9040TIP3    H227066   2.512   7.135   4.009
 9041TIP3   OH227067   4.452   4.936   2.181
 9041TIP3    H127068   4.428   4.963   2.269
 9041TIP3    H227069   4.389   4.867   2.159
 9042TIP3   OH227070   2.412   1.941   1.111
 9042TIP3    H127071   2.352   2.016   1.110
 9042TIP3    H227072   2.427   1.924   1.204
 9043TIP3   OH227073   7.414   2.473   6.715
 9043TIP3    H127074   7.345   2.535   6.689
 9043TIP3    H227075   7.425   2.488   6.809
 9044TIP3   OH227076   4.650   4.406   2.366
 9044TIP3    H127077   4.676   4.315   2.379
 9044TIP3    H227078   4.655   4.445   2.453
 9045TIP3   OH227079   3.092   6.481   3.178
 9045TIP3    H127080   3.014   6.475   3.233
 9045TIP3    H227081   3.122   6.571   3.190
 9046TIP3   OH227082   5.746   2.268   4.528
 9046TIP3    H127083   5.699   2.190   4.558
 9046TIP3    H227084   5.836   2.255   4.559
 9047TIP3   OH227085   4.056   1.614   5.636
 9047TIP3    H127086   4.032   1.680   5.572
 9047TIP3    H227087   4.151   1.604   5.627
 9048TIP3   OH227088   2.586   7.297   1.218
 9048TIP3    H127089   2.572   7.375   1.165
 9048TIP3    H227090   2.519   7.303   1.287
 9049TIP3   OH227091   3.314   6.224   1.160
 9049TIP3    H127092   3.362   6.184   1.087
 9049TIP3    H227093   3.223   6.199   1.146
 9050TIP3   OH227094   6.609   2.096   5.748
 9050TIP3    H127095   6.543   2.027   5.759
 9050TIP3    H227096   6.650   2.077   5.664
 9051TIP3   OH227097   7.459   2.066   1.336
 9051TIP3    H127098   7.415   2.122   1.400
 9051TIP3    H227099   7.523   2.124   1.294
 9052TIP3   OH227100   8.234   0.960   0.737
 9052TIP3    H127101   8.236   1.029   0.804
 9052TIP3    H227102   8.238   1.006   0.654
 9053TIP3   OH227103   3.795   5.528   2.905
 9053TIP3    H127104   3.874   5.474   2.906
 9053TIP3    H227105   3.805   5.587   2.979
 9054TIP3   OH227106   0.805   4.947   5.938
 9054TIP3    H127107   0.868   4.935   6.010
 9054TIP3    H227108   0.829   5.032   5.901
 9055TIP3   OH227109   3.739   1.079   0.454
 9055TIP3    H127110   3.690   1.072   0.372
 9055TIP3    H227111   3.800   1.152   0.440
 9056TIP3   OH227112   2.353   2.423   3.345
 9056TIP3    H127113   2.277   2.428   3.403
 9056TIP3    H227114   2.385   2.512   3.340
 9057TIP3   OH227115   1.137   5.652   3.328
 9057TIP3    H127116   1.112   5.743   3.313
 9057TIP3    H227117   1.075   5.601   3.275
 9058TIP3   OH227118   4.559   2.919   1.489
 9058TIP3    H127119   4.516   2.834   1.500
 9058TIP3    H227120   4.617   2.907   1.414
 9059TIP3   OH227121   7.334   4.318   3.705
 9059TIP3    H127122   7.295   4.380   3.766
 9059TIP3    H227123   7.304   4.348   3.619
 9060TIP3   OH227124   1.378   5.128   4.094
 9060TIP3    H127125   1.355   5.044   4.055
 9060TIP3    H227126   1.388   5.109   4.187
 9061TIP3   OH227127   4.166   0.682   2.615
 9061TIP3    H127128   4.206   0.602   2.582
 9061TIP3    H227129   4.230   0.751   2.598
 9062TIP3   OH227130   2.328   6.840   1.043
 9062TIP3    H127131   2.341   6.750   1.072
 9062TIP3    H227132   2.389   6.891   1.096
 9063TIP3   OH227133   0.079   3.273   2.505
 9063TIP3    H127134   0.118   3.281   2.592
 9063TIP3    H227135  -0.003   3.322   2.511
 9064TIP3   OH227136   3.902   5.350   1.991
 9064TIP3    H127137   3.901   5.443   2.016
 9064TIP3    H227138   3.993   5.332   1.967
 9065TIP3   OH227139   4.663   1.142   0.501
 9065TIP3    H127140   4.702   1.222   0.536
 9065TIP3    H227141   4.737   1.089   0.474
 9066TIP3   OH227142   1.633   5.439   4.953
 9066TIP3    H127143   1.697   5.476   5.015
 9066TIP3    H227144   1.686   5.389   4.892
 9067TIP3   OH227145   7.214   1.837   1.963
 9067TIP3    H127146   7.144   1.824   1.898
 9067TIP3    H227147   7.284   1.878   1.913
 9068TIP3   OH227148   1.605   1.515   1.305
 9068TIP3    H127149   1.562   1.432   1.328
 9068TIP3    H227150   1.540   1.562   1.254
 9069TIP3   OH227151   4.424   1.774   6.059
 9069TIP3    H127152   4.478   1.701   6.091
 9069TIP3    H227153   4.469   1.853   6.091
 9070TIP3   OH227154   4.469   2.093   3.336
 9070TIP3    H127155   4.501   2.049   3.257
 9070TIP3    H227156   4.389   2.138   3.308
 9071TIP3   OH227157   5.526   0.733   3.314
 9071TIP3    H127158   5.564   0.760   3.230
 9071TIP3    H227159   5.433   0.723   3.296
 9072TIP3   OH227160   1.107   4.897   1.298
 9072TIP3    H127161   1.183   4.922   1.246
 9072TIP3    H227162   1.139   4.827   1.356
 9073TIP3   OH227163   2.900   5.316   2.370
 9073TIP3    H127164   2.834   5.380   2.342
 9073TIP3    H227165   2.859   5.231   2.353
 9074TIP3   OH227166   0.645   3.635   1.048
 9074TIP3    H127167   0.707   3.707   1.036
 9074TIP3    H227168   0.618   3.642   1.140
 9075TIP3   OH227169   7.953   2.911   6.631
 9075TIP3    H127170   7.983   2.998   6.657
 9075TIP3    H227171   7.897   2.926   6.555
 9076TIP3   OH227172   1.678   0.718   5.995
 9076TIP3    H127173   1.614   0.675   6.052
 9076TIP3    H227174   1.759   0.668   6.008
 9077TIP3   OH227175   7.528   1.179   5.798
 9077TIP3    H127176   7.546   1.264   5.837
 9077TIP3    H227177   7.602   1.161   5.741
 9078TIP3   OH227178   4.881   3.642   2.820
 9078TIP3    H127179   4.841   3.602   2.897
 9078TIP3    H227180   4.968   3.604   2.814
 9079TIP3   OH227181   7.554   4.030   3.081
 9079TIP3    H127182   7.528   4.006   3.170
 9079TIP3    H227183   7.484   3.995   3.025
 9080TIP3   OH227184   5.030   7.730   0.478
 9080TIP3    H127185   5.059   7.734   0.387
 9080TIP3    H227186   5.078   7.800   0.522
 9081TIP3   OH227187   2.542   4.702   5.770
 9081TIP3    H127188   2.618   4.709   5.713
 9081TIP3    H227189   2.547   4.779   5.827
 9082TIP3   OH227190   5.519   1.072   4.213
 9082TIP3    H127191   5.434   1.102   4.246
 9082TIP3    H227192   5.580   1.086   4.286
 9083TIP3   OH227193   7.258   1.820   3.835
 9083TIP3    H127194   7.346   1.853   3.856
 9083TIP3    H227195   7.270   1.770   3.754
 9084TIP3   OH227196   3.305   2.363   1.759
 9084TIP3    H127197   3.220   2.330   1.730
 9084TIP3    H227198   3.367   2.331   1.693
 9085TIP3   OH227199   2.859   2.118   1.724
 9085TIP3    H127200   2.885   2.035   1.763
 9085TIP3    H227201   2.793   2.154   1.784
 9086TIP3   OH227202   1.290   0.938   0.675
 9086TIP3    H127203   1.195   0.949   0.671
 9086TIP3    H227204   1.305   0.852   0.636
 9087TIP3   OH227205   4.613   0.217   4.149
 9087TIP3    H127206   4.533   0.224   4.202
 9087TIP3    H227207   4.649   0.131   4.171
 9088TIP3   OH227208   6.314   6.719   2.487
 9088TIP3    H127209   6.339   6.810   2.476
 9088TIP3    H227210   6.243   6.720   2.551
 9089TIP3   OH227211   5.601   4.184   5.174
 9089TIP3    H127212   5.621   4.161   5.265
 9089TIP3    H227213   5.659   4.129   5.122
 9090TIP3   OH227214   0.168   3.842   0.722
 9090TIP3    H127215   0.182   3.881   0.635
 9090TIP3    H227216   0.187   3.749   0.710
 9091TIP3   OH227217   3.845   2.413   1.142
 9091TIP3    H127218   3.784   2.477   1.179
 9091TIP3    H227219   3.910   2.465   1.096
 9092TIP3   OH227220   1.310   4.304   6.168
 9092TIP3    H127221   1.387   4.359   6.151
 9092TIP3    H227222   1.297   4.310   6.262
 9093TIP3   OH227223   5.715   4.319   3.036
 9093TIP3    H127224   5.757   4.321   3.122
 9093TIP3    H227225   5.718   4.227   3.010
 9094TIP3   OH227226   2.307   5.249   6.312
 9094TIP3    H127227   2.225   5.203   6.295
 9094TIP3    H227228   2.282   5.342   6.312
 9095TIP3   OH227229   2.522   1.976   2.214
 9095TIP3    H127230   2.428   1.959   2.226
 9095TIP3    H227231   2.565   1.899   2.252
 9096TIP3   OH227232   1.350   7.573   2.548
 9096TIP3    H127233   1.257   7.551   2.553
 9096TIP3    H227234   1.393   7.490   2.525
 9097TIP3   OH227235   8.202   5.024   2.927
 9097TIP3    H127236   8.172   4.995   2.841
 9097TIP3    H227237   8.127   5.070   2.965
 9098TIP3   OH227238   7.715   1.529   4.315
 9098TIP3    H127239   7.709   1.443   4.272
 9098TIP3    H227240   7.753   1.586   4.248
 9099TIP3   OH227241   7.438   4.708   6.187
 9099TIP3    H127242   7.507   4.723   6.122
 9099TIP3    H227243   7.478   4.650   6.252
 9100TIP3   OH227244   0.534   1.628   5.319
 9100TIP3    H127245   0.568   1.665   5.238
 9100TIP3    H227246   0.512   1.703   5.373
 9101TIP3   OH227247   1.269   5.372   5.315
 9101TIP3    H127248   1.284   5.453   5.364
 9101TIP3    H227249   1.179   5.380   5.284
 9102TIP3   OH227250   5.529   3.682   1.192
 9102TIP3    H127251   5.580   3.763   1.184
 9102TIP3    H227252   5.496   3.666   1.104
 9103TIP3   OH227253   5.462   3.558   5.363
 9103TIP3    H127254   5.412   3.492   5.411
 9103TIP3    H227255   5.424   3.557   5.275
 9104TIP3   OH227256   0.180   4.946   0.091
 9104TIP3    H127257   0.171   4.870   0.033
 9104TIP3    H227258   0.274   4.962   0.094
 9105TIP3   OH227259   5.477   1.659   3.378
 9105TIP3    H127260   5.570   1.636   3.385
 9105TIP3    H227261   5.443   1.602   3.309
 9106TIP3   OH227262   7.280   4.033   2.978
 9106TIP3    H127263   7.264   4.082   3.059
 9106TIP3    H227264   7.242   3.947   2.995
 9107TIP3   OH227265   6.798   5.188   0.751
 9107TIP3    H127266   6.792   5.244   0.828
 9107TIP3    H227267   6.766   5.103   0.780
 9108TIP3   OH227268   7.164   2.632   5.367
 9108TIP3    H127269   7.229   2.685   5.320
 9108TIP3    H227270   7.080   2.655   5.326
 9109TIP3   OH227271   7.027   5.638   5.868
 9109TIP3    H127272   6.949   5.581   5.866
 9109TIP3    H227273   6.996   5.722   5.834
 9110TIP3   OH227274   3.044   1.471   2.086
 9110TIP3    H127275   3.117   1.424   2.126
 9110TIP3    H227276   3.002   1.407   2.029
 9111TIP3   OH227277   7.286   1.668   3.605
 9111TIP3    H127278   7.361   1.629   3.649
 9111TIP3    H227279   7.318   1.690   3.518
 9112TIP3   OH227280   5.737   1.833   3.600
 9112TIP3    H127281   5.773   1.917   3.627
 9112TIP3    H227282   5.688   1.852   3.520
 9113TIP3   OH227283   7.350   0.725   2.472
 9113TIP3    H127284   7.296   0.796   2.436
 9113TIP3    H227285   7.411   0.703   2.403
 9114TIP3   OH227286   7.379   2.042   5.536
 9114TIP3    H127287   7.378   2.112   5.601
 9114TIP3    H227288   7.356   2.086   5.453
 9115TIP3   OH227289   3.753   7.232   0.489
 9115TIP3    H127290   3.802   7.266   0.564
 9115TIP3    H227291   3.793   7.146   0.472
 9116TIP3   OH227292   3.101   5.766   6.409
 9116TIP3    H127293   3.138   5.684   6.377
 9116TIP3    H227294   3.061   5.743   6.493
 9117TIP3   OH227295   7.026   4.215   0.815
 9117TIP3    H127296   7.091   4.192   0.749
 9117TIP3    H227297   6.943   4.220   0.766
 9118TIP3   OH227298   1.101   3.736   4.567
 9118TIP3    H127299   1.192   3.727   4.593
 9118TIP3    H227300   1.104   3.756   4.474
 9119TIP3   OH227301   7.014   4.928   3.662
 9119TIP3    H127302   7.020   4.960   3.752
 9119TIP3    H227303   6.951   4.986   3.619
 9120TIP3   OH227304   2.023   1.187   2.984
 9120TIP3    H127305   1.944   1.160   2.937
 9120TIP3    H227306   2.079   1.226   2.917
 9121TIP3   OH227307   1.164   7.255   1.026
 9121TIP3    H127308   1.186   7.163   1.010
 9121TIP3    H227309   1.085   7.270   0.974
 9122TIP3   OH227310   0.776   5.997   6.542
 9122TIP3    H127311   0.697   6.044   6.514
 9122TIP3    H227312   0.757   5.970   6.632
 9123TIP3   OH227313   7.007   4.338   4.691
 9123TIP3    H127314   7.025   4.316   4.599
 9123TIP3    H227315   7.094   4.355   4.728
 9124TIP3   OH227316   0.508   4.901   2.024
 9124TIP3    H127317   0.443   4.848   1.980
 9124TIP3    H227318   0.545   4.843   2.091
 9125TIP3   OH227319   7.484   7.366   6.557
 9125TIP3    H127320   7.497   7.272   6.568
 9125TIP3    H227321   7.527   7.387   6.474
 9126TIP3   OH227322   4.030   6.908   4.848
 9126TIP3    H127323   4.013   6.983   4.905
 9126TIP3    H227324   4.076   6.846   4.904
 9127TIP3   OH227325   5.751   1.160   2.462
 9127TIP3    H127326   5.744   1.076   2.509
 9127TIP3    H227327   5.784   1.221   2.528
 9128TIP3   OH227328   6.235   6.469   3.398
 9128TIP3    H127329   6.273   6.552   3.370
 9128TIP3    H227330   6.146   6.469   3.362
 9129TIP3   OH227331   1.708   1.129   4.960
 9129TIP3    H127332   1.697   1.043   4.919
 9129TIP3    H227333   1.716   1.111   5.053
 9130TIP3   OH227334   0.687   2.408   6.182
 9130TIP3    H127335   0.726   2.379   6.265
 9130TIP3    H227336   0.692   2.331   6.126
 9131TIP3   OH227337   3.875   0.755   1.403
 9131TIP3    H127338   3.857   0.840   1.362
 9131TIP3    H227339   3.929   0.708   1.340
 9132TIP3   OH227340   6.081   4.418   6.755
 9132TIP3    H127341   6.161   4.457   6.788
 9132TIP3    H227342   6.052   4.476   6.685
 9133TIP3   OH227343   8.144   4.684   3.957
 9133TIP3    H127344   8.156   4.709   3.865
 9133TIP3    H227345   8.054   4.708   3.976
 9134TIP3   OH227346   6.544   2.087   4.865
 9134TIP3    H127347   6.621   2.059   4.914
 9134TIP3    H227348   6.556   2.182   4.854
 9135TIP3   OH227349   5.318   1.373   4.124
 9135TIP3    H127350   5.229   1.399   4.149
 9135TIP3    H227351   5.330   1.287   4.164
 9136TIP3   OH227352   4.350   1.359   4.190
 9136TIP3    H127353   4.341   1.277   4.141
 9136TIP3    H227354   4.312   1.340   4.276
 9137TIP3   OH227355   5.923   3.835   2.732
 9137TIP3    H127356   6.005   3.841   2.683
 9137TIP3    H227357   5.944   3.782   2.808
 9138TIP3   OH227358   3.015   1.841   4.884
 9138TIP3    H127359   2.991   1.760   4.928
 9138TIP3    H227360   3.063   1.813   4.806
 9139TIP3   OH227361   1.399   5.882   5.062
 9139TIP3    H127362   1.416   5.903   5.154
 9139TIP3    H227363   1.306   5.902   5.049
 9140TIP3   OH227364   1.221   2.680   4.522
 9140TIP3    H127365   1.298   2.731   4.546
 9140TIP3    H227366   1.222   2.678   4.426
 9141TIP3   OH227367   4.997   4.689   0.017
 9141TIP3    H127368   5.051   4.657  -0.055
 9141TIP3    H227369   5.053   4.677   0.095
 9142TIP3   OH227370   6.536   2.807   6.299
 9142TIP3    H127371   6.455   2.842   6.263
 9142TIP3    H227372   6.507   2.754   6.374
 9143TIP3   OH227373   3.680   0.914   5.969
 9143TIP3    H127374   3.607   0.852   5.973
 9143TIP3    H227375   3.736   0.881   5.898
 9144TIP3   OH227376   1.515   1.395   2.677
 9144TIP3    H127377   1.423   1.379   2.656
 9144TIP3    H227378   1.554   1.307   2.682
 9145TIP3   OH227379   4.074   2.335  -0.010
 9145TIP3    H127380   4.010   2.291   0.045
 9145TIP3    H227381   4.065   2.428   0.013
 9146TIP3   OH227382   7.814   7.328   4.471
 9146TIP3    H127383   7.852   7.268   4.536
 9146TIP3    H227384   7.770   7.271   4.409
 9147TIP3   OH227385   2.519   7.129   2.674
 9147TIP3    H127386   2.602   7.172   2.693
 9147TIP3    H227387   2.452   7.195   2.693
 9148TIP3   OH227388   4.570   6.545   0.263
 9148TIP3    H127389   4.514   6.495   0.204
 9148TIP3    H227390   4.604   6.616   0.209
 9149TIP3   OH227391   3.313   7.742   6.284
 9149TIP3    H127392   3.284   7.706   6.199
 9149TIP3    H227393   3.315   7.837   6.270
 9150TIP3   OH227394   6.117   7.724   4.309
 9150TIP3    H127395   6.098   7.763   4.223
 9150TIP3    H227396   6.210   7.741   4.323
 9151TIP3   OH227397   8.240   4.416   5.141
 9151TIP3    H127398   8.246   4.509   5.162
 9151TIP3    H227399   8.324   4.395   5.099
 9152TIP3   OH227400   1.601   7.602   6.311
 9152TIP3    H127401   1.667   7.533   6.307
 9152TIP3    H227402   1.532   7.566   6.367
 9153TIP3   OH227403   1.360   2.343   0.717
 9153TIP3    H127404   1.313   2.426   0.714
 9153TIP3    H227405   1.305   2.286   0.771
 9154TIP3   OH227406   6.615   1.429   6.117
 9154TIP3    H127407   6.689   1.477   6.154
 9154TIP3    H227408   6.540   1.487   6.129
 9155TIP3   OH227409   1.132   2.159   1.271
 9155TIP3    H127410   1.073   2.231   1.244
 9155TIP3    H227411   1.129   2.098   1.198
 9156TIP3   OH227412   0.125   0.906   3.411
 9156TIP3    H127413   0.136   0.811   3.400
 9156TIP3    H227414   0.148   0.922   3.503
 9157TIP3   OH227415   7.632   7.271   3.239
 9157TIP3    H127416   7.622   7.362   3.265
 9157TIP3    H227417   7.546   7.246   3.205
 9158TIP3   OH227418   2.876   2.562   3.170
 9158TIP3    H127419   2.799   2.514   3.202
 9158TIP3    H227420   2.951   2.512   3.204
 9159TIP3   OH227421   3.464   6.873   4.412
 9159TIP3    H127422   3.522   6.949   4.416
 9159TIP3    H227423   3.490   6.819   4.486
 9160TIP3   OH227424   2.461   1.812   5.934
 9160TIP3    H127425   2.386   1.847   5.886
 9160TIP3    H227426   2.425   1.777   6.015
 9161TIP3   OH227427   5.769   5.179   0.762
 9161TIP3    H127428   5.822   5.127   0.701
 9161TIP3    H227429   5.716   5.235   0.705
 9162TIP3   OH227430   3.391   2.682   5.410
 9162TIP3    H127431   3.354   2.596   5.387
 9162TIP3    H227432   3.314   2.735   5.431
 9163TIP3   OH227433   8.078   5.837   4.589
 9163TIP3    H127434   8.016   5.867   4.655
 9163TIP3    H227435   8.162   5.834   4.635
 9164TIP3   OH227436   3.477   1.176   5.479
 9164TIP3    H127437   3.495   1.266   5.453
 9164TIP3    H227438   3.515   1.168   5.567
 9165TIP3   OH227439   3.301   0.102   4.939
 9165TIP3    H127440   3.379   0.085   4.886
 9165TIP3    H227441   3.285   0.196   4.929
 9166TIP3   OH227442   5.400   5.248   0.390
 9166TIP3    H127443   5.328   5.275   0.448
 9166TIP3    H227444   5.385   5.295   0.309
 9167TIP3   OH227445   0.988   5.205   3.102
 9167TIP3    H127446   0.927   5.209   3.176
 9167TIP3    H227447   0.933   5.189   3.026
 9168TIP3   OH227448   6.752   4.820   3.041
 9168TIP3    H127449   6.738   4.751   2.977
 9168TIP3    H227450   6.665   4.843   3.072
 9169TIP3   OH227451   3.320   5.366   3.807
 9169TIP3    H127452   3.356   5.359   3.896
 9169TIP3    H227453   3.367   5.299   3.757
 9170TIP3   OH227454   2.954   6.525   5.215
 9170TIP3    H127455   3.041   6.507   5.181
 9170TIP3    H227456   2.947   6.471   5.294
 9171TIP3   OH227457   7.211   5.085   1.622
 9171TIP3    H127458   7.145   5.117   1.684
 9171TIP3    H227459   7.211   5.150   1.551
 9172TIP3   OH227460   2.360   7.082   6.476
 9172TIP3    H127461   2.445   7.126   6.469
 9172TIP3    H227462   2.374   7.015   6.543
 9173TIP3   OH227463   1.241   5.997   3.823
 9173TIP3    H127464   1.262   6.064   3.888
 9173TIP3    H227465   1.324   5.980   3.778
 9174TIP3   OH227466   1.334   4.392   5.099
 9174TIP3    H127467   1.427   4.372   5.092
 9174TIP3    H227468   1.324   4.428   5.187
 9175TIP3   OH227469   3.876   6.967   0.514
 9175TIP3    H127470   3.856   6.874   0.509
 9175TIP3    H227471   3.971   6.971   0.526
 9176TIP3   OH227472   5.813   2.862   2.531
 9176TIP3    H127473   5.742   2.904   2.481
 9176TIP3    H227474   5.784   2.772   2.542
 9177TIP3   OH227475   2.038   1.413   1.327
 9177TIP3    H127476   1.964   1.368   1.369
 9177TIP3    H227477   2.059   1.485   1.387
 9178TIP3   OH227478   0.558   1.569   4.318
 9178TIP3    H127479   0.509   1.649   4.298
 9178TIP3    H227480   0.636   1.599   4.363
 9179TIP3   OH227481   5.894   4.214   1.204
 9179TIP3    H127482   5.804   4.192   1.229
 9179TIP3    H227483   5.896   4.310   1.201
 9180TIP3   OH227484   3.355   0.904   0.194
 9180TIP3    H127485   3.283   0.848   0.222
 9180TIP3    H227486   3.380   0.871   0.108
 9181TIP3   OH227487   5.360   1.913   4.606
 9181TIP3    H127488   5.282   1.862   4.628
 9181TIP3    H227489   5.426   1.847   4.583
 9182TIP3   OH227490   3.345   0.084   2.223
 9182TIP3    H127491   3.389   0.084   2.138
 9182TIP3    H227492   3.367  -0.001   2.261
 9183TIP3   OH227493   3.446   1.386   4.143
 9183TIP3    H127494   3.412   1.429   4.221
 9183TIP3    H227495   3.374   1.332   4.111
 9184TIP3   OH227496   1.057   7.443   3.352
 9184TIP3    H127497   0.978   7.407   3.311
 9184TIP3    H227498   1.065   7.396   3.435
 9185TIP3   OH227499   2.301   6.941   5.041
 9185TIP3    H127500   2.245   7.009   5.005
 9185TIP3    H227501   2.322   6.885   4.967
 9186TIP3   OH227502   6.883   3.912   3.707
 9186TIP3    H127503   6.973   3.944   3.717
 9186TIP3    H227504   6.840   3.933   3.789
 9187TIP3   OH227505   5.686   3.699   0.552
 9187TIP3    H127506   5.654   3.681   0.640
 9187TIP3    H227507   5.610   3.737   0.507
 9188TIP3   OH227508   4.511   7.274   4.426
 9188TIP3    H127509   4.525   7.184   4.397
 9188TIP3    H227510   4.421   7.276   4.458
 9189TIP3   OH227511   2.161   2.932   4.868
 9189TIP3    H127512   2.128   3.021   4.857
 9189TIP3    H227513   2.165   2.919   4.963
 9190TIP3   OH227514   0.941   2.966   4.801
 9190TIP3    H127515   1.019   3.006   4.839
 9190TIP3    H227516   0.929   3.013   4.718
 9191TIP3   OH227517   3.057   1.757   0.756
 9191TIP3    H127518   2.971   1.718   0.739
 9191TIP3    H227519   3.039   1.827   0.818
 9192TIP3   OH227520   6.443   1.232   4.086
 9192TIP3    H127521   6.366   1.178   4.068
 9192TIP3    H227522   6.411   1.322   4.081
 9193TIP3   OH227523   0.999   4.682   0.209
 9193TIP3    H127524   0.954   4.630   0.276
 9193TIP3    H227525   1.084   4.702   0.247
 9194TIP3   OH227526   3.711   3.514   2.045
 9194TIP3    H127527   3.674   3.451   2.107
 9194TIP3    H227528   3.776   3.563   2.096
 9195TIP3   OH227529   7.404   6.932   6.249
 9195TIP3    H127530   7.464   6.975   6.187
 9195TIP3    H227531   7.317   6.951   6.215
 9196TIP3   OH227532   5.307   0.264   4.134
 9196TIP3    H127533   5.322   0.328   4.204
 9196TIP3    H227534   5.271   0.316   4.062
 9197TIP3   OH227535   3.162   0.073   0.619
 9197TIP3    H127536   3.187  -0.006   0.571
 9197TIP3    H227537   3.067   0.075   0.613
 9198TIP3   OH227538   4.740   6.586   5.567
 9198TIP3    H127539   4.717   6.641   5.642
 9198TIP3    H227540   4.800   6.520   5.603
 9199TIP3   OH227541   3.977   4.617   0.312
 9199TIP3    H127542   3.896   4.613   0.261
 9199TIP3    H227543   4.010   4.527   0.312
 9200TIP3   OH227544   7.909   1.236   1.236
 9200TIP3    H127545   7.835   1.182   1.209
 9200TIP3    H227546   7.968   1.176   1.281
 9201TIP3   OH227547   0.129   4.298   5.427
 9201TIP3    H127548   0.083   4.381   5.413
 9201TIP3    H227549   0.222   4.322   5.423
 9202TIP3   OH227550   5.128   0.957   3.337
 9202TIP3    H127551   5.071   1.010   3.283
 9202TIP3    H227552   5.208   1.009   3.346
 9203TIP3   OH227553   5.841   1.135   5.318
 9203TIP3    H127554   5.851   1.133   5.413
 9203TIP3    H227555   5.852   1.044   5.290
 9204TIP3   OH227556   0.692   6.132   0.512
 9204TIP3    H127557   0.658   6.177   0.435
 9204TIP3    H227558   0.746   6.061   0.478
 9205TIP3   OH227559   7.419   0.609   2.923
 9205TIP3    H127560   7.384   0.554   2.993
 9205TIP3    H227561   7.342   0.630   2.869
 9206TIP3   OH227562   0.987   4.825   3.193
 9206TIP3    H127563   1.029   4.895   3.143
 9206TIP3    H227564   1.034   4.746   3.168
 9207TIP3   OH227565   3.801   5.318   4.383
 9207TIP3    H127566   3.889   5.288   4.409
 9207TIP3    H227567   3.797   5.301   4.289
 9208TIP3   OH227568   3.042   0.274   6.057
 9208TIP3    H127569   3.064   0.319   5.976
 9208TIP3    H227570   3.122   0.277   6.109
 9209TIP3   OH227571   7.936   0.538   1.639
 9209TIP3    H127572   7.866   0.581   1.689
 9209TIP3    H227573   8.006   0.524   1.702
 9210TIP3   OH227574   7.361   5.003   6.177
 9210TIP3    H127575   7.349   5.010   6.272
 9210TIP3    H227576   7.371   4.909   6.161
 9211TIP3   OH227577   1.218   0.386   2.928
 9211TIP3    H127578   1.145   0.385   2.866
 9211TIP3    H227579   1.267   0.465   2.905
 9212TIP3   OH227580   8.018   1.573   4.471
 9212TIP3    H127581   7.979   1.639   4.527
 9212TIP3    H227582   8.106   1.561   4.507
 9213TIP3   OH227583   7.042   1.563   0.849
 9213TIP3    H127584   7.022   1.480   0.807
 9213TIP3    H227585   7.137   1.571   0.844
 9214TIP3   OH227586   2.449   2.308   3.069
 9214TIP3    H127587   2.400   2.300   3.151
 9214TIP3    H227588   2.540   2.316   3.095
 9215TIP3   OH227589   0.056   0.443   2.659
 9215TIP3    H127590   0.151   0.435   2.661
 9215TIP3    H227591   0.034   0.491   2.739
 9216TIP3   OH227592   8.313   6.965   3.897
 9216TIP3    H127593   8.364   6.985   3.976
 9216TIP3    H227594   8.229   7.009   3.912
 9217TIP3   OH227595   5.193   0.696   4.044
 9217TIP3    H127596   5.190   0.685   4.139
 9217TIP3    H227597   5.173   0.789   4.031
 9218TIP3   OH227598   3.516   2.593   0.755
 9218TIP3    H127599   3.475   2.582   0.670
 9218TIP3    H227600   3.560   2.678   0.750
 9219TIP3   OH227601   0.118   1.750   0.742
 9219TIP3    H127602   0.056   1.807   0.788
 9219TIP3    H227603   0.204   1.788   0.760
 9220TIP3   OH227604   4.842   5.906   5.611
 9220TIP3    H127605   4.905   5.977   5.624
 9220TIP3    H227606   4.792   5.932   5.533
 9221TIP3   OH227607   6.401   2.384   2.596
 9221TIP3    H127608   6.393   2.467   2.549
 9221TIP3    H227609   6.311   2.357   2.614
 9222TIP3   OH227610   2.115   3.745   2.200
 9222TIP3    H127611   2.031   3.699   2.202
 9222TIP3    H227612   2.179   3.677   2.175
 9223TIP3   OH227613   6.352   3.332   0.909
 9223TIP3    H127614   6.392   3.358   0.826
 9223TIP3    H227615   6.414   3.362   0.976
 9224TIP3   OH227616   2.008   6.073   2.128
 9224TIP3    H127617   2.030   6.040   2.041
 9224TIP3    H227618   2.035   6.165   2.126
 9225TIP3   OH227619   2.975   7.241   2.350
 9225TIP3    H127620   3.061   7.279   2.330
 9225TIP3    H227621   2.952   7.193   2.270
 9226TIP3   OH227622   2.127   7.448   3.005
 9226TIP3    H127623   2.165   7.508   3.068
 9226TIP3    H227624   2.081   7.505   2.943
 9227TIP3   OH227625   3.671   7.705   6.552
 9227TIP3    H127626   3.669   7.616   6.518
 9227TIP3    H227627   3.694   7.695   6.644
 9228TIP3   OH227628   4.516   3.050   0.397
 9228TIP3    H127629   4.488   3.099   0.320
 9228TIP3    H227630   4.584   2.991   0.365
 9229TIP3   OH227631   6.022   5.834   6.207
 9229TIP3    H127632   5.981   5.780   6.275
 9229TIP3    H227633   5.994   5.793   6.125
 9230TIP3   OH227634   4.302   1.667   0.672
 9230TIP3    H127635   4.392   1.640   0.654
 9230TIP3    H227636   4.253   1.585   0.677
 9231TIP3   OH227637   1.477   3.685   4.916
 9231TIP3    H127638   1.558   3.702   4.964
 9231TIP3    H227639   1.496   3.610   4.861
 9232TIP3   OH227640   0.324   1.362   1.672
 9232TIP3    H127641   0.260   1.381   1.741
 9232TIP3    H227642   0.271   1.356   1.592
 9233TIP3   OH227643   2.339   2.462   1.954
 9233TIP3    H127644   2.315   2.493   1.867
 9233TIP3    H227645   2.338   2.367   1.947
 9234TIP3   OH227646   6.040   4.844   3.474
 9234TIP3    H127647   6.026   4.930   3.512
 9234TIP3    H227648   5.952   4.810   3.459
 9235TIP3   OH227649   7.585   4.902   5.452
 9235TIP3    H127650   7.506   4.849   5.443
 9235TIP3    H227651   7.553   4.988   5.478
 9236TIP3   OH227652   4.064   0.650   1.227
 9236TIP3    H127653   4.085   0.557   1.235
 9236TIP3    H227654   4.074   0.669   1.133
 9237TIP3   OH227655   0.924   1.270   2.184
 9237TIP3    H127656   0.981   1.297   2.112
 9237TIP3    H227657   0.984   1.245   2.254
 9238TIP3   OH227658   6.434   2.502   4.752
 9238TIP3    H127659   6.383   2.572   4.792
 9238TIP3    H227660   6.419   2.513   4.658
 9239TIP3   OH227661   1.899   4.890   6.328
 9239TIP3    H127662   1.845   4.891   6.407
 9239TIP3    H227663   1.848   4.940   6.263
 9240TIP3   OH227664   4.266   4.136   1.612
 9240TIP3    H127665   4.284   4.174   1.526
 9240TIP3    H227666   4.201   4.195   1.651
 9241TIP3   OH227667   3.070   4.511   0.223
 9241TIP3    H127668   3.088   4.597   0.263
 9241TIP3    H227669   2.981   4.491   0.250
 9242TIP3   OH227670   8.043   5.428   6.229
 9242TIP3    H127671   7.984   5.452   6.158
 9242TIP3    H227672   8.111   5.496   6.227
 9243TIP3   OH227673   7.422   2.212   1.613
 9243TIP3    H127674   7.435   2.151   1.686
 9243TIP3    H227675   7.343   2.260   1.636
 9244TIP3   OH227676   4.753   0.553   5.903
 9244TIP3    H127677   4.688   0.618   5.878
 9244TIP3    H227678   4.829   0.572   5.848
 9245TIP3   OH227679   6.338   7.408   5.434
 9245TIP3    H127680   6.329   7.327   5.485
 9245TIP3    H227681   6.428   7.437   5.450
 9246TIP3   OH227682   2.978   0.282   1.392
 9246TIP3    H127683   3.058   0.246   1.354
 9246TIP3    H227684   3.005   0.313   1.479
 9247TIP3   OH227685   2.665   1.363   0.247
 9247TIP3    H127686   2.572   1.351   0.267
 9247TIP3    H227687   2.677   1.458   0.246
 9248TIP3   OH227688   7.882   0.820   1.435
 9248TIP3    H127689   7.894   0.744   1.378
 9248TIP3    H227690   7.967   0.833   1.475
 9249TIP3   OH227691   1.376   3.673   0.764
 9249TIP3    H127692   1.284   3.659   0.787
 9249TIP3    H227693   1.421   3.595   0.796
 9250TIP3   OH227694   2.858   6.776   1.432
 9250TIP3    H127695   2.949   6.778   1.461
 9250TIP3    H227696   2.858   6.713   1.360
 9251TIP3   OH227697   1.744   1.806   4.099
 9251TIP3    H127698   1.805   1.759   4.042
 9251TIP3    H227699   1.759   1.770   4.186
 9252TIP3   OH227700   5.051   7.464   0.125
 9252TIP3    H127701   5.043   7.543   0.071
 9252TIP3    H227702   5.131   7.477   0.176
 9253TIP3   OH227703   7.169   5.407   2.053
 9253TIP3    H127704   7.217   5.482   2.089
 9253TIP3    H227705   7.150   5.352   2.128
 9254TIP3   OH227706   1.719   1.445   1.688
 9254TIP3    H127707   1.745   1.450   1.780
 9254TIP3    H227708   1.624   1.461   1.689
 9255TIP3   OH227709   3.528   6.799   5.136
 9255TIP3    H127710   3.532   6.728   5.072
 9255TIP3    H227711   3.612   6.795   5.182
 9256TIP3   OH227712   6.297   2.791   6.112
 9256TIP3    H127713   6.280   2.701   6.085
 9256TIP3    H227714   6.224   2.813   6.169
 9257TIP3   OH227715   3.069   3.568   0.782
 9257TIP3    H127716   2.986   3.611   0.804
 9257TIP3    H227717   3.135   3.637   0.793
 9258TIP3   OH227718   7.811   2.926   3.977
 9258TIP3    H127719   7.718   2.903   3.978
 9258TIP3    H227720   7.829   2.960   4.064
 9259TIP3   OH227721   8.041   0.503   1.394
 9259TIP3    H127722   8.069   0.412   1.389
 9259TIP3    H227723   8.006   0.513   1.482
 9260TIP3   OH227724   1.404   2.894   2.217
 9260TIP3    H127725   1.388   2.979   2.257
 9260TIP3    H227726   1.365   2.900   2.130
 9261TIP3   OH227727   0.443   7.691   1.566
 9261TIP3    H127728   0.480   7.603   1.577
 9261TIP3    H227729   0.509   7.738   1.515
 9262TIP3   OH227730   2.135   1.537   3.811
 9262TIP3    H127731   2.155   1.444   3.801
 9262TIP3    H227732   2.143   1.572   3.722
 9263TIP3   OH227733   1.084   7.057   3.230
 9263TIP3    H127734   1.040   6.987   3.276
 9263TIP3    H227735   1.118   7.114   3.299
 9264TIP3   OH227736   1.609   5.170   5.220
 9264TIP3    H127737   1.663   5.137   5.148
 9264TIP3    H227738   1.627   5.264   5.221
 9265TIP3   OH227739   1.544   5.014   1.436
 9265TIP3    H127740   1.604   4.940   1.442
 9265TIP3    H227741   1.471   4.991   1.493
 9266TIP3   OH227742   0.135   7.387   6.655
 9266TIP3    H127743   0.167   7.467   6.612
 9266TIP3    H227744   0.109   7.330   6.583
 9267TIP3   OH227745   7.509   7.739   6.262
 9267TIP3    H127746   7.456   7.663   6.238
 9267TIP3    H227747   7.508   7.740   6.358
 9268TIP3   OH227748   1.816   3.818   4.259
 9268TIP3    H127749   1.908   3.790   4.268
 9268TIP3    H227750   1.813   3.901   4.306
 9269TIP3   OH227751   4.341   4.461   6.461
 9269TIP3    H127752   4.330   4.554   6.480
 9269TIP3    H227753   4.422   4.437   6.507
 9270TIP3   OH227754   5.220   1.198   0.739
 9270TIP3    H127755   5.307   1.200   0.780
 9270TIP3    H227756   5.196   1.290   0.731
 9271TIP3   OH227757   6.032   3.484   5.065
 9271TIP3    H127758   5.987   3.557   5.023
 9271TIP3    H227759   5.970   3.451   5.129
 9272TIP3   OH227760   1.620   5.651   3.910
 9272TIP3    H127761   1.641   5.582   3.974
 9272TIP3    H227762   1.673   5.726   3.938
 9273TIP3   OH227763   4.382   7.573   5.753
 9273TIP3    H127764   4.341   7.660   5.760
 9273TIP3    H227765   4.473   7.591   5.729
 9274TIP3   OH227766   4.749   2.229   1.371
 9274TIP3    H127767   4.799   2.261   1.447
 9274TIP3    H227768   4.672   2.286   1.368
 9275TIP3   OH227769   6.409   6.025   4.502
 9275TIP3    H127770   6.355   6.104   4.501
 9275TIP3    H227771   6.362   5.964   4.558
 9276TIP3   OH227772   7.437   2.575   0.505
 9276TIP3    H127773   7.368   2.562   0.440
 9276TIP3    H227774   7.471   2.487   0.522
 9277TIP3   OH227775   7.035   4.680   3.240
 9277TIP3    H127776   6.946   4.682   3.274
 9277TIP3    H227777   7.091   4.672   3.317
 9278TIP3   OH227778   5.293   3.974   3.825
 9278TIP3    H127779   5.308   3.884   3.853
 9278TIP3    H227780   5.281   3.968   3.730
 9279TIP3   OH227781   4.624   0.154   0.081
 9279TIP3    H127782   4.636   0.085   0.017
 9279TIP3    H227783   4.686   0.223   0.055
 9280TIP3   OH227784   8.254   1.101   3.502
 9280TIP3    H127785   8.265   1.159   3.427
 9280TIP3    H227786   8.318   1.031   3.488
 9281TIP3   OH227787   5.250   2.944   2.164
 9281TIP3    H127788   5.257   3.039   2.178
 9281TIP3    H227789   5.156   2.928   2.155
 9282TIP3   OH227790   4.900   3.546   1.839
 9282TIP3    H127791   4.861   3.459   1.849
 9282TIP3    H227792   4.868   3.578   1.755
 9283TIP3   OH227793   4.996   5.591   0.340
 9283TIP3    H127794   4.989   5.531   0.414
 9283TIP3    H227795   4.991   5.678   0.379
 9284TIP3   OH227796   5.253   2.804   3.443
 9284TIP3    H127797   5.184   2.863   3.413
 9284TIP3    H227798   5.334   2.853   3.427
 9285TIP3   OH227799   2.188   7.549   2.065
 9285TIP3    H127800   2.122   7.495   2.020
 9285TIP3    H227801   2.272   7.517   2.030
 9286TIP3   OH227802   2.038   6.516   3.093
 9286TIP3    H127803   2.006   6.553   3.176
 9286TIP3    H227804   1.968   6.457   3.065
 9287TIP3   OH227805   6.315   1.176   2.923
 9287TIP3    H127806   6.377   1.245   2.900
 9287TIP3    H227807   6.260   1.214   2.992
 9288TIP3   OH227808   4.383   1.185   4.684
 9288TIP3    H127809   4.358   1.095   4.703
 9288TIP3    H227810   4.326   1.211   4.612
 9289TIP3   OH227811   4.311   5.802   3.272
 9289TIP3    H127812   4.288   5.891   3.248
 9289TIP3    H227813   4.348   5.764   3.193
 9290TIP3   OH227814   5.532   3.762   2.520
 9290TIP3    H127815   5.444   3.788   2.494
 9290TIP3    H227816   5.542   3.796   2.609
 9291TIP3   OH227817   2.955   4.045   1.978
 9291TIP3    H127818   2.959   4.078   2.068
 9291TIP3    H227819   2.992   4.116   1.925
 9292TIP3   OH227820   2.740   1.865   1.556
 9292TIP3    H127821   2.711   1.938   1.612
 9292TIP3    H227822   2.717   1.787   1.606
 9293TIP3   OH227823   4.617   3.412   3.531
 9293TIP3    H127824   4.523   3.395   3.537
 9293TIP3    H227825   4.624   3.479   3.463
 9294TIP3   OH227826   3.563   6.633   3.510
 9294TIP3    H127827   3.640   6.581   3.535
 9294TIP3    H227828   3.562   6.706   3.572
 9295TIP3   OH227829   3.603   6.651   5.525
 9295TIP3    H127830   3.686   6.626   5.486
 9295TIP3    H227831   3.612   6.745   5.542
 9296TIP3   OH227832   2.828   4.170   4.856
 9296TIP3    H127833   2.856   4.090   4.811
 9296TIP3    H227834   2.761   4.207   4.798
 9297TIP3   OH227835   7.119   2.442   3.610
 9297TIP3    H127836   7.196   2.460   3.663
 9297TIP3    H227837   7.057   2.400   3.670
 9298TIP3   OH227838   4.042   5.251   2.537
 9298TIP3    H127839   3.978   5.243   2.466
 9298TIP3    H227840   4.034   5.168   2.584
 9299TIP3   OH227841   8.197   4.305   5.810
 9299TIP3    H127842   8.136   4.374   5.784
 9299TIP3    H227843   8.164   4.226   5.766
 9300TIP3   OH227844   0.994   2.788   2.551
 9300TIP3    H127845   1.070   2.794   2.493
 9300TIP3    H227846   0.958   2.701   2.533
 9301TIP3   OH227847   0.498   7.455   5.581
 9301TIP3    H127848   0.480   7.549   5.573
 9301TIP3    H227849   0.443   7.415   5.513
 9302TIP3   OH227850   6.651   1.025   6.662
 9302TIP3    H127851   6.744   1.002   6.660
 9302TIP3    H227852   6.627   1.017   6.754
 9303TIP3   OH227853   7.674   6.665   4.358
 9303TIP3    H127854   7.663   6.755   4.389
 9303TIP3    H227855   7.680   6.672   4.263
 9304TIP3   OH227856   3.711   5.118   4.147
 9304TIP3    H127857   3.699   5.032   4.187
 9304TIP3    H227858   3.759   5.101   4.066
 9305TIP3   OH227859   0.370   7.406   4.930
 9305TIP3    H127860   0.357   7.324   4.978
 9305TIP3    H227861   0.287   7.453   4.940
 9306TIP3   OH227862   7.212   7.617   6.454
 9306TIP3    H127863   7.250   7.569   6.380
 9306TIP3    H227864   7.202   7.550   6.522
 9307TIP3   OH227865   5.851   6.888   1.982
 9307TIP3    H127866   5.762   6.861   1.959
 9307TIP3    H227867   5.868   6.847   2.067
 9308TIP3   OH227868   3.950   7.023   6.414
 9308TIP3    H127869   4.030   6.970   6.413
 9308TIP3    H227870   3.881   6.962   6.441
 9309TIP3   OH227871   7.522   6.893   3.928
 9309TIP3    H127872   7.429   6.875   3.920
 9309TIP3    H227873   7.564   6.834   3.866
 9310TIP3   OH227874   1.963   3.181   0.717
 9310TIP3    H127875   1.887   3.231   0.687
 9310TIP3    H227876   2.038   3.224   0.676
 9311TIP3   OH227877   0.838   1.638   1.403
 9311TIP3    H127878   0.763   1.579   1.410
 9311TIP3    H227879   0.895   1.613   1.475
 9312TIP3   OH227880   5.123   7.224   5.625
 9312TIP3    H127881   5.056   7.226   5.557
 9312TIP3    H227882   5.097   7.293   5.686
 9313TIP3   OH227883   6.620   4.617   4.092
 9313TIP3    H127884   6.530   4.632   4.121
 9313TIP3    H227885   6.622   4.524   4.067
 9314TIP3   OH227886   0.671   7.024   3.626
 9314TIP3    H127887   0.607   6.994   3.561
 9314TIP3    H227888   0.718   6.944   3.651
 9315TIP3   OH227889   5.522   7.770   1.734
 9315TIP3    H127890   5.553   7.831   1.800
 9315TIP3    H227891   5.599   7.717   1.712
 9316TIP3   OH227892   0.662   6.076   4.725
 9316TIP3    H127893   0.600   6.067   4.652
 9316TIP3    H227894   0.741   6.031   4.696
 9317TIP3   OH227895   0.429   1.798   0.110
 9317TIP3    H127896   0.494   1.809   0.181
 9317TIP3    H227897   0.481   1.773   0.034
 9318TIP3   OH227898   2.201   4.232   0.688
 9318TIP3    H127899   2.230   4.280   0.765
 9318TIP3    H227900   2.236   4.144   0.700
 9319TIP3   OH227901   6.779   4.740   4.291
 9319TIP3    H127902   6.794   4.686   4.213
 9319TIP3    H227903   6.731   4.683   4.351
 9320TIP3   OH227904   0.096   0.208   2.184
 9320TIP3    H127905   0.175   0.155   2.182
 9320TIP3    H227906   0.043   0.171   2.255
 9321TIP3   OH227907   2.811   7.371   5.340
 9321TIP3    H127908   2.727   7.325   5.338
 9321TIP3    H227909   2.788   7.464   5.338
 9322TIP3   OH227910   7.398   3.938   3.498
 9322TIP3    H127911   7.308   3.967   3.510
 9322TIP3    H227912   7.392   3.843   3.490
 9323TIP3   OH227913   1.988   7.730   0.634
 9323TIP3    H127914   2.034   7.728   0.718
 9323TIP3    H227915   1.917   7.792   0.647
 9324TIP3   OH227916   1.833   4.974   4.003
 9324TIP3    H127917   1.847   5.060   3.965
 9324TIP3    H227918   1.744   4.950   3.977
 9325TIP3   OH227919   0.042   4.925   0.329
 9325TIP3    H127920   0.096   4.859   0.373
 9325TIP3    H227921   0.077   4.928   0.240
 9326TIP3   OH227922   7.242   4.396   6.295
 9326TIP3    H127923   7.175   4.331   6.272
 9326TIP3    H227924   7.200   4.481   6.281
 9327TIP3   OH227925   0.794   0.871   2.247
 9327TIP3    H127926   0.857   0.801   2.231
 9327TIP3    H227927   0.815   0.903   2.335
 9328TIP3   OH227928   0.718   7.223   4.926
 9328TIP3    H127929   0.668   7.172   4.989
 9328TIP3    H227930   0.809   7.198   4.943
 9329TIP3   OH227931   6.366   5.574   1.169
 9329TIP3    H127932   6.380   5.554   1.262
 9329TIP3    H227933   6.432   5.641   1.150
 9330TIP3   OH227934   8.088   2.056   3.574
 9330TIP3    H127935   8.010   2.090   3.617
 9330TIP3    H227936   8.057   2.024   3.489
 9331TIP3   OH227937   3.566   3.950   4.902
 9331TIP3    H127938   3.553   3.994   4.986
 9331TIP3    H227939   3.500   3.990   4.845
 9332TIP3   OH227940   0.102   5.404   5.346
 9332TIP3    H127941   0.117   5.496   5.322
 9332TIP3    H227942   0.190   5.366   5.349
 9333TIP3   OH227943   0.346   1.341   2.766
 9333TIP3    H127944   0.314   1.278   2.702
 9333TIP3    H227945   0.432   1.367   2.734
 9334TIP3   OH227946   2.796   7.626   1.490
 9334TIP3    H127947   2.742   7.663   1.420
 9334TIP3    H227948   2.787   7.531   1.479
 9335TIP3   OH227949   0.675   5.120   1.942
 9335TIP3    H127950   0.727   5.053   1.986
 9335TIP3    H227951   0.584   5.094   1.958
 9336TIP3   OH227952   5.028   7.353   6.361
 9336TIP3    H127953   4.949   7.406   6.347
 9336TIP3    H227954   5.009   7.302   6.440
 9337TIP3   OH227955   7.946   3.683   6.682
 9337TIP3    H127956   7.875   3.721   6.629
 9337TIP3    H227957   7.905   3.610   6.729
 9338TIP3   OH227958   2.052   2.405   2.440
 9338TIP3    H127959   2.067   2.407   2.534
 9338TIP3    H227960   2.062   2.313   2.415
 9339TIP3   OH227961   6.313   0.872   6.308
 9339TIP3    H127962   6.264   0.946   6.344
 9339TIP3    H227963   6.405   0.896   6.320
 9340TIP3   OH227964   8.228   1.780   3.381
 9340TIP3    H127965   8.144   1.821   3.359
 9340TIP3    H227966   8.272   1.767   3.297
 9341TIP3   OH227967   5.884   6.157   2.880
 9341TIP3    H127968   5.812   6.119   2.931
 9341TIP3    H227969   5.912   6.087   2.821
 9342TIP3   OH227970   3.190   2.878   5.469
 9342TIP3    H127971   3.204   2.936   5.394
 9342TIP3    H227972   3.095   2.883   5.485
 9343TIP3   OH227973   3.177   0.622   6.083
 9343TIP3    H127974   3.196   0.649   5.994
 9343TIP3    H227975   3.201   0.529   6.087
 9344TIP3   OH227976   7.635   1.200   6.079
 9344TIP3    H127977   7.572   1.167   6.015
 9344TIP3    H227978   7.582   1.234   6.151
 9345TIP3   OH227979   4.669   4.572   2.135
 9345TIP3    H127980   4.685   4.530   2.219
 9345TIP3    H227981   4.596   4.523   2.097
 9346TIP3   OH227982   2.687   7.725   0.369
 9346TIP3    H127983   2.712   7.810   0.333
 9346TIP3    H227984   2.732   7.721   0.454
 9347TIP3   OH227985   7.848   6.113   4.066
 9347TIP3    H127986   7.916   6.063   4.111
 9347TIP3    H227987   7.870   6.205   4.082
 9348TIP3   OH227988   5.659   5.542   6.053
 9348TIP3    H127989   5.597   5.529   5.981
 9348TIP3    H227990   5.619   5.497   6.127
 9349TIP3   OH227991   4.644   4.277   1.763
 9349TIP3    H127992   4.551   4.292   1.743
 9349TIP3    H227993   4.646   4.193   1.808
 9350TIP3   OH227994   6.887   0.251   4.611
 9350TIP3    H127995   6.977   0.264   4.583
 9350TIP3    H227996   6.871   0.322   4.674
 9351TIP3   OH227997   6.561   6.342   4.899
 9351TIP3    H127998   6.580   6.350   4.805
 9351TIP3    H227999   6.597   6.423   4.937
 9352TIP3   OH228000   6.257   1.236   4.307
 9352TIP3    H128001   6.208   1.154   4.315
 9352TIP3    H228002   6.339   1.211   4.265
 9353TIP3   OH228003   7.099   5.159   6.187
 9353TIP3    H128004   7.124   5.237   6.237
 9353TIP3    H228005   7.164   5.093   6.214
 9354TIP3   OH228006   6.127   5.938   3.081
 9354TIP3    H128007   6.192   5.934   3.151
 9354TIP3    H228008   6.108   6.031   3.070
 9355TIP3   OH228009   0.446   2.171   1.086
 9355TIP3    H128010   0.461   2.091   1.137
 9355TIP3    H228011   0.366   2.154   1.037
 9356TIP3   OH228012   2.490   1.953   4.489
 9356TIP3    H128013   2.558   1.987   4.431
 9356TIP3    H228014   2.538   1.911   4.561
 9357TIP3   OH228015   3.582   0.179   5.835
 9357TIP3    H128016   3.603   0.271   5.814
 9357TIP3    H228017   3.529   0.184   5.914
 9358TIP3   OH228018   4.252   5.312   3.745
 9358TIP3    H128019   4.278   5.246   3.809
 9358TIP3    H228020   4.191   5.266   3.687
 9359TIP3   OH228021   1.612   3.892   2.371
 9359TIP3    H128022   1.680   3.888   2.304
 9359TIP3    H228023   1.658   3.879   2.454
 9360TIP3   OH228024   6.079   7.215   0.722
 9360TIP3    H128025   6.156   7.271   0.713
 9360TIP3    H228026   6.112   7.136   0.765
 9361TIP3   OH228027   4.495   6.639   2.542
 9361TIP3    H128028   4.539   6.665   2.623
 9361TIP3    H228029   4.520   6.707   2.479
 9362TIP3   OH228030   3.379   1.658   2.298
 9362TIP3    H128031   3.385   1.753   2.303
 9362TIP3    H228032   3.370   1.640   2.204
 9363TIP3   OH228033   0.677   4.627   1.772
 9363TIP3    H128034   0.652   4.604   1.683
 9363TIP3    H228035   0.677   4.723   1.773
 9364TIP3   OH228036   7.928   2.112   4.385
 9364TIP3    H128037   7.987   2.091   4.457
 9364TIP3    H228038   7.911   2.028   4.343
 9365TIP3   OH228039   1.555   4.377   1.599
 9365TIP3    H128040   1.551   4.336   1.685
 9365TIP3    H228041   1.649   4.386   1.581
 9366TIP3   OH228042   2.515   5.495   2.021
 9366TIP3    H128043   2.475   5.464   2.102
 9366TIP3    H228044   2.441   5.503   1.960
 9367TIP3   OH228045   7.095   6.704   0.053
 9367TIP3    H128046   7.089   6.696  -0.042
 9367TIP3    H228047   7.005   6.722   0.081
 9368TIP3   OH228048   4.351   6.238   1.349
 9368TIP3    H128049   4.300   6.217   1.427
 9368TIP3    H228050   4.286   6.245   1.279
 9369TIP3   OH228051   4.628   4.201   5.465
 9369TIP3    H128052   4.608   4.268   5.399
 9369TIP3    H228053   4.722   4.212   5.482
 9370TIP3   OH228054   5.338   3.927   2.989
 9370TIP3    H128055   5.290   4.010   2.979
 9370TIP3    H228056   5.323   3.880   2.907
 9371TIP3   OH228057   7.510   5.929   2.405
 9371TIP3    H128058   7.480   5.963   2.321
 9371TIP3    H228059   7.529   6.007   2.457
 9372TIP3   OH228060   7.403   3.140   1.250
 9372TIP3    H128061   7.365   3.137   1.338
 9372TIP3    H228062   7.327   3.143   1.191
 9373TIP3   OH228063   4.149   1.881   4.137
 9373TIP3    H128064   4.194   1.909   4.216
 9373TIP3    H228065   4.168   1.787   4.131
 9374TIP3   OH228066   3.124   2.199   1.128
 9374TIP3    H128067   3.088   2.147   1.057
 9374TIP3    H228068   3.211   2.224   1.099
 9375TIP3   OH228069   4.916   5.870   6.020
 9375TIP3    H128070   4.908   5.886   6.114
 9375TIP3    H228071   4.828   5.844   5.992
 9376TIP3   OH228072   6.623   2.345   4.857
 9376TIP3    H128073   6.677   2.399   4.914
 9376TIP3    H228074   6.552   2.402   4.830
 9377TIP3   OH228075   8.069   0.485   2.843
 9377TIP3    H128076   8.159   0.516   2.837
 9377TIP3    H228077   8.065   0.409   2.785
 9378TIP3   OH228078   0.017   2.868   0.405
 9378TIP3    H128079   0.073   2.793   0.425
 9378TIP3    H228080   0.017   2.920   0.486
 9379TIP3   OH228081   7.566   1.252   3.130
 9379TIP3    H128082   7.605   1.172   3.094
 9379TIP3    H228083   7.602   1.259   3.218
 9380TIP3   OH228084   7.524   5.554   2.143
 9380TIP3    H128085   7.618   5.569   2.128
 9380TIP3    H228086   7.510   5.464   2.112
 9381TIP3   OH228087   7.783   1.676   2.792
 9381TIP3    H128088   7.867   1.721   2.782
 9381TIP3    H228089   7.752   1.663   2.702
 9382TIP3   OH228090   5.596   0.658   0.249
 9382TIP3    H128091   5.603   0.623   0.160
 9382TIP3    H228092   5.626   0.586   0.305
 9383TIP3   OH228093   6.603   0.309   3.376
 9383TIP3    H128094   6.545   0.360   3.320
 9383TIP3    H228095   6.634   0.371   3.443
 9384TIP3   OH228096   6.470   6.804   2.876
 9384TIP3    H128097   6.556   6.785   2.839
 9384TIP3    H228098   6.441   6.883   2.830
 9385TIP3   OH228099   4.112   5.538   3.844
 9385TIP3    H128100   4.044   5.471   3.848
 9385TIP3    H228101   4.194   5.489   3.836
 9386TIP3   OH228102   4.131   4.788   3.865
 9386TIP3    H128103   4.223   4.797   3.840
 9386TIP3    H228104   4.133   4.784   3.961
 9387TIP3   OH228105   7.319   1.993   2.316
 9387TIP3    H128106   7.308   2.070   2.260
 9387TIP3    H228107   7.271   1.924   2.270
 9388TIP3   OH228108   5.389   1.735   5.476
 9388TIP3    H128109   5.364   1.826   5.489
 9388TIP3    H228110   5.318   1.698   5.424
 9389TIP3   OH228111   4.162   0.809   5.115
 9389TIP3    H128112   4.070   0.782   5.116
 9389TIP3    H228113   4.201   0.762   5.189
 9390TIP3   OH228114   5.789   0.306   5.721
 9390TIP3    H128115   5.702   0.309   5.681
 9390TIP3    H228116   5.850   0.312   5.647
 9391TIP3   OH228117   0.447   2.493   2.638
 9391TIP3    H128118   0.484   2.565   2.587
 9391TIP3    H228119   0.379   2.456   2.582
 9392TIP3   OH228120   0.102   3.477   4.285
 9392TIP3    H128121   0.079   3.421   4.359
 9392TIP3    H228122   0.018   3.498   4.243
 9393TIP3   OH228123   7.428   0.285   2.334
 9393TIP3    H128124   7.501   0.240   2.376
 9393TIP3    H228125   7.363   0.297   2.404
 9394TIP3   OH228126   3.747   3.126   2.052
 9394TIP3    H128127   3.778   3.135   2.142
 9394TIP3    H228128   3.819   3.086   2.005
 9395TIP3   OH228129   2.006   5.196   1.379
 9395TIP3    H128130   1.915   5.165   1.383
 9395TIP3    H228131   2.017   5.226   1.289
 9396TIP3   OH228132   5.116   1.000   4.953
 9396TIP3    H128133   5.021   0.986   4.947
 9396TIP3    H228134   5.133   1.001   5.047
 9397TIP3   OH228135   6.152   0.426   3.462
 9397TIP3    H128136   6.097   0.366   3.411
 9397TIP3    H228137   6.209   0.467   3.398
 9398TIP3   OH228138   7.157   4.440   0.908
 9398TIP3    H128139   7.237   4.399   0.874
 9398TIP3    H228140   7.090   4.372   0.902
 9399TIP3   OH228141   1.954   3.900   0.896
 9399TIP3    H128142   2.040   3.936   0.919
 9399TIP3    H228143   1.972   3.812   0.864
 9400TIP3   OH228144   0.762   0.347   2.351
 9400TIP3    H128145   0.794   0.373   2.265
 9400TIP3    H228146   0.672   0.318   2.336
 9401TIP3   OH228147   4.652   5.247   5.855
 9401TIP3    H128148   4.646   5.214   5.945
 9401TIP3    H228149   4.715   5.190   5.812
 9402TIP3   OH228150   6.846   6.688   4.047
 9402TIP3    H128151   6.810   6.627   4.112
 9402TIP3    H228152   6.934   6.655   4.029
 9403TIP3   OH228153   0.031   4.363   1.455
 9403TIP3    H128154   0.003   4.285   1.503
 9403TIP3    H228155  -0.037   4.378   1.389
 9404TIP3   OH228156   0.992   6.030   3.714
 9404TIP3    H128157   0.962   5.946   3.680
 9404TIP3    H228158   1.076   6.011   3.756
 9405TIP3   OH228159   2.259   5.127   3.821
 9405TIP3    H128160   2.310   5.207   3.809
 9405TIP3    H228161   2.185   5.137   3.761
 9406TIP3   OH228162   3.199   4.682   3.499
 9406TIP3    H128163   3.274   4.731   3.466
 9406TIP3    H228164   3.236   4.617   3.557
 9407TIP3   OH228165   3.086   3.672   2.889
 9407TIP3    H128166   3.148   3.609   2.852
 9407TIP3    H228167   3.047   3.627   2.964
 9408TIP3   OH228168   1.043   7.374   0.814
 9408TIP3    H128169   1.055   7.467   0.834
 9408TIP3    H228170   1.028   7.372   0.719
 9409TIP3   OH228171   0.275   2.016   3.675
 9409TIP3    H128172   0.256   2.049   3.763
 9409TIP3    H228173   0.225   1.935   3.668
 9410TIP3   OH228174   1.371   1.413   4.822
 9410TIP3    H128175   1.408   1.325   4.822
 9410TIP3    H228176   1.335   1.424   4.909
 9411TIP3   OH228177   4.184   3.716   6.640
 9411TIP3    H128178   4.120   3.785   6.653
 9411TIP3    H228179   4.153   3.643   6.694
 9412TIP3   OH228180   0.691   2.340   0.791
 9412TIP3    H128181   0.702   2.336   0.696
 9412TIP3    H228182   0.703   2.249   0.820
 9413TIP3   OH228183   0.464   0.364   4.994
 9413TIP3    H128184   0.476   0.269   4.998
 9413TIP3    H228185   0.471   0.393   5.085
 9414TIP3   OH228186   1.683   6.881   1.964
 9414TIP3    H128187   1.675   6.795   1.924
 9414TIP3    H228188   1.645   6.870   2.052
 9415TIP3   OH228189   3.688   6.808   2.812
 9415TIP3    H128190   3.748   6.866   2.765
 9415TIP3    H228191   3.612   6.863   2.831
 9416TIP3   OH228192   1.487   4.324   1.885
 9416TIP3    H128193   1.555   4.391   1.880
 9416TIP3    H228194   1.519   4.262   1.950
 9417TIP3   OH228195   7.929   1.674   6.586
 9417TIP3    H128196   8.012   1.636   6.556
 9417TIP3    H228197   7.868   1.600   6.584
 9418TIP3   OH228198   7.716   4.701   0.977
 9418TIP3    H128199   7.781   4.642   0.941
 9418TIP3    H228200   7.638   4.647   0.989
 9419TIP3   OH228201   4.720   5.293   0.275
 9419TIP3    H128202   4.693   5.204   0.251
 9419TIP3    H228203   4.788   5.280   0.341
 9420TIP3   OH228204   1.351   0.296   5.186
 9420TIP3    H128205   1.402   0.294   5.105
 9420TIP3    H228206   1.408   0.256   5.251
 9421TIP3   OH228207   7.258   7.476   3.099
 9421TIP3    H128208   7.309   7.410   3.145
 9421TIP3    H228209   7.318   7.550   3.090
 9422TIP3   OH228210   0.828   6.758   0.325
 9422TIP3    H128211   0.857   6.816   0.255
 9422TIP3    H228212   0.746   6.720   0.292
 9423TIP3   OH228213   6.349   5.731   2.220
 9423TIP3    H128214   6.258   5.733   2.191
 9423TIP3    H228215   6.374   5.639   2.219
 9424TIP3   OH228216   3.014   1.533   0.444
 9424TIP3    H128217   2.920   1.545   0.429
 9424TIP3    H228218   3.049   1.622   0.444
 9425TIP3   OH228219   0.595   1.209   6.338
 9425TIP3    H128220   0.552   1.138   6.290
 9425TIP3    H228221   0.575   1.288   6.287
 9426TIP3   OH228222   2.707   1.796   2.468
 9426TIP3    H128223   2.696   1.710   2.427
 9426TIP3    H228224   2.762   1.845   2.407
 9427TIP3   OH228225   4.899   4.457   3.713
 9427TIP3    H128226   4.963   4.511   3.667
 9427TIP3    H228227   4.821   4.512   3.721
 9428TIP3   OH228228   1.296   1.505   5.112
 9428TIP3    H128229   1.316   1.536   5.200
 9428TIP3    H228230   1.201   1.505   5.107
 9429TIP3   OH228231   5.996   7.276   3.963
 9429TIP3    H128232   6.027   7.315   4.045
 9429TIP3    H228233   6.013   7.182   3.974
 9430TIP3   OH228234   5.333   2.630   1.467
 9430TIP3    H128235   5.350   2.578   1.545
 9430TIP3    H228236   5.328   2.566   1.396
 9431TIP3   OH228237   2.031   3.248   3.562
 9431TIP3    H128238   2.010   3.255   3.655
 9431TIP3    H228239   1.982   3.319   3.521
 9432TIP3   OH228240   0.366   3.573   3.795
 9432TIP3    H128241   0.409   3.658   3.797
 9432TIP3    H228242   0.327   3.565   3.883
 9433TIP3   OH228243   5.481   3.643   5.831
 9433TIP3    H128244   5.576   3.629   5.833
 9433TIP3    H228245   5.454   3.642   5.923
 9434TIP3   OH228246   1.173   7.275   5.739
 9434TIP3    H128247   1.184   7.312   5.651
 9434TIP3    H228248   1.094   7.221   5.732
 9435TIP3   OH228249   2.825   6.779   2.485
 9435TIP3    H128250   2.782   6.795   2.569
 9435TIP3    H228251   2.911   6.819   2.495
 9436TIP3   OH228252   3.851   7.526   0.350
 9436TIP3    H128253   3.910   7.593   0.384
 9436TIP3    H228254   3.827   7.474   0.426
 9437TIP3   OH228255   4.391   1.535   5.167
 9437TIP3    H128256   4.307   1.543   5.122
 9437TIP3    H228257   4.368   1.533   5.260
 9438TIP3   OH228258   3.190   5.552   4.734
 9438TIP3    H128259   3.276   5.532   4.697
 9438TIP3    H228260   3.150   5.466   4.750
 9439TIP3   OH228261   6.110   2.440   4.365
 9439TIP3    H128262   6.183   2.378   4.364
 9439TIP3    H228263   6.040   2.394   4.412
 9440TIP3   OH228264   0.260   5.230   3.661
 9440TIP3    H128265   0.273   5.136   3.653
 9440TIP3    H228266   0.339   5.262   3.705
 9441TIP3   OH228267   6.700   0.936   0.767
 9441TIP3    H128268   6.764   0.896   0.709
 9441TIP3    H228269   6.700   1.029   0.743
 9442TIP3   OH228270   5.018   7.563   1.251
 9442TIP3    H128271   5.060   7.523   1.328
 9442TIP3    H228272   4.956   7.626   1.288
 9443TIP3   OH228273   7.110   6.297   3.371
 9443TIP3    H128274   7.195   6.329   3.344
 9443TIP3    H228275   7.047   6.347   3.319
 9444TIP3   OH228276   5.781   1.834   1.269
 9444TIP3    H128277   5.805   1.852   1.360
 9444TIP3    H228278   5.830   1.900   1.219
 9445TIP3   OH228279   8.039   6.683   2.309
 9445TIP3    H128280   8.018   6.615   2.374
 9445TIP3    H228281   7.965   6.681   2.248
 9446TIP3   OH228282   3.569   6.077   2.470
 9446TIP3    H128283   3.557   6.035   2.385
 9446TIP3    H228284   3.658   6.112   2.467
 9447TIP3   OH228285   1.586   4.154   3.785
 9447TIP3    H128286   1.568   4.230   3.729
 9447TIP3    H228287   1.618   4.191   3.867
 9448TIP3   OH228288   5.510   5.693   1.236
 9448TIP3    H128289   5.537   5.721   1.323
 9448TIP3    H228290   5.581   5.636   1.206
 9449TIP3   OH228291   6.785   7.079   0.168
 9449TIP3    H128292   6.813   6.990   0.148
 9449TIP3    H228293   6.740   7.109   0.089
 9450TIP3   OH228294   3.068   3.237   2.238
 9450TIP3    H128295   3.068   3.312   2.179
 9450TIP3    H228296   3.154   3.196   2.227
 9451TIP3   OH228297   5.212   3.281   6.478
 9451TIP3    H128298   5.225   3.374   6.500
 9451TIP3    H228299   5.176   3.283   6.389
 9452TIP3   OH228300   6.693   1.229   0.545
 9452TIP3    H128301   6.626   1.162   0.534
 9452TIP3    H228302   6.770   1.182   0.578
 9453TIP3   OH228303   7.300   7.079   4.473
 9453TIP3    H128304   7.339   7.097   4.558
 9453TIP3    H228305   7.308   7.162   4.425
 9454TIP3   OH228306   3.724   4.526   3.493
 9454TIP3    H128307   3.769   4.555   3.414
 9454TIP3    H228308   3.684   4.606   3.528
 9455TIP3   OH228309   4.497   6.618   1.509
 9455TIP3    H128310   4.438   6.687   1.538
 9455TIP3    H228311   4.440   6.554   1.466
 9456TIP3   OH228312   5.253   4.716   0.803
 9456TIP3    H128313   5.210   4.688   0.721
 9456TIP3    H228314   5.202   4.675   0.872
 9457TIP3   OH228315   6.513   7.159   5.464
 9457TIP3    H128316   6.569   7.085   5.488
 9457TIP3    H228317   6.433   7.119   5.429
 9458TIP3   OH228318   0.207   6.434   2.661
 9458TIP3    H128319   0.139   6.368   2.668
 9458TIP3    H228320   0.250   6.434   2.747
 9459TIP3   OH228321   0.468   1.602   3.855
 9459TIP3    H128322   0.546   1.548   3.845
 9459TIP3    H228323   0.446   1.631   3.767
 9460TIP3   OH228324   6.961   0.796   3.542
 9460TIP3    H128325   6.928   0.859   3.478
 9460TIP3    H228326   7.055   0.793   3.527
 9461TIP3   OH228327   7.763   1.923   2.987
 9461TIP3    H128328   7.689   1.947   2.931
 9461TIP3    H228329   7.762   1.827   2.988
 9462TIP3   OH228330   1.417   0.518   0.400
 9462TIP3    H128331   1.415   0.454   0.472
 9462TIP3    H228332   1.508   0.523   0.374
 9463TIP3   OH228333   6.344   1.227   5.657
 9463TIP3    H128334   6.328   1.314   5.622
 9463TIP3    H228335   6.388   1.242   5.740
 9464TIP3   OH228336   6.578   5.572   0.826
 9464TIP3    H128337   6.639   5.591   0.755
 9464TIP3    H228338   6.561   5.658   0.865
 9465TIP3   OH228339   3.244   5.544   3.278
 9465TIP3    H128340   3.236   5.542   3.374
 9465TIP3    H228341   3.323   5.493   3.260
 9466TIP3   OH228342   2.454   2.071   0.543
 9466TIP3    H128343   2.528   2.017   0.571
 9466TIP3    H228344   2.493   2.138   0.486
 9467TIP3   OH228345   5.905   6.149   1.333
 9467TIP3    H128346   5.998   6.139   1.313
 9467TIP3    H228347   5.864   6.067   1.304
 9468TIP3   OH228348   1.817   6.549   3.795
 9468TIP3    H128349   1.815   6.644   3.809
 9468TIP3    H228350   1.792   6.538   3.703
 9469TIP3   OH228351   7.163   5.797   4.513
 9469TIP3    H128352   7.088   5.760   4.466
 9469TIP3    H228353   7.144   5.891   4.517
 9470TIP3   OH228354   6.369   5.104   4.149
 9470TIP3    H128355   6.301   5.168   4.171
 9470TIP3    H228356   6.408   5.079   4.233
 9471TIP3   OH228357   7.049   7.121   0.845
 9471TIP3    H128358   7.133   7.135   0.802
 9471TIP3    H228359   7.056   7.035   0.886
 9472TIP3   OH228360   3.892   4.982   3.672
 9472TIP3    H128361   3.987   4.981   3.668
 9472TIP3    H228362   3.871   5.015   3.760
 9473TIP3   OH228363   4.558   6.034   1.065
 9473TIP3    H128364   4.551   6.127   1.083
 9473TIP3    H228365   4.595   6.029   0.977
 9474TIP3   OH228366   5.848   0.442   3.256
 9474TIP3    H128367   5.905   0.365   3.261
 9474TIP3    H228368   5.772   0.413   3.205
 9475TIP3   OH228369   6.385   2.333   0.651
 9475TIP3    H128370   6.395   2.379   0.568
 9475TIP3    H228371   6.292   2.313   0.657
 9476TIP3   OH228372   1.894   1.676   6.294
 9476TIP3    H128373   1.815   1.621   6.299
 9476TIP3    H228374   1.863   1.759   6.258
 9477TIP3   OH228375   6.607   7.637   6.211
 9477TIP3    H128376   6.540   7.624   6.278
 9477TIP3    H228377   6.634   7.728   6.221
 9478TIP3   OH228378   7.974   1.792   5.369
 9478TIP3    H128379   8.034   1.719   5.387
 9478TIP3    H228380   7.901   1.752   5.323
 9479TIP3   OH228381   0.243   0.284   4.513
 9479TIP3    H128382   0.172   0.240   4.560
 9479TIP3    H228383   0.307   0.306   4.581
 9480TIP3   OH228384   3.522   5.356   3.001
 9480TIP3    H128385   3.484   5.440   2.973
 9480TIP3    H228386   3.575   5.378   3.078
 9481TIP3   OH228387   3.741   3.900   3.424
 9481TIP3    H128388   3.799   3.945   3.486
 9481TIP3    H228389   3.722   3.966   3.358
 9482TIP3   OH228390   2.622   0.400   3.853
 9482TIP3    H128391   2.660   0.326   3.901
 9482TIP3    H228392   2.549   0.429   3.907
 9483TIP3   OH228393   3.228   0.463   3.449
 9483TIP3    H128394   3.212   0.502   3.363
 9483TIP3    H228395   3.316   0.492   3.472
 9484TIP3   OH228396   2.446   0.484   0.821
 9484TIP3    H128397   2.473   0.423   0.890
 9484TIP3    H228398   2.367   0.526   0.855
 9485TIP3   OH228399   1.993   3.876   5.951
 9485TIP3    H128400   2.043   3.950   5.987
 9485TIP3    H228401   2.056   3.804   5.948
 9486TIP3   OH228402   5.659   7.255   6.493
 9486TIP3    H128403   5.727   7.321   6.499
 9486TIP3    H228404   5.591   7.285   6.554
 9487TIP3   OH228405   4.517   5.652   6.226
 9487TIP3    H128406   4.422   5.661   6.226
 9487TIP3    H228407   4.534   5.577   6.282
 9488TIP3   OH228408   5.011   0.102   0.082
 9488TIP3    H128409   5.087   0.075   0.032
 9488TIP3    H228410   4.951   0.028   0.077
 9489TIP3   OH228411   4.265   1.813   3.590
 9489TIP3    H128412   4.176   1.845   3.578
 9489TIP3    H228413   4.270   1.786   3.682
 9490TIP3   OH228414   3.788   0.209   4.146
 9490TIP3    H128415   3.824   0.276   4.089
 9490TIP3    H228416   3.693   0.216   4.135
 9491TIP3   OH228417   7.980   2.437   0.851
 9491TIP3    H128418   7.953   2.439   0.943
 9491TIP3    H228419   7.929   2.507   0.810
 9492TIP3   OH228420   2.178   1.388   4.396
 9492TIP3    H128421   2.145   1.345   4.317
 9492TIP3    H228422   2.206   1.315   4.452
 9493TIP3   OH228423   7.168   1.186   1.252
 9493TIP3    H128424   7.157   1.234   1.170
 9493TIP3    H228425   7.245   1.131   1.237
 9494TIP3   OH228426   1.894   0.967   6.349
 9494TIP3    H128427   1.959   0.898   6.362
 9494TIP3    H228428   1.945   1.048   6.352
 9495TIP3   OH228429   3.450   6.926   2.051
 9495TIP3    H128430   3.408   6.943   1.967
 9495TIP3    H228431   3.385   6.876   2.101
 9496TIP3   OH228432   7.086   2.419   5.510
 9496TIP3    H128433   7.133   2.428   5.593
 9496TIP3    H228434   7.105   2.499   5.462
 9497TIP3   OH228435   4.429   7.321   6.593
 9497TIP3    H128436   4.522   7.313   6.569
 9497TIP3    H228437   4.403   7.233   6.617
 9498TIP3   OH228438   8.265   2.650   6.255
 9498TIP3    H128439   8.318   2.587   6.207
 9498TIP3    H228440   8.184   2.657   6.204
 9499TIP3   OH228441   1.537   1.350   5.955
 9499TIP3    H128442   1.531   1.316   6.044
 9499TIP3    H228443   1.565   1.276   5.902
 9500TIP3   OH228444   3.359   4.630   0.030
 9500TIP3    H128445   3.344   4.576   0.108
 9500TIP3    H228446   3.283   4.614  -0.025
 9501TIP3   OH228447   1.104   0.192   4.428
 9501TIP3    H128448   1.027   0.182   4.372
 9501TIP3    H228449   1.129   0.284   4.418
 9502TIP3   OH228450   4.778   4.196   6.710
 9502TIP3    H128451   4.758   4.103   6.713
 9502TIP3    H228452   4.750   4.224   6.623
 9503TIP3   OH228453   4.328   5.100   5.667
 9503TIP3    H128454   4.250   5.094   5.611
 9503TIP3    H228455   4.294   5.119   5.754
 9504TIP3   OH228456   2.097   3.059   6.095
 9504TIP3    H128457   2.171   3.052   6.156
 9504TIP3    H228458   2.124   3.008   6.019
 9505TIP3   OH228459   6.332   7.578   2.110
 9505TIP3    H128460   6.391   7.619   2.047
 9505TIP3    H228461   6.358   7.486   2.111
 9506TIP3   OH228462   4.956   1.059   4.038
 9506TIP3    H128463   4.937   0.971   4.068
 9506TIP3    H228464   5.051   1.063   4.032
 9507TIP3   OH228465   7.079   4.149   6.216
 9507TIP3    H128466   7.059   4.157   6.309
 9507TIP3    H228467   7.009   4.197   6.172
 9508TIP3   OH228468   4.765   1.192   1.447
 9508TIP3    H128469   4.719   1.256   1.502
 9508TIP3    H228470   4.701   1.122   1.434
 9509TIP3   OH228471   3.636   2.572   5.340
 9509TIP3    H128472   3.566   2.632   5.318
 9509TIP3    H228473   3.716   2.615   5.308
 9510TIP3   OH228474   4.382   4.382   4.992
 9510TIP3    H128475   4.409   4.290   4.990
 9510TIP3    H228476   4.287   4.379   4.980
 9511TIP3   OH228477   4.977   4.892   2.737
 9511TIP3    H128478   4.966   4.984   2.762
 9511TIP3    H228479   4.895   4.869   2.695
 9512TIP3   OH228480   2.686   2.685   2.514
 9512TIP3    H128481   2.730   2.603   2.535
 9512TIP3    H228482   2.694   2.692   2.418
 9513TIP3   OH228483   7.284   4.667   4.736
 9513TIP3    H128484   7.261   4.760   4.740
 9513TIP3    H228485   7.234   4.633   4.661
 9514TIP3   OH228486   6.351   2.204   6.615
 9514TIP3    H128487   6.380   2.122   6.654
 9514TIP3    H228488   6.432   2.250   6.594
 9515TIP3   OH228489   0.621   1.163   1.616
 9515TIP3    H128490   0.543   1.120   1.652
 9515TIP3    H228491   0.669   1.193   1.693
 9516TIP3   OH228492   7.566   3.698   1.558
 9516TIP3    H128493   7.560   3.611   1.520
 9516TIP3    H228494   7.556   3.758   1.484
 9517TIP3   OH228495   4.192   0.421   6.290
 9517TIP3    H128496   4.129   0.420   6.361
 9517TIP3    H228497   4.278   0.420   6.333
 9518TIP3   OH228498   4.544   6.373   4.793
 9518TIP3    H128499   4.614   6.382   4.857
 9518TIP3    H228500   4.494   6.454   4.800
 9519TIP3   OH228501   3.755   5.685   5.943
 9519TIP3    H128502   3.689   5.688   6.012
 9519TIP3    H228503   3.724   5.616   5.884
 9520TIP3   OH228504   6.875   5.738   6.250
 9520TIP3    H128505   6.783   5.759   6.264
 9520TIP3    H228506   6.907   5.711   6.336
 9521TIP3   OH228507   7.142   3.997   3.562
 9521TIP3    H128508   7.089   3.993   3.483
 9521TIP3    H228509   7.105   4.070   3.612
 9522TIP3   OH228510   3.932   3.364   3.143
 9522TIP3    H128511   4.017   3.327   3.118
 9522TIP3    H228512   3.927   3.349   3.237
 9523TIP3   OH228513   0.270   0.124   1.194
 9523TIP3    H128514   0.250   0.044   1.145
 9523TIP3    H228515   0.365   0.128   1.196
 9524TIP3   OH228516   2.765   6.077   1.350
 9524TIP3    H128517   2.715   6.139   1.297
 9524TIP3    H228518   2.742   6.098   1.440
 9525TIP3   OH228519   0.632   7.483   3.848
 9525TIP3    H128520   0.702   7.545   3.868
 9525TIP3    H228521   0.552   7.528   3.874
 9526TIP3   OH228522   8.245   5.151   3.674
 9526TIP3    H128523   8.237   5.181   3.584
 9526TIP3    H228524   8.293   5.068   3.668
 9527TIP3   OH228525   6.703   0.335   6.544
 9527TIP3    H128526   6.702   0.383   6.461
 9527TIP3    H228527   6.772   0.378   6.595
 9528TIP3   OH228528   6.253   1.930   4.021
 9528TIP3    H128529   6.290   2.017   4.036
 9528TIP3    H228530   6.175   1.927   4.077
 9529TIP3   OH228531   4.082   0.686   0.296
 9529TIP3    H128532   4.095   0.703   0.389
 9529TIP3    H228533   4.014   0.748   0.270
 9530TIP3   OH228534   7.095   7.811   6.593
 9530TIP3    H128535   7.152   7.774   6.526
 9530TIP3    H228536   7.021   7.847   6.544
 9531TIP3   OH228537   2.286   2.153   0.835
 9531TIP3    H128538   2.333   2.117   0.759
 9531TIP3    H228539   2.227   2.084   0.862
 9532TIP3   OH228540   7.846   1.178   5.330
 9532TIP3    H128541   7.920   1.122   5.307
 9532TIP3    H228542   7.883   1.244   5.389
 9533TIP3   OH228543   7.621   0.789   0.522
 9533TIP3    H128544   7.568   0.712   0.541
 9533TIP3    H228545   7.687   0.758   0.460
 9534TIP3   OH228546   4.503   1.123   2.989
 9534TIP3    H128547   4.474   1.142   2.899
 9534TIP3    H228548   4.422   1.100   3.035
 9535TIP3   OH228549   2.688   1.248   2.403
 9535TIP3    H128550   2.670   1.155   2.389
 9535TIP3    H228551   2.707   1.281   2.315
 9536TIP3   OH228552   4.759   4.889   3.139
 9536TIP3    H128553   4.745   4.955   3.071
 9536TIP3    H228554   4.679   4.892   3.192
 9537TIP3   OH228555   0.421   6.485   2.367
 9537TIP3    H128556   0.441   6.513   2.278
 9537TIP3    H228557   0.500   6.441   2.397
 9538TIP3   OH228558   3.141   0.168   0.316
 9538TIP3    H128559   3.079   0.115   0.266
 9538TIP3    H228560   3.092   0.195   0.394
 9539TIP3   OH228561   5.887   5.494   0.132
 9539TIP3    H128562   5.892   5.588   0.146
 9539TIP3    H228563   5.977   5.464   0.137
 9540TIP3   OH228564   6.174   2.486   3.977
 9540TIP3    H128565   6.084   2.513   3.995
 9540TIP3    H228566   6.187   2.505   3.884
 9541TIP3   OH228567   3.001   0.155   4.282
 9541TIP3    H128568   3.066   0.159   4.212
 9541TIP3    H228569   3.048   0.116   4.356
 9542TIP3   OH228570   1.161   5.143   4.692
 9542TIP3    H128571   1.225   5.214   4.690
 9542TIP3    H228572   1.117   5.153   4.777
 9543TIP3   OH228573   0.802   6.408   3.345
 9543TIP3    H128574   0.721   6.373   3.382
 9543TIP3    H228575   0.774   6.451   3.264
 9544TIP3   OH228576   4.561   6.603   5.378
 9544TIP3    H128577   4.480   6.638   5.416
 9544TIP3    H228578   4.619   6.590   5.453
 9545TIP3   OH228579   3.115   3.148   0.056
 9545TIP3    H128580   3.128   3.231   0.101
 9545TIP3    H228581   3.136   3.166  -0.036
 9546TIP3   OH228582   6.153   0.661   2.485
 9546TIP3    H128583   6.152   0.756   2.474
 9546TIP3    H228584   6.144   0.626   2.397
 9547TIP3   OH228585   0.458   5.352   3.811
 9547TIP3    H128586   0.551   5.342   3.790
 9547TIP3    H228587   0.458   5.388   3.900
 9548TIP3   OH228588   4.426   5.952   2.348
 9548TIP3    H128589   4.497   5.890   2.330
 9548TIP3    H228590   4.346   5.900   2.339
 9549TIP3   OH228591   5.694   2.563   0.512
 9549TIP3    H128592   5.706   2.645   0.463
 9549TIP3    H228593   5.684   2.496   0.445
 9550TIP3   OH228594   1.577   3.668   0.363
 9550TIP3    H128595   1.614   3.720   0.292
 9550TIP3    H228596   1.485   3.695   0.368
 9551TIP3   OH228597   3.846   0.812   5.759
 9551TIP3    H128598   3.937   0.833   5.778
 9551TIP3    H228599   3.837   0.720   5.780
 9552TIP3   OH228600   7.951   4.332   0.138
 9552TIP3    H128601   8.012   4.320   0.065
 9552TIP3    H228602   7.968   4.421   0.168
 9553TIP3   OH228603   3.942   2.109   5.414
 9553TIP3    H128604   3.860   2.125   5.462
 9553TIP3    H228605   3.924   2.141   5.326
 9554TIP3   OH228606   4.206   6.797   4.407
 9554TIP3    H128607   4.240   6.872   4.359
 9554TIP3    H228608   4.142   6.757   4.347
 9555TIP3   OH228609   1.740   0.735   2.306
 9555TIP3    H128610   1.704   0.652   2.275
 9555TIP3    H228611   1.803   0.760   2.239
 9556TIP3   OH228612   2.972   3.898   5.076
 9556TIP3    H128613   2.928   3.922   5.158
 9556TIP3    H228614   2.982   3.803   5.081
 9557TIP3   OH228615   5.026   3.957   1.002
 9557TIP3    H128616   5.102   4.011   1.020
 9557TIP3    H228617   5.048   3.871   1.038
 9558TIP3   OH228618   7.005   4.811   1.417
 9558TIP3    H128619   6.949   4.736   1.400
 9558TIP3    H228620   6.956   4.886   1.382
 9559TIP3   OH228621   4.670   1.162   5.504
 9559TIP3    H128622   4.648   1.248   5.466
 9559TIP3    H228623   4.672   1.177   5.598
 9560TIP3   OH228624   5.343   6.923   0.447
 9560TIP3    H128625   5.391   6.873   0.381
 9560TIP3    H228626   5.378   6.893   0.531
 9561TIP3   OH228627   1.444   2.863   4.517
 9561TIP3    H128628   1.514   2.905   4.466
 9561TIP3    H228629   1.389   2.936   4.546
 9562TIP3   OH228630   0.923   0.273   3.031
 9562TIP3    H128631   0.847   0.331   3.033
 9562TIP3    H228632   0.975   0.303   2.957
 9563TIP3   OH228633   3.665   4.477   2.205
 9563TIP3    H128634   3.726   4.521   2.264
 9563TIP3    H228635   3.719   4.454   2.129
 9564TIP3   OH228636   8.197   5.302   4.199
 9564TIP3    H128637   8.286   5.272   4.181
 9564TIP3    H228638   8.144   5.265   4.129
 9565TIP3   OH228639   3.229   6.484   1.904
 9565TIP3    H128640   3.317   6.519   1.918
 9565TIP3    H228641   3.171   6.559   1.913
 9566TIP3   OH228642   7.646   3.038   5.719
 9566TIP3    H128643   7.637   2.981   5.642
 9566TIP3    H228644   7.557   3.067   5.738
 9567TIP3   OH228645   5.566   4.270   4.121
 9567TIP3    H128646   5.621   4.235   4.191
 9567TIP3    H228647   5.627   4.290   4.050
 9568TIP3   OH228648   2.837   4.796   2.907
 9568TIP3    H128649   2.750   4.832   2.889
 9568TIP3    H228650   2.869   4.846   2.981
 9569TIP3   OH228651   4.274   1.484   5.983
 9569TIP3    H128652   4.367   1.491   6.004
 9569TIP3    H228653   4.264   1.535   5.902
 9570TIP3   OH228654   6.665   3.940   5.713
 9570TIP3    H128655   6.726   3.992   5.764
 9570TIP3    H228656   6.589   3.928   5.770
 9571TIP3   OH228657   4.736   1.374   4.785
 9571TIP3    H128658   4.661   1.346   4.839
 9571TIP3    H228659   4.791   1.424   4.845
 9572TIP3   OH228660   4.629   1.943   0.156
 9572TIP3    H128661   4.556   1.900   0.112
 9572TIP3    H228662   4.592   1.971   0.240
 9573TIP3   OH228663   2.531   4.725   4.592
 9573TIP3    H128664   2.577   4.662   4.537
 9573TIP3    H228665   2.557   4.810   4.557
 9574TIP3   OH228666   2.381   5.876   5.756
 9574TIP3    H128667   2.431   5.958   5.756
 9574TIP3    H228668   2.353   5.865   5.665
 9575TIP3   OH228669   7.927   0.745   4.746
 9575TIP3    H128670   7.945   0.661   4.789
 9575TIP3    H228671   7.875   0.793   4.810
 9576TIP3   OH228672   5.756   7.600   0.090
 9576TIP3    H128673   5.741   7.628   0.180
 9576TIP3    H228674   5.779   7.507   0.097
 9577TIP3   OH228675   1.190   5.269   1.068
 9577TIP3    H128676   1.161   5.205   1.002
 9577TIP3    H228677   1.130   5.343   1.058
 9578TIP3   OH228678   4.231   2.548   4.851
 9578TIP3    H128679   4.152   2.519   4.895
 9578TIP3    H228680   4.270   2.468   4.816
 9579TIP3   OH228681   5.022   6.170   6.655
 9579TIP3    H128682   5.057   6.185   6.743
 9579TIP3    H228683   4.969   6.248   6.637
 9580TIP3   OH228684   3.147   5.991   1.084
 9580TIP3    H128685   3.084   6.037   1.139
 9580TIP3    H228686   3.109   5.993   0.997
 9581TIP3   OH228687   2.274   1.193   0.541
 9581TIP3    H128688   2.283   1.246   0.462
 9581TIP3    H228689   2.229   1.114   0.512
 9582TIP3   OH228690   6.714   0.538   1.497
 9582TIP3    H128691   6.619   0.546   1.499
 9582TIP3    H228692   6.741   0.594   1.424
 9583TIP3   OH228693   0.603   5.558   0.511
 9583TIP3    H128694   0.566   5.579   0.597
 9583TIP3    H228695   0.665   5.487   0.528
 9584TIP3   OH228696   2.867   6.618   1.735
 9584TIP3    H128697   2.830   6.580   1.655
 9584TIP3    H228698   2.949   6.658   1.706
 9585TIP3   OH228699   6.617   3.668   2.977
 9585TIP3    H128700   6.601   3.740   3.038
 9585TIP3    H228701   6.554   3.683   2.906
 9586TIP3   OH228702   0.024   5.912   6.792
 9586TIP3    H128703  -0.009   5.951   6.711
 9586TIP3    H228704   0.069   5.983   6.837
 9587TIP3   OH228705   0.775   2.876   5.798
 9587TIP3    H128706   0.830   2.813   5.752
 9587TIP3    H228707   0.752   2.833   5.880
 9588TIP3   OH228708   2.837   2.569   1.437
 9588TIP3    H128709   2.808   2.587   1.526
 9588TIP3    H228710   2.838   2.473   1.431
 9589TIP3   OH228711   7.938   6.457   2.428
 9589TIP3    H128712   7.944   6.367   2.459
 9589TIP3    H228713   7.941   6.511   2.507
 9590TIP3   OH228714   5.075   6.422   6.305
 9590TIP3    H128715   5.053   6.356   6.240
 9590TIP3    H228716   5.106   6.497   6.254
 9591TIP3   OH228717   0.119   0.721   6.690
 9591TIP3    H128718   0.053   0.691   6.627
 9591TIP3    H228719   0.086   0.805   6.721
 9592TIP3   OH228720   2.271   5.819   4.262
 9592TIP3    H128721   2.197   5.875   4.282
 9592TIP3    H228722   2.240   5.730   4.281
 9593TIP3   OH228723   3.986   4.141   5.858
 9593TIP3    H128724   3.934   4.169   5.784
 9593TIP3    H228725   3.932   4.161   5.935
 9594TIP3   OH228726   1.550   7.666   4.524
 9594TIP3    H128727   1.503   7.604   4.469
 9594TIP3    H228728   1.573   7.616   4.603
 9595TIP3   OH228729   7.783   5.202   6.710
 9595TIP3    H128730   7.846   5.271   6.731
 9595TIP3    H228731   7.739   5.233   6.631
 9596TIP3   OH228732   2.510   3.998   5.289
 9596TIP3    H128733   2.421   4.031   5.277
 9596TIP3    H228734   2.508   3.910   5.252
 9597TIP3   OH228735   6.780   4.980   0.118
 9597TIP3    H128736   6.736   4.943   0.195
 9597TIP3    H228737   6.719   5.045   0.085
 9598TIP3   OH228738   6.430   4.942   6.609
 9598TIP3    H128739   6.481   5.022   6.594
 9598TIP3    H228740   6.479   4.894   6.676
 9599TIP3   OH228741   4.149   1.701   2.779
 9599TIP3    H128742   4.194   1.691   2.863
 9599TIP3    H228743   4.155   1.615   2.738
 9600TIP3   OH228744   4.778   5.403   1.670
 9600TIP3    H128745   4.773   5.329   1.731
 9600TIP3    H228746   4.701   5.456   1.690
 9601TIP3   OH228747   6.405   4.160   0.179
 9601TIP3    H128748   6.344   4.090   0.204
 9601TIP3    H228749   6.354   4.240   0.188
 9602TIP3   OH228750   7.453   0.215   0.334
 9602TIP3    H128751   7.495   0.168   0.406
 9602TIP3    H228752   7.483   0.169   0.255
 9603TIP3   OH228753   8.229   6.637   5.514
 9603TIP3    H128754   8.216   6.565   5.576
 9603TIP3    H228755   8.172   6.616   5.440
 9604TIP3   OH228756   6.863   3.788   0.838
 9604TIP3    H128757   6.836   3.879   0.844
 9604TIP3    H228758   6.887   3.764   0.927
 9605TIP3   OH228759   1.260   6.405   2.683
 9605TIP3    H128760   1.252   6.385   2.777
 9605TIP3    H228761   1.232   6.325   2.639
 9606TIP3   OH228762   2.352   1.807   6.297
 9606TIP3    H128763   2.386   1.830   6.383
 9606TIP3    H228764   2.265   1.847   6.294
 9607TIP3   OH228765   5.963   1.749   0.432
 9607TIP3    H128766   5.903   1.791   0.370
 9607TIP3    H228767   5.954   1.798   0.513
 9608TIP3   OH228768   6.314   1.423   1.825
 9608TIP3    H128769   6.360   1.343   1.803
 9608TIP3    H228770   6.346   1.488   1.762
 9609TIP3   OH228771   3.007   2.338   1.699
 9609TIP3    H128772   2.955   2.258   1.694
 9609TIP3    H228773   2.944   2.406   1.727
 9610TIP3   OH228774   2.826   1.011   3.639
 9610TIP3    H128775   2.908   1.013   3.590
 9610TIP3    H228776   2.806   0.918   3.648
 9611TIP3   OH228777   4.635   0.103   5.453
 9611TIP3    H128778   4.696   0.038   5.488
 9611TIP3    H228779   4.572   0.051   5.403
 9612TIP3   OH228780   0.284   1.340   3.048
 9612TIP3    H128781   0.303   1.336   2.954
 9612TIP3    H228782   0.270   1.248   3.074
 9613TIP3   OH228783   2.090   0.524   6.707
 9613TIP3    H128784   2.048   0.563   6.630
 9613TIP3    H228785   2.155   0.590   6.734
 9614TIP3   OH228786   6.551   0.413   0.270
 9614TIP3    H128787   6.645   0.423   0.256
 9614TIP3    H228788   6.540   0.323   0.299
 9615TIP3   OH228789   5.174   2.982   5.107
 9615TIP3    H128790   5.254   2.949   5.068
 9615TIP3    H228791   5.119   3.008   5.033
 9616TIP3   OH228792   0.361   6.580   3.138
 9616TIP3    H128793   0.423   6.567   3.210
 9616TIP3    H228794   0.279   6.603   3.181
 9617TIP3   OH228795   1.455   5.686   2.320
 9617TIP3    H128796   1.445   5.683   2.415
 9617TIP3    H228797   1.371   5.657   2.286
 9618TIP3   OH228798   6.541   7.623   5.329
 9618TIP3    H128799   6.557   7.541   5.284
 9618TIP3    H228800   6.457   7.653   5.295
 9619TIP3   OH228801   7.749   1.985   2.645
 9619TIP3    H128802   7.679   1.974   2.581
 9619TIP3    H228803   7.722   2.060   2.698
 9620TIP3   OH228804   4.439   3.233   3.868
 9620TIP3    H128805   4.531   3.206   3.857
 9620TIP3    H228806   4.444   3.327   3.884
 9621TIP3   OH228807   1.502   1.623   3.052
 9621TIP3    H128808   1.570   1.561   3.027
 9621TIP3    H228809   1.545   1.708   3.053
 9622TIP3   OH228810   5.090   6.232   6.078
 9622TIP3    H128811   5.098   6.156   6.135
 9622TIP3    H228812   5.061   6.197   5.994
 9623TIP3   OH228813   7.550   2.812   4.865
 9623TIP3    H128814   7.583   2.890   4.909
 9623TIP3    H228815   7.604   2.805   4.786
 9624TIP3   OH228816   1.728   0.096   5.535
 9624TIP3    H128817   1.681   0.179   5.543
 9624TIP3    H228818   1.659   0.031   5.523
 9625TIP3   OH228819   1.188   0.410   0.821
 9625TIP3    H128820   1.239   0.364   0.755
 9625TIP3    H228821   1.123   0.347   0.851
 9626TIP3   OH228822   6.195   3.999   1.691
 9626TIP3    H128823   6.129   3.998   1.761
 9626TIP3    H228824   6.200   3.908   1.661
 9627TIP3   OH228825   7.777   4.998   5.832
 9627TIP3    H128826   7.818   5.069   5.881
 9627TIP3    H228827   7.684   5.022   5.828
 9628TIP3   OH228828   7.190   2.350   4.111
 9628TIP3    H128829   7.272   2.372   4.066
 9628TIP3    H228830   7.209   2.267   4.156
 9629TIP3   OH228831   1.062   1.089   3.418
 9629TIP3    H128832   1.022   1.005   3.395
 9629TIP3    H228833   1.156   1.070   3.424
 9630TIP3   OH228834   0.518   1.651   1.635
 9630TIP3    H128835   0.510   1.616   1.546
 9630TIP3    H228836   0.612   1.657   1.650
 9631TIP3   OH228837   8.008   6.869   6.356
 9631TIP3    H128838   7.977   6.790   6.313
 9631TIP3    H228839   8.079   6.901   6.300
 9632TIP3   OH228840   6.388   1.882   1.260
 9632TIP3    H128841   6.317   1.829   1.225
 9632TIP3    H228842   6.467   1.845   1.221
 9633TIP3   OH228843   7.835   1.662   4.129
 9633TIP3    H128844   7.884   1.594   4.082
 9633TIP3    H228845   7.831   1.735   4.068
 9634TIP3   OH228846   2.083   3.214   4.037
 9634TIP3    H128847   2.035   3.270   3.976
 9634TIP3    H228848   2.025   3.139   4.052
 9635TIP3   OH228849   6.504   4.814   3.814
 9635TIP3    H128850   6.431   4.841   3.870
 9635TIP3    H228851   6.555   4.895   3.801
 9636TIP3   OH228852   4.871   4.784   6.528
 9636TIP3    H128853   4.913   4.699   6.544
 9636TIP3    H228854   4.929   4.847   6.571
 9637TIP3   OH228855   5.597   4.368   4.554
 9637TIP3    H128856   5.502   4.370   4.563
 9637TIP3    H228857   5.629   4.367   4.645
 9638TIP3   OH228858   0.644   5.830   1.526
 9638TIP3    H128859   0.697   5.814   1.604
 9638TIP3    H228860   0.650   5.924   1.512
 9639TIP3   OH228861   7.644   6.164   6.706
 9639TIP3    H128862   7.682   6.091   6.755
 9639TIP3    H228863   7.718   6.218   6.681
 9640TIP3   OH228864   3.503   3.030   6.423
 9640TIP3    H128865   3.529   2.985   6.343
 9640TIP3    H228866   3.490   3.121   6.397
 9641TIP3   OH228867   7.195   0.117   4.603
 9641TIP3    H128868   7.138   0.040   4.602
 9641TIP3    H228869   7.276   0.086   4.643
 9642TIP3   OH228870   1.250   1.921   1.588
 9642TIP3    H128871   1.216   1.995   1.538
 9642TIP3    H228872   1.336   1.950   1.619
 9643TIP3   OH228873   5.635   4.851   0.524
 9643TIP3    H128874   5.588   4.798   0.459
 9643TIP3    H228875   5.691   4.909   0.472
 9644TIP3   OH228876   6.693   2.201   0.475
 9644TIP3    H128877   6.749   2.158   0.540
 9644TIP3    H228878   6.667   2.283   0.517
 9645TIP3   OH228879   0.361   7.674   0.451
 9645TIP3    H128880   0.367   7.660   0.357
 9645TIP3    H228881   0.331   7.590   0.486
 9646TIP3   OH228882   4.331   3.791   6.191
 9646TIP3    H128883   4.299   3.881   6.192
 9646TIP3    H228884   4.324   3.762   6.282
 9647TIP3   OH228885   0.125   0.828   2.259
 9647TIP3    H128886   0.050   0.782   2.296
 9647TIP3    H228887   0.178   0.759   2.219
 9648TIP3   OH228888   7.775   7.496   6.118
 9648TIP3    H128889   7.745   7.585   6.132
 9648TIP3    H228890   7.758   7.480   6.025
 9649TIP3   OH228891   5.995   6.387   5.774
 9649TIP3    H128892   6.048   6.401   5.695
 9649TIP3    H228893   5.906   6.378   5.742
 9650TIP3   OH228894   1.801   7.656   2.477
 9650TIP3    H128895   1.798   7.695   2.390
 9650TIP3    H228896   1.792   7.730   2.537
 9651TIP3   OH228897   2.919   6.737   2.986
 9651TIP3    H128898   2.865   6.689   3.048
 9651TIP3    H228899   2.989   6.775   3.039
 9652TIP3   OH228900   4.642   1.838   5.269
 9652TIP3    H128901   4.599   1.771   5.322
 9652TIP3    H228902   4.729   1.846   5.306
 9653TIP3   OH228903   4.847   2.315   2.036
 9653TIP3    H128904   4.913   2.249   2.016
 9653TIP3    H228905   4.791   2.317   1.958
 9654TIP3   OH228906   0.291   3.446   1.369
 9654TIP3    H128907   0.280   3.405   1.283
 9654TIP3    H228908   0.370   3.498   1.361
 9655TIP3   OH228909   0.055   1.560   6.030
 9655TIP3    H128910   0.100   1.536   5.950
 9655TIP3    H228911  -0.033   1.522   6.021
 9656TIP3   OH228912   1.695   4.693   6.774
 9656TIP3    H128913   1.734   4.774   6.740
 9656TIP3    H228914   1.741   4.623   6.729
 9657TIP3   OH228915   1.292   5.385   2.201
 9657TIP3    H128916   1.355   5.433   2.147
 9657TIP3    H228917   1.247   5.327   2.139
 9658TIP3   OH228918   5.673   1.033   4.910
 9658TIP3    H128919   5.757   1.075   4.891
 9658TIP3    H228920   5.676   1.016   5.004
 9659TIP3   OH228921   4.282   3.471   4.448
 9659TIP3    H128922   4.238   3.491   4.530
 9659TIP3    H228923   4.234   3.396   4.413
 9660TIP3   OH228924   7.783   1.809   5.160
 9660TIP3    H128925   7.735   1.752   5.221
 9660TIP3    H228926   7.756   1.897   5.184
 9661TIP3   OH228927   2.353   3.034   5.058
 9661TIP3    H128928   2.376   2.957   5.006
 9661TIP3    H228929   2.335   2.999   5.146
 9662TIP3   OH228930   5.951   3.370   0.899
 9662TIP3    H128931   5.911   3.359   0.813
 9662TIP3    H228932   5.997   3.287   0.915
 9663TIP3   OH228933   6.767   4.024   1.618
 9663TIP3    H128934   6.674   4.000   1.617
 9663TIP3    H228935   6.781   4.068   1.534
 9664TIP3   OH228936   8.187   6.111   4.001
 9664TIP3    H128937   8.263   6.059   3.973
 9664TIP3    H228938   8.215   6.151   4.083
 9665TIP3   OH228939   7.532   6.353   1.450
 9665TIP3    H128940   7.490   6.366   1.535
 9665TIP3    H228941   7.618   6.317   1.471
 9666TIP3   OH228942   8.198   7.411   6.449
 9666TIP3    H128943   8.181   7.333   6.503
 9666TIP3    H228944   8.210   7.376   6.360
 9667TIP3   OH228945   6.868   4.401   5.634
 9667TIP3    H128946   6.870   4.328   5.696
 9667TIP3    H228947   6.829   4.473   5.683
 9668TIP3   OH228948   0.440   2.384   3.932
 9668TIP3    H128949   0.448   2.302   3.980
 9668TIP3    H228950   0.460   2.452   3.996
 9669TIP3   OH228951   0.536   7.072   5.093
 9669TIP3    H128952   0.441   7.078   5.084
 9669TIP3    H228953   0.554   7.097   5.184
 9670TIP3   OH228954   5.281   2.109   5.737
 9670TIP3    H128955   5.221   2.141   5.669
 9670TIP3    H228956   5.236   2.034   5.775
 9671TIP3   OH228957   6.463   2.177   4.017
 9671TIP3    H128958   6.373   2.195   4.045
 9671TIP3    H228959   6.475   2.232   3.939
 9672TIP3   OH228960   6.723   4.392   6.666
 9672TIP3    H128961   6.646   4.369   6.719
 9672TIP3    H228962   6.691   4.388   6.576
 9673TIP3   OH228963   5.574   2.356   2.857
 9673TIP3    H128964   5.540   2.402   2.933
 9673TIP3    H228965   5.498   2.343   2.800
 9674TIP3   OH228966   8.272   7.676   6.406
 9674TIP3    H128967   8.185   7.712   6.416
 9674TIP3    H228968   8.262   7.582   6.423
 9675TIP3   OH228969   7.927   0.827   6.680
 9675TIP3    H128970   8.004   0.882   6.666
 9675TIP3    H228971   7.874   0.876   6.743
 9676TIP3   OH228972   3.347   5.894   6.012
 9676TIP3    H128973   3.299   5.904   5.931
 9676TIP3    H228974   3.409   5.824   5.995
 9677TIP3   OH228975   1.832   6.558   1.314
 9677TIP3    H128976   1.883   6.635   1.336
 9677TIP3    H228977   1.785   6.582   1.233
 9678TIP3   OH228978   7.197   3.070   2.712
 9678TIP3    H128979   7.201   2.980   2.745
 9678TIP3    H228980   7.108   3.099   2.734
 9679TIP3   OH228981   2.428   2.792   0.707
 9679TIP3    H128982   2.369   2.861   0.678
 9679TIP3    H228983   2.388   2.711   0.677
 9680TIP3   OH228984   4.536   7.651   5.519
 9680TIP3    H128985   4.466   7.702   5.480
 9680TIP3    H228986   4.523   7.563   5.485
 9681TIP3   OH228987   7.571   5.038   1.332
 9681TIP3    H128988   7.656   5.041   1.288
 9681TIP3    H228989   7.519   5.105   1.287
 9682TIP3   OH228990   1.774   4.600   0.097
 9682TIP3    H128991   1.834   4.584   0.169
 9682TIP3    H228992   1.819   4.566   0.019
 9683TIP3   OH228993   4.963   3.851   3.471
 9683TIP3    H128994   4.931   3.914   3.406
 9683TIP3    H228995   4.931   3.884   3.555
 9684TIP3   OH228996   5.237   1.922   0.416
 9684TIP3    H128997   5.174   1.874   0.363
 9684TIP3    H228998   5.280   1.981   0.354
 9685TIP3   OH228999   7.217   2.406   1.912
 9685TIP3    H129000   7.142   2.456   1.944
 9685TIP3    H229001   7.196   2.388   1.820
 9686TIP3   OH229002   1.535   3.269   3.552
 9686TIP3    H129003   1.574   3.232   3.473
 9686TIP3    H229004   1.573   3.218   3.624
 9687TIP3   OH229005   0.251   0.589   1.055
 9687TIP3    H129006   0.269   0.677   1.089
 9687TIP3    H229007   0.164   0.568   1.087
 9688TIP3   OH229008   0.774   7.266   1.110
 9688TIP3    H129009   0.801   7.357   1.114
 9688TIP3    H229010   0.777   7.236   1.201
 9689TIP3   OH229011   6.648   0.937   4.865
 9689TIP3    H129012   6.625   0.935   4.957
 9689TIP3    H229013   6.716   0.870   4.856
 9690TIP3   OH229014   7.997   4.284   6.819
 9690TIP3    H129015   7.966   4.193   6.818
 9690TIP3    H229016   7.976   4.317   6.731
 9691TIP3   OH229017   3.443   1.989   1.084
 9691TIP3    H129018   3.499   2.061   1.113
 9691TIP3    H229019   3.427   1.938   1.163
 9692TIP3   OH229020   2.510   2.205   3.434
 9692TIP3    H129021   2.494   2.294   3.401
 9692TIP3    H229022   2.574   2.217   3.504
 9693TIP3   OH229023   4.499   2.447   0.149
 9693TIP3    H129024   4.536   2.363   0.124
 9693TIP3    H229025   4.461   2.482   0.068
 9694TIP3   OH229026   2.414   4.469   3.134
 9694TIP3    H129027   2.344   4.532   3.152
 9694TIP3    H229028   2.495   4.518   3.146
 9695TIP3   OH229029   5.382   4.241   0.530
 9695TIP3    H129030   5.296   4.234   0.489
 9695TIP3    H229031   5.411   4.330   0.510
 9696TIP3   OH229032   0.717   0.912   1.203
 9696TIP3    H129033   0.761   0.828   1.215
 9696TIP3    H229034   0.739   0.961   1.282
 9697TIP3   OH229035   2.303   2.104   3.249
 9697TIP3    H129036   2.296   2.172   3.317
 9697TIP3    H229037   2.350   2.032   3.291
 9698TIP3   OH229038   4.381   0.865   5.664
 9698TIP3    H129039   4.388   0.961   5.668
 9698TIP3    H229040   4.471   0.834   5.677
 9699TIP3   OH229041   0.526   2.086   0.352
 9699TIP3    H129042   0.528   2.168   0.302
 9699TIP3    H229043   0.452   2.098   0.413
 9700TIP3   OH229044   3.795   6.999   6.043
 9700TIP3    H129045   3.749   6.934   6.096
 9700TIP3    H229046   3.726   7.049   6.000
 9701TIP3   OH229047   6.740   7.033   1.806
 9701TIP3    H129048   6.831   7.004   1.806
 9701TIP3    H229049   6.744   7.121   1.769
 9702TIP3   OH229050   7.140   7.687   0.644
 9702TIP3    H129051   7.078   7.617   0.663
 9702TIP3    H229052   7.225   7.653   0.674
 9703TIP3   OH229053   4.292   1.950   0.713
 9703TIP3    H129054   4.264   1.977   0.625
 9703TIP3    H229055   4.280   1.855   0.713
 9704TIP3   OH229056   0.286   4.779   4.447
 9704TIP3    H129057   0.194   4.762   4.428
 9704TIP3    H229058   0.318   4.828   4.371
 9705TIP3   OH229059   7.840   3.652   5.734
 9705TIP3    H129060   7.877   3.709   5.801
 9705TIP3    H229061   7.808   3.712   5.667
 9706TIP3   OH229062   7.268   6.786   2.666
 9706TIP3    H129063   7.287   6.876   2.693
 9706TIP3    H229064   7.271   6.788   2.571
 9707TIP3   OH229065   3.571   6.256   2.163
 9707TIP3    H129066   3.644   6.196   2.145
 9707TIP3    H229067   3.567   6.312   2.086
 9708TIP3   OH229068   0.168   5.986   3.926
 9708TIP3    H129069   0.194   5.893   3.926
 9708TIP3    H229070   0.211   6.022   4.004
 9709TIP3   OH229071   5.040   1.355   1.512
 9709TIP3    H129072   4.951   1.325   1.496
 9709TIP3    H229073   5.040   1.381   1.605
 9710TIP3   OH229074   3.974   7.712   2.351
 9710TIP3    H129075   3.982   7.621   2.378
 9710TIP3    H229076   3.976   7.709   2.255
 9711TIP3   OH229077   5.254   4.800   3.208
 9711TIP3    H129078   5.254   4.891   3.237
 9711TIP3    H229079   5.319   4.797   3.138
 9712TIP3   OH229080   3.540   4.648   5.576
 9712TIP3    H129081   3.523   4.713   5.645
 9712TIP3    H229082   3.523   4.564   5.619
 9713TIP3   OH229083   7.390   7.528   2.310
 9713TIP3    H129084   7.320   7.537   2.245
 9713TIP3    H229085   7.347   7.549   2.394
 9714TIP3   OH229086   5.796   7.068   0.004
 9714TIP3    H129087   5.886   7.095  -0.013
 9714TIP3    H229088   5.802   7.011   0.080
 9715TIP3   OH229089   5.507   5.233   3.366
 9715TIP3    H129090   5.480   5.257   3.277
 9715TIP3    H229091   5.596   5.199   3.355
 9716TIP3   OH229092   3.231   5.702   1.110
 9716TIP3    H129093   3.272   5.678   1.028
 9716TIP3    H229094   3.231   5.798   1.110
 9717TIP3   OH229095   2.635   4.162   2.611
 9717TIP3    H129096   2.663   4.175   2.701
 9717TIP3    H229097   2.558   4.105   2.618
 9718TIP3   OH229098   2.472   5.300   0.008
 9718TIP3    H129099   2.560   5.336   0.004
 9718TIP3    H229100   2.475   5.237   0.081
 9719TIP3   OH229101   7.823   4.378   1.312
 9719TIP3    H129102   7.862   4.402   1.396
 9719TIP3    H229103   7.807   4.462   1.268
 9720TIP3   OH229104   4.187   4.804   0.176
 9720TIP3    H129105   4.184   4.731   0.237
 9720TIP3    H229106   4.198   4.764   0.090
 9721TIP3   OH229107   7.022   7.642   3.051
 9721TIP3    H129108   7.081   7.667   2.980
 9721TIP3    H229109   7.054   7.557   3.079
 9722TIP3   OH229110   5.402   5.759   2.269
 9722TIP3    H129111   5.353   5.841   2.263
 9722TIP3    H229112   5.359   5.711   2.340
 9723TIP3   OH229113   5.250   4.653   1.730
 9723TIP3    H129114   5.291   4.735   1.760
 9723TIP3    H229115   5.208   4.677   1.648
 9724TIP3   OH229116   2.860   0.446   0.440
 9724TIP3    H129117   2.827   0.364   0.477
 9724TIP3    H229118   2.940   0.464   0.489
 9725TIP3   OH229119   7.524   6.956   0.189
 9725TIP3    H129120   7.507   6.871   0.231
 9725TIP3    H229121   7.535   7.017   0.262
 9726TIP3   OH229122   1.730   0.392   6.527
 9726TIP3    H129123   1.803   0.340   6.494
 9726TIP3    H229124   1.715   0.459   6.461
 9727TIP3   OH229125   5.137   7.424   5.805
 9727TIP3    H129126   5.232   7.430   5.808
 9727TIP3    H229127   5.110   7.498   5.750
 9728TIP3   OH229128   5.406   5.044   2.140
 9728TIP3    H129129   5.500   5.034   2.122
 9728TIP3    H229130   5.396   5.138   2.158
 9729TIP3   OH229131   7.930   6.554   4.365
 9729TIP3    H129132   8.005   6.612   4.377
 9729TIP3    H229133   7.857   6.613   4.345
 9730TIP3   OH229134   5.962   4.041   3.585
 9730TIP3    H129135   5.947   3.978   3.655
 9730TIP3    H229136   5.959   4.126   3.628
 9731TIP3   OH229137   6.302   6.868   3.633
 9731TIP3    H129138   6.233   6.825   3.583
 9731TIP3    H229139   6.384   6.840   3.593
 9732TIP3   OH229140   2.555   4.434   1.969
 9732TIP3    H129141   2.522   4.364   1.914
 9732TIP3    H229142   2.650   4.432   1.957
 9733TIP3   OH229143   6.685   7.541   5.962
 9733TIP3    H129144   6.625   7.589   5.905
 9733TIP3    H229145   6.679   7.586   6.047
 9734TIP3   OH229146   0.809   1.011   1.463
 9734TIP3    H129147   0.755   1.067   1.518
 9734TIP3    H229148   0.885   0.990   1.517
 9735TIP3   OH229149   3.423   6.689   1.213
 9735TIP3    H129150   3.330   6.698   1.195
 9735TIP3    H229151   3.440   6.754   1.281
 9736TIP3   OH229152   0.576   2.997   2.151
 9736TIP3    H129153   0.556   2.966   2.239
 9736TIP3    H229154   0.589   3.091   2.160
 9737TIP3   OH229155   3.900   0.613   4.278
 9737TIP3    H129156   3.898   0.573   4.191
 9737TIP3    H229157   3.905   0.707   4.261
 9738TIP3   OH229158   7.334   4.126   2.696
 9738TIP3    H129159   7.297   4.143   2.782
 9738TIP3    H229160   7.372   4.038   2.703
 9739TIP3   OH229161   8.210   5.743   2.232
 9739TIP3    H129162   8.186   5.708   2.318
 9739TIP3    H229163   8.173   5.832   2.232
 9740TIP3   OH229164   6.187   7.732   0.522
 9740TIP3    H129165   6.227   7.682   0.451
 9740TIP3    H229166   6.261   7.773   0.567
 9741TIP3   OH229167   3.540   2.447   3.152
 9741TIP3    H129168   3.447   2.438   3.134
 9741TIP3    H229169   3.550   2.419   3.243
 9742TIP3   OH229170   3.142   1.651   1.888
 9742TIP3    H129171   3.131   1.581   1.952
 9742TIP3    H229172   3.216   1.702   1.920
 9743TIP3   OH229173   0.288   0.209   3.341
 9743TIP3    H129174   0.259   0.218   3.250
 9743TIP3    H229175   0.241   0.278   3.388
 9744TIP3   OH229176   1.061   6.290   0.540
 9744TIP3    H129177   1.068   6.211   0.593
 9744TIP3    H229178   0.972   6.289   0.506
 9745TIP3   OH229179   7.690   5.543   4.670
 9745TIP3    H129180   7.728   5.459   4.696
 9745TIP3    H229181   7.740   5.570   4.594
 9746TIP3   OH229182   1.196   4.016   3.303
 9746TIP3    H129183   1.291   4.007   3.299
 9746TIP3    H229184   1.164   3.926   3.316
 9747TIP3   OH229185   6.163   2.623   6.679
 9747TIP3    H129186   6.185   2.533   6.700
 9747TIP3    H229187   6.128   2.619   6.590
 9748TIP3   OH229188   4.555   3.616   3.323
 9748TIP3    H129189   4.466   3.640   3.349
 9748TIP3    H229190   4.611   3.679   3.367
 9749TIP3   OH229191   4.215   5.545   2.178
 9749TIP3    H129192   4.228   5.609   2.107
 9749TIP3    H229193   4.202   5.462   2.133
 9750TIP3   OH229194   6.260   4.506   4.464
 9750TIP3    H129195   6.298   4.456   4.391
 9750TIP3    H229196   6.191   4.559   4.423
 9751TIP3   OH229197   5.907   6.291   3.760
 9751TIP3    H129198   5.814   6.310   3.763
 9751TIP3    H229199   5.945   6.364   3.711
 9752TIP3   OH229200   3.042   7.312   6.774
 9752TIP3    H129201   3.130   7.319   6.810
 9752TIP3    H229202   3.052   7.253   6.699
 9753TIP3   OH229203   2.216   4.256   3.363
 9753TIP3    H129204   2.219   4.199   3.286
 9753TIP3    H229205   2.155   4.325   3.339
 9754TIP3   OH229206   1.993   0.077   3.353
 9754TIP3    H129207   2.037   0.130   3.287
 9754TIP3    H229208   2.023   0.113   3.437
 9755TIP3   OH229209   1.926   6.210   5.460
 9755TIP3    H129210   2.002   6.203   5.518
 9755TIP3    H229211   1.882   6.290   5.489
 9756TIP3   OH229212   4.042   0.033   0.313
 9756TIP3    H129213   4.059   0.127   0.319
 9756TIP3    H229214   3.946   0.026   0.313
 9757TIP3   OH229215   5.335   6.567   4.299
 9757TIP3    H129216   5.297   6.533   4.218
 9757TIP3    H229217   5.265   6.618   4.340
 9758TIP3   OH229218   7.526   3.242   0.784
 9758TIP3    H129219   7.545   3.280   0.698
 9758TIP3    H229220   7.462   3.174   0.766
 9759TIP3   OH229221   5.085   4.766   5.502
 9759TIP3    H129222   5.002   4.776   5.550
 9759TIP3    H229223   5.092   4.672   5.484
 9760TIP3   OH229224   0.905   5.996   2.346
 9760TIP3    H129225   0.901   6.008   2.441
 9760TIP3    H229226   0.835   5.932   2.328
 9761TIP3   OH229227   6.438   0.608   4.242
 9761TIP3    H129228   6.496   0.541   4.206
 9761TIP3    H229229   6.388   0.563   4.309
 9762TIP3   OH229230   7.114   1.483   1.726
 9762TIP3    H129231   7.027   1.463   1.758
 9762TIP3    H229232   7.111   1.576   1.704
 9763TIP3   OH229233   3.910   0.650   2.504
 9763TIP3    H129234   3.840   0.710   2.532
 9763TIP3    H229235   3.990   0.690   2.537
 9764TIP3   OH229236   5.377   2.913   0.985
 9764TIP3    H129237   5.417   2.874   1.063
 9764TIP3    H229238   5.321   2.844   0.950
 9765TIP3   OH229239   0.661   3.718   5.033
 9765TIP3    H129240   0.697   3.666   4.961
 9765TIP3    H229241   0.619   3.793   4.991
 9766TIP3   OH229242   0.193   5.600   2.110
 9766TIP3    H129243   0.217   5.685   2.073
 9766TIP3    H229244   0.235   5.599   2.196
 9767TIP3   OH229245   3.065   7.125   3.660
 9767TIP3    H129246   3.096   7.051   3.713
 9767TIP3    H229247   3.145   7.173   3.637
 9768TIP3   OH229248   3.349   6.425   5.322
 9768TIP3    H129249   3.297   6.359   5.369
 9768TIP3    H229250   3.434   6.423   5.366
 9769TIP3   OH229251   3.578   5.632   2.746
 9769TIP3    H129252   3.535   5.654   2.828
 9769TIP3    H229253   3.659   5.589   2.772
 9770TIP3   OH229254   4.613   2.315   3.254
 9770TIP3    H129255   4.555   2.250   3.295
 9770TIP3    H229256   4.678   2.263   3.208
 9771TIP3   OH229257   5.526   1.852   3.066
 9771TIP3    H129258   5.553   1.941   3.041
 9771TIP3    H229259   5.474   1.821   2.991
 9772TIP3   OH229260   3.232   2.341   0.735
 9772TIP3    H129261   3.295   2.401   0.775
 9772TIP3    H229262   3.245   2.259   0.783
 9773TIP3   OH229263   5.168   5.558   3.775
 9773TIP3    H129264   5.097   5.614   3.807
 9773TIP3    H229265   5.242   5.577   3.834
 9774TIP3   OH229266   1.157   7.537   1.905
 9774TIP3    H129267   1.063   7.527   1.892
 9774TIP3    H229268   1.165   7.599   1.977
 9775TIP3   OH229269   0.309   6.854   3.495
 9775TIP3    H129270   0.244   6.826   3.559
 9775TIP3    H229271   0.276   6.938   3.462
 9776TIP3   OH229272   2.436   5.488   3.103
 9776TIP3    H129273   2.465   5.522   3.187
 9776TIP3    H229274   2.412   5.397   3.121
 9777TIP3   OH229275   7.246   1.613   4.797
 9777TIP3    H129276   7.224   1.655   4.714
 9777TIP3    H229277   7.179   1.545   4.808
 9778TIP3   OH229278   3.342   0.770   1.556
 9778TIP3    H129279   3.335   0.702   1.489
 9778TIP3    H229280   3.292   0.843   1.520
 9779TIP3   OH229281   0.774   7.512   2.069
 9779TIP3    H129282   0.742   7.578   2.131
 9779TIP3    H229283   0.790   7.562   1.988
 9780TIP3   OH229284   1.409   6.434   0.371
 9780TIP3    H129285   1.353   6.357   0.367
 9780TIP3    H229286   1.490   6.407   0.328
 9781TIP3   OH229287   3.865   5.979   3.771
 9781TIP3    H129288   3.779   5.949   3.741
 9781TIP3    H229289   3.925   5.910   3.744
 9782TIP3   OH229290   1.852   7.803   4.282
 9782TIP3    H129291   1.866   7.795   4.376
 9782TIP3    H229292   1.764   7.771   4.268
 9783TIP3   OH229293   3.366   6.130   4.002
 9783TIP3    H129294   3.329   6.042   3.993
 9783TIP3    H229295   3.336   6.160   4.088
 9784TIP3   OH229296   6.531   2.852   1.340
 9784TIP3    H129297   6.502   2.836   1.251
 9784TIP3    H229298   6.567   2.768   1.369
 9785TIP3   OH229299   0.563   7.801  -0.016
 9785TIP3    H129300   0.576   7.845   0.068
 9785TIP3    H229301   0.519   7.719   0.006
 9786TIP3   OH229302   3.933   1.012   5.344
 9786TIP3    H129303   3.887   1.065   5.279
 9786TIP3    H229304   3.894   1.038   5.428
 9787TIP3   OH229305   7.475   2.018   6.108
 9787TIP3    H129306   7.500   1.944   6.052
 9787TIP3    H229307   7.554   2.072   6.112
 9788TIP3   OH229308   6.842   7.246   5.357
 9788TIP3    H129309   6.841   7.342   5.367
 9788TIP3    H229310   6.935   7.225   5.343
 9789TIP3   OH229311   2.643   6.098   3.578
 9789TIP3    H129312   2.715   6.045   3.614
 9789TIP3    H229313   2.632   6.066   3.488
 9790TIP3   OH229314   2.634   2.305   1.811
 9790TIP3    H129315   2.647   2.386   1.860
 9790TIP3    H229316   2.610   2.333   1.723
 9791TIP3   OH229317   1.328   7.261   6.144
 9791TIP3    H129318   1.336   7.264   6.049
 9791TIP3    H229319   1.373   7.181   6.170
 9792TIP3   OH229320   3.312   6.562   0.538
 9792TIP3    H129321   3.381   6.511   0.495
 9792TIP3    H229322   3.346   6.652   0.540
 9793TIP3   OH229323   3.051   4.209   4.362
 9793TIP3    H129324   3.066   4.204   4.267
 9793TIP3    H229325   2.956   4.216   4.370
 9794TIP3   OH229326   7.718   7.652   5.606
 9794TIP3    H129327   7.643   7.705   5.636
 9794TIP3    H229328   7.766   7.710   5.547
 9795TIP3   OH229329   8.195   2.540   4.366
 9795TIP3    H129330   8.281   2.538   4.325
 9795TIP3    H229331   8.150   2.462   4.333
 9796TIP3   OH229332   3.163   3.896   6.622
 9796TIP3    H129333   3.101   3.929   6.557
 9796TIP3    H229334   3.129   3.927   6.706
 9797TIP3   OH229335   6.713   5.417   5.291
 9797TIP3    H129336   6.729   5.323   5.287
 9797TIP3    H229337   6.712   5.445   5.200
 9798TIP3   OH229338   4.792   6.468   6.383
 9798TIP3    H129339   4.887   6.455   6.376
 9798TIP3    H229340   4.762   6.480   6.293
 9799TIP3   OH229341   3.456   0.603   3.530
 9799TIP3    H129342   3.465   0.692   3.564
 9799TIP3    H229343   3.513   0.601   3.453
 9800TIP3   OH229344   0.467   6.594   5.251
 9800TIP3    H129345   0.432   6.543   5.178
 9800TIP3    H229346   0.491   6.678   5.213
 9801TIP3   OH229347   6.056   4.621   1.449
 9801TIP3    H129348   6.119   4.671   1.396
 9801TIP3    H229349   6.073   4.651   1.538
 9802TIP3   OH229350   4.175   4.303   0.137
 9802TIP3    H129351   4.232   4.353   0.078
 9802TIP3    H229352   4.143   4.231   0.083
 9803TIP3   OH229353   7.416   3.119   0.112
 9803TIP3    H129354   7.325   3.090   0.112
 9803TIP3    H229355   7.415   3.202   0.064
 9804TIP3   OH229356   8.081   5.630   6.563
 9804TIP3    H129357   8.101   5.658   6.474
 9804TIP3    H229358   7.989   5.602   6.559
 9805TIP3   OH229359   5.600   4.593   6.134
 9805TIP3    H129360   5.524   4.595   6.192
 9805TIP3    H229361   5.568   4.550   6.054
 9806TIP3   OH229362   3.475   1.719   3.284
 9806TIP3    H129363   3.459   1.633   3.247
 9806TIP3    H229364   3.397   1.736   3.338
 9807TIP3   OH229365   1.932   2.594   1.318
 9807TIP3    H129366   1.931   2.569   1.226
 9807TIP3    H229367   1.951   2.688   1.318
 9808TIP3   OH229368   3.578   0.292   1.274
 9808TIP3    H129369   3.492   0.283   1.314
 9808TIP3    H229370   3.639   0.256   1.339
 9809TIP3   OH229371   1.092   4.740   1.793
 9809TIP3    H129372   1.106   4.695   1.709
 9809TIP3    H229373   1.155   4.701   1.853
 9810TIP3   OH229374   3.804   3.706   5.667
 9810TIP3    H129375   3.877   3.684   5.726
 9810TIP3    H229376   3.781   3.795   5.691
 9811TIP3   OH229377   7.687   1.832   3.279
 9811TIP3    H129378   7.638   1.874   3.350
 9811TIP3    H229379   7.625   1.831   3.206
 9812TIP3   OH229380   6.371   1.735   0.679
 9812TIP3    H129381   6.281   1.704   0.691
 9812TIP3    H229382   6.365   1.796   0.605
 9813TIP3   OH229383   1.886   2.978   6.497
 9813TIP3    H129384   1.976   2.984   6.529
 9813TIP3    H229385   1.858   3.069   6.488
 9814TIP3   OH229386   5.615   4.221   5.717
 9814TIP3    H129387   5.581   4.254   5.633
 9814TIP3    H229388   5.574   4.135   5.727
 9815TIP3   OH229389   6.704   1.471   2.069
 9815TIP3    H129390   6.661   1.387   2.058
 9815TIP3    H229391   6.633   1.533   2.085
 9816TIP3   OH229392   4.414   1.145   5.728
 9816TIP3    H129393   4.372   1.222   5.691
 9816TIP3    H229394   4.445   1.174   5.814
 9817TIP3   OH229395   0.369   1.239   6.006
 9817TIP3    H129396   0.457   1.218   5.974
 9817TIP3    H229397   0.333   1.155   6.035
 9818TIP3   OH229398   4.351   4.286   2.007
 9818TIP3    H129399   4.314   4.286   2.095
 9818TIP3    H229400   4.374   4.195   1.990
 9819TIP3   OH229401   1.614   3.746   1.574
 9819TIP3    H129402   1.679   3.682   1.603
 9819TIP3    H229403   1.641   3.828   1.616
 9820TIP3   OH229404   5.793   0.117   3.770
 9820TIP3    H129405   5.881   0.140   3.801
 9820TIP3    H229406   5.767   0.189   3.713
 9821TIP3   OH229407   6.576   7.419   3.333
 9821TIP3    H129408   6.515   7.493   3.343
 9821TIP3    H229409   6.661   7.454   3.360
 9822TIP3   OH229410   3.231   2.837   6.391
 9822TIP3    H129411   3.281   2.918   6.397
 9822TIP3    H229412   3.152   2.860   6.341
 9823TIP3   OH229413   6.375   5.556   6.271
 9823TIP3    H129414   6.314   5.587   6.203
 9823TIP3    H229415   6.342   5.595   6.352
 9824TIP3   OH229416   5.659   2.450   5.548
 9824TIP3    H129417   5.639   2.518   5.611
 9824TIP3    H229418   5.576   2.402   5.537
 9825TIP3   OH229419   3.944   5.765   0.244
 9825TIP3    H129420   3.998   5.842   0.226
 9825TIP3    H229421   3.860   5.800   0.271
 9826TIP3   OH229422   6.503   4.705   5.567
 9826TIP3    H129423   6.591   4.687   5.533
 9826TIP3    H229424   6.458   4.621   5.560
 9827TIP3   OH229425   2.692   5.298   5.941
 9827TIP3    H129426   2.709   5.255   5.857
 9827TIP3    H229427   2.760   5.365   5.948
 9828TIP3   OH229428   1.705   5.022   3.131
 9828TIP3    H129429   1.764   4.949   3.115
 9828TIP3    H229430   1.684   5.056   3.044
 9829TIP3   OH229431   3.664   1.245   0.886
 9829TIP3    H129432   3.677   1.269   0.978
 9829TIP3    H229433   3.669   1.328   0.838
 9830TIP3   OH229434   7.698   3.314   1.839
 9830TIP3    H129435   7.696   3.365   1.920
 9830TIP3    H229436   7.757   3.241   1.859
 9831TIP3   OH229437   6.745   4.789   6.322
 9831TIP3    H129438   6.682   4.854   6.291
 9831TIP3    H229439   6.766   4.737   6.244
 9832TIP3   OH229440   5.064   7.028   0.787
 9832TIP3    H129441   5.131   7.034   0.855
 9832TIP3    H229442   5.026   7.116   0.782
 9833TIP3   OH229443   4.842   2.309   0.540
 9833TIP3    H129444   4.857   2.306   0.634
 9833TIP3    H229445   4.751   2.281   0.528
 9834TIP3   OH229446   6.911   1.127   2.746
 9834TIP3    H129447   6.874   1.199   2.695
 9834TIP3    H229448   6.985   1.166   2.793
 9835TIP3   OH229449   5.330   0.125   4.433
 9835TIP3    H129450   5.343   0.211   4.391
 9835TIP3    H229451   5.417   0.085   4.432
 9836TIP3   OH229452   7.121   6.385   0.144
 9836TIP3    H129453   7.065   6.435   0.204
 9836TIP3    H229454   7.081   6.398   0.058
 9837TIP3   OH229455   8.193   5.706   0.709
 9837TIP3    H129456   8.247   5.675   0.782
 9837TIP3    H229457   8.117   5.745   0.752
 9838TIP3   OH229458   6.334   1.609   5.872
 9838TIP3    H129459   6.286   1.538   5.915
 9838TIP3    H229460   6.383   1.651   5.943
 9839TIP3   OH229461   0.304   7.747   5.383
 9839TIP3    H129462   0.273   7.831   5.416
 9839TIP3    H229463   0.398   7.760   5.368
 9840TIP3   OH229464   2.463   6.629   6.816
 9840TIP3    H129465   2.390   6.595   6.764
 9840TIP3    H229466   2.535   6.568   6.800
 9841TIP3   OH229467   6.086   4.644   5.753
 9841TIP3    H129468   6.102   4.655   5.659
 9841TIP3    H229469   6.046   4.727   5.780
 9842TIP3   OH229470   4.050   0.442   6.528
 9842TIP3    H129471   4.105   0.520   6.534
 9842TIP3    H229472   3.960   0.476   6.529
 9843TIP3   OH229473   6.919   6.341   1.671
 9843TIP3    H129474   6.841   6.302   1.631
 9843TIP3    H229475   6.889   6.371   1.757
 9844TIP3   OH229476   5.507   6.706   5.522
 9844TIP3    H129477   5.513   6.787   5.573
 9844TIP3    H229478   5.455   6.647   5.575
 9845TIP3   OH229479   7.266   6.199   4.341
 9845TIP3    H129480   7.329   6.270   4.353
 9845TIP3    H229481   7.309   6.139   4.280
 9846TIP3   OH229482   3.576   2.853   4.895
 9846TIP3    H129483   3.666   2.827   4.876
 9846TIP3    H229484   3.558   2.815   4.981
 9847TIP3   OH229485   8.125   3.650   0.317
 9847TIP3    H129486   8.165   3.734   0.336
 9847TIP3    H229487   8.032   3.662   0.339
 9848TIP3   OH229488   5.200   2.589   5.920
 9848TIP3    H129489   5.214   2.516   5.979
 9848TIP3    H229490   5.255   2.659   5.956
 9849TIP3   OH229491   1.002   0.035   6.013
 9849TIP3    H129492   0.999   0.121   6.054
 9849TIP3    H229493   0.955   0.046   5.930
 9850TIP3   OH229494   5.161   4.870   4.448
 9850TIP3    H129495   5.115   4.868   4.364
 9850TIP3    H229496   5.148   4.960   4.480
 9851TIP3   OH229497   1.834   2.797   4.518
 9851TIP3    H129498   1.787   2.856   4.460
 9851TIP3    H229499   1.907   2.848   4.551
 9852TIP3   OH229500   1.311   2.141   6.598
 9852TIP3    H129501   1.253   2.106   6.667
 9852TIP3    H229502   1.377   2.191   6.645
 9853TIP3   OH229503   6.484   7.566  -0.007
 9853TIP3    H129504   6.400   7.522   0.005
 9853TIP3    H229505   6.466   7.658   0.013
 9854TIP3   OH229506   7.180   4.171   4.973
 9854TIP3    H129507   7.137   4.181   5.058
 9854TIP3    H229508   7.110   4.177   4.909
 9855TIP3   OH229509   4.220   1.711   3.064
 9855TIP3    H129510   4.169   1.792   3.060
 9855TIP3    H229511   4.260   1.712   3.151
 9856TIP3   OH229512   2.311   5.607   6.123
 9856TIP3    H129513   2.253   5.644   6.057
 9856TIP3    H229514   2.356   5.535   6.078
 9857TIP3   OH229515   6.135   3.161   0.874
 9857TIP3    H129516   6.199   3.090   0.875
 9857TIP3    H229517   6.185   3.238   0.901
 9858TIP3   OH229518   6.637   5.784   6.375
 9858TIP3    H129519   6.572   5.736   6.324
 9858TIP3    H229520   6.655   5.728   6.451
 9859TIP3   OH229521   2.852   7.699   6.609
 9859TIP3    H129522   2.929   7.670   6.561
 9859TIP3    H229523   2.838   7.632   6.676
 9860TIP3   OH229524   3.055   2.463   2.493
 9860TIP3    H129525   3.012   2.491   2.412
 9860TIP3    H229526   3.008   2.508   2.562
 9861TIP3   OH229527   1.950   2.247   5.451
 9861TIP3    H129528   1.888   2.261   5.379
 9861TIP3    H229529   1.974   2.335   5.479
 9862TIP3   OH229530   6.305   0.168   2.521
 9862TIP3    H129531   6.288   0.111   2.446
 9862TIP3    H229532   6.218   0.191   2.554
 9863TIP3   OH229533   4.153   1.133   1.566
 9863TIP3    H129534   4.064   1.166   1.556
 9863TIP3    H229535   4.142   1.039   1.584
 9864TIP3   OH229536   2.543   2.666   0.908
 9864TIP3    H129537   2.502   2.711   0.834
 9864TIP3    H229538   2.625   2.631   0.872
 9865TIP3   OH229539   0.136   0.497   0.668
 9865TIP3    H129540   0.078   0.516   0.742
 9865TIP3    H229541   0.216   0.547   0.687
 9866TIP3   OH229542   5.728   3.283   1.477
 9866TIP3    H129543   5.663   3.323   1.419
 9866TIP3    H229544   5.778   3.225   1.420
 9867TIP3   OH229545   2.714   3.851   2.253
 9867TIP3    H129546   2.791   3.850   2.310
 9867TIP3    H229547   2.695   3.944   2.241
 9868TIP3   OH229548   7.575   6.241   0.906
 9868TIP3    H129549   7.643   6.186   0.946
 9868TIP3    H229550   7.530   6.281   0.981
 9869TIP3   OH229551   7.276   0.661   1.707
 9869TIP3    H129552   7.228   0.601   1.764
 9869TIP3    H229553   7.214   0.732   1.689
 9870TIP3   OH229554   2.411   5.784   2.836
 9870TIP3    H129555   2.376   5.852   2.893
 9870TIP3    H229556   2.443   5.831   2.759
 9871TIP3   OH229557   4.288   2.653   4.153
 9871TIP3    H129558   4.280   2.567   4.193
 9871TIP3    H229559   4.210   2.701   4.184
 9872TIP3   OH229560   0.295   4.654   0.940
 9872TIP3    H129561   0.216   4.603   0.923
 9872TIP3    H229562   0.273   4.742   0.911
 9873TIP3   OH229563   3.783   1.639   0.482
 9873TIP3    H129564   3.799   1.653   0.575
 9873TIP3    H229565   3.828   1.711   0.438
 9874TIP3   OH229566   3.847   2.992   3.075
 9874TIP3    H129567   3.901   3.051   3.024
 9874TIP3    H229568   3.902   2.969   3.151
 9875TIP3   OH229569   5.572   3.922   1.499
 9875TIP3    H129570   5.633   3.857   1.463
 9875TIP3    H229571   5.629   3.983   1.546
 9876TIP3   OH229572   6.257   1.297   5.383
 9876TIP3    H129573   6.319   1.228   5.406
 9876TIP3    H229574   6.282   1.323   5.294
 9877TIP3   OH229575   8.268   4.752   4.409
 9877TIP3    H129576   8.236   4.758   4.500
 9877TIP3    H229577   8.196   4.712   4.361
 9878TIP3   OH229578   6.937   6.535   2.403
 9878TIP3    H129579   6.921   6.535   2.308
 9878TIP3    H229580   6.927   6.443   2.428
 9879TIP3   OH229581   1.543   1.033   5.615
 9879TIP3    H129582   1.538   1.093   5.690
 9879TIP3    H229583   1.451   1.011   5.596
 9880TIP3   OH229584   3.307   4.587   5.426
 9880TIP3    H129585   3.246   4.653   5.460
 9880TIP3    H229586   3.393   4.628   5.435
 9881TIP3   OH229587   7.248   6.511   5.443
 9881TIP3    H129588   7.340   6.495   5.421
 9881TIP3    H229589   7.241   6.606   5.444
 9882TIP3   OH229590   0.156   4.806   4.116
 9882TIP3    H129591   0.245   4.841   4.116
 9882TIP3    H229592   0.104   4.875   4.074
 9883TIP3   OH229593   0.945   6.311   3.675
 9883TIP3    H129594   0.853   6.291   3.660
 9883TIP3    H229595   0.989   6.226   3.676
 9884TIP3   OH229596   5.147   7.336   2.068
 9884TIP3    H129597   5.070   7.304   2.021
 9884TIP3    H229598   5.172   7.416   2.022
 9885TIP3   OH229599   4.300   2.122   6.164
 9885TIP3    H129600   4.276   2.202   6.118
 9885TIP3    H229601   4.247   2.054   6.124
 9886TIP3   OH229602   4.100   4.048   0.005
 9886TIP3    H129603   4.156   3.997  -0.054
 9886TIP3    H229604   4.073   3.985   0.072
 9887TIP3   OH229605   6.677   2.554   4.479
 9887TIP3    H129606   6.739   2.490   4.514
 9887TIP3    H229607   6.655   2.521   4.392
 9888TIP3   OH229608   7.785   2.151   5.149
 9888TIP3    H129609   7.727   2.222   5.177
 9888TIP3    H229610   7.812   2.175   5.060
 9889TIP3   OH229611   2.379   6.143   4.637
 9889TIP3    H129612   2.459   6.173   4.594
 9889TIP3    H229613   2.396   6.156   4.730
 9890TIP3   OH229614   4.255   6.774   2.388
 9890TIP3    H129615   4.351   6.778   2.380
 9890TIP3    H229616   4.240   6.724   2.468
 9891TIP3   OH229617   4.637   1.345   4.205
 9891TIP3    H129618   4.686   1.404   4.262
 9891TIP3    H229619   4.546   1.375   4.212
 9892TIP3   OH229620   5.119   5.127   4.452
 9892TIP3    H129621   5.081   5.174   4.526
 9892TIP3    H229622   5.141   5.196   4.389
 9893TIP3   OH229623   3.174   4.448   1.257
 9893TIP3    H129624   3.204   4.448   1.348
 9893TIP3    H229625   3.144   4.358   1.242
 9894TIP3   OH229626   4.451   5.090   0.898
 9894TIP3    H129627   4.438   5.030   0.971
 9894TIP3    H229628   4.373   5.081   0.844
 9895TIP3   OH229629   2.468   6.557   5.501
 9895TIP3    H129630   2.397   6.569   5.564
 9895TIP3    H229631   2.519   6.638   5.507
 9896TIP3   OH229632   4.754   6.184   3.981
 9896TIP3    H129633   4.744   6.094   3.953
 9896TIP3    H229634   4.814   6.223   3.918
 9897TIP3   OH229635   4.603   7.643   4.171
 9897TIP3    H129636   4.624   7.670   4.082
 9897TIP3    H229637   4.620   7.549   4.173
 9898TIP3   OH229638   0.513   6.487   4.525
 9898TIP3    H129639   0.447   6.497   4.594
 9898TIP3    H229640   0.463   6.465   4.446
 9899TIP3   OH229641   6.216   3.252   0.572
 9899TIP3    H129642   6.176   3.328   0.613
 9899TIP3    H229643   6.309   3.276   0.564
 9900TIP3   OH229644   4.753   2.315   5.179
 9900TIP3    H129645   4.674   2.369   5.178
 9900TIP3    H229646   4.722   2.227   5.158
 9901TIP3   OH229647   3.331   1.151   1.079
 9901TIP3    H129648   3.339   1.192   0.993
 9901TIP3    H229649   3.398   1.082   1.078
 9902TIP3   OH229650   7.337   7.058   4.972
 9902TIP3    H129651   7.345   6.973   5.014
 9902TIP3    H229652   7.242   7.072   4.963
 9903TIP3   OH229653   1.055   5.816   1.943
 9903TIP3    H129654   1.010   5.883   1.893
 9903TIP3    H229655   1.064   5.853   2.031
 9904TIP3   OH229656   5.835   2.012   2.066
 9904TIP3    H129657   5.824   2.051   2.153
 9904TIP3    H229658   5.930   2.008   2.054
 9905TIP3   OH229659   6.588   6.862   4.230
 9905TIP3    H129660   6.661   6.923   4.218
 9905TIP3    H229661   6.628   6.775   4.223
 9906TIP3   OH229662   6.380   6.507   0.912
 9906TIP3    H129663   6.372   6.523   1.006
 9906TIP3    H229664   6.308   6.557   0.873
 9907TIP3   OH229665   1.561   6.322   1.840
 9907TIP3    H129666   1.640   6.335   1.891
 9907TIP3    H229667   1.495   6.294   1.904
 9908TIP3   OH229668   1.783   6.310   1.193
 9908TIP3    H129669   1.798   6.323   1.287
 9908TIP3    H229670   1.871   6.294   1.158
 9909TIP3   OH229671   2.340   4.527   6.207
 9909TIP3    H129672   2.358   4.565   6.293
 9909TIP3    H229673   2.380   4.588   6.145
 9910TIP3   OH229674   1.066   7.066   5.251
 9910TIP3    H129675   1.116   7.146   5.265
 9910TIP3    H229676   1.030   7.075   5.163
 9911TIP3   OH229677   7.170   0.355   5.231
 9911TIP3    H129678   7.203   0.399   5.153
 9911TIP3    H229679   7.154   0.265   5.203
 9912TIP3   OH229680   3.916   6.511   5.707
 9912TIP3    H129681   3.864   6.557   5.773
 9912TIP3    H229682   3.862   6.436   5.683
 9913TIP3   OH229683   7.927   0.679   4.478
 9913TIP3    H129684   7.896   0.729   4.554
 9913TIP3    H229685   7.996   0.733   4.440
 9914TIP3   OH229686   7.178   5.248   4.993
 9914TIP3    H129687   7.219   5.168   4.960
 9914TIP3    H229688   7.186   5.311   4.921
 9915TIP3   OH229689   4.441   1.824   4.961
 9915TIP3    H129690   4.402   1.871   5.035
 9915TIP3    H229691   4.443   1.889   4.891
 9916TIP3   OH229692   7.489   0.943   4.817
 9916TIP3    H129693   7.417   1.003   4.796
 9916TIP3    H229694   7.501   0.892   4.737
 9917TIP3   OH229695   6.056   2.104   3.014
 9917TIP3    H129696   5.981   2.053   3.045
 9917TIP3    H229697   6.038   2.194   3.042
 9918TIP3   OH229698   0.751   4.257   0.980
 9918TIP3    H129699   0.819   4.312   1.019
 9918TIP3    H229700   0.704   4.221   1.056
 9919TIP3   OH229701   2.453   4.497   2.432
 9919TIP3    H129702   2.456   4.583   2.473
 9919TIP3    H229703   2.543   4.466   2.434
 9920TIP3   OH229704   6.890   6.358   5.566
 9920TIP3    H129705   6.858   6.448   5.557
 9920TIP3    H229706   6.986   6.367   5.563
 9921TIP3   OH229707   2.070   1.612   6.569
 9921TIP3    H129708   2.032   1.692   6.604
 9921TIP3    H229709   2.001   1.546   6.578
 9922TIP3   OH229710   3.838   3.506   6.047
 9922TIP3    H129711   3.921   3.555   6.043
 9922TIP3    H229712   3.842   3.459   6.130
 9923TIP3   OH229713   1.475   4.097   3.273
 9923TIP3    H129714   1.479   4.052   3.189
 9923TIP3    H229715   1.563   4.132   3.286
 9924TIP3   OH229716   4.705   3.949  -0.011
 9924TIP3    H129717   4.615   3.959   0.020
 9924TIP3    H229718   4.708   3.860  -0.047
 9925TIP3   OH229719   0.643   4.021   2.904
 9925TIP3    H129720   0.592   4.102   2.901
 9925TIP3    H229721   0.663   4.009   2.997
 9926TIP3   OH229722   3.504   3.549   3.782
 9926TIP3    H129723   3.424   3.576   3.736
 9926TIP3    H229724   3.526   3.625   3.837
 9927TIP3   OH229725   6.146   5.187   6.384
 9927TIP3    H129726   6.055   5.159   6.372
 9927TIP3    H229727   6.176   5.137   6.460
 9928TIP3   OH229728   2.339   7.648   2.488
 9928TIP3    H129729   2.343   7.743   2.498
 9928TIP3    H229730   2.251   7.625   2.518
 9929TIP3   OH229731   5.156   1.505   3.067
 9929TIP3    H129732   5.093   1.449   3.021
 9929TIP3    H229733   5.173   1.577   3.006
 9930TIP3   OH229734   8.162   4.990   1.752
 9930TIP3    H129735   8.170   5.066   1.810
 9930TIP3    H229736   8.247   4.984   1.709
 9931TIP3   OH229737   7.135   6.078   5.530
 9931TIP3    H129738   7.181   6.058   5.448
 9931TIP3    H229739   7.044   6.086   5.504
 9932TIP3   OH229740   1.809   3.674   5.495
 9932TIP3    H129741   1.888   3.623   5.477
 9932TIP3    H229742   1.737   3.613   5.477
 9933TIP3   OH229743   4.448   0.265   6.628
 9933TIP3    H129744   4.377   0.213   6.591
 9933TIP3    H229745   4.413   0.300   6.710
 9934TIP3   OH229746   0.696   5.001   1.618
 9934TIP3    H129747   0.744   4.954   1.687
 9934TIP3    H229748   0.739   4.974   1.537
 9935TIP3   OH229749   5.963   7.114   6.567
 9935TIP3    H129750   5.891   7.066   6.527
 9935TIP3    H229751   5.952   7.204   6.536
 9936TIP3   OH229752   6.822   6.229   3.842
 9936TIP3    H129753   6.884   6.295   3.809
 9936TIP3    H229754   6.863   6.196   3.922
 9937TIP3   OH229755   4.651   4.797   1.354
 9937TIP3    H129756   4.707   4.806   1.431
 9937TIP3    H229757   4.651   4.883   1.314
 9938TIP3   OH229758   3.752   1.686   4.321
 9938TIP3    H129759   3.729   1.764   4.372
 9938TIP3    H229760   3.758   1.616   4.386
 9939TIP3   OH229761   6.366   4.819   5.947
 9939TIP3    H129762   6.340   4.729   5.969
 9939TIP3    H229763   6.375   4.862   6.032
 9940TIP3   OH229764   2.635   5.650   6.046
 9940TIP3    H129765   2.605   5.712   6.113
 9940TIP3    H229766   2.721   5.683   6.019
 9941TIP3   OH229767   2.616   2.298   5.030
 9941TIP3    H129768   2.683   2.229   5.032
 9941TIP3    H229769   2.620   2.338   5.117
 9942TIP3   OH229770   5.418   4.800   1.554
 9942TIP3    H129771   5.503   4.782   1.515
 9942TIP3    H229772   5.355   4.770   1.487
 9943TIP3   OH229773   8.227   3.559   5.100
 9943TIP3    H129774   8.213   3.472   5.064
 9943TIP3    H229775   8.287   3.545   5.173
 9944TIP3   OH229776   3.684   5.024   6.556
 9944TIP3    H129777   3.674   5.061   6.644
 9944TIP3    H229778   3.699   4.930   6.571
 9945TIP3   OH229779   1.503   1.021   5.920
 9945TIP3    H129780   1.501   1.081   5.995
 9945TIP3    H229781   1.548   0.943   5.953
 9946TIP3   OH229782   4.777   2.154   2.225
 9946TIP3    H129783   4.691   2.124   2.195
 9946TIP3    H229784   4.804   2.218   2.159
 9947TIP3   OH229785   6.598   0.074   3.805
 9947TIP3    H129786   6.577   0.167   3.817
 9947TIP3    H229787   6.585   0.036   3.892
 9948TIP3   OH229788   0.924   5.167   6.504
 9948TIP3    H129789   0.935   5.082   6.546
 9948TIP3    H229790   0.965   5.229   6.564
 9949TIP3   OH229791   2.271   3.570   2.477
 9949TIP3    H129792   2.305   3.584   2.388
 9949TIP3    H229793   2.176   3.577   2.467
 9950TIP3   OH229794   4.352   3.092   1.480
 9950TIP3    H129795   4.431   3.041   1.499
 9950TIP3    H229796   4.313   3.048   1.405
 9951TIP3   OH229797   7.367   3.178   5.800
 9951TIP3    H129798   7.282   3.148   5.769
 9951TIP3    H229799   7.355   3.193   5.894
 9952TIP3   OH229800   2.999   3.487   4.655
 9952TIP3    H129801   3.086   3.528   4.649
 9952TIP3    H229802   2.939   3.556   4.627
 9953TIP3   OH229803   1.252   4.669   2.931
 9953TIP3    H129804   1.273   4.689   3.022
 9953TIP3    H229805   1.333   4.682   2.883
 9954TIP3   OH229806   0.839   1.574   0.628
 9954TIP3    H129807   0.840   1.622   0.710
 9954TIP3    H229808   0.840   1.641   0.560
 9955TIP3   OH229809   5.108   1.883   5.506
 9955TIP3    H129810   5.090   1.890   5.412
 9955TIP3    H229811   5.128   1.973   5.532
 9956TIP3   OH229812   1.453   2.555   5.242
 9956TIP3    H129813   1.388   2.622   5.264
 9956TIP3    H229814   1.536   2.603   5.238
 9957TIP3   OH229815   6.777   4.942   4.468
 9957TIP3    H129816   6.774   4.871   4.404
 9957TIP3    H229817   6.724   5.012   4.429
 9958TIP3   OH229818   3.290   5.202   1.323
 9958TIP3    H129819   3.332   5.166   1.401
 9958TIP3    H229820   3.351   5.267   1.290
 9959TIP3   OH229821   0.169   2.379   2.142
 9959TIP3    H129822   0.110   2.344   2.075
 9959TIP3    H229823   0.240   2.315   2.147
 9960TIP3   OH229824   6.377   6.238   3.593
 9960TIP3    H129825   6.337   6.296   3.657
 9960TIP3    H229826   6.414   6.166   3.645
 9961TIP3   OH229827   5.859   3.359   5.720
 9961TIP3    H129828   5.901   3.423   5.776
 9961TIP3    H229829   5.890   3.379   5.632
 9962TIP3   OH229830   8.123   3.942   5.717
 9962TIP3    H129831   8.058   3.997   5.675
 9962TIP3    H229832   8.178   3.911   5.645
 9963TIP3   OH229833   2.925   2.051   6.723
 9963TIP3    H129834   2.939   2.039   6.817
 9963TIP3    H229835   2.889   1.968   6.693
 9964TIP3   OH229836   3.320   2.566   0.947
 9964TIP3    H129837   3.380   2.561   0.872
 9964TIP3    H229838   3.241   2.607   0.911
 9965TIP3   OH229839   6.398   0.578   5.712
 9965TIP3    H129840   6.306   0.593   5.731
 9965TIP3    H229841   6.401   0.489   5.678
 9966TIP3   OH229842   5.190   2.087   3.407
 9966TIP3    H129843   5.243   2.012   3.381
 9966TIP3    H229844   5.102   2.065   3.376
 9967TIP3   OH229845   8.247   5.106   5.914
 9967TIP3    H129846   8.321   5.155   5.879
 9967TIP3    H229847   8.183   5.104   5.843
 9968TIP3   OH229848   4.749   5.894   1.186
 9968TIP3    H129849   4.689   5.938   1.126
 9968TIP3    H229850   4.781   5.818   1.136
 9969TIP3   OH229851   4.538   6.404   2.378
 9969TIP3    H129852   4.501   6.339   2.438
 9969TIP3    H229853   4.592   6.461   2.434
 9970TIP3   OH229854   0.716   2.274   5.492
 9970TIP3    H129855   0.800   2.294   5.533
 9970TIP3    H229856   0.656   2.263   5.566
 9971TIP3   OH229857   0.372   0.638   0.820
 9971TIP3    H129858   0.333   0.721   0.790
 9971TIP3    H229859   0.323   0.618   0.900
 9972TIP3   OH229860   1.522   2.123   1.372
 9972TIP3    H129861   1.444   2.155   1.417
 9972TIP3    H229862   1.544   2.191   1.309
 9973TIP3   OH229863   5.842   7.575   2.125
 9973TIP3    H129864   5.833   7.645   2.190
 9973TIP3    H229865   5.759   7.576   2.077
 9974TIP3   OH229866   7.765   2.211   4.574
 9974TIP3    H129867   7.733   2.300   4.563
 9974TIP3    H229868   7.816   2.194   4.495
 9975TIP3   OH229869   6.933   1.996   5.500
 9975TIP3    H129870   6.956   2.065   5.562
 9975TIP3    H229871   6.869   1.942   5.546
 9976TIP3   OH229872   6.318   1.642   3.330
 9976TIP3    H129873   6.344   1.550   3.320
 9976TIP3    H229874   6.250   1.640   3.397
 9977TIP3   OH229875   2.036   5.956   3.364
 9977TIP3    H129876   2.006   5.908   3.441
 9977TIP3    H229877   2.116   5.999   3.392
 9978TIP3   OH229878   6.366   1.952   6.733
 9978TIP3    H129879   6.274   1.951   6.710
 9978TIP3    H229880   6.393   1.860   6.731
 9979TIP3   OH229881   3.346   2.307   5.523
 9979TIP3    H129882   3.331   2.340   5.435
 9979TIP3    H229883   3.302   2.222   5.525
 9980TIP3   OH229884   6.064   1.232   3.097
 9980TIP3    H129885   6.092   1.227   3.188
 9980TIP3    H229886   5.969   1.218   3.100
 9981TIP3   OH229887   8.198   0.492   5.299
 9981TIP3    H129888   8.140   0.541   5.357
 9981TIP3    H229889   8.146   0.476   5.220
 9982TIP3   OH229890   3.623   1.032   3.103
 9982TIP3    H129891   3.535   0.995   3.096
 9982TIP3    H229892   3.640   1.033   3.197
 9983TIP3   OH229893   0.565   2.192   1.945
 9983TIP3    H129894   0.644   2.138   1.936
 9983TIP3    H229895   0.577   2.263   1.882
 9984TIP3   OH229896   0.977   7.809   1.946
 9984TIP3    H129897   1.022   7.760   2.015
 9984TIP3    H229898   1.043   7.869   1.912
 9985TIP3   OH229899   6.190   7.534   2.935
 9985TIP3    H129900   6.179   7.476   3.010
 9985TIP3    H229901   6.254   7.599   2.965
 9986TIP3   OH229902   1.587   0.119   0.076
 9986TIP3    H129903   1.540   0.203   0.078
 9986TIP3    H229904   1.616   0.110  -0.015
 9987TIP3   OH229905   5.531   6.271   0.555
 9987TIP3    H129906   5.604   6.241   0.610
 9987TIP3    H229907   5.564   6.264   0.465
 9988TIP3   OH229908   0.378   1.160   5.327
 9988TIP3    H129909   0.338   1.121   5.250
 9988TIP3    H229910   0.386   1.253   5.305
 9989TIP3   OH229911   8.268   2.651   0.212
 9989TIP3    H129912   8.309   2.660   0.126
 9989TIP3    H229913   8.272   2.739   0.250
 9990TIP3   OH229914   4.618   0.688   5.693
 9990TIP3    H129915   4.689   0.678   5.629
 9990TIP3    H229916   4.565   0.609   5.683
 9991TIP3   OH229917   2.009   0.326   1.286
 9991TIP3    H129918   2.102   0.308   1.269
 9991TIP3    H229919   1.987   0.268   1.359
 9992TIP3   OH229920   2.829   6.632   4.098
 9992TIP3    H129921   2.863   6.639   4.187
 9992TIP3    H229922   2.737   6.660   4.106
 9993TIP3   OH229923   7.558   3.195   4.435
 9993TIP3    H129924   7.652   3.187   4.449
 9993TIP3    H229925   7.526   3.104   4.432
 9994TIP3   OH229926   1.655   4.111   2.782
 9994TIP3    H129927   1.584   4.075   2.835
 9994TIP3    H229928   1.713   4.153   2.845
 9995TIP3   OH229929   5.644   1.392   1.896
 9995TIP3    H129930   5.594   1.351   1.826
 9995TIP3    H229931   5.615   1.483   1.896
 9996TIP3   OH229932   1.496   7.031   1.155
 9996TIP3    H129933   1.434   6.988   1.096
 9996TIP3    H229934   1.537   6.960   1.204
 9997TIP3   OH229935   4.924   4.601   2.718
 9997TIP3    H129936   4.906   4.687   2.757
 9997TIP3    H229937   5.018   4.587   2.733
 9998TIP3   OH229938   5.821   6.905   0.533
 9998TIP3    H129939   5.793   6.928   0.622
 9998TIP3    H229940   5.762   6.835   0.507
 9999TIP3   OH229941   3.094   3.346   0.376
 9999TIP3    H129942   3.033   3.293   0.428
 9999TIP3    H229943   3.159   3.376   0.440
10000TIP3   OH229944   4.168   7.055   2.894
10000TIP3    H129945   4.243   7.009   2.931
10000TIP3    H229946   4.092   7.012   2.932
10001TIP3   OH229947   0.097   2.171   2.326
10001TIP3    H129948   0.047   2.134   2.399
10001TIP3    H229949   0.034   2.226   2.280
10002TIP3   OH229950   8.251   5.260   6.163
10002TIP3    H129951   8.231   5.215   6.081
10002TIP3    H229952   8.170   5.307   6.185
10003TIP3   OH229953   6.614   2.554   3.795
10003TIP3    H129954   6.605   2.467   3.757
10003TIP3    H229955   6.525   2.580   3.818
10004TIP3   OH229956   7.183   4.687   3.012
10004TIP3    H129957   7.260   4.642   3.048
10004TIP3    H229958   7.119   4.686   3.083
10005TIP3   OH229959   0.545   2.511   0.956
10005TIP3    H129960   0.600   2.461   0.895
10005TIP3    H229961   0.571   2.602   0.944
10006TIP3   OH229962   1.371   3.495   6.214
10006TIP3    H129963   1.310   3.459   6.150
10006TIP3    H229964   1.379   3.587   6.189
10007TIP3   OH229965   5.884   3.877   6.183
10007TIP3    H129966   5.906   3.784   6.186
10007TIP3    H229967   5.837   3.893   6.265
10008TIP3   OH229968   6.137   5.382   0.057
10008TIP3    H129969   6.096   5.299   0.032
10008TIP3    H229970   6.188   5.408  -0.019
10009TIP3   OH229971   4.044   6.712   3.244
10009TIP3    H129972   4.035   6.619   3.224
10009TIP3    H229973   4.076   6.714   3.334
10010TIP3   OH229974   4.495   2.394   5.086
10010TIP3    H129975   4.418   2.431   5.130
10010TIP3    H229976   4.467   2.307   5.059
10011TIP3   OH229977   4.574   5.149   0.593
10011TIP3    H129978   4.585   5.068   0.642
10011TIP3    H229979   4.536   5.121   0.510
10012TIP3   OH229980   3.175   4.135   5.082
10012TIP3    H129981   3.119   4.154   5.007
10012TIP3    H229982   3.169   4.040   5.094
10013TIP3   OH229983   1.834   1.122   2.796
10013TIP3    H129984   1.884   1.063   2.740
10013TIP3    H229985   1.752   1.137   2.748
10014TIP3   OH229986   3.923   6.717   5.052
10014TIP3    H129987   3.873   6.636   5.063
10014TIP3    H229988   4.012   6.693   5.077
10015TIP3   OH229989   0.381   6.843   5.626
10015TIP3    H129990   0.286   6.833   5.619
10015TIP3    H229991   0.416   6.756   5.606
10016TIP3   OH229992   6.321   2.932   2.190
10016TIP3    H129993   6.273   2.981   2.123
10016TIP3    H229994   6.412   2.936   2.161
10017TIP3   OH229995   6.428   3.716   2.768
10017TIP3    H129996   6.354   3.656   2.760
10017TIP3    H229997   6.410   3.786   2.705
10018TIP3   OH229998   6.010   7.085   4.789
10018TIP3    H129999   6.028   7.139   4.866
10018TIP3    H230000   5.960   7.142   4.731
10019TIP3   OH230001   0.107   6.709   2.769
10019TIP3    H130002   0.181   6.732   2.825
10019TIP3    H230003   0.137   6.634   2.719
10020TIP3   OH230004   0.912   0.223   2.558
10020TIP3    H130005   0.907   0.134   2.524
10020TIP3    H230006   0.867   0.277   2.494
10021TIP3   OH230007   4.853   5.179   1.107
10021TIP3    H130008   4.887   5.266   1.130
10021TIP3    H230009   4.810   5.193   1.023
10022TIP3   OH230010   5.026   2.625   2.371
10022TIP3    H130011   4.947   2.673   2.395
10022TIP3    H230012   5.095   2.663   2.426
10023TIP3   OH230013   0.732   3.332   5.730
10023TIP3    H130014   0.769   3.275   5.798
10023TIP3    H230015   0.785   3.314   5.652
10024TIP3   OH230016   1.596   0.894   0.418
10024TIP3    H130017   1.600   0.799   0.404
10024TIP3    H230018   1.514   0.920   0.377
10025TIP3   OH230019   5.556   7.072   3.294
10025TIP3    H130020   5.561   7.160   3.332
10025TIP3    H230021   5.490   7.079   3.225
10026TIP3   OH230022   2.610   3.997   3.151
10026TIP3    H130023   2.542   3.963   3.210
10026TIP3    H230024   2.581   4.085   3.129
10027TIP3   OH230025   7.300   2.412   3.393
10027TIP3    H130026   7.346   2.479   3.444
10027TIP3    H230027   7.233   2.379   3.452
10028TIP3   OH230028   3.893   1.589   0.970
10028TIP3    H130029   3.887   1.673   0.924
10028TIP3    H230030   3.803   1.556   0.972
10029TIP3   OH230031   3.421   1.908   6.582
10029TIP3    H130032   3.343   1.866   6.547
10029TIP3    H230033   3.447   1.971   6.516
10030TIP3   OH230034   4.297   6.494   1.765
10030TIP3    H130035   4.237   6.540   1.707
10030TIP3    H230036   4.382   6.533   1.748
10031TIP3   OH230037   2.782   6.093   5.042
10031TIP3    H130038   2.696   6.075   5.004
10031TIP3    H230039   2.776   6.183   5.074
10032TIP3   OH230040   4.452   6.735   5.074
10032TIP3    H130041   4.389   6.710   5.142
10032TIP3    H230042   4.476   6.825   5.095
10033TIP3   OH230043   7.188   2.357   1.642
10033TIP3    H130044   7.198   2.426   1.577
10033TIP3    H230045   7.097   2.329   1.634
10034TIP3   OH230046   7.493   1.365   6.246
10034TIP3    H130047   7.483   1.459   6.232
10034TIP3    H230048   7.411   1.327   6.216
10035TIP3   OH230049   7.648   7.062   4.634
10035TIP3    H130050   7.576   7.112   4.596
10035TIP3    H230051   7.715   7.128   4.655
10036TIP3   OH230052   0.437   1.915   3.365
10036TIP3    H130053   0.460   2.007   3.382
10036TIP3    H230054   0.520   1.875   3.338
10037TIP3   OH230055   8.246   1.646   1.205
10037TIP3    H130056   8.256   1.616   1.115
10037TIP3    H230057   8.327   1.694   1.224
10038TIP3   OH230058   7.866   7.785   2.003
10038TIP3    H130059   7.783   7.740   1.992
10038TIP3    H230060   7.867   7.812   2.094
10039TIP3   OH230061   2.770   6.268   2.744
10039TIP3    H130062   2.726   6.215   2.678
10039TIP3    H230063   2.789   6.351   2.700
10040TIP3   OH230064   1.600   4.501   3.274
10040TIP3    H130065   1.514   4.497   3.314
10040TIP3    H230066   1.654   4.549   3.337
10041TIP3   OH230067   3.190   5.215   3.296
10041TIP3    H130068   3.282   5.202   3.318
10041TIP3    H230069   3.160   5.283   3.356
10042TIP3   OH230070   7.123   1.234   4.677
10042TIP3    H130071   7.106   1.158   4.620
10042TIP3    H230072   7.085   1.308   4.630
10043TIP3   OH230073   6.478   0.348   1.448
10043TIP3    H130074   6.463   0.426   1.502
10043TIP3    H230075   6.428   0.279   1.492
10044TIP3   OH230076   5.607   5.297   2.380
10044TIP3    H130077   5.579   5.211   2.409
10044TIP3    H230078   5.623   5.346   2.461
10045TIP3   OH230079   0.389   7.006   3.779
10045TIP3    H130080   0.345   7.090   3.793
10045TIP3    H230081   0.442   7.020   3.700
10046TIP3   OH230082   0.616   5.797   1.081
10046TIP3    H130083   0.594   5.890   1.076
10046TIP3    H230084   0.664   5.779   1.000
10047TIP3   OH230085   6.767   1.915   5.270
10047TIP3    H130086   6.773   1.820   5.268
10047TIP3    H230087   6.817   1.941   5.348
10048TIP3   OH230088   0.920   3.878   0.625
10048TIP3    H130089   1.004   3.891   0.669
10048TIP3    H230090   0.943   3.848   0.537
10049TIP3   OH230091   4.397   5.419   1.244
10049TIP3    H130092   4.457   5.482   1.204
10049TIP3    H230093   4.450   5.341   1.259
10050TIP3   OH230094   1.432   2.404   3.019
10050TIP3    H130095   1.476   2.488   3.015
10050TIP3    H230096   1.409   2.384   2.929
10051TIP3   OH230097   5.458   6.790   6.577
10051TIP3    H130098   5.487   6.837   6.655
10051TIP3    H230099   5.367   6.819   6.563
10052TIP3   OH230100   3.746   1.906   0.641
10052TIP3    H130101   3.682   1.930   0.708
10052TIP3    H230102   3.695   1.898   0.560
10053TIP3   OH230103   4.770   7.491   6.227
10053TIP3    H130104   4.685   7.520   6.192
10053TIP3    H230105   4.833   7.552   6.190
10054TIP3   OH230106   5.106   6.772   0.442
10054TIP3    H130107   5.168   6.840   0.413
10054TIP3    H230108   5.038   6.772   0.375
10055TIP3   OH230109   1.718   1.670   4.335
10055TIP3    H130110   1.633   1.701   4.365
10055TIP3    H230111   1.699   1.590   4.286
10056TIP3   OH230112   6.896   7.002   6.396
10056TIP3    H130113   6.922   6.909   6.402
10056TIP3    H230114   6.963   7.041   6.339
10057TIP3   OH230115   4.643   7.065   5.988
10057TIP3    H130116   4.701   6.989   5.980
10057TIP3    H230117   4.577   7.052   5.919
10058TIP3   OH230118   5.774   4.105   1.580
10058TIP3    H130119   5.834   4.072   1.514
10058TIP3    H230120   5.749   4.192   1.549
10059TIP3   OH230121   8.053   3.101   2.654
10059TIP3    H130122   8.016   3.173   2.705
10059TIP3    H230123   7.979   3.041   2.641
10060TIP3   OH230124   7.812   1.468   1.377
10060TIP3    H130125   7.816   1.391   1.319
10060TIP3    H230126   7.775   1.434   1.458
10061TIP3   OH230127   7.985   1.037   6.354
10061TIP3    H130128   7.893   1.010   6.350
10061TIP3    H230129   7.991   1.094   6.430
10062TIP3   OH230130   1.153   0.908   0.334
10062TIP3    H130131   1.112   0.924   0.419
10062TIP3    H230132   1.165   0.813   0.331
10063TIP3   OH230133   7.669   4.864   2.481
10063TIP3    H130134   7.670   4.806   2.557
10063TIP3    H230135   7.578   4.892   2.473
10064TIP3   OH230136   3.054   2.046   5.909
10064TIP3    H130137   3.129   1.985   5.913
10064TIP3    H230138   3.005   2.018   5.831
10065TIP3   OH230139   6.821   3.634   3.687
10065TIP3    H130140   6.823   3.730   3.691
10065TIP3    H230141   6.901   3.607   3.732
10066TIP3   OH230142   0.889   2.521   2.834
10066TIP3    H130143   0.796   2.539   2.845
10066TIP3    H230144   0.893   2.452   2.767
10067TIP3   OH230145   3.587   3.162   5.980
10067TIP3    H130146   3.527   3.191   5.911
10067TIP3    H230147   3.580   3.229   6.048
10068TIP3   OH230148   8.062   6.139   5.255
10068TIP3    H130149   8.107   6.223   5.261
10068TIP3    H230150   8.101   6.087   5.326
10069TIP3   OH230151   6.862   0.233   3.301
10069TIP3    H130152   6.862   0.224   3.206
10069TIP3    H230153   6.771   0.250   3.324
10070TIP3   OH230154   5.737   5.076   6.066
10070TIP3    H130155   5.760   5.120   5.985
10070TIP3    H230156   5.641   5.075   6.067
10071TIP3   OH230157   3.806   0.168   4.725
10071TIP3    H130158   3.792   0.090   4.672
10071TIP3    H230159   3.885   0.150   4.775
10072TIP3   OH230160   4.699   0.839   5.911
10072TIP3    H130161   4.609   0.859   5.935
10072TIP3    H230162   4.699   0.840   5.815
10073TIP3   OH230163   7.758   7.210   0.465
10073TIP3    H130164   7.807   7.147   0.517
10073TIP3    H230165   7.740   7.282   0.525
10074TIP3   OH230166   0.428   3.277   3.168
10074TIP3    H130167   0.390   3.197   3.203
10074TIP3    H230168   0.513   3.250   3.133
10075TIP3   OH230169   1.519   0.862   2.162
10075TIP3    H130170   1.579   0.908   2.103
10075TIP3    H230171   1.577   0.819   2.226
10076TIP3   OH230172   1.436   0.867   3.254
10076TIP3    H130173   1.409   0.957   3.235
10076TIP3    H230174   1.371   0.813   3.209
10077TIP3   OH230175   1.747   1.724   2.856
10077TIP3    H130176   1.832   1.681   2.846
10077TIP3    H230177   1.684   1.662   2.819
10078TIP3   OH230178   7.858   7.294   5.711
10078TIP3    H130179   7.936   7.317   5.662
10078TIP3    H230180   7.835   7.375   5.758
10079TIP3   OH230181   0.819   7.636   3.343
10079TIP3    H130182   0.756   7.576   3.381
10079TIP3    H230183   0.890   7.641   3.407
10080TIP3   OH230184   5.042   2.326   1.223
10080TIP3    H130185   5.008   2.272   1.294
10080TIP3    H230186   5.127   2.288   1.202
10081TIP3   OH230187   6.222   1.140   2.306
10081TIP3    H130188   6.147   1.194   2.333
10081TIP3    H230189   6.238   1.165   2.215
10082TIP3   OH230190   6.380   2.132   2.756
10082TIP3    H130191   6.310   2.070   2.780
10082TIP3    H230192   6.435   2.137   2.834
10083TIP3   OH230193   7.396   7.794   5.333
10083TIP3    H130194   7.345   7.852   5.390
10083TIP3    H230195   7.405   7.713   5.383
10084TIP3   OH230196   7.666   0.764   4.952
10084TIP3    H130197   7.603   0.832   4.928
10084TIP3    H230198   7.657   0.698   4.883
10085TIP3   OH230199   6.898   0.157   6.735
10085TIP3    H130200   6.831   0.096   6.705
10085TIP3    H230201   6.975   0.136   6.682
10086TIP3   OH230202   0.131   3.419   6.174
10086TIP3    H130203   0.214   3.444   6.134
10086TIP3    H230204   0.124   3.475   6.252
10087TIP3   OH230205   5.897   2.889   4.131
10087TIP3    H130206   5.807   2.866   4.109
10087TIP3    H230207   5.926   2.820   4.191
10088TIP3   OH230208   7.377   1.454   4.442
10088TIP3    H130209   7.426   1.417   4.515
10088TIP3    H230210   7.428   1.431   4.364
10089TIP3   OH230211   4.602   5.988   0.768
10089TIP3    H130212   4.512   6.011   0.744
10089TIP3    H230213   4.622   5.910   0.718
10090TIP3   OH230214   0.812   1.751   3.791
10090TIP3    H130215   0.807   1.845   3.808
10090TIP3    H230216   0.837   1.745   3.698
10091TIP3   OH230217   2.719   1.621   6.026
10091TIP3    H130218   2.640   1.571   6.002
10091TIP3    H230219   2.753   1.653   5.943
10092TIP3   OH230220   8.114   7.672   1.422
10092TIP3    H130221   8.099   7.740   1.487
10092TIP3    H230222   8.059   7.697   1.347
10093TIP3   OH230223   4.768   2.777   5.608
10093TIP3    H130224   4.826   2.808   5.678
10093TIP3    H230225   4.704   2.722   5.653
10094TIP3   OH230226   5.584   6.888   1.889
10094TIP3    H130227   5.525   6.830   1.840
10094TIP3    H230228   5.565   6.975   1.855
10095TIP3   OH230229   4.116   3.017   1.179
10095TIP3    H130230   4.208   2.995   1.164
10095TIP3    H230231   4.115   3.113   1.180
10096TIP3   OH230232   3.187   0.311   3.995
10096TIP3    H130233   3.101   0.347   3.973
10096TIP3    H230234   3.229   0.380   4.047
10097TIP3   OH230235   1.509   1.848   5.229
10097TIP3    H130236   1.588   1.797   5.250
10097TIP3    H230237   1.469   1.868   5.313
10098TIP3   OH230238   7.349   0.694   4.358
10098TIP3    H130239   7.294   0.617   4.344
10098TIP3    H230240   7.355   0.735   4.272
10099TIP3   OH230241   1.803   4.182   4.681
10099TIP3    H130242   1.740   4.153   4.747
10099TIP3    H230243   1.753   4.241   4.625
10100TIP3   OH230244   4.194   5.057   3.632
10100TIP3    H130245   4.173   4.980   3.580
10100TIP3    H230246   4.257   5.025   3.697
10101TIP3   OH230247   2.087   1.612   5.604
10101TIP3    H130248   2.049   1.560   5.674
10101TIP3    H230249   2.095   1.700   5.641
10102TIP3   OH230250   4.735   7.183   5.024
10102TIP3    H130251   4.771   7.259   5.071
10102TIP3    H230252   4.775   7.189   4.937
10103TIP3   OH230253   0.573   3.422   4.113
10103TIP3    H130254   0.551   3.329   4.117
10103TIP3    H230255   0.493   3.467   4.141
10104TIP3   OH230256   6.971   5.747   4.096
10104TIP3    H130257   6.876   5.764   4.097
10104TIP3    H230258   7.006   5.810   4.159
10105TIP3   OH230259   0.205   3.810   3.902
10105TIP3    H130260   0.250   3.894   3.907
10105TIP3    H230261   0.213   3.784   3.810
10106TIP3   OH230262   0.290   7.335   1.821
10106TIP3    H130263   0.279   7.279   1.744
10106TIP3    H230264   0.313   7.275   1.892
10107TIP3   OH230265   3.569   4.815   2.024
10107TIP3    H130266   3.555   4.792   1.933
10107TIP3    H230267   3.482   4.810   2.064
10108TIP3   OH230268   5.867   1.602   4.346
10108TIP3    H130269   5.874   1.560   4.432
10108TIP3    H230270   5.907   1.539   4.286
10109TIP3   OH230271   3.495   5.131   3.720
10109TIP3    H130272   3.536   5.049   3.745
10109TIP3    H230273   3.566   5.196   3.726
10110TIP3   OH230274   6.507   5.208   4.554
10110TIP3    H130275   6.562   5.287   4.546
10110TIP3    H230276   6.523   5.159   4.473
10111TIP3   OH230277   6.208   1.094   0.082
10111TIP3    H130278   6.204   1.017   0.025
10111TIP3    H230279   6.120   1.101   0.119
10112TIP3   OH230280   6.418   2.568   3.527
10112TIP3    H130281   6.484   2.504   3.553
10112TIP3    H230282   6.465   2.631   3.472
10113TIP3   OH230283   2.157   2.903   5.548
10113TIP3    H130284   2.063   2.914   5.533
10113TIP3    H230285   2.178   2.966   5.617
10114TIP3   OH230286   7.420   3.452   1.449
10114TIP3    H130287   7.412   3.480   1.358
10114TIP3    H230288   7.333   3.469   1.487
10115TIP3   OH230289   7.195   3.806   4.045
10115TIP3    H130290   7.286   3.834   4.035
10115TIP3    H230291   7.200   3.725   4.096
10116TIP3   OH230292   2.483   5.195   5.681
10116TIP3    H130293   2.424   5.127   5.647
10116TIP3    H230294   2.433   5.276   5.671
10117TIP3   OH230295   5.187   5.458   6.049
10117TIP3    H130296   5.120   5.453   5.980
10117TIP3    H230297   5.183   5.373   6.093
10118TIP3   OH230298   4.092   6.126   1.988
10118TIP3    H130299   4.089   6.193   1.919
10118TIP3    H230300   4.182   6.093   1.985
10119TIP3   OH230301   6.602   5.285   4.075
10119TIP3    H130302   6.559   5.366   4.101
10119TIP3    H230303   6.531   5.223   4.059
10120TIP3   OH230304   3.818   5.523   0.992
10120TIP3    H130305   3.758   5.450   1.004
10120TIP3    H230306   3.854   5.539   1.079
10121TIP3   OH230307   4.251   4.724   6.524
10121TIP3    H130308   4.216   4.755   6.440
10121TIP3    H230309   4.308   4.795   6.554
10122TIP3   OH230310   1.970   0.333   5.628
10122TIP3    H130311   1.944   0.283   5.551
10122TIP3    H230312   1.889   0.349   5.675
10123TIP3   OH230313   0.990   2.898   6.669
10123TIP3    H130314   1.022   2.859   6.750
10123TIP3    H230315   0.960   2.986   6.695
10124TIP3   OH230316   1.628   6.886   6.006
10124TIP3    H130317   1.643   6.813   5.946
10124TIP3    H230318   1.699   6.947   5.988
10125TIP3   OH230319   3.219   2.305   1.492
10125TIP3    H130320   3.205   2.386   1.443
10125TIP3    H230321   3.146   2.303   1.555
10126TIP3   OH230322   2.075   7.037   1.988
10126TIP3    H130323   2.140   6.994   2.043
10126TIP3    H230324   2.046   6.970   1.927
10127TIP3   OH230325   6.669   1.836   6.382
10127TIP3    H130326   6.692   1.811   6.292
10127TIP3    H230327   6.729   1.908   6.402
10128TIP3   OH230328   7.031   0.327   5.455
10128TIP3    H130329   6.963   0.384   5.492
10128TIP3    H230330   7.045   0.362   5.367
10129TIP3   OH230331   5.776   4.907   1.869
10129TIP3    H130332   5.726   4.938   1.944
10129TIP3    H230333   5.796   4.986   1.819
10130TIP3   OH230334   6.772   1.213   0.865
10130TIP3    H130335   6.727   1.294   0.841
10130TIP3    H230336   6.752   1.202   0.958
10131TIP3   OH230337   1.278   2.210   1.495
10131TIP3    H130338   1.214   2.203   1.424
10131TIP3    H230339   1.227   2.243   1.570
10132TIP3   OH230340   6.784   2.927   4.972
10132TIP3    H130341   6.740   2.842   4.972
10132TIP3    H230342   6.817   2.938   4.883
10133TIP3   OH230343   0.557   6.031   1.895
10133TIP3    H130344   0.622   5.990   1.952
10133TIP3    H230345   0.585   6.009   1.806
10134TIP3   OH230346   2.075   0.602   2.389
10134TIP3    H130347   2.066   0.588   2.295
10134TIP3    H230348   2.148   0.664   2.397
10135TIP3   OH230349   5.536   1.075   4.630
10135TIP3    H130350   5.443   1.093   4.616
10135TIP3    H230351   5.538   1.007   4.697
10136TIP3   OH230352   6.164   0.264   0.654
10136TIP3    H130353   6.132   0.340   0.604
10136TIP3    H230354   6.094   0.199   0.647
10137TIP3   OH230355   3.774   7.184   1.580
10137TIP3    H130356   3.834   7.111   1.597
10137TIP3    H230357   3.821   7.262   1.611
10138TIP3   OH230358   1.849   2.008   1.722
10138TIP3    H130359   1.834   1.924   1.764
10138TIP3    H230360   1.905   1.988   1.646
10139TIP3   OH230361   2.876   6.029   6.529
10139TIP3    H130362   2.810   6.067   6.587
10139TIP3    H230363   2.916   5.960   6.581
10140TIP3   OH230364   6.343   6.977   6.445
10140TIP3    H130365   6.371   6.900   6.496
10140TIP3    H230366   6.346   6.947   6.354
10141TIP3   OH230367   2.552   5.119   6.356
10141TIP3    H130368   2.560   5.066   6.435
10141TIP3    H230369   2.461   5.150   6.357
10142TIP3   OH230370   6.541   3.131   2.099
10142TIP3    H130371   6.558   3.203   2.161
10142TIP3    H230372   6.517   3.175   2.018
10143TIP3   OH230373   0.111   7.554   5.455
10143TIP3    H130374   0.095   7.535   5.548
10143TIP3    H230375   0.183   7.617   5.455
10144TIP3   OH230376   3.026   3.755   3.342
10144TIP3    H130377   3.058   3.790   3.425
10144TIP3    H230378   2.957   3.816   3.315
10145TIP3   OH230379   1.598   7.511   2.164
10145TIP3    H130380   1.630   7.592   2.125
10145TIP3    H230381   1.561   7.461   2.091
10146TIP3   OH230382   4.817   7.055   5.257
10146TIP3    H130383   4.791   7.088   5.171
10146TIP3    H230384   4.777   6.968   5.261
10147TIP3   OH230385   1.123   2.081   5.228
10147TIP3    H130386   1.190   2.059   5.164
10147TIP3    H230387   1.066   2.144   5.182
10148TIP3   OH230388   4.654   7.744   0.267
10148TIP3    H130389   4.560   7.742   0.289
10148TIP3    H230390   4.694   7.787   0.342
10149TIP3   OH230391   5.726   3.057   6.622
10149TIP3    H130392   5.805   3.099   6.655
10149TIP3    H230393   5.655   3.115   6.649
10150TIP3   OH230394   2.590   2.514   4.631
10150TIP3    H130395   2.524   2.541   4.567
10150TIP3    H230396   2.543   2.454   4.689
10151TIP3   OH230397   0.840   6.990   1.513
10151TIP3    H130398   0.772   6.945   1.563
10151TIP3    H230399   0.906   6.923   1.497
10152TIP3   OH230400   3.342   5.720   2.360
10152TIP3    H130401   3.348   5.635   2.404
10152TIP3    H230402   3.333   5.783   2.432
10153TIP3   OH230403   6.398   7.572   5.033
10153TIP3    H130404   6.373   7.606   4.947
10153TIP3    H230405   6.460   7.501   5.014
10154TIP3   OH230406   5.057   4.382   0.432
10154TIP3    H130407   5.035   4.337   0.514
10154TIP3    H230408   5.065   4.313   0.367
10155TIP3   OH230409   5.835   1.525   3.323
10155TIP3    H130410   5.824   1.430   3.317
10155TIP3    H230411   5.870   1.540   3.411
10156TIP3   OH230412   3.768   5.561   0.201
10156TIP3    H130413   3.831   5.633   0.199
10156TIP3    H230414   3.777   5.523   0.288
10157TIP3   OH230415   5.942   1.294   3.538
10157TIP3    H130416   5.866   1.253   3.497
10157TIP3    H230417   5.915   1.384   3.554
10158TIP3   OH230418   7.152   1.913   0.776
10158TIP3    H130419   7.200   1.913   0.693
10158TIP3    H230420   7.208   1.864   0.836
10159TIP3   OH230421   5.850   2.570   0.749
10159TIP3    H130422   5.797   2.547   0.673
10159TIP3    H230423   5.807   2.648   0.786
10160TIP3   OH230424   1.062   5.437   1.833
10160TIP3    H130425   1.118   5.510   1.805
10160TIP3    H230426   0.991   5.479   1.882
10161TIP3   OH230427   4.437   6.565   6.243
10161TIP3    H130428   4.346   6.585   6.264
10161TIP3    H230429   4.431   6.515   6.161
10162TIP3   OH230430   5.936   1.315   1.932
10162TIP3    H130431   5.946   1.221   1.915
10162TIP3    H230432   5.844   1.333   1.914
10163TIP3   OH230433   2.872   7.026   0.869
10163TIP3    H130434   2.870   7.097   0.932
10163TIP3    H230435   2.964   6.999   0.866
10164TIP3   OH230436   6.632   4.274   1.736
10164TIP3    H130437   6.546   4.237   1.720
10164TIP3    H230438   6.649   4.330   1.660
10165TIP3   OH230439   5.348   3.667   5.066
10165TIP3    H130440   5.324   3.758   5.049
10165TIP3    H230441   5.281   3.615   5.022
10166TIP3   OH230442   5.439   6.270   5.257
10166TIP3    H130443   5.377   6.199   5.272
10166TIP3    H230444   5.476   6.287   5.344
10167TIP3   OH230445   4.606   5.349  -0.013
10167TIP3    H130446   4.687   5.325   0.032
10167TIP3    H230447   4.547   5.375   0.058
10168TIP3   OH230448   4.717   0.591   4.813
10168TIP3    H130449   4.665   0.620   4.888
10168TIP3    H230450   4.699   0.498   4.804
10169TIP3   OH230451   1.395   1.421   6.266
10169TIP3    H130452   1.372   1.511   6.285
10169TIP3    H230453   1.392   1.414   6.171
10170TIP3   OH230454   8.213   0.829   5.202
10170TIP3    H130455   8.287   0.888   5.216
10170TIP3    H230456   8.141   0.871   5.250
10171TIP3   OH230457   0.702   5.555   1.787
10171TIP3    H130458   0.792   5.570   1.816
10171TIP3    H230459   0.648   5.603   1.850
10172TIP3   OH230460   1.735   2.891   6.729
10172TIP3    H130461   1.767   2.911   6.641
10172TIP3    H230462   1.808   2.845   6.771
10173TIP3   OH230463   0.291   3.086   1.286
10173TIP3    H130464   0.316   3.122   1.371
10173TIP3    H230465   0.288   2.992   1.299
10174TIP3   OH230466   2.978   2.418   1.206
10174TIP3    H130467   3.007   2.488   1.264
10174TIP3    H230468   3.042   2.347   1.220
10175TIP3   OH230469   5.618   4.821   1.207
10175TIP3    H130470   5.634   4.907   1.245
10175TIP3    H230471   5.556   4.838   1.136
10176TIP3   OH230472   0.256   2.811   2.954
10176TIP3    H130473   0.213   2.763   2.884
10176TIP3    H230474   0.268   2.746   3.023
10177TIP3   OH230475   5.162   0.040   4.164
10177TIP3    H130476   5.229   0.107   4.147
10177TIP3    H230477   5.084   0.091   4.185
10178TIP3   OH230478   4.458   0.713   2.832
10178TIP3    H130479   4.543   0.716   2.876
10178TIP3    H230480   4.454   0.625   2.794
10179TIP3   OH230481   4.555   4.855   2.780
10179TIP3    H130482   4.501   4.781   2.753
10179TIP3    H230483   4.626   4.858   2.716
10180TIP3   OH230484   6.550   3.439   3.413
10180TIP3    H130485   6.548   3.344   3.401
10180TIP3    H230486   6.494   3.473   3.343
10181TIP3   OH230487   4.342   2.759   1.444
10181TIP3    H130488   4.338   2.826   1.376
10181TIP3    H230489   4.360   2.678   1.397
10182TIP3   OH230490   5.707   7.211   1.832
10182TIP3    H130491   5.782   7.169   1.790
10182TIP3    H230492   5.699   7.166   1.916
10183TIP3   OH230493   0.278   2.251   1.504
10183TIP3    H130494   0.338   2.205   1.564
10183TIP3    H230495   0.324   2.333   1.484
10184TIP3   OH230496   5.909   0.125   1.754
10184TIP3    H130497   5.918   0.145   1.661
10184TIP3    H230498   5.854   0.196   1.789
10185TIP3   OH230499   7.173   3.024   0.205
10185TIP3    H130500   7.211   3.044   0.290
10185TIP3    H230501   7.079   3.040   0.216
10186TIP3   OH230502   4.338   2.072   1.481
10186TIP3    H130503   4.413   2.107   1.433
10186TIP3    H230504   4.263   2.122   1.449
10187TIP3   OH230505   3.511   5.460   0.154
10187TIP3    H130506   3.480   5.534   0.207
10187TIP3    H230507   3.604   5.477   0.142
10188TIP3   OH230508   7.444   6.182   0.668
10188TIP3    H130509   7.495   6.201   0.747
10188TIP3    H230510   7.503   6.201   0.595
10189TIP3   OH230511   7.382   4.482   0.521
10189TIP3    H130512   7.421   4.567   0.506
10189TIP3    H230513   7.387   4.469   0.615
10190TIP3   OH230514   0.396   2.360   5.573
10190TIP3    H130515   0.315   2.325   5.535
10190TIP3    H230516   0.376   2.452   5.592
10191TIP3   OH230517   4.858   1.516   2.257
10191TIP3    H130518   4.769   1.541   2.230
10191TIP3    H230519   4.890   1.593   2.306
10192TIP3   OH230520   1.902   6.908   3.098
10192TIP3    H130521   1.809   6.926   3.110
10192TIP3    H230522   1.941   6.930   3.183
10193TIP3   OH230523   0.162   6.163   0.964
10193TIP3    H130524   0.193   6.147   0.875
10193TIP3    H230525   0.068   6.147   0.960
10194TIP3   OH230526   0.374   0.879   6.307
10194TIP3    H130527   0.387   0.895   6.400
10194TIP3    H230528   0.340   0.790   6.302
10195TIP3   OH230529   6.427   2.840   2.713
10195TIP3    H130530   6.408   2.776   2.782
10195TIP3    H230531   6.396   2.923   2.749
10196TIP3   OH230532   0.784   6.901   2.550
10196TIP3    H130533   0.736   6.894   2.632
10196TIP3    H230534   0.717   6.897   2.482
10197TIP3   OH230535   2.677   0.419   0.141
10197TIP3    H130536   2.587   0.407   0.109
10197TIP3    H230537   2.701   0.333   0.175
10198TIP3   OH230538   2.910   1.451   5.575
10198TIP3    H130539   2.943   1.507   5.645
10198TIP3    H230540   2.819   1.478   5.562
10199TIP3   OH230541   1.441   2.434   4.637
10199TIP3    H130542   1.422   2.456   4.728
10199TIP3    H230543   1.487   2.510   4.602
10200TIP3   OH230544   2.727   7.837  -0.023
10200TIP3    H130545   2.716   7.745  -0.002
10200TIP3    H230546   2.743   7.880   0.061
10201TIP3   OH230547   1.512   1.952   0.842
10201TIP3    H130548   1.570   1.898   0.896
10201TIP3    H230549   1.537   1.931   0.752
10202TIP3   OH230550   6.112   4.453   3.370
10202TIP3    H130551   6.061   4.373   3.383
10202TIP3    H230552   6.203   4.423   3.366
10203TIP3   OH230553   3.707   4.287   5.745
10203TIP3    H130554   3.655   4.214   5.714
10203TIP3    H230555   3.742   4.327   5.665
10204TIP3   OH230556   2.619   1.500   5.600
10204TIP3    H130557   2.633   1.471   5.690
10204TIP3    H230558   2.525   1.490   5.586
10205TIP3   OH230559   7.267   7.311   1.671
10205TIP3    H130560   7.243   7.392   1.717
10205TIP3    H230561   7.188   7.288   1.622
10206TIP3   OH230562   7.328   6.652   4.360
10206TIP3    H130563   7.353   6.574   4.409
10206TIP3    H230564   7.256   6.624   4.304
10207TIP3   OH230565   2.386   1.761   5.632
10207TIP3    H130566   2.349   1.673   5.629
10207TIP3    H230567   2.480   1.747   5.640
10208TIP3   OH230568   1.585   7.176   3.729
10208TIP3    H130569   1.541   7.168   3.813
10208TIP3    H230570   1.556   7.261   3.695
10209TIP3   OH230571   2.721   6.388   4.420
10209TIP3    H130572   2.667   6.323   4.465
10209TIP3    H230573   2.702   6.470   4.464
10210TIP3   OH230574   1.963   0.306   2.347
10210TIP3    H130575   1.888   0.300   2.288
10210TIP3    H230576   2.038   0.320   2.288
10211TIP3   OH230577   5.622   0.417   4.611
10211TIP3    H130578   5.634   0.496   4.558
10211TIP3    H230579   5.648   0.346   4.553
10212TIP3   OH230580   2.290   6.509   3.925
10212TIP3    H130581   2.377   6.475   3.949
10212TIP3    H230582   2.285   6.495   3.830
10213TIP3   OH230583   3.031   1.711   2.678
10213TIP3    H130584   3.033   1.656   2.599
10213TIP3    H230585   3.108   1.767   2.670
10214TIP3   OH230586   6.137   2.710   5.552
10214TIP3    H130587   6.223   2.736   5.520
10214TIP3    H230588   6.145   2.616   5.568
10215TIP3   OH230589   5.835   3.449   0.670
10215TIP3    H130590   5.774   3.450   0.596
10215TIP3    H230591   5.921   3.457   0.629
10216TIP3   OH230592   6.655   1.294   5.441
10216TIP3    H130593   6.615   1.239   5.508
10216TIP3    H230594   6.736   1.326   5.481
10217TIP3   OH230595   6.710   1.104   3.854
10217TIP3    H130596   6.671   1.183   3.892
10217TIP3    H230597   6.758   1.136   3.777
10218TIP3   OH230598   1.071   2.822   0.441
10218TIP3    H130599   0.999   2.828   0.504
10218TIP3    H230600   1.064   2.902   0.389
10219TIP3   OH230601   0.758   6.155   5.686
10219TIP3    H130602   0.841   6.167   5.639
10219TIP3    H230603   0.770   6.203   5.768
10220TIP3   OH230604   5.450   6.564   0.564
10220TIP3    H130605   5.441   6.582   0.470
10220TIP3    H230606   5.465   6.470   0.569
10221TIP3   OH230607   8.006   5.326   5.382
10221TIP3    H130608   8.071   5.259   5.399
10221TIP3    H230609   7.956   5.293   5.307
10222TIP3   OH230610   3.941   7.342   1.124
10222TIP3    H130611   3.896   7.323   1.207
10222TIP3    H230612   3.990   7.263   1.105
10223TIP3   OH230613   6.374   0.937   4.631
10223TIP3    H130614   6.460   0.934   4.589
10223TIP3    H230615   6.344   0.846   4.630
10224TIP3   OH230616   5.212   2.938   6.778
10224TIP3    H130617   5.117   2.934   6.769
10224TIP3    H230618   5.243   2.958   6.690
10225TIP3   OH230619   7.574   7.189   3.866
10225TIP3    H130620   7.580   7.210   3.772
10225TIP3    H230621   7.560   7.094   3.868
10226TIP3   OH230622   8.145   7.229   1.444
10226TIP3    H130623   8.148   7.211   1.538
10226TIP3    H230624   8.064   7.187   1.414
10227TIP3   OH230625   5.379   4.593   6.284
10227TIP3    H130626   5.314   4.642   6.234
10227TIP3    H230627   5.398   4.649   6.359
10228TIP3   OH230628   7.186   1.395   3.484
10228TIP3    H130629   7.251   1.382   3.552
10228TIP3    H230630   7.187   1.490   3.468
10229TIP3   OH230631   1.427   5.401   3.490
10229TIP3    H130632   1.485   5.458   3.540
10229TIP3    H230633   1.444   5.424   3.399
10230TIP3   OH230634   3.132   1.456   1.319
10230TIP3    H130635   3.156   1.440   1.411
10230TIP3    H230636   3.201   1.413   1.269
10231TIP3   OH230637   3.781   3.316   4.093
10231TIP3    H130638   3.697   3.347   4.128
10231TIP3    H230639   3.757   3.243   4.036
10232TIP3   OH230640   1.613   2.270   0.577
10232TIP3    H130641   1.627   2.356   0.538
10232TIP3    H230642   1.532   2.278   0.627
10233TIP3   OH230643   2.706   6.094   2.545
10233TIP3    H130644   2.703   6.069   2.452
10233TIP3    H230645   2.643   6.035   2.587
10234TIP3   OH230646   8.224   7.238   1.057
10234TIP3    H130647   8.309   7.219   1.018
10234TIP3    H230648   8.239   7.236   1.152
10235TIP3   OH230649   1.435   6.966   6.715
10235TIP3    H130650   1.393   6.940   6.633
10235TIP3    H230651   1.528   6.961   6.698
10236TIP3   OH230652   6.825   7.691   2.838
10236TIP3    H130653   6.804   7.780   2.809
10236TIP3    H230654   6.884   7.703   2.912
10237TIP3   OH230655   6.336   1.492   1.346
10237TIP3    H130656   6.248   1.523   1.364
10237TIP3    H230657   6.351   1.514   1.254
10238TIP3   OH230658   4.813   7.209   2.829
10238TIP3    H130659   4.809   7.183   2.921
10238TIP3    H230660   4.851   7.134   2.785
10239TIP3   OH230661   4.261   4.589   2.388
10239TIP3    H130662   4.239   4.496   2.398
10239TIP3    H230663   4.189   4.636   2.430
10240TIP3   OH230664   7.343   5.556   5.337
10240TIP3    H130665   7.247   5.549   5.344
10240TIP3    H230666   7.373   5.563   5.427
10241TIP3   OH230667   0.590   4.008   3.539
10241TIP3    H130668   0.636   4.068   3.597
10241TIP3    H230669   0.634   3.924   3.553
10242TIP3   OH230670   3.691   1.736   1.151
10242TIP3    H130671   3.762   1.790   1.117
10242TIP3    H230672   3.630   1.727   1.078
10243TIP3   OH230673   5.995   0.721   2.697
10243TIP3    H130674   6.057   0.731   2.769
10243TIP3    H230675   6.049   0.711   2.619
10244TIP3   OH230676   2.188   3.783   6.484
10244TIP3    H130677   2.136   3.831   6.419
10244TIP3    H230678   2.263   3.750   6.436
10245TIP3   OH230679   6.493   2.067   3.607
10245TIP3    H130680   6.426   2.018   3.654
10245TIP3    H230681   6.452   2.091   3.524
10246TIP3   OH230682   5.565   2.637   4.549
10246TIP3    H130683   5.550   2.574   4.619
10246TIP3    H230684   5.607   2.712   4.593
10247TIP3   OH230685   4.095   2.483   1.368
10247TIP3    H130686   4.121   2.424   1.298
10247TIP3    H230687   4.092   2.570   1.328
10248TIP3   OH230688   2.140   5.538   5.574
10248TIP3    H130689   2.120   5.506   5.662
10248TIP3    H230690   2.147   5.459   5.520
10249TIP3   OH230691   7.320   3.989   0.076
10249TIP3    H130692   7.236   3.995   0.120
10249TIP3    H230693   7.301   3.945  -0.007
10250TIP3   OH230694   2.262   3.125   3.483
10250TIP3    H130695   2.315   3.155   3.557
10250TIP3    H230696   2.178   3.169   3.495
10251TIP3   OH230697   1.140   0.342   0.099
10251TIP3    H130698   1.115   0.281   0.029
10251TIP3    H230699   1.081   0.416   0.089
10252TIP3   OH230700   5.360   5.345   3.560
10252TIP3    H130701   5.421   5.318   3.492
10252TIP3    H230702   5.274   5.346   3.516
10253TIP3   OH230703   2.714   2.274   3.173
10253TIP3    H130704   2.694   2.343   3.237
10253TIP3    H230705   2.784   2.223   3.214
10254TIP3   OH230706   1.211   0.147   1.113
10254TIP3    H130707   1.288   0.196   1.086
10254TIP3    H230708   1.196   0.173   1.204
10255TIP3   OH230709   2.955   1.194   4.049
10255TIP3    H130710   2.878   1.173   3.997
10255TIP3    H230711   2.942   1.145   4.131
10256TIP3   OH230712   3.401   3.230   6.248
10256TIP3    H130713   3.383   3.276   6.331
10256TIP3    H230714   3.427   3.300   6.188
10257TIP3   OH230715   3.791   3.795   4.748
10257TIP3    H130716   3.823   3.872   4.702
10257TIP3    H230717   3.729   3.829   4.812
10258TIP3   OH230718   0.651   5.633   6.407
10258TIP3    H130719   0.595   5.699   6.447
10258TIP3    H230720   0.739   5.656   6.436
10259TIP3   OH230721   7.732   3.290   3.424
10259TIP3    H130722   7.781   3.215   3.456
10259TIP3    H230723   7.694   3.261   3.341
10260TIP3   OH230724   6.947   6.119   4.094
10260TIP3    H130725   6.956   6.055   4.164
10260TIP3    H230726   7.033   6.119   4.051
10261TIP3   OH230727   4.867   5.999   1.665
10261TIP3    H130728   4.818   5.918   1.681
10261TIP3    H230729   4.812   6.068   1.701
10262TIP3   OH230730   3.242   4.747   3.846
10262TIP3    H130731   3.236   4.724   3.939
10262TIP3    H230732   3.208   4.671   3.799
10263TIP3   OH230733   8.218   3.077   3.151
10263TIP3    H130734   8.274   3.130   3.093
10263TIP3    H230735   8.238   2.987   3.127
10264TIP3   OH230736   0.438   2.855   5.283
10264TIP3    H130737   0.359   2.808   5.307
10264TIP3    H230738   0.453   2.916   5.356
10265TIP3   OH230739   7.586   2.015   4.628
10265TIP3    H130740   7.636   1.979   4.701
10265TIP3    H230741   7.648   2.074   4.584
10266TIP3   OH230742   0.006   4.986   0.595
10266TIP3    H130743  -0.087   4.964   0.600
10266TIP3    H230744   0.034   4.954   0.509
10267TIP3   OH230745   2.461   3.871   2.694
10267TIP3    H130746   2.425   3.815   2.762
10267TIP3    H230747   2.528   3.817   2.651
10268TIP3   OH230748   1.569   6.237   1.065
10268TIP3    H130749   1.633   6.286   1.116
10268TIP3    H230750   1.621   6.176   1.013
10269TIP3   OH230751   3.711   7.330   0.150
10269TIP3    H130752   3.688   7.322   0.243
10269TIP3    H230753   3.761   7.412   0.145
10270TIP3   OH230754   5.831   1.303   4.082
10270TIP3    H130755   5.832   1.207   4.082
10270TIP3    H230756   5.739   1.325   4.074
10271TIP3   OH230757   3.399   0.968   5.802
10271TIP3    H130758   3.337   1.010   5.743
10271TIP3    H230759   3.372   0.876   5.804
10272TIP3   OH230760   1.242   7.662   0.506
10272TIP3    H130761   1.261   7.724   0.436
10272TIP3    H230762   1.281   7.579   0.476
10273TIP3   OH230763   6.280   2.935   0.860
10273TIP3    H130764   6.194   2.903   0.835
10273TIP3    H230765   6.331   2.930   0.779
10274TIP3   OH230766   4.990   2.092   2.018
10274TIP3    H130767   4.933   2.015   2.023
10274TIP3    H230768   5.023   2.103   2.108
10275TIP3   OH230769   7.141   0.297   2.800
10275TIP3    H130770   7.101   0.376   2.836
10275TIP3    H230771   7.214   0.329   2.748
10276TIP3   OH230772   5.980   5.038   3.650
10276TIP3    H130773   5.921   5.063   3.720
10276TIP3    H230774   6.000   5.120   3.604
10277TIP3   OH230775   6.778   7.092   3.271
10277TIP3    H130776   6.821   7.075   3.354
10277TIP3    H230777   6.836   7.153   3.226
10278TIP3   OH230778   5.488   2.950   3.448
10278TIP3    H130779   5.516   2.929   3.359
10278TIP3    H230780   5.481   3.045   3.450
10279TIP3   OH230781   1.961   1.520   2.890
10279TIP3    H130782   1.991   1.453   2.951
10279TIP3    H230783   2.038   1.542   2.838
10280TIP3   OH230784   2.783   0.420   1.278
10280TIP3    H130785   2.855   0.385   1.330
10280TIP3    H230786   2.753   0.496   1.326
10281TIP3   OH230787   6.003   6.557   0.390
10281TIP3    H130788   6.087   6.513   0.401
10281TIP3    H230789   5.943   6.488   0.362
10282TIP3   OH230790   3.121   0.865   6.230
10282TIP3    H130791   3.163   0.787   6.193
10282TIP3    H230792   3.184   0.936   6.215
10283TIP3   OH230793   7.658   6.309   4.985
10283TIP3    H130794   7.695   6.316   4.897
10283TIP3    H230795   7.713   6.244   5.029
10284TIP3   OH230796   7.846   2.912   1.862
10284TIP3    H130797   7.909   2.981   1.882
10284TIP3    H230798   7.880   2.834   1.906
10285TIP3   OH230799   4.262   4.093   6.105
10285TIP3    H130800   4.238   4.072   6.014
10285TIP3    H230801   4.217   4.175   6.123
10286TIP3   OH230802   1.951   1.592   0.222
10286TIP3    H130803   1.948   1.613   0.129
10286TIP3    H230804   1.953   1.676   0.266
10287TIP3   OH230805   6.391   5.770   0.037
10287TIP3    H130806   6.429   5.853   0.065
10287TIP3    H230807   6.327   5.795  -0.030
10288TIP3   OH230808   2.914   0.270   3.336
10288TIP3    H130809   2.974   0.315   3.395
10288TIP3    H230810   2.828   0.278   3.378
10289TIP3   OH230811   2.031   3.258   2.285
10289TIP3    H130812   2.125   3.245   2.298
10289TIP3    H230813   2.006   3.190   2.224
10290TIP3   OH230814   0.276   4.648   1.942
10290TIP3    H130815   0.273   4.703   1.864
10290TIP3    H230816   0.310   4.564   1.912
10291TIP3   OH230817   5.813   7.190   5.922
10291TIP3    H130818   5.840   7.117   5.866
10291TIP3    H230819   5.823   7.267   5.866
10292TIP3   OH230820   3.843   0.282   3.289
10292TIP3    H130821   3.906   0.241   3.229
10292TIP3    H230822   3.880   0.266   3.376
10293TIP3   OH230823   3.732   5.711   3.556
10293TIP3    H130824   3.714   5.795   3.514
10293TIP3    H230825   3.822   5.689   3.531
10294TIP3   OH230826   0.891   5.764   6.471
10294TIP3    H130827   0.853   5.848   6.494
10294TIP3    H230828   0.970   5.757   6.525
10295TIP3   OH230829   4.483   3.268   4.783
10295TIP3    H130830   4.439   3.236   4.705
10295TIP3    H230831   4.507   3.359   4.763
10296TIP3   OH230832   1.203   7.728   2.103
10296TIP3    H130833   1.271   7.793   2.088
10296TIP3    H230834   1.203   7.715   2.198
10297TIP3   OH230835   4.470   0.287   0.246
10297TIP3    H130836   4.543   0.254   0.194
10297TIP3    H230837   4.503   0.286   0.336
10298TIP3   OH230838   7.639   4.828   4.395
10298TIP3    H130839   7.600   4.822   4.482
10298TIP3    H230840   7.660   4.738   4.371
10299TIP3   OH230841   5.426   1.481   0.779
10299TIP3    H130842   5.376   1.482   0.860
10299TIP3    H230843   5.454   1.571   0.766
10300TIP3   OH230844   2.213   2.596   6.398
10300TIP3    H130845   2.301   2.581   6.432
10300TIP3    H230846   2.170   2.510   6.402
10301TIP3   OH230847   6.270   0.574   5.250
10301TIP3    H130848   6.229   0.589   5.164
10301TIP3    H230849   6.202   0.598   5.313
10302TIP3   OH230850   3.755   1.827   4.585
10302TIP3    H130851   3.840   1.856   4.550
10302TIP3    H230852   3.706   1.908   4.599
10303TIP3   OH230853   0.941   1.939   4.659
10303TIP3    H130854   1.001   1.865   4.643
10303TIP3    H230855   0.854   1.900   4.653
10304TIP3   OH230856   2.127   4.908   3.029
10304TIP3    H130857   2.172   4.905   2.945
10304TIP3    H230858   2.089   4.997   3.032
10305TIP3   OH230859   5.455   5.339   0.660
10305TIP3    H130860   5.478   5.253   0.626
10305TIP3    H230861   5.477   5.400   0.590
10306TIP3   OH230862   1.346   1.871   0.183
10306TIP3    H130863   1.387   1.815   0.250
10306TIP3    H230864   1.418   1.923   0.147
10307TIP3   OH230865   7.690   2.170   6.166
10307TIP3    H130866   7.721   2.243   6.220
10307TIP3    H230867   7.729   2.092   6.206
10308TIP3   OH230868   5.693   6.696   1.211
10308TIP3    H130869   5.687   6.790   1.193
10308TIP3    H230870   5.603   6.664   1.198
10309TIP3   OH230871   4.809   2.237   0.807
10309TIP3    H130872   4.727   2.266   0.846
10309TIP3    H230873   4.797   2.143   0.794
10310TIP3   OH230874   1.850   7.489   5.346
10310TIP3    H130875   1.845   7.505   5.252
10310TIP3    H230876   1.792   7.555   5.385
10311TIP3   OH230877   1.854   7.739   4.565
10311TIP3    H130878   1.897   7.654   4.562
10311TIP3    H230879   1.771   7.723   4.610
10312TIP3   OH230880   0.285   1.156   0.072
10312TIP3    H130881   0.195   1.163   0.104
10312TIP3    H230882   0.305   1.243   0.038
10313TIP3   OH230883   0.691   2.997   2.874
10313TIP3    H130884   0.697   3.056   2.798
10313TIP3    H230885   0.781   2.968   2.888
10314TIP3   OH230886   1.292   5.559   1.311
10314TIP3    H130887   1.299   5.488   1.248
10314TIP3    H230888   1.264   5.518   1.392
10315TIP3   OH230889   3.354   0.657   5.432
10315TIP3    H130890   3.395   0.743   5.422
10315TIP3    H230891   3.271   0.674   5.475
10316TIP3   OH230892   0.402   3.464   3.407
10316TIP3    H130893   0.430   3.452   3.316
10316TIP3    H230894   0.400   3.375   3.442
10317TIP3   OH230895   3.254   6.059   3.544
10317TIP3    H130896   3.250   5.967   3.571
10317TIP3    H230897   3.298   6.057   3.459
10318TIP3   OH230898   2.685   4.506   5.898
10318TIP3    H130899   2.749   4.575   5.911
10318TIP3    H230900   2.617   4.546   5.844
10319TIP3   OH230901   5.250   5.355   0.183
10319TIP3    H130902   5.180   5.292   0.199
10319TIP3    H230903   5.266   5.349   0.088
10320TIP3   OH230904   3.998   7.695   0.505
10320TIP3    H130905   3.986   7.708   0.599
10320TIP3    H230906   4.041   7.775   0.475
10321TIP3   OH230907   4.731   6.162   0.540
10321TIP3    H130908   4.701   6.104   0.470
10321TIP3    H230909   4.740   6.105   0.616
10322TIP3   OH230910   6.243   3.716   3.775
10322TIP3    H130911   6.190   3.739   3.698
10322TIP3    H230912   6.323   3.678   3.738
10323TIP3   OH230913   3.154   2.380   2.741
10323TIP3    H130914   3.150   2.413   2.651
10323TIP3    H230915   3.104   2.443   2.792
10324TIP3   OH230916   6.493   6.738   3.232
10324TIP3    H130917   6.507   6.791   3.311
10324TIP3    H230918   6.570   6.756   3.178
10325TIP3   OH230919   4.348   6.063   4.126
10325TIP3    H130920   4.389   6.087   4.043
10325TIP3    H230921   4.363   5.969   4.133
10326TIP3   OH230922  -0.030   3.871   0.889
10326TIP3    H130923   0.026   3.856   0.813
10326TIP3    H230924   0.017   3.828   0.961
10327TIP3   OH230925   0.121   1.404   1.473
10327TIP3    H130926   0.057   1.353   1.424
10327TIP3    H230927   0.070   1.448   1.541
10328TIP3   OH230928   2.479   7.825   1.417
10328TIP3    H130929   2.496   7.752   1.358
10328TIP3    H230930   2.564   7.866   1.429
10329TIP3   OH230931   7.423   2.575   1.856
10329TIP3    H130932   7.346   2.520   1.873
10329TIP3    H230933   7.388   2.656   1.819
10330TIP3   OH230934   5.232   0.362   1.558
10330TIP3    H130935   5.277   0.285   1.592
10330TIP3    H230936   5.235   0.350   1.463
10331TIP3   OH230937   4.626   1.679   3.331
10331TIP3    H130938   4.604   1.752   3.389
10331TIP3    H230939   4.688   1.626   3.381
10332TIP3   OH230940   4.668   4.629   5.335
10332TIP3    H130941   4.613   4.552   5.349
10332TIP3    H230942   4.757   4.597   5.347
10333TIP3   OH230943   1.946   0.106   1.071
10333TIP3    H130944   1.941   0.146   0.985
10333TIP3    H230945   1.892   0.162   1.127
10334TIP3   OH230946   2.379   5.154   5.363
10334TIP3    H130947   2.443   5.221   5.386
10334TIP3    H230948   2.391   5.141   5.269
10335TIP3   OH230949   1.193   5.023   1.787
10335TIP3    H130950   1.135   5.099   1.777
10335TIP3    H230951   1.134   4.948   1.783
10336TIP3   OH230952   1.272   2.338   5.865
10336TIP3    H130953   1.239   2.427   5.855
10336TIP3    H230954   1.283   2.327   5.959
10337TIP3   OH230955   7.459   7.639   1.484
10337TIP3    H130956   7.373   7.655   1.523
10337TIP3    H230957   7.439   7.608   1.395
10338TIP3   OH230958   3.688   2.624   4.654
10338TIP3    H130959   3.688   2.656   4.564
10338TIP3    H230960   3.781   2.619   4.678
10339TIP3   OH230961   4.143   7.173   1.053
10339TIP3    H130962   4.153   7.138   1.142
10339TIP3    H230963   4.175   7.102   0.996
10340TIP3   OH230964   1.160   2.129   5.487
10340TIP3    H130965   1.144   2.124   5.393
10340TIP3    H230966   1.123   2.214   5.513
10341TIP3   OH230967   0.991   6.006   5.252
10341TIP3    H130968   0.929   5.953   5.203
10341TIP3    H230969   0.977   6.096   5.221
10342TIP3   OH230970   6.245   4.328   2.954
10342TIP3    H130971   6.252   4.371   2.869
10342TIP3    H230972   6.186   4.255   2.939
10343TIP3   OH230973   3.209   4.178   1.671
10343TIP3    H130974   3.242   4.246   1.613
10343TIP3    H230975   3.141   4.222   1.722
10344TIP3   OH230976   7.529   7.212   1.312
10344TIP3    H130977   7.565   7.186   1.397
10344TIP3    H230978   7.603   7.209   1.252
10345TIP3   OH230979   1.834   6.361   2.362
10345TIP3    H130980   1.819   6.271   2.331
10345TIP3    H230981   1.859   6.350   2.453
10346TIP3   OH230982   0.217   6.055   5.479
10346TIP3    H130983   0.262   6.036   5.561
10346TIP3    H230984   0.130   6.085   5.505
10347TIP3   OH230985   0.113   1.380   1.847
10347TIP3    H130986   0.105   1.368   1.941
10347TIP3    H230987   0.039   1.436   1.823
10348TIP3   OH230988   5.919   7.397   1.588
10348TIP3    H130989   5.964   7.317   1.560
10348TIP3    H230990   5.985   7.466   1.582
10349TIP3   OH230991   0.791   0.918   3.655
10349TIP3    H130992   0.790   1.014   3.657
10349TIP3    H230993   0.802   0.892   3.747
10350TIP3   OH230994   7.173   5.599   0.037
10350TIP3    H130995   7.200   5.620  -0.053
10350TIP3    H230996   7.175   5.684   0.082
10351TIP3   OH230997   0.413   4.136   0.296
10351TIP3    H130998   0.319   4.114   0.295
10351TIP3    H230999   0.453   4.069   0.241
10352TIP3   OH231000   6.153   5.204   3.876
10352TIP3    H131001   6.145   5.213   3.781
10352TIP3    H231002   6.089   5.266   3.911
10353TIP3   OH231003   1.233   1.373   2.536
10353TIP3    H131004   1.206   1.459   2.505
10353TIP3    H231005   1.194   1.311   2.475
10354TIP3   OH231006   3.455   2.607   1.942
10354TIP3    H131007   3.476   2.607   1.849
10354TIP3    H231008   3.359   2.602   1.945
10355TIP3   OH231009   6.061   4.247   5.724
10355TIP3    H131010   5.988   4.191   5.696
10355TIP3    H231011   6.139   4.206   5.687
10356TIP3   OH231012   3.519   2.413   5.743
10356TIP3    H131013   3.553   2.493   5.702
10356TIP3    H231014   3.446   2.387   5.687
10357TIP3   OH231015   5.186   4.463   5.814
10357TIP3    H131016   5.178   4.475   5.909
10357TIP3    H231017   5.132   4.386   5.795
10358TIP3   OH231018   6.473   0.706   2.991
10358TIP3    H131019   6.564   0.676   2.985
10358TIP3    H231020   6.478   0.801   2.978
10359TIP3   OH231021   2.579   3.151   6.113
10359TIP3    H131022   2.525   3.189   6.183
10359TIP3    H231023   2.648   3.216   6.098
10360TIP3   OH231024   6.420   2.440   6.004
10360TIP3    H131025   6.325   2.447   6.020
10360TIP3    H231026   6.458   2.436   6.092
10361TIP3   OH231027   1.212   4.167   1.417
10361TIP3    H131028   1.207   4.165   1.512
10361TIP3    H231029   1.266   4.244   1.398
10362TIP3   OH231030   4.534   0.835   6.438
10362TIP3    H131031   4.509   0.754   6.394
10362TIP3    H231032   4.457   0.891   6.430
10363TIP3   OH231033   1.897   0.310   3.697
10363TIP3    H131034   1.975   0.265   3.663
10363TIP3    H231035   1.839   0.239   3.725
10364TIP3   OH231036   3.239   5.562   6.288
10364TIP3    H131037   3.334   5.560   6.292
10364TIP3    H231038   3.214   5.471   6.271
10365TIP3   OH231039   3.370   7.327   4.946
10365TIP3    H131040   3.336   7.253   4.997
10365TIP3    H231041   3.306   7.337   4.875
10366TIP3   OH231042   1.755   0.451   1.936
10366TIP3    H131043   1.782   0.542   1.950
10366TIP3    H231044   1.712   0.452   1.850
10367TIP3   OH231045   5.501   1.484   3.760
10367TIP3    H131046   5.550   1.555   3.719
10367TIP3    H231047   5.411   1.515   3.761
10368TIP3   OH231048   5.916   0.343   5.488
10368TIP3    H131049   5.912   0.283   5.414
10368TIP3    H231050   6.009   0.353   5.506
10369TIP3   OH231051   6.513   0.731   1.338
10369TIP3    H131052   6.608   0.739   1.325
10369TIP3    H231053   6.477   0.727   1.250
10370TIP3   OH231054   1.017   1.736   2.137
10370TIP3    H131055   1.000   1.675   2.209
10370TIP3    H231056   0.931   1.768   2.112
10371TIP3   OH231057   4.569   4.427   1.317
10371TIP3    H131058   4.615   4.438   1.400
10371TIP3    H231059   4.581   4.335   1.295
10372TIP3   OH231060   1.867   7.762   6.609
10372TIP3    H131061   1.817   7.833   6.569
10372TIP3    H231062   1.956   7.776   6.577
10373TIP3   OH231063   3.012   3.437   2.061
10373TIP3    H131064   3.001   3.522   2.018
10373TIP3    H231065   2.937   3.385   2.032
10374TIP3   OH231066   5.793   2.180   5.731
10374TIP3    H131067   5.728   2.112   5.711
10374TIP3    H231068   5.873   2.132   5.749
10375TIP3   OH231069   2.219   7.500   4.029
10375TIP3    H131070   2.287   7.480   4.093
10375TIP3    H231071   2.137   7.491   4.078
10376TIP3   OH231072   7.397   4.790   2.667
10376TIP3    H131073   7.316   4.804   2.716
10376TIP3    H231074   7.403   4.695   2.658
10377TIP3   OH231075   0.990   2.219   2.074
10377TIP3    H131076   0.970   2.311   2.091
10377TIP3    H231077   1.050   2.193   2.143
10378TIP3   OH231078   3.901   0.038   6.152
10378TIP3    H131079   3.982   0.086   6.133
10378TIP3    H231080   3.872   0.004   6.068
10379TIP3   OH231081   1.994   0.154   0.483
10379TIP3    H131082   2.071   0.100   0.466
10379TIP3    H231083   1.984   0.207   0.404
10380TIP3   OH231084   5.677   6.686   2.744
10380TIP3    H131085   5.645   6.698   2.834
10380TIP3    H231086   5.607   6.721   2.689
10381TIP3   OH231087   5.001   5.475   1.540
10381TIP3    H131088   5.044   5.525   1.609
10381TIP3    H231089   4.913   5.457   1.574
10382TIP3   OH231090   1.032   7.357   3.630
10382TIP3    H131091   0.984   7.277   3.648
10382TIP3    H231092   0.965   7.424   3.617
10383TIP3   OH231093   5.837   3.437   3.424
10383TIP3    H131094   5.914   3.493   3.415
10383TIP3    H231095   5.854   3.384   3.502
10384TIP3   OH231096   1.300   5.001   2.473
10384TIP3    H131097   1.228   5.056   2.443
10384TIP3    H231098   1.305   4.930   2.409
10385TIP3   OH231099   2.737   5.179   1.562
10385TIP3    H131100   2.821   5.209   1.598
10385TIP3    H231101   2.705   5.254   1.512
10386TIP3   OH231102   4.345   5.885   1.156
10386TIP3    H131103   4.415   5.937   1.117
10386TIP3    H231104   4.269   5.903   1.101
10387TIP3   OH231105   3.358   5.055   0.616
10387TIP3    H131106   3.304   5.130   0.644
10387TIP3    H231107   3.448   5.086   0.623
10388TIP3   OH231108   7.271   0.420   3.437
10388TIP3    H131109   7.216   0.367   3.495
10388TIP3    H231110   7.351   0.435   3.487
10389TIP3   OH231111   4.369   6.604   4.790
10389TIP3    H131112   4.349   6.579   4.700
10389TIP3    H231113   4.411   6.690   4.783
10390TIP3   OH231114   3.890   2.269   5.181
10390TIP3    H131115   3.950   2.319   5.237
10390TIP3    H231116   3.803   2.293   5.212
10391TIP3   OH231117   6.632   2.433   4.216
10391TIP3    H131118   6.550   2.469   4.184
10391TIP3    H231119   6.611   2.342   4.239
10392TIP3   OH231120   1.820   6.482   1.728
10392TIP3    H131121   1.877   6.488   1.651
10392TIP3    H231122   1.736   6.453   1.692
10393TIP3   OH231123   3.973   4.005   3.569
10393TIP3    H131124   3.971   4.085   3.516
10393TIP3    H231125   3.938   4.032   3.654
10394TIP3   OH231126   5.962   7.105   3.100
10394TIP3    H131127   5.998   7.138   3.018
10394TIP3    H231128   6.011   7.152   3.168
10395TIP3   OH231129   2.071   7.575   3.778
10395TIP3    H131130   2.091   7.574   3.872
10395TIP3    H231131   2.132   7.638   3.741
10396TIP3   OH231132   7.282   4.397   5.779
10396TIP3    H131133   7.200   4.361   5.813
10396TIP3    H231134   7.340   4.399   5.855
10397TIP3   OH231135   7.467   3.840   4.751
10397TIP3    H131136   7.550   3.812   4.713
10397TIP3    H231137   7.485   3.927   4.787
10398TIP3   OH231138   7.885   1.609   0.135
10398TIP3    H131139   7.856   1.642   0.220
10398TIP3    H231140   7.975   1.639   0.127
10399TIP3   OH231141   1.217   5.102   3.321
10399TIP3    H131142   1.236   5.012   3.348
10399TIP3    H231143   1.280   5.120   3.251
10400TIP3   OH231144   2.562   4.242   5.347
10400TIP3    H131145   2.536   4.152   5.327
10400TIP3    H231146   2.580   4.282   5.262
10401TIP3   OH231147   5.929   5.660   6.411
10401TIP3    H131148   5.983   5.598   6.362
10401TIP3    H231149   5.960   5.652   6.502
10402TIP3   OH231150   1.096   5.754   6.623
10402TIP3    H131151   1.146   5.681   6.587
10402TIP3    H231152   1.155   5.829   6.619
10403TIP3   OH231153   5.550   7.102   5.082
10403TIP3    H131154   5.510   7.146   5.157
10403TIP3    H231155   5.545   7.009   5.102
10404TIP3   OH231156   6.299   2.127   2.423
10404TIP3    H131157   6.298   2.046   2.373
10404TIP3    H231158   6.333   2.101   2.509
10405TIP3   OH231159   5.304   2.725   0.728
10405TIP3    H131160   5.345   2.640   0.713
10405TIP3    H231161   5.327   2.776   0.650
10406TIP3   OH231162   3.371   0.967   3.432
10406TIP3    H131163   3.411   0.896   3.483
10406TIP3    H231164   3.421   1.045   3.456
10407TIP3   OH231165   2.774   6.544   3.132
10407TIP3    H131166   2.685   6.524   3.103
10407TIP3    H231167   2.788   6.489   3.209
10408TIP3   OH231168   5.193   6.101   4.869
10408TIP3    H131169   5.169   6.158   4.795
10408TIP3    H231170   5.268   6.145   4.909
10409TIP3   OH231171   7.834   3.719   3.560
10409TIP3    H131172   7.806   3.788   3.620
10409TIP3    H231173   7.856   3.765   3.479
10410TIP3   OH231174   0.298   5.766   5.703
10410TIP3    H131175   0.349   5.797   5.628
10410TIP3    H231176   0.355   5.701   5.744
10411TIP3   OH231177   7.394   7.547   4.166
10411TIP3    H131178   7.463   7.497   4.122
10411TIP3    H231179   7.434   7.632   4.184
10412TIP3   OH231180   0.978   7.044   3.581
10412TIP3    H131181   0.992   6.999   3.497
10412TIP3    H231182   0.925   6.983   3.632
10413TIP3   OH231183   4.204   3.826   1.501
10413TIP3    H131184   4.158   3.768   1.440
10413TIP3    H231185   4.150   3.905   1.505
10414TIP3   OH231186   1.226   4.220   0.945
10414TIP3    H131187   1.158   4.246   0.883
10414TIP3    H231188   1.243   4.298   0.997
10415TIP3   OH231189   6.120   6.166   6.491
10415TIP3    H131190   6.152   6.097   6.433
10415TIP3    H231191   6.169   6.244   6.464
10416TIP3   OH231192   1.119   2.848   3.254
10416TIP3    H131193   1.142   2.762   3.219
10416TIP3    H231194   1.091   2.899   3.178
10417TIP3   OH231195   0.520   2.101   2.692
10417TIP3    H131196   0.550   2.141   2.774
10417TIP3    H231197   0.468   2.025   2.720
10418TIP3   OH231198   5.117   0.652   6.240
10418TIP3    H131199   5.122   0.565   6.201
10418TIP3    H231200   5.026   0.679   6.225
10419TIP3   OH231201   0.672   5.499   1.468
10419TIP3    H131202   0.613   5.508   1.393
10419TIP3    H231203   0.751   5.546   1.442
10420TIP3   OH231204   0.529   2.230   2.445
10420TIP3    H131205   0.498   2.200   2.530
10420TIP3    H231206   0.580   2.156   2.411
10421TIP3   OH231207   4.931   6.537   0.335
10421TIP3    H131208   4.888   6.556   0.251
10421TIP3    H231209   4.887   6.593   0.398
10422TIP3   OH231210   5.672   1.694   6.484
10422TIP3    H131211   5.688   1.781   6.521
10422TIP3    H231212   5.643   1.641   6.557
10423TIP3   OH231213   4.865   7.415   5.159
10423TIP3    H131214   4.887   7.507   5.145
10423TIP3    H231215   4.848   7.407   5.253
10424TIP3   OH231216   1.349   1.186   0.091
10424TIP3    H131217   1.270   1.136   0.071
10424TIP3    H231218   1.379   1.219   0.006
10425TIP3   OH231219   5.579   4.493   4.801
10425TIP3    H131220   5.596   4.555   4.730
10425TIP3    H231221   5.506   4.531   4.850
10426TIP3   OH231222   5.177   2.571   6.734
10426TIP3    H131223   5.260   2.615   6.749
10426TIP3    H231224   5.175   2.501   6.799
10427TIP3   OH231225   6.844   3.664   5.393
10427TIP3    H131226   6.841   3.719   5.314
10427TIP3    H231227   6.920   3.608   5.381
10428TIP3   OH231228   1.519   6.906   6.277
10428TIP3    H131229   1.537   7.000   6.274
10428TIP3    H231230   1.568   6.870   6.203
10429TIP3   OH231231   2.534   6.456   3.012
10429TIP3    H131232   2.556   6.472   2.921
10429TIP3    H231233   2.461   6.515   3.030
10430TIP3   OH231234   4.881   1.605   0.385
10430TIP3    H131235   4.843   1.687   0.415
10430TIP3    H231236   4.860   1.601   0.292
10431TIP3   OH231237   0.443   6.465   0.881
10431TIP3    H131238   0.394   6.470   0.799
10431TIP3    H231239   0.385   6.505   0.946
10432TIP3   OH231240   5.542   6.515   3.044
10432TIP3    H131241   5.505   6.442   3.093
10432TIP3    H231242   5.632   6.489   3.026
10433TIP3   OH231243   4.833   0.987   4.590
10433TIP3    H131244   4.786   1.007   4.509
10433TIP3    H231245   4.764   0.976   4.656
10434TIP3   OH231246   7.502   0.367   2.817
10434TIP3    H131247   7.498   0.314   2.896
10434TIP3    H231248   7.457   0.448   2.839
10435TIP3   OH231249   4.237   7.714   4.330
10435TIP3    H131250   4.194   7.737   4.247
10435TIP3    H231251   4.166   7.683   4.386
10436TIP3   OH231252   6.228   5.916   4.716
10436TIP3    H131253   6.291   5.876   4.775
10436TIP3    H231254   6.210   6.002   4.755
10437TIP3   OH231255   4.487   6.204   3.915
10437TIP3    H131256   4.472   6.128   3.858
10437TIP3    H231257   4.575   6.190   3.951
10438TIP3   OH231258   3.483   6.555   2.838
10438TIP3    H131259   3.423   6.614   2.884
10438TIP3    H231260   3.563   6.606   2.825
10439TIP3   OH231261   2.415   4.190   4.911
10439TIP3    H131262   2.396   4.268   4.963
10439TIP3    H231263   2.336   4.137   4.918
10440TIP3   OH231264   7.275   4.526   3.484
10440TIP3    H131265   7.250   4.583   3.556
10440TIP3    H231266   7.369   4.540   3.473
10441TIP3   OH231267   6.509   3.629   6.681
10441TIP3    H131268   6.433   3.571   6.687
10441TIP3    H231269   6.549   3.626   6.768
10442TIP3   OH231270   0.809   4.414   2.631
10442TIP3    H131271   0.722   4.447   2.650
10442TIP3    H231272   0.820   4.426   2.536
10443TIP3   OH231273   0.857   6.825   3.673
10443TIP3    H131274   0.871   6.748   3.619
10443TIP3    H231275   0.929   6.823   3.737
10444TIP3   OH231276   3.230   3.050   4.049
10444TIP3    H131277   3.280   3.005   3.981
10444TIP3    H231278   3.226   3.141   4.020
10445TIP3   OH231279   7.007   1.908   4.478
10445TIP3    H131280   7.002   1.825   4.525
10445TIP3    H231281   7.011   1.883   4.386
10446TIP3   OH231282   6.886   2.252   4.835
10446TIP3    H131283   6.791   2.268   4.829
10446TIP3    H231284   6.894   2.183   4.901
10447TIP3   OH231285   5.232   3.931   4.969
10447TIP3    H131286   5.290   3.994   4.926
10447TIP3    H231287   5.149   3.978   4.980
10448TIP3   OH231288   7.756   0.966   2.227
10448TIP3    H131289   7.818   1.021   2.179
10448TIP3    H231290   7.781   0.877   2.205
10449TIP3   OH231291   0.141   4.376   2.748
10449TIP3    H131292   0.170   4.289   2.722
10449TIP3    H231293   0.079   4.361   2.819
10450TIP3   OH231294   1.341   3.259   4.270
10450TIP3    H131295   1.283   3.332   4.245
10450TIP3    H231296   1.343   3.203   4.192
10451TIP3   OH231297   7.788   4.512   5.678
10451TIP3    H131298   7.747   4.597   5.689
10451TIP3    H231299   7.720   4.457   5.639
10452TIP3   OH231300   5.418   1.644   4.133
10452TIP3    H131301   5.486   1.663   4.198
10452TIP3    H231302   5.421   1.549   4.122
10453TIP3   OH231303   3.965   1.252   5.560
10453TIP3    H131304   3.933   1.164   5.580
10453TIP3    H231305   3.895   1.291   5.508
10454TIP3   OH231306   2.351   1.790   4.277
10454TIP3    H131307   2.423   1.812   4.217
10454TIP3    H231308   2.285   1.750   4.221
10455TIP3   OH231309   0.096   2.196   5.082
10455TIP3    H131310   0.189   2.219   5.079
10455TIP3    H231311   0.093   2.114   5.131
10456TIP3   OH231312   1.888   7.052   2.587
10456TIP3    H131313   1.804   7.090   2.562
10456TIP3    H231314   1.891   6.967   2.542
10457TIP3   OH231315   6.837   3.542   0.577
10457TIP3    H131316   6.775   3.491   0.628
10457TIP3    H231317   6.811   3.633   0.591
10458TIP3   OH231318   2.446   7.111   4.205
10458TIP3    H131319   2.369   7.081   4.253
10458TIP3    H231320   2.418   7.191   4.161
10459TIP3   OH231321   0.978   2.298   3.125
10459TIP3    H131322   0.947   2.385   3.099
10459TIP3    H231323   0.913   2.238   3.090
10460TIP3   OH231324   3.589   6.550   1.566
10460TIP3    H131325   3.525   6.607   1.522
10460TIP3    H231326   3.638   6.509   1.494
10461TIP3   OH231327   6.849   5.586   1.963
10461TIP3    H131328   6.931   5.538   1.971
10461TIP3    H231329   6.852   5.625   1.875
10462TIP3   OH231330   6.212   7.040   6.674
10462TIP3    H131331   6.275   7.037   6.602
10462TIP3    H231332   6.127   7.049   6.632
10463TIP3   OH231333   4.121   3.244   2.544
10463TIP3    H131334   4.049   3.269   2.486
10463TIP3    H231335   4.099   3.284   2.628
10464TIP3   OH231336   1.797   6.401   2.927
10464TIP3    H131337   1.734   6.470   2.946
10464TIP3    H231338   1.756   6.321   2.961
10465TIP3   OH231339   7.770   3.867   6.498
10465TIP3    H131340   7.699   3.929   6.485
10465TIP3    H231341   7.850   3.918   6.481
10466TIP3   OH231342   6.119   3.293   2.509
10466TIP3    H131343   6.054   3.360   2.486
10466TIP3    H231344   6.128   3.300   2.604
10467TIP3   OH231345   3.370   1.181   3.807
10467TIP3    H131346   3.337   1.152   3.722
10467TIP3    H231347   3.422   1.260   3.787
10468TIP3   OH231348   3.055   2.644   4.638
10468TIP3    H131349   3.092   2.729   4.613
10468TIP3    H231350   3.090   2.582   4.574
10469TIP3   OH231351   5.878   6.782   2.466
10469TIP3    H131352   5.962   6.739   2.450
10469TIP3    H231353   5.893   6.836   2.543
10470TIP3   OH231354   1.406   2.523   0.026
10470TIP3    H131355   1.419   2.590   0.093
10470TIP3    H231356   1.487   2.525  -0.025
10471TIP3   OH231357   4.255   6.964   4.675
10471TIP3    H131358   4.176   6.940   4.724
10471TIP3    H231359   4.261   6.898   4.606
10472TIP3   OH231360   0.776   2.109   3.473
10472TIP3    H131361   0.740   2.040   3.528
10472TIP3    H231362   0.838   2.065   3.416
10473TIP3   OH231363   0.408   7.684   6.283
10473TIP3    H131364   0.405   7.589   6.294
10473TIP3    H231365   0.318   7.709   6.264
10474TIP3   OH231366   4.839   5.569   5.455
10474TIP3    H131367   4.881   5.483   5.457
10474TIP3    H231368   4.891   5.619   5.392
10475TIP3   OH231369   3.843   1.616   2.083
10475TIP3    H131370   3.814   1.529   2.113
10475TIP3    H231371   3.815   1.621   1.992
10476TIP3   OH231372   0.885   2.506   1.632
10476TIP3    H131373   0.874   2.481   1.541
10476TIP3    H231374   0.977   2.487   1.651
10477TIP3   OH231375   1.883   6.829   0.699
10477TIP3    H131376   1.850   6.889   0.633
10477TIP3    H231377   1.845   6.861   0.781
10478TIP3   OH231378   1.794   3.431   0.847
10478TIP3    H131379   1.765   3.355   0.898
10478TIP3    H231380   1.739   3.430   0.768
10479TIP3   OH231381   1.567   7.184   6.280
10479TIP3    H131382   1.585   7.261   6.227
10479TIP3    H231383   1.613   7.200   6.362
10480TIP3   OH231384   7.675   6.479   2.374
10480TIP3    H131385   7.654   6.548   2.437
10480TIP3    H231386   7.770   6.469   2.379
10481TIP3   OH231387   6.788   7.748   3.656
10481TIP3    H131388   6.755   7.675   3.708
10481TIP3    H231389   6.718   7.767   3.594
10482TIP3   OH231390   1.765   2.448   3.444
10482TIP3    H131391   1.737   2.432   3.354
10482TIP3    H231392   1.752   2.365   3.489
10483TIP3   OH231393   3.689   5.840   0.356
10483TIP3    H131394   3.670   5.887   0.438
10483TIP3    H231395   3.604   5.804   0.330
10484TIP3   OH231396   0.828   6.702   3.130
10484TIP3    H131397   0.863   6.791   3.127
10484TIP3    H231398   0.869   6.657   3.056
10485TIP3   OH231399   7.861   6.461   0.441
10485TIP3    H131400   7.809   6.538   0.462
10485TIP3    H231401   7.943   6.474   0.488
10486TIP3   OH231402   4.142   1.477   2.624
10486TIP3    H131403   4.060   1.494   2.576
10486TIP3    H231404   4.129   1.391   2.664
10487TIP3   OH231405   2.813   0.560   4.108
10487TIP3    H131406   2.784   0.485   4.161
10487TIP3    H231407   2.770   0.636   4.149
10488TIP3   OH231408   3.971   2.071   6.533
10488TIP3    H131409   4.057   2.094   6.497
10488TIP3    H231410   3.990   2.031   6.617
10489TIP3   OH231411   0.678   6.323   2.400
10489TIP3    H131412   0.770   6.345   2.417
10489TIP3    H231413   0.682   6.251   2.337
10490TIP3   OH231414   1.373   4.565   4.883
10490TIP3    H131415   1.410   4.622   4.950
10490TIP3    H231416   1.331   4.494   4.932
10491TIP3   OH231417   7.852   7.317   2.411
10491TIP3    H131418   7.776   7.260   2.400
10491TIP3    H231419   7.921   7.276   2.359
10492TIP3   OH231420   2.859   6.316   3.381
10492TIP3    H131421   2.878   6.346   3.469
10492TIP3    H231422   2.763   6.317   3.376
10493TIP3   OH231423   6.344   4.449   5.513
10493TIP3    H131424   6.412   4.383   5.498
10493TIP3    H231425   6.299   4.456   5.429
10494TIP3   OH231426   5.695   5.096   1.196
10494TIP3    H131427   5.705   5.143   1.278
10494TIP3    H231428   5.681   5.165   1.130
10495TIP3   OH231429   7.498   0.185   1.890
10495TIP3    H131430   7.533   0.217   1.973
10495TIP3    H231431   7.550   0.107   1.870
10496TIP3   OH231432   2.104   3.589   6.150
10496TIP3    H131433   2.104   3.508   6.099
10496TIP3    H231434   2.112   3.561   6.241
10497TIP3   OH231435   2.687   3.861   0.328
10497TIP3    H131436   2.677   3.870   0.233
10497TIP3    H231437   2.601   3.883   0.363
10498TIP3   OH231438   7.157   2.282   4.570
10498TIP3    H131439   7.180   2.251   4.658
10498TIP3    H231440   7.171   2.206   4.513
10499TIP3   OH231441   3.847   6.038   1.394
10499TIP3    H131442   3.782   6.063   1.329
10499TIP3    H231443   3.816   6.079   1.475
10500TIP3   OH231444   7.189   7.510   1.221
10500TIP3    H131445   7.247   7.448   1.265
10500TIP3    H231446   7.246   7.582   1.195
10501TIP3   OH231447   7.401   2.403   1.314
10501TIP3    H131448   7.461   2.328   1.323
10501TIP3    H231449   7.459   2.479   1.314
10502TIP3   OH231450   0.956   7.010   0.315
10502TIP3    H131451   0.882   7.054   0.356
10502TIP3    H231452   0.949   7.031   0.222
10503TIP3   OH231453   7.487   4.898   1.830
10503TIP3    H131454   7.495   4.963   1.760
10503TIP3    H231455   7.398   4.909   1.864
10504TIP3   OH231456   6.520   6.703   5.844
10504TIP3    H131457   6.511   6.797   5.855
10504TIP3    H231458   6.459   6.665   5.908
10505TIP3   OH231459   1.985   2.719   6.614
10505TIP3    H131460   2.039   2.794   6.590
10505TIP3    H231461   1.929   2.704   6.538
10506TIP3   OH231462   4.075   2.237   2.104
10506TIP3    H131463   4.104   2.210   2.192
10506TIP3    H231464   3.983   2.211   2.101
10507TIP3   OH231465   5.367   0.648   4.808
10507TIP3    H131466   5.381   0.556   4.788
10507TIP3    H231467   5.440   0.693   4.764
10508TIP3   OH231468   1.919   0.629   5.468
10508TIP3    H131469   1.850   0.645   5.532
10508TIP3    H231470   1.999   0.622   5.521
10509TIP3   OH231471   1.738   6.220   0.723
10509TIP3    H131472   1.786   6.237   0.642
10509TIP3    H231473   1.646   6.233   0.701
10510TIP3   OH231474   4.287   0.768   1.874
10510TIP3    H131475   4.312   0.842   1.929
10510TIP3    H231476   4.235   0.807   1.803
10511TIP3   OH231477   4.724   0.188   1.434
10511TIP3    H131478   4.687   0.107   1.401
10511TIP3    H231479   4.650   0.248   1.442
10512TIP3   OH231480   6.769   4.151   5.868
10512TIP3    H131481   6.802   4.223   5.922
10512TIP3    H231482   6.802   4.072   5.911
10513TIP3   OH231483   1.152   2.185   2.682
10513TIP3    H131484   1.202   2.183   2.763
10513TIP3    H231485   1.201   2.128   2.622
10514TIP3   OH231486   4.481   0.224   4.636
10514TIP3    H131487   4.460   0.203   4.545
10514TIP3    H231488   4.436   0.158   4.687
10515TIP3   OH231489   0.307   2.093   0.856
10515TIP3    H131490   0.322   1.999   0.862
10515TIP3    H231491   0.219   2.101   0.818
10516TIP3   OH231492   2.992   2.443   6.204
10516TIP3    H131493   2.987   2.519   6.262
10516TIP3    H231494   2.980   2.368   6.261
10517TIP3   OH231495   1.322   2.650   1.050
10517TIP3    H131496   1.271   2.571   1.031
10517TIP3    H231497   1.411   2.619   1.064
10518TIP3   OH231498   1.877   4.481   0.654
10518TIP3    H131499   1.963   4.446   0.634
10518TIP3    H231500   1.848   4.432   0.731
10519TIP3   OH231501   0.336   6.492   4.733
10519TIP3    H131502   0.246   6.508   4.703
10519TIP3    H231503   0.351   6.559   4.800
10520TIP3   OH231504   0.940   5.221   1.414
10520TIP3    H131505   0.856   5.246   1.374
10520TIP3    H231506   0.923   5.135   1.453
10521TIP3   OH231507   0.454   6.578   5.549
10521TIP3    H131508   0.434   6.577   5.456
10521TIP3    H231509   0.547   6.556   5.554
10522TIP3   OH231510   7.494   0.833   4.549
10522TIP3    H131511   7.426   0.775   4.515
10522TIP3    H231512   7.575   0.783   4.539
10523TIP3   OH231513   1.820   5.261   6.044
10523TIP3    H131514   1.760   5.319   5.998
10523TIP3    H231515   1.778   5.247   6.129
10524TIP3   OH231516   3.590   6.863   3.687
10524TIP3    H131517   3.541   6.945   3.681
10524TIP3    H231518   3.618   6.858   3.778
10525TIP3   OH231519   7.800   7.833   0.887
10525TIP3    H131520   7.757   7.784   0.957
10525TIP3    H231521   7.853   7.768   0.842
10526TIP3   OH231522   5.420   3.774   4.585
10526TIP3    H131523   5.362   3.850   4.592
10526TIP3    H231524   5.502   3.803   4.625
10527TIP3   OH231525   6.211   1.689   2.124
10527TIP3    H131526   6.135   1.703   2.068
10527TIP3    H231527   6.184   1.620   2.185
10528TIP3   OH231528   2.938   2.175   3.338
10528TIP3    H131529   2.972   2.201   3.423
10528TIP3    H231530   3.015   2.170   3.281
10529TIP3   OH231531   3.125   2.658   6.631
10529TIP3    H131532   3.182   2.625   6.562
10529TIP3    H231533   3.184   2.708   6.688
10530TIP3   OH231534   0.744   2.885   6.098
10530TIP3    H131535   0.662   2.921   6.063
10530TIP3    H231536   0.803   2.960   6.104
10531TIP3   OH231537   4.968   2.371   5.376
10531TIP3    H131538   5.011   2.454   5.359
10531TIP3    H231539   4.896   2.368   5.313
10532TIP3   OH231540   7.782   6.333   5.543
10532TIP3    H131541   7.824   6.281   5.612
10532TIP3    H231542   7.699   6.361   5.582
10533TIP3   OH231543   8.030   7.218   2.207
10533TIP3    H131544   8.007   7.126   2.201
10533TIP3    H231545   8.125   7.220   2.199
10534TIP3   OH231546   5.932   0.595   4.111
10534TIP3    H131547   5.860   0.613   4.051
10534TIP3    H231548   5.888   0.563   4.191
10535TIP3   OH231549   8.265   6.909   5.785
10535TIP3    H131550   8.280   6.974   5.716
10535TIP3    H231551   8.178   6.873   5.764
10536TIP3   OH231552   7.105   3.991   5.996
10536TIP3    H131553   7.094   4.020   6.087
10536TIP3    H231554   7.072   3.901   5.995
10537TIP3   OH231555   5.200   6.123   1.478
10537TIP3    H131556   5.134   6.069   1.435
10537TIP3    H231557   5.173   6.125   1.570
10538TIP3   OH231558   3.736   0.959   6.534
10538TIP3    H131559   3.703   1.021   6.468
10538TIP3    H231560   3.769   0.885   6.482
10539TIP3   OH231561   7.192   5.457   4.804
10539TIP3    H131562   7.200   5.379   4.749
10539TIP3    H231563   7.282   5.488   4.814
10540TIP3   OH231564   4.156   1.876   1.666
10540TIP3    H131565   4.197   1.940   1.608
10540TIP3    H231566   4.188   1.899   1.753
10541TIP3   OH231567   1.248   0.674   0.604
10541TIP3    H131568   1.291   0.638   0.526
10541TIP3    H231569   1.157   0.649   0.595
10542TIP3   OH231570   4.181   1.821   4.664
10542TIP3    H131571   4.253   1.876   4.634
10542TIP3    H231572   4.222   1.737   4.684
10543TIP3   OH231573   4.667   0.209   0.423
10543TIP3    H131574   4.645   0.166   0.505
10543TIP3    H231575   4.763   0.202   0.417
10544TIP3   OH231576   1.422   4.688   4.044
10544TIP3    H131577   1.355   4.667   3.979
10544TIP3    H231578   1.437   4.607   4.092
10545TIP3   OH231579   5.277   3.261   5.080
10545TIP3    H131580   5.301   3.251   4.988
10545TIP3    H231581   5.222   3.185   5.100
10546TIP3   OH231582   0.983   4.431   4.911
10546TIP3    H131583   1.003   4.356   4.854
10546TIP3    H231584   0.907   4.472   4.870
10547TIP3   OH231585   5.876   0.548   1.748
10547TIP3    H131586   5.865   0.462   1.788
10547TIP3    H231587   5.787   0.574   1.724
10548TIP3   OH231588   8.241   3.185   5.805
10548TIP3    H131589   8.147   3.175   5.794
10548TIP3    H231590   8.252   3.235   5.885
10549TIP3   OH231591   7.998   6.771   5.767
10549TIP3    H131592   7.961   6.837   5.826
10549TIP3    H231593   7.979   6.687   5.810
10550TIP3   OH231594   7.879   0.408   6.760
10550TIP3    H131595   7.850   0.404   6.669
10550TIP3    H231596   7.949   0.473   6.760
10551TIP3   OH231597   3.035   4.832   6.196
10551TIP3    H131598   2.977   4.844   6.271
10551TIP3    H231599   3.097   4.905   6.202
10552TIP3   OH231600   6.895   1.734   5.879
10552TIP3    H131601   6.906   1.639   5.887
10552TIP3    H231602   6.924   1.754   5.790
10553TIP3   OH231603   5.879   3.656   0.365
10553TIP3    H131604   5.878   3.561   0.352
10553TIP3    H231605   5.814   3.671   0.435
10554TIP3   OH231606   3.757   2.181   2.818
10554TIP3    H131607   3.827   2.132   2.861
10554TIP3    H231608   3.745   2.259   2.873
10555TIP3   OH231609   4.938   7.449   2.773
10555TIP3    H131610   4.871   7.382   2.769
10555TIP3    H231611   4.971   7.446   2.863
10556TIP3   OH231612   6.610   4.441   6.019
10556TIP3    H131613   6.636   4.369   6.076
10556TIP3    H231614   6.516   4.428   6.006
10557TIP3   OH231615   4.394   7.485   2.472
10557TIP3    H131616   4.412   7.408   2.526
10557TIP3    H231617   4.479   7.512   2.438
10558TIP3   OH231618   5.589   0.268   0.779
10558TIP3    H131619   5.622   0.337   0.836
10558TIP3    H231620   5.658   0.255   0.714
10559TIP3   OH231621  -0.008   6.797   0.576
10559TIP3    H131622  -0.024   6.876   0.628
10559TIP3    H231623   0.087   6.786   0.577
10560TIP3   OH231624   1.160   3.450   3.506
10560TIP3    H131625   1.097   3.509   3.465
10560TIP3    H231626   1.140   3.364   3.469
10561TIP3   OH231627   4.383   0.524   4.603
10561TIP3    H131628   4.306   0.469   4.590
10561TIP3    H231629   4.425   0.527   4.517
10562TIP3   OH231630   1.707   6.321   3.891
10562TIP3    H131631   1.760   6.391   3.853
10562TIP3    H231632   1.693   6.259   3.819
10563TIP3   OH231633   4.040   1.034   3.759
10563TIP3    H131634   4.019   1.118   3.801
10563TIP3    H231635   4.118   1.003   3.805
10564TIP3   OH231636   1.337   5.607   0.428
10564TIP3    H131637   1.285   5.682   0.401
10564TIP3    H231638   1.318   5.539   0.363
10565TIP3   OH231639   1.624   1.519   5.199
10565TIP3    H131640   1.567   1.462   5.251
10565TIP3    H231641   1.682   1.560   5.263
10566TIP3   OH231642   6.634   0.604   2.467
10566TIP3    H131643   6.699   0.599   2.538
10566TIP3    H231644   6.684   0.637   2.392
10567TIP3   OH231645   6.669   6.190   5.519
10567TIP3    H131646   6.599   6.255   5.510
10567TIP3    H231647   6.744   6.240   5.551
10568TIP3   OH231648   1.882   5.442   5.726
10568TIP3    H131649   1.957   5.416   5.779
10568TIP3    H231650   1.867   5.533   5.750
10569TIP3   OH231651   2.709   6.035   3.277
10569TIP3    H131652   2.704   6.129   3.297
10569TIP3    H231653   2.655   6.024   3.199
10570TIP3   OH231654   5.767   3.784   1.378
10570TIP3    H131655   5.788   3.694   1.353
10570TIP3    H231656   5.736   3.825   1.297
10571TIP3   OH231657   1.541   4.024   1.090
10571TIP3    H131658   1.581   4.001   1.007
10571TIP3    H231659   1.581   3.965   1.154
10572TIP3   OH231660   7.970   5.760   3.461
10572TIP3    H131661   7.878   5.778   3.484
10572TIP3    H231662   8.018   5.835   3.495
10573TIP3   OH231663   0.025   7.405   0.774
10573TIP3    H131664   0.063   7.327   0.815
10573TIP3    H231665  -0.005   7.375   0.688
10574TIP3   OH231666   2.327   5.477   2.533
10574TIP3    H131667   2.413   5.482   2.575
10574TIP3    H231668   2.300   5.386   2.546
10575TIP3   OH231669   7.814   3.146   4.482
10575TIP3    H131670   7.848   3.233   4.501
10575TIP3    H231671   7.887   3.087   4.504
10576TIP3   OH231672   1.404   7.222   5.879
10576TIP3    H131673   1.329   7.252   5.827
10576TIP3    H231674   1.480   7.264   5.839
10577TIP3   OH231675   1.395   7.438   1.244
10577TIP3    H131676   1.399   7.358   1.298
10577TIP3    H231677   1.452   7.500   1.289
10578TIP3   OH231678   8.037   7.581   4.260
10578TIP3    H131679   8.089   7.658   4.239
10578TIP3    H231680   7.973   7.574   4.189
10579TIP3   OH231681   4.334   3.645   6.422
10579TIP3    H131682   4.427   3.643   6.447
10579TIP3    H231683   4.287   3.662   6.503
10580TIP3   OH231684   0.111   1.040   2.093
10580TIP3    H131685   0.204   1.047   2.070
10580TIP3    H231686   0.108   0.971   2.159
10581TIP3   OH231687   7.349   6.989   0.676
10581TIP3    H131688   7.285   6.977   0.606
10581TIP3    H231689   7.407   6.914   0.669
10582TIP3   OH231690   7.069   6.842   5.112
10582TIP3    H131691   7.164   6.843   5.111
10582TIP3    H231692   7.045   6.753   5.137
10583TIP3   OH231693   4.122   4.297   0.387
10583TIP3    H131694   4.153   4.294   0.296
10583TIP3    H231695   4.033   4.261   0.383
10584TIP3   OH231696   3.246   7.280   6.198
10584TIP3    H131697   3.333   7.274   6.158
10584TIP3    H231698   3.186   7.268   6.125
10585TIP3   OH231699   1.731   5.133   1.292
10585TIP3    H131700   1.698   5.210   1.246
10585TIP3    H231701   1.661   5.107   1.351
10586TIP3   OH231702   7.721   6.285   0.597
10586TIP3    H131703   7.678   6.281   0.512
10586TIP3    H231704   7.814   6.299   0.576
10587TIP3   OH231705   2.989   6.396   4.911
10587TIP3    H131706   3.015   6.472   4.962
10587TIP3    H231707   2.906   6.369   4.950
10588TIP3   OH231708   3.107   0.442   1.590
10588TIP3    H131709   3.126   0.513   1.529
10588TIP3    H231710   3.034   0.475   1.643
10589TIP3   OH231711   6.225   1.280   0.683
10589TIP3    H131712   6.294   1.219   0.709
10589TIP3    H231713   6.273   1.355   0.646
10590TIP3   OH231714   7.172   4.113   0.537
10590TIP3    H131715   7.263   4.097   0.515
10590TIP3    H231716   7.146   4.037   0.590
10591TIP3   OH231717   1.604   6.714   1.574
10591TIP3    H131718   1.588   6.648   1.507
10591TIP3    H231719   1.619   6.664   1.654
10592TIP3   OH231720   8.210   4.417   1.228
10592TIP3    H131721   8.168   4.346   1.179
10592TIP3    H231722   8.145   4.487   1.230
10593TIP3   OH231723   8.221   3.517   2.088
10593TIP3    H131724   8.258   3.442   2.135
10593TIP3    H231725   8.148   3.481   2.038
10594TIP3   OH231726   5.115   5.425   1.077
10594TIP3    H131727   5.037   5.437   1.131
10594TIP3    H231728   5.134   5.512   1.042
10595TIP3   OH231729   6.939   3.776   1.107
10595TIP3    H131730   7.005   3.708   1.098
10595TIP3    H231731   6.953   3.812   1.194
10596TIP3   OH231732   4.336   5.145   4.779
10596TIP3    H131733   4.343   5.185   4.866
10596TIP3    H231734   4.401   5.190   4.726
10597TIP3   OH231735   7.307   7.090   1.135
10597TIP3    H131736   7.266   7.005   1.150
10597TIP3    H231737   7.373   7.098   1.204
10598TIP3   OH231738   1.848   7.694   1.106
10598TIP3    H131739   1.828   7.783   1.078
10598TIP3    H231740   1.762   7.653   1.116
10599TIP3   OH231741   7.039   4.288   0.160
10599TIP3    H131742   6.982   4.352   0.202
10599TIP3    H231743   7.121   4.335   0.145
10600TIP3   OH231744   3.172   0.758   3.035
10600TIP3    H131745   3.226   0.794   3.105
10600TIP3    H231746   3.115   0.830   3.010
10601TIP3   OH231747   5.912   0.090   6.725
10601TIP3    H131748   5.874   0.097   6.638
10601TIP3    H231749   5.993   0.141   6.721
10602TIP3   OH231750   2.735   5.829   2.904
10602TIP3    H131751   2.828   5.806   2.897
10602TIP3    H231752   2.689   5.746   2.907
10603TIP3   OH231753   4.657   5.795   6.026
10603TIP3    H131754   4.605   5.785   5.947
10603TIP3    H231755   4.626   5.725   6.084
10604TIP3   OH231756   6.827   0.605   6.073
10604TIP3    H131757   6.753   0.592   6.014
10604TIP3    H231758   6.840   0.519   6.114
10605TIP3   OH231759   0.072   3.207   5.243
10605TIP3    H131760   0.057   3.160   5.326
10605TIP3    H231761  -0.008   3.258   5.230
10606TIP3   OH231762   2.248   5.629   3.635
10606TIP3    H131763   2.209   5.707   3.675
10606TIP3    H231764   2.307   5.664   3.569
10607TIP3   OH231765   4.424   3.998   1.114
10607TIP3    H131766   4.441   3.985   1.021
10607TIP3    H231767   4.329   4.000   1.122
10608TIP3   OH231768   1.420   7.551   5.374
10608TIP3    H131769   1.492   7.604   5.405
10608TIP3    H231770   1.427   7.554   5.278
10609TIP3   OH231771   6.550   2.324   6.254
10609TIP3    H131772   6.588   2.260   6.193
10609TIP3    H231773   6.585   2.300   6.339
10610TIP3   OH231774   7.976   6.135   6.288
10610TIP3    H131775   7.892   6.134   6.243
10610TIP3    H231776   7.963   6.084   6.367
10611TIP3   OH231777   1.571   5.497   0.497
10611TIP3    H131778   1.484   5.536   0.483
10611TIP3    H231779   1.630   5.553   0.447
10612TIP3   OH231780   2.655   5.931   4.743
10612TIP3    H131781   2.628   5.853   4.695
10612TIP3    H231782   2.608   5.926   4.826
10613TIP3   OH231783   6.558   7.186   0.364
10613TIP3    H131784   6.491   7.233   0.316
10613TIP3    H231785   6.639   7.236   0.349
10614TIP3   OH231786   4.468   3.129   5.535
10614TIP3    H131787   4.522   3.180   5.475
10614TIP3    H231788   4.403   3.191   5.568
10615TIP3   OH231789   2.334   1.490   5.544
10615TIP3    H131790   2.251   1.537   5.531
10615TIP3    H231791   2.337   1.428   5.471
10616TIP3   OH231792   7.193   0.133   1.267
10616TIP3    H131793   7.125   0.193   1.298
10616TIP3    H231794   7.150   0.082   1.198
10617TIP3   OH231795   0.508   5.241   2.708
10617TIP3    H131796   0.499   5.230   2.802
10617TIP3    H231797   0.534   5.332   2.696
10618TIP3   OH231798   8.014   2.062   0.923
10618TIP3    H131799   7.958   2.126   0.881
10618TIP3    H231800   7.966   2.037   1.003
10619TIP3   OH231801   3.058   4.584   1.770
10619TIP3    H131802   3.129   4.617   1.715
10619TIP3    H231803   3.101   4.560   1.852
10620TIP3   OH231804   1.896   0.567   1.665
10620TIP3    H131805   1.960   0.498   1.683
10620TIP3    H231806   1.945   0.633   1.616
10621TIP3   OH231807   5.154   5.053   0.067
10621TIP3    H131808   5.063   5.038   0.043
10621TIP3    H231809   5.163   5.015   0.154
10622TIP3   OH231810   2.818   4.499   1.885
10622TIP3    H131811   2.901   4.538   1.856
10622TIP3    H231812   2.751   4.560   1.855
10623TIP3   OH231813   0.937   3.246   5.003
10623TIP3    H131814   0.939   3.268   4.910
10623TIP3    H231815   0.867   3.180   5.011
10624TIP3   OH231816   7.134   7.063   2.306
10624TIP3    H131817   7.119   6.970   2.325
10624TIP3    H231818   7.111   7.108   2.388
10625TIP3   OH231819   0.480   0.316   1.317
10625TIP3    H131820   0.528   0.385   1.270
10625TIP3    H231821   0.403   0.361   1.352
10626TIP3   OH231822   2.161   5.036   3.297
10626TIP3    H131823   2.118   5.074   3.221
10626TIP3    H231824   2.151   4.941   3.286
10627TIP3   OH231825   3.783   3.691   1.578
10627TIP3    H131826   3.851   3.636   1.617
10627TIP3    H231827   3.722   3.707   1.650
10628TIP3   OH231828   6.828   4.510   3.624
10628TIP3    H131829   6.922   4.520   3.634
10628TIP3    H231830   6.791   4.560   3.697
10629TIP3   OH231831   6.438   5.320   4.995
10629TIP3    H131832   6.467   5.405   5.027
10629TIP3    H231833   6.512   5.261   5.013
10630TIP3   OH231834   2.819   0.629   6.604
10630TIP3    H131835   2.734   0.584   6.600
10630TIP3    H231836   2.871   0.590   6.534
10631TIP3   OH231837   0.879   7.357   1.705
10631TIP3    H131838   0.828   7.295   1.757
10631TIP3    H231839   0.902   7.309   1.626
10632TIP3   OH231840   2.376   2.885   4.568
10632TIP3    H131841   2.433   2.892   4.645
10632TIP3    H231842   2.288   2.898   4.603
10633TIP3   OH231843   3.948   7.854   2.585
10633TIP3    H131844   3.892   7.787   2.626
10633TIP3    H231845   3.958   7.825   2.495
10634TIP3   OH231846   5.601   0.635   5.670
10634TIP3    H131847   5.664   0.612   5.602
10634TIP3    H231848   5.592   0.730   5.663
10635TIP3   OH231849   7.604   4.231   5.117
10635TIP3    H131850   7.684   4.277   5.141
10635TIP3    H231851   7.535   4.297   5.128
10636TIP3   OH231852   7.370   5.644   5.844
10636TIP3    H131853   7.315   5.566   5.848
10636TIP3    H231854   7.369   5.670   5.752
10637TIP3   OH231855   0.531   0.915   2.185
10637TIP3    H131856   0.626   0.924   2.190
10637TIP3    H231857   0.512   0.911   2.091
10638TIP3   OH231858   7.979   4.112   4.100
10638TIP3    H131859   7.975   4.022   4.066
10638TIP3    H231860   8.067   4.142   4.078
10639TIP3   OH231861   8.132   6.008   2.271
10639TIP3    H131862   8.086   6.024   2.353
10639TIP3    H231863   8.154   6.095   2.238
10640TIP3   OH231864   2.725   6.029   0.168
10640TIP3    H131865   2.795   6.021   0.233
10640TIP3    H231866   2.647   6.052   0.219
10641TIP3   OH231867   8.243   2.495   1.340
10641TIP3    H131868   8.281   2.418   1.298
10641TIP3    H231869   8.287   2.569   1.299
10642TIP3   OH231870   3.963   7.608   0.992
10642TIP3    H131871   4.006   7.524   0.974
10642TIP3    H231872   3.892   7.586   1.053
10643TIP3   OH231873   2.587   0.975   6.612
10643TIP3    H131874   2.547   1.044   6.665
10643TIP3    H231875   2.634   1.022   6.543
10644TIP3   OH231876   3.228   0.561   2.430
10644TIP3    H131877   3.223   0.480   2.378
10644TIP3    H231878   3.158   0.552   2.495
10645TIP3   OH231879   0.178   7.393   1.159
10645TIP3    H131880   0.257   7.443   1.179
10645TIP3    H231881   0.111   7.429   1.219
10646TIP3   OH231882   6.707   0.226   0.030
10646TIP3    H131883   6.787   0.181   0.058
10646TIP3    H231884   6.651   0.226   0.107
10647TIP3   OH231885   2.833   3.591   6.099
10647TIP3    H131886   2.898   3.539   6.146
10647TIP3    H231887   2.827   3.549   6.013
10648TIP3   OH231888   5.666   2.501   1.067
10648TIP3    H131889   5.738   2.446   1.098
10648TIP3    H231890   5.678   2.585   1.113
10649TIP3   OH231891   7.041   0.612   5.025
10649TIP3    H131892   7.059   0.602   5.119
10649TIP3    H231893   7.109   0.672   4.994
10650TIP3   OH231894   1.709   1.819   5.695
10650TIP3    H131895   1.734   1.898   5.648
10650TIP3    H231896   1.738   1.834   5.785
10651TIP3   OH231897   1.022   4.283   5.615
10651TIP3    H131898   0.960   4.355   5.631
10651TIP3    H231899   1.071   4.311   5.537
10652TIP3   OH231900   5.376   6.546   4.898
10652TIP3    H131901   5.303   6.565   4.957
10652TIP3    H231902   5.344   6.570   4.811
10653TIP3   OH231903   5.315   3.353   5.465
10653TIP3    H131904   5.374   3.279   5.476
10653TIP3    H231905   5.236   3.315   5.427
10654TIP3   OH231906   7.574   2.919   1.944
10654TIP3    H131907   7.663   2.954   1.933
10654TIP3    H231908   7.585   2.845   2.004
10655TIP3   OH231909   5.479   0.620   0.811
10655TIP3    H131910   5.473   0.716   0.804
10655TIP3    H231911   5.398   0.595   0.856
10656TIP3   OH231912   5.823   5.873   3.334
10656TIP3    H131913   5.868   5.915   3.408
10656TIP3    H231914   5.870   5.902   3.257
10657TIP3   OH231915   3.703   7.692   0.206
10657TIP3    H131916   3.765   7.680   0.134
10657TIP3    H231917   3.748   7.655   0.282
10658TIP3   OH231918   2.595   5.104   6.070
10658TIP3    H131919   2.647   5.172   6.028
10658TIP3    H231920   2.599   5.125   6.163
10659TIP3   OH231921   1.934   6.504   5.443
10659TIP3    H131922   2.018   6.486   5.485
10659TIP3    H231923   1.942   6.465   5.355
10660TIP3   OH231924   6.005   6.432   0.822
10660TIP3    H131925   5.946   6.505   0.804
10660TIP3    H231926   6.093   6.469   0.817
10661TIP3   OH231927   6.346   3.741   4.862
10661TIP3    H131928   6.363   3.718   4.771
10661TIP3    H231929   6.297   3.823   4.857
10662TIP3   OH231930   5.670   6.549   6.710
10662TIP3    H131931   5.739   6.585   6.765
10662TIP3    H231932   5.665   6.610   6.636
10663TIP3   OH231933   7.404   7.091   2.251
10663TIP3    H131934   7.309   7.097   2.258
10663TIP3    H231935   7.424   7.128   2.165
10664TIP3   OH231936   3.407   4.401   3.977
10664TIP3    H131937   3.392   4.456   3.900
10664TIP3    H231938   3.422   4.313   3.941
10665TIP3   OH231939   1.621   3.910   1.325
10665TIP3    H131940   1.603   3.859   1.404
10665TIP3    H231941   1.677   3.981   1.354
10666TIP3   OH231942   0.366   3.490   5.600
10666TIP3    H131943   0.280   3.497   5.643
10666TIP3    H231944   0.359   3.413   5.544
10667TIP3   OH231945   3.914   3.832   3.199
10667TIP3    H131946   3.868   3.763   3.247
10667TIP3    H231947   3.988   3.855   3.255
10668TIP3   OH231948   4.504   4.731   2.445
10668TIP3    H131949   4.413   4.746   2.420
10668TIP3    H231950   4.528   4.649   2.402
10669TIP3   OH231951   1.772   1.316   6.500
10669TIP3    H131952   1.854   1.279   6.466
10669TIP3    H231953   1.791   1.334   6.592
10670TIP3   OH231954   4.894   6.974   6.302
10670TIP3    H131955   4.859   7.046   6.250
10670TIP3    H231956   4.989   6.980   6.292
10671TIP3   OH231957   6.995   6.510   0.383
10671TIP3    H131958   7.072   6.542   0.430
10671TIP3    H231959   6.929   6.577   0.397
10672TIP3   OH231960   3.877   4.646   1.183
10672TIP3    H131961   3.968   4.631   1.208
10672TIP3    H231962   3.874   4.738   1.157
10673TIP3   OH231963   7.905   7.653   2.689
10673TIP3    H131964   7.843   7.642   2.617
10673TIP3    H231965   7.962   7.576   2.683
10674TIP3   OH231966   2.839   6.762   4.384
10674TIP3    H131967   2.756   6.787   4.343
10674TIP3    H231968   2.882   6.846   4.404
10675TIP3   OH231969   1.947   6.739   2.888
10675TIP3    H131970   1.899   6.798   2.946
10675TIP3    H231971   1.973   6.666   2.945
10676TIP3   OH231972   0.300   1.604   2.915
10676TIP3    H131973   0.299   1.552   2.995
10676TIP3    H231974   0.284   1.540   2.845
10677TIP3   OH231975   6.059   4.016   5.185
10677TIP3    H131976   6.058   4.108   5.159
10677TIP3    H231977   6.100   4.016   5.271
10678TIP3   OH231978   0.210   6.777   5.154
10678TIP3    H131979   0.114   6.780   5.146
10678TIP3    H231980   0.228   6.834   5.229
10679TIP3   OH231981   4.619   6.347   2.949
10679TIP3    H131982   4.571   6.421   2.985
10679TIP3    H231983   4.668   6.311   3.023
10680TIP3   OH231984   7.330   6.295   4.689
10680TIP3    H131985   7.356   6.209   4.723
10680TIP3    H231986   7.289   6.339   4.763
10681TIP3   OH231987   1.958   4.170   0.562
10681TIP3    H131988   1.915   4.186   0.646
10681TIP3    H231989   2.050   4.157   0.584
10682TIP3   OH231990   2.999   0.558   5.436
10682TIP3    H131991   2.985   0.531   5.345
10682TIP3    H231992   2.975   0.481   5.488
10683TIP3   OH231993   6.830   5.056   1.355
10683TIP3    H131994   6.813   5.072   1.262
10683TIP3    H231995   6.893   5.123   1.380
10684TIP3   OH231996   4.340   0.017   6.179
10684TIP3    H131997   4.364  -0.064   6.226
10684TIP3    H231998   4.284  -0.012   6.108
10685TIP3   OH231999   4.709   4.122   2.402
10685TIP3    H132000   4.742   4.049   2.454
10685TIP3    H232001   4.666   4.080   2.327
10686TIP3   OH232002   1.292   3.322   2.488
10686TIP3    H132003   1.356   3.280   2.546
10686TIP3    H232004   1.238   3.251   2.455
10687TIP3   OH232005   5.285   2.425   6.521
10687TIP3    H132006   5.210   2.382   6.479
10687TIP3    H232007   5.246   2.482   6.588
10688TIP3   OH232008   1.194   5.633   0.695
10688TIP3    H132009   1.145   5.552   0.690
10688TIP3    H232010   1.274   5.616   0.645
10689TIP3   OH232011   0.055   2.115   3.468
10689TIP3    H132012   0.116   2.090   3.538
10689TIP3    H232013  -0.031   2.090   3.501
10690TIP3   OH232014   4.920   5.882   4.716
10690TIP3    H132015   4.855   5.948   4.739
10690TIP3    H232016   4.983   5.884   4.788
10691TIP3   OH232017   4.865   0.015   0.883
10691TIP3    H132018   4.807   0.073   0.933
10691TIP3    H232019   4.913   0.074   0.825
10692TIP3   OH232020   8.257   0.737   4.636
10692TIP3    H132021   8.213   0.801   4.580
10692TIP3    H232022   8.211   0.655   4.618
10693TIP3   OH232023   4.760   3.944   5.438
10693TIP3    H132024   4.696   4.013   5.418
10693TIP3    H232025   4.739   3.873   5.377
10694TIP3   OH232026   2.717   5.463   0.285
10694TIP3    H132027   2.685   5.473   0.195
10694TIP3    H232028   2.702   5.548   0.325
10695TIP3   OH232029   2.777   0.047   4.969
10695TIP3    H132030   2.872   0.035   4.972
10695TIP3    H232031   2.765   0.132   4.927
10696TIP3   OH232032   0.245   6.022   3.422
10696TIP3    H132033   0.235   5.949   3.362
10696TIP3    H232034   0.211   5.990   3.506
10697TIP3   OH232035   1.522   0.782   0.798
10697TIP3    H132036   1.568   0.808   0.878
10697TIP3    H232037   1.474   0.861   0.772
10698TIP3   OH232038   0.442   7.158   3.234
10698TIP3    H132039   0.418   7.177   3.325
10698TIP3    H232040   0.386   7.084   3.209
10699TIP3   OH232041   6.070   5.463   2.638
10699TIP3    H132042   6.091   5.525   2.568
10699TIP3    H232043   5.982   5.433   2.618
10700TIP3   OH232044   1.333   6.825   1.381
10700TIP3    H132045   1.392   6.823   1.456
10700TIP3    H232046   1.389   6.800   1.307
10701TIP3   OH232047   5.044   0.550   3.110
10701TIP3    H132048   4.981   0.618   3.089
10701TIP3    H232049   5.068   0.512   3.026
10702TIP3   OH232050   6.786   2.075   4.592
10702TIP3    H132051   6.805   2.079   4.686
10702TIP3    H232052   6.862   2.030   4.554
10703TIP3   OH232053   2.888   0.871   2.364
10703TIP3    H132054   2.983   0.880   2.361
10703TIP3    H232055   2.871   0.781   2.334
10704TIP3   OH232056   7.270   1.397   1.967
10704TIP3    H132057   7.192   1.365   2.012
10704TIP3    H232058   7.244   1.400   1.875
10705TIP3   OH232059   1.859   1.854   4.799
10705TIP3    H132060   1.813   1.788   4.748
10705TIP3    H232061   1.806   1.864   4.879
10706TIP3   OH232062   2.566   1.734   3.756
10706TIP3    H132063   2.549   1.664   3.693
10706TIP3    H232064   2.618   1.693   3.825
10707TIP3   OH232065   7.181   4.327   3.971
10707TIP3    H132066   7.232   4.320   4.052
10707TIP3    H232067   7.196   4.244   3.926
10708TIP3   OH232068   0.597   1.953   3.591
10708TIP3    H132069   0.623   1.862   3.578
10708TIP3    H232070   0.506   1.949   3.620
10709TIP3   OH232071   3.562   6.527   2.252
10709TIP3    H132072   3.560   6.433   2.231
10709TIP3    H232073   3.544   6.530   2.346
10710TIP3   OH232074   7.717   5.346   0.017
10710TIP3    H132075   7.791   5.383   0.064
10710TIP3    H232076   7.640   5.382   0.061
10711TIP3   OH232077   6.116   3.535   4.382
10711TIP3    H132078   6.136   3.626   4.360
10711TIP3    H232079   6.113   3.489   4.298
10712TIP3   OH232080   0.373   3.522   6.018
10712TIP3    H132081   0.303   3.568   5.971
10712TIP3    H232082   0.397   3.450   5.960
10713TIP3   OH232083   4.424   5.285   2.305
10713TIP3    H132084   4.454   5.242   2.385
10713TIP3    H232085   4.335   5.251   2.292
10714TIP3   OH232086   6.390   4.369   3.442
10714TIP3    H132087   6.456   4.342   3.506
10714TIP3    H232088   6.372   4.290   3.391
10715TIP3   OH232089   0.280   5.185   2.203
10715TIP3    H132090   0.189   5.196   2.232
10715TIP3    H232091   0.303   5.096   2.230
10716TIP3   OH232092   4.457   4.260   4.072
10716TIP3    H132093   4.545   4.279   4.038
10716TIP3    H232094   4.470   4.187   4.133
10717TIP3   OH232095   6.467   6.810   5.083
10717TIP3    H132096   6.382   6.806   5.039
10717TIP3    H232097   6.512   6.884   5.042
10718TIP3   OH232098   3.351   2.360   4.234
10718TIP3    H132099   3.320   2.451   4.239
10718TIP3    H232100   3.273   2.310   4.210
10719TIP3   OH232101   7.082   4.208   5.837
10719TIP3    H132102   7.030   4.262   5.896
10719TIP3    H232103   7.082   4.121   5.879
10720TIP3   OH232104   4.202   7.090   1.546
10720TIP3    H132105   4.251   7.156   1.595
10720TIP3    H232106   4.113   7.096   1.580
10721TIP3   OH232107   2.067   6.550   3.703
10721TIP3    H132108   2.104   6.472   3.743
10721TIP3    H232109   1.988   6.568   3.754
10722TIP3   OH232110   4.866   5.144   1.530
10722TIP3    H132111   4.945   5.148   1.584
10722TIP3    H232112   4.847   5.050   1.524
10723TIP3   OH232113   1.889   5.204   6.353
10723TIP3    H132114   1.959   5.264   6.325
10723TIP3    H232115   1.832   5.258   6.408
10724TIP3   OH232116   7.048   6.211   2.372
10724TIP3    H132117   7.008   6.167   2.447
10724TIP3    H232118   6.992   6.188   2.297
10725TIP3   OH232119   1.876   2.280   2.746
10725TIP3    H132120   1.879   2.188   2.772
10725TIP3    H232121   1.968   2.304   2.732
10726TIP3   OH232122   4.518   7.246   0.017
10726TIP3    H132123   4.594   7.251   0.075
10726TIP3    H232124   4.511   7.154  -0.005
10727TIP3   OH232125   0.761   1.946   4.034
10727TIP3    H132126   0.769   1.850   4.036
10727TIP3    H232127   0.847   1.977   4.062
10728TIP3   OH232128   8.233   6.508   3.306
10728TIP3    H132129   8.166   6.535   3.369
10728TIP3    H232130   8.188   6.507   3.222
10729TIP3   OH232131   3.382   0.038   4.513
10729TIP3    H132132   3.404   0.071   4.600
10729TIP3    H232133   3.436  -0.040   4.502
10730TIP3   OH232134   3.617   4.902   5.017
10730TIP3    H132135   3.641   4.993   4.999
10730TIP3    H232136   3.614   4.898   5.113
10731TIP3   OH232137   2.771   4.622   4.177
10731TIP3    H132138   2.853   4.632   4.226
10731TIP3    H232139   2.786   4.670   4.096
10732TIP3   OH232140   1.497   0.593   4.116
10732TIP3    H132141   1.453   0.601   4.031
10732TIP3    H232142   1.521   0.501   4.123
10733TIP3   OH232143   3.519   0.105   4.762
10733TIP3    H132144   3.605   0.116   4.803
10733TIP3    H232145   3.508   0.185   4.709
10734TIP3   OH232146   5.997   6.467   3.256
10734TIP3    H132147   5.990   6.490   3.163
10734TIP3    H232148   5.907   6.458   3.286
10735TIP3   OH232149   3.480   2.127   6.743
10735TIP3    H132150   3.507   2.209   6.703
10735TIP3    H232151   3.436   2.078   6.673
10736TIP3   OH232152   1.268   6.630   4.516
10736TIP3    H132153   1.279   6.696   4.447
10736TIP3    H232154   1.283   6.678   4.598
10737TIP3   OH232155   6.376   3.403   4.428
10737TIP3    H132156   6.404   3.433   4.515
10737TIP3    H232157   6.293   3.449   4.413
10738TIP3   OH232158   6.072   3.515   2.871
10738TIP3    H132159   6.141   3.513   2.804
10738TIP3    H232160   6.104   3.458   2.940
10739TIP3   OH232161   7.445   6.733   0.634
10739TIP3    H132162   7.534   6.709   0.610
10739TIP3    H232163   7.433   6.699   0.722
10740TIP3   OH232164   6.252   4.460   0.543
10740TIP3    H132165   6.205   4.544   0.548
10740TIP3    H232166   6.344   4.483   0.555
10741TIP3   OH232167   1.603   2.677   3.197
10741TIP3    H132168   1.695   2.658   3.179
10741TIP3    H232169   1.600   2.772   3.209
10742TIP3   OH232170   0.356   4.799   5.708
10742TIP3    H132171   0.313   4.718   5.680
10742TIP3    H232172   0.331   4.808   5.800
10743TIP3   OH232173   0.432   1.344   1.083
10743TIP3    H132174   0.368   1.345   1.155
10743TIP3    H232175   0.507   1.392   1.118
10744TIP3   OH232176   2.105   4.500   4.471
10744TIP3    H132177   2.051   4.549   4.532
10744TIP3    H232178   2.127   4.563   4.402
10745TIP3   OH232179   5.675   5.725   2.229
10745TIP3    H132180   5.593   5.710   2.277
10745TIP3    H232181   5.658   5.802   2.176
10746TIP3   OH232182   5.960   1.496   0.599
10746TIP3    H132183   5.956   1.409   0.558
10746TIP3    H232184   5.991   1.554   0.530
10747TIP3   OH232185   5.689   5.840   3.950
10747TIP3    H132186   5.607   5.848   3.901
10747TIP3    H232187   5.666   5.866   4.039
10748TIP3   OH232188   8.280   3.077   4.893
10748TIP3    H132189   8.235   2.994   4.908
10748TIP3    H232190   8.320   3.069   4.807
10749TIP3   OH232191   7.638   2.189   4.192
10749TIP3    H132192   7.658   2.150   4.277
10749TIP3    H232193   7.723   2.199   4.149
10750TIP3   OH232194   7.651   5.694   3.023
10750TIP3    H132195   7.663   5.634   2.950
10750TIP3    H232196   7.731   5.685   3.075
10751TIP3   OH232197   2.003   3.311   0.311
10751TIP3    H132198   1.970   3.222   0.324
10751TIP3    H232199   1.962   3.341   0.230
10752TIP3   OH232200   7.700   7.750   6.068
10752TIP3    H132201   7.637   7.752   6.139
10752TIP3    H232202   7.698   7.838   6.030
10753TIP3   OH232203   7.491   2.695   3.282
10753TIP3    H132204   7.530   2.642   3.352
10753TIP3    H232205   7.437   2.634   3.232
10754TIP3   OH232206   2.903   6.782   5.868
10754TIP3    H132207   2.811   6.798   5.891
10754TIP3    H232208   2.924   6.849   5.804
10755TIP3   OH232209   4.664   5.186   4.967
10755TIP3    H132210   4.632   5.102   4.933
10755TIP3    H232211   4.597   5.249   4.940
10756TIP3   OH232212   5.521   4.236   1.683
10756TIP3    H132213   5.539   4.215   1.591
10756TIP3    H232214   5.509   4.331   1.683
10757TIP3   OH232215   6.282   4.650   2.269
10757TIP3    H132216   6.202   4.598   2.270
10757TIP3    H232217   6.252   4.741   2.265
10758TIP3   OH232218   3.778   6.557   1.757
10758TIP3    H132219   3.712   6.564   1.688
10758TIP3    H232220   3.737   6.501   1.823
10759TIP3   OH232221   1.288   4.032   6.115
10759TIP3    H132222   1.256   4.101   6.173
10759TIP3    H232223   1.355   4.075   6.062
10760TIP3   OH232224   4.954   7.399   0.520
10760TIP3    H132225   4.969   7.317   0.473
10760TIP3    H232226   4.945   7.465   0.452
10761TIP3   OH232227   2.251   4.471   6.661
10761TIP3    H132228   2.236   4.409   6.591
10761TIP3    H232229   2.347   4.481   6.664
10762TIP3   OH232230   3.356   5.550   6.700
10762TIP3    H132231   3.400   5.548   6.785
10762TIP3    H232232   3.421   5.517   6.638
10763TIP3   OH232233   6.708   3.556   0.319
10763TIP3    H132234   6.628   3.545   0.370
10763TIP3    H232235   6.778   3.547   0.383
10764TIP3   OH232236   4.144   7.298   3.083
10764TIP3    H132237   4.095   7.248   3.149
10764TIP3    H232238   4.092   7.290   3.003
10765TIP3   OH232239   7.891   0.126   5.822
10765TIP3    H132240   7.838   0.107   5.745
10765TIP3    H232241   7.917   0.217   5.812
10766TIP3   OH232242   0.794   6.441   6.199
10766TIP3    H132243   0.765   6.513   6.256
10766TIP3    H232244   0.869   6.403   6.245
10767TIP3   OH232245   6.374   5.539   2.847
10767TIP3    H132246   6.309   5.528   2.917
10767TIP3    H232247   6.418   5.454   2.842
10768TIP3   OH232248   5.791   2.788   4.994
10768TIP3    H132249   5.806   2.725   5.065
10768TIP3    H232250   5.872   2.838   4.989
10769TIP3   OH232251   1.747   1.503   3.702
10769TIP3    H132252   1.782   1.416   3.680
10769TIP3    H232253   1.798   1.563   3.649
10770TIP3   OH232254   4.985   7.174   0.348
10770TIP3    H132255   5.037   7.169   0.268
10770TIP3    H232256   5.046   7.152   0.418
10771TIP3   OH232257   5.940   1.895   0.072
10771TIP3    H132258   6.012   1.867   0.128
10771TIP3    H232259   5.899   1.967   0.121
10772TIP3   OH232260   1.638   5.125   2.873
10772TIP3    H132261   1.553   5.156   2.904
10772TIP3    H232262   1.633   5.134   2.777
10773TIP3   OH232263   2.051   1.449   0.978
10773TIP3    H132264   2.082   1.504   1.050
10773TIP3    H232265   2.106   1.371   0.983
10774TIP3   OH232266   5.629   4.234   0.083
10774TIP3    H132267   5.580   4.312   0.107
10774TIP3    H232268   5.646   4.190   0.166
10775TIP3   OH232269   2.878   7.470   0.675
10775TIP3    H132270   2.816   7.421   0.729
10775TIP3    H232271   2.899   7.412   0.603
10776TIP3   OH232272   0.113   7.252   0.436
10776TIP3    H132273   0.185   7.301   0.474
10776TIP3    H232274   0.076   7.311   0.370
10777TIP3   OH232275   5.244   2.386   2.123
10777TIP3    H132276   5.197   2.336   2.057
10777TIP3    H232277   5.213   2.476   2.111
10778TIP3   OH232278   5.301   1.724   0.947
10778TIP3    H132279   5.271   1.641   0.985
10778TIP3    H232280   5.320   1.780   1.023
10779TIP3   OH232281   1.974   0.792   4.742
10779TIP3    H132282   1.982   0.843   4.823
10779TIP3    H232283   1.988   0.857   4.672
10780TIP3   OH232284   7.834   1.807   4.545
10780TIP3    H132285   7.752   1.760   4.531
10780TIP3    H232286   7.862   1.833   4.457
10781TIP3   OH232287   3.581   1.807   0.898
10781TIP3    H132288   3.534   1.841   0.974
10781TIP3    H232289   3.518   1.810   0.827
10782TIP3   OH232290   0.500   4.276   4.061
10782TIP3    H132291   0.404   4.285   4.062
10782TIP3    H232292   0.530   4.347   4.006
10783TIP3   OH232293   0.713   3.553   5.982
10783TIP3    H132294   0.738   3.558   5.889
10783TIP3    H232295   0.623   3.521   5.981
10784TIP3   OH232296   4.920   4.243   5.512
10784TIP3    H132297   4.929   4.266   5.604
10784TIP3    H232298   4.957   4.155   5.506
10785TIP3   OH232299   3.912   7.169   4.045
10785TIP3    H132300   3.956   7.184   3.961
10785TIP3    H232301   3.920   7.075   4.060
10786TIP3   OH232302   2.731   2.590   1.166
10786TIP3    H132303   2.746   2.499   1.142
10786TIP3    H232304   2.767   2.598   1.255
10787TIP3   OH232305   6.680   7.629   3.144
10787TIP3    H132306   6.717   7.714   3.120
10787TIP3    H232307   6.739   7.595   3.211
10788TIP3   OH232308   3.249   0.323   2.025
10788TIP3    H132309   3.242   0.312   2.120
10788TIP3    H232310   3.188   0.394   2.005
10789TIP3   OH232311   6.331   1.160   1.380
10789TIP3    H132312   6.390   1.119   1.317
10789TIP3    H232313   6.288   1.230   1.331
10790TIP3   OH232314   2.253   5.568   2.906
10790TIP3    H132315   2.295   5.636   2.853
10790TIP3    H232316   2.314   5.552   2.978
10791TIP3   OH232317   4.888   5.673   1.076
10791TIP3    H132318   4.969   5.683   1.026
10791TIP3    H232319   4.826   5.635   1.013
10792TIP3   OH232320   2.541   4.600   1.133
10792TIP3    H132321   2.635   4.611   1.142
10792TIP3    H232322   2.504   4.685   1.156
10793TIP3   OH232323   1.766   6.956   4.126
10793TIP3    H132324   1.836   6.913   4.176
10793TIP3    H232325   1.804   7.040   4.100
10794TIP3   OH232326   4.619   3.229   5.273
10794TIP3    H132327   4.551   3.290   5.244
10794TIP3    H232328   4.701   3.270   5.247
10795TIP3   OH232329   5.093   4.125   4.759
10795TIP3    H132330   4.999   4.108   4.767
10795TIP3    H232331   5.103   4.218   4.779
10796TIP3   OH232332   3.258   1.773   1.642
10796TIP3    H132333   3.211   1.856   1.637
10796TIP3    H232334   3.190   1.706   1.637
10797TIP3   OH232335   1.174   6.679   2.728
10797TIP3    H132336   1.117   6.742   2.684
10797TIP3    H232337   1.158   6.596   2.683
10798TIP3   OH232338   6.569   6.912   0.341
10798TIP3    H132339   6.573   7.005   0.365
10798TIP3    H232340   6.572   6.865   0.424
10799TIP3   OH232341   0.420   4.676   0.024
10799TIP3    H132342   0.427   4.606   0.089
10799TIP3    H232343   0.486   4.740   0.049
10800TIP3   OH232344   0.454   6.918   5.894
10800TIP3    H132345   0.429   6.911   5.802
10800TIP3    H232346   0.436   6.831   5.930
10801TIP3   OH232347   1.737   0.071   0.524
10801TIP3    H132348   1.712   0.004   0.589
10801TIP3    H232349   1.830   0.087   0.541
10802TIP3   OH232350   4.761   7.817   0.502
10802TIP3    H132351   4.854   7.795   0.499
10802TIP3    H232352   4.739   7.818   0.595
10803TIP3   OH232353   6.156   2.256   3.771
10803TIP3    H132354   6.161   2.259   3.866
10803TIP3    H232355   6.068   2.285   3.750
10804TIP3   OH232356   0.033   2.719   3.766
10804TIP3    H132357   0.080   2.801   3.783
10804TIP3    H232358  -0.006   2.695   3.850
10805TIP3   OH232359   4.572   0.131   0.657
10805TIP3    H132360   4.514   0.062   0.624
10805TIP3    H232361   4.526   0.165   0.734
10806TIP3   OH232362   4.282   0.762   4.314
10806TIP3    H132363   4.260   0.679   4.355
10806TIP3    H232364   4.208   0.819   4.333
10807TIP3   OH232365   5.352   0.120   3.651
10807TIP3    H132366   5.390   0.084   3.731
10807TIP3    H232367   5.288   0.185   3.681
10808TIP3   OH232368   7.334   1.159   2.324
10808TIP3    H132369   7.365   1.216   2.254
10808TIP3    H232370   7.365   1.072   2.299
10809TIP3   OH232371   7.907   4.820   4.156
10809TIP3    H132372   7.949   4.767   4.224
10809TIP3    H232373   7.879   4.900   4.202
10810TIP3   OH232374   6.755   5.857   3.196
10810TIP3    H132375   6.723   5.794   3.131
10810TIP3    H232376   6.850   5.851   3.191
10811TIP3   OH232377   7.942   6.631   0.736
10811TIP3    H132378   7.940   6.560   0.801
10811TIP3    H232379   8.024   6.616   0.688
10812TIP3   OH232380   5.507   3.489   0.706
10812TIP3    H132381   5.541   3.477   0.617
10812TIP3    H232382   5.455   3.411   0.722
10813TIP3   OH232383   1.534   5.935   3.927
10813TIP3    H132384   1.531   5.977   4.012
10813TIP3    H232385   1.521   5.842   3.946
10814TIP3   OH232386   1.205   1.359   4.585
10814TIP3    H132387   1.158   1.392   4.661
10814TIP3    H232388   1.240   1.274   4.614
10815TIP3   OH232389   1.756   2.052   5.557
10815TIP3    H132390   1.687   2.079   5.495
10815TIP3    H232391   1.824   2.119   5.546
10816TIP3   OH232392   6.651   1.869   0.554
10816TIP3    H132393   6.637   1.881   0.460
10816TIP3    H232394   6.745   1.854   0.563
10817TIP3   OH232395   2.679   2.219   3.909
10817TIP3    H132396   2.718   2.305   3.926
10817TIP3    H232397   2.664   2.181   3.995
10818TIP3   OH232398   4.674   2.500   0.395
10818TIP3    H132399   4.633   2.499   0.308
10818TIP3    H232400   4.729   2.421   0.396
10819TIP3   OH232401   6.247   0.545   0.810
10819TIP3    H132402   6.318   0.494   0.848
10819TIP3    H232403   6.290   0.609   0.754
10820TIP3   OH232404   2.755   3.331   6.296
10820TIP3    H132405   2.829   3.318   6.355
10820TIP3    H232406   2.787   3.395   6.232
10821TIP3   OH232407   4.975   6.005   2.272
10821TIP3    H132408   5.051   5.949   2.287
10821TIP3    H232409   4.947   5.986   2.183
10822TIP3   OH232410   7.966   7.585   4.532
10822TIP3    H132411   7.909   7.511   4.550
10822TIP3    H232412   7.968   7.591   4.436
10823TIP3   OH232413   0.169   4.319   5.836
10823TIP3    H132414   0.185   4.333   5.930
10823TIP3    H232415   0.075   4.328   5.826
10824TIP3   OH232416   7.539   1.546   3.737
10824TIP3    H132417   7.534   1.451   3.726
10824TIP3    H232418   7.497   1.562   3.821
10825TIP3   OH232419   7.461   4.885   2.228
10825TIP3    H132420   7.491   4.795   2.236
10825TIP3    H232421   7.365   4.877   2.220
10826TIP3   OH232422   8.247   2.208   5.558
10826TIP3    H132423   8.200   2.289   5.540
10826TIP3    H232424   8.186   2.138   5.535
10827TIP3   OH232425   7.583   6.895   2.200
10827TIP3    H132426   7.569   6.870   2.109
10827TIP3    H232427   7.516   6.961   2.218
10828TIP3   OH232428   7.846   2.370   5.599
10828TIP3    H132429   7.842   2.277   5.624
10828TIP3    H232430   7.846   2.417   5.683
10829TIP3   OH232431   6.997   7.154   1.234
10829TIP3    H132432   6.972   7.191   1.150
10829TIP3    H232433   7.086   7.122   1.220
10830TIP3   OH232434   4.537   3.375   2.049
10830TIP3    H132435   4.616   3.358   1.999
10830TIP3    H232436   4.524   3.296   2.101
10831TIP3   OH232437   0.473   1.716   6.549
10831TIP3    H132438   0.481   1.769   6.628
10831TIP3    H232439   0.551   1.661   6.550
10832TIP3   OH232440   1.275   6.273   2.157
10832TIP3    H132441   1.204   6.237   2.210
10832TIP3    H232442   1.353   6.265   2.213
10833TIP3   OH232443   6.297   6.244   3.976
10833TIP3    H132444   6.351   6.250   4.055
10833TIP3    H232445   6.298   6.151   3.953
10834TIP3   OH232446   6.696   1.806   6.086
10834TIP3    H132447   6.684   1.901   6.083
10834TIP3    H232448   6.775   1.790   6.036
10835TIP3   OH232449   4.341   6.850   6.024
10835TIP3    H132450   4.303   6.938   6.029
10835TIP3    H232451   4.266   6.792   6.013
10836TIP3   OH232452   3.109   5.755   3.142
10836TIP3    H132453   3.133   5.673   3.185
10836TIP3    H232454   3.022   5.740   3.106
10837TIP3   OH232455   3.811   4.391   1.696
10837TIP3    H132456   3.897   4.415   1.731
10837TIP3    H232457   3.808   4.296   1.700
10838TIP3   OH232458   6.921   2.506   1.456
10838TIP3    H132459   7.008   2.497   1.416
10838TIP3    H232460   6.862   2.460   1.397
10839TIP3   OH232461   3.911   7.523   2.132
10839TIP3    H132462   3.900   7.508   2.226
10839TIP3    H232463   4.003   7.546   2.122
10840TIP3   OH232464   4.909   3.539   1.375
10840TIP3    H132465   4.892   3.471   1.309
10840TIP3    H232466   4.976   3.501   1.432
10841TIP3   OH232467   5.093   2.377   1.641
10841TIP3    H132468   5.139   2.375   1.725
10841TIP3    H232469   5.138   2.312   1.587
10842TIP3   OH232470   4.160   5.421   3.085
10842TIP3    H132471   4.125   5.434   3.173
10842TIP3    H232472   4.082   5.405   3.031
10843TIP3   OH232473   4.813   5.222   4.373
10843TIP3    H132474   4.866   5.234   4.452
10843TIP3    H232475   4.724   5.207   4.406
10844TIP3   OH232476   2.347   5.354   1.317
10844TIP3    H132477   2.330   5.294   1.389
10844TIP3    H232478   2.266   5.355   1.267
10845TIP3   OH232479   0.515   3.249   0.391
10845TIP3    H132480   0.498   3.222   0.481
10845TIP3    H232481   0.447   3.312   0.371
10846TIP3   OH232482   7.677   6.636   1.625
10846TIP3    H132483   7.621   6.605   1.696
10846TIP3    H232484   7.741   6.566   1.613
10847TIP3   OH232485   4.013   2.112   4.572
10847TIP3    H132486   3.982   2.075   4.655
10847TIP3    H232487   3.989   2.046   4.507
10848TIP3   OH232488   8.174   1.366   0.356
10848TIP3    H132489   8.134   1.432   0.412
10848TIP3    H232490   8.100   1.313   0.325
10849TIP3   OH232491   0.101   5.660   5.012
10849TIP3    H132492   0.103   5.680   5.105
10849TIP3    H232493   0.178   5.703   4.976
10850TIP3   OH232494   2.843   5.298   5.273
10850TIP3    H132495   2.787   5.322   5.199
10850TIP3    H232496   2.865   5.206   5.257
10851TIP3   OH232497   0.074   1.232   4.462
10851TIP3    H132498   0.152   1.262   4.415
10851TIP3    H232499   0.056   1.302   4.525
10852TIP3   OH232500   2.441   4.810   1.866
10852TIP3    H132501   2.409   4.886   1.818
10852TIP3    H232502   2.384   4.803   1.942
10853TIP3   OH232503   6.273   0.478   6.079
10853TIP3    H132504   6.360   0.477   6.120
10853TIP3    H232505   6.266   0.565   6.040
10854TIP3   OH232506   3.203   5.942   5.733
10854TIP3    H132507   3.238   5.931   5.644
10854TIP3    H232508   3.209   6.036   5.749
10855TIP3   OH232509   0.831   3.124   6.181
10855TIP3    H132510   0.921   3.142   6.210
10855TIP3    H232511   0.776   3.173   6.242
10856TIP3   OH232512   6.516   1.609   2.374
10856TIP3    H132513   6.513   1.526   2.422
10856TIP3    H232514   6.427   1.644   2.380
10857TIP3   OH232515   7.731   4.104   5.359
10857TIP3    H132516   7.784   4.147   5.292
10857TIP3    H232517   7.669   4.050   5.310
10858TIP3   OH232518   1.359   7.195   5.240
10858TIP3    H132519   1.417   7.253   5.192
10858TIP3    H232520   1.414   7.121   5.265
10859TIP3   OH232521   2.125   2.778   2.749
10859TIP3    H132522   2.179   2.834   2.692
10859TIP3    H232523   2.040   2.822   2.753
10860TIP3   OH232524   3.318   1.576   3.634
10860TIP3    H132525   3.352   1.531   3.711
10860TIP3    H232526   3.288   1.506   3.577
10861TIP3   OH232527   6.970   7.406   1.065
10861TIP3    H132528   7.042   7.457   1.104
10861TIP3    H232529   6.938   7.460   0.993
10862TIP3   OH232530   7.911   2.209   1.587
10862TIP3    H132531   7.825   2.244   1.612
10862TIP3    H232532   7.891   2.130   1.537
10863TIP3   OH232533   4.806   3.258   0.860
10863TIP3    H132534   4.874   3.310   0.818
10863TIP3    H232535   4.851   3.181   0.893
10864TIP3   OH232536   0.604   3.940   0.841
10864TIP3    H132537   0.510   3.957   0.854
10864TIP3    H232538   0.648   4.006   0.894
10865TIP3   OH232539   7.880   6.327   6.676
10865TIP3    H132540   7.960   6.274   6.678
10865TIP3    H232541   7.904   6.408   6.721
10866TIP3   OH232542   7.816   4.169   6.429
10866TIP3    H132543   7.832   4.245   6.485
10866TIP3    H232544   7.853   4.194   6.344
10867TIP3   OH232545   3.813   3.163   4.980
10867TIP3    H132546   3.846   3.243   4.939
10867TIP3    H232547   3.743   3.193   5.039
10868TIP3   OH232548   6.641   4.859   5.801
10868TIP3    H132549   6.668   4.774   5.767
10868TIP3    H232550   6.556   4.841   5.842
10869TIP3   OH232551   2.680   0.290   4.916
10869TIP3    H132552   2.609   0.311   4.855
10869TIP3    H232553   2.698   0.373   4.961
10870TIP3   OH232554  -0.010   0.077   5.561
10870TIP3    H132555  -0.014   0.134   5.485
10870TIP3    H232556   0.073   0.098   5.603
10871TIP3   OH232557   4.243   3.044   1.729
10871TIP3    H132558   4.210   2.955   1.741
10871TIP3    H232559   4.256   3.052   1.634
10872TIP3   OH232560   8.054   0.336   4.445
10872TIP3    H132561   8.105   0.408   4.484
10872TIP3    H232562   7.965   0.350   4.476
10873TIP3   OH232563   3.905   4.979   5.823
10873TIP3    H132564   3.991   4.943   5.801
10873TIP3    H232565   3.845   4.906   5.807
10874TIP3   OH232566   7.132   2.449   5.783
10874TIP3    H132567   7.170   2.435   5.870
10874TIP3    H232568   7.041   2.474   5.801
10875TIP3   OH232569   3.465   4.773   3.439
10875TIP3    H132570   3.526   4.799   3.508
10875TIP3    H232571   3.461   4.848   3.380
10876TIP3   OH232572   5.709   7.720   1.033
10876TIP3    H132573   5.641   7.681   0.978
10876TIP3    H232574   5.791   7.683   1.000
10877TIP3   OH232575   3.551   3.973   1.256
10877TIP3    H132576   3.600   3.968   1.339
10877TIP3    H232577   3.546   4.066   1.237
10878TIP3   OH232578   5.418   0.871   2.404
10878TIP3    H132579   5.473   0.912   2.471
10878TIP3    H232580   5.436   0.778   2.412
10879TIP3   OH232581   3.077   2.339   4.594
10879TIP3    H132582   3.063   2.359   4.502
10879TIP3    H232583   2.989   2.328   4.630
10880TIP3   OH232584   7.562   4.841   4.663
10880TIP3    H132585   7.529   4.797   4.741
10880TIP3    H232586   7.546   4.934   4.679
10881TIP3   OH232587   0.951   7.778   4.546
10881TIP3    H132588   0.872   7.740   4.507
10881TIP3    H232589   0.968   7.722   4.622
10882TIP3   OH232590   2.728   6.028   2.288
10882TIP3    H132591   2.787   5.954   2.278
10882TIP3    H232592   2.778   6.103   2.256
10883TIP3   OH232593   0.625   6.207   3.422
10883TIP3    H132594   0.529   6.213   3.428
10883TIP3    H232595   0.645   6.115   3.441
10884TIP3   OH232596   6.581   6.006   0.475
10884TIP3    H132597   6.530   6.024   0.397
10884TIP3    H232598   6.528   5.944   0.525
10885TIP3   OH232599   6.630   4.031   4.926
10885TIP3    H132600   6.606   3.965   4.991
10885TIP3    H232601   6.718   4.059   4.950
10886TIP3   OH232602   5.776   6.955   6.475
10886TIP3    H132603   5.723   6.891   6.521
10886TIP3    H232604   5.719   6.989   6.406
10887TIP3   OH232605   2.892   7.396   3.727
10887TIP3    H132606   2.952   7.325   3.748
10887TIP3    H232607   2.947   7.474   3.725
10888TIP3   OH232608   3.573   0.991   4.882
10888TIP3    H132609   3.492   1.032   4.913
10888TIP3    H232610   3.556   0.897   4.889
10889TIP3   OH232611   7.497   0.235   1.486
10889TIP3    H132612   7.420   0.277   1.525
10889TIP3    H232613   7.571   0.288   1.514
10890TIP3   OH232614   0.477   1.899   2.099
10890TIP3    H132615   0.481   1.885   2.004
10890TIP3    H232616   0.432   1.982   2.109
10891TIP3   OH232617   2.801   0.540   2.266
10891TIP3    H132618   2.820   0.479   2.337
10891TIP3    H232619   2.863   0.517   2.197
10892TIP3   OH232620   1.289   6.184   4.021
10892TIP3    H132621   1.243   6.261   4.055
10892TIP3    H232622   1.379   6.195   4.051
10893TIP3   OH232623   0.948   5.406   3.609
10893TIP3    H132624   1.039   5.386   3.586
10893TIP3    H232625   0.922   5.474   3.548
10894TIP3   OH232626   1.865   0.568   3.118
10894TIP3    H132627   1.813   0.642   3.148
10894TIP3    H232628   1.951   0.606   3.097
10895TIP3   OH232629   2.467   4.482   5.440
10895TIP3    H132630   2.492   4.389   5.436
10895TIP3    H232631   2.476   4.513   5.350
10896TIP3   OH232632   0.162   7.231   0.924
10896TIP3    H132633   0.242   7.179   0.922
10896TIP3    H232634   0.185   7.309   0.975
10897TIP3   OH232635   5.495   0.892   1.919
10897TIP3    H132636   5.474   0.954   1.849
10897TIP3    H232637   5.526   0.947   1.991
10898TIP3   OH232638   7.772   3.705   2.683
10898TIP3    H132639   7.806   3.791   2.706
10898TIP3    H232640   7.740   3.668   2.765
10899TIP3   OH232641   7.756   2.134   1.883
10899TIP3    H132642   7.718   2.096   1.804
10899TIP3    H232643   7.848   2.148   1.862
10900TIP3   OH232644   6.169   3.451   0.140
10900TIP3    H132645   6.074   3.446   0.123
10900TIP3    H232646   6.191   3.365   0.175
10901TIP3   OH232647   0.905   1.083   2.868
10901TIP3    H132648   0.911   1.172   2.832
10901TIP3    H232649   0.911   1.095   2.963
10902TIP3   OH232650   6.588   4.876   0.296
10902TIP3    H132651   6.615   4.885   0.387
10902TIP3    H232652   6.497   4.845   0.300
10903TIP3   OH232653   3.886   3.944   2.948
10903TIP3    H132654   3.834   3.885   2.893
10903TIP3    H232655   3.887   3.901   3.034
10904TIP3   OH232656   5.690   1.572   0.657
10904TIP3    H132657   5.784   1.560   0.645
10904TIP3    H232658   5.665   1.505   0.721
10905TIP3   OH232659   7.678   3.667   5.039
10905TIP3    H132660   7.732   3.706   4.969
10905TIP3    H232661   7.703   3.715   5.118
10906TIP3   OH232662   7.669   1.604   5.302
10906TIP3    H132663   7.667   1.639   5.391
10906TIP3    H232664   7.651   1.511   5.311
10907TIP3   OH232665   4.741   5.229   0.877
10907TIP3    H132666   4.655   5.187   0.887
10907TIP3    H232667   4.784   5.181   0.807
10908TIP3   OH232668   7.776   2.197   0.908
10908TIP3    H132669   7.752   2.288   0.928
10908TIP3    H232670   7.724   2.144   0.968
10909TIP3   OH232671   6.538   7.277   3.775
10909TIP3    H132672   6.446   7.303   3.778
10909TIP3    H232673   6.548   7.217   3.849
10910TIP3   OH232674   0.852   3.403   6.648
10910TIP3    H132675   0.879   3.414   6.740
10910TIP3    H232676   0.912   3.460   6.599
10911TIP3   OH232677   0.529   7.538   0.903
10911TIP3    H132678   0.595   7.565   0.838
10911TIP3    H232679   0.493   7.620   0.936
10912TIP3   OH232680   7.790   5.781   6.665
10912TIP3    H132681   7.741   5.785   6.746
10912TIP3    H232682   7.871   5.830   6.683
10913TIP3   OH232683   0.270   3.802   6.771
10913TIP3    H132684   0.189   3.776   6.727
10913TIP3    H232685   0.306   3.721   6.807
10914TIP3   OH232686   4.371   0.508   4.090
10914TIP3    H132687   4.429   0.518   4.014
10914TIP3    H232688   4.367   0.595   4.130
10915TIP3   OH232689   0.481   3.849   2.757
10915TIP3    H132690   0.548   3.912   2.783
10915TIP3    H232691   0.522   3.763   2.770
10916TIP3   OH232692   2.493   2.955   4.343
10916TIP3    H132693   2.468   2.915   4.427
10916TIP3    H232694   2.414   2.948   4.289
10917TIP3   OH232695   0.743   4.699   6.081
10917TIP3    H132696   0.836   4.702   6.102
10917TIP3    H232697   0.728   4.775   6.025
10918TIP3   OH232698   5.904   6.015   3.608
10918TIP3    H132699   5.958   5.948   3.649
10918TIP3    H232700   5.895   6.083   3.675
10919TIP3   OH232701   3.896   7.727   1.594
10919TIP3    H132702   3.824   7.663   1.593
10919TIP3    H232703   3.875   7.787   1.523
10920TIP3   OH232704   2.439   3.243   3.684
10920TIP3    H132705   2.361   3.222   3.735
10920TIP3    H232706   2.500   3.172   3.701
10921TIP3   OH232707   7.134   0.816   2.957
10921TIP3    H132708   7.054   0.867   2.971
10921TIP3    H232709   7.155   0.781   3.043
10922TIP3   OH232710   4.441   1.098   1.749
10922TIP3    H132711   4.499   1.083   1.823
10922TIP3    H232712   4.353   1.088   1.785
10923TIP3   OH232713   4.639   1.523   2.499
10923TIP3    H132714   4.559   1.489   2.459
10923TIP3    H232715   4.691   1.555   2.425
10924TIP3   OH232716   3.757   0.547   1.107
10924TIP3    H132717   3.665   0.521   1.105
10924TIP3    H232718   3.763   0.619   1.044
10925TIP3   OH232719   8.176   7.197   6.236
10925TIP3    H132720   8.190   7.103   6.231
10925TIP3    H232721   8.094   7.212   6.189
10926TIP3   OH232722   6.266   7.679   1.776
10926TIP3    H132723   6.296   7.726   1.854
10926TIP3    H232724   6.259   7.588   1.803
10927TIP3   OH232725   4.691   3.890   1.112
10927TIP3    H132726   4.627   3.922   1.176
10927TIP3    H232727   4.774   3.930   1.139
10928TIP3   OH232728   0.152   5.452   6.088
10928TIP3    H132729   0.098   5.377   6.062
10928TIP3    H232730   0.165   5.442   6.182
10929TIP3   OH232731   3.792   2.956   0.414
10929TIP3    H132732   3.805   2.865   0.441
10929TIP3    H232733   3.753   2.950   0.327
10930TIP3   OH232734   5.918   0.869   3.277
10930TIP3    H132735   5.993   0.923   3.302
10930TIP3    H232736   5.924   0.792   3.333
10931TIP3   OH232737   3.954   3.541   4.125
10931TIP3    H132738   3.957   3.504   4.037
10931TIP3    H232739   3.919   3.471   4.180
10932TIP3   OH232740   4.860   4.424   0.200
10932TIP3    H132741   4.951   4.447   0.184
10932TIP3    H232742   4.824   4.500   0.246
10933TIP3   OH232743   5.932   4.004   5.704
10933TIP3    H132744   5.941   3.959   5.620
10933TIP3    H232745   5.844   3.982   5.734
10934TIP3   OH232746   7.930   1.207   6.606
10934TIP3    H132747   7.851   1.240   6.563
10934TIP3    H232748   7.948   1.272   6.674
10935TIP3   OH232749   4.949   0.273   1.578
10935TIP3    H132750   4.900   0.254   1.498
10935TIP3    H232751   4.984   0.361   1.565
10936TIP3   OH232752   0.384   2.540   1.415
10936TIP3    H132753   0.445   2.539   1.489
10936TIP3    H232754   0.432   2.496   1.344
10937TIP3   OH232755   3.597   0.936   1.430
10937TIP3    H132756   3.537   0.887   1.375
10937TIP3    H232757   3.627   0.873   1.496
10938TIP3   OH232758   7.365   3.850   2.537
10938TIP3    H132759   7.271   3.871   2.541
10938TIP3    H232760   7.371   3.783   2.470
10939TIP3   OH232761   5.641   4.169   1.317
10939TIP3    H132762   5.549   4.183   1.295
10939TIP3    H232763   5.654   4.075   1.304
10940TIP3   OH232764   8.049   4.601   0.157
10940TIP3    H132765   8.052   4.695   0.140
10940TIP3    H232766   8.131   4.567   0.120
10941TIP3   OH232767   2.640   7.363   1.605
10941TIP3    H132768   2.718   7.313   1.581
10941TIP3    H232769   2.567   7.303   1.590
10942TIP3   OH232770   2.622   4.457   3.911
10942TIP3    H132771   2.610   4.399   3.836
10942TIP3    H232772   2.717   4.471   3.915
10943TIP3   OH232773   3.583   7.317   3.461
10943TIP3    H132774   3.652   7.259   3.493
10943TIP3    H232775   3.588   7.311   3.365
10944TIP3   OH232776   3.054   3.229   5.229
10944TIP3    H132777   3.144   3.229   5.261
10944TIP3    H232778   3.027   3.321   5.233
10945TIP3   OH232779   3.823   6.319   4.293
10945TIP3    H132780   3.739   6.334   4.250
10945TIP3    H232781   3.825   6.383   4.365
10946TIP3   OH232782   7.127   3.807   5.405
10946TIP3    H132783   7.087   3.828   5.320
10946TIP3    H232784   7.130   3.711   5.407
10947TIP3   OH232785   5.978   1.197   4.484
10947TIP3    H132786   6.041   1.191   4.555
10947TIP3    H232787   5.979   1.111   4.443
10948TIP3   OH232788   3.236   2.618   3.080
10948TIP3    H132789   3.270   2.707   3.074
10948TIP3    H232790   3.196   2.613   3.166
10949TIP3   OH232791   6.623   6.863   6.729
10949TIP3    H132792   6.597   6.954   6.746
10949TIP3    H232793   6.542   6.813   6.738
10950TIP3   OH232794   5.024   0.157   4.716
10950TIP3    H132795   4.960   0.105   4.667
10950TIP3    H232796   5.035   0.236   4.664
10951TIP3   OH232797   6.074   0.190   2.665
10951TIP3    H132798   6.040   0.155   2.583
10951TIP3    H232799   6.003   0.178   2.728
10952TIP3   OH232800   1.072   2.008   3.735
10952TIP3    H132801   1.117   1.925   3.748
10952TIP3    H232802   1.019   2.020   3.814
10953TIP3   OH232803   6.998   5.673   6.476
10953TIP3    H132804   6.962   5.589   6.504
10953TIP3    H232805   7.076   5.650   6.426
10954TIP3   OH232806   5.263   4.253   5.193
10954TIP3    H132807   5.337   4.307   5.223
10954TIP3    H232808   5.208   4.243   5.271
10955TIP3   OH232809   6.454   0.752   3.485
10955TIP3    H132810   6.443   0.745   3.390
10955TIP3    H232811   6.461   0.846   3.502
10956TIP3   OH232812   2.700   5.156   1.140
10956TIP3    H132813   2.774   5.097   1.126
10956TIP3    H232814   2.703   5.176   1.234
10957TIP3   OH232815   6.788   1.036   4.363
10957TIP3    H132816   6.740   0.992   4.433
10957TIP3    H232817   6.722   1.051   4.295
10958TIP3   OH232818   7.941   4.294   2.941
10958TIP3    H132819   8.034   4.290   2.964
10958TIP3    H232820   7.896   4.268   3.021
10959TIP3   OH232821   4.515   0.099   5.949
10959TIP3    H132822   4.512   0.066   5.859
10959TIP3    H232823   4.570   0.036   5.996
10960TIP3   OH232824   3.414   0.750   1.268
10960TIP3    H132825   3.323   0.737   1.243
10960TIP3    H232826   3.439   0.669   1.313
10961TIP3   OH232827   1.094   6.513   2.470
10961TIP3    H132828   1.080   6.454   2.396
10961TIP3    H232829   1.179   6.488   2.505
10962TIP3   OH232830   6.717   2.779   0.486
10962TIP3    H132831   6.649   2.789   0.420
10962TIP3    H232832   6.763   2.863   0.485
10963TIP3   OH232833   6.709   3.356   0.805
10963TIP3    H132834   6.638   3.351   0.741
10963TIP3    H232835   6.733   3.265   0.821
10964TIP3   OH232836   3.599   3.889   0.367
10964TIP3    H132837   3.691   3.864   0.358
10964TIP3    H232838   3.572   3.850   0.450
10965TIP3   OH232839   8.118   3.632   3.380
10965TIP3    H132840   8.063   3.708   3.399
10965TIP3    H232841   8.064   3.557   3.406
10966TIP3   OH232842   7.419   7.587   0.993
10966TIP3    H132843   7.407   7.494   1.010
10966TIP3    H232844   7.469   7.619   1.068
10967TIP3   OH232845   5.279   7.286   1.298
10967TIP3    H132846   5.339   7.262   1.368
10967TIP3    H232847   5.236   7.366   1.328
10968TIP3   OH232848   4.702   5.645   3.728
10968TIP3    H132849   4.660   5.680   3.649
10968TIP3    H232850   4.781   5.601   3.696
10969TIP3   OH232851   5.205   1.513   3.735
10969TIP3    H132852   5.195   1.578   3.665
10969TIP3    H232853   5.214   1.565   3.815
10970TIP3   OH232854   1.419   0.078   4.967
10970TIP3    H132855   1.384   0.014   5.030
10970TIP3    H232856   1.502   0.042   4.938
10971TIP3   OH232857   0.028   6.944   4.182
10971TIP3    H132858   0.024   6.937   4.278
10971TIP3    H232859  -0.043   6.888   4.151
10972TIP3   OH232860   4.848   6.510   4.532
10972TIP3    H132861   4.778   6.445   4.530
10972TIP3    H232862   4.845   6.546   4.621
10973TIP3   OH232863   7.449   2.697   2.414
10973TIP3    H132864   7.428   2.789   2.431
10973TIP3    H232865   7.529   2.681   2.463
10974TIP3   OH232866   3.207   4.097   2.497
10974TIP3    H132867   3.126   4.046   2.487
10974TIP3    H232868   3.227   4.127   2.408
10975TIP3   OH232869   0.609   3.964   3.180
10975TIP3    H132870   0.514   3.950   3.176
10975TIP3    H232871   0.619   4.045   3.228
10976TIP3   OH232872   0.375   1.207   3.655
10976TIP3    H132873   0.287   1.243   3.643
10976TIP3    H232874   0.403   1.239   3.741
10977TIP3   OH232875   0.809   4.589   3.371
10977TIP3    H132876   0.872   4.626   3.308
10977TIP3    H232877   0.724   4.597   3.328
10978TIP3   OH232878   4.829   2.351   1.597
10978TIP3    H132879   4.791   2.432   1.628
10978TIP3    H232880   4.922   2.359   1.617
10979TIP3   OH232881   5.103   1.734   2.942
10979TIP3    H132882   5.068   1.752   2.854
10979TIP3    H232883   5.026   1.740   2.999
10980TIP3   OH232884   1.506   2.229   3.279
10980TIP3    H132885   1.416   2.206   3.255
10980TIP3    H232886   1.536   2.286   3.208
10981TIP3   OH232887   4.261   2.822   2.734
10981TIP3    H132888   4.348   2.792   2.760
10981TIP3    H232889   4.211   2.741   2.721
10982TIP3   OH232890   0.465   3.837   5.220
10982TIP3    H132891   0.371   3.828   5.237
10982TIP3    H232892   0.481   3.783   5.143
10983TIP3   OH232893   5.757   4.974   5.652
10983TIP3    H132894   5.765   5.057   5.699
10983TIP3    H232895   5.757   4.999   5.560
10984TIP3   OH232896   4.105   3.236   5.537
10984TIP3    H132897   4.146   3.150   5.545
10984TIP3    H232898   4.089   3.263   5.628
10985TIP3   OH232899   2.990   3.340   5.579
10985TIP3    H132900   3.047   3.332   5.502
10985TIP3    H232901   2.902   3.328   5.545
10986TIP3   OH232902   2.188   5.504   4.588
10986TIP3    H132903   2.163   5.455   4.667
10986TIP3    H232904   2.134   5.582   4.590
10987TIP3   OH232905   5.189   2.692   4.392
10987TIP3    H132906   5.212   2.763   4.452
10987TIP3    H232907   5.101   2.715   4.362
10988TIP3   OH232908   7.560   4.664   4.922
10988TIP3    H132909   7.607   4.632   4.999
10988TIP3    H232910   7.468   4.659   4.947
10989TIP3   OH232911   7.693   3.905   0.698
10989TIP3    H132912   7.738   3.955   0.630
10989TIP3    H232913   7.611   3.953   0.712
10990TIP3   OH232914   4.994   4.615   4.992
10990TIP3    H132915   5.052   4.684   4.960
10990TIP3    H232916   4.908   4.635   4.955
10991TIP3   OH232917   4.029   7.446   6.493
10991TIP3    H132918   3.940   7.441   6.530
10991TIP3    H232919   4.032   7.373   6.430
10992TIP3   OH232920   7.976   7.294   3.733
10992TIP3    H132921   8.011   7.259   3.816
10992TIP3    H232922   7.940   7.379   3.756
10993TIP3   OH232923   3.328   3.626   0.194
10993TIP3    H132924   3.283   3.670   0.266
10993TIP3    H232925   3.387   3.564   0.236
10994TIP3   OH232926   2.718   0.788   2.574
10994TIP3    H132927   2.717   0.851   2.646
10994TIP3    H232928   2.747   0.838   2.498
10995TIP3   OH232929   3.614   2.459   4.004
10995TIP3    H132930   3.608   2.382   4.061
10995TIP3    H232931   3.660   2.427   3.926
10996TIP3   OH232932   5.169   1.629   0.267
10996TIP3    H132933   5.227   1.596   0.335
10996TIP3    H232934   5.081   1.612   0.300
10997TIP3   OH232935   7.867   5.865   5.983
10997TIP3    H132936   7.804   5.917   5.933
10997TIP3    H232937   7.894   5.795   5.923
10998TIP3   OH232938   4.824   6.913   1.736
10998TIP3    H132939   4.789   6.998   1.712
10998TIP3    H232940   4.794   6.854   1.666
10999TIP3   OH232941   5.471   0.124   5.386
10999TIP3    H132942   5.518   0.173   5.453
10999TIP3    H232943   5.538   0.099   5.323
11000TIP3   OH232944   2.282   6.699   0.633
11000TIP3    H132945   2.289   6.648   0.714
11000TIP3    H232946   2.306   6.788   0.658
11001TIP3   OH232947   1.104   6.716   5.123
11001TIP3    H132948   1.151   6.723   5.206
11001TIP3    H232949   1.107   6.623   5.101
11002TIP3   OH232950   2.002   3.609   2.481
11002TIP3    H132951   1.927   3.616   2.540
11002TIP3    H232952   1.993   3.682   2.421
11003TIP3   OH232953   5.913   0.153   4.215
11003TIP3    H132954   5.924   0.199   4.132
11003TIP3    H232955   5.992   0.174   4.265
11004TIP3   OH232956   7.468   5.048   2.530
11004TIP3    H132957   7.401   5.035   2.463
11004TIP3    H232958   7.451   4.979   2.595
11005TIP3   OH232959   3.676   1.328   6.624
11005TIP3    H132960   3.698   1.287   6.708
11005TIP3    H232961   3.643   1.414   6.647
11006TIP3   OH232962   4.971   6.979   4.038
11006TIP3    H132963   4.914   7.034   4.091
11006TIP3    H232964   5.019   7.040   3.982
11007TIP3   OH232965   4.307   3.039   0.871
11007TIP3    H132966   4.316   3.016   0.779
11007TIP3    H232967   4.225   3.089   0.875
11008TIP3   OH232968   5.470   2.955   5.058
11008TIP3    H132969   5.561   2.952   5.088
11008TIP3    H232970   5.470   2.901   4.979
11009TIP3   OH232971   4.809   3.524   3.055
11009TIP3    H132972   4.721   3.553   3.081
11009TIP3    H232973   4.799   3.432   3.032
11010TIP3   OH232974   7.142   5.227   1.859
11010TIP3    H132975   7.156   5.279   1.939
11010TIP3    H232976   7.129   5.293   1.790
11011TIP3   OH232977   8.013   4.102   1.518
11011TIP3    H132978   8.019   4.018   1.563
11011TIP3    H232979   7.920   4.114   1.502
11012TIP3   OH232980   1.853   6.960   5.807
11012TIP3    H132981   1.847   7.021   5.881
11012TIP3    H232982   1.946   6.959   5.785
11013TIP3   OH232983   1.820   7.301   3.888
11013TIP3    H132984   1.822   7.365   3.816
11013TIP3    H232985   1.731   7.266   3.887
11014TIP3   OH232986   3.560   0.919   1.082
11014TIP3    H132987   3.601   0.845   1.038
11014TIP3    H232988   3.482   0.883   1.124
11015TIP3   OH232989   7.613   7.437   6.341
11015TIP3    H132990   7.608   7.444   6.245
11015TIP3    H232991   7.683   7.497   6.365
11016TIP3   OH232992   0.146   5.627   6.459
11016TIP3    H132993   0.212   5.634   6.390
11016TIP3    H232994   0.162   5.542   6.499
11017TIP3   OH232995   1.270   4.844   3.387
11017TIP3    H132996   1.251   4.784   3.316
11017TIP3    H232997   1.316   4.791   3.452
11018TIP3   OH232998   3.384   6.262   2.545
11018TIP3    H132999   3.343   6.211   2.614
11018TIP3    H233000   3.451   6.204   2.509
11019TIP3   OH233001   0.197   4.423   1.164
11019TIP3    H133002   0.186   4.478   1.087
11019TIP3    H233003   0.108   4.413   1.200
11020TIP3   OH233004   6.727   7.256   1.568
11020TIP3    H133005   6.652   7.281   1.622
11020TIP3    H233006   6.688   7.225   1.486
11021TIP3   OH233007   2.091   2.427   1.457
11021TIP3    H133008   2.171   2.429   1.404
11021TIP3    H233009   2.032   2.488   1.413
11022TIP3   OH233010   6.014   1.268   5.501
11022TIP3    H133011   5.963   1.263   5.421
11022TIP3    H233012   6.104   1.279   5.472
11023TIP3   OH233013   3.886   4.485   0.689
11023TIP3    H133014   3.948   4.434   0.637
11023TIP3    H233015   3.881   4.438   0.772
11024TIP3   OH233016   3.262   7.101   5.675
11024TIP3    H133017   3.251   7.051   5.756
11024TIP3    H233018   3.310   7.043   5.617
11025TIP3   OH233019   1.923   2.328   3.991
11025TIP3    H133020   1.828   2.327   3.973
11025TIP3    H233021   1.947   2.235   3.990
11026TIP3   OH233022   6.713   3.031   6.168
11026TIP3    H133023   6.773   3.036   6.093
11026TIP3    H233024   6.679   3.120   6.177
11027TIP3   OH233025   7.991   3.108   3.005
11027TIP3    H133026   8.061   3.140   3.062
11027TIP3    H233027   7.982   3.175   2.938
11028TIP3   OH233028   1.832   0.499   2.554
11028TIP3    H133029   1.856   0.587   2.524
11028TIP3    H233030   1.884   0.440   2.499
11029TIP3   OH233031   6.322   5.867   3.256
11029TIP3    H133032   6.368   5.879   3.172
11029TIP3    H233033   6.358   5.935   3.313
11030TIP3   OH233034   8.186   0.460   1.726
11030TIP3    H133035   8.241   0.538   1.740
11030TIP3    H233036   8.247   0.387   1.728
11031TIP3   OH233037   6.891   0.787   4.851
11031TIP3    H133038   6.947   0.760   4.779
11031TIP3    H233039   6.921   0.734   4.925
11032TIP3   OH233040   6.755   6.528   5.813
11032TIP3    H133041   6.743   6.553   5.722
11032TIP3    H233042   6.691   6.580   5.861
11033TIP3   OH233043   4.948   5.848   0.427
11033TIP3    H133044   5.015   5.914   0.406
11033TIP3    H233045   4.919   5.871   0.516
11034TIP3   OH233046   7.030   4.496   5.881
11034TIP3    H133047   7.028   4.563   5.949
11034TIP3    H233048   7.036   4.545   5.799
11035TIP3   OH233049   2.137   1.587   3.541
11035TIP3    H133050   2.094   1.526   3.481
11035TIP3    H233051   2.088   1.668   3.532
11036TIP3   OH233052   2.063   3.509   0.547
11036TIP3    H133053   2.149   3.466   0.548
11036TIP3    H233054   2.011   3.457   0.486
11037TIP3   OH233055   2.814   6.946   3.280
11037TIP3    H133056   2.733   6.896   3.270
11037TIP3    H233057   2.832   6.943   3.374
11038TIP3   OH233058   3.218   7.653   4.426
11038TIP3    H133059   3.132   7.689   4.401
11038TIP3    H233060   3.236   7.587   4.359
11039TIP3   OH233061   5.041   0.431   4.285
11039TIP3    H133062   5.003   0.507   4.242
11039TIP3    H233063   5.136   0.444   4.280
11040TIP3   OH233064   7.708   6.998   3.157
11040TIP3    H133065   7.657   7.059   3.211
11040TIP3    H233066   7.715   7.042   3.073
11041TIP3   OH233067   3.969   0.785   6.438
11041TIP3    H133068   4.059   0.802   6.466
11041TIP3    H233069   3.932   0.730   6.507
11042TIP3   OH233070   3.296   3.163   1.021
11042TIP3    H133071   3.240   3.239   1.009
11042TIP3    H233072   3.264   3.122   1.102
11043TIP3   OH233073   2.784   2.089   4.731
11043TIP3    H133074   2.715   2.023   4.732
11043TIP3    H233075   2.843   2.061   4.661
11044TIP3   OH233076   4.528   5.375   2.582
11044TIP3    H133077   4.447   5.326   2.599
11044TIP3    H233078   4.507   5.466   2.604
11045TIP3   OH233079   2.981   4.343   1.514
11045TIP3    H133080   3.076   4.336   1.504
11045TIP3    H233081   2.961   4.434   1.495
11046TIP3   OH233082   0.667   1.381   0.183
11046TIP3    H133083   0.588   1.398   0.235
11046TIP3    H233084   0.708   1.467   0.173
11047TIP3   OH233085   6.265   7.310   3.816
11047TIP3    H133086   6.243   7.377   3.751
11047TIP3    H233087   6.184   7.298   3.865
11048TIP3   OH233088   2.290   1.276   2.461
11048TIP3    H133089   2.267   1.183   2.462
11048TIP3    H233090   2.313   1.297   2.551
11049TIP3   OH233091   7.078   7.857   5.289
11049TIP3    H133092   7.083   7.772   5.245
11049TIP3    H233093   7.013   7.846   5.357
11050TIP3   OH233094   2.650   2.003   3.682
11050TIP3    H133095   2.641   2.050   3.764
11050TIP3    H233096   2.607   1.919   3.697
11051TIP3   OH233097   4.943   2.166   2.965
11051TIP3    H133098   4.897   2.152   3.048
11051TIP3    H233099   4.925   2.257   2.942
11052TIP3   OH233100   2.415   2.148   2.505
11052TIP3    H133101   2.424   2.078   2.569
11052TIP3    H233102   2.503   2.161   2.471
11053TIP3   OH233103   5.853   0.253   6.218
11053TIP3    H133104   5.873   0.298   6.136
11053TIP3    H233105   5.938   0.244   6.261
11054TIP3   OH233106   0.057   5.690   0.128
11054TIP3    H133107   0.151   5.697   0.144
11054TIP3    H233108   0.031   5.777   0.099
11055TIP3   OH233109   6.993   5.192   0.405
11055TIP3    H133110   7.087   5.187   0.421
11055TIP3    H233111   6.961   5.103   0.418
11056TIP3   OH233112   8.211   1.880   0.853
11056TIP3    H133113   8.169   1.811   0.801
11056TIP3    H233114   8.140   1.940   0.874
11057TIP3   OH233115   0.728   1.283   2.371
11057TIP3    H133116   0.775   1.242   2.298
11057TIP3    H233117   0.793   1.291   2.441
11058TIP3   OH233118   2.908   5.723   6.076
11058TIP3    H133119   2.955   5.713   5.994
11058TIP3    H233120   2.930   5.811   6.106
11059TIP3   OH233121   1.637   3.477   3.783
11059TIP3    H133122   1.691   3.552   3.809
11059TIP3    H233123   1.676   3.446   3.702
11060TIP3   OH233124   4.807   2.473   4.105
11060TIP3    H133125   4.754   2.536   4.155
11060TIP3    H233126   4.754   2.394   4.103
11061TIP3   OH233127   6.750   5.582   0.625
11061TIP3    H133128   6.826   5.524   0.619
11061TIP3    H233129   6.776   5.661   0.578
11062TIP3   OH233130   0.747   7.309   2.644
11062TIP3    H133131   0.802   7.236   2.671
11062TIP3    H233132   0.702   7.336   2.725
11063TIP3   OH233133   6.904   6.829   5.420
11063TIP3    H133134   6.956   6.814   5.341
11063TIP3    H233135   6.845   6.900   5.397
11064TIP3   OH233136   1.685   6.014   0.901
11064TIP3    H133137   1.743   5.939   0.889
11064TIP3    H233138   1.728   6.085   0.852
11065TIP3   OH233139   6.784   6.510   3.423
11065TIP3    H133140   6.817   6.480   3.507
11065TIP3    H233141   6.689   6.500   3.429
11066TIP3   OH233142   0.292   6.864   1.459
11066TIP3    H133143   0.316   6.792   1.400
11066TIP3    H233144   0.287   6.941   1.402
11067TIP3   OH233145   2.709   7.279   4.904
11067TIP3    H133146   2.658   7.214   4.856
11067TIP3    H233147   2.702   7.252   4.996
11068TIP3   OH233148   1.851   3.992   6.193
11068TIP3    H133149   1.895   4.051   6.255
11068TIP3    H233150   1.897   3.909   6.202
11069TIP3   OH233151   7.704   2.741   0.468
11069TIP3    H133152   7.620   2.704   0.439
11069TIP3    H233153   7.767   2.715   0.401
11070TIP3   OH233154   7.164   6.001   6.446
11070TIP3    H133155   7.142   5.968   6.359
11070TIP3    H233156   7.245   5.957   6.469
11071TIP3   OH233157   0.501   1.744   2.773
11071TIP3    H133158   0.430   1.740   2.708
11071TIP3    H233159   0.470   1.690   2.845
11072TIP3   OH233160   5.861   3.155   3.341
11072TIP3    H133161   5.823   3.077   3.382
11072TIP3    H233162   5.914   3.195   3.410
11073TIP3   OH233163   2.589   4.059   3.484
11073TIP3    H133164   2.622   4.064   3.574
11073TIP3    H233165   2.617   4.141   3.444
11074TIP3   OH233166   2.426   2.636   5.682
11074TIP3    H133167   2.519   2.613   5.682
11074TIP3    H233168   2.399   2.626   5.590
11075TIP3   OH233169   1.173   7.360   2.144
11075TIP3    H133170   1.188   7.412   2.064
11075TIP3    H233171   1.172   7.269   2.114
11076TIP3   OH233172   8.259   3.481   0.506
11076TIP3    H133173   8.207   3.501   0.583
11076TIP3    H233174   8.213   3.524   0.434
11077TIP3   OH233175   1.119   1.325   1.984
11077TIP3    H133176   1.190   1.354   2.040
11077TIP3    H233177   1.162   1.281   1.911
11078TIP3   OH233178   6.641   5.137   4.310
11078TIP3    H133179   6.629   5.214   4.254
11078TIP3    H233180   6.674   5.069   4.251
11079TIP3   OH233181   2.762   5.443   4.388
11079TIP3    H133182   2.823   5.385   4.342
11079TIP3    H233183   2.722   5.495   4.319
11080TIP3   OH233184   1.517   6.410   5.794
11080TIP3    H133185   1.500   6.391   5.701
11080TIP3    H233186   1.465   6.345   5.841
11081TIP3   OH233187   0.568   3.925   4.877
11081TIP3    H133188   0.563   4.004   4.931
11081TIP3    H233189   0.602   3.955   4.793
11082TIP3   OH233190   0.876   5.324   3.971
11082TIP3    H133191   0.822   5.300   3.896
11082TIP3    H233192   0.966   5.317   3.940
11083TIP3   OH233193   5.943   3.196   0.478
11083TIP3    H133194   6.037   3.198   0.495
11083TIP3    H233195   5.905   3.152   0.554
11084TIP3   OH233196   3.964   5.614   5.048
11084TIP3    H133197   3.998   5.590   4.962
11084TIP3    H233198   4.026   5.575   5.110
11085TIP3   OH233199   4.371   2.928   1.231
11085TIP3    H133200   4.455   2.973   1.229
11085TIP3    H233201   4.389   2.841   1.193
11086TIP3   OH233202   4.972   1.990   4.523
11086TIP3    H133203   4.939   2.047   4.593
11086TIP3    H233204   5.013   2.050   4.461
11087TIP3   OH233205   0.458   5.660   4.376
11087TIP3    H133206   0.552   5.653   4.394
11087TIP3    H233207   0.430   5.569   4.363
11088TIP3   OH233208   2.417   0.907   3.189
11088TIP3    H133209   2.424   0.937   3.280
11088TIP3    H233210   2.372   0.979   3.144
11089TIP3   OH233211   5.690   4.758   2.539
11089TIP3    H133212   5.773   4.711   2.535
11089TIP3    H233213   5.651   4.745   2.452
11090TIP3   OH233214   7.536   4.864   3.586
11090TIP3    H133215   7.549   4.831   3.497
11090TIP3    H233216   7.469   4.807   3.623
11091TIP3   OH233217   7.805   6.897   0.240
11091TIP3    H133218   7.754   6.969   0.201
11091TIP3    H233219   7.867   6.873   0.172
11092TIP3   OH233220   1.471   0.773   6.688
11092TIP3    H133221   1.476   0.678   6.697
11092TIP3    H233222   1.561   0.803   6.697
11093TIP3   OH233223   2.390   6.458   3.661
11093TIP3    H133224   2.471   6.411   3.681
11093TIP3    H233225   2.414   6.518   3.590
11094TIP3   OH233226   5.481   5.287   5.847
11094TIP3    H133227   5.468   5.379   5.868
11094TIP3    H233228   5.456   5.241   5.928
11095TIP3   OH233229   3.774   6.828   5.256
11095TIP3    H133230   3.806   6.916   5.275
11095TIP3    H233231   3.829   6.797   5.185
11096TIP3   OH233232   1.776   3.339   5.431
11096TIP3    H133233   1.837   3.331   5.503
11096TIP3    H233234   1.831   3.337   5.352
11097TIP3   OH233235   8.148   3.613   6.007
11097TIP3    H133236   8.240   3.628   5.985
11097TIP3    H233237   8.100   3.675   5.952
11098TIP3   OH233238   7.208   4.871   0.553
11098TIP3    H133239   7.175   4.803   0.612
11098TIP3    H233240   7.294   4.840   0.526
11099TIP3   OH233241   2.120   2.362   4.632
11099TIP3    H133242   2.199   2.317   4.605
11099TIP3    H233243   2.053   2.333   4.570
11100TIP3   OH233244   6.141   1.623   0.755
11100TIP3    H133245   6.067   1.588   0.705
11100TIP3    H233246   6.157   1.558   0.823
11101TIP3   OH233247   4.462   6.397   0.844
11101TIP3    H133248   4.543   6.396   0.794
11101TIP3    H233249   4.424   6.483   0.826
11102TIP3   OH233250   4.049   6.905   2.574
11102TIP3    H133251   3.989   6.965   2.530
11102TIP3    H233252   4.109   6.876   2.505
11103TIP3   OH233253   4.942   0.874   1.951
11103TIP3    H133254   4.948   0.787   1.912
11103TIP3    H233255   5.032   0.905   1.955
11104TIP3   OH233256   2.483   5.616   1.564
11104TIP3    H133257   2.568   5.599   1.523
11104TIP3    H233258   2.459   5.533   1.606
11105TIP3   OH233259   4.719   7.124   0.471
11105TIP3    H133260   4.642   7.156   0.518
11105TIP3    H233261   4.772   7.202   0.454
11106TIP3   OH233262   2.207   3.790   1.731
11106TIP3    H133263   2.243   3.850   1.797
11106TIP3    H233264   2.177   3.848   1.661
11107TIP3   OH233265   4.477   2.990   2.488
11107TIP3    H133266   4.382   3.002   2.499
11107TIP3    H233267   4.492   3.007   2.395
11108TIP3   OH233268   2.989   3.827   2.693
11108TIP3    H133269   2.954   3.901   2.743
11108TIP3    H233270   3.034   3.773   2.758
11109TIP3   OH233271   4.259   6.308   6.234
11109TIP3    H133272   4.257   6.317   6.329
11109TIP3    H233273   4.351   6.292   6.214
11110TIP3   OH233274   7.802   3.215   6.673
11110TIP3    H133275   7.833   3.276   6.739
11110TIP3    H233276   7.829   3.253   6.590
11111TIP3   OH233277   8.018   4.982   3.924
11111TIP3    H133278   8.006   5.076   3.913
11111TIP3    H233279   7.973   4.961   4.006
11112TIP3   OH233280   2.038   2.217   3.442
11112TIP3    H133281   2.084   2.186   3.521
11112TIP3    H233282   2.038   2.312   3.451
11113TIP3   OH233283   3.755   5.098   4.771
11113TIP3    H133284   3.754   5.003   4.769
11113TIP3    H233285   3.746   5.120   4.864
11114TIP3   OH233286   5.164   3.811   1.714
11114TIP3    H133287   5.071   3.830   1.702
11114TIP3    H233288   5.202   3.893   1.744
11115TIP3   OH233289   7.730   0.339   4.481
11115TIP3    H133290   7.707   0.309   4.394
11115TIP3    H233291   7.673   0.414   4.497
11116TIP3   OH233292   0.536   4.333   0.483
11116TIP3    H133293   0.560   4.293   0.566
11116TIP3    H233294   0.495   4.262   0.433
11117TIP3   OH233295   0.009   0.375   5.682
11117TIP3    H133296   0.094   0.347   5.648
11117TIP3    H233297   0.023   0.466   5.709
11118TIP3   OH233298   3.514   0.612   3.223
11118TIP3    H133299   3.473   0.527   3.240
11118TIP3    H233300   3.524   0.615   3.128
11119TIP3   OH233301   7.727   0.360   1.561
11119TIP3    H133302   7.670   0.436   1.567
11119TIP3    H233303   7.796   0.376   1.625
11120TIP3   OH233304   0.248   4.893   2.355
11120TIP3    H133305   0.236   4.870   2.447
11120TIP3    H233306   0.173   4.852   2.311
11121TIP3   OH233307   1.688   0.391   1.626
11121TIP3    H133308   1.671   0.406   1.533
11121TIP3    H233309   1.751   0.459   1.650
11122TIP3   OH233310   6.604   2.152   4.400
11122TIP3    H133311   6.647   2.131   4.483
11122TIP3    H233312   6.655   2.104   4.335
11123TIP3   OH233313   7.727   1.412   1.636
11123TIP3    H133314   7.677   1.421   1.718
11123TIP3    H233315   7.814   1.384   1.664
11124TIP3   OH233316   0.422   5.494   5.740
11124TIP3    H133317   0.403   5.448   5.822
11124TIP3    H233318   0.473   5.431   5.689
11125TIP3   OH233319   6.573   0.218   6.191
11125TIP3    H133320   6.519   0.150   6.232
11125TIP3    H233321   6.536   0.300   6.223
11126TIP3   OH233322   7.297   0.893   3.876
11126TIP3    H133323   7.378   0.889   3.927
11126TIP3    H233324   7.324   0.872   3.787
11127TIP3   OH233325   4.742   6.782   3.480
11127TIP3    H133326   4.733   6.806   3.572
11127TIP3    H233327   4.792   6.700   3.481
11128TIP3   OH233328   0.974   5.601   3.831
11128TIP3    H133329   1.052   5.646   3.800
11128TIP3    H233330   0.986   5.510   3.804
11129TIP3   OH233331   3.047   7.610   5.427
11129TIP3    H133332   3.050   7.515   5.417
11129TIP3    H233333   3.122   7.642   5.377
11130TIP3   OH233334   7.741   4.573   0.425
11130TIP3    H133335   7.750   4.550   0.517
11130TIP3    H233336   7.765   4.665   0.421
11131TIP3   OH233337   4.358   2.605   6.247
11131TIP3    H133338   4.435   2.547   6.243
11131TIP3    H233339   4.297   2.569   6.182
11132TIP3   OH233340   0.323   0.378   2.659
11132TIP3    H133341   0.364   0.339   2.581
11132TIP3    H233342   0.396   0.392   2.719
11133TIP3   OH233343   4.848   5.248   4.107
11133TIP3    H133344   4.837   5.226   4.199
11133TIP3    H233345   4.809   5.335   4.097
11134TIP3   OH233346   1.654   1.778   1.848
11134TIP3    H133347   1.612   1.836   1.911
11134TIP3    H233348   1.593   1.774   1.774
11135TIP3   OH233349   7.639   0.977   3.059
11135TIP3    H133350   7.676   0.891   3.078
11135TIP3    H233351   7.547   0.959   3.040
11136TIP3   OH233352   7.633   0.467   6.328
11136TIP3    H133353   7.670   0.476   6.240
11136TIP3    H233354   7.540   0.450   6.313
11137TIP3   OH233355   3.623   2.709   3.250
11137TIP3    H133356   3.587   2.623   3.229
11137TIP3    H233357   3.548   2.759   3.283
11138TIP3   OH233358   1.318   3.180   2.205
11138TIP3    H133359   1.296   3.175   2.112
11138TIP3    H233360   1.404   3.221   2.207
11139TIP3   OH233361   6.103   1.904   6.692
11139TIP3    H133362   6.122   1.825   6.743
11139TIP3    H233363   6.057   1.872   6.615
11140TIP3   OH233364   3.445   1.157   4.685
11140TIP3    H133365   3.527   1.108   4.680
11140TIP3    H233366   3.471   1.246   4.710
11141TIP3   OH233367   1.241   2.992   2.683
11141TIP3    H133368   1.220   2.909   2.727
11141TIP3    H233369   1.336   2.999   2.690
11142TIP3   OH233370   3.274   2.392   5.264
11142TIP3    H133371   3.241   2.471   5.221
11142TIP3    H233372   3.235   2.320   5.215
11143TIP3   OH233373   6.181   7.347   1.498
11143TIP3    H133374   6.224   7.327   1.415
11143TIP3    H233375   6.237   7.412   1.540
11144TIP3   OH233376   3.132   3.752   5.840
11144TIP3    H133377   3.124   3.842   5.871
11144TIP3    H233378   3.221   3.727   5.865
11145TIP3   OH233379   3.456   2.994   2.870
11145TIP3    H133380   3.363   2.993   2.895
11145TIP3    H233381   3.499   2.944   2.939
11146TIP3   OH233382   4.572   2.248   0.550
11146TIP3    H133383   4.584   2.162   0.510
11146TIP3    H233384   4.535   2.230   0.636
11147TIP3   OH233385   1.607   6.123   5.034
11147TIP3    H133386   1.633   6.136   5.125
11147TIP3    H233387   1.609   6.028   5.021
11148TIP3   OH233388   4.506   6.560   1.947
11148TIP3    H133389   4.427   6.512   1.972
11148TIP3    H233390   4.503   6.639   2.000
11149TIP3   OH233391   4.420   5.650   2.596
11149TIP3    H133392   4.472   5.729   2.581
11149TIP3    H233393   4.359   5.648   2.523
11150TIP3   OH233394   0.871   6.432   3.901
11150TIP3    H133395   0.791   6.483   3.890
11150TIP3    H233396   0.901   6.414   3.812
11151TIP3   OH233397   6.796   5.060   5.869
11151TIP3    H133398   6.765   5.115   5.941
11151TIP3    H233399   6.730   4.992   5.861
11152TIP3   OH233400   2.510   5.082   0.189
11152TIP3    H133401   2.440   5.109   0.248
11152TIP3    H233402   2.505   4.987   0.187
11153TIP3   OH233403   4.902   7.273   5.848
11153TIP3    H133404   4.990   7.302   5.826
11153TIP3    H233405   4.901   7.179   5.829
11154TIP3   OH233406   6.170   1.957   3.465
11154TIP3    H133407   6.190   1.983   3.555
11154TIP3    H233408   6.146   1.864   3.472
11155TIP3   OH233409   6.518   7.493   6.474
11155TIP3    H133410   6.503   7.423   6.538
11155TIP3    H233411   6.430   7.517   6.444
11156TIP3   OH233412   4.227   3.985   2.860
11156TIP3    H133413   4.323   3.995   2.860
11156TIP3    H233414   4.195   4.065   2.903
11157TIP3   OH233415   3.618   0.577   2.238
11157TIP3    H133416   3.639   0.564   2.146
11157TIP3    H233417   3.613   0.489   2.275
11158TIP3   OH233418   3.479   2.852   0.496
11158TIP3    H133419   3.487   2.860   0.401
11158TIP3    H233420   3.565   2.820   0.525
11159TIP3   OH233421   4.867   6.901   0.633
11159TIP3    H133422   4.835   6.961   0.565
11159TIP3    H233423   4.940   6.947   0.674
11160TIP3   OH233424   2.305   3.556   5.783
11160TIP3    H133425   2.366   3.621   5.749
11160TIP3    H233426   2.244   3.606   5.836
11161TIP3   OH233427   2.951   2.219   6.336
11161TIP3    H133428   3.012   2.150   6.360
11161TIP3    H233429   2.866   2.187   6.367
11162TIP3   OH233430   4.414   7.345   4.081
11162TIP3    H133431   4.376   7.432   4.071
11162TIP3    H233432   4.363   7.304   4.152
11163TIP3   OH233433   2.479   4.156   1.896
11163TIP3    H133434   2.467   4.177   1.989
11163TIP3    H233435   2.551   4.094   1.894
11164TIP3   OH233436   2.383   6.176   1.404
11164TIP3    H133437   2.401   6.107   1.468
11164TIP3    H233438   2.319   6.137   1.344
11165TIP3   OH233439   4.919   5.560   2.878
11165TIP3    H133440   4.963   5.481   2.847
11165TIP3    H233441   4.984   5.604   2.932
11166TIP3   OH233442   0.923   5.921   4.132
11166TIP3    H133443   0.862   5.948   4.201
11166TIP3    H233444   0.918   5.991   4.067
11167TIP3   OH233445   2.335   5.714   1.322
11167TIP3    H133446   2.278   5.782   1.358
11167TIP3    H233447   2.363   5.663   1.398
11168TIP3   OH233448   0.795   3.081   6.482
11168TIP3    H133449   0.881   3.116   6.503
11168TIP3    H233450   0.739   3.158   6.471
11169TIP3   OH233451   2.329   7.188   4.771
11169TIP3    H133452   2.314   7.105   4.726
11169TIP3    H233453   2.266   7.188   4.843
11170TIP3   OH233454   6.530   0.342   3.911
11170TIP3    H133455   6.577   0.405   3.857
11170TIP3    H233456   6.552   0.365   4.001
11171TIP3   OH233457   2.467   1.012   4.105
11171TIP3    H133458   2.389   1.055   4.070
11171TIP3    H233459   2.437   0.968   4.185
11172TIP3   OH233460   8.000   2.644   4.710
11172TIP3    H133461   8.048   2.569   4.747
11172TIP3    H233462   8.009   2.634   4.616
11173TIP3   OH233463   0.900   0.158   0.770
11173TIP3    H133464   0.823   0.214   0.783
11173TIP3    H233465   0.949   0.167   0.852
11174TIP3   OH233466   3.578   3.493   0.373
11174TIP3    H133467   3.629   3.412   0.384
11174TIP3    H233468   3.570   3.527   0.462
11175TIP3   OH233469   6.515   6.173   2.472
11175TIP3    H133470   6.424   6.146   2.479
11175TIP3    H233471   6.527   6.192   2.379
11176TIP3   OH233472   1.239   5.895   1.079
11176TIP3    H133473   1.289   5.844   1.016
11176TIP3    H233474   1.149   5.893   1.046
11177TIP3   OH233475   5.669   2.504   3.454
11177TIP3    H133476   5.593   2.488   3.399
11177TIP3    H233477   5.637   2.496   3.544
11178TIP3   OH233478   4.552   6.829   4.842
11178TIP3    H133479   4.537   6.799   4.931
11178TIP3    H233480   4.512   6.916   4.839
11179TIP3   OH233481   6.851   0.177   4.265
11179TIP3    H133482   6.837   0.262   4.308
11179TIP3    H233483   6.822   0.112   4.330
11180TIP3   OH233484   3.668   3.444   4.791
11180TIP3    H133485   3.667   3.525   4.841
11180TIP3    H233486   3.580   3.408   4.802
11181TIP3   OH233487   1.635   5.184   0.969
11181TIP3    H133488   1.596   5.248   1.028
11181TIP3    H233489   1.716   5.225   0.939
11182TIP3   OH233490   3.212   6.682   3.976
11182TIP3    H133491   3.277   6.618   4.005
11182TIP3    H233492   3.131   6.632   3.968
11183TIP3   OH233493   7.075   1.982   2.148
11183TIP3    H133494   7.138   1.937   2.091
11183TIP3    H233495   6.996   1.991   2.094
11184TIP3   OH233496   6.506   5.940   3.057
11184TIP3    H133497   6.530   5.929   2.965
11184TIP3    H233498   6.582   5.909   3.106
11185TIP3   OH233499   2.743   2.988   3.086
11185TIP3    H133500   2.680   2.917   3.071
11185TIP3    H233501   2.828   2.950   3.063
11186TIP3   OH233502   4.850   2.960   3.296
11186TIP3    H133503   4.813   2.959   3.208
11186TIP3    H233504   4.775   2.977   3.354
11187TIP3   OH233505   0.758   6.206   2.769
11187TIP3    H133506   0.785   6.271   2.704
11187TIP3    H233507   0.664   6.219   2.778
11188TIP3   OH233508   1.515   2.302   6.115
11188TIP3    H133509   1.480   2.390   6.100
11188TIP3    H233510   1.448   2.258   6.167
11189TIP3   OH233511   3.089   0.486   0.562
11189TIP3    H133512   3.135   0.468   0.480
11189TIP3    H233513   3.078   0.581   0.563
11190TIP3   OH233514   7.265   4.597   1.762
11190TIP3    H133515   7.305   4.520   1.722
11190TIP3    H233516   7.291   4.670   1.706
11191TIP3   OH233517   6.824   7.258   0.693
11191TIP3    H133518   6.736   7.230   0.716
11191TIP3    H233519   6.881   7.193   0.733
11192TIP3   OH233520   4.394   4.327   2.566
11192TIP3    H133521   4.412   4.234   2.557
11192TIP3    H233522   4.448   4.355   2.639
11193TIP3   OH233523   7.597   7.006   3.620
11193TIP3    H133524   7.684   7.034   3.589
11193TIP3    H233525   7.616   6.947   3.693
11194TIP3   OH233526   6.856   1.495   5.754
11194TIP3    H133527   6.825   1.410   5.724
11194TIP3    H233528   6.907   1.529   5.681
11195TIP3   OH233529   7.197   1.080   0.509
11195TIP3    H133530   7.256   1.008   0.487
11195TIP3    H233531   7.181   1.071   0.603
11196TIP3   OH233532   6.685   2.117   1.534
11196TIP3    H133533   6.676   2.040   1.477
11196TIP3    H233534   6.645   2.090   1.616
11197TIP3   OH233535   1.176   5.810   1.378
11197TIP3    H133536   1.221   5.727   1.364
11197TIP3    H233537   1.207   5.866   1.307
11198TIP3   OH233538   2.553   6.248   1.200
11198TIP3    H133539   2.489   6.224   1.267
11198TIP3    H233540   2.532   6.191   1.126
11199TIP3   OH233541   1.719   3.095   5.664
11199TIP3    H133542   1.739   3.114   5.756
11199TIP3    H233543   1.782   3.149   5.615
11200TIP3   OH233544   7.455   0.603   3.581
11200TIP3    H133545   7.505   0.638   3.507
11200TIP3    H233546   7.506   0.628   3.658
11201TIP3   OH233547   7.883   0.984   5.912
11201TIP3    H133548   7.822   0.977   5.986
11201TIP3    H233549   7.842   0.933   5.842
11202TIP3   OH233550   4.996   3.530   4.212
11202TIP3    H133551   4.905   3.550   4.191
11202TIP3    H233552   4.998   3.435   4.223
11203TIP3   OH233553   3.039   5.508   5.300
11203TIP3    H133554   3.009   5.594   5.330
11203TIP3    H233555   2.958   5.458   5.285
11204TIP3   OH233556   6.723   1.251   5.729
11204TIP3    H133557   6.660   1.278   5.795
11204TIP3    H233558   6.770   1.178   5.770
11205TIP3   OH233559   7.422   6.435   4.474
11205TIP3    H133560   7.510   6.395   4.477
11205TIP3    H233561   7.372   6.385   4.539
11206TIP3   OH233562   5.768   6.592   3.907
11206TIP3    H133563   5.861   6.612   3.914
11206TIP3    H233564   5.724   6.676   3.918
11207TIP3   OH233565   0.902   6.467   4.952
11207TIP3    H133566   0.922   6.555   4.920
11207TIP3    H233567   0.817   6.476   4.995
11208TIP3   OH233568   3.520   0.194   0.433
11208TIP3    H133569   3.518   0.288   0.416
11208TIP3    H233570   3.519   0.188   0.529
11209TIP3   OH233571   2.172   4.089   6.040
11209TIP3    H133572   2.135   4.165   5.994
11209TIP3    H233573   2.247   4.063   5.986
11210TIP3   OH233574   3.489   2.938   3.935
11210TIP3    H133575   3.512   2.858   3.983
11210TIP3    H233576   3.463   2.907   3.849
11211TIP3   OH233577   3.706   7.394   5.873
11211TIP3    H133578   3.654   7.474   5.871
11211TIP3    H233579   3.705   7.368   5.966
11212TIP3   OH233580   6.445   1.026   3.513
11212TIP3    H133581   6.445   1.098   3.575
11212TIP3    H233582   6.483   1.062   3.433
11213TIP3   OH233583   6.805   1.120   1.759
11213TIP3    H133584   6.792   1.025   1.765
11213TIP3    H233585   6.785   1.141   1.668
11214TIP3   OH233586   0.110   0.607   3.445
11214TIP3    H133587   0.108   0.536   3.510
11214TIP3    H233588   0.155   0.569   3.370
11215TIP3   OH233589   4.783   7.735   5.478
11215TIP3    H133590   4.794   7.770   5.389
11215TIP3    H233591   4.688   7.724   5.488
11216TIP3   OH233592   0.578   0.348   3.299
11216TIP3    H133593   0.519   0.292   3.249
11216TIP3    H233594   0.665   0.309   3.287
11217TIP3   OH233595   1.969   1.849   5.412
11217TIP3    H133596   2.020   1.919   5.371
11217TIP3    H233597   1.992   1.854   5.505
11218TIP3   OH233598   6.160   5.197   3.327
11218TIP3    H133599   6.114   5.152   3.257
11218TIP3    H233600   6.137   5.289   3.316
11219TIP3   OH233601   0.059   1.769   3.129
11219TIP3    H133602  -0.020   1.757   3.077
11219TIP3    H233603   0.120   1.816   3.071
11220TIP3   OH233604   3.910   3.644   3.687
11220TIP3    H133605   3.829   3.597   3.667
11220TIP3    H233606   3.974   3.575   3.707
11221TIP3   OH233607   4.683   3.432   6.260
11221TIP3    H133608   4.675   3.397   6.171
11221TIP3    H233609   4.775   3.418   6.283
11222TIP3   OH233610   5.553   2.678   4.942
11222TIP3    H133611   5.577   2.604   4.886
11222TIP3    H233612   5.636   2.721   4.961
11223TIP3   OH233613   0.501   5.885   6.293
11223TIP3    H133614   0.454   5.811   6.253
11223TIP3    H233615   0.481   5.879   6.386
11224TIP3   OH233616   4.879   7.103   4.414
11224TIP3    H133617   4.966   7.122   4.447
11224TIP3    H233618   4.882   7.127   4.322
11225TIP3   OH233619   0.158   1.828   2.010
11225TIP3    H133620   0.164   1.923   2.004
11225TIP3    H233621   0.078   1.806   1.961
11226TIP3   OH233622   0.070   4.509   0.859
11226TIP3    H133623   0.006   4.449   0.898
11226TIP3    H233624   0.034   4.528   0.773
11227TIP3   OH233625   1.991   5.120   2.720
11227TIP3    H133626   2.010   5.173   2.798
11227TIP3    H233627   2.070   5.127   2.666
11228TIP3   OH233628   2.958   0.734   2.739
11228TIP3    H133629   2.977   0.806   2.799
11228TIP3    H233630   2.897   0.772   2.675
11229TIP3   OH233631   3.985   3.720   4.508
11229TIP3    H133632   3.920   3.790   4.513
11229TIP3    H233633   3.937   3.640   4.530
11230TIP3   OH233634   1.928   4.727   0.814
11230TIP3    H133635   1.960   4.793   0.752
11230TIP3    H233636   1.907   4.651   0.760
11231TIP3   OH233637   3.471   4.152   0.053
11231TIP3    H133638   3.510   4.236   0.077
11231TIP3    H233639   3.399   4.140   0.115
11232TIP3   OH233640   4.356   3.295   1.169
11232TIP3    H133641   4.341   3.277   1.076
11232TIP3    H233642   4.435   3.245   1.190
11233TIP3   OH233643   6.824   4.655   1.780
11233TIP3    H133644   6.762   4.663   1.852
11233TIP3    H233645   6.888   4.724   1.796
11234TIP3   OH233646   5.385   0.438   2.614
11234TIP3    H133647   5.369   0.429   2.520
11234TIP3    H233648   5.363   0.353   2.651
11235TIP3   OH233649   5.484   3.115   1.460
11235TIP3    H133650   5.557   3.163   1.422
11235TIP3    H233651   5.513   3.096   1.550
11236TIP3   OH233652   1.314   6.532   4.110
11236TIP3    H133653   1.357   6.590   4.047
11236TIP3    H233654   1.380   6.467   4.133
11237TIP3   OH233655   5.228   1.830   4.255
11237TIP3    H133656   5.303   1.785   4.218
11237TIP3    H233657   5.261   1.916   4.279
11238TIP3   OH233658   8.116   5.483   4.661
11238TIP3    H133659   8.137   5.506   4.751
11238TIP3    H233660   8.027   5.447   4.666
11239TIP3   OH233661   7.749   0.723   6.502
11239TIP3    H133662   7.802   0.672   6.441
11239TIP3    H233663   7.809   0.744   6.574
11240TIP3   OH233664   5.749   5.664   4.234
11240TIP3    H133665   5.665   5.625   4.211
11240TIP3    H233666   5.729   5.753   4.261
11241TIP3   OH233667   1.351   1.665   6.341
11241TIP3    H133668   1.431   1.700   6.300
11241TIP3    H233669   1.279   1.703   6.290
11242TIP3   OH233670   3.283   5.275   6.245
11242TIP3    H133671   3.269   5.189   6.285
11242TIP3    H233672   3.276   5.259   6.151
11243TIP3   OH233673   2.239   3.519   5.184
11243TIP3    H133674   2.210   3.470   5.108
11243TIP3    H233675   2.302   3.462   5.228
11244TIP3   OH233676   5.939   1.846   2.817
11244TIP3    H133677   5.883   1.782   2.773
11244TIP3    H233678   5.893   1.867   2.898
11245TIP3   OH233679   6.664   6.380   5.202
11245TIP3    H133680   6.704   6.422   5.278
11245TIP3    H233681   6.643   6.453   5.143
11246TIP3   OH233682   0.475   4.326   4.825
11246TIP3    H133683   0.479   4.315   4.920
11246TIP3    H233684   0.422   4.405   4.813
11247TIP3   OH233685   4.671   1.317   6.665
11247TIP3    H133686   4.681   1.242   6.724
11247TIP3    H233687   4.645   1.389   6.721
11248TIP3   OH233688   5.416   6.942   2.999
11248TIP3    H133689   5.337   6.953   3.052
11248TIP3    H233690   5.399   6.992   2.920
11249TIP3   OH233691   6.240   2.571   1.184
11249TIP3    H133692   6.231   2.514   1.260
11249TIP3    H233693   6.191   2.650   1.206
11250TIP3   OH233694   4.851   0.896   4.991
11250TIP3    H133695   4.834   0.947   5.070
11250TIP3    H233696   4.856   0.805   5.022
11251TIP3   OH233697   7.812   4.678   3.490
11251TIP3    H133698   7.746   4.617   3.522
11251TIP3    H233699   7.813   4.748   3.555
11252TIP3   OH233700   4.596   0.921   2.382
11252TIP3    H133701   4.653   0.876   2.320
11252TIP3    H233702   4.620   1.013   2.375
11253TIP3   OH233703   6.705   0.595   0.808
11253TIP3    H133704   6.758   0.674   0.798
11253TIP3    H233705   6.649   0.594   0.730
11254TIP3   OH233706   4.877   7.745   1.413
11254TIP3    H133707   4.922   7.723   1.495
11254TIP3    H233708   4.891   7.839   1.404
11255TIP3   OH233709   2.335   4.789   1.186
11255TIP3    H133710   2.318   4.790   1.092
11255TIP3    H233711   2.321   4.880   1.214
11256TIP3   OH233712   1.008   3.265   5.313
11256TIP3    H133713   1.081   3.215   5.276
11256TIP3    H233714   1.015   3.250   5.408
11257TIP3   OH233715   4.580   6.492   5.139
11257TIP3    H133716   4.575   6.530   5.227
11257TIP3    H233717   4.531   6.554   5.084
11258TIP3   OH233718   3.668   3.012   1.750
11258TIP3    H133719   3.651   2.948   1.820
11258TIP3    H233720   3.717   3.082   1.794
11259TIP3   OH233721   3.974   3.454   5.732
11259TIP3    H133722   4.009   3.538   5.702
11259TIP3    H233723   4.048   3.410   5.773
11260TIP3   OH233724   2.133   0.160   4.386
11260TIP3    H133725   2.111   0.240   4.338
11260TIP3    H233726   2.109   0.179   4.476
11261TIP3   OH233727   7.244   0.624   5.501
11261TIP3    H133728   7.229   0.668   5.585
11261TIP3    H233729   7.320   0.567   5.518
11262TIP3   OH233730   4.753   6.763   4.010
11262TIP3    H133731   4.831   6.814   4.031
11262TIP3    H233732   4.686   6.795   4.069
11263TIP3   OH233733   3.084   5.956   2.356
11263TIP3    H133734   3.145   5.994   2.292
11263TIP3    H233735   3.036   5.890   2.307
11264TIP3   OH233736   1.256   6.014   0.763
11264TIP3    H133737   1.167   6.024   0.730
11264TIP3    H233738   1.268   6.088   0.822
11265TIP3   OH233739   0.419   0.695   4.835
11265TIP3    H133740   0.440   0.707   4.927
11265TIP3    H233741   0.323   0.695   4.832
11266TIP3   OH233742   5.103   4.235   1.163
11266TIP3    H133743   5.161   4.285   1.220
11266TIP3    H233744   5.137   4.145   1.166
11267TIP3   OH233745   0.897   6.803   1.801
11267TIP3    H133746   0.848   6.773   1.877
11267TIP3    H233747   0.846   6.773   1.726
11268TIP3   OH233748   1.266   4.236   3.998
11268TIP3    H133749   1.341   4.192   4.039
11268TIP3    H233750   1.210   4.164   3.970
11269TIP3   OH233751   4.808   1.370   0.549
11269TIP3    H133752   4.885   1.354   0.604
11269TIP3    H233753   4.842   1.419   0.474
11270TIP3   OH233754   4.429   1.462   3.566
11270TIP3    H133755   4.491   1.443   3.637
11270TIP3    H233756   4.481   1.453   3.486
11271TIP3   OH233757   3.351   1.921   2.246
11271TIP3    H133758   3.440   1.943   2.221
11271TIP3    H233759   3.320   1.998   2.294
11272TIP3   OH233760   0.250   4.364   0.130
11272TIP3    H133761   0.325   4.372   0.190
11272TIP3    H233762   0.207   4.282   0.155
11273TIP3   OH233763   1.009   7.699   3.112
11273TIP3    H133764   0.943   7.671   3.176
11273TIP3    H233765   1.092   7.675   3.153
11274TIP3   OH233766   6.124   6.045   3.420
11274TIP3    H133767   6.038   6.083   3.439
11274TIP3    H233768   6.170   6.112   3.370
11275TIP3   OH233769   2.671   0.921   3.951
11275TIP3    H133770   2.713   1.008   3.945
11275TIP3    H233771   2.594   0.936   4.006
11276TIP3   OH233772   1.299   4.510   1.799
11276TIP3    H133773   1.342   4.426   1.808
11276TIP3    H233774   1.292   4.523   1.704
11277TIP3   OH233775   6.174   6.924   4.660
11277TIP3    H133776   6.092   6.962   4.691
11277TIP3    H233777   6.160   6.910   4.566
11278TIP3   OH233778   4.799   1.171   3.564
11278TIP3    H133779   4.866   1.185   3.630
11278TIP3    H233780   4.719   1.209   3.601
11279TIP3   OH233781   4.958   5.742   5.266
11279TIP3    H133782   4.899   5.795   5.212
11279TIP3    H233783   5.045   5.768   5.238
11280TIP3   OH233784   2.863   4.628   0.736
11280TIP3    H133785   2.830   4.713   0.767
11280TIP3    H233786   2.836   4.625   0.644
11281TIP3   OH233787   3.649   0.354   4.960
11281TIP3    H133788   3.555   0.342   4.947
11281TIP3    H233789   3.684   0.265   4.966
11282TIP3   OH233790   5.270   4.338   1.504
11282TIP3    H133791   5.299   4.247   1.492
11282TIP3    H233792   5.292   4.382   1.422
11283TIP3   OH233793   1.495   5.000   3.361
11283TIP3    H133794   1.541   4.957   3.434
11283TIP3    H233795   1.407   4.962   3.363
11284TIP3   OH233796   1.014   7.407   4.061
11284TIP3    H133797   1.064   7.392   4.142
11284TIP3    H233798   1.016   7.323   4.016
11285TIP3   OH233799   1.991   2.094   4.819
11285TIP3    H133800   1.974   2.120   4.909
11285TIP3    H233801   1.951   2.006   4.811
11286TIP3   OH233802   0.831   5.824   3.287
11286TIP3    H133803   0.825   5.786   3.199
11286TIP3    H233804   0.847   5.917   3.272
11287TIP3   OH233805   4.929   6.075   1.255
11287TIP3    H133806   5.002   6.077   1.193
11287TIP3    H233807   4.859   6.030   1.208
11288TIP3   OH233808   4.660   1.772   0.485
11288TIP3    H133809   4.603   1.705   0.446
11288TIP3    H233810   4.696   1.730   0.563
11289TIP3   OH233811   6.284   6.914   1.296
11289TIP3    H133812   6.363   6.893   1.245
11289TIP3    H233813   6.318   6.952   1.377
11290TIP3   OH233814   7.118   4.455   4.287
11290TIP3    H133815   7.148   4.535   4.331
11290TIP3    H233816   7.197   4.415   4.251
11291TIP3   OH233817   5.673   2.943   3.866
11291TIP3    H133818   5.593   2.982   3.831
11291TIP3    H233819   5.662   2.946   3.961
11292TIP3   OH233820   1.846   3.870   1.906
11292TIP3    H133821   1.933   3.830   1.897
11292TIP3    H233822   1.824   3.898   1.817
11293TIP3   OH233823   6.946   2.359   1.085
11293TIP3    H133824   6.965   2.406   1.004
11293TIP3    H233825   7.028   2.315   1.108
11294TIP3   OH233826   5.912   1.574   3.067
11294TIP3    H133827   5.896   1.576   3.161
11294TIP3    H233828   5.836   1.618   3.029
11295TIP3   OH233829   2.980   6.093   2.580
11295TIP3    H133830   2.990   6.024   2.514
11295TIP3    H233831   2.886   6.106   2.587
11296TIP3   OH233832   5.960   5.115   5.156
11296TIP3    H133833   6.054   5.103   5.147
11296TIP3    H233834   5.935   5.169   5.081
11297TIP3   OH233835   7.399   1.625   5.240
11297TIP3    H133836   7.408   1.694   5.174
11297TIP3    H233837   7.488   1.611   5.273
11298TIP3   OH233838   2.093   7.458   1.462
11298TIP3    H133839   2.087   7.408   1.543
11298TIP3    H233840   2.098   7.549   1.490
11299TIP3   OH233841   0.378   3.284   3.892
11299TIP3    H133842   0.291   3.273   3.930
11299TIP3    H233843   0.382   3.376   3.867
11300TIP3   OH233844   5.978   5.760   4.010
11300TIP3    H133845   5.967   5.821   4.083
11300TIP3    H233846   5.890   5.729   3.991
11301TIP3   OH233847   2.655   0.786   4.516
11301TIP3    H133848   2.671   0.699   4.553
11301TIP3    H233849   2.692   0.847   4.580
11302TIP3   OH233850   2.576   3.054   5.344
11302TIP3    H133851   2.540   3.070   5.257
11302TIP3    H233852   2.610   2.965   5.341
11303TIP3   OH233853   7.116   2.195   0.632
11303TIP3    H133854   7.032   2.151   0.619
11303TIP3    H233855   7.181   2.126   0.615
11304TIP3   OH233856   5.193   5.823   2.831
11304TIP3    H133857   5.255   5.777   2.888
11304TIP3    H233858   5.177   5.762   2.759
11305TIP3   OH233859   5.152   2.347   2.506
11305TIP3    H133860   5.095   2.417   2.472
11305TIP3    H233861   5.092   2.281   2.539
11306TIP3   OH233862   4.284   0.251   2.775
11306TIP3    H133863   4.210   0.234   2.718
11306TIP3    H233864   4.276   0.344   2.798
11307TIP3   OH233865   0.212   4.393   5.071
11307TIP3    H133866   0.177   4.349   4.993
11307TIP3    H233867   0.290   4.343   5.094
11308TIP3   OH233868   5.623   1.615   5.548
11308TIP3    H133869   5.618   1.521   5.531
11308TIP3    H233870   5.546   1.652   5.504
11309TIP3   OH233871   7.299   3.858   0.475
11309TIP3    H133872   7.216   3.849   0.522
11309TIP3    H233873   7.308   3.777   0.425
11310TIP3   OH233874   2.530   3.002   3.812
11310TIP3    H133875   2.436   3.011   3.830
11310TIP3    H233876   2.542   2.910   3.789
11311TIP3   OH233877   3.428   0.726   0.912
11311TIP3    H133878   3.460   0.775   0.837
11311TIP3    H233879   3.341   0.762   0.929
11312TIP3   OH233880   2.108   3.863   2.719
11312TIP3    H133881   2.184   3.918   2.700
11312TIP3    H233882   2.064   3.853   2.635
11313TIP3   OH233883   3.632   4.082   2.938
11313TIP3    H133884   3.598   4.139   2.869
11313TIP3    H233885   3.727   4.081   2.924
11314TIP3   OH233886   4.134   0.849   5.764
11314TIP3    H133887   4.141   0.759   5.794
11314TIP3    H233888   4.223   0.874   5.739
11315TIP3   OH233889   3.835   0.942   6.175
11315TIP3    H133890   3.761   0.959   6.116
11315TIP3    H233891   3.909   0.923   6.116
11316TIP3   OH233892   4.544   5.141   5.486
11316TIP3    H133893   4.552   5.054   5.448
11316TIP3    H233894   4.480   5.131   5.556
11317TIP3   OH233895   2.367   2.192   2.825
11317TIP3    H133896   2.458   2.172   2.802
11317TIP3    H233897   2.371   2.214   2.918
11318TIP3   OH233898   7.696   6.096   0.057
11318TIP3    H133899   7.712   6.012   0.014
11318TIP3    H233900   7.606   6.119   0.033
11319TIP3   OH233901   7.370   3.982   5.896
11319TIP3    H133902   7.387   4.039   5.821
11319TIP3    H233903   7.296   4.023   5.941
11320TIP3   OH233904   2.134   5.369   3.415
11320TIP3    H133905   2.165   5.430   3.482
11320TIP3    H233906   2.124   5.286   3.461
11321TIP3   OH233907   6.698   4.775   5.103
11321TIP3    H133908   6.697   4.808   5.013
11321TIP3    H233909   6.750   4.695   5.099
11322TIP3   OH233910   3.296   1.113   1.981
11322TIP3    H133911   3.278   1.022   1.956
11322TIP3    H233912   3.230   1.134   2.046
11323TIP3   OH233913   1.987   3.877   2.441
11323TIP3    H133914   1.995   3.972   2.447
11323TIP3    H233915   2.021   3.855   2.354
11324TIP3   OH233916   1.332   1.171   4.311
11324TIP3    H133917   1.345   1.245   4.251
11324TIP3    H233918   1.383   1.195   4.389
11325TIP3   OH233919   7.434   2.555   3.566
11325TIP3    H133920   7.408   2.634   3.614
11325TIP3    H233921   7.463   2.495   3.634
11326TIP3   OH233922   0.029   3.318   2.249
11326TIP3    H133923   0.051   3.294   2.339
11326TIP3    H233924   0.019   3.234   2.204
11327TIP3   OH233925   7.951   7.646   0.758
11327TIP3    H133926   7.989   7.567   0.794
11327TIP3    H233927   7.873   7.616   0.710
11328TIP3   OH233928   3.665   7.312   3.203
11328TIP3    H133929   3.656   7.341   3.112
11328TIP3    H233930   3.759   7.314   3.219
11329TIP3   OH233931   1.416   0.294   1.001
11329TIP3    H133932   1.502   0.335   0.992
11329TIP3    H233933   1.354   0.356   0.963
11330TIP3   OH233934   0.235   2.717   6.349
11330TIP3    H133935   0.234   2.623   6.333
11330TIP3    H233936   0.278   2.726   6.434
11331TIP3   OH233937   4.087   0.229   6.086
11331TIP3    H133938   4.136   0.281   6.149
11331TIP3    H233939   4.136   0.239   6.004
11332TIP3   OH233940   7.926   1.827   6.098
11332TIP3    H133941   7.928   1.732   6.106
11332TIP3    H233942   7.837   1.847   6.069
11333TIP3   OH233943   4.752   0.561   0.173
11333TIP3    H133944   4.710   0.619   0.110
11333TIP3    H233945   4.679   0.530   0.228
11334TIP3   OH233946   8.110   5.930   3.255
11334TIP3    H133947   8.124   5.836   3.245
11334TIP3    H233948   8.086   5.941   3.347
11335TIP3   OH233949   0.961   3.389   1.546
11335TIP3    H133950   1.016   3.446   1.493
11335TIP3    H233951   0.893   3.358   1.485
11336TIP3   OH233952   5.320   1.946   6.546
11336TIP3    H133953   5.286   1.911   6.628
11336TIP3    H233954   5.362   1.872   6.503
11337TIP3   OH233955   2.860   4.850   6.424
11337TIP3    H133956   2.823   4.762   6.421
11337TIP3    H233957   2.875   4.866   6.517
11338TIP3   OH233958   2.318   4.483   1.006
11338TIP3    H133959   2.383   4.531   1.058
11338TIP3    H233960   2.323   4.523   0.919
11339TIP3   OH233961   6.651   3.359   5.726
11339TIP3    H133962   6.657   3.263   5.718
11339TIP3    H233963   6.691   3.392   5.646
11340TIP3   OH233964   3.921   1.494   2.467
11340TIP3    H133965   3.835   1.452   2.477
11340TIP3    H233966   3.922   1.525   2.376
11341TIP3   OH233967   6.495   1.851   5.795
11341TIP3    H133968   6.464   1.794   5.724
11341TIP3    H233969   6.457   1.813   5.874
11342TIP3   OH233970   1.933   4.650   3.542
11342TIP3    H133971   1.837   4.641   3.541
11342TIP3    H233972   1.960   4.603   3.621
11343TIP3   OH233973   5.557   6.108   2.742
11343TIP3    H133974   5.542   6.028   2.793
11343TIP3    H233975   5.630   6.086   2.684
11344TIP3   OH233976   8.344   2.224   6.701
11344TIP3    H133977   8.261   2.231   6.655
11344TIP3    H233978   8.322   2.183   6.784
11345TIP3   OH233979   6.172   2.435   3.481
11345TIP3    H133980   6.259   2.476   3.484
11345TIP3    H233981   6.189   2.342   3.491
11346TIP3   OH233982   4.270   7.757   6.230
11346TIP3    H133983   4.251   7.710   6.148
11346TIP3    H233984   4.196   7.737   6.287
11347TIP3   OH233985   2.431   2.444   2.614
11347TIP3    H133986   2.372   2.371   2.632
11347TIP3    H233987   2.435   2.449   2.518
11348TIP3   OH233988   5.760   4.678   5.470
11348TIP3    H133989   5.804   4.595   5.490
11348TIP3    H233990   5.697   4.690   5.542
11349TIP3   OH233991   8.181   0.049   1.221
11349TIP3    H133992   8.179   0.024   1.314
11349TIP3    H233993   8.203  -0.031   1.175
11350TIP3   OH233994   1.646   6.659   2.986
11350TIP3    H133995   1.569   6.639   2.933
11350TIP3    H233996   1.632   6.750   3.015
11351TIP3   OH233997   7.152   7.309   0.419
11351TIP3    H133998   7.244   7.323   0.442
11351TIP3    H233999   7.154   7.255   0.340
11352TIP3   OH234000   0.723   4.683   2.946
11352TIP3    H134001   0.778   4.761   2.944
11352TIP3    H234002   0.639   4.712   2.910
11353TIP3   OH234003   3.839   7.351   1.910
11353TIP3    H134004   3.856   7.439   1.942
11353TIP3    H234005   3.751   7.355   1.873
11354TIP3   OH234006   5.641   3.040   2.094
11354TIP3    H134007   5.610   3.130   2.082
11354TIP3    H234008   5.574   2.986   2.052
11355TIP3   OH234009   1.233   2.207   4.612
11355TIP3    H134010   1.216   2.155   4.533
11355TIP3    H234011   1.306   2.264   4.589
11356TIP3   OH234012   4.405   0.490   6.480
11356TIP3    H134013   4.486   0.504   6.432
11356TIP3    H234014   4.425   0.415   6.537
11357TIP3   OH234015   5.366   6.505   0.997
11357TIP3    H134016   5.276   6.532   0.976
11357TIP3    H234017   5.397   6.571   1.059
11358TIP3   OH234018   6.740   6.181   2.935
11358TIP3    H134019   6.688   6.171   2.855
11358TIP3    H234020   6.678   6.216   2.999
11359TIP3   OH234021   0.345   3.272   4.308
11359TIP3    H134022   0.280   3.222   4.257
11359TIP3    H234023   0.355   3.222   4.389
11360TIP3   OH234024   5.867   7.084   0.910
11360TIP3    H134025   5.862   7.173   0.877
11360TIP3    H234026   5.798   7.037   0.863
11361TIP3   OH234027   8.045   2.865   4.866
11361TIP3    H134028   8.017   2.776   4.846
11361TIP3    H234029   8.033   2.873   4.960
11362TIP3   OH234030   7.124   7.669   5.044
11362TIP3    H134031   7.158   7.590   5.003
11362TIP3    H234032   7.198   7.730   5.043
11363TIP3   OH234033   0.553   0.814   5.094
11363TIP3    H134034   0.498   0.764   5.154
11363TIP3    H234035   0.574   0.894   5.142
11364TIP3   OH234036   5.438   2.675   6.685
11364TIP3    H134037   5.430   2.630   6.601
11364TIP3    H234038   5.530   2.698   6.691
11365TIP3   OH234039   3.640   2.048   1.455
11365TIP3    H134040   3.568   2.092   1.500
11365TIP3    H234041   3.605   1.962   1.432
11366TIP3   OH234042   4.248   4.071   0.528
11366TIP3    H134043   4.211   4.140   0.472
11366TIP3    H234044   4.327   4.043   0.481
11367TIP3   OH234045   0.471   7.424   6.338
11367TIP3    H134046   0.383   7.392   6.354
11367TIP3    H234047   0.522   7.345   6.319
11368TIP3   OH234048   6.628   6.596   4.981
11368TIP3    H134049   6.629   6.691   4.993
11368TIP3    H234050   6.712   6.575   4.941
11369TIP3   OH234051   2.576   3.466   3.157
11369TIP3    H134052   2.551   3.379   3.190
11369TIP3    H234053   2.498   3.497   3.111
11370TIP3   OH234054   4.711   4.903   5.841
11370TIP3    H134055   4.789   4.904   5.896
11370TIP3    H234056   4.694   4.995   5.821
11371TIP3   OH234057   3.930   4.937   0.149
11371TIP3    H134058   4.024   4.921   0.156
11371TIP3    H234059   3.893   4.851   0.131
11372TIP3   OH234060   7.438   0.325   6.592
11372TIP3    H134061   7.425   0.259   6.660
11372TIP3    H234062   7.514   0.295   6.542
11373TIP3   OH234063   3.928   6.338   1.258
11373TIP3    H134064   3.866   6.279   1.215
11373TIP3    H234065   3.999   6.281   1.287
11374TIP3   OH234066   0.668   5.616   3.448
11374TIP3    H134067   0.725   5.652   3.381
11374TIP3    H234068   0.673   5.521   3.436
11375TIP3   OH234069   2.460   0.526   2.859
11375TIP3    H134070   2.481   0.592   2.924
11375TIP3    H234071   2.506   0.554   2.780
11376TIP3   OH234072   0.607   2.780   0.129
11376TIP3    H134073   0.585   2.855   0.183
11376TIP3    H234074   0.700   2.789   0.111
11377TIP3   OH234075   2.131   2.133   2.418
11377TIP3    H134076   2.222   2.132   2.447
11377TIP3    H234077   2.088   2.069   2.474
11378TIP3   OH234078   0.723   0.955   0.056
11378TIP3    H134079   0.755   0.872   0.091
11378TIP3    H234080   0.656   0.983   0.119
11379TIP3   OH234081   7.538   6.483   3.864
11379TIP3    H134082   7.487   6.524   3.934
11379TIP3    H234083   7.551   6.392   3.894
11380TIP3   OH234084   7.013   4.563   3.836
11380TIP3    H134085   7.052   4.513   3.908
11380TIP3    H234086   6.925   4.585   3.868
11381TIP3   OH234087   3.148   7.182   5.036
11381TIP3    H134088   3.136   7.115   5.103
11381TIP3    H234089   3.137   7.135   4.953
11382TIP3   OH234090   2.337   3.739   4.162
11382TIP3    H134091   2.365   3.705   4.078
11382TIP3    H234092   2.385   3.687   4.227
11383TIP3   OH234093   6.303   3.219   5.742
11383TIP3    H134094   6.395   3.196   5.758
11383TIP3    H234095   6.254   3.142   5.772
11384TIP3   OH234096   6.999   1.611   1.364
11384TIP3    H134097   7.077   1.556   1.359
11384TIP3    H234098   7.000   1.661   1.282
11385TIP3   OH234099   5.667   0.235   1.654
11385TIP3    H134100   5.714   0.268   1.730
11385TIP3    H234101   5.637   0.314   1.608
11386TIP3   OH234102   7.759   2.056   5.504
11386TIP3    H134103   7.732   1.980   5.454
11386TIP3    H234104   7.740   2.131   5.446
11387TIP3   OH234105   6.913   6.255   0.344
11387TIP3    H134106   6.938   6.341   0.377
11387TIP3    H234107   6.996   6.213   0.320
11388TIP3   OH234108   5.165   2.013   1.675
11388TIP3    H134109   5.243   2.067   1.669
11388TIP3    H234110   5.195   1.923   1.658
11389TIP3   OH234111   7.290   4.315   1.202
11389TIP3    H134112   7.337   4.274   1.275
11389TIP3    H234113   7.234   4.380   1.244
11390TIP3   OH234114   7.643   0.689   3.128
11390TIP3    H134115   7.567   0.653   3.083
11390TIP3    H234116   7.718   0.659   3.077
11391TIP3   OH234117   8.011   2.287   4.965
11391TIP3    H134118   8.080   2.345   4.997
11391TIP3    H234119   7.955   2.343   4.911
11392TIP3   OH234120   3.020   2.085   2.079
11392TIP3    H134121   2.932   2.111   2.051
11392TIP3    H234122   3.063   2.168   2.101
11393TIP3   OH234123   0.032   0.556   2.903
11393TIP3    H134124   0.060   0.485   2.960
11393TIP3    H234125   0.036   0.634   2.959
11394TIP3   OH234126   0.828   4.164   3.059
11394TIP3    H134127   0.845   4.125   2.973
11394TIP3    H234128   0.769   4.237   3.040
11395TIP3   OH234129   6.224   7.162   2.737
11395TIP3    H134130   6.231   7.076   2.778
11395TIP3    H234131   6.313   7.198   2.741
11396TIP3   OH234132   0.008   5.677   0.947
11396TIP3    H134133  -0.003   5.603   1.007
11396TIP3    H234134   0.019   5.753   1.004
11397TIP3   OH234135   2.855   0.824   6.332
11397TIP3    H134136   2.910   0.865   6.266
11397TIP3    H234137   2.869   0.730   6.319
11398TIP3   OH234138   1.172   5.312   3.495
11398TIP3    H134139   1.178   5.263   3.412
11398TIP3    H234140   1.260   5.348   3.508
11399TIP3   OH234141   5.834   7.570   2.510
11399TIP3    H134142   5.764   7.517   2.470
11399TIP3    H234143   5.809   7.660   2.491
11400TIP3   OH234144   2.193   6.554   5.206
11400TIP3    H134145   2.132   6.480   5.204
11400TIP3    H234146   2.279   6.514   5.222
11401TIP3   OH234147   3.039   3.043   1.953
11401TIP3    H134148   2.986   3.091   2.016
11401TIP3    H234149   3.103   2.995   2.006
11402TIP3   OH234150   3.259   2.514   4.989
11402TIP3    H134151   3.322   2.576   4.953
11402TIP3    H234152   3.195   2.568   5.034
11403TIP3   OH234153   4.822   6.216   1.893
11403TIP3    H134154   4.803   6.307   1.917
11403TIP3    H234155   4.737   6.180   1.868
11404TIP3   OH234156   1.194   3.891   0.702
11404TIP3    H134157   1.234   3.977   0.704
11404TIP3    H234158   1.265   3.831   0.678
11405TIP3   OH234159   3.482   6.950   3.002
11405TIP3    H134160   3.427   6.872   2.992
11405TIP3    H234161   3.508   6.950   3.094
11406TIP3   OH234162   2.223   4.787   5.083
11406TIP3    H134163   2.191   4.711   5.033
11406TIP3    H234164   2.262   4.844   5.017
11407TIP3   OH234165   2.754   0.694   5.484
11407TIP3    H134166   2.777   0.608   5.519
11407TIP3    H234167   2.679   0.722   5.537
11408TIP3   OH234168   3.473   5.312   2.024
11408TIP3    H134169   3.417   5.372   2.074
11408TIP3    H234170   3.487   5.238   2.083
11409TIP3   OH234171   6.121   4.560   1.812
11409TIP3    H134172   6.034   4.522   1.803
11409TIP3    H234173   6.141   4.553   1.906
11410TIP3   OH234174   7.735   6.300   2.647
11410TIP3    H134175   7.695   6.289   2.561
11410TIP3    H234176   7.820   6.257   2.639
11411TIP3   OH234177   4.689   7.270   6.479
11411TIP3    H134178   4.723   7.201   6.421
11411TIP3    H234179   4.687   7.348   6.424
11412TIP3   OH234180   2.164   1.245   4.870
11412TIP3    H134181   2.191   1.163   4.913
11412TIP3    H234182   2.216   1.313   4.913
11413TIP3   OH234183   6.705   4.505   5.412
11413TIP3    H134184   6.719   4.557   5.333
11413TIP3    H234185   6.774   4.532   5.472
11414TIP3   OH234186   7.845   0.034   4.643
11414TIP3    H134187   7.915   0.099   4.647
11414TIP3    H234188   7.807   0.035   4.731
11415TIP3   OH234189   6.110   6.934   2.257
11415TIP3    H134190   6.186   6.943   2.314
11415TIP3    H234191   6.115   7.009   2.198
11416TIP3   OH234192   5.041   1.341   5.133
11416TIP3    H134193   4.999   1.418   5.094
11416TIP3    H234194   5.135   1.359   5.125
11417TIP3   OH234195   3.432   6.067   6.696
11417TIP3    H134196   3.453   6.094   6.606
11417TIP3    H234197   3.478   5.985   6.708
11418TIP3   OH234198   4.610   6.055   4.999
11418TIP3    H134199   4.543   6.062   5.067
11418TIP3    H234200   4.562   6.032   4.920
11419TIP3   OH234201   6.754   6.811   6.097
11419TIP3    H134202   6.723   6.875   6.161
11419TIP3    H234203   6.737   6.726   6.138
11420TIP3   OH234204   0.314   7.792   3.152
11420TIP3    H134205   0.250   7.729   3.121
11420TIP3    H234206   0.396   7.743   3.160
11421TIP3   OH234207   6.391   3.486   3.192
11421TIP3    H134208   6.347   3.428   3.130
11421TIP3    H234209   6.457   3.531   3.140
11422TIP3   OH234210   7.991   0.962   5.296
11422TIP3    H134211   7.966   0.935   5.207
11422TIP3    H234212   7.925   0.923   5.352
11423TIP3   OH234213   5.647   5.402   5.020
11423TIP3    H134214   5.726   5.443   4.985
11423TIP3    H234215   5.580   5.470   5.015
11424TIP3   OH234216   3.634   4.638   5.012
11424TIP3    H134217   3.571   4.709   5.001
11424TIP3    H234218   3.615   4.601   5.098
11425TIP3   OH234219   4.872   1.476   1.026
11425TIP3    H134220   4.800   1.525   0.987
11425TIP3    H234221   4.873   1.503   1.118
11426TIP3   OH234222   0.956   7.408   4.777
11426TIP3    H134223   0.863   7.390   4.765
11426TIP3    H234224   0.994   7.395   4.690
11427TIP3   OH234225   4.582   3.511   2.735
11427TIP3    H134226   4.580   3.487   2.828
11427TIP3    H234227   4.494   3.544   2.717
11428TIP3   OH234228   1.460   2.272   5.185
11428TIP3    H134229   1.448   2.240   5.096
11428TIP3    H234230   1.461   2.367   5.177
11429TIP3   OH234231   4.760   1.503   1.530
11429TIP3    H134232   4.727   1.428   1.580
11429TIP3    H234233   4.684   1.535   1.481
11430TIP3   OH234234   5.114   0.039   3.324
11430TIP3    H134235   5.176   0.025   3.252
11430TIP3    H234236   5.096   0.133   3.322
11431TIP3   OH234237   1.043   2.347   4.252
11431TIP3    H134238   1.114   2.355   4.315
11431TIP3    H234239   0.985   2.280   4.288
11432TIP3   OH234240   6.031   5.438   3.326
11432TIP3    H134241   5.936   5.452   3.330
11432TIP3    H234242   6.068   5.525   3.317
11433TIP3   OH234243   0.900   4.146   4.458
11433TIP3    H134244   0.823   4.152   4.401
11433TIP3    H234245   0.960   4.088   4.411
11434TIP3   OH234246   5.106   7.746   4.109
11434TIP3    H134247   5.103   7.658   4.148
11434TIP3    H234248   5.040   7.744   4.040
11435TIP3   OH234249   1.747   2.358   1.427
11435TIP3    H134250   1.730   2.299   1.353
11435TIP3    H234251   1.836   2.390   1.412
11436TIP3   OH234252   5.570   6.491   0.811
11436TIP3    H134253   5.533   6.502   0.724
11436TIP3    H234254   5.495   6.479   0.869
11437TIP3   OH234255   6.793   0.478   4.796
11437TIP3    H134256   6.713   0.525   4.819
11437TIP3    H234257   6.850   0.544   4.758
11438TIP3   OH234258   5.444   7.766   0.675
11438TIP3    H134259   5.376   7.742   0.614
11438TIP3    H234260   5.526   7.758   0.626
11439TIP3   OH234261   5.449   5.868   0.357
11439TIP3    H134262   5.474   5.777   0.345
11439TIP3    H234263   5.527   5.918   0.331
11440TIP3   OH234264   6.206   5.443   1.410
11440TIP3    H134265   6.173   5.469   1.325
11440TIP3    H234266   6.200   5.348   1.410
11441TIP3   OH234267   3.687   5.613   4.976
11441TIP3    H134268   3.646   5.697   4.955
11441TIP3    H234269   3.770   5.637   5.017
11442TIP3   OH234270   2.837   6.642   1.182
11442TIP3    H134271   2.878   6.573   1.131
11442TIP3    H234272   2.767   6.675   1.125
11443TIP3   OH234273   4.719   2.407   3.764
11443TIP3    H134274   4.767   2.487   3.785
11443TIP3    H234275   4.782   2.337   3.777
11444TIP3   OH234276   5.434   2.164   4.711
11444TIP3    H134277   5.372   2.229   4.678
11444TIP3    H234278   5.407   2.083   4.668
11445TIP3   OH234279   2.456   2.854   6.567
11445TIP3    H134280   2.454   2.777   6.511
11445TIP3    H234281   2.539   2.896   6.548
11446TIP3   OH234282   5.238   7.798   3.735
11446TIP3    H134283   5.256   7.767   3.646
11446TIP3    H234284   5.291   7.743   3.792
11447TIP3   OH234285   5.359   1.439   1.769
11447TIP3    H134286   5.365   1.435   1.865
11447TIP3    H234287   5.271   1.410   1.749
11448TIP3   OH234288   8.187   3.623   5.527
11448TIP3    H134289   8.115   3.646   5.468
11448TIP3    H234290   8.233   3.705   5.542
11449TIP3   OH234291   3.215   2.432   3.499
11449TIP3    H134292   3.279   2.391   3.557
11449TIP3    H234293   3.203   2.520   3.534
11450TIP3   OH234294   2.847   2.967   1.410
11450TIP3    H134295   2.845   2.876   1.440
11450TIP3    H234296   2.918   3.007   1.461
11451TIP3   OH234297   7.876   1.213   0.418
11451TIP3    H134298   7.848   1.131   0.459
11451TIP3    H234299   7.820   1.280   0.457
11452TIP3   OH234300   7.376   7.045   2.526
11452TIP3    H134301   7.344   7.132   2.550
11452TIP3    H234302   7.390   7.050   2.431
11453TIP3   OH234303   7.576   1.078   5.113
11453TIP3    H134304   7.630   1.074   5.034
11453TIP3    H234305   7.489   1.052   5.084
11454TIP3   OH234306   0.328   1.019   2.855
11454TIP3    H134307   0.260   1.078   2.886
11454TIP3    H234308   0.410   1.058   2.885
11455TIP3   OH234309   0.789   3.950   6.568
11455TIP3    H134310   0.791   3.894   6.645
11455TIP3    H234311   0.723   4.016   6.589
11456TIP3   OH234312   5.619   5.097   4.966
11456TIP3    H134313   5.625   5.190   4.988
11456TIP3    H234314   5.540   5.089   4.914
11457TIP3   OH234315   1.406   6.657   0.821
11457TIP3    H134316   1.408   6.582   0.881
11457TIP3    H234317   1.445   6.623   0.740
11458TIP3   OH234318   0.188   2.579   6.689
11458TIP3    H134319   0.256   2.644   6.674
11458TIP3    H234320   0.148   2.604   6.772
11459TIP3   OH234321   4.265   4.014   1.967
11459TIP3    H134322   4.235   3.957   1.897
11459TIP3    H234323   4.335   3.964   2.011
11460TIP3   OH234324  -0.009   4.476   0.064
11460TIP3    H134325  -0.056   4.405   0.021
11460TIP3    H234326   0.078   4.440   0.082
11461TIP3   OH234327   1.678   7.192   6.535
11461TIP3    H134328   1.729   7.272   6.523
11461TIP3    H234329   1.702   7.160   6.622
11462TIP3   OH234330   5.301   1.980   5.072
11462TIP3    H134331   5.333   1.902   5.027
11462TIP3    H234332   5.261   2.033   5.003
11463TIP3   OH234333   5.898   0.240   2.203
11463TIP3    H134334   5.979   0.262   2.157
11463TIP3    H234335   5.887   0.310   2.268
11464TIP3   OH234336   7.659   1.040   5.587
11464TIP3    H134337   7.723   1.098   5.547
11464TIP3    H234338   7.587   1.037   5.524
11465TIP3   OH234339   0.914   2.811   0.660
11465TIP3    H134340   0.940   2.720   0.672
11465TIP3    H234341   0.902   2.845   0.749
11466TIP3   OH234342   6.128   0.970   6.094
11466TIP3    H134343   6.074   0.923   6.156
11466TIP3    H234344   6.067   1.003   6.028
11467TIP3   OH234345   5.509   3.813   3.690
11467TIP3    H134346   5.450   3.768   3.750
11467TIP3    H234347   5.480   3.786   3.603
11468TIP3   OH234348   5.153   5.618   3.053
11468TIP3    H134349   5.167   5.689   3.115
11468TIP3    H234350   5.232   5.564   3.059
11469TIP3   OH234351   2.625   2.254   2.220
11469TIP3    H134352   2.554   2.317   2.210
11469TIP3    H234353   2.582   2.168   2.219
11470TIP3   OH234354   2.264   1.619   0.880
11470TIP3    H134355   2.244   1.546   0.822
11470TIP3    H234356   2.225   1.594   0.964
11471TIP3   OH234357   3.280   2.648   4.254
11471TIP3    H134358   3.191   2.671   4.281
11471TIP3    H234359   3.337   2.708   4.303
11472TIP3   OH234360   4.488   3.519   2.993
11472TIP3    H134361   4.491   3.476   3.079
11472TIP3    H234362   4.400   3.557   2.988
11473TIP3   OH234363   8.160   3.587   6.821
11473TIP3    H134364   8.082   3.631   6.786
11473TIP3    H234365   8.207   3.558   6.744
11474TIP3   OH234366   7.424   2.535   2.155
11474TIP3    H134367   7.439   2.604   2.219
11474TIP3    H234368   7.462   2.569   2.074
11475TIP3   OH234369   1.535   0.105   2.594
11475TIP3    H134370   1.538   0.010   2.580
11475TIP3    H234371   1.627   0.132   2.593
11476TIP3   OH234372   0.290   5.492   0.700
11476TIP3    H134373   0.244   5.575   0.711
11476TIP3    H234374   0.367   5.501   0.756
11477TIP3   OH234375   0.169   1.197   0.678
11477TIP3    H134376   0.145   1.213   0.769
11477TIP3    H234377   0.263   1.180   0.681
11478TIP3   OH234378   0.999   6.547   1.932
11478TIP3    H134379   0.944   6.594   1.995
11478TIP3    H234380   1.086   6.547   1.972
11479TIP3   OH234381   5.430   1.739   0.133
11479TIP3    H134382   5.342   1.742   0.172
11479TIP3    H234383   5.441   1.824   0.092
11480TIP3   OH234384   2.869   0.560   1.946
11480TIP3    H134385   2.951   0.562   1.896
11480TIP3    H234386   2.831   0.474   1.926
11481TIP3   OH234387   7.186   6.046   3.379
11481TIP3    H134388   7.146   6.022   3.463
11481TIP3    H234389   7.157   6.136   3.364
11482TIP3   OH234390   5.231   1.021   5.413
11482TIP3    H134391   5.218   0.994   5.322
11482TIP3    H234392   5.195   0.949   5.464
11483TIP3   OH234393   8.200   6.042   1.949
11483TIP3    H134394   8.142   5.994   2.009
11483TIP3    H234395   8.165   6.023   1.862
11484TIP3   OH234396   2.424   2.518   4.972
11484TIP3    H134397   2.340   2.494   4.931
11484TIP3    H234398   2.486   2.452   4.939
11485TIP3   OH234399   7.082   5.268   1.184
11485TIP3    H134400   6.988   5.276   1.199
11485TIP3    H234401   7.091   5.192   1.127
11486TIP3   OH234402   7.205   4.627   6.557
11486TIP3    H134403   7.212   4.661   6.646
11486TIP3    H234404   7.166   4.540   6.568
11487TIP3   OH234405   5.732   5.214   5.812
11487TIP3    H134406   5.637   5.222   5.823
11487TIP3    H234407   5.761   5.302   5.788
11488TIP3   OH234408   3.772   5.066   0.383
11488TIP3    H134409   3.793   5.151   0.344
11488TIP3    H234410   3.821   5.003   0.331
11489TIP3   OH234411   7.084   2.966   4.336
11489TIP3    H134412   7.101   3.050   4.379
11489TIP3    H234413   6.994   2.945   4.360
11490TIP3   OH234414   8.004   5.054   3.399
11490TIP3    H134415   7.980   4.964   3.374
11490TIP3    H234416   7.963   5.067   3.484
11491TIP3   OH234417   5.766   3.621   4.443
11491TIP3    H134418   5.788   3.604   4.535
11491TIP3    H234419   5.848   3.607   4.396
11492TIP3   OH234420   4.388   0.938   0.676
11492TIP3    H134421   4.461   0.890   0.636
11492TIP3    H234422   4.400   0.926   0.770
11493TIP3   OH234423   0.332   0.695   5.505
11493TIP3    H134424   0.400   0.637   5.540
11493TIP3    H234425   0.281   0.639   5.445
11494TIP3   OH234426   2.549   4.326   6.076
11494TIP3    H134427   2.618   4.374   6.029
11494TIP3    H234428   2.472   4.334   6.021
11495TIP3   OH234429   7.701   2.826   5.956
11495TIP3    H134430   7.785   2.872   5.947
11495TIP3    H234431   7.638   2.886   5.916
11496TIP3   OH234432   2.049   3.089   2.912
11496TIP3    H134433   2.019   3.094   2.821
11496TIP3    H234434   2.126   3.146   2.914
11497TIP3   OH234435   2.444   3.152   4.125
11497TIP3    H134436   2.412   3.066   4.151
11497TIP3    H234437   2.537   3.151   4.148
11498TIP3   OH234438   5.323   3.071   5.587
11498TIP3    H134439   5.273   2.994   5.616
11498TIP3    H234440   5.347   3.051   5.497
11499TIP3   OH234441   5.810   6.452   6.021
11499TIP3    H134442   5.851   6.536   6.004
11499TIP3    H234443   5.770   6.428   5.937
11500TIP3   OH234444   7.134   3.048   4.766
11500TIP3    H134445   7.217   3.085   4.736
11500TIP3    H234446   7.129   2.963   4.722
11501TIP3   OH234447   4.716   4.419   1.538
11501TIP3    H134448   4.712   4.340   1.593
11501TIP3    H234449   4.694   4.491   1.598
11502TIP3   OH234450   1.945   7.518   2.767
11502TIP3    H134451   1.935   7.612   2.748
11502TIP3    H234452   1.929   7.475   2.683
11503TIP3   OH234453   1.345   5.675   4.863
11503TIP3    H134454   1.261   5.669   4.818
11503TIP3    H234455   1.333   5.746   4.927
11504TIP3   OH234456   8.291   3.061   2.115
11504TIP3    H134457   8.217   3.005   2.140
11504TIP3    H234458   8.368   3.012   2.143
11505TIP3   OH234459   6.028   2.599   5.843
11505TIP3    H134460   5.982   2.682   5.854
11505TIP3    H234461   6.063   2.602   5.754
11506TIP3   OH234462   7.147   2.575   3.897
11506TIP3    H134463   7.057   2.604   3.910
11506TIP3    H234464   7.171   2.532   3.979
11507TIP3   OH234465   3.420   2.648   4.000
11507TIP3    H134466   3.491   2.583   4.004
11507TIP3    H234467   3.386   2.651   4.089
11508TIP3   OH234468   6.881   4.186   1.380
11508TIP3    H134469   6.904   4.228   1.297
11508TIP3    H234470   6.962   4.143   1.408
11509TIP3   OH234471   5.374   2.189   6.686
11509TIP3    H134472   5.365   2.272   6.640
11509TIP3    H234473   5.331   2.125   6.629
11510TIP3   OH234474   5.036   4.369   3.959
11510TIP3    H134475   4.979   4.420   3.900
11510TIP3    H234476   4.985   4.292   3.981
11511TIP3   OH234477   1.614   4.212   2.479
11511TIP3    H134478   1.590   4.122   2.456
11511TIP3    H234479   1.681   4.202   2.547
11512TIP3   OH234480   4.986   5.759   4.033
11512TIP3    H134481   5.013   5.826   3.970
11512TIP3    H234482   5.065   5.737   4.081
11513TIP3   OH234483   6.318   5.446   5.277
11513TIP3    H134484   6.236   5.469   5.232
11513TIP3    H234485   6.383   5.504   5.237
11514TIP3   OH234486   6.844   0.297   5.868
11514TIP3    H134487   6.821   0.251   5.949
11514TIP3    H234488   6.822   0.236   5.798
11515TIP3   OH234489   4.220   5.193   2.906
11515TIP3    H134490   4.184   5.170   2.992
11515TIP3    H234491   4.294   5.250   2.926
11516TIP3   OH234492   4.009   7.479   3.846
11516TIP3    H134493   3.937   7.457   3.906
11516TIP3    H234494   4.059   7.398   3.837
11517TIP3   OH234495   8.182   2.531   5.778
11517TIP3    H134496   8.176   2.496   5.867
11517TIP3    H234497   8.270   2.568   5.773
11518TIP3   OH234498   5.493   3.370   4.520
11518TIP3    H134499   5.578   3.378   4.475
11518TIP3    H234500   5.429   3.395   4.454
11519TIP3   OH234501   2.495   2.104   5.965
11519TIP3    H134502   2.545   2.040   5.913
11519TIP3    H234503   2.522   2.189   5.929
11520TIP3   OH234504   4.683   2.763   0.488
11520TIP3    H134505   4.664   2.782   0.580
11520TIP3    H234506   4.684   2.667   0.483
11521TIP3   OH234507   4.805   0.732   2.781
11521TIP3    H134508   4.863   0.726   2.704
11521TIP3    H234509   4.736   0.792   2.754
11522TIP3   OH234510   4.297   3.007   0.574
11522TIP3    H134511   4.373   3.007   0.516
11522TIP3    H234512   4.244   2.933   0.545
11523TIP3   OH234513   1.473   6.908   0.874
11523TIP3    H134514   1.482   6.945   0.786
11523TIP3    H234515   1.435   6.821   0.859
11524TIP3   OH234516   4.703   1.646   4.681
11524TIP3    H134517   4.668   1.566   4.721
11524TIP3    H234518   4.784   1.618   4.639
11525TIP3   OH234519   0.244   2.531   6.059
11525TIP3    H134520   0.314   2.506   6.119
11525TIP3    H234521   0.198   2.449   6.041
11526TIP3   OH234522   3.350   4.353   2.791
11526TIP3    H134523   3.318   4.366   2.702
11526TIP3    H234524   3.406   4.275   2.785
11527TIP3   OH234525   5.314   7.198   5.235
11527TIP3    H134526   5.246   7.144   5.276
11527TIP3    H234527   5.335   7.153   5.153
11528TIP3   OH234528   7.710   6.469   5.196
11528TIP3    H134529   7.755   6.535   5.143
11528TIP3    H234530   7.675   6.407   5.132
11529TIP3   OH234531   2.276   5.690   2.142
11529TIP3    H134532   2.320   5.605   2.145
11529TIP3    H234533   2.318   5.736   2.069
11530TIP3   OH234534   5.826   6.009   5.657
11530TIP3    H134535   5.786   5.983   5.740
11530TIP3    H234536   5.913   6.041   5.682
11531TIP3   OH234537   3.873   5.922   0.853
11531TIP3    H134538   3.851   5.986   0.786
11531TIP3    H234539   3.948   5.960   0.900
11532TIP3   OH234540   0.831   4.976   2.456
11532TIP3    H134541   0.885   4.897   2.457
11532TIP3    H234542   0.805   4.988   2.547
11533TIP3   OH234543   6.535   0.061   1.072
11533TIP3    H134544   6.628   0.079   1.079
11533TIP3    H234545   6.520  -0.015   1.128
11534TIP3   OH234546   0.426   5.243   4.897
11534TIP3    H134547   0.493   5.186   4.860
11534TIP3    H234548   0.343   5.200   4.874
11535TIP3   OH234549   0.923   0.042   4.942
11535TIP3    H134550   0.970   0.124   4.959
11535TIP3    H234551   0.987  -0.014   4.899
11536TIP3   OH234552   1.966  -0.011   5.631
11536TIP3    H134553   1.938  -0.081   5.689
11536TIP3    H234554   1.890   0.046   5.622
11537TIP3   OH234555   7.803   6.229   1.828
11537TIP3    H134556   7.826   6.166   1.759
11537TIP3    H234557   7.741   6.182   1.884
11538TIP3   OH234558   4.359   4.375   5.932
11538TIP3    H134559   4.451   4.349   5.943
11538TIP3    H234560   4.328   4.390   6.021
11539TIP3   OH234561   0.154   3.552   0.687
11539TIP3    H134562   0.079   3.537   0.630
11539TIP3    H234563   0.228   3.513   0.640
11540TIP3   OH234564   4.124   3.918   5.565
11540TIP3    H134565   4.119   3.871   5.649
11540TIP3    H234566   4.215   3.907   5.537
11541TIP3   OH234567   0.189   4.440   6.745
11541TIP3    H134568   0.167   4.431   6.653
11541TIP3    H234569   0.261   4.377   6.759
11542TIP3   OH234570   3.610   0.456   3.733
11542TIP3    H134571   3.556   0.501   3.669
11542TIP3    H234572   3.684   0.422   3.683
11543TIP3   OH234573   3.384   0.264   1.565
11543TIP3    H134574   3.295   0.299   1.560
11543TIP3    H234575   3.376   0.175   1.531
11544TIP3   OH234576   2.305   5.748   1.724
11544TIP3    H134577   2.344   5.775   1.807
11544TIP3    H234578   2.378   5.708   1.676
11545TIP3   OH234579   8.081   2.219   3.983
11545TIP3    H134580   8.136   2.147   3.953
11545TIP3    H234581   7.992   2.193   3.957
11546TIP3   OH234582   6.301   4.116   4.025
11546TIP3    H134583   6.323   4.143   4.115
11546TIP3    H234584   6.216   4.156   4.008
11547TIP3   OH234585   6.083   2.763   1.301
11547TIP3    H134586   6.135   2.825   1.353
11547TIP3    H234587   6.050   2.700   1.364
11548TIP3   OH234588   0.756   5.829   1.766
11548TIP3    H134589   0.747   5.768   1.840
11548TIP3    H234590   0.816   5.896   1.798
11549TIP3   OH234591   6.481   6.254   6.433
11549TIP3    H134592   6.415   6.305   6.386
11549TIP3    H234593   6.492   6.174   6.382
11550TIP3   OH234594   5.566   5.916   1.653
11550TIP3    H134595   5.560   5.864   1.734
11550TIP3    H234596   5.562   5.851   1.583
11551TIP3   OH234597   0.662   3.550   0.359
11551TIP3    H134598   0.616   3.618   0.309
11551TIP3    H234599   0.614   3.545   0.441
11552TIP3   OH234600   3.770   4.253   1.145
11552TIP3    H134601   3.799   4.276   1.057
11552TIP3    H234602   3.697   4.313   1.163
11553TIP3   OH234603   7.202   1.603   6.046
11553TIP3    H134604   7.125   1.630   6.095
11553TIP3    H234605   7.191   1.509   6.033
11554TIP3   OH234606   7.320   1.617   0.764
11554TIP3    H134607   7.344   1.660   0.682
11554TIP3    H234608   7.330   1.524   0.746
11555TIP3   OH234609   1.518   5.323   3.983
11555TIP3    H134610   1.458   5.259   4.022
11555TIP3    H234611   1.463   5.399   3.964
11556TIP3   OH234612   4.199   4.663   0.766
11556TIP3    H134613   4.166   4.623   0.847
11556TIP3    H234614   4.209   4.590   0.705
11557TIP3   OH234615   3.180   1.244   1.792
11557TIP3    H134616   3.102   1.280   1.835
11557TIP3    H234617   3.212   1.178   1.854
11558TIP3   OH234618   1.403   1.465   3.599
11558TIP3    H134619   1.394   1.558   3.624
11558TIP3    H234620   1.409   1.467   3.504
11559TIP3   OH234621   3.322   4.722   4.118
11559TIP3    H134622   3.307   4.672   4.198
11559TIP3    H234623   3.416   4.739   4.117
11560TIP3   OH234624   2.434   0.880   4.362
11560TIP3    H134625   2.504   0.849   4.421
11560TIP3    H234626   2.355   0.877   4.416
11561TIP3   OH234627   6.739   7.280   2.213
11561TIP3    H134628   6.725   7.309   2.123
11561TIP3    H234629   6.655   7.295   2.256
11562TIP3   OH234630   4.102   7.103   5.234
11562TIP3    H134631   4.013   7.093   5.267
11562TIP3    H234632   4.133   7.014   5.219
11563TIP3   OH234633   8.299   5.935   0.043
11563TIP3    H134634   8.219   5.978   0.013
11563TIP3    H234635   8.324   5.983   0.121
11564TIP3   OH234636   4.779   1.551   4.313
11564TIP3    H134637   4.773   1.592   4.227
11564TIP3    H234638   4.849   1.599   4.358
11565TIP3   OH234639   2.279   5.822   5.531
11565TIP3    H134640   2.197   5.772   5.533
11565TIP3    H234641   2.297   5.835   5.438
11566TIP3   OH234642   6.872   3.524   3.144
11566TIP3    H134643   6.792   3.489   3.104
11566TIP3    H234644   6.867   3.496   3.236
11567TIP3   OH234645   0.792   0.405   6.568
11567TIP3    H134646   0.829   0.430   6.653
11567TIP3    H234647   0.706   0.368   6.589
11568TIP3   OH234648   4.428   0.980   2.102
11568TIP3    H134649   4.519   0.952   2.091
11568TIP3    H234650   4.416   0.984   2.197
11569TIP3   OH234651   8.038   2.350   4.222
11569TIP3    H134652   8.048   2.318   4.132
11569TIP3    H234653   8.038   2.271   4.276
11570TIP3   OH234654   4.138   5.708   3.027
11570TIP3    H134655   4.141   5.614   3.009
11570TIP3    H234656   4.055   5.721   3.073
11571TIP3   OH234657   2.480   7.387   4.125
11571TIP3    H134658   2.500   7.459   4.184
11571TIP3    H234659   2.544   7.396   4.054
11572TIP3   OH234660   7.136   4.087   1.415
11572TIP3    H134661   7.220   4.133   1.418
11572TIP3    H234662   7.154   4.009   1.363
11573TIP3   OH234663   4.229   0.451   0.523
11573TIP3    H134664   4.143   0.463   0.483
11573TIP3    H234665   4.231   0.358   0.548
11574TIP3   OH234666   0.391   3.967   4.202
11574TIP3    H134667   0.363   4.054   4.229
11574TIP3    H234668   0.318   3.909   4.223
11575TIP3   OH234669   1.926   6.576   2.023
11575TIP3    H134670   2.009   6.584   2.070
11575TIP3    H234671   1.924   6.485   1.993
11576TIP3   OH234672   0.468   6.122   4.528
11576TIP3    H134673   0.416   6.046   4.502
11576TIP3    H234674   0.516   6.146   4.449
11577TIP3   OH234675   0.084   1.171   6.572
11577TIP3    H134676   0.172   1.135   6.581
11577TIP3    H234677   0.051   1.175   6.662
11578TIP3   OH234678   3.624   7.574   4.754
11578TIP3    H134679   3.557   7.640   4.744
11578TIP3    H234680   3.613   7.541   4.844
11579TIP3   OH234681   0.040   6.553   6.651
11579TIP3    H134682   0.120   6.601   6.628
11579TIP3    H234683  -0.031   6.604   6.612
11580TIP3   OH234684   6.915   0.897   1.079
11580TIP3    H134685   6.947   0.925   1.165
11580TIP3    H234686   6.822   0.881   1.092
11581TIP3   OH234687   7.905   6.563   5.897
11581TIP3    H134688   7.827   6.617   5.895
11581TIP3    H234689   7.874   6.478   5.929
11582TIP3   OH234690   3.891   4.394   0.076
11582TIP3    H134691   3.952   4.343   0.022
11582TIP3    H234692   3.915   4.371   0.166
11583TIP3   OH234693   1.111   0.982   4.185
11583TIP3    H134694   1.184   1.001   4.244
11583TIP3    H234695   1.116   0.889   4.168
11584TIP3   OH234696   5.455   7.076   2.542
11584TIP3    H134697   5.415   7.027   2.471
11584TIP3    H234698   5.549   7.072   2.523
11585TIP3   OH234699   5.177   1.191   1.788
11585TIP3    H134700   5.083   1.205   1.796
11585TIP3    H234701   5.190   1.100   1.815
11586TIP3   OH234702   7.044   6.034   0.928
11586TIP3    H134703   7.034   5.977   1.004
11586TIP3    H234704   7.138   6.040   0.914
11587TIP3   OH234705   4.334   3.047   3.673
11587TIP3    H134706   4.397   2.978   3.692
11587TIP3    H234707   4.360   3.120   3.730
11588TIP3   OH234708   2.518   1.513   3.566
11588TIP3    H134709   2.558   1.553   3.488
11588TIP3    H234710   2.585   1.453   3.599
11589TIP3   OH234711   1.592   5.100   2.534
11589TIP3    H134712   1.555   5.014   2.515
11589TIP3    H234713   1.524   5.162   2.507
11590TIP3   OH234714   3.688   7.488   1.429
11590TIP3    H134715   3.702   7.403   1.387
11590TIP3    H234716   3.593   7.491   1.446
11591TIP3   OH234717   7.213   2.789   2.841
11591TIP3    H134718   7.273   2.720   2.869
11591TIP3    H234719   7.133   2.742   2.816
11592TIP3   OH234720   1.870   6.228   4.109
11592TIP3    H134721   1.811   6.252   4.037
11592TIP3    H234722   1.862   6.299   4.172
11593TIP3   OH234723   2.503   7.347   0.463
11593TIP3    H134724   2.479   7.432   0.426
11593TIP3    H234725   2.419   7.304   0.480
11594TIP3   OH234726   1.822   3.996   3.065
11594TIP3    H134727   1.914   3.967   3.063
11594TIP3    H234728   1.773   3.916   3.084
11595TIP3   OH234729   0.773   7.397   2.909
11595TIP3    H134730   0.811   7.473   2.865
11595TIP3    H234731   0.838   7.371   2.974
11596TIP3   OH234732   2.296   7.332   3.832
11596TIP3    H134733   2.253   7.374   3.906
11596TIP3    H234734   2.246   7.252   3.818
11597TIP3   OH234735   3.877   4.607   3.280
11597TIP3    H134736   3.908   4.517   3.276
11597TIP3    H234737   3.952   4.660   3.254
11598TIP3   OH234738   4.969   6.138   2.501
11598TIP3    H134739   4.985   6.080   2.426
11598TIP3    H234740   4.875   6.128   2.519
11599TIP3   OH234741   7.946   0.496   4.860
11599TIP3    H134742   8.017   0.473   4.920
11599TIP3    H234743   7.869   0.450   4.893
11600TIP3   OH234744   6.737   4.924   0.738
11600TIP3    H134745   6.665   4.887   0.688
11600TIP3    H234746   6.811   4.865   0.723
11601TIP3   OH234747   7.502   7.566   4.584
11601TIP3    H134748   7.550   7.576   4.502
11601TIP3    H234749   7.412   7.550   4.557
11602TIP3   OH234750   4.413   6.986   0.583
11602TIP3    H134751   4.423   6.963   0.676
11602TIP3    H234752   4.457   7.071   0.575
11603TIP3   OH234753   5.991   6.126   5.418
11603TIP3    H134754   5.933   6.183   5.469
11603TIP3    H234755   6.016   6.179   5.342
11604TIP3   OH234756   3.755   6.803   3.396
11604TIP3    H134757   3.764   6.793   3.301
11604TIP3    H234758   3.665   6.776   3.414
11605TIP3   OH234759   7.744   4.333   4.529
11605TIP3    H134760   7.826   4.287   4.516
11605TIP3    H234761   7.681   4.264   4.551
11606TIP3   OH234762   5.957   6.655   1.267
11606TIP3    H134763   5.935   6.562   1.260
11606TIP3    H234764   5.874   6.701   1.254
11607TIP3   OH234765   7.991   6.771   2.598
11607TIP3    H134766   8.034   6.686   2.612
11607TIP3    H234767   7.964   6.799   2.686
11608TIP3   OH234768   2.723   2.545   5.906
11608TIP3    H134769   2.663   2.602   5.954
11608TIP3    H234770   2.772   2.603   5.848
11609TIP3   OH234771   6.631   6.999   0.852
11609TIP3    H134772   6.703   6.964   0.800
11609TIP3    H234773   6.571   7.037   0.788
11610TIP3   OH234774   1.752   4.548   4.824
11610TIP3    H134775   1.661   4.572   4.804
11610TIP3    H234776   1.752   4.528   4.917
11611TIP3   OH234777   6.459   7.089   0.608
11611TIP3    H134778   6.501   7.123   0.530
11611TIP3    H234779   6.368   7.117   0.601
11612TIP3   OH234780   1.301   2.832   2.974
11612TIP3    H134781   1.306   2.751   2.923
11612TIP3    H234782   1.373   2.825   3.037
11613TIP3   OH234783   6.486   0.370   5.181
11613TIP3    H134784   6.576   0.351   5.156
11613TIP3    H234785   6.494   0.437   5.249
11614TIP3   OH234786   2.950   6.601   5.559
11614TIP3    H134787   2.988   6.684   5.587
11614TIP3    H234788   3.024   6.540   5.560
11615TIP3   OH234789   6.587   5.408   0.210
11615TIP3    H134790   6.657   5.344   0.209
11615TIP3    H234791   6.616   5.475   0.272
11616TIP3   OH234792   1.460   0.557   5.536
11616TIP3    H134793   1.515   0.607   5.595
11616TIP3    H234794   1.378   0.605   5.532
11617TIP3   OH234795   3.449   7.376   4.589
11617TIP3    H134796   3.489   7.340   4.668
11617TIP3    H234797   3.371   7.422   4.621
11618TIP3   OH234798   7.662   3.319   1.557
11618TIP3    H134799   7.666   3.301   1.651
11618TIP3    H234800   7.569   3.338   1.541
11619TIP3   OH234801   1.767   6.968   1.381
11619TIP3    H134802   1.810   6.919   1.452
11619TIP3    H234803   1.675   6.941   1.386
11620TIP3   OH234804   1.191   1.196   1.699
11620TIP3    H134805   1.124   1.145   1.744
11620TIP3    H234806   1.194   1.161   1.610
11621TIP3   OH234807   3.481   1.658   5.659
11621TIP3    H134808   3.485   1.743   5.704
11621TIP3    H234809   3.527   1.598   5.718
11622TIP3   OH234810   4.391   1.183   5.396
11622TIP3    H134811   4.434   1.132   5.464
11622TIP3    H234812   4.330   1.123   5.355
11623TIP3   OH234813   5.468   5.924   5.504
11623TIP3    H134814   5.510   5.927   5.590
11623TIP3    H234815   5.540   5.929   5.441
11624TIP3   OH234816   2.754   0.673   4.758
11624TIP3    H134817   2.824   0.611   4.777
11624TIP3    H234818   2.799   0.754   4.734
11625TIP3   OH234819   8.087   5.467   2.842
11625TIP3    H134820   8.056   5.403   2.779
11625TIP3    H234821   8.012   5.526   2.855
11626TIP3   OH234822   6.658   7.715   4.255
11626TIP3    H134823   6.715   7.792   4.257
11626TIP3    H234824   6.706   7.650   4.306
11627TIP3   OH234825   3.498   4.160   3.938
11627TIP3    H134826   3.487   4.084   3.995
11627TIP3    H234827   3.575   4.139   3.885
11628TIP3   OH234828   5.112   7.464   1.476
11628TIP3    H134829   5.048   7.394   1.486
11628TIP3    H234830   5.165   7.459   1.555
11629TIP3   OH234831   7.001   7.752   5.548
11629TIP3    H134832   6.933   7.706   5.500
11629TIP3    H234833   6.953   7.810   5.608
11630TIP3   OH234834   1.073   2.319   0.089
11630TIP3    H134835   1.073   2.281   0.001
11630TIP3    H234836   1.031   2.405   0.077
11631TIP3   OH234837   7.537   4.500   1.383
11631TIP3    H134838   7.521   4.588   1.348
11631TIP3    H234839   7.626   4.503   1.416
11632TIP3   OH234840   6.081   4.152   2.463
11632TIP3    H134841   6.102   4.150   2.369
11632TIP3    H234842   6.019   4.080   2.475
11633TIP3   OH234843   4.920   7.391   1.802
11633TIP3    H134844   4.940   7.338   1.725
11633TIP3    H234845   4.906   7.328   1.873
11634TIP3   OH234846   1.487   0.156   1.550
11634TIP3    H134847   1.515   0.205   1.472
11634TIP3    H234848   1.451   0.074   1.514
11635TIP3   OH234849   3.569   5.824   0.068
11635TIP3    H134850   3.479   5.824   0.101
11635TIP3    H234851   3.620   5.864   0.139
11636TIP3   OH234852   0.068   6.115   2.838
11636TIP3    H134853   0.141   6.092   2.781
11636TIP3    H234854   0.088   6.070   2.921
11637TIP3   OH234855   2.720   4.570   4.440
11637TIP3    H134856   2.748   4.481   4.418
11637TIP3    H234857   2.741   4.622   4.363
11638TIP3   OH234858   6.000   5.773   0.095
11638TIP3    H134859   6.069   5.802   0.035
11638TIP3    H234860   5.969   5.854   0.136
11639TIP3   OH234861   1.456   5.189   3.659
11639TIP3    H134862   1.498   5.244   3.725
11639TIP3    H234863   1.422   5.252   3.595
11640TIP3   OH234864   6.661   5.776   5.629
11640TIP3    H134865   6.636   5.856   5.584
11640TIP3    H234866   6.641   5.706   5.567
11641TIP3   OH234867   5.922   4.381   6.055
11641TIP3    H134868   5.900   4.295   6.019
11641TIP3    H234869   5.873   4.387   6.136
11642TIP3   OH234870   7.023   5.977   1.813
11642TIP3    H134871   6.997   5.956   1.724
11642TIP3    H234872   7.037   6.072   1.813
11643TIP3   OH234873   7.333   3.654   6.731
11643TIP3    H134874   7.275   3.639   6.657
11643TIP3    H234875   7.407   3.595   6.716
11644TIP3   OH234876   2.471   4.820   3.258
11644TIP3    H134877   2.529   4.792   3.186
11644TIP3    H234878   2.397   4.759   3.254
11645TIP3   OH234879   4.377   4.855   3.805
11645TIP3    H134880   4.458   4.863   3.855
11645TIP3    H234881   4.385   4.771   3.760
11646TIP3   OH234882   6.400   0.351   4.518
11646TIP3    H134883   6.436   0.320   4.601
11646TIP3    H234884   6.430   0.288   4.453
11647TIP3   OH234885   3.339   2.331   1.058
11647TIP3    H134886   3.352   2.424   1.038
11647TIP3    H234887   3.421   2.303   1.098
11648TIP3   OH234888   7.007   4.685   5.670
11648TIP3    H134889   7.028   4.666   5.579
11648TIP3    H234890   6.984   4.778   5.672
11649TIP3   OH234891   1.223   6.862   3.515
11649TIP3    H134892   1.227   6.951   3.482
11649TIP3    H234893   1.249   6.869   3.607
11650TIP3   OH234894   4.251   3.683   3.020
11650TIP3    H134895   4.229   3.772   3.049
11650TIP3    H234896   4.266   3.692   2.926
11651TIP3   OH234897   7.603   4.748   0.099
11651TIP3    H134898   7.680   4.785   0.057
11651TIP3    H234899   7.551   4.711   0.028
11652TIP3   OH234900   1.642   7.519   1.083
11652TIP3    H134901   1.704   7.449   1.063
11652TIP3    H234902   1.556   7.477   1.076
11653TIP3   OH234903   6.979   3.117   2.166
11653TIP3    H134904   6.936   3.190   2.120
11653TIP3    H234905   7.056   3.157   2.208
11654TIP3   OH234906   3.854   7.070   5.332
11654TIP3    H134907   3.827   7.102   5.418
11654TIP3    H234908   3.785   7.100   5.273
11655TIP3   OH234909   4.254   2.548   0.588
11655TIP3    H134910   4.287   2.577   0.503
11655TIP3    H234911   4.167   2.513   0.569
11656TIP3   OH234912   7.325   7.748   1.228
11656TIP3    H134913   7.361   7.803   1.159
11656TIP3    H234914   7.331   7.801   1.307
11657TIP3   OH234915   7.488   5.102   1.638
11657TIP3    H134916   7.472   5.179   1.692
11657TIP3    H234917   7.409   5.094   1.583
11658TIP3   OH234918   3.367   1.047   6.522
11658TIP3    H134919   3.407   0.993   6.589
11658TIP3    H234920   3.440   1.085   6.473
11659TIP3   OH234921   1.962   1.566   0.753
11659TIP3    H134922   1.967   1.517   0.671
11659TIP3    H234923   1.996   1.506   0.819
11660TIP3   OH234924   1.786   0.980   6.058
11660TIP3    H134925   1.780   0.990   6.153
11660TIP3    H234926   1.748   0.894   6.040
11661TIP3   OH234927   8.200   7.670   2.231
11661TIP3    H134928   8.245   7.673   2.315
11661TIP3    H234929   8.232   7.590   2.189
11662TIP3   OH234930   5.881   7.203   3.609
11662TIP3    H134931   5.972   7.185   3.635
11662TIP3    H234932   5.867   7.294   3.634
11663TIP3   OH234933   7.605   4.203   1.321
11663TIP3    H134934   7.574   4.237   1.237
11663TIP3    H234935   7.685   4.252   1.339
11664TIP3   OH234936   4.805   6.422   6.697
11664TIP3    H134937   4.861   6.474   6.639
11664TIP3    H234938   4.823   6.454   6.785
11665TIP3   OH234939   2.792   2.888   6.509
11665TIP3    H134940   2.729   2.927   6.449
11665TIP3    H234941   2.868   2.947   6.507
11666TIP3   OH234942   2.815   7.427   2.470
11666TIP3    H134943   2.867   7.362   2.422
11666TIP3    H234944   2.750   7.457   2.407
11667TIP3   OH234945   6.929   5.943   1.558
11667TIP3    H134946   6.871   5.868   1.548
11667TIP3    H234947   6.897   6.006   1.493
11668TIP3   OH234948   7.422   1.218   4.640
11668TIP3    H134949   7.338   1.247   4.678
11668TIP3    H234950   7.486   1.233   4.709
11669TIP3   OH234951   2.398   5.304   4.587
11669TIP3    H134952   2.415   5.291   4.494
11669TIP3    H234953   2.341   5.381   4.591
11670TIP3   OH234954   5.576   5.875   0.635
11670TIP3    H134955   5.545   5.820   0.706
11670TIP3    H234956   5.507   5.869   0.568
11671TIP3   OH234957   2.471   6.798   5.682
11671TIP3    H134958   2.394   6.813   5.628
11671TIP3    H234959   2.476   6.874   5.740
11672TIP3   OH234960   2.044   2.513   3.427
11672TIP3    H134961   1.948   2.516   3.432
11672TIP3    H234962   2.068   2.591   3.377
11673TIP3   OH234963   5.550   0.137   0.196
11673TIP3    H134964   5.489   0.206   0.222
11673TIP3    H234965   5.635   0.180   0.195
11674TIP3   OH234966   0.701   1.845   4.738
11674TIP3    H134967   0.643   1.856   4.663
11674TIP3    H234968   0.674   1.763   4.778
11675TIP3   OH234969   4.825   6.896   4.826
11675TIP3    H134970   4.820   6.956   4.751
11675TIP3    H234971   4.737   6.861   4.835
11676TIP3   OH234972   3.667   3.612   1.040
11676TIP3    H134973   3.626   3.526   1.032
11676TIP3    H234974   3.681   3.622   1.134
11677TIP3   OH234975   2.728   2.057   6.412
11677TIP3    H134976   2.711   1.987   6.474
11677TIP3    H234977   2.699   2.021   6.327
11678TIP3   OH234978   6.353   7.252   4.845
11678TIP3    H134979   6.383   7.189   4.779
11678TIP3    H234980   6.423   7.317   4.848
11679TIP3   OH234981   1.457   4.544   2.458
11679TIP3    H134982   1.412   4.470   2.498
11679TIP3    H234983   1.543   4.545   2.500
11680TIP3   OH234984   5.703   4.500   0.845
11680TIP3    H134985   5.632   4.445   0.813
11680TIP3    H234986   5.725   4.556   0.771
11681TIP3   OH234987   4.881   4.071   1.258
11681TIP3    H134988   4.958   4.103   1.211
11681TIP3    H234989   4.913   3.997   1.310
11682TIP3   OH234990   8.083   6.802   3.751
11682TIP3    H134991   8.117   6.858   3.681
11682TIP3    H234992   8.106   6.713   3.724
11683TIP3   OH234993   2.505   1.083   1.122
11683TIP3    H134994   2.558   1.128   1.056
11683TIP3    H234995   2.431   1.142   1.137
11684TIP3   OH234996   0.896   4.403   2.367
11684TIP3    H134997   0.804   4.397   2.341
11684TIP3    H234998   0.943   4.352   2.301
11685TIP3   OH234999   6.972   3.067   3.437
11685TIP3    H135000   6.939   3.076   3.348
11685TIP3    H235001   7.049   3.011   3.428
11686TIP3   OH235002   6.213   6.836   1.925
11686TIP3    H135003   6.181   6.914   1.969
11686TIP3    H235004   6.302   6.858   1.898
11687TIP3   OH235005   5.655   2.837   6.773
11687TIP3    H135006   5.689   2.901   6.710
11687TIP3    H235007   5.604   2.890   6.834
11688TIP3   OH235008   8.076   7.141   3.961
11688TIP3    H135009   8.117   7.184   4.036
11688TIP3    H235010   7.999   7.097   3.997
11689TIP3   OH235011   0.266   4.130   4.799
11689TIP3    H135012   0.349   4.178   4.800
11689TIP3    H235013   0.266   4.085   4.714
11690TIP3   OH235014   4.336   5.989   3.529
11690TIP3    H135015   4.371   6.077   3.516
11690TIP3    H235016   4.344   5.948   3.443
11691TIP3   OH235017   1.048   7.501   1.533
11691TIP3    H135018   1.018   7.453   1.610
11691TIP3    H235019   1.032   7.442   1.460
11692TIP3   OH235020   0.746   6.372   4.641
11692TIP3    H135021   0.671   6.364   4.581
11692TIP3    H235022   0.722   6.445   4.699
11693TIP3   OH235023   0.920   6.220   1.522
11693TIP3    H135024   0.965   6.284   1.576
11693TIP3    H235025   0.979   6.145   1.518
11694TIP3   OH235026   7.855   5.709   1.540
11694TIP3    H135027   7.860   5.703   1.635
11694TIP3    H235028   7.912   5.639   1.508
11695TIP3   OH235029   1.879   7.112   2.178
11695TIP3    H135030   1.903   7.095   2.086
11695TIP3    H235031   1.910   7.034   2.224
11696TIP3   OH235032   3.610   5.074   2.154
11696TIP3    H135033   3.698   5.065   2.191
11696TIP3    H235034   3.599   4.998   2.098
11697TIP3   OH235035   5.116   2.726   0.915
11697TIP3    H135036   5.176   2.730   0.841
11697TIP3    H235037   5.085   2.636   0.916
11698TIP3   OH235038   0.609   2.890   2.479
11698TIP3    H135039   0.656   2.964   2.517
11698TIP3    H235040   0.581   2.838   2.555
11699TIP3   OH235041   5.668   5.106   4.605
11699TIP3    H135042   5.742   5.106   4.665
11699TIP3    H235043   5.603   5.050   4.648
11700TIP3   OH235044   3.890   6.736   4.626
11700TIP3    H135045   3.936   6.731   4.711
11700TIP3    H235046   3.869   6.829   4.617
11701TIP3   OH235047   0.800   7.365   0.218
11701TIP3    H135048   0.856   7.294   0.185
11701TIP3    H235049   0.765   7.407   0.139
11702TIP3   OH235050   7.888   7.208   4.707
11702TIP3    H135051   7.907   7.124   4.748
11702TIP3    H235052   7.916   7.273   4.772
11703TIP3   OH235053   5.853   0.738   3.023
11703TIP3    H135054   5.863   0.820   3.072
11703TIP3    H235055   5.920   0.680   3.060
11704TIP3   OH235056   4.446   3.093   6.408
11704TIP3    H135057   4.440   2.998   6.417
11704TIP3    H235058   4.358   3.121   6.385
11705TIP3   OH235059   7.758   0.790   0.836
11705TIP3    H135060   7.762   0.704   0.878
11705TIP3    H235061   7.688   0.836   0.882
11706TIP3   OH235062   1.669   4.731   3.759
11706TIP3    H135063   1.657   4.777   3.843
11706TIP3    H235064   1.703   4.645   3.783
11707TIP3   OH235065   1.980   5.652   3.233
11707TIP3    H135066   2.000   5.650   3.140
11707TIP3    H235067   2.056   5.695   3.273
11708TIP3   OH235068   0.112   3.655   5.924
11708TIP3    H135069   0.151   3.743   5.919
11708TIP3    H235070   0.130   3.616   5.839
11709TIP3   OH235071   5.563   2.112   3.952
11709TIP3    H135072   5.564   2.027   3.908
11709TIP3    H235073   5.611   2.097   4.034
11710TIP3   OH235074   0.031   0.032   5.871
11710TIP3    H135075   0.009   0.125   5.867
11710TIP3    H235076  -0.053  -0.014   5.864
11711TIP3   OH235077   3.751   2.040   5.096
11711TIP3    H135078   3.784   2.027   5.007
11711TIP3    H235079   3.791   2.122   5.124
11712TIP3   OH235080   3.191   0.315   2.289
11712TIP3    H135081   3.095   0.313   2.295
11712TIP3    H235082   3.218   0.223   2.295
11713TIP3   OH235083   1.434   5.960   2.359
11713TIP3    H135084   1.340   5.948   2.372
11713TIP3    H235085   1.466   5.875   2.330
11714TIP3   OH235086   6.046   7.000   4.003
11714TIP3    H135087   6.134   6.989   3.967
11714TIP3    H235088   6.032   6.921   4.055
11715TIP3   OH235089   0.120   2.898   4.225
11715TIP3    H135090   0.127   2.861   4.313
11715TIP3    H235091   0.028   2.885   4.202
11716TIP3   OH235092   4.174   1.248   6.012
11716TIP3    H135093   4.200   1.339   5.995
11716TIP3    H235094   4.243   1.213   6.068
11717TIP3   OH235095   1.413   2.470   4.967
11717TIP3    H135096   1.480   2.403   4.958
11717TIP3    H235097   1.432   2.513   5.050
11718TIP3   OH235098   7.667   7.502   3.831
11718TIP3    H135099   7.619   7.462   3.759
11718TIP3    H235100   7.643   7.450   3.908
11719TIP3   OH235101   7.653   2.878   0.903
11719TIP3    H135102   7.614   2.810   0.848
11719TIP3    H235103   7.701   2.933   0.841
11720TIP3   OH235104   5.069   4.077   3.957
11720TIP3    H135105   5.139   4.017   3.932
11720TIP3    H235106   5.057   4.062   4.051
11721TIP3   OH235107   3.031   4.008   5.571
11721TIP3    H135108   3.068   4.089   5.535
11721TIP3    H235109   2.999   3.960   5.494
11722TIP3   OH235110   3.325   6.822   0.410
11722TIP3    H135111   3.265   6.812   0.336
11722TIP3    H235112   3.397   6.875   0.376
11723TIP3   OH235113   2.330   4.427   1.646
11723TIP3    H135114   2.303   4.495   1.708
11723TIP3    H235115   2.383   4.475   1.581
11724TIP3   OH235116   4.205   3.388   0.730
11724TIP3    H135117   4.143   3.438   0.783
11724TIP3    H235118   4.185   3.296   0.750
11725TIP3   OH235119   6.557   4.593   1.621
11725TIP3    H135120   6.623   4.547   1.569
11725TIP3    H235121   6.596   4.598   1.709
11726TIP3   OH235122   2.683   6.643   5.225
11726TIP3    H135123   2.683   6.733   5.191
11726TIP3    H235124   2.761   6.639   5.281
11727TIP3   OH235125   7.528   0.449   2.554
11727TIP3    H135126   7.545   0.385   2.623
11727TIP3    H235127   7.438   0.476   2.568
11728TIP3   OH235128   8.139   7.220   1.946
11728TIP3    H135129   8.190   7.166   2.006
11728TIP3    H235130   8.076   7.266   2.002
11729TIP3   OH235131   1.706   0.931   3.982
11729TIP3    H135132   1.686   0.873   3.908
11729TIP3    H235133   1.626   0.934   4.033
11730TIP3   OH235134   7.032   7.638   2.600
11730TIP3    H135135   6.990   7.648   2.685
11730TIP3    H235136   7.120   7.605   2.621
11731TIP3   OH235137   7.691   6.533   0.209
11731TIP3    H135138   7.664   6.534   0.117
11731TIP3    H235139   7.777   6.491   0.208
11732TIP3   OH235140   3.351   5.632   1.482
11732TIP3    H135141   3.355   5.588   1.568
11732TIP3    H235142   3.280   5.696   1.491
11733TIP3   OH235143   2.437   1.071   6.296
11733TIP3    H135144   2.419   1.132   6.367
11733TIP3    H235145   2.500   1.009   6.332
11734TIP3   OH235146   4.057   2.213   3.008
11734TIP3    H135147   4.053   2.225   2.913
11734TIP3    H235148   3.998   2.280   3.043
11735TIP3   OH235149   7.264   4.784   0.060
11735TIP3    H135150   7.286   4.872   0.028
11735TIP3    H235151   7.252   4.732  -0.020
11736TIP3   OH235152   4.792   5.764   3.325
11736TIP3    H135153   4.829   5.688   3.280
11736TIP3    H235154   4.707   5.734   3.358
11737TIP3   OH235155   4.789   2.117   3.201
11737TIP3    H135156   4.793   2.107   3.296
11737TIP3    H235157   4.758   2.032   3.170
11738TIP3   OH235158   6.435   5.135   3.504
11738TIP3    H135159   6.427   5.189   3.582
11738TIP3    H235160   6.371   5.171   3.443
11739TIP3   OH235161   1.444   4.926   3.027
11739TIP3    H135162   1.353   4.958   3.022
11739TIP3    H235163   1.458   4.906   3.119
11740TIP3   OH235164   2.645   1.859   5.021
11740TIP3    H135165   2.561   1.896   4.992
11740TIP3    H235166   2.627   1.824   5.108
11741TIP3   OH235167   4.225   6.173   0.290
11741TIP3    H135168   4.243   6.217   0.372
11741TIP3    H235169   4.309   6.136   0.264
11742TIP3   OH235170   5.071   0.697   3.687
11742TIP3    H135171   5.021   0.759   3.634
11742TIP3    H235172   5.143   0.671   3.630
11743TIP3   OH235173   2.205   1.611   5.991
11743TIP3    H135174   2.152   1.618   6.070
11743TIP3    H235175   2.150   1.647   5.922
11744TIP3   OH235176   1.577   7.150   2.188
11744TIP3    H135177   1.669   7.129   2.172
11744TIP3    H235178   1.559   7.223   2.129
11745TIP3   OH235179   0.370   0.696   2.510
11745TIP3    H135180   0.320   0.652   2.442
11745TIP3    H235181   0.304   0.745   2.560
11746TIP3   OH235182   4.940   1.231   3.799
11746TIP3    H135183   5.034   1.233   3.819
11746TIP3    H235184   4.900   1.187   3.873
11747TIP3   OH235185   1.648   2.141   4.736
11747TIP3    H135186   1.594   2.138   4.657
11747TIP3    H235187   1.736   2.163   4.704
11748TIP3   OH235188   1.112   2.356   2.472
11748TIP3    H135189   1.118   2.298   2.547
11748TIP3    H235190   1.047   2.422   2.497
11749TIP3   OH235191   1.900   3.373   5.864
11749TIP3    H135192   1.968   3.365   5.930
11749TIP3    H235193   1.824   3.408   5.911
11750TIP3   OH235194   5.296   5.198   2.525
11750TIP3    H135195   5.201   5.210   2.526
11750TIP3    H235196   5.308   5.104   2.519
11751TIP3   OH235197   5.877   5.213   6.257
11751TIP3    H135198   5.843   5.147   6.196
11751TIP3    H235199   5.826   5.200   6.337
11752TIP3   OH235200   0.318   7.370   6.004
11752TIP3    H135201   0.262   7.332   6.071
11752TIP3    H235202   0.400   7.389   6.048
11753TIP3   OH235203   5.384   0.337   0.278
11753TIP3    H135204   5.335   0.358   0.199
11753TIP3    H235205   5.325   0.357   0.350
11754TIP3   OH235206   6.368   1.540   4.154
11754TIP3    H135207   6.300   1.597   4.188
11754TIP3    H235208   6.407   1.499   4.231
11755TIP3   OH235209   7.644   3.235   0.248
11755TIP3    H135210   7.613   3.326   0.242
11755TIP3    H235211   7.573   3.183   0.211
11756TIP3   OH235212   0.809   0.028   6.642
11756TIP3    H135213   0.807  -0.042   6.707
11756TIP3    H235214   0.761   0.100   6.683
11757TIP3   OH235215   4.740   5.422   3.050
11757TIP3    H135216   4.797   5.464   2.986
11757TIP3    H235217   4.724   5.490   3.116
11758TIP3   OH235218   6.321   2.024   1.757
11758TIP3    H135219   6.372   1.953   1.797
11758TIP3    H235220   6.346   2.102   1.807
11759TIP3   OH235221   1.871   3.061   4.651
11759TIP3    H135222   1.932   3.119   4.695
11759TIP3    H235223   1.797   3.117   4.627
11760TIP3   OH235224   6.714   5.878   4.046
11760TIP3    H135225   6.739   5.936   3.975
11760TIP3    H235226   6.668   5.934   4.108
11761TIP3   OH235227   3.433   6.816   1.511
11761TIP3    H135228   3.432   6.912   1.520
11761TIP3    H235229   3.342   6.790   1.519
11762TIP3   OH235230   4.238   2.070   5.384
11762TIP3    H135231   4.171   2.004   5.368
11762TIP3    H235232   4.236   2.125   5.305
11763TIP3   OH235233   3.978   6.138   4.023
11763TIP3    H135234   4.066   6.137   3.984
11763TIP3    H235235   3.927   6.193   3.963
11764TIP3   OH235236   4.861   4.951   4.262
11764TIP3    H135237   4.900   4.923   4.179
11764TIP3    H235238   4.862   5.047   4.258
11765TIP3   OH235239   2.463   5.067   3.159
11765TIP3    H135240   2.390   5.127   3.175
11765TIP3    H235241   2.441   4.990   3.212
11766TIP3   OH235242   7.329   5.617   6.671
11766TIP3    H135243   7.331   5.523   6.685
11766TIP3    H235244   7.413   5.637   6.629
11767TIP3   OH235245   4.265   6.820   1.642
11767TIP3    H135246   4.254   6.904   1.597
11767TIP3    H235247   4.223   6.833   1.727
11768TIP3   OH235248   4.233   2.525   3.216
11768TIP3    H135249   4.217   2.563   3.302
11768TIP3    H235250   4.262   2.599   3.163
11769TIP3   OH235251   2.415   7.585   5.444
11769TIP3    H135252   2.510   7.586   5.428
11769TIP3    H235253   2.379   7.644   5.378
11770TIP3   OH235254   7.240   4.716   1.155
11770TIP3    H135255   7.152   4.700   1.121
11770TIP3    H235256   7.233   4.700   1.249
11771TIP3   OH235257   7.558   3.010   5.073
11771TIP3    H135258   7.471   3.023   5.110
11771TIP3    H235259   7.592   3.098   5.061
11772TIP3   OH235260   3.768   2.465   1.446
11772TIP3    H135261   3.821   2.407   1.391
11772TIP3    H235262   3.704   2.504   1.386
11773TIP3   OH235263   8.216   0.281   5.910
11773TIP3    H135264   8.123   0.292   5.930
11773TIP3    H235265   8.228   0.327   5.827
11774TIP3   OH235266   4.708   6.162   2.569
11774TIP3    H135267   4.691   6.246   2.612
11774TIP3    H235268   4.629   6.145   2.518
11775TIP3   OH235269   5.643   0.653   5.159
11775TIP3    H135270   5.555   0.619   5.177
11775TIP3    H235271   5.695   0.575   5.138
11776TIP3   OH235272   6.179   1.218   6.302
11776TIP3    H135273   6.161   1.177   6.387
11776TIP3    H235274   6.118   1.292   6.297
11777TIP3   OH235275   3.063   0.693   1.440
11777TIP3    H135276   3.017   0.772   1.466
11777TIP3    H235277   3.063   0.695   1.345
11778TIP3   OH235278   2.875   5.938   4.078
11778TIP3    H135279   2.889   5.947   4.173
11778TIP3    H235280   2.957   5.903   4.045
11779TIP3   OH235281   4.400   6.931   5.737
11779TIP3    H135282   4.347   6.876   5.794
11779TIP3    H235283   4.406   7.015   5.783
11780TIP3   OH235284   3.273   7.604   1.764
11780TIP3    H135285   3.240   7.630   1.678
11780TIP3    H235286   3.281   7.509   1.758
11781TIP3   OH235287   5.946   2.464   0.210
11781TIP3    H135288   5.993   2.464   0.127
11781TIP3    H235289   5.881   2.394   0.201
11782TIP3   OH235290   7.880   7.125   1.481
11782TIP3    H135291   7.808   7.062   1.484
11782TIP3    H235292   7.911   7.129   1.572
11783TIP3   OH235293   6.125   5.815   1.426
11783TIP3    H135294   6.064   5.764   1.372
11783TIP3    H235295   6.192   5.844   1.365
11784TIP3   OH235296   7.548   7.560   6.740
11784TIP3    H135297   7.505   7.589   6.821
11784TIP3    H235298   7.516   7.471   6.726
11785TIP3   OH235299   3.895   2.137   5.838
11785TIP3    H135300   3.950   2.091   5.774
11785TIP3    H235301   3.884   2.074   5.909
11786TIP3   OH235302   2.059   2.795   6.273
11786TIP3    H135303   2.124   2.750   6.327
11786TIP3    H235304   2.047   2.737   6.197
11787TIP3   OH235305   1.959   3.650   6.722
11787TIP3    H135306   2.052   3.667   6.734
11787TIP3    H235307   1.918   3.736   6.730
11788TIP3   OH235308   7.006   4.631   1.044
11788TIP3    H135309   7.064   4.564   1.011
11788TIP3    H235310   6.973   4.676   0.966
11789TIP3   OH235311   2.872   2.861   4.970
11789TIP3    H135312   2.876   2.949   5.008
11789TIP3    H235313   2.793   2.822   5.008
11790TIP3   OH235314   6.602   5.415   3.122
11790TIP3    H135315   6.543   5.429   3.196
11790TIP3    H235316   6.637   5.327   3.134
11791TIP3   OH235317   1.220   1.208   0.382
11791TIP3    H135318   1.126   1.196   0.392
11791TIP3    H235319   1.249   1.132   0.331
11792TIP3   OH235320   2.747   3.676   3.630
11792TIP3    H135321   2.677   3.739   3.648
11792TIP3    H235322   2.751   3.671   3.534
11793TIP3   OH235323   7.285   3.300   0.400
11793TIP3    H135324   7.210   3.355   0.421
11793TIP3    H235325   7.294   3.307   0.305
11794TIP3   OH235326   2.728   5.033   1.776
11794TIP3    H135327   2.731   5.081   1.693
11794TIP3    H235328   2.645   5.060   1.816
11795TIP3   OH235329   5.314   0.091   3.127
11795TIP3    H135330   5.361   0.116   3.048
11795TIP3    H235331   5.350   0.005   3.149
11796TIP3   OH235332   0.656   2.177   6.065
11796TIP3    H135333   0.709   2.109   6.107
11796TIP3    H235334   0.566   2.144   6.070
11797TIP3   OH235335   0.626   7.453   4.724
11797TIP3    H135336   0.551   7.415   4.678
11797TIP3    H235337   0.604   7.444   4.817
11798TIP3   OH235338   2.357   3.451   1.194
11798TIP3    H135339   2.369   3.357   1.182
11798TIP3    H235340   2.415   3.492   1.129
11799TIP3   OH235341   5.818   1.868   3.946
11799TIP3    H135342   5.836   1.924   3.870
11799TIP3    H235343   5.726   1.844   3.937
11800TIP3   OH235344   1.898   2.763   1.911
11800TIP3    H135345   1.982   2.730   1.944
11800TIP3    H235346   1.920   2.802   1.826
11801TIP3   OH235347   6.440   4.687   2.762
11801TIP3    H135348   6.367   4.713   2.817
11801TIP3    H235349   6.492   4.628   2.818
11802TIP3   OH235350   6.097   5.687   2.454
11802TIP3    H135351   6.067   5.653   2.369
11802TIP3    H235352   6.053   5.771   2.464
11803TIP3   OH235353   7.377   0.116   3.998
11803TIP3    H135354   7.440   0.100   3.928
11803TIP3    H235355   7.399   0.202   4.033
11804TIP3   OH235356   0.525   4.520   3.908
11804TIP3    H135357   0.523   4.608   3.869
11804TIP3    H235358   0.524   4.536   4.003
11805TIP3   OH235359   7.242   0.841   5.728
11805TIP3    H135360   7.333   0.846   5.758
11805TIP3    H235361   7.194   0.810   5.805
11806TIP3   OH235362   4.174   6.258   3.024
11806TIP3    H135363   4.156   6.302   2.941
11806TIP3    H235364   4.248   6.306   3.061
11807TIP3   OH235365   4.448   2.818   4.819
11807TIP3    H135366   4.498   2.756   4.873
11807TIP3    H235367   4.382   2.764   4.776
11808TIP3   OH235368   2.351   5.882   6.185
11808TIP3    H135369   2.368   5.904   6.277
11808TIP3    H235370   2.355   5.786   6.183
11809TIP3   OH235371   4.419   3.925   3.427
11809TIP3    H135372   4.362   3.849   3.420
11809TIP3    H235373   4.493   3.895   3.480
11810TIP3   OH235374   1.404   6.620   2.835
11810TIP3    H135375   1.419   6.527   2.820
11810TIP3    H235376   1.316   6.636   2.802
11811TIP3   OH235377   1.578   2.560   1.091
11811TIP3    H135378   1.584   2.652   1.117
11811TIP3    H235379   1.601   2.560   0.998
11812TIP3   OH235380   2.588   2.364   4.330
11812TIP3    H135381   2.516   2.396   4.383
11812TIP3    H235382   2.607   2.436   4.269
11813TIP3   OH235383   0.645   3.300   6.795
11813TIP3    H135384   0.580   3.257   6.739
11813TIP3    H235385   0.729   3.265   6.765
11814TIP3   OH235386   5.104   0.655   5.242
11814TIP3    H135387   5.044   0.619   5.177
11814TIP3    H235388   5.189   0.619   5.220
11815TIP3   OH235389   2.922   2.912   2.448
11815TIP3    H135390   2.899   2.871   2.531
11815TIP3    H235391   3.018   2.915   2.449
11816TIP3   OH235392   3.091   1.751   1.078
11816TIP3    H135393   3.140   1.689   1.024
11816TIP3    H235394   3.146   1.764   1.156
11817TIP3   OH235395   3.737   1.348   3.845
11817TIP3    H135396   3.715   1.267   3.891
11817TIP3    H235397   3.833   1.350   3.845
11818TIP3   OH235398   6.466   6.023   3.424
11818TIP3    H135399   6.532   6.083   3.389
11818TIP3    H235400   6.404   6.080   3.470
11819TIP3   OH235401   5.714   5.986   5.379
11819TIP3    H135402   5.763   6.026   5.451
11819TIP3    H235403   5.753   5.900   5.368
11820TIP3   OH235404   1.995   4.889   5.964
11820TIP3    H135405   2.060   4.923   6.025
11820TIP3    H235406   2.038   4.893   5.878
11821TIP3   OH235407   4.170   3.763   2.275
11821TIP3    H135408   4.122   3.822   2.217
11821TIP3    H235409   4.151   3.795   2.363
11822TIP3   OH235410   6.516   6.877   1.088
11822TIP3    H135411   6.543   6.908   1.002
11822TIP3    H235412   6.592   6.893   1.144
11823TIP3   OH235413   3.274   3.278   3.585
11823TIP3    H135414   3.313   3.241   3.664
11823TIP3    H235415   3.195   3.226   3.570
11824TIP3   OH235416   4.492   3.087   6.116
11824TIP3    H135417   4.444   3.014   6.076
11824TIP3    H235418   4.458   3.090   6.206
11825TIP3   OH235419   3.630   4.654   5.321
11825TIP3    H135420   3.711   4.602   5.326
11825TIP3    H235421   3.598   4.658   5.411
11826TIP3   OH235422   0.860   3.755   5.809
11826TIP3    H135423   0.831   3.803   5.887
11826TIP3    H235424   0.784   3.755   5.751
11827TIP3   OH235425   3.407   0.379   3.182
11827TIP3    H135426   3.473   0.320   3.218
11827TIP3    H235427   3.324   0.333   3.194
11828TIP3   OH235428   7.902   0.895   3.977
11828TIP3    H135429   7.958   0.965   3.945
11828TIP3    H235430   7.951   0.815   3.958
11829TIP3   OH235431   2.647   2.546   0.336
11829TIP3    H135432   2.584   2.610   0.369
11829TIP3    H235433   2.723   2.598   0.311
11830TIP3   OH235434   1.381   5.726   1.904
11830TIP3    H135435   1.434   5.755   1.829
11830TIP3    H235436   1.291   5.745   1.879
11831TIP3   OH235437   4.379   4.349   3.777
11831TIP3    H135438   4.385   4.307   3.691
11831TIP3    H235439   4.312   4.299   3.823
11832TIP3   OH235440   3.993   5.509   4.505
11832TIP3    H135441   3.976   5.429   4.455
11832TIP3    H235442   3.912   5.524   4.554
11833TIP3   OH235443   6.757   5.527   5.010
11833TIP3    H135444   6.724   5.570   4.931
11833TIP3    H235445   6.846   5.558   5.019
11834TIP3   OH235446   6.571   6.844   2.345
11834TIP3    H135447   6.479   6.829   2.369
11834TIP3    H235448   6.621   6.804   2.416
11835TIP3   OH235449   0.171   0.531   5.341
11835TIP3    H135450   0.076   0.529   5.333
11835TIP3    H235451   0.198   0.439   5.333
11836TIP3   OH235452   7.771   5.282   4.975
11836TIP3    H135453   7.826   5.340   5.028
11836TIP3    H235454   7.686   5.282   5.019
11837TIP3   OH235455   4.115   6.072   1.428
11837TIP3    H135456   4.148   5.986   1.401
11837TIP3    H235457   4.026   6.074   1.393
11838TIP3   OH235458   4.661   7.688   6.426
11838TIP3    H135459   4.631   7.620   6.366
11838TIP3    H235460   4.620   7.769   6.394
11839TIP3   OH235461   0.492   6.893   4.643
11839TIP3    H135462   0.431   6.966   4.630
11839TIP3    H235463   0.578   6.935   4.652
11840TIP3   OH235464   0.168   1.375   2.322
11840TIP3    H135465   0.128   1.446   2.373
11840TIP3    H235466   0.194   1.310   2.387
11841TIP3   OH235467   3.304   2.373   2.973
11841TIP3    H135468   3.297   2.461   3.009
11841TIP3    H235469   3.234   2.368   2.908
11842TIP3   OH235470   0.717   0.733   6.207
11842TIP3    H135471   0.646   0.702   6.263
11842TIP3    H235472   0.797   0.709   6.253
11843TIP3   OH235473   6.565   6.308   4.615
11843TIP3    H135474   6.529   6.385   4.571
11843TIP3    H235475   6.492   6.271   4.664
11844TIP3   OH235476   7.192   2.564   1.384
11844TIP3    H135477   7.265   2.518   1.344
11844TIP3    H235478   7.204   2.656   1.360
11845TIP3   OH235479   6.930   4.899   5.380
11845TIP3    H135480   6.969   4.812   5.377
11845TIP3    H235481   6.940   4.927   5.471
11846TIP3   OH235482   3.178   0.968   5.270
11846TIP3    H135483   3.251   0.931   5.319
11846TIP3    H235484   3.101   0.947   5.323
11847TIP3   OH235485   7.240   0.346   1.539
11847TIP3    H135486   7.232   0.428   1.490
11847TIP3    H235487   7.155   0.303   1.528
11848TIP3   OH235488   4.518   2.228   3.601
11848TIP3    H135489   4.522   2.191   3.513
11848TIP3    H235490   4.602   2.203   3.641
11849TIP3   OH235491   1.064   1.907   2.868
11849TIP3    H135492   1.099   1.949   2.789
11849TIP3    H235493   0.978   1.876   2.842
11850TIP3   OH235494   4.839   3.258   3.017
11850TIP3    H135495   4.786   3.182   3.041
11850TIP3    H235496   4.928   3.235   3.044
11851TIP3   OH235497   7.586   3.056   5.383
11851TIP3    H135498   7.545   3.123   5.437
11851TIP3    H235499   7.673   3.089   5.365
11852TIP3   OH235500   4.211   7.526   2.931
11852TIP3    H135501   4.189   7.477   3.010
11852TIP3    H235502   4.240   7.611   2.963
11853TIP3   OH235503   6.261   4.907   4.952
11853TIP3    H135504   6.218   4.980   4.997
11853TIP3    H235505   6.206   4.831   4.974
11854TIP3   OH235506   5.540   1.469   5.818
11854TIP3    H135507   5.461   1.517   5.793
11854TIP3    H235508   5.601   1.484   5.746
11855TIP3   OH235509   3.472   7.134   4.171
11855TIP3    H135510   3.432   7.048   4.162
11855TIP3    H235511   3.453   7.178   4.088
11856TIP3   OH235512   0.938   1.451   1.832
11856TIP3    H135513   0.993   1.430   1.908
11856TIP3    H235514   0.869   1.385   1.833
11857TIP3   OH235515   4.524   7.472   2.782
11857TIP3    H135516   4.561   7.465   2.870
11857TIP3    H235517   4.464   7.399   2.775
11858TIP3   OH235518   2.651   7.294   0.201
11858TIP3    H135519   2.636   7.376   0.153
11858TIP3    H235520   2.604   7.306   0.284
11859TIP3   OH235521   3.929   6.446   5.221
11859TIP3    H135522   3.976   6.363   5.232
11859TIP3    H235523   3.879   6.456   5.303
11860TIP3   OH235524   1.277   6.372   0.737
11860TIP3    H135525   1.200   6.416   0.699
11860TIP3    H235526   1.247   6.343   0.823
11861TIP3   OH235527   3.882   2.681   5.200
11861TIP3    H135528   3.922   2.761   5.166
11861TIP3    H235529   3.839   2.641   5.124
11862TIP3   OH235530   3.972   6.397   0.104
11862TIP3    H135531   3.997   6.352   0.023
11862TIP3    H235532   3.902   6.342   0.141
11863TIP3   OH235533   6.134   5.690   4.551
11863TIP3    H135534   6.187   5.756   4.595
11863TIP3    H235535   6.110   5.628   4.619
11864TIP3   OH235536   0.520   2.362   5.301
11864TIP3    H135537   0.449   2.394   5.356
11864TIP3    H235538   0.577   2.314   5.361
11865TIP3   OH235539   3.521   3.154   0.502
11865TIP3    H135540   3.540   3.061   0.488
11865TIP3    H235541   3.550   3.197   0.421
11866TIP3   OH235542   3.625   4.606   1.600
11866TIP3    H135543   3.580   4.534   1.644
11866TIP3    H235544   3.717   4.584   1.606
11867TIP3   OH235545   5.278   0.437   5.501
11867TIP3    H135546   5.200   0.477   5.541
11867TIP3    H235547   5.247   0.403   5.416
11868TIP3   OH235548   1.535   5.908   5.679
11868TIP3    H135549   1.534   5.896   5.774
11868TIP3    H235550   1.484   5.988   5.665
11869TIP3   OH235551   2.991   0.241   6.624
11869TIP3    H135552   2.920   0.199   6.576
11869TIP3    H235553   2.954   0.259   6.710
11870TIP3   OH235554   3.840   1.410   3.299
11870TIP3    H135555   3.774   1.458   3.249
11870TIP3    H235556   3.894   1.477   3.339
11871TIP3   OH235557   8.190   2.484   5.054
11871TIP3    H135558   8.187   2.576   5.025
11871TIP3    H235559   8.130   2.480   5.128
11872TIP3   OH235560   3.684   2.829   4.365
11872TIP3    H135561   3.713   2.740   4.346
11872TIP3    H235562   3.719   2.881   4.293
11873TIP3   OH235563   1.048   2.156   5.866
11873TIP3    H135564   1.121   2.214   5.845
11873TIP3    H235565   0.992   2.207   5.925
11874TIP3   OH235566   6.033   3.328   4.799
11874TIP3    H135567   5.975   3.254   4.779
11874TIP3    H235568   6.076   3.302   4.881
11875TIP3   OH235569   4.429   7.093   2.380
11875TIP3    H135570   4.357   7.140   2.338
11875TIP3    H235571   4.508   7.127   2.337
11876TIP3   OH235572   6.567   3.318   4.949
11876TIP3    H135573   6.489   3.373   4.952
11876TIP3    H235574   6.629   3.367   4.897
11877TIP3   OH235575   6.088   5.468   1.157
11877TIP3    H135576   6.055   5.427   1.077
11877TIP3    H235577   6.153   5.532   1.126
11878TIP3   OH235578   6.669   4.855   1.443
11878TIP3    H135579   6.724   4.931   1.429
11878TIP3    H235580   6.716   4.802   1.507
11879TIP3   OH235581   6.240   6.775   4.882
11879TIP3    H135582   6.249   6.833   4.807
11879TIP3    H235583   6.145   6.765   4.893
11880TIP3   OH235584   0.174   2.562   5.080
11880TIP3    H135585   0.140   2.502   5.146
11880TIP3    H235586   0.178   2.510   4.999
11881TIP3   OH235587   0.162   0.611   5.812
11881TIP3    H135588   0.220   0.539   5.835
11881TIP3    H235589   0.220   0.678   5.777
11882TIP3   OH235590   5.090   1.429   5.642
11882TIP3    H135591   5.052   1.413   5.556
11882TIP3    H235592   5.112   1.343   5.676
11883TIP3   OH235593   3.915   0.196   1.906
11883TIP3    H135594   3.881   0.278   1.872
11883TIP3    H235595   4.005   0.216   1.932
11884TIP3   OH235596   0.921   2.859   2.806
11884TIP3    H135597   0.883   2.774   2.827
11884TIP3    H235598   0.956   2.849   2.717
11885TIP3   OH235599   4.956   4.540   4.358
11885TIP3    H135600   4.896   4.548   4.284
11885TIP3    H235601   5.020   4.475   4.329
11886TIP3   OH235602   2.445   5.446   5.151
11886TIP3    H135603   2.376   5.391   5.116
11886TIP3    H235604   2.474   5.402   5.230
11887TIP3   OH235605   6.369   7.586   6.065
11887TIP3    H135606   6.455   7.562   6.101
11887TIP3    H235607   6.376   7.680   6.048
11888TIP3   OH235608   4.113   7.053   6.036
11888TIP3    H135609   4.120   7.113   5.962
11888TIP3    H235610   4.019   7.038   6.047
11889TIP3   OH235611   8.028   7.575   5.342
11889TIP3    H135612   8.074   7.634   5.282
11889TIP3    H235613   7.935   7.587   5.321
11890TIP3   OH235614   5.545   1.248   0.644
11890TIP3    H135615   5.508   1.337   0.641
11890TIP3    H235616   5.547   1.227   0.738
11891TIP3   OH235617   8.099   5.190   6.690
11891TIP3    H135618   8.161   5.263   6.688
11891TIP3    H235619   8.029   5.216   6.631
11892TIP3   OH235620   1.594   5.455   5.891
11892TIP3    H135621   1.649   5.516   5.843
11892TIP3    H235622   1.513   5.451   5.840
11893TIP3   OH235623   2.074   6.100   4.250
11893TIP3    H135624   2.130   6.163   4.297
11893TIP3    H235625   2.021   6.154   4.191
11894TIP3   OH235626   3.184   3.824   4.030
11894TIP3    H135627   3.149   3.819   4.119
11894TIP3    H235628   3.279   3.825   4.042
11895TIP3   OH235629   7.643   7.367   4.078
11895TIP3    H135630   7.632   7.291   4.020
11895TIP3    H235631   7.668   7.330   4.162
11896TIP3   OH235632   2.085   3.934   3.784
11896TIP3    H135633   2.002   3.953   3.829
11896TIP3    H235634   2.122   4.020   3.765
11897TIP3   OH235635   4.841   1.591   2.991
11897TIP3    H135636   4.843   1.566   2.899
11897TIP3    H235637   4.777   1.532   3.031
11898TIP3   OH235638   3.263   5.142   4.666
11898TIP3    H135639   3.303   5.073   4.718
11898TIP3    H235640   3.325   5.159   4.596
11899TIP3   OH235641   0.636   3.047   1.325
11899TIP3    H135642   0.602   2.958   1.314
11899TIP3    H235643   0.588   3.082   1.400
11900TIP3   OH235644   6.982   4.504   6.694
11900TIP3    H135645   7.039   4.460   6.757
11900TIP3    H235646   6.894   4.470   6.714
11901TIP3   OH235647   1.932   5.599   4.457
11901TIP3    H135648   1.970   5.635   4.538
11901TIP3    H235649   1.933   5.504   4.470
11902TIP3   OH235650   5.060   0.604   0.050
11902TIP3    H135651   5.143   0.560   0.034
11902TIP3    H235652   5.025   0.562   0.129
11903TIP3   OH235653   2.523   7.601   2.916
11903TIP3    H135654   2.530   7.566   3.006
11903TIP3    H235655   2.487   7.529   2.865
11904TIP3   OH235656   0.849   4.657   6.688
11904TIP3    H135657   0.764   4.659   6.644
11904TIP3    H235658   0.844   4.581   6.746
11905TIP3   OH235659   6.199   0.039   4.101
11905TIP3    H135660   6.227   0.118   4.054
11905TIP3    H235661   6.273  -0.021   4.093
11906TIP3   OH235662   8.123   0.161   0.927
11906TIP3    H135663   8.219   0.167   0.919
11906TIP3    H235664   8.099   0.091   0.866
11907TIP3   OH235665   7.688   6.681   1.267
11907TIP3    H135666   7.757   6.746   1.256
11907TIP3    H235667   7.735   6.602   1.294
11908TIP3   OH235668   7.319   3.191   1.518
11908TIP3    H135669   7.347   3.280   1.540
11908TIP3    H235670   7.288   3.155   1.601
11909TIP3   OH235671   5.155   5.837   0.719
11909TIP3    H135672   5.212   5.794   0.655
11909TIP3    H235673   5.143   5.926   0.684
11910TIP3   OH235674   0.425   7.587   6.701
11910TIP3    H135675   0.495   7.569   6.638
11910TIP3    H235676   0.356   7.630   6.650
11911TIP3   OH235677   4.551   3.944   0.419
11911TIP3    H135678   4.636   3.922   0.380
11911TIP3    H235679   4.503   3.861   0.420
11912TIP3   OH235680   3.309   1.272   2.757
11912TIP3    H135681   3.253   1.297   2.830
11912TIP3    H235682   3.356   1.352   2.733
11913TIP3   OH235683   5.713   3.873   0.097
11913TIP3    H135684   5.791   3.830   0.132
11913TIP3    H235685   5.747   3.932   0.030
11914TIP3   OH235686   0.199   5.134   4.722
11914TIP3    H135687   0.202   5.196   4.650
11914TIP3    H235688   0.217   5.049   4.681
11915TIP3   OH235689   6.898   0.403   3.585
11915TIP3    H135690   6.891   0.417   3.491
11915TIP3    H235691   6.909   0.308   3.594
11916TIP3   OH235692   7.845   0.101   6.196
11916TIP3    H135693   7.909   0.098   6.267
11916TIP3    H235694   7.871   0.176   6.143
11917TIP3   OH235695   6.878   1.254   3.069
11917TIP3    H135696   6.826   1.238   3.148
11917TIP3    H235697   6.837   1.331   3.029
11918TIP3   OH235698   0.144   7.048   4.835
11918TIP3    H135699   0.062   7.044   4.787
11918TIP3    H235700   0.122   7.085   4.920
11919TIP3   OH235701   0.698   2.129   3.803
11919TIP3    H135702   0.703   2.094   3.892
11919TIP3    H235703   0.665   2.057   3.750
11920TIP3   OH235704   6.090   1.593   1.305
11920TIP3    H135705   6.075   1.622   1.395
11920TIP3    H235706   6.017   1.534   1.285
11921TIP3   OH235707   1.409   3.002   5.828
11921TIP3    H135708   1.418   3.091   5.793
11921TIP3    H235709   1.460   2.947   5.767
11922TIP3   OH235710   2.544   2.333   5.846
11922TIP3    H135711   2.538   2.395   5.919
11922TIP3    H235712   2.612   2.369   5.789
11923TIP3   OH235713   0.864   2.944   3.370
11923TIP3    H135714   0.901   3.015   3.424
11923TIP3    H235715   0.940   2.907   3.324
11924TIP3   OH235716   6.147   1.104   0.928
11924TIP3    H135717   6.078   1.136   0.871
11924TIP3    H235718   6.196   1.183   0.952
11925TIP3   OH235719   2.518   3.767   1.791
11925TIP3    H135720   2.555   3.828   1.855
11925TIP3    H235721   2.581   3.768   1.718
11926TIP3   OH235722   5.713   2.098   3.385
11926TIP3    H135723   5.700   2.190   3.411
11926TIP3    H235724   5.808   2.086   3.391
11927TIP3   OH235725   7.883   5.188   2.120
11927TIP3    H135726   7.938   5.111   2.105
11927TIP3    H235727   7.795   5.153   2.133
11928TIP3   OH235728   6.348   2.822   6.726
11928TIP3    H135729   6.277   2.762   6.749
11928TIP3    H235730   6.427   2.769   6.731
11929TIP3   OH235731   5.858   1.493   2.167
11929TIP3    H135732   5.846   1.414   2.113
11929TIP3    H235733   5.772   1.534   2.169
11930TIP3   OH235734   7.865   6.455   3.576
11930TIP3    H135735   7.775   6.431   3.554
11930TIP3    H235736   7.915   6.374   3.567
11931TIP3   OH235737   7.408   4.382   2.069
11931TIP3    H135738   7.459   4.319   2.121
11931TIP3    H235739   7.367   4.438   2.134
11932TIP3   OH235740   7.009   0.985   4.566
11932TIP3    H135741   7.065   0.997   4.489
11932TIP3    H235742   6.920   0.999   4.533
11933TIP3   OH235743   5.991   1.087   1.274
11933TIP3    H135744   5.902   1.119   1.260
11933TIP3    H235745   5.980   1.002   1.317
11934TIP3   OH235746   6.033   5.574   6.648
11934TIP3    H135747   6.001   5.483   6.645
11934TIP3    H235748   5.955   5.625   6.672
11935TIP3   OH235749   5.940   3.191   6.760
11935TIP3    H135750   5.905   3.268   6.806
11935TIP3    H235751   6.014   3.163   6.813
11936TIP3   OH235752   6.548   3.273   6.193
11936TIP3    H135753   6.454   3.281   6.176
11936TIP3    H235754   6.554   3.236   6.281
11937TIP3   OH235755   2.530   5.727   4.603
11937TIP3    H135756   2.527   5.695   4.513
11937TIP3    H235757   2.525   5.647   4.657
11938TIP3   OH235758   4.270   2.667   6.589
11938TIP3    H135759   4.231   2.674   6.501
11938TIP3    H235760   4.277   2.572   6.603
11939TIP3   OH235761   3.339   4.097   6.579
11939TIP3    H135762   3.278   4.030   6.611
11939TIP3    H235763   3.283   4.173   6.561
11940TIP3   OH235764   4.168   6.635   5.953
11940TIP3    H135765   4.104   6.623   5.882
11940TIP3    H235766   4.140   6.575   6.021
11941TIP3   OH235767   6.381   7.733   4.253
11941TIP3    H135768   6.371   7.823   4.282
11941TIP3    H235769   6.474   7.724   4.232
11942TIP3   OH235770   3.295   3.260   1.327
11942TIP3    H135771   3.372   3.215   1.361
11942TIP3    H235772   3.324   3.349   1.310
11943TIP3   OH235773   1.689   5.007   6.159
11943TIP3    H135774   1.611   5.060   6.178
11943TIP3    H235775   1.690   4.999   6.064
11944TIP3   OH235776   7.642   2.385   2.324
11944TIP3    H135777   7.632   2.293   2.350
11944TIP3    H235778   7.567   2.403   2.268
11945TIP3   OH235779   6.694   2.710   2.468
11945TIP3    H135780   6.723   2.795   2.501
11945TIP3    H235781   6.728   2.647   2.532
11946TIP3   OH235782   0.681   0.925   3.413
11946TIP3    H135783   0.708   0.928   3.505
11946TIP3    H235784   0.683   1.017   3.385
11947TIP3   OH235785   7.197   1.762   2.629
11947TIP3    H135786   7.173   1.843   2.583
11947TIP3    H235787   7.194   1.694   2.561
11948TIP3   OH235788   1.399   3.424   0.957
11948TIP3    H135789   1.412   3.335   0.990
11948TIP3    H235790   1.318   3.453   0.998
11949TIP3   OH235791   7.791   5.776   3.837
11949TIP3    H135792   7.877   5.812   3.859
11949TIP3    H235793   7.804   5.681   3.837
11950TIP3   OH235794   0.015   2.871   1.483
11950TIP3    H135795   0.004   2.874   1.388
11950TIP3    H235796  -0.017   2.785   1.508
11951TIP3   OH235797   2.752   3.261   5.425
11951TIP3    H135798   2.714   3.174   5.413
11951TIP3    H235799   2.742   3.303   5.340
11952TIP3   OH235800   0.114   3.717   1.058
11952TIP3    H135801   0.046   3.677   1.112
11952TIP3    H235802   0.135   3.650   0.993
11953TIP3   OH235803   4.336   7.315   1.682
11953TIP3    H135804   4.264   7.331   1.743
11953TIP3    H235805   4.384   7.397   1.681
11954TIP3   OH235806   6.551   2.522   5.384
11954TIP3    H135807   6.510   2.594   5.432
11954TIP3    H235808   6.568   2.557   5.297
11955TIP3   OH235809   2.989   2.393   0.935
11955TIP3    H135810   3.083   2.398   0.923
11955TIP3    H235811   2.977   2.374   1.028
11956TIP3   OH235812   7.947   4.817   1.822
11956TIP3    H135813   7.934   4.836   1.914
11956TIP3    H235814   8.021   4.872   1.796
11957TIP3   OH235815   3.518   0.881   6.669
11957TIP3    H135816   3.543   0.807   6.724
11957TIP3    H235817   3.598   0.903   6.621
11958TIP3   OH235818   3.824   0.430   4.632
11958TIP3    H135819   3.866   0.489   4.695
11958TIP3    H235820   3.833   0.343   4.670
11959TIP3   OH235821   1.620   5.405   2.437
11959TIP3    H135822   1.692   5.346   2.457
11959TIP3    H235823   1.637   5.435   2.348
11960TIP3   OH235824   1.102   3.068   0.314
11960TIP3    H135825   1.038   3.139   0.324
11960TIP3    H235826   1.187   3.111   0.326
11961TIP3   OH235827   2.287   0.298   3.725
11961TIP3    H135828   2.282   0.394   3.724
11961TIP3    H235829   2.357   0.278   3.787
11962TIP3   OH235830   0.085   6.282   6.557
11962TIP3    H135831   0.057   6.364   6.598
11962TIP3    H235832   0.038   6.280   6.473
11963TIP3   OH235833   4.151   4.517   1.718
11963TIP3    H135834   4.230   4.564   1.745
11963TIP3    H235835   4.144   4.445   1.781
11964TIP3   OH235836   4.043   6.462   6.542
11964TIP3    H135837   4.044   6.375   6.583
11964TIP3    H235838   4.086   6.519   6.606
11965TIP3   OH235839   2.187   3.969   4.078
11965TIP3    H135840   2.255   3.903   4.092
11965TIP3    H235841   2.125   3.927   4.018
11966TIP3   OH235842   7.142   0.128   3.844
11966TIP3    H135843   7.187   0.080   3.913
11966TIP3    H235844   7.065   0.166   3.887
11967TIP3   OH235845   7.841   0.319   4.059
11967TIP3    H135846   7.781   0.255   4.096
11967TIP3    H235847   7.839   0.393   4.121
11968TIP3   OH235848   6.897   0.397   1.938
11968TIP3    H135849   6.871   0.480   1.897
11968TIP3    H235850   6.826   0.337   1.915
11969TIP3   OH235851   3.214   5.197   4.123
11969TIP3    H135852   3.221   5.182   4.217
11969TIP3    H235853   3.305   5.196   4.092
11970TIP3   OH235854   7.073   6.773   6.502
11970TIP3    H135855   7.124   6.700   6.537
11970TIP3    H235856   7.134   6.847   6.504
11971TIP3   OH235857   3.649   1.531   0.860
11971TIP3    H135858   3.637   1.623   0.881
11971TIP3    H235859   3.587   1.514   0.789
11972TIP3   OH235860   5.429   4.751   4.399
11972TIP3    H135861   5.367   4.708   4.340
11972TIP3    H235862   5.404   4.843   4.397
11973TIP3   OH235863   1.146   4.383   5.388
11973TIP3    H135864   1.086   4.394   5.314
11973TIP3    H235865   1.199   4.463   5.388
11974TIP3   OH235866   1.205   2.400   1.746
11974TIP3    H135867   1.262   2.434   1.677
11974TIP3    H235868   1.202   2.469   1.812
11975TIP3   OH235869   3.983   1.449   1.523
11975TIP3    H135870   4.010   1.473   1.435
11975TIP3    H235871   3.922   1.517   1.550
11976TIP3   OH235872   3.198   3.746   2.353
11976TIP3    H135873   3.237   3.781   2.433
11976TIP3    H235874   3.213   3.814   2.287
11977TIP3   OH235875   4.542   2.381   6.210
11977TIP3    H135876   4.540   2.340   6.296
11977TIP3    H235877   4.587   2.318   6.154
11978TIP3   OH235878   5.624   6.770   3.100
11978TIP3    H135879   5.575   6.688   3.104
11978TIP3    H235880   5.562   6.834   3.066
11979TIP3   OH235881   7.233   7.335   2.863
11979TIP3    H135882   7.242   7.382   2.946
11979TIP3    H235883   7.250   7.402   2.796
11980TIP3   OH235884   1.805   5.549   6.269
11980TIP3    H135885   1.881   5.507   6.308
11980TIP3    H235886   1.842   5.607   6.202
11981TIP3   OH235887   5.058   0.936   2.375
11981TIP3    H135888   4.968   0.906   2.385
11981TIP3    H235889   5.078   0.980   2.458
11982TIP3   OH235890   0.907   0.663   3.896
11982TIP3    H135891   0.835   0.604   3.877
11982TIP3    H235892   0.881   0.709   3.976
11983TIP3   OH235893   6.501   2.266   2.237
11983TIP3    H135894   6.501   2.358   2.211
11983TIP3    H235895   6.412   2.250   2.269
11984TIP3   OH235896   5.704   7.689   3.742
11984TIP3    H135897   5.798   7.669   3.745
11984TIP3    H235898   5.688   7.742   3.820
11985TIP3   OH235899   6.348   6.992   2.451
11985TIP3    H135900   6.430   7.039   2.472
11985TIP3    H235901   6.279   7.056   2.469
11986TIP3   OH235902   7.155   1.692   4.056
11986TIP3    H135903   7.144   1.607   4.013
11986TIP3    H235904   7.190   1.749   3.988
11987TIP3   OH235905   5.152   3.579   5.520
11987TIP3    H135906   5.205   3.499   5.518
11987TIP3    H235907   5.063   3.549   5.537
11988TIP3   OH235908   6.681   2.669   4.899
11988TIP3    H135909   6.759   2.618   4.879
11988TIP3    H235910   6.640   2.686   4.814
11989TIP3   OH235911   7.222   5.879   1.494
11989TIP3    H135912   7.203   5.787   1.474
11989TIP3    H235913   7.137   5.923   1.485
11990TIP3   OH235914   7.884   5.477   2.433
11990TIP3    H135915   7.887   5.447   2.342
11990TIP3    H235916   7.805   5.531   2.438
11991TIP3   OH235917   5.373   7.403   0.797
11991TIP3    H135918   5.309   7.466   0.765
11991TIP3    H235919   5.334   7.367   0.877
11992TIP3   OH235920   6.789   6.632   1.215
11992TIP3    H135921   6.741   6.605   1.137
11992TIP3    H235922   6.753   6.718   1.237
11993TIP3   OH235923   2.129   2.406   0.854
11993TIP3    H135924   2.085   2.363   0.928
11993TIP3    H235925   2.193   2.341   0.825
11994TIP3   OH235926   0.447   4.600   4.573
11994TIP3    H135927   0.389   4.578   4.645
11994TIP3    H235928   0.396   4.660   4.518
11995TIP3   OH235929   1.614   3.318   4.342
11995TIP3    H135930   1.606   3.412   4.361
11995TIP3    H235931   1.527   3.293   4.310
11996TIP3   OH235932   5.154   3.043   6.224
11996TIP3    H135933   5.083   3.105   6.246
11996TIP3    H235934   5.224   3.098   6.191
11997TIP3   OH235935   1.203   6.789   5.373
11997TIP3    H135936   1.156   6.849   5.431
11997TIP3    H235937   1.286   6.772   5.418
11998TIP3   OH235938   2.651   3.366   3.472
11998TIP3    H135939   2.602   3.309   3.413
11998TIP3    H235940   2.624   3.455   3.448
11999TIP3   OH235941   5.397   4.949   2.639
11999TIP3    H135942   5.363   5.005   2.709
11999TIP3    H235943   5.428   4.870   2.683
12000TIP3   OH235944   1.337   3.146   1.023
12000TIP3    H135945   1.352   3.052   1.011
12000TIP3    H235946   1.266   3.167   0.962
12001TIP3   OH235947   0.128   6.978   6.015
12001TIP3    H135948   0.106   6.993   5.923
12001TIP3    H235949   0.221   6.998   6.021
12002TIP3   OH235950   0.087   4.733   6.727
12002TIP3    H135951   0.174   4.698   6.747
12002TIP3    H235952   0.101   4.787   6.650
12003TIP3   OH235953   1.854   1.228   5.901
12003TIP3    H135954   1.929   1.261   5.949
12003TIP3    H235955   1.821   1.155   5.953
12004TIP3   OH235956   2.033   5.356   2.372
12004TIP3    H135957   1.957   5.313   2.411
12004TIP3    H235958   2.107   5.325   2.423
12005TIP3   OH235959   3.919   3.368   6.248
12005TIP3    H135960   3.978   3.399   6.317
12005TIP3    H235961   3.968   3.300   6.202
12006TIP3   OH235962   3.662   6.212   1.540
12006TIP3    H135963   3.680   6.287   1.483
12006TIP3    H235964   3.573   6.227   1.572
12007TIP3   OH235965   3.423   1.662   2.024
12007TIP3    H135966   3.508   1.706   2.017
12007TIP3    H235967   3.432   1.585   1.968
12008TIP3   OH235968   7.175   0.369   5.690
12008TIP3    H135969   7.226   0.296   5.656
12008TIP3    H235970   7.169   0.431   5.618
12009TIP3   OH235971   6.644   0.800   5.123
12009TIP3    H135972   6.647   0.875   5.182
12009TIP3    H235973   6.697   0.733   5.167
12010TIP3   OH235974   4.789   6.700   4.337
12010TIP3    H135975   4.810   6.640   4.266
12010TIP3    H235976   4.799   6.649   4.416
12011TIP3   OH235977   8.171   1.579   5.721
12011TIP3    H135978   8.079   1.605   5.720
12011TIP3    H235979   8.218   1.655   5.686
12012TIP3   OH235980   0.214   0.089   1.464
12012TIP3    H135981   0.170   0.120   1.386
12012TIP3    H235982   0.244   0.001   1.441
12013TIP3   OH235983   2.183   6.705   6.427
12013TIP3    H135984   2.267   6.667   6.453
12013TIP3    H235985   2.161   6.765   6.498
12014TIP3   OH235986   3.535   0.193   4.088
12014TIP3    H135987   3.490   0.109   4.077
12014TIP3    H235988   3.474   0.245   4.140
12015TIP3   OH235989   2.063   7.781   2.472
12015TIP3    H135990   2.058   7.695   2.431
12015TIP3    H235991   2.008   7.774   2.550
12016TIP3   OH235992   0.862   1.146   6.163
12016TIP3    H135993   0.786   1.128   6.219
12016TIP3    H235994   0.900   1.226   6.198
12017TIP3   OH235995   0.178   0.779   0.116
12017TIP3    H135996   0.256   0.787   0.171
12017TIP3    H235997   0.121   0.718   0.164
12018TIP3   OH235998   2.193   3.976   4.430
12018TIP3    H135999   2.190   3.926   4.511
12018TIP3    H236000   2.205   4.066   4.457
12019TIP3   OH236001   5.861   0.858   0.324
12019TIP3    H136002   5.932   0.820   0.375
12019TIP3    H236003   5.793   0.878   0.389
12020TIP3   OH236004   2.879   7.498   4.377
12020TIP3    H136005   2.920   7.579   4.349
12020TIP3    H236006   2.951   7.435   4.385
12021TIP3   OH236007   6.883   3.581   4.099
12021TIP3    H136008   6.923   3.575   4.012
12021TIP3    H236009   6.789   3.581   4.082
12022TIP3   OH236010   0.810   3.851   1.089
12022TIP3    H136011   0.896   3.864   1.048
12022TIP3    H236012   0.831   3.810   1.174
12023TIP3   OH236013   0.090   2.447   5.549
12023TIP3    H136014   0.031   2.407   5.612
12023TIP3    H236015   0.054   2.423   5.463
12024TIP3   OH236016   3.779   2.330   4.740
12024TIP3    H136017   3.837   2.301   4.669
12024TIP3    H236018   3.838   2.360   4.809
12025TIP3   OH236019   3.594   3.581   2.602
12025TIP3    H136020   3.630   3.521   2.536
12025TIP3    H236021   3.508   3.544   2.623
12026TIP3   OH236022   1.086   0.497   1.887
12026TIP3    H136023   1.143   0.571   1.864
12026TIP3    H236024   1.072   0.452   1.804
12027TIP3   OH236025   0.748   6.188   1.174
12027TIP3    H136026   0.694   6.243   1.117
12027TIP3    H236027   0.828   6.240   1.187
12028TIP3   OH236028   7.072   7.125   2.592
12028TIP3    H136029   7.116   7.205   2.561
12028TIP3    H236030   6.981   7.151   2.606
12029TIP3   OH236031   2.394   3.186   0.762
12029TIP3    H136032   2.475   3.218   0.723
12029TIP3    H236033   2.353   3.134   0.694
12030TIP3   OH236034   6.589   5.226   1.707
12030TIP3    H136035   6.554   5.137   1.700
12030TIP3    H236036   6.627   5.230   1.795
12031TIP3   OH236037   2.277   7.778   3.703
12031TIP3    H136038   2.339   7.772   3.776
12031TIP3    H236039   2.332   7.772   3.625
12032TIP3   OH236040   5.136   1.792   6.208
12032TIP3    H136041   5.133   1.721   6.272
12032TIP3    H236042   5.069   1.770   6.143
12033TIP3   OH236043   7.056   7.727   6.198
12033TIP3    H136044   7.068   7.767   6.284
12033TIP3    H236045   6.974   7.763   6.166
12034TIP3   OH236046   0.505   1.471   1.836
12034TIP3    H136047   0.437   1.421   1.791
12034TIP3    H236048   0.535   1.534   1.771
12035TIP3   OH236049   4.558   3.191   4.352
12035TIP3    H136050   4.633   3.227   4.399
12035TIP3    H236051   4.596   3.129   4.290
12036TIP3   OH236052   7.545   5.834   1.059
12036TIP3    H136053   7.513   5.882   1.136
12036TIP3    H236054   7.541   5.742   1.086
12037TIP3   OH236055   3.854   6.092   4.947
12037TIP3    H136056   3.930   6.039   4.970
12037TIP3    H236057   3.873   6.124   4.859
12038TIP3   OH236058   3.831   7.632   5.734
12038TIP3    H136059   3.796   7.712   5.773
12038TIP3    H236060   3.757   7.573   5.728
12039TIP3   OH236061   5.304   0.165   2.653
12039TIP3    H136062   5.359   0.088   2.642
12039TIP3    H236063   5.227   0.133   2.700
12040TIP3   OH236064   3.337   4.039   6.325
12040TIP3    H136065   3.338   4.133   6.305
12040TIP3    H236066   3.324   4.034   6.419
12041TIP3   OH236067   1.194   4.361   3.714
12041TIP3    H136068   1.239   4.350   3.797
12041TIP3    H236069   1.134   4.286   3.709
12042TIP3   OH236070   3.476   1.978   4.260
12042TIP3    H136071   3.478   1.934   4.175
12042TIP3    H236072   3.386   2.011   4.268
12043TIP3   OH236073   0.617   0.934   4.846
12043TIP3    H136074   0.554   0.928   4.774
12043TIP3    H236075   0.569   0.900   4.921
12044TIP3   OH236076   0.595   1.414   2.672
12044TIP3    H136077   0.689   1.427   2.678
12044TIP3    H236078   0.577   1.406   2.578
12045TIP3   OH236079   3.574   6.366   4.208
12045TIP3    H136080   3.562   6.427   4.135
12045TIP3    H236081   3.494   6.315   4.211
12046TIP3   OH236082   4.821   0.242   2.813
12046TIP3    H136083   4.804   0.297   2.737
12046TIP3    H236084   4.815   0.301   2.888
12047TIP3   OH236085   5.179   2.380   0.699
12047TIP3    H136086   5.251   2.411   0.645
12047TIP3    H236087   5.178   2.285   0.686
12048TIP3   OH236088   6.659   6.492   0.973
12048TIP3    H136089   6.705   6.431   0.915
12048TIP3    H236090   6.567   6.474   0.959
12049TIP3   OH236091   0.169   6.528   5.335
12049TIP3    H136092   0.210   6.556   5.253
12049TIP3    H236093   0.170   6.605   5.391
12050TIP3   OH236094   8.272   7.514   1.628
12050TIP3    H136095   8.210   7.483   1.694
12050TIP3    H236096   8.219   7.567   1.568
12051TIP3   OH236097   5.114   6.951   1.743
12051TIP3    H136098   5.035   6.900   1.758
12051TIP3    H236099   5.090   7.013   1.674
12052TIP3   OH236100   6.409   1.435   2.812
12052TIP3    H136101   6.392   1.492   2.736
12052TIP3    H236102   6.389   1.490   2.888
12053TIP3   OH236103   4.567   4.880   5.386
12053TIP3    H136104   4.531   4.914   5.304
12053TIP3    H236105   4.602   4.794   5.363
12054TIP3   OH236106   2.462   3.406   4.419
12054TIP3    H136107   2.397   3.401   4.489
12054TIP3    H236108   2.430   3.344   4.353
12055TIP3   OH236109   1.780   0.964   5.498
12055TIP3    H136110   1.799   1.034   5.560
12055TIP3    H236111   1.685   0.967   5.487
12056TIP3   OH236112   6.200   7.395   4.664
12056TIP3    H136113   6.241   7.348   4.737
12056TIP3    H236114   6.176   7.326   4.602
12057TIP3   OH236115   0.125   0.942   5.826
12057TIP3    H136116   0.053   0.952   5.763
12057TIP3    H236117   0.203   0.931   5.772
12058TIP3   OH236118   3.295   6.972   6.121
12058TIP3    H136119   3.363   7.035   6.146
12058TIP3    H236120   3.212   7.016   6.140
12059TIP3   OH236121   0.271   3.623   5.019
12059TIP3    H136122   0.286   3.531   5.039
12059TIP3    H236123   0.243   3.662   5.101
12060TIP3   OH236124   0.894   6.974   0.753
12060TIP3    H136125   0.976   6.925   0.762
12060TIP3    H236126   0.838   6.917   0.700
12061TIP3   OH236127   4.671   0.264   5.210
12061TIP3    H136128   4.741   0.322   5.240
12061TIP3    H236129   4.650   0.210   5.286
12062TIP3   OH236130   0.231   5.735   0.772
12062TIP3    H136131   0.158   5.734   0.835
12062TIP3    H236132   0.278   5.816   0.791
12063TIP3   OH236133   5.362   0.854   4.537
12063TIP3    H136134   5.447   0.885   4.569
12063TIP3    H236135   5.300   0.919   4.568
12064TIP3   OH236136   0.768   3.662   4.294
12064TIP3    H136137   0.858   3.695   4.283
12064TIP3    H236138   0.778   3.584   4.348
12065TIP3   OH236139   6.204   7.661   5.508
12065TIP3    H136140   6.271   7.700   5.564
12065TIP3    H236141   6.241   7.577   5.481
12066TIP3   OH236142   0.832   7.140   0.533
12066TIP3    H136143   0.837   7.226   0.491
12066TIP3    H236144   0.904   7.140   0.596
12067TIP3   OH236145   3.250   3.470   5.308
12067TIP3    H136146   3.311   3.496   5.239
12067TIP3    H236147   3.186   3.541   5.311
12068TIP3   OH236148   3.116   6.243   5.482
12068TIP3    H136149   3.114   6.327   5.528
12068TIP3    H236150   3.024   6.218   5.475
12069TIP3   OH236151   1.913   2.044   0.891
12069TIP3    H136152   1.930   1.953   0.867
12069TIP3    H236153   1.907   2.043   0.987
12070TIP3   OH236154   1.700   3.743   6.040
12070TIP3    H136155   1.756   3.813   6.007
12070TIP3    H236156   1.693   3.760   6.134
12071TIP3   OH236157   2.001   5.982   2.668
12071TIP3    H136158   1.964   5.899   2.699
12071TIP3    H236159   2.094   5.976   2.690
12072TIP3   OH236160   5.646   4.655   5.727
12072TIP3    H136161   5.700   4.579   5.749
12072TIP3    H236162   5.697   4.730   5.761
12073TIP3   OH236163   0.937   2.809   1.893
12073TIP3    H136164   0.965   2.757   1.968
12073TIP3    H236165   0.845   2.784   1.879
12074TIP3   OH236166   2.774   6.796   0.368
12074TIP3    H136167   2.757   6.716   0.417
12074TIP3    H236168   2.809   6.858   0.433
12075TIP3   OH236169   6.093   1.860   5.225
12075TIP3    H136170   6.019   1.800   5.217
12075TIP3    H236171   6.170   1.806   5.209
12076TIP3   OH236172   2.038   5.153   3.059
12076TIP3    H136173   2.057   5.232   3.009
12076TIP3    H236174   1.961   5.175   3.111
12077TIP3   OH236175   6.868   2.178   0.027
12077TIP3    H136176   6.892   2.269   0.011
12077TIP3    H236177   6.884   2.165   0.120
12078TIP3   OH236178   4.660   3.816   2.848
12078TIP3    H136179   4.719   3.743   2.829
12078TIP3    H236180   4.597   3.814   2.776
12079TIP3   OH236181   7.927   3.266   0.250
12079TIP3    H136182   7.840   3.227   0.256
12079TIP3    H236183   7.957   3.273   0.341
12080TIP3   OH236184   5.505   6.987   4.819
12080TIP3    H136185   5.428   6.936   4.845
12080TIP3    H236186   5.500   7.066   4.872
12081TIP3   OH236187   3.885   0.873   0.320
12081TIP3    H136188   3.808   0.904   0.367
12081TIP3    H236189   3.955   0.934   0.345
12082TIP3   OH236190   2.372   3.838   3.031
12082TIP3    H136191   2.453   3.889   3.025
12082TIP3    H236192   2.372   3.804   3.120
12083TIP3   OH236193   5.220   1.589   2.570
12083TIP3    H136194   5.194   1.680   2.580
12083TIP3    H236195   5.315   1.590   2.579
12084TIP3   OH236196   3.954   4.925   5.199
12084TIP3    H136197   3.861   4.916   5.223
12084TIP3    H236198   4.001   4.879   5.269
12085TIP3   OH236199   1.439   2.568   6.000
12085TIP3    H136200   1.351   2.585   5.966
12085TIP3    H236201   1.467   2.652   6.039
12086TIP3   OH236202   7.721   6.771   6.166
12086TIP3    H136203   7.784   6.723   6.220
12086TIP3    H236204   7.637   6.755   6.208
12087TIP3   OH236205   5.797   2.901   5.555
12087TIP3    H136206   5.705   2.876   5.542
12087TIP3    H236207   5.846   2.820   5.540
12088TIP3   OH236208   5.204   0.756   2.710
12088TIP3    H136209   5.197   0.848   2.682
12088TIP3    H236210   5.228   0.709   2.630
12089TIP3   OH236211   0.670   6.355   3.658
12089TIP3    H136212   0.615   6.401   3.721
12089TIP3    H236213   0.611   6.297   3.610
12090TIP3   OH236214   2.000   6.028   6.294
12090TIP3    H136215   1.943   6.005   6.368
12090TIP3    H236216   2.077   6.068   6.336
12091TIP3   OH236217   0.495   2.523   5.047
12091TIP3    H136218   0.399   2.526   5.043
12091TIP3    H236219   0.521   2.485   4.963
12092TIP3   OH236220   2.118   5.642   2.528
12092TIP3    H136221   2.126   5.693   2.448
12092TIP3    H236222   2.199   5.591   2.532
12093TIP3   OH236223   1.237   2.585   2.279
12093TIP3    H136224   1.196   2.516   2.332
12093TIP3    H236225   1.314   2.544   2.241
12094TIP3   OH236226   8.262   1.579   0.949
12094TIP3    H136227   8.355   1.564   0.929
12094TIP3    H236228   8.226   1.621   0.871
12095TIP3   OH236229   1.201   7.143   4.550
12095TIP3    H136230   1.175   7.236   4.555
12095TIP3    H236231   1.121   7.095   4.572
12096TIP3   OH236232   1.956   3.833   5.207
12096TIP3    H136233   2.029   3.804   5.262
12096TIP3    H236234   1.998   3.883   5.137
12097TIP3   OH236235   2.837   7.229   1.061
12097TIP3    H136236   2.750   7.250   1.095
12097TIP3    H236237   2.891   7.305   1.084
12098TIP3   OH236238   7.510   4.974   5.887
12098TIP3    H136239   7.472   4.902   5.837
12098TIP3    H236240   7.437   5.034   5.902
12099TIP3   OH236241   5.279   6.176   0.655
12099TIP3    H136242   5.293   6.196   0.747
12099TIP3    H236243   5.362   6.195   0.612
12100TIP3   OH236244   5.582   1.945   0.320
12100TIP3    H136245   5.614   1.866   0.277
12100TIP3    H236246   5.582   1.923   0.413
12101TIP3   OH236247   5.464   6.039   6.187
12101TIP3    H136248   5.464   5.964   6.128
12101TIP3    H236249   5.505   6.110   6.136
12102TIP3   OH236250   2.487   0.576   1.873
12102TIP3    H136251   2.408   0.553   1.921
12102TIP3    H236252   2.559   0.561   1.934
12103TIP3   OH236253   0.621   5.862   2.588
12103TIP3    H136254   0.595   5.954   2.596
12103TIP3    H236255   0.556   5.824   2.529
12104TIP3   OH236256   4.149   6.185   1.673
12104TIP3    H136257   4.129   6.121   1.605
12104TIP3    H236258   4.074   6.244   1.674
12105TIP3   OH236259   7.018   5.482   0.218
12105TIP3    H136260   7.066   5.539   0.159
12105TIP3    H236261   7.074   5.473   0.295
12106TIP3   OH236262   1.280   0.970   2.309
12106TIP3    H136263   1.262   0.886   2.351
12106TIP3    H236264   1.370   0.962   2.276
12107TIP3   OH236265   5.733   0.562   2.851
12107TIP3    H136266   5.784   0.623   2.905
12107TIP3    H236267   5.797   0.500   2.817
12108TIP3   OH236268   5.471   6.162   4.288
12108TIP3    H136269   5.452   6.212   4.367
12108TIP3    H236270   5.385   6.134   4.256
12109TIP3   OH236271   3.570   7.379   5.550
12109TIP3    H136272   3.490   7.370   5.499
12109TIP3    H236273   3.548   7.443   5.618
12110TIP3   OH236274   3.474   6.274   5.523
12110TIP3    H136275   3.484   6.179   5.516
12110TIP3    H236276   3.452   6.289   5.615
12111TIP3   OH236277   7.248   1.216   6.742
12111TIP3    H136278   7.304   1.143   6.713
12111TIP3    H236279   7.218   1.257   6.661
12112TIP3   OH236280   5.267   2.957   3.112
12112TIP3    H136281   5.203   2.987   3.177
12112TIP3    H236282   5.352   2.983   3.149
12113TIP3   OH236283   1.673   0.010   5.977
12113TIP3    H136284   1.641  -0.069   6.020
12113TIP3    H236285   1.598   0.070   5.978
12114TIP3   OH236286   1.012   6.058   0.661
12114TIP3    H136287   1.010   5.963   0.650
12114TIP3    H236288   0.955   6.075   0.736
12115TIP3   OH236289   7.843   7.578   4.063
12115TIP3    H136290   7.800   7.648   4.113
12115TIP3    H236291   7.778   7.507   4.061
12116TIP3   OH236292   0.377   4.666   2.204
12116TIP3    H136293   0.343   4.651   2.116
12116TIP3    H236294   0.329   4.742   2.236
12117TIP3   OH236295   6.620   1.848   4.410
12117TIP3    H136296   6.558   1.776   4.404
12117TIP3    H236297   6.668   1.833   4.492
12118TIP3   OH236298   5.862   1.725   1.794
12118TIP3    H136299   5.944   1.676   1.795
12118TIP3    H236300   5.857   1.766   1.881
12119TIP3   OH236301   0.639   2.286   0.509
12119TIP3    H136302   0.580   2.339   0.456
12119TIP3    H236303   0.635   2.198   0.469
12120TIP3   OH236304   0.979   6.119   5.531
12120TIP3    H136305   1.069   6.116   5.564
12120TIP3    H236306   0.976   6.049   5.465
12121TIP3   OH236307   4.178   1.807   6.508
12121TIP3    H136308   4.131   1.771   6.433
12121TIP3    H236309   4.223   1.732   6.547
12122TIP3   OH236310   4.868   5.286   3.314
12122TIP3    H136311   4.863   5.193   3.293
12122TIP3    H236312   4.863   5.289   3.409
12123TIP3   OH236313   0.442   2.156   4.374
12123TIP3    H136314   0.460   2.249   4.360
12123TIP3    H236315   0.393   2.153   4.456
12124TIP3   OH236316   6.019   2.390   3.068
12124TIP3    H136317   6.060   2.439   2.996
12124TIP3    H236318   5.975   2.457   3.120
12125TIP3   OH236319   5.197   0.313   3.747
12125TIP3    H136320   5.122   0.324   3.805
12125TIP3    H236321   5.263   0.373   3.781
12126TIP3   OH236322   2.706   7.774   2.735
12126TIP3    H136323   2.633   7.719   2.765
12126TIP3    H236324   2.784   7.721   2.752
12127TIP3   OH236325   8.186   1.523   1.769
12127TIP3    H136326   8.138   1.450   1.729
12127TIP3    H236327   8.220   1.572   1.694
12128TIP3   OH236328   0.793   1.625   4.466
12128TIP3    H136329   0.782   1.535   4.498
12128TIP3    H236330   0.862   1.662   4.521
12129TIP3   OH236331   2.192   5.906   0.436
12129TIP3    H136332   2.153   5.973   0.380
12129TIP3    H236333   2.257   5.863   0.380
12130TIP3   OH236334   3.045   7.109   3.202
12130TIP3    H136335   2.989   7.038   3.234
12130TIP3    H236336   3.007   7.189   3.239
12131TIP3   OH236337   6.211   2.497   1.891
12131TIP3    H136338   6.156   2.429   1.930
12131TIP3    H236339   6.153   2.571   1.878
12132TIP3   OH236340   3.766   3.635   3.354
12132TIP3    H136341   3.717   3.714   3.376
12132TIP3    H236342   3.778   3.590   3.437
12133TIP3   OH236343   2.145   6.362   2.105
12133TIP3    H136344   2.137   6.455   2.128
12133TIP3    H236345   2.133   6.360   2.010
12134TIP3   OH236346   4.080   4.052   5.136
12134TIP3    H136347   4.073   4.122   5.201
12134TIP3    H236348   4.013   4.073   5.071
12135TIP3   OH236349   2.591   0.631   1.068
12135TIP3    H136350   2.683   0.605   1.065
12135TIP3    H236351   2.542   0.550   1.055
12136TIP3   OH236352   8.055   5.810   5.078
12136TIP3    H136353   8.005   5.840   5.154
12136TIP3    H236354   8.066   5.888   5.024
12137TIP3   OH236355   4.732   4.602   0.731
12137TIP3    H136356   4.773   4.651   0.659
12137TIP3    H236357   4.747   4.657   0.808
12138TIP3   OH236358   7.237   6.363   3.889
12138TIP3    H136359   7.211   6.275   3.917
12138TIP3    H236360   7.318   6.350   3.840
12139TIP3   OH236361   1.284   4.885   4.831
12139TIP3    H136362   1.295   4.980   4.833
12139TIP3    H236363   1.367   4.852   4.796
12140TIP3   OH236364   0.484   6.230   1.382
12140TIP3    H136365   0.456   6.254   1.294
12140TIP3    H236366   0.574   6.263   1.388
12141TIP3   OH236367   0.392   1.537   1.385
12141TIP3    H136368   0.469   1.517   1.332
12141TIP3    H236369   0.356   1.451   1.408
12142TIP3   OH236370   5.463   2.988   5.790
12142TIP3    H136371   5.523   3.056   5.820
12142TIP3    H236372   5.408   3.030   5.725
12143TIP3   OH236373   2.605   3.362   6.524
12143TIP3    H136374   2.602   3.457   6.514
12143TIP3    H236375   2.662   3.332   6.453
12144TIP3   OH236376   1.572   4.657   1.735
12144TIP3    H136377   1.506   4.600   1.695
12144TIP3    H236378   1.571   4.736   1.682
12145TIP3   OH236379   4.560   2.567   2.083
12145TIP3    H136380   4.501   2.531   2.149
12145TIP3    H236381   4.622   2.497   2.064
12146TIP3   OH236382   6.476   6.157   1.540
12146TIP3    H136383   6.486   6.248   1.512
12146TIP3    H236384   6.387   6.153   1.576
12147TIP3   OH236385   4.199   1.381   5.649
12147TIP3    H136386   4.134   1.319   5.614
12147TIP3    H236387   4.167   1.402   5.736
12148TIP3   OH236388   7.167   3.151   2.409
12148TIP3    H136389   7.238   3.216   2.411
12148TIP3    H236390   7.212   3.068   2.393
12149TIP3   OH236391   7.617   5.434   0.321
12149TIP3    H136392   7.651   5.507   0.270
12149TIP3    H236393   7.529   5.418   0.286
12150TIP3   OH236394   1.268   5.425   1.580
12150TIP3    H136395   1.323   5.402   1.655
12150TIP3    H236396   1.243   5.342   1.541
12151TIP3   OH236397   4.534   1.681   5.449
12151TIP3    H136398   4.518   1.736   5.525
12151TIP3    H236399   4.481   1.603   5.464
12152TIP3   OH236400   6.138   1.188   0.436
12152TIP3    H136401   6.149   1.185   0.531
12152TIP3    H236402   6.139   1.282   0.415
12153TIP3   OH236403   6.117   3.790   4.552
12153TIP3    H136404   6.070   3.710   4.577
12153TIP3    H236405   6.097   3.853   4.621
12154TIP3   OH236406   7.041   3.486   1.791
12154TIP3    H136407   6.976   3.555   1.806
12154TIP3    H236408   7.093   3.484   1.871
12155TIP3   OH236409   5.808   6.347   4.512
12155TIP3    H136410   5.887   6.355   4.459
12155TIP3    H236411   5.758   6.276   4.470
12156TIP3   OH236412   0.877   3.556   4.614
12156TIP3    H136413   0.897   3.649   4.610
12156TIP3    H236414   0.781   3.553   4.609
12157TIP3   OH236415   1.339   2.868   0.449
12157TIP3    H136416   1.339   2.919   0.530
12157TIP3    H236417   1.249   2.838   0.439
12158TIP3   OH236418   7.507   4.367   6.591
12158TIP3    H136419   7.416   4.362   6.618
12158TIP3    H236420   7.553   4.306   6.648
12159TIP3   OH236421   1.705   3.979   5.416
12159TIP3    H136422   1.688   3.895   5.375
12159TIP3    H236423   1.745   4.032   5.347
12160TIP3   OH236424   3.098   6.723   1.952
12160TIP3    H136425   3.031   6.782   1.987
12160TIP3    H236426   3.120   6.760   1.866
12161TIP3   OH236427   3.821   5.553   0.503
12161TIP3    H136428   3.858   5.616   0.565
12161TIP3    H236429   3.871   5.473   0.517
12162TIP3   OH236430   6.542   7.675   0.330
12162TIP3    H136431   6.523   7.720   0.412
12162TIP3    H236432   6.587   7.740   0.276
12163TIP3   OH236433   4.829   6.277   1.403
12163TIP3    H136434   4.743   6.244   1.431
12163TIP3    H236435   4.876   6.198   1.373
12164TIP3   OH236436   4.140   2.287   5.988
12164TIP3    H136437   4.189   2.267   5.908
12164TIP3    H236438   4.057   2.240   5.978
12165TIP3   OH236439   8.202   5.998   1.676
12165TIP3    H136440   8.282   6.050   1.673
12165TIP3    H236441   8.182   5.979   1.585
12166TIP3   OH236442   1.455   2.267   0.036
12166TIP3    H136443   1.407   2.350   0.038
12166TIP3    H236444   1.545   2.292   0.015
12167TIP3   OH236445   5.999   3.591   6.757
12167TIP3    H136446   5.941   3.649   6.707
12167TIP3    H236447   5.950   3.509   6.765
12168TIP3   OH236448   3.796   6.696   4.347
12168TIP3    H136449   3.844   6.637   4.405
12168TIP3    H236450   3.829   6.783   4.368
12169TIP3   OH236451   4.499   2.267   5.801
12169TIP3    H136452   4.460   2.214   5.731
12169TIP3    H236453   4.457   2.353   5.793
12170TIP3   OH236454   7.688   2.507   5.801
12170TIP3    H136455   7.770   2.544   5.768
12170TIP3    H236456   7.621   2.543   5.743
12171TIP3   OH236457   0.170   2.618   4.181
12171TIP3    H136458   0.234   2.675   4.138
12171TIP3    H236459   0.216   2.536   4.194
12172TIP3   OH236460   5.947   6.426   6.317
12172TIP3    H136461   5.926   6.500   6.373
12172TIP3    H236462   5.876   6.422   6.253
12173TIP3   OH236463   0.900   2.315   1.161
12173TIP3    H136464   0.875   2.377   1.092
12173TIP3    H236465   0.879   2.361   1.242
12174TIP3   OH236466   6.117   5.684   1.912
12174TIP3    H136467   6.201   5.661   1.874
12174TIP3    H236468   6.053   5.661   1.844
12175TIP3   OH236469   5.940   5.390   6.071
12175TIP3    H136470   5.862   5.445   6.063
12175TIP3    H236471   5.921   5.334   6.147
12176TIP3   OH236472   5.738   2.355   4.267
12176TIP3    H136473   5.743   2.451   4.268
12176TIP3    H236474   5.737   2.330   4.359
12177TIP3   OH236475   4.835   0.088   4.533
12177TIP3    H136476   4.756   0.046   4.567
12177TIP3    H236477   4.810   0.180   4.521
12178TIP3   OH236478   1.089   2.996   3.017
12178TIP3    H136479   1.012   2.977   2.963
12178TIP3    H236480   1.160   2.946   2.976
12179TIP3   OH236481   6.430   4.602   6.436
12179TIP3    H136482   6.388   4.529   6.482
12179TIP3    H236483   6.470   4.655   6.505
12180TIP3   OH236484   3.686   6.139   4.479
12180TIP3    H136485   3.743   6.108   4.549
12180TIP3    H236486   3.745   6.154   4.405
12181TIP3   OH236487   3.318   7.081   2.722
12181TIP3    H136488   3.294   7.035   2.802
12181TIP3    H236489   3.236   7.123   2.693
12182TIP3   OH236490   1.177   1.912   6.443
12182TIP3    H136491   1.234   1.989   6.434
12182TIP3    H236492   1.180   1.891   6.536
12183TIP3   OH236493   4.826   1.891   2.023
12183TIP3    H136494   4.794   1.838   1.949
12183TIP3    H236495   4.772   1.863   2.097
12184TIP3   OH236496   5.880   4.293   0.865
12184TIP3    H136497   5.866   4.253   0.779
12184TIP3    H236498   5.804   4.349   0.878
12185TIP3   OH236499   7.486   2.755   3.773
12185TIP3    H136500   7.494   2.811   3.851
12185TIP3    H236501   7.561   2.779   3.719
12186TIP3   OH236502   4.891   3.959   5.943
12186TIP3    H136503   4.981   3.955   5.909
12186TIP3    H236504   4.838   3.925   5.871
12187TIP3   OH236505   3.376   5.447   1.199
12187TIP3    H136506   3.288   5.482   1.213
12187TIP3    H236507   3.426   5.521   1.165
12188TIP3   OH236508   7.445   4.080   2.141
12188TIP3    H136509   7.422   4.104   2.230
12188TIP3    H236510   7.389   4.005   2.121
12189TIP3   OH236511   4.518   6.830   2.327
12189TIP3    H136512   4.516   6.801   2.236
12189TIP3    H236513   4.490   6.921   2.324
12190TIP3   OH236514   5.453   4.796   0.970
12190TIP3    H136515   5.394   4.733   0.928
12190TIP3    H236516   5.495   4.842   0.897
12191TIP3   OH236517   5.428   4.909   5.837
12191TIP3    H136518   5.457   4.883   5.749
12191TIP3    H236519   5.498   4.879   5.895
12192TIP3   OH236520   1.550   0.769   4.327
12192TIP3    H136521   1.626   0.745   4.381
12192TIP3    H236522   1.547   0.703   4.259
12193TIP3   OH236523   5.607   1.978   4.302
12193TIP3    H136524   5.670   2.025   4.247
12193TIP3    H236525   5.524   2.023   4.288
12194TIP3   OH236526   2.201   2.863   5.885
12194TIP3    H136527   2.217   2.771   5.905
12194TIP3    H236528   2.121   2.862   5.831
12195TIP3   OH236529   2.131   0.502   3.335
12195TIP3    H136530   2.137   0.579   3.279
12195TIP3    H236531   2.103   0.536   3.420
12196TIP3   OH236532   2.768   0.960   0.900
12196TIP3    H136533   2.821   0.973   0.822
12196TIP3    H236534   2.719   1.041   0.911
12197TIP3   OH236535   5.316   6.053   3.697
12197TIP3    H136536   5.344   6.129   3.747
12197TIP3    H236537   5.366   6.057   3.616
12198TIP3   OH236538   3.012   0.849   0.536
12198TIP3    H136539   2.991   0.907   0.463
12198TIP3    H236540   2.949   0.873   0.604
12199TIP3   OH236541   2.418   6.750   2.585
12199TIP3    H136542   2.468   6.704   2.518
12199TIP3    H236543   2.350   6.798   2.537
12200TIP3   OH236544   1.184   5.696   3.654
12200TIP3    H136545   1.267   5.743   3.664
12200TIP3    H236546   1.175   5.685   3.559
12201TIP3   OH236547   7.014   6.349   1.000
12201TIP3    H136548   7.024   6.425   0.943
12201TIP3    H236549   7.070   6.282   0.960
12202TIP3   OH236550   5.135   5.494   2.187
12202TIP3    H136551   5.102   5.435   2.119
12202TIP3    H236552   5.162   5.573   2.139
12203TIP3   OH236553   7.358   5.722   0.874
12203TIP3    H136554   7.427   5.727   0.940
12203TIP3    H236555   7.354   5.629   0.851
12204TIP3   OH236556   7.200   5.732   3.073
12204TIP3    H136557   7.287   5.759   3.102
12204TIP3    H236558   7.215   5.652   3.023
12205TIP3   OH236559   7.073   3.041   5.016
12205TIP3    H136560   7.091   3.057   4.923
12205TIP3    H236561   6.977   3.046   5.023
12206TIP3   OH236562   1.786   4.575   5.919
12206TIP3    H136563   1.760   4.633   5.992
12206TIP3    H236564   1.734   4.496   5.932
12207TIP3   OH236565   1.663   1.883   1.050
12207TIP3    H136566   1.659   1.865   1.144
12207TIP3    H236567   1.730   1.825   1.016
12208TIP3   OH236568   3.256   7.171   1.018
12208TIP3    H136569   3.344   7.144   0.993
12208TIP3    H236570   3.200   7.100   0.988
12209TIP3   OH236571   0.814   7.691   5.042
12209TIP3    H136572   0.850   7.613   5.085
12209TIP3    H236573   0.720   7.678   5.043
12210TIP3   OH236574   7.933   4.564   1.899
12210TIP3    H136575   7.893   4.584   1.984
12210TIP3    H236576   7.945   4.649   1.858
12211TIP3   OH236577   4.632   4.274   5.996
12211TIP3    H136578   4.721   4.288   6.027
12211TIP3    H236579   4.643   4.221   5.916
12212TIP3   OH236580   3.464   3.528   1.756
12212TIP3    H136581   3.535   3.463   1.754
12212TIP3    H236582   3.399   3.490   1.816
12213TIP3   OH236583   6.033   6.277   6.034
12213TIP3    H136584   6.086   6.276   5.954
12213TIP3    H236585   5.955   6.327   6.011
12214TIP3   OH236586   2.941   5.608   2.456
12214TIP3    H136587   2.992   5.599   2.536
12214TIP3    H236588   2.958   5.527   2.407
12215TIP3   OH236589   3.624   2.840   3.016
12215TIP3    H136590   3.697   2.900   3.032
12215TIP3    H236591   3.639   2.768   3.078
12216TIP3   OH236592   1.902   0.915   1.058
12216TIP3    H136593   1.946   0.993   1.090
12216TIP3    H236594   1.919   0.914   0.964
12217TIP3   OH236595   4.987   6.132   3.021
12217TIP3    H136596   5.002   6.127   2.927
12217TIP3    H236597   4.920   6.066   3.038
12218TIP3   OH236598   4.698   4.906   6.291
12218TIP3    H136599   4.722   4.926   6.382
12218TIP3    H236600   4.771   4.854   6.258
12219TIP3   OH236601   0.729   3.445   2.376
12219TIP3    H136602   0.750   3.539   2.374
12219TIP3    H236603   0.786   3.407   2.309
12220TIP3   OH236604   7.692   5.016   6.301
12220TIP3    H136605   7.783   5.039   6.316
12220TIP3    H236606   7.670   4.956   6.373
12221TIP3   OH236607   6.562   2.317   0.850
12221TIP3    H136608   6.630   2.383   0.840
12221TIP3    H236609   6.509   2.325   0.770
12222TIP3   OH236610   1.552   1.076   3.715
12222TIP3    H136611   1.598   1.145   3.763
12222TIP3    H236612   1.607   0.998   3.727
12223TIP3   OH236613   3.002   5.722   4.641
12223TIP3    H136614   2.941   5.686   4.704
12223TIP3    H236615   3.084   5.676   4.659
12224TIP3   OH236616   1.188   3.247   5.089
12224TIP3    H136617   1.094   3.242   5.076
12224TIP3    H236618   1.222   3.282   5.007
12225TIP3   OH236619   7.424   1.613   4.004
12225TIP3    H136620   7.458   1.700   3.982
12225TIP3    H236621   7.356   1.630   4.069
12226TIP3   OH236622   7.261   4.379   4.809
12226TIP3    H136623   7.284   4.470   4.793
12226TIP3    H236624   7.334   4.329   4.774
12227TIP3   OH236625   8.218   1.172   2.571
12227TIP3    H136626   8.165   1.211   2.640
12227TIP3    H236627   8.156   1.153   2.500
12228TIP3   OH236628   6.250   7.374   3.469
12228TIP3    H136629   6.159   7.404   3.473
12228TIP3    H236630   6.253   7.296   3.525
12229TIP3   OH236631   6.596   0.393   5.612
12229TIP3    H136632   6.642   0.310   5.621
12229TIP3    H236633   6.652   0.445   5.554
12230TIP3   OH236634   1.948   2.849   1.658
12230TIP3    H136635   2.015   2.797   1.613
12230TIP3    H236636   1.938   2.927   1.604
12231TIP3   OH236637   5.813   3.401   0.307
12231TIP3    H136638   5.885   3.340   0.322
12231TIP3    H236639   5.822   3.428   0.215
12232TIP3   OH236640   1.009   5.697   5.158
12232TIP3    H136641   1.057   5.626   5.115
12232TIP3    H236642   0.922   5.661   5.175
12233TIP3   OH236643   3.470   0.281   2.610
12233TIP3    H136644   3.454   0.350   2.674
12233TIP3    H236645   3.458   0.324   2.525
12234TIP3   OH236646   7.438   7.558   5.535
12234TIP3    H136647   7.432   7.467   5.567
12234TIP3    H236648   7.528   7.567   5.506
12235TIP3   OH236649   3.749   3.283   0.381
12235TIP3    H136650   3.784   3.195   0.370
12235TIP3    H236651   3.778   3.309   0.469
12236TIP3   OH236652   5.545   4.763   2.303
12236TIP3    H136653   5.473   4.719   2.349
12236TIP3    H236654   5.534   4.736   2.212
12237TIP3   OH236655   6.775   0.483   3.103
12237TIP3    H136656   6.779   0.510   3.195
12237TIP3    H236657   6.768   0.566   3.054
12238TIP3   OH236658   6.601   3.643   5.526
12238TIP3    H136659   6.689   3.639   5.490
12238TIP3    H236660   6.556   3.708   5.472
12239TIP3   OH236661   6.828   4.202   5.127
12239TIP3    H136662   6.913   4.207   5.171
12239TIP3    H236663   6.850   4.182   5.036
12240TIP3   OH236664   6.836   2.909   6.446
12240TIP3    H136665   6.843   2.884   6.538
12240TIP3    H236666   6.907   2.970   6.431
12241TIP3   OH236667   5.542   5.499   4.170
12241TIP3    H136668   5.556   5.418   4.122
12241TIP3    H236669   5.522   5.472   4.260
12242TIP3   OH236670   1.852   1.704   0.947
12242TIP3    H136671   1.886   1.665   0.866
12242TIP3    H236672   1.918   1.682   1.013
12243TIP3   OH236673   2.763   5.554   5.190
12243TIP3    H136674   2.769   5.643   5.155
12243TIP3    H236675   2.671   5.530   5.177
12244TIP3   OH236676   7.805   4.750   4.739
12244TIP3    H136677   7.858   4.830   4.734
12244TIP3    H236678   7.716   4.778   4.722
12245TIP3   OH236679   6.227   6.104   0.595
12245TIP3    H136680   6.286   6.131   0.666
12245TIP3    H236681   6.146   6.151   0.613
12246TIP3   OH236682   7.584   4.987   3.952
12246TIP3    H136683   7.562   5.009   3.861
12246TIP3    H236684   7.614   5.070   3.989
12247TIP3   OH236685   5.375   1.499   6.503
12247TIP3    H136686   5.437   1.532   6.569
12247TIP3    H236687   5.342   1.578   6.460
12248TIP3   OH236688   6.907   2.715   5.544
12248TIP3    H136689   6.924   2.683   5.456
12248TIP3    H236690   6.854   2.646   5.585
12249TIP3   OH236691   1.755   2.854   0.143
12249TIP3    H136692   1.805   2.853   0.061
12249TIP3    H236693   1.716   2.941   0.147
12250TIP3   OH236694   2.338   7.365   1.355
12250TIP3    H136695   2.377   7.336   1.437
12250TIP3    H236696   2.253   7.401   1.380
12251TIP3   OH236697   2.942   0.915   0.266
12251TIP3    H136698   2.962   0.926   0.173
12251TIP3    H236699   2.884   0.839   0.270
12252TIP3   OH236700   7.950   5.354   6.517
12252TIP3    H136701   7.866   5.323   6.484
12252TIP3    H236702   8.001   5.373   6.438
12253TIP3   OH236703   0.405   3.093   0.893
12253TIP3    H136704   0.401   3.129   0.804
12253TIP3    H236705   0.370   3.162   0.949
12254TIP3   OH236706   4.086   7.696   5.751
12254TIP3    H136707   3.998   7.683   5.714
12254TIP3    H236708   4.101   7.618   5.805
12255TIP3   OH236709   4.496   6.162   4.348
12255TIP3    H136710   4.465   6.088   4.295
12255TIP3    H236711   4.492   6.237   4.288
12256TIP3   OH236712   1.407   0.054   4.259
12256TIP3    H136713   1.411   0.111   4.335
12256TIP3    H236714   1.487   0.002   4.264
12257TIP3   OH236715   7.672   1.426   6.762
12257TIP3    H136716   7.592   1.467   6.731
12257TIP3    H236717   7.723   1.409   6.682
12258TIP3   OH236718   4.380   5.524   3.618
12258TIP3    H136719   4.366   5.604   3.668
12258TIP3    H236720   4.346   5.454   3.674
12259TIP3   OH236721   5.163   6.646   3.029
12259TIP3    H136722   5.230   6.648   2.961
12259TIP3    H236723   5.121   6.560   3.019
12260TIP3   OH236724   7.259   4.027   6.583
12260TIP3    H136725   7.180   3.975   6.568
12260TIP3    H236726   7.305   4.026   6.499
12261TIP3   OH236727   1.852   0.332   6.764
12261TIP3    H136728   1.817   0.314   6.677
12261TIP3    H236729   1.783   0.303   6.824
12262TIP3   OH236730   6.614   1.408   1.716
12262TIP3    H136731   6.582   1.320   1.735
12262TIP3    H236732   6.550   1.445   1.655
12263TIP3   OH236733   3.977   6.581   2.144
12263TIP3    H136734   3.940   6.503   2.101
12263TIP3    H236735   3.942   6.578   2.233
12264TIP3   OH236736   8.017   1.397   3.103
12264TIP3    H136737   7.978   1.406   3.190
12264TIP3    H236738   8.038   1.304   3.096
12265TIP3   OH236739   4.790   6.037   4.194
12265TIP3    H136740   4.750   5.969   4.140
12265TIP3    H236741   4.789   6.116   4.139
12266TIP3   OH236742   2.841   5.639   4.000
12266TIP3    H136743   2.824   5.596   3.917
12266TIP3    H236744   2.930   5.611   4.024
12267TIP3   OH236745   2.748   4.869   1.453
12267TIP3    H136746   2.723   4.958   1.480
12267TIP3    H236747   2.844   4.873   1.444
12268TIP3   OH236748   0.478   6.313   2.717
12268TIP3    H136749   0.458   6.269   2.800
12268TIP3    H236750   0.447   6.403   2.730
12269TIP3   OH236751   1.433   4.346   5.773
12269TIP3    H136752   1.348   4.348   5.818
12269TIP3    H236753   1.428   4.268   5.717
12270TIP3   OH236754   3.609   1.213   1.354
12270TIP3    H136755   3.608   1.240   1.446
12270TIP3    H236756   3.573   1.124   1.355
12271TIP3   OH236757   1.238   0.893   4.738
12271TIP3    H136758   1.270   0.821   4.793
12271TIP3    H236759   1.267   0.871   4.650
12272TIP3   OH236760   2.267   1.106   0.919
12272TIP3    H136761   2.333   1.039   0.904
12272TIP3    H236762   2.199   1.088   0.855
12273TIP3   OH236763   3.774   1.020   5.550
12273TIP3    H136764   3.713   1.071   5.603
12273TIP3    H236765   3.793   0.943   5.605
12274TIP3   OH236766   5.481   4.003   0.940
12274TIP3    H136767   5.507   4.091   0.966
12274TIP3    H236768   5.387   4.000   0.955
12275TIP3   OH236769   3.834   5.907   5.818
12275TIP3    H136770   3.811   5.836   5.878
12275TIP3    H236771   3.920   5.937   5.849
12276TIP3   OH236772   0.275   5.021   5.273
12276TIP3    H136773   0.283   5.116   5.258
12276TIP3    H236774   0.329   4.982   5.204
12277TIP3   OH236775   4.854   2.120   4.736
12277TIP3    H136776   4.813   2.040   4.770
12277TIP3    H236777   4.834   2.187   4.802
12278TIP3   OH236778   7.123   5.890   3.583
12278TIP3    H136779   7.111   5.882   3.678
12278TIP3    H236780   7.062   5.826   3.546
12279TIP3   OH236781   3.892   1.359   0.200
12279TIP3    H136782   3.929   1.271   0.186
12279TIP3    H236783   3.880   1.365   0.294
12280TIP3   OH236784   5.002   7.645   4.452
12280TIP3    H136785   5.049   7.702   4.513
12280TIP3    H236786   5.061   7.637   4.377
12281TIP3   OH236787   2.265   0.040   0.568
12281TIP3    H136788   2.240  -0.004   0.650
12281TIP3    H236789   2.270   0.133   0.591
12282TIP3   OH236790   3.202   7.378   2.278
12282TIP3    H136791   3.229   7.327   2.202
12282TIP3    H236792   3.168   7.460   2.242
12283TIP3   OH236793   4.445   0.067   2.622
12283TIP3    H136794   4.372   0.042   2.566
12283TIP3    H236795   4.404   0.101   2.702
12284TIP3   OH236796   6.069   0.815   5.801
12284TIP3    H136797   6.079   0.907   5.776
12284TIP3    H236798   5.991   0.813   5.855
12285TIP3   OH236799   5.311   7.232   2.261
12285TIP3    H136800   5.315   7.136   2.270
12285TIP3    H236801   5.267   7.246   2.177
12286TIP3   OH236802   6.499   6.559   4.473
12286TIP3    H136803   6.565   6.624   4.494
12286TIP3    H236804   6.423   6.584   4.526
12287TIP3   OH236805   7.478   1.094   4.402
12287TIP3    H136806   7.470   1.149   4.480
12287TIP3    H236807   7.451   1.007   4.431
12288TIP3   OH236808   5.807   5.738   6.677
12288TIP3    H136809   5.793   5.802   6.608
12288TIP3    H236810   5.829   5.791   6.754
12289TIP3   OH236811   0.906   1.177   0.825
12289TIP3    H136812   0.931   1.227   0.748
12289TIP3    H236813   0.898   1.243   0.894
12290TIP3   OH236814   8.135   5.951   3.525
12290TIP3    H136815   8.229   5.942   3.544
12290TIP3    H236816   8.098   5.989   3.604
12291TIP3   OH236817   5.710   4.419   1.405
12291TIP3    H136818   5.798   4.450   1.384
12291TIP3    H236819   5.698   4.342   1.348
12292TIP3   OH236820   1.755   3.289   0.541
12292TIP3    H136821   1.761   3.384   0.535
12292TIP3    H236822   1.789   3.257   0.457
12293TIP3   OH236823   5.858   4.840   0.076
12293TIP3    H136824   5.803   4.772   0.036
12293TIP3    H236825   5.914   4.871   0.004
12294TIP3   OH236826   7.144   7.707   2.090
12294TIP3    H136827   7.214   7.689   2.026
12294TIP3    H236828   7.124   7.621   2.128
12295TIP3   OH236829   2.709   1.494   6.652
12295TIP3    H136830   2.693   1.401   6.668
12295TIP3    H236831   2.630   1.538   6.685
12296TIP3   OH236832   2.301   6.623   5.980
12296TIP3    H136833   2.225   6.671   6.014
12296TIP3    H236834   2.282   6.611   5.887
12297TIP3   OH236835   4.598   3.516   5.940
12297TIP3    H136836   4.590   3.610   5.955
12297TIP3    H236837   4.644   3.508   5.856
12298TIP3   OH236838   7.186   3.277   4.186
12298TIP3    H136839   7.184   3.202   4.127
12298TIP3    H236840   7.106   3.268   4.238
12299TIP3   OH236841   5.969   0.454   0.856
12299TIP3    H136842   6.015   0.485   0.778
12299TIP3    H236843   6.037   0.420   0.913
12300TIP3   OH236844   4.652   6.308   4.555
12300TIP3    H136845   4.613   6.310   4.642
12300TIP3    H236846   4.585   6.268   4.500
12301TIP3   OH236847   3.001   2.456   5.950
12301TIP3    H136848   2.914   2.494   5.954
12301TIP3    H236849   3.026   2.443   6.042
12302TIP3   OH236850   0.620   1.499   6.689
12302TIP3    H136851   0.648   1.525   6.777
12302TIP3    H236852   0.701   1.503   6.637
12303TIP3   OH236853   7.609   1.541   3.433
12303TIP3    H136854   7.581   1.538   3.525
12303TIP3    H236855   7.555   1.609   3.393
12304TIP3   OH236856   2.679   5.827   6.690
12304TIP3    H136857   2.735   5.762   6.648
12304TIP3    H236858   2.728   5.909   6.680
12305TIP3   OH236859   5.530   7.131   2.825
12305TIP3    H136860   5.518   7.109   2.733
12305TIP3    H236861   5.610   7.086   2.851
12306TIP3   OH236862   1.134   3.586   2.794
12306TIP3    H136863   1.062   3.567   2.854
12306TIP3    H236864   1.205   3.528   2.823
12307TIP3   OH236865   3.197   4.728   1.349
12307TIP3    H136866   3.256   4.779   1.293
12307TIP3    H236867   3.151   4.670   1.289
12308TIP3   OH236868   1.245   5.093   6.507
12308TIP3    H136869   1.191   5.026   6.465
12308TIP3    H236870   1.239   5.075   6.601
12309TIP3   OH236871   6.926   2.952   5.656
12309TIP3    H136872   6.841   2.991   5.637
12309TIP3    H236873   6.920   2.863   5.618
12310TIP3   OH236874   6.726   6.568   0.301
12310TIP3    H136875   6.681   6.575   0.385
12310TIP3    H236876   6.781   6.490   0.310
12311TIP3   OH236877   3.827   0.481   3.536
12311TIP3    H136878   3.880   0.417   3.489
12311TIP3    H236879   3.890   0.532   3.587
12312TIP3   OH236880   2.893   4.957   0.258
12312TIP3    H136881   2.852   4.958   0.344
12312TIP3    H236882   2.841   4.894   0.208
12313TIP3   OH236883   2.478   1.365   3.013
12313TIP3    H136884   2.514   1.349   3.100
12313TIP3    H236885   2.528   1.440   2.980
12314TIP3   OH236886   2.339   6.781   4.337
12314TIP3    H136887   2.257   6.765   4.291
12314TIP3    H236888   2.340   6.715   4.407
12315TIP3   OH236889   4.071   0.077   0.817
12315TIP3    H136890   4.061   0.113   0.905
12315TIP3    H236891   4.085  -0.017   0.831
12316TIP3   OH236892   1.459   0.580   1.211
12316TIP3    H136893   1.549   0.607   1.193
12316TIP3    H236894   1.413   0.590   1.127
12317TIP3   OH236895   2.915   0.285   2.130
12317TIP3    H136896   2.928   0.288   2.036
12317TIP3    H236897   2.978   0.220   2.161
12318TIP3   OH236898   0.441   3.953   1.675
12318TIP3    H136899   0.480   4.033   1.638
12318TIP3    H236900   0.380   3.985   1.741
12319TIP3   OH236901   6.389   4.271   6.418
12319TIP3    H136902   6.332   4.271   6.495
12319TIP3    H236903   6.340   4.220   6.352
12320TIP3   OH236904   7.339   7.261   3.970
12320TIP3    H136905   7.307   7.331   3.912
12320TIP3    H236906   7.420   7.232   3.929
12321TIP3   OH236907   6.540   7.290   1.766
12321TIP3    H136908   6.480   7.353   1.725
12321TIP3    H236909   6.482   7.224   1.804
12322TIP3   OH236910   2.029   3.539   5.406
12322TIP3    H136911   2.120   3.531   5.434
12322TIP3    H236912   2.034   3.546   5.310
12323TIP3   OH236913   0.474   5.354   3.253
12323TIP3    H136914   0.446   5.419   3.318
12323TIP3    H236915   0.406   5.355   3.186
12324TIP3   OH236916   2.164   0.734   3.565
12324TIP3    H136917   2.095   0.757   3.627
12324TIP3    H236918   2.187   0.816   3.523
12325TIP3   OH236919   1.984   1.541   4.520
12325TIP3    H136920   1.917   1.500   4.465
12325TIP3    H236921   2.067   1.518   4.478
12326TIP3   OH236922   2.219   0.710   3.201
12326TIP3    H136923   2.312   0.730   3.212
12326TIP3    H236924   2.201   0.729   3.109
12327TIP3   OH236925   1.551   2.616   4.453
12327TIP3    H136926   1.539   2.640   4.361
12327TIP3    H236927   1.533   2.697   4.501
12328TIP3   OH236928   1.570   2.207   5.697
12328TIP3    H136929   1.648   2.156   5.676
12328TIP3    H236930   1.516   2.202   5.618
12329TIP3   OH236931   4.167   2.915   5.241
12329TIP3    H136932   4.249   2.896   5.196
12329TIP3    H236933   4.184   2.894   5.333
12330TIP3   OH236934   3.146   5.453   2.812
12330TIP3    H136935   3.172   5.534   2.767
12330TIP3    H236936   3.134   5.390   2.741
12331TIP3   OH236937   6.656   2.613   6.006
12331TIP3    H136938   6.569   2.587   5.977
12331TIP3    H236939   6.672   2.696   5.962
12332TIP3   OH236940   1.905   1.068   2.368
12332TIP3    H136941   1.994   1.059   2.400
12332TIP3    H236942   1.908   1.038   2.277
12333TIP3   OH236943   6.734   1.655   5.236
12333TIP3    H136944   6.769   1.609   5.160
12333TIP3    H236945   6.669   1.596   5.273
12334TIP3   OH236946   3.141   7.591   6.564
12334TIP3    H136947   3.139   7.497   6.581
12334TIP3    H236948   3.197   7.628   6.632
12335TIP3   OH236949   4.971   2.164   2.657
12335TIP3    H136950   4.981   2.195   2.747
12335TIP3    H236951   4.896   2.106   2.660
12336TIP3   OH236952   2.670   7.626   5.371
12336TIP3    H136953   2.702   7.700   5.423
12336TIP3    H236954   2.655   7.663   5.284
12337TIP3   OH236955   2.425   0.236   1.603
12337TIP3    H136956   2.395   0.236   1.694
12337TIP3    H236957   2.476   0.156   1.594
12338TIP3   OH236958   5.692   7.426   1.409
12338TIP3    H136959   5.761   7.405   1.473
12338TIP3    H236960   5.661   7.342   1.377
12339TIP3   OH236961   6.408   0.621   4.617
12339TIP3    H136962   6.466   0.656   4.684
12339TIP3    H236963   6.440   0.533   4.601
12340TIP3   OH236964   1.806   5.115   3.586
12340TIP3    H136965   1.776   5.133   3.675
12340TIP3    H236966   1.761   5.034   3.561
12341TIP3   OH236967   3.495   6.129   6.329
12341TIP3    H136968   3.531   6.185   6.398
12341TIP3    H236969   3.423   6.082   6.371
12342TIP3   OH236970   2.048   7.736   1.485
12342TIP3    H136971   2.036   7.825   1.519
12342TIP3    H236972   2.056   7.747   1.390
12343TIP3   OH236973   4.536   1.808   6.370
12343TIP3    H136974   4.602   1.856   6.419
12343TIP3    H236975   4.531   1.853   6.285
12344TIP3   OH236976   4.815   4.684   4.627
12344TIP3    H136977   4.746   4.695   4.562
12344TIP3    H236978   4.884   4.635   4.581
12345TIP3   OH236979   3.173   5.448   0.906
12345TIP3    H136980   3.228   5.521   0.879
12345TIP3    H236981   3.180   5.385   0.834
12346TIP3   OH236982   4.061   1.896   5.776
12346TIP3    H136983   4.142   1.850   5.757
12346TIP3    H236984   3.992   1.832   5.757
12347TIP3   OH236985   1.797   7.305   3.475
12347TIP3    H136986   1.735   7.360   3.426
12347TIP3    H236987   1.796   7.340   3.564
12348TIP3   OH236988   6.563   5.876   0.848
12348TIP3    H136989   6.526   5.859   0.762
12348TIP3    H236990   6.520   5.956   0.877
12349TIP3   OH236991   5.800   2.425   5.877
12349TIP3    H136992   5.887   2.464   5.882
12349TIP3    H236993   5.810   2.350   5.819
12350TIP3   OH236994   3.493   1.503   6.281
12350TIP3    H136995   3.534   1.547   6.356
12350TIP3    H236996   3.455   1.574   6.230
12351TIP3   OH236997   2.625   1.494   1.139
12351TIP3    H136998   2.578   1.483   1.056
12351TIP3    H236999   2.694   1.557   1.119
12352TIP3   OH237000   5.495   5.647   0.835
12352TIP3    H137001   5.407   5.629   0.803
12352TIP3    H237002   5.498   5.608   0.922
12353TIP3   OH237003   8.183   3.703   1.469
12353TIP3    H137004   8.087   3.698   1.465
12353TIP3    H237005   8.208   3.731   1.381
12354TIP3   OH237006   8.119   2.552   3.655
12354TIP3    H137007   8.184   2.589   3.716
12354TIP3    H237008   8.169   2.533   3.576
12355TIP3   OH237009   0.869   2.362   0.365
12355TIP3    H137010   0.812   2.317   0.428
12355TIP3    H237011   0.957   2.339   0.393
12356TIP3   OH237012   0.388   3.510   4.422
12356TIP3    H137013   0.362   3.443   4.359
12356TIP3    H237014   0.482   3.493   4.437
12357TIP3   OH237015   4.054   3.478   0.228
12357TIP3    H137016   4.129   3.486   0.287
12357TIP3    H237017   3.986   3.437   0.281
12358TIP3   OH237018   5.222   5.749   1.635
12358TIP3    H137019   5.240   5.801   1.713
12358TIP3    H237020   5.155   5.798   1.588
12359TIP3   OH237021   1.095   6.097   4.424
12359TIP3    H137022   1.186   6.123   4.410
12359TIP3    H237023   1.065   6.067   4.339
12360TIP3   OH237024   6.582   0.377   5.905
12360TIP3    H137025   6.676   0.363   5.898
12360TIP3    H237026   6.556   0.409   5.819
12361TIP3   OH237027   7.150   2.283   2.891
12361TIP3    H137028   7.081   2.266   2.827
12361TIP3    H237029   7.149   2.377   2.903
12362TIP3   OH237030   4.376   0.445   1.934
12362TIP3    H137031   4.443   0.434   2.002
12362TIP3    H237032   4.363   0.540   1.930
12363TIP3   OH237033   3.776   3.090   2.318
12363TIP3    H137034   3.804   3.000   2.335
12363TIP3    H237035   3.735   3.119   2.399
12364TIP3   OH237036   7.654   4.283   5.546
12364TIP3    H137037   7.597   4.321   5.479
12364TIP3    H237038   7.693   4.206   5.503
12365TIP3   OH237039   1.164   2.573   0.559
12365TIP3    H137040   1.092   2.538   0.612
12365TIP3    H237041   1.126   2.649   0.515
12366TIP3   OH237042   6.682   6.306   2.260
12366TIP3    H137043   6.647   6.306   2.171
12366TIP3    H237044   6.774   6.281   2.249
12367TIP3   OH237045   7.012   0.148   2.616
12367TIP3    H137046   7.065   0.219   2.653
12367TIP3    H237047   6.922   0.169   2.639
12368TIP3   OH237048   5.986   0.470   0.566
12368TIP3    H137049   5.986   0.416   0.487
12368TIP3    H237050   5.894   0.475   0.592
12369TIP3   OH237051   2.227   5.526   4.310
12369TIP3    H137052   2.160   5.518   4.378
12369TIP3    H237053   2.192   5.477   4.236
12370TIP3   OH237054   8.047   1.113   0.227
12370TIP3    H137055   7.983   1.136   0.295
12370TIP3    H237056   8.019   1.163   0.151
12371TIP3   OH237057   0.894   7.862   1.679
12371TIP3    H137058   0.857   7.775   1.664
12371TIP3    H237059   0.916   7.863   1.772
12372TIP3   OH237060   5.016   5.465   5.842
12372TIP3    H137061   4.935   5.506   5.814
12372TIP3    H237062   5.085   5.520   5.805
12373TIP3   OH237063   3.111   6.724   4.729
12373TIP3    H137064   3.145   6.648   4.683
12373TIP3    H237065   3.188   6.777   4.748
12374TIP3   OH237066   2.848   3.635   0.966
12374TIP3    H137067   2.835   3.550   1.009
12374TIP3    H237068   2.824   3.699   1.032
12375TIP3   OH237069   4.438   7.096   4.843
12375TIP3    H137070   4.406   7.095   4.933
12375TIP3    H237071   4.383   7.032   4.797
12376TIP3   OH237072   6.769   5.820   2.704
12376TIP3    H137073   6.794   5.735   2.739
12376TIP3    H237074   6.833   5.881   2.741
12377TIP3   OH237075   6.003   1.393   2.860
12377TIP3    H137076   5.964   1.474   2.893
12377TIP3    H237077   6.050   1.357   2.935
12378TIP3   OH237078   6.398   5.647   1.778
12378TIP3    H137079   6.469   5.684   1.830
12378TIP3    H237080   6.394   5.703   1.700
12379TIP3   OH237081   0.047   5.703   2.944
12379TIP3    H137082  -0.027   5.671   2.995
12379TIP3    H237083   0.020   5.693   2.852
12380TIP3   OH237084   6.263   0.258   3.933
12380TIP3    H137085   6.222   0.338   3.903
12380TIP3    H237086   6.356   0.280   3.942
12381TIP3   OH237087   2.285   2.339   3.700
12381TIP3    H137088   2.274   2.261   3.646
12381TIP3    H237089   2.293   2.305   3.789
12382TIP3   OH237090   3.295   6.215   4.241
12382TIP3    H137091   3.207   6.252   4.245
12382TIP3    H237092   3.305   6.168   4.324
12383TIP3   OH237093   0.931   7.376   5.462
12383TIP3    H137094   0.914   7.284   5.483
12383TIP3    H237095   1.026   7.382   5.457
12384TIP3   OH237096   5.981   2.852   5.964
12384TIP3    H137097   5.893   2.879   5.990
12384TIP3    H237098   6.034   2.865   6.043
12385TIP3   OH237099   6.895   4.486   6.317
12385TIP3    H137100   6.805   4.460   6.336
12385TIP3    H237101   6.888   4.546   6.243
12386TIP3   OH237102   3.713   4.574   6.121
12386TIP3    H137103   3.680   4.497   6.075
12386TIP3    H237104   3.797   4.593   6.081
12387TIP3   OH237105   0.257   1.516   0.629
12387TIP3    H137106   0.341   1.493   0.668
12387TIP3    H237107   0.241   1.607   0.656
12388TIP3   OH237108   6.768   3.456   4.828
12388TIP3    H137109   6.794   3.471   4.737
12388TIP3    H237110   6.828   3.389   4.860
12389TIP3   OH237111   4.723   3.907   1.494
12389TIP3    H137112   4.800   3.867   1.454
12389TIP3    H237113   4.650   3.880   1.439
12390TIP3   OH237114   6.703   6.996   5.293
12390TIP3    H137115   6.660   6.959   5.370
12390TIP3    H237116   6.754   7.069   5.326
12391TIP3   OH237117   4.246   1.727   3.834
12391TIP3    H137118   4.174   1.684   3.880
12391TIP3    H237119   4.324   1.700   3.881
12392TIP3   OH237120   3.270   7.681   5.309
12392TIP3    H137121   3.308   7.598   5.279
12392TIP3    H237122   3.313   7.748   5.255
12393TIP3   OH237123   7.968   4.176   4.517
12393TIP3    H137124   8.037   4.233   4.551
12393TIP3    H237125   8.016   4.105   4.474
12394TIP3   OH237126   3.154   6.720   1.196
12394TIP3    H137127   3.132   6.684   1.110
12394TIP3    H237128   3.117   6.808   1.195
12395TIP3   OH237129   8.162   4.759   4.668
12395TIP3    H137130   8.121   4.843   4.687
12395TIP3    H237131   8.091   4.696   4.671
12396TIP3   OH237132   6.798   1.488   2.972
12396TIP3    H137133   6.828   1.560   3.028
12396TIP3    H237134   6.795   1.526   2.884
12397TIP3   OH237135   7.011   4.779   6.722
12397TIP3    H137136   7.022   4.830   6.641
12397TIP3    H237137   7.011   4.688   6.693
12398TIP3   OH237138   2.388   1.789   1.814
12398TIP3    H137139   2.460   1.842   1.780
12398TIP3    H237140   2.310   1.822   1.769
12399TIP3   OH237141   6.589   1.357   1.426
12399TIP3    H137142   6.577   1.353   1.521
12399TIP3    H237143   6.502   1.374   1.391
12400TIP3   OH237144   3.767   2.383   3.010
12400TIP3    H137145   3.676   2.370   3.038
12400TIP3    H237146   3.772   2.476   2.987
12401TIP3   OH237147   0.147   1.331   3.572
12401TIP3    H137148   0.162   1.382   3.492
12401TIP3    H237149   0.052   1.322   3.578
12402TIP3   OH237150   3.880   5.073   6.384
12402TIP3    H137151   3.832   5.103   6.307
12402TIP3    H237152   3.818   5.018   6.432
12403TIP3   OH237153   6.127   1.012   6.498
12403TIP3    H137154   6.183   1.017   6.576
12403TIP3    H237155   6.045   0.977   6.531
12404TIP3   OH237156   6.496   4.812   1.878
12404TIP3    H137157   6.486   4.817   1.973
12404TIP3    H237158   6.422   4.863   1.843
12405TIP3   OH237159   2.516   3.187   3.287
12405TIP3    H137160   2.501   3.110   3.233
12405TIP3    H237161   2.460   3.174   3.364
12406TIP3   OH237162   1.791   6.287   4.667
12406TIP3    H137163   1.828   6.231   4.735
12406TIP3    H237164   1.741   6.227   4.612
12407TIP3   OH237165   7.169   6.775   3.202
12407TIP3    H137166   7.219   6.695   3.184
12407TIP3    H237167   7.094   6.746   3.253
12408TIP3   OH237168   2.876   4.023   0.463
12408TIP3    H137169   2.897   3.931   0.450
12408TIP3    H237170   2.795   4.037   0.414
12409TIP3   OH237171   5.235   5.345   1.352
12409TIP3    H137172   5.165   5.380   1.408
12409TIP3    H237173   5.215   5.380   1.265
12410TIP3   OH237174   2.295   6.071   3.395
12410TIP3    H137175   2.287   6.144   3.457
12410TIP3    H237176   2.318   6.112   3.312
12411TIP3   OH237177   1.118   7.719   3.518
12411TIP3    H137178   1.193   7.718   3.577
12411TIP3    H237179   1.132   7.644   3.460
12412TIP3   OH237180   0.162   0.390   5.010
12412TIP3    H137181   0.249   0.431   5.010
12412TIP3    H237182   0.101   0.463   5.023
12413TIP3   OH237183   0.002   5.622   3.413
12413TIP3    H137184   0.063   5.556   3.445
12413TIP3    H237185  -0.059   5.636   3.485
12414TIP3   OH237186   6.854   2.744   4.282
12414TIP3    H137187   6.862   2.670   4.222
12414TIP3    H237188   6.918   2.727   4.351
12415TIP3   OH237189   5.118   6.061   1.069
12415TIP3    H137190   5.168   5.980   1.053
12415TIP3    H237191   5.180   6.131   1.047
12416TIP3   OH237192   7.459   3.808   3.937
12416TIP3    H137193   7.537   3.858   3.963
12416TIP3    H237194   7.491   3.744   3.875
12417TIP3   OH237195   2.462   0.717   6.126
12417TIP3    H137196   2.370   0.699   6.105
12417TIP3    H237197   2.510   0.689   6.048
12418TIP3   OH237198   5.688   2.876   1.117
12418TIP3    H137199   5.763   2.819   1.135
12418TIP3    H237200   5.637   2.875   1.198
12419TIP3   OH237201   3.416   4.476   5.797
12419TIP3    H137202   3.450   4.440   5.878
12419TIP3    H237203   3.376   4.402   5.752
12420TIP3   OH237204   6.120   4.494   0.865
12420TIP3    H137205   6.136   4.420   0.923
12420TIP3    H237206   6.034   4.476   0.826
12421TIP3   OH237207   0.708   2.641   2.198
12421TIP3    H137208   0.689   2.695   2.121
12421TIP3    H237209   0.648   2.567   2.190
12422TIP3   OH237210   0.866   4.057   5.619
12422TIP3    H137211   0.924   4.132   5.622
12422TIP3    H237212   0.913   3.988   5.666
12423TIP3   OH237213   0.960   2.695   1.217
12423TIP3    H137214   1.005   2.625   1.265
12423TIP3    H237215   1.025   2.764   1.209
12424TIP3   OH237216   1.776   7.597   5.982
12424TIP3    H137217   1.841   7.664   5.960
12424TIP3    H237218   1.703   7.613   5.922
12425TIP3   OH237219   3.907   1.879   1.066
12425TIP3    H137220   3.977   1.850   1.008
12425TIP3    H237221   3.935   1.965   1.096
12426TIP3   OH237222   2.133   5.412   5.820
12426TIP3    H137223   2.167   5.324   5.837
12426TIP3    H237224   2.180   5.468   5.882
12427TIP3   OH237225   1.223   2.400   1.029
12427TIP3    H137226   1.250   2.320   1.073
12427TIP3    H237227   1.184   2.371   0.946
12428TIP3   OH237228   6.494   1.878   1.905
12428TIP3    H137229   6.480   1.787   1.932
12428TIP3    H237230   6.581   1.901   1.938
12429TIP3   OH237231   3.586   5.689   3.839
12429TIP3    H137232   3.650   5.655   3.776
12429TIP3    H237233   3.568   5.778   3.808
12430TIP3   OH237234   1.669   2.288   3.870
12430TIP3    H137235   1.649   2.216   3.929
12430TIP3    H237236   1.657   2.251   3.782
12431TIP3   OH237237   0.087   4.061   5.292
12431TIP3    H137238   0.108   4.144   5.334
12431TIP3    H237239   0.074   4.083   5.199
12432TIP3   OH237240   3.614   4.554   1.237
12432TIP3    H137241   3.552   4.628   1.236
12432TIP3    H237242   3.700   4.595   1.231
12433TIP3   OH237243   1.850   4.244   1.924
12433TIP3    H137244   1.815   4.333   1.915
12433TIP3    H237245   1.918   4.238   1.857
12434TIP3   OH237246   1.971   7.513   6.174
12434TIP3    H137247   1.923   7.570   6.114
12434TIP3    H237248   2.060   7.549   6.175
12435TIP3   OH237249   8.199   3.291   0.999
12435TIP3    H137250   8.289   3.317   0.980
12435TIP3    H237251   8.201   3.263   1.091
12436TIP3   OH237252   5.924   5.934   0.935
12436TIP3    H137253   5.831   5.942   0.915
12436TIP3    H237254   5.968   5.942   0.851
12437TIP3   OH237255   5.400   5.808   6.487
12437TIP3    H137256   5.336   5.875   6.514
12437TIP3    H237257   5.485   5.851   6.495
12438TIP3   OH237258   5.422   7.471   5.266
12438TIP3    H137259   5.387   7.441   5.182
12438TIP3    H237260   5.495   7.412   5.284
12439TIP3   OH237261   8.019   1.247   1.700
12439TIP3    H137262   8.009   1.281   1.789
12439TIP3    H237263   7.975   1.162   1.702
12440TIP3   OH237264   0.220   1.755   5.339
12440TIP3    H137265   0.202   1.674   5.386
12440TIP3    H237266   0.293   1.794   5.387
12441TIP3   OH237267   2.903   3.967   5.345
12441TIP3    H137268   2.842   3.898   5.370
12441TIP3    H237269   2.857   4.048   5.365
12442TIP3   OH237270   0.741   6.740   5.786
12442TIP3    H137271   0.731   6.702   5.699
12442TIP3    H237272   0.745   6.664   5.845
12443TIP3   OH237273   3.465   2.821   4.512
12443TIP3    H137274   3.538   2.827   4.450
12443TIP3    H237275   3.461   2.908   4.552
12444TIP3   OH237276   1.210   5.280   2.682
12444TIP3    H137277   1.118   5.255   2.671
12444TIP3    H237278   1.249   5.265   2.596
12445TIP3   OH237279   8.042   2.088   1.939
12445TIP3    H137280   8.110   2.116   2.001
12445TIP3    H237281   7.965   2.074   1.993
12446TIP3   OH237282   6.048   2.113   1.049
12446TIP3    H137283   6.126   2.132   1.102
12446TIP3    H237284   6.067   2.027   1.010
12447TIP3   OH237285   0.063   6.326   3.942
12447TIP3    H137286   0.072   6.328   3.847
12447TIP3    H237287   0.043   6.235   3.963
12448TIP3   OH237288   5.681   1.119   6.087
12448TIP3    H137289   5.686   1.169   6.168
12448TIP3    H237290   5.608   1.158   6.039
12449TIP3   OH237291   5.390   5.022   3.521
12449TIP3    H137292   5.454   5.091   3.538
12449TIP3    H237293   5.342   5.053   3.444
12450TIP3   OH237294   1.507   3.995   0.391
12450TIP3    H137295   1.499   3.935   0.465
12450TIP3    H237296   1.421   4.036   0.385
12451TIP3   OH237297   2.194   2.256   0.375
12451TIP3    H137298   2.165   2.183   0.430
12451TIP3    H237299   2.209   2.327   0.437
12452TIP3   OH237300   7.469   2.068   0.814
12452TIP3    H137301   7.513   2.020   0.885
12452TIP3    H237302   7.423   2.139   0.859
12453TIP3   OH237303   1.938   7.215   2.791
12453TIP3    H137304   1.933   7.311   2.785
12453TIP3    H237305   1.900   7.184   2.709
12454TIP3   OH237306   6.084   4.266   5.118
12454TIP3    H137307   6.068   4.335   5.183
12454TIP3    H237308   6.076   4.311   5.033
12455TIP3   OH237309   2.978   5.134   5.981
12455TIP3    H137310   2.986   5.228   5.966
12455TIP3    H237311   2.967   5.126   6.076
12456TIP3   OH237312   1.892   5.759   6.528
12456TIP3    H137313   1.843   5.677   6.530
12456TIP3    H237314   1.826   5.826   6.509
12457TIP3   OH237315   1.943   4.633   2.469
12457TIP3    H137316   1.964   4.724   2.449
12457TIP3    H237317   1.990   4.582   2.403
12458TIP3   OH237318   7.239   7.104   3.013
12458TIP3    H137319   7.218   7.174   2.951
12458TIP3    H237320   7.288   7.040   2.961
12459TIP3   OH237321   3.410   0.465   0.964
12459TIP3    H137322   3.339   0.450   1.027
12459TIP3    H237323   3.429   0.559   0.971
12460TIP3   OH237324   1.363   3.222   5.696
12460TIP3    H137325   1.424   3.242   5.625
12460TIP3    H237326   1.316   3.304   5.711
12461TIP3   OH237327   6.327   4.648   0.831
12461TIP3    H137328   6.401   4.598   0.797
12461TIP3    H237329   6.254   4.585   0.833
12462TIP3   OH237330   6.551   2.206   2.944
12462TIP3    H137331   6.554   2.293   2.905
12462TIP3    H237332   6.618   2.156   2.896
12463TIP3   OH237333   7.401   5.942   0.336
12463TIP3    H137334   7.363   6.020   0.377
12463TIP3    H237335   7.451   5.900   0.406
12464TIP3   OH237336   7.604   5.974   5.173
12464TIP3    H137337   7.529   6.033   5.167
12464TIP3    H237338   7.674   6.028   5.210
12465TIP3   OH237339   0.678   6.137   4.331
12465TIP3    H137340   0.644   6.126   4.243
12465TIP3    H237341   0.744   6.207   4.322
12466TIP3   OH237342   3.105   5.677   5.868
12466TIP3    H137343   3.078   5.672   5.776
12466TIP3    H237344   3.195   5.711   5.865
12467TIP3   OH237345   1.105   3.825   1.293
12467TIP3    H137346   1.091   3.899   1.234
12467TIP3    H237347   1.192   3.839   1.330
12468TIP3   OH237348   0.298   3.116   2.386
12468TIP3    H137349   0.231   3.153   2.443
12468TIP3    H237350   0.375   3.171   2.401
12469TIP3   OH237351   8.141   3.532   4.211
12469TIP3    H137352   8.104   3.604   4.261
12469TIP3    H237353   8.070   3.469   4.202
12470TIP3   OH237354   1.802   4.728   6.134
12470TIP3    H137355   1.873   4.775   6.090
12470TIP3    H237356   1.729   4.790   6.137
12471TIP3   OH237357   6.496   3.812   5.096
12471TIP3    H137358   6.428   3.790   5.033
12471TIP3    H237359   6.561   3.744   5.086
12472TIP3   OH237360   0.612   3.329   1.504
12472TIP3    H137361   0.661   3.356   1.581
12472TIP3    H237362   0.670   3.348   1.430
12473TIP3   OH237363   3.716   4.380   3.125
12473TIP3    H137364   3.643   4.321   3.140
12473TIP3    H237365   3.684   4.465   3.156
12474TIP3   OH237366   2.918   1.618   5.025
12474TIP3    H137367   2.880   1.668   5.098
12474TIP3    H237368   2.843   1.598   4.969
12475TIP3   OH237369   1.782   4.493   6.556
12475TIP3    H137370   1.770   4.515   6.463
12475TIP3    H237371   1.859   4.544   6.583
12476TIP3   OH237372   1.001   4.774   2.549
12476TIP3    H137373   1.069   4.754   2.486
12476TIP3    H237374   1.041   4.759   2.634
12477TIP3   OH237375   5.288   2.242   3.111
12477TIP3    H137376   5.383   2.254   3.105
12477TIP3    H237377   5.271   2.166   3.056
12478TIP3   OH237378   3.996   1.530   0.688
12478TIP3    H137379   3.993   1.440   0.722
12478TIP3    H237380   3.992   1.585   0.767
12479TIP3   OH237381   1.194   6.247   0.978
12479TIP3    H137382   1.237   6.211   1.055
12479TIP3    H237383   1.100   6.235   0.995
12480TIP3   OH237384   3.875   5.335   0.301
12480TIP3    H137385   3.969   5.350   0.296
12480TIP3    H237386   3.839   5.378   0.223
12481TIP3   OH237387   3.549   6.650   4.190
12481TIP3    H137388   3.631   6.676   4.232
12481TIP3    H237389   3.491   6.726   4.201
12482TIP3   OH237390   6.238   6.085   6.737
12482TIP3    H137391   6.302   6.037   6.685
12482TIP3    H237392   6.176   6.120   6.673
12483TIP3   OH237393   0.524   0.297   3.893
12483TIP3    H137394   0.474   0.291   3.974
12483TIP3    H237395   0.484   0.370   3.845
12484TIP3   OH237396   0.065   6.364   6.069
12484TIP3    H137397  -0.010   6.414   6.037
12484TIP3    H237398   0.111   6.336   5.991
12485TIP3   OH237399   5.252   2.382   4.618
12485TIP3    H137400   5.296   2.390   4.534
12485TIP3    H237401   5.167   2.423   4.605
12486TIP3   OH237402   5.164   7.544   0.716
12486TIP3    H137403   5.069   7.555   0.715
12486TIP3    H237404   5.187   7.531   0.624
12487TIP3   OH237405   2.324   3.444   0.576
12487TIP3    H137406   2.393   3.488   0.525
12487TIP3    H237407   2.315   3.498   0.655
12488TIP3   OH237408   3.318   6.414   0.165
12488TIP3    H137409   3.353   6.360   0.095
12488TIP3    H237410   3.233   6.376   0.185
12489TIP3   OH237411   2.521   6.932   0.503
12489TIP3    H137412   2.465   6.955   0.578
12489TIP3    H237413   2.609   6.927   0.540
12490TIP3   OH237414   8.274   2.286   1.945
12490TIP3    H137415   8.249   2.294   1.853
12490TIP3    H237416   8.222   2.352   1.990
12491TIP3   OH237417   6.636   0.586   3.858
12491TIP3    H137418   6.699   0.628   3.800
12491TIP3    H237419   6.563   0.647   3.863
12492TIP3   OH237420   1.764   1.052   5.231
12492TIP3    H137421   1.815   1.112   5.286
12492TIP3    H237422   1.723   0.992   5.293
12493TIP3   OH237423   2.777   7.102   1.346
12493TIP3    H137424   2.729   7.056   1.415
12493TIP3    H237425   2.711   7.127   1.282
12494TIP3   OH237426   0.219   7.011   6.322
12494TIP3    H137427   0.280   7.054   6.262
12494TIP3    H237428   0.207   6.923   6.286
12495TIP3   OH237429   4.772   1.226   3.007
12495TIP3    H137430   4.694   1.170   3.002
12495TIP3    H237431   4.737   1.315   3.008
12496TIP3   OH237432   0.278   5.105   4.013
12496TIP3    H137433   0.314   5.079   3.929
12496TIP3    H237434   0.183   5.099   4.002
12497TIP3   OH237435   2.936   0.477   5.124
12497TIP3    H137436   2.859   0.514   5.168
12497TIP3    H237437   2.990   0.553   5.102
12498TIP3   OH237438   4.574   6.109   1.430
12498TIP3    H137439   4.493   6.161   1.437
12498TIP3    H237440   4.583   6.091   1.337
12499TIP3   OH237441   2.644   3.639   6.488
12499TIP3    H137442   2.607   3.706   6.431
12499TIP3    H237443   2.731   3.621   6.451
12500TIP3   OH237444   2.505   5.645   5.792
12500TIP3    H137445   2.485   5.736   5.770
12500TIP3    H237446   2.569   5.651   5.862
12501TIP3   OH237447   7.069   7.538   1.488
12501TIP3    H137448   7.131   7.527   1.416
12501TIP3    H237449   7.031   7.452   1.500
12502TIP3   OH237450   8.012   6.394   5.115
12502TIP3    H137451   8.002   6.441   5.032
12502TIP3    H237452   7.948   6.323   5.111
12503TIP3   OH237453   3.680   4.916   0.787
12503TIP3    H137454   3.747   4.865   0.743
12503TIP3    H237455   3.633   4.961   0.716
12504TIP3   OH237456   5.145   5.015   3.778
12504TIP3    H137457   5.239   5.036   3.771
12504TIP3    H237458   5.101   5.095   3.751
12505TIP3   OH237459   0.612   0.280   6.140
12505TIP3    H137460   0.688   0.266   6.196
12505TIP3    H237461   0.542   0.307   6.200
12506TIP3   OH237462   2.373   7.740   6.503
12506TIP3    H137463   2.371   7.704   6.592
12506TIP3    H237464   2.464   7.766   6.490
12507TIP3   OH237465   2.726   1.189   0.018
12507TIP3    H137466   2.815   1.158   0.004
12507TIP3    H237467   2.733   1.247   0.094
12508TIP3   OH237468   2.588   4.263   0.211
12508TIP3    H137469   2.552   4.183   0.250
12508TIP3    H237470   2.559   4.261   0.120
12509TIP3   OH237471   6.217   0.745   4.451
12509TIP3    H137472   6.277   0.691   4.502
12509TIP3    H237473   6.132   0.734   4.493
12510TIP3   OH237474   5.581   4.092   3.720
12510TIP3    H137475   5.532   4.015   3.749
12510TIP3    H237476   5.579   4.151   3.795
12511TIP3   OH237477   1.496   0.218   5.957
12511TIP3    H137478   1.451   0.152   5.905
12511TIP3    H237479   1.431   0.288   5.969
12512TIP3   OH237480   6.589   2.854   4.379
12512TIP3    H137481   6.501   2.846   4.343
12512TIP3    H237482   6.642   2.796   4.323
12513TIP3   OH237483   6.665   2.539   0.148
12513TIP3    H137484   6.630   2.455   0.119
12513TIP3    H237485   6.676   2.590   0.067
12514TIP3   OH237486   3.001   2.303   5.183
12514TIP3    H137487   2.910   2.278   5.172
12514TIP3    H237488   3.034   2.311   5.093
12515TIP3   OH237489   6.572   6.142   2.735
12515TIP3    H137490   6.561   6.161   2.641
12515TIP3    H237491   6.488   6.166   2.774
12516TIP3   OH237492   2.830   0.260   1.054
12516TIP3    H137493   2.796   0.316   1.123
12516TIP3    H237494   2.923   0.250   1.075
12517TIP3   OH237495   2.305   7.426   6.544
12517TIP3    H137496   2.357   7.415   6.464
12517TIP3    H237497   2.369   7.428   6.614
12518TIP3   OH237498   2.894   6.015   4.332
12518TIP3    H137499   2.942   6.026   4.414
12518TIP3    H237500   2.803   6.032   4.355
12519TIP3   OH237501   7.603   1.631   6.344
12519TIP3    H137502   7.519   1.633   6.390
12519TIP3    H237503   7.580   1.624   6.251
12520TIP3   OH237504   5.347   2.105   2.062
12520TIP3    H137505   5.431   2.130   2.098
12520TIP3    H237506   5.319   2.181   2.011
12521TIP3   OH237507   4.268   5.706   0.762
12521TIP3    H137508   4.257   5.716   0.668
12521TIP3    H237509   4.185   5.667   0.792
12522TIP3   OH237510   1.776   4.480   3.823
12522TIP3    H137511   1.867   4.505   3.839
12522TIP3    H237512   1.754   4.423   3.896
12523TIP3   OH237513   2.661   0.863   2.032
12523TIP3    H137514   2.661   0.910   1.948
12523TIP3    H237515   2.753   0.842   2.047
12524TIP3   OH237516   7.095   0.357   6.157
12524TIP3    H137517   7.096   0.356   6.252
12524TIP3    H237518   7.004   0.371   6.133
12525TIP3   OH237519   6.906   5.832   4.989
12525TIP3    H137520   6.893   5.807   5.080
12525TIP3    H237521   6.947   5.756   4.948
12526TIP3   OH237522   5.634   0.411   0.394
12526TIP3    H137523   5.662   0.333   0.442
12526TIP3    H237524   5.543   0.392   0.370
12527TIP3   OH237525   5.414   4.485   4.103
12527TIP3    H137526   5.462   4.409   4.135
12527TIP3    H237527   5.432   4.487   4.009
12528TIP3   OH237528   1.751   5.261   4.778
12528TIP3    H137529   1.791   5.339   4.740
12528TIP3    H237530   1.708   5.217   4.704
12529TIP3   OH237531   0.596   2.533   5.789
12529TIP3    H137532   0.663   2.562   5.851
12529TIP3    H237533   0.617   2.580   5.708
12530TIP3   OH237534   4.215   0.685   6.556
12530TIP3    H137535   4.221   0.734   6.638
12530TIP3    H237536   4.305   0.662   6.535
12531TIP3   OH237537   4.336   6.587   4.522
12531TIP3    H137538   4.382   6.573   4.439
12531TIP3    H237539   4.273   6.656   4.503
12532TIP3   OH237540   7.044   4.220   4.423
12532TIP3    H137541   7.056   4.300   4.372
12532TIP3    H237542   6.964   4.181   4.388
12533TIP3   OH237543   5.823   1.335   1.589
12533TIP3    H137544   5.730   1.355   1.597
12533TIP3    H237545   5.860   1.411   1.543
12534TIP3   OH237546   1.332   5.832   4.597
12534TIP3    H137547   1.400   5.766   4.611
12534TIP3    H237548   1.321   5.873   4.683
12535TIP3   OH237549   4.890   5.048  -0.008
12535TIP3    H137550   4.827   5.044   0.064
12535TIP3    H237551   4.844   5.008  -0.082
12536TIP3   OH237552   7.902   1.286   3.632
12536TIP3    H137553   7.888   1.191   3.631
12536TIP3    H237554   7.843   1.319   3.565
12537TIP3   OH237555   3.262   5.573   0.635
12537TIP3    H137556   3.325   5.551   0.567
12537TIP3    H237557   3.218   5.652   0.604
12538TIP3   OH237558   8.014   5.045   0.843
12538TIP3    H137559   7.928   5.028   0.880
12538TIP3    H237560   8.009   5.013   0.753
12539TIP3   OH237561   3.574   3.380   5.309
12539TIP3    H137562   3.593   3.438   5.383
12539TIP3    H237563   3.645   3.316   5.309
12540TIP3   OH237564   2.020   4.164   2.391
12540TIP3    H137565   2.101   4.203   2.423
12540TIP3    H237566   2.021   4.181   2.296
12541TIP3   OH237567   6.359   4.445   1.752
12541TIP3    H137568   6.278   4.494   1.764
12541TIP3    H237569   6.428   4.504   1.782
12542TIP3   OH237570   5.173   5.003   5.753
12542TIP3    H137571   5.193   5.030   5.663
12542TIP3    H237572   5.258   4.980   5.790
12543TIP3   OH237573   3.044   4.592   4.260
12543TIP3    H137574   3.078   4.523   4.317
12543TIP3    H237575   3.082   4.573   4.174
12544TIP3   OH237576   0.668   6.293   0.891
12544TIP3    H137577   0.710   6.345   0.822
12544TIP3    H237578   0.595   6.346   0.920
12545TIP3   OH237579   4.684   7.540   0.579
12545TIP3    H137580   4.702   7.528   0.486
12545TIP3    H237581   4.770   7.537   0.621
12546TIP3   OH237582   1.123   5.914   4.994
12546TIP3    H137583   1.072   5.991   5.022
12546TIP3    H237584   1.101   5.847   5.058
12547TIP3   OH237585   0.690   0.017   2.726
12547TIP3    H137586   0.718   0.032   2.816
12547TIP3    H237587   0.720  -0.072   2.705
12548TIP3   OH237588   5.594   3.766   2.231
12548TIP3    H137589   5.676   3.786   2.276
12548TIP3    H237590   5.544   3.712   2.293
12549TIP3   OH237591   1.984   3.901   5.541
12549TIP3    H137592   1.936   3.843   5.482
12549TIP3    H237593   1.922   3.921   5.611
12550TIP3   OH237594   1.045   1.812   6.707
12550TIP3    H137595   0.959   1.813   6.748
12550TIP3    H237596   1.077   1.723   6.721
12551TIP3   OH237597   4.321   3.487   1.340
12551TIP3    H137598   4.350   3.420   1.277
12551TIP3    H237599   4.236   3.515   1.307
12552TIP3   OH237600   7.619   4.853   6.517
12552TIP3    H137601   7.622   4.774   6.571
12552TIP3    H237602   7.531   4.888   6.531
12553TIP3   OH237603   4.448   5.875   0.459
12553TIP3    H137604   4.532   5.829   0.465
12553TIP3    H237605   4.466   5.949   0.401
12554TIP3   OH237606   0.130   3.015   3.336
12554TIP3    H137607   0.149   3.101   3.299
12554TIP3    H237608   0.162   3.020   3.426
12555TIP3   OH237609   3.009   2.628   4.917
12555TIP3    H137610   3.018   2.630   4.821
12555TIP3    H237611   2.961   2.708   4.938
12556TIP3   OH237612   7.989   4.705   6.273
12556TIP3    H137613   7.959   4.776   6.330
12556TIP3    H237614   7.909   4.673   6.231
12557TIP3   OH237615   6.420   4.557   1.251
12557TIP3    H137616   6.347   4.616   1.269
12557TIP3    H237617   6.490   4.614   1.220
12558TIP3   OH237618   5.230   0.140   6.244
12558TIP3    H137619   5.239   0.077   6.317
12558TIP3    H237620   5.198   0.087   6.171
12559TIP3   OH237621   6.352   3.108   4.191
12559TIP3    H137622   6.425   3.166   4.172
12559TIP3    H237623   6.364   3.033   4.133
12560TIP3   OH237624   0.146   3.894   2.532
12560TIP3    H137625   0.202   3.942   2.471
12560TIP3    H237626   0.168   3.929   2.618
12561TIP3   OH237627   1.337   6.810   4.745
12561TIP3    H137628   1.315   6.854   4.827
12561TIP3    H237629   1.360   6.721   4.771
12562TIP3   OH237630   2.679   2.595   5.566
12562TIP3    H137631   2.755   2.637   5.605
12562TIP3    H237632   2.709   2.564   5.480
12563TIP3   OH237633   4.491   1.570   3.856
12563TIP3    H137634   4.548   1.511   3.905
12563TIP3    H237635   4.549   1.614   3.795
12564TIP3   OH237636   2.891   3.703   0.392
12564TIP3    H137637   2.818   3.758   0.362
12564TIP3    H237638   2.854   3.650   0.462
12565TIP3   OH237639   5.449   3.962   5.751
12565TIP3    H137640   5.400   3.897   5.702
12565TIP3    H237641   5.394   3.983   5.827
12566TIP3   OH237642   7.054   3.576   3.841
12566TIP3    H137643   7.125   3.517   3.819
12566TIP3    H237644   7.097   3.652   3.881
12567TIP3   OH237645   7.490   2.507   5.380
12567TIP3    H137646   7.496   2.504   5.476
12567TIP3    H237647   7.427   2.576   5.362
12568TIP3   OH237648   0.923   0.385   5.308
12568TIP3    H137649   0.964   0.459   5.353
12568TIP3    H237650   0.851   0.358   5.366
12569TIP3   OH237651   4.414   3.900   5.791
12569TIP3    H137652   4.412   3.883   5.696
12569TIP3    H237653   4.365   3.981   5.802
12570TIP3   OH237654   7.295   0.147   0.716
12570TIP3    H137655   7.244   0.068   0.698
12570TIP3    H237656   7.270   0.208   0.646
12571TIP3   OH237657   4.045   7.797   3.678
12571TIP3    H137658   4.081   7.876   3.638
12571TIP3    H237659   3.973   7.828   3.732
12572TIP3   OH237660   0.429   3.612   6.461
12572TIP3    H137661   0.408   3.530   6.505
12572TIP3    H237662   0.523   3.607   6.444
12573TIP3   OH237663   0.993   2.122   4.371
12573TIP3    H137664   0.971   2.099   4.462
12573TIP3    H237665   0.963   2.047   4.320
12574TIP3   OH237666   4.052   4.327   5.224
12574TIP3    H137667   4.088   4.331   5.136
12574TIP3    H237668   4.112   4.378   5.277
12575TIP3   OH237669   2.142   7.407   1.735
12575TIP3    H137670   2.137   7.373   1.824
12575TIP3    H237671   2.215   7.469   1.737
12576TIP3   OH237672   4.613   5.443   4.476
12576TIP3    H137673   4.678   5.513   4.475
12576TIP3    H237674   4.529   5.488   4.469
12577TIP3   OH237675   5.584   6.353   2.637
12577TIP3    H137676   5.560   6.283   2.698
12577TIP3    H237677   5.678   6.341   2.623
12578TIP3   OH237678   3.876   2.054   3.755
12578TIP3    H137679   3.920   2.004   3.824
12578TIP3    H237680   3.783   2.036   3.768
12579TIP3   OH237681   2.234   7.247   6.073
12579TIP3    H137682   2.215   7.249   6.167
12579TIP3    H237683   2.194   7.166   6.042
12580TIP3   OH237684   5.864   3.996   2.472
12580TIP3    H137685   5.875   3.908   2.437
12580TIP3    H237686   5.781   4.026   2.433
12581TIP3   OH237687   0.269   6.469   4.083
12581TIP3    H137688   0.263   6.550   4.031
12581TIP3    H237689   0.209   6.408   4.040
12582TIP3   OH237690   3.871   3.281   3.619
12582TIP3    H137691   3.823   3.198   3.628
12582TIP3    H237692   3.813   3.337   3.568
12583TIP3   OH237693   2.030   4.508   3.001
12583TIP3    H137694   1.952   4.560   2.979
12583TIP3    H237695   2.103   4.558   2.964
12584TIP3   OH237696   0.644   7.381   2.389
12584TIP3    H137697   0.682   7.362   2.475
12584TIP3    H237698   0.690   7.322   2.329
12585TIP3   OH237699   4.861   4.190   6.106
12585TIP3    H137700   4.838   4.114   6.053
12585TIP3    H237701   4.952   4.174   6.132
12586TIP3   OH237702   7.141   1.602   2.391
12586TIP3    H137703   7.128   1.595   2.296
12586TIP3    H237704   7.183   1.519   2.415
12587TIP3   OH237705   7.736   2.494   4.939
12587TIP3    H137706   7.690   2.544   4.872
12587TIP3    H237707   7.729   2.403   4.912
12588TIP3   OH237708   5.061   7.086   4.616
12588TIP3    H137709   5.107   7.167   4.639
12588TIP3    H237710   4.971   7.099   4.646
12589TIP3   OH237711   3.182   5.884   5.207
12589TIP3    H137712   3.219   5.957   5.258
12589TIP3    H237713   3.091   5.910   5.191
12590TIP3   OH237714   2.381   3.557   3.550
12590TIP3    H137715   2.350   3.487   3.608
12590TIP3    H237716   2.344   3.535   3.464
12591TIP3   OH237717   5.024   7.506   6.717
12591TIP3    H137718   5.041   7.416   6.745
12591TIP3    H237719   4.948   7.533   6.770
12592TIP3   OH237720   7.598   5.486   6.290
12592TIP3    H137721   7.577   5.400   6.253
12592TIP3    H237722   7.539   5.546   6.245
12593TIP3   OH237723   5.060   4.595   3.126
12593TIP3    H137724   5.079   4.530   3.194
12593TIP3    H237725   5.116   4.669   3.148
12594TIP3   OH237726   7.805   3.741   4.803
12594TIP3    H137727   7.829   3.826   4.767
12594TIP3    H237728   7.884   3.710   4.847
12595TIP3   OH237729   6.248   2.737   4.898
12595TIP3    H137730   6.181   2.798   4.930
12595TIP3    H237731   6.222   2.652   4.932
12596TIP3   OH237732   0.965   3.827   5.436
12596TIP3    H137733   0.991   3.897   5.376
12596TIP3    H237734   0.882   3.795   5.401
12597TIP3   OH237735   7.723   4.880   5.014
12597TIP3    H137736   7.791   4.903   4.951
12597TIP3    H237737   7.678   4.805   4.975
12598TIP3   OH237738   7.247   4.163   4.578
12598TIP3    H137739   7.224   4.082   4.623
12598TIP3    H237740   7.168   4.188   4.530
12599TIP3   OH237741   4.730   5.398   5.203
12599TIP3    H137742   4.784   5.323   5.180
12599TIP3    H237743   4.748   5.412   5.296
12600TIP3   OH237744   5.394   2.424   1.250
12600TIP3    H137745   5.377   2.460   1.163
12600TIP3    H237746   5.392   2.330   1.237
12601TIP3   OH237747   0.718   4.053   4.022
12601TIP3    H137748   0.689   4.097   4.102
12601TIP3    H237749   0.661   3.977   4.014
12602TIP3   OH237750   2.263   2.156   1.223
12602TIP3    H137751   2.292   2.237   1.264
12602TIP3    H237752   2.194   2.183   1.162
12603TIP3   OH237753   1.901   1.670   3.909
12603TIP3    H137754   1.986   1.632   3.888
12603TIP3    H237755   1.863   1.694   3.825
12604TIP3   OH237756   5.555   1.962   2.583
12604TIP3    H137757   5.646   1.991   2.575
12604TIP3    H237758   5.547   1.931   2.673
12605TIP3   OH237759   6.086   4.690   4.947
12605TIP3    H137760   6.064   4.697   4.855
12605TIP3    H237761   6.007   4.719   4.993
12606TIP3   OH237762   8.138   4.061   3.465
12606TIP3    H137763   8.198   4.100   3.529
12606TIP3    H237764   8.125   4.129   3.400
12607TIP3   OH237765   1.748   2.423   6.459
12607TIP3    H137766   1.655   2.430   6.481
12607TIP3    H237767   1.774   2.511   6.434
12608TIP3   OH237768   8.307   6.963   1.940
12608TIP3    H137769   8.357   6.954   1.859
12608TIP3    H237770   8.217   6.944   1.914
12609TIP3   OH237771   4.669   2.871   1.813
12609TIP3    H137772   4.637   2.958   1.790
12609TIP3    H237773   4.744   2.857   1.755
12610TIP3   OH237774   2.229   0.200   5.642
12610TIP3    H137775   2.270   0.281   5.672
12610TIP3    H237776   2.138   0.224   5.624
12611TIP3   OH237777   0.355   0.548   4.167
12611TIP3    H137778   0.344   0.482   4.099
12611TIP3    H237779   0.419   0.511   4.227
12612TIP3   OH237780   3.531   7.599   5.781
12612TIP3    H137781   3.539   7.668   5.847
12612TIP3    H237782   3.486   7.642   5.708
12613TIP3   OH237783   1.932   6.387   6.593
12613TIP3    H137784   1.932   6.410   6.687
12613TIP3    H237785   2.003   6.440   6.556
12614TIP3   OH237786   5.008   1.902   1.098
12614TIP3    H137787   4.950   1.976   1.115
12614TIP3    H237788   5.014   1.898   1.003
12615TIP3   OH237789   8.199   2.936   3.447
12615TIP3    H137790   8.149   2.960   3.369
12615TIP3    H237791   8.289   2.960   3.427
12616TIP3   OH237792   7.287   3.613   0.330
12616TIP3    H137793   7.332   3.539   0.289
12616TIP3    H237794   7.201   3.579   0.354
12617TIP3   OH237795   1.181   2.189   2.277
12617TIP3    H137796   1.263   2.205   2.229
12617TIP3    H237797   1.181   2.254   2.347
12618TIP3   OH237798   6.118   1.314   6.723
12618TIP3    H137799   6.110   1.392   6.779
12618TIP3    H237800   6.208   1.319   6.689
12619TIP3   OH237801   5.571   7.498   4.622
12619TIP3    H137802   5.591   7.465   4.709
12619TIP3    H237803   5.489   7.547   4.633
12620TIP3   OH237804   2.456   4.879   2.182
12620TIP3    H137805   2.538   4.903   2.138
12620TIP3    H237806   2.455   4.783   2.180
12621TIP3   OH237807   2.241   1.742   2.576
12621TIP3    H137808   2.246   1.676   2.645
12621TIP3    H237809   2.316   1.800   2.592
12622TIP3   OH237810   5.126   4.658   1.085
12622TIP3    H137811   5.075   4.739   1.085
12622TIP3    H237812   5.067   4.592   1.121
12623TIP3   OH237813   5.808   7.867   5.621
12623TIP3    H137814   5.863   7.850   5.544
12623TIP3    H237815   5.839   7.806   5.687
12624TIP3   OH237816   5.620   0.676   2.477
12624TIP3    H137817   5.633   0.592   2.521
12624TIP3    H237818   5.630   0.656   2.384
12625TIP3   OH237819   3.067   3.218   4.659
12625TIP3    H137820   3.048   3.311   4.647
12625TIP3    H237821   3.008   3.189   4.728
12626TIP3   OH237822   5.505   4.234   6.108
12626TIP3    H137823   5.500   4.276   6.022
12626TIP3    H237824   5.597   4.236   6.131
12627TIP3   OH237825   4.831   3.268   3.445
12627TIP3    H137826   4.765   3.322   3.488
12627TIP3    H237827   4.890   3.331   3.403
12628TIP3   OH237828   4.530   5.071   3.396
12628TIP3    H137829   4.536   5.164   3.420
12628TIP3    H237830   4.484   5.071   3.312
12629TIP3   OH237831   8.193   5.960   6.503
12629TIP3    H137832   8.147   5.956   6.419
12629TIP3    H237833   8.279   5.922   6.485
12630TIP3   OH237834   4.282   6.625   0.245
12630TIP3    H137835   4.306   6.625   0.152
12630TIP3    H237836   4.309   6.711   0.277
12631TIP3   OH237837   0.145   4.478   3.161
12631TIP3    H137838   0.125   4.429   3.241
12631TIP3    H237839   0.087   4.441   3.095
12632TIP3   OH237840   5.288   1.288   5.368
12632TIP3    H137841   5.383   1.277   5.374
12632TIP3    H237842   5.253   1.202   5.393
12633TIP3   OH237843   1.293   4.159   0.453
12633TIP3    H137844   1.241   4.223   0.404
12633TIP3    H237845   1.285   4.186   0.544
12634TIP3   OH237846   3.521   1.442   5.450
12634TIP3    H137847   3.517   1.491   5.532
12634TIP3    H237848   3.459   1.487   5.392
12635TIP3   OH237849   7.580   7.382   2.731
12635TIP3    H137850   7.559   7.290   2.719
12635TIP3    H237851   7.505   7.429   2.696
12636TIP3   OH237852   3.706   0.683   3.412
12636TIP3    H137853   3.675   0.641   3.332
12636TIP3    H237854   3.740   0.611   3.465
12637TIP3   OH237855   2.942   1.796   6.327
12637TIP3    H137856   2.847   1.803   6.315
12637TIP3    H237857   2.958   1.702   6.331
12638TIP3   OH237858   3.476   6.572   6.647
12638TIP3    H137859   3.533   6.609   6.714
12638TIP3    H237860   3.420   6.511   6.694
12639TIP3   OH237861   8.253   5.368   2.138
12639TIP3    H137862   8.250   5.290   2.193
12639TIP3    H237863   8.337   5.409   2.161
12640TIP3   OH237864   3.191   3.300   3.935
12640TIP3    H137865   3.104   3.288   3.895
12640TIP3    H237866   3.175   3.361   4.007
12641TIP3   OH237867   0.920   1.659   4.939
12641TIP3    H137868   0.832   1.631   4.914
12641TIP3    H237869   0.961   1.685   4.857
12642TIP3   OH237870   7.438   4.165   5.705
12642TIP3    H137871   7.401   4.249   5.734
12642TIP3    H237872   7.487   4.186   5.626
12643TIP3   OH237873   7.885   2.532   1.115
12643TIP3    H137874   7.915   2.623   1.117
12643TIP3    H237875   7.871   2.509   1.207
12644TIP3   OH237876   0.858   5.215   4.693
12644TIP3    H137877   0.801   5.141   4.673
12644TIP3    H237878   0.921   5.217   4.621
12645TIP3   OH237879   3.160   7.581   0.551
12645TIP3    H137880   3.075   7.584   0.506
12645TIP3    H237881   3.205   7.507   0.511
12646TIP3   OH237882   0.922   4.480   2.860
12646TIP3    H137883   0.838   4.498   2.902
12646TIP3    H237884   0.900   4.426   2.784
12647TIP3   OH237885   2.415   2.700   0.355
12647TIP3    H137886   2.398   2.784   0.397
12647TIP3    H237887   2.335   2.649   0.370
12648TIP3   OH237888   2.226   5.119   1.976
12648TIP3    H137889   2.211   5.106   2.070
12648TIP3    H237890   2.176   5.049   1.934
12649TIP3   OH237891   1.920   5.711   6.057
12649TIP3    H137892   1.971   5.791   6.066
12649TIP3    H237893   1.907   5.701   5.962
12650TIP3   OH237894   7.939   2.420   1.403
12650TIP3    H137895   8.029   2.429   1.372
12650TIP3    H237896   7.942   2.346   1.464
12651TIP3   OH237897   2.576   3.563   1.944
12651TIP3    H137898   2.634   3.580   1.871
12651TIP3    H237899   2.495   3.609   1.922
12652TIP3   OH237900   0.694   0.166   0.027
12652TIP3    H137901   0.646   0.188  -0.053
12652TIP3    H237902   0.625   0.143   0.090
12653TIP3   OH237903   2.849   5.493   6.262
12653TIP3    H137904   2.843   5.579   6.222
12653TIP3    H237905   2.762   5.456   6.252
12654TIP3   OH237906   6.071   1.509   6.307
12654TIP3    H137907   6.064   1.576   6.239
12654TIP3    H237908   6.037   1.552   6.385
12655TIP3   OH237909   0.035   7.632   1.005
12655TIP3    H137910   0.092   7.567   0.964
12655TIP3    H237911  -0.046   7.586   1.022
12656TIP3   OH237912   2.963   2.258   5.527
12656TIP3    H137913   3.041   2.203   5.528
12656TIP3    H237914   2.948   2.280   5.619
12657TIP3   OH237915   5.067   7.183   3.122
12657TIP3    H137916   4.972   7.169   3.132
12657TIP3    H237917   5.099   7.100   3.086
12658TIP3   OH237918   7.564   2.239   6.796
12658TIP3    H137919   7.537   2.168   6.737
12658TIP3    H237920   7.519   2.316   6.763
12659TIP3   OH237921   1.525   1.414   0.665
12659TIP3    H137922   1.468   1.354   0.616
12659TIP3    H237923   1.548   1.483   0.603
12660TIP3   OH237924   4.290   4.141   5.806
12660TIP3    H137925   4.199   4.142   5.834
12660TIP3    H237926   4.330   4.215   5.851
12661TIP3   OH237927   7.326   4.673   2.391
12661TIP3    H137928   7.340   4.634   2.478
12661TIP3    H237929   7.259   4.740   2.406
12662TIP3   OH237930   7.745   2.921   0.063
12662TIP3    H137931   7.834   2.945   0.036
12662TIP3    H237932   7.733   2.833   0.028
12663TIP3   OH237933   1.290   3.225   1.923
12663TIP3    H137934   1.385   3.223   1.921
12663TIP3    H237935   1.266   3.301   1.870
12664TIP3   OH237936   0.693   3.641   6.491
12664TIP3    H137937   0.676   3.689   6.572
12664TIP3    H237938   0.768   3.585   6.512
12665TIP3   OH237939   1.143   7.214   6.590
12665TIP3    H137940   1.065   7.245   6.545
12665TIP3    H237941   1.206   7.197   6.519
12666TIP3   OH237942   1.661   1.897   5.012
12666TIP3    H137943   1.607   1.906   5.090
12666TIP3    H237944   1.612   1.837   4.956
12667TIP3   OH237945   2.551   5.691   5.062
12667TIP3    H137946   2.488   5.625   5.090
12667TIP3    H237947   2.498   5.758   5.019
12668TIP3   OH237948   3.230   7.334   6.466
12668TIP3    H137949   3.226   7.249   6.511
12668TIP3    H237950   3.254   7.312   6.376
12669TIP3   OH237951   5.255   1.033   4.002
12669TIP3    H137952   5.252   1.100   3.933
12669TIP3    H237953   5.346   1.005   4.004
12670TIP3   OH237954   5.122   4.789   2.446
12670TIP3    H137955   5.077   4.819   2.525
12670TIP3    H237956   5.084   4.704   2.427
12671TIP3   OH237957   5.620   3.131   1.746
12671TIP3    H137958   5.537   3.084   1.734
12671TIP3    H237959   5.594   3.218   1.776
12672TIP3   OH237960   1.437   2.708   4.204
12672TIP3    H137961   1.358   2.753   4.234
12672TIP3    H237962   1.411   2.667   4.121
12673TIP3   OH237963   8.125   6.313   2.255
12673TIP3    H137964   8.078   6.300   2.337
12673TIP3    H237965   8.063   6.362   2.200
12674TIP3   OH237966   7.174   7.725   4.309
12674TIP3    H137967   7.249   7.666   4.299
12674TIP3    H237968   7.202   7.807   4.269
12675TIP3   OH237969   1.637   2.003   2.320
12675TIP3    H137970   1.671   1.973   2.404
12675TIP3    H237971   1.664   2.095   2.315
12676TIP3   OH237972   0.286   1.083   3.246
12676TIP3    H137973   0.220   1.028   3.287
12676TIP3    H237974   0.360   1.024   3.229
12677TIP3   OH237975   0.449   4.915   4.253
12677TIP3    H137976   0.532   4.913   4.301
12677TIP3    H237977   0.462   4.981   4.185
12678TIP3   OH237978   1.267   6.033   5.487
12678TIP3    H137979   1.224   5.949   5.470
12678TIP3    H237980   1.355   6.022   5.452
12679TIP3   OH237981   0.230   4.048   1.832
12679TIP3    H137982   0.198   4.040   1.922
12679TIP3    H237983   0.202   4.136   1.805
12680TIP3   OH237984   6.158   0.224   4.896
12680TIP3    H137985   6.215   0.297   4.873
12680TIP3    H237986   6.195   0.149   4.849
12681TIP3   OH237987   3.410   3.545   4.239
12681TIP3    H137988   3.439   3.490   4.166
12681TIP3    H237989   3.440   3.633   4.216
12682TIP3   OH237990   5.571   1.660   1.922
12682TIP3    H137991   5.553   1.746   1.960
12682TIP3    H237992   5.541   1.666   1.832
12683TIP3   OH237993   3.484   5.317   5.596
12683TIP3    H137994   3.399   5.350   5.626
12683TIP3    H237995   3.473   5.305   5.502
12684TIP3   OH237996   3.128   5.336   4.451
12684TIP3    H137997   3.082   5.290   4.521
12684TIP3    H237998   3.069   5.329   4.376
12685TIP3   OH237999   3.045   4.202   1.270
12685TIP3    H138000   2.999   4.211   1.186
12685TIP3    H238001   2.979   4.224   1.336
12686TIP3   OH238002   2.327   4.928   5.516
12686TIP3    H138003   2.289   4.865   5.455
12686TIP3    H238004   2.363   4.997   5.460
12687TIP3   OH238005   3.246   1.477   5.705
12687TIP3    H138006   3.190   1.555   5.698
12687TIP3    H238007   3.334   1.513   5.716
12688TIP3   OH238008   8.000   1.781   1.777
12688TIP3    H138009   7.973   1.724   1.705
12688TIP3    H238010   8.036   1.859   1.734
12689TIP3   OH238011   4.314   0.912   4.695
12689TIP3    H138012   4.249   0.846   4.673
12689TIP3    H238013   4.399   0.867   4.686
12690TIP3   OH238014   6.114   3.524   0.603
12690TIP3    H138015   6.134   3.579   0.679
12690TIP3    H238016   6.163   3.564   0.531
12691TIP3   OH238017   2.317   6.171   4.004
12691TIP3    H138018   2.384   6.133   4.060
12691TIP3    H238019   2.258   6.098   3.985
12692TIP3   OH238020   7.892   3.847   3.959
12692TIP3    H138021   7.863   3.761   3.987
12692TIP3    H238022   7.941   3.831   3.878
12693TIP3   OH238023   3.725   4.142   3.807
12693TIP3    H138024   3.748   4.191   3.728
12693TIP3    H238025   3.789   4.170   3.873
12694TIP3   OH238026   3.598   2.765   0.230
12694TIP3    H138027   3.675   2.714   0.204
12694TIP3    H238028   3.585   2.828   0.159
12695TIP3   OH238029   6.119   4.445   6.316
12695TIP3    H138030   6.154   4.356   6.307
12695TIP3    H238031   6.136   4.486   6.231
12696TIP3   OH238032   3.419   3.173   2.432
12696TIP3    H138033   3.374   3.134   2.357
12696TIP3    H238034   3.495   3.116   2.446
12697TIP3   OH238035   6.538   0.710   5.932
12697TIP3    H138036   6.453   0.723   5.974
12697TIP3    H238037   6.524   0.639   5.869
12698TIP3   OH238038   4.568   3.776   4.754
12698TIP3    H138039   4.501   3.778   4.686
12698TIP3    H238040   4.555   3.858   4.802
12699TIP3   OH238041   2.313   2.204   1.848
12699TIP3    H138042   2.279   2.124   1.889
12699TIP3    H238043   2.278   2.201   1.759
12700TIP3   OH238044   7.996   5.296   2.619
12700TIP3    H138045   7.934   5.232   2.586
12700TIP3    H238046   7.968   5.379   2.580
12701TIP3   OH238047   3.541   6.292   2.905
12701TIP3    H138048   3.470   6.255   2.958
12701TIP3    H238049   3.512   6.380   2.883
12702TIP3   OH238050   4.835   1.152   4.327
12702TIP3    H138051   4.912   1.207   4.311
12702TIP3    H238052   4.779   1.206   4.383
12703TIP3   OH238053   7.305   3.132   0.658
12703TIP3    H138054   7.324   3.193   0.587
12703TIP3    H238055   7.346   3.050   0.631
12704TIP3   OH238056   7.039   0.700   3.916
12704TIP3    H138057   7.081   0.616   3.933
12704TIP3    H238058   6.956   0.677   3.874
12705TIP3   OH238059   7.592   2.077   2.076
12705TIP3    H138060   7.676   2.090   2.031
12705TIP3    H238061   7.526   2.096   2.010
12706TIP3   OH238062   1.170   4.653   6.175
12706TIP3    H138063   1.190   4.619   6.262
12706TIP3    H238064   1.255   4.672   6.136
12707TIP3   OH238065   3.485   7.017   4.727
12707TIP3    H138066   3.530   7.030   4.643
12707TIP3    H238067   3.550   6.975   4.783
12708TIP3   OH238068   6.931   1.473   3.787
12708TIP3    H138069   7.001   1.450   3.848
12708TIP3    H238070   6.914   1.566   3.803
12709TIP3   OH238071   4.734   1.223   3.992
12709TIP3    H138072   4.793   1.155   4.024
12709TIP3    H238073   4.712   1.275   4.069
12710TIP3   OH238074   3.534   5.602   0.558
12710TIP3    H138075   3.489   5.647   0.487
12710TIP3    H238076   3.627   5.607   0.534
12711TIP3   OH238077   2.696   7.001   5.401
12711TIP3    H138078   2.699   6.973   5.309
12711TIP3    H238079   2.762   6.948   5.444
12712TIP3   OH238080   6.579   1.122   3.278
12712TIP3    H138081   6.581   1.179   3.201
12712TIP3    H238082   6.618   1.176   3.348
12713TIP3   OH238083   6.386   0.125   5.635
12713TIP3    H138084   6.434   0.095   5.713
12713TIP3    H238085   6.327   0.053   5.614
12714TIP3   OH238086   0.100   2.494   0.873
12714TIP3    H138087   0.037   2.426   0.898
12714TIP3    H238088   0.182   2.446   0.857
12715TIP3   OH238089   4.286   1.648   0.223
12715TIP3    H138090   4.370   1.617   0.259
12715TIP3    H238091   4.222   1.628   0.291
12716TIP3   OH238092   2.129   4.478   2.622
12716TIP3    H138093   2.139   4.567   2.654
12716TIP3    H238094   2.036   4.470   2.601
12717TIP3   OH238095   6.148   3.300   4.211
12717TIP3    H138096   6.097   3.298   4.292
12717TIP3    H238097   6.201   3.221   4.213
12718TIP3   OH238098   3.739   1.613   4.754
12718TIP3    H138099   3.803   1.638   4.821
12718TIP3    H238100   3.739   1.687   4.693
12719TIP3   OH238101   1.629   4.593   1.163
12719TIP3    H138102   1.596   4.504   1.155
12719TIP3    H238103   1.605   4.635   1.080
12720TIP3   OH238104   0.587   0.571   6.443
12720TIP3    H138105   0.534   0.551   6.520
12720TIP3    H238106   0.675   0.586   6.477
12721TIP3   OH238107   3.480   4.806   1.752
12721TIP3    H138108   3.528   4.887   1.736
12721TIP3    H238109   3.527   4.740   1.701
12722TIP3   OH238110   0.883   7.313   2.218
12722TIP3    H138111   0.974   7.335   2.197
12722TIP3    H238112   0.831   7.371   2.162
12723TIP3   OH238113   3.304   7.513   0.826
12723TIP3    H138114   3.368   7.455   0.786
12723TIP3    H238115   3.260   7.556   0.752
12724TIP3   OH238116   2.828   2.253   0.414
12724TIP3    H138117   2.866   2.176   0.373
12724TIP3    H238118   2.738   2.255   0.383
12725TIP3   OH238119   3.730   3.984   5.404
12725TIP3    H138120   3.708   4.077   5.411
12725TIP3    H238121   3.755   3.972   5.313
12726TIP3   OH238122   4.671   5.611   6.696
12726TIP3    H138123   4.756   5.633   6.660
12726TIP3    H238124   4.626   5.564   6.626
12727TIP3   OH238125   3.605   6.641   4.916
12727TIP3    H138126   3.597   6.666   4.824
12727TIP3    H238127   3.680   6.581   4.918
12728TIP3   OH238128   2.588   5.767   0.994
12728TIP3    H138129   2.674   5.763   1.035
12728TIP3    H238130   2.605   5.775   0.900
12729TIP3   OH238131   1.500   5.238   3.141
12729TIP3    H138132   1.508   5.332   3.157
12729TIP3    H238133   1.448   5.231   3.061
12730TIP3   OH238134   7.622   4.321   2.992
12730TIP3    H138135   7.603   4.229   3.012
12730TIP3    H238136   7.685   4.347   3.059
12731TIP3   OH238137   5.880   4.006   0.991
12731TIP3    H138138   5.948   4.028   0.928
12731TIP3    H238139   5.907   4.050   1.072
12732TIP3   OH238140   7.991   3.039   5.724
12732TIP3    H138141   8.059   2.972   5.726
12732TIP3    H238142   7.942   3.027   5.805
12733TIP3   OH238143   5.745   0.350   3.646
12733TIP3    H138144   5.706   0.425   3.691
12733TIP3    H238145   5.839   0.364   3.654
12734TIP3   OH238146   7.401   1.464   6.697
12734TIP3    H138147   7.354   1.389   6.662
12734TIP3    H238148   7.379   1.536   6.639
12735TIP3   OH238149   3.732   7.042   3.182
12735TIP3    H138150   3.691   7.122   3.216
12735TIP3    H238151   3.693   6.972   3.234
12736TIP3   OH238152   1.509   6.295   6.540
12736TIP3    H138153   1.495   6.315   6.632
12736TIP3    H238154   1.554   6.372   6.505
12737TIP3   OH238155   0.243   4.348   2.038
12737TIP3    H138156   0.186   4.331   1.962
12737TIP3    H238157   0.189   4.402   2.096
12738TIP3   OH238158   5.027   3.447   0.843
12738TIP3    H138159   5.090   3.479   0.908
12738TIP3    H238160   5.062   3.478   0.759
12739TIP3   OH238161   3.775   0.051   0.390
12739TIP3    H138162   3.690   0.095   0.387
12739TIP3    H238163   3.806   0.066   0.479
12740TIP3   OH238164   2.650   2.427   6.347
12740TIP3    H138165   2.650   2.400   6.255
12740TIP3    H238166   2.660   2.346   6.396
12741TIP3   OH238167   8.269   1.665   1.520
12741TIP3    H138168   8.263   1.601   1.449
12741TIP3    H238169   8.363   1.678   1.533
12742TIP3   OH238170   6.916   2.017   3.303
12742TIP3    H138171   6.890   2.045   3.216
12742TIP3    H238172   6.845   1.959   3.332
12743TIP3   OH238173   6.409   0.663   1.061
12743TIP3    H138174   6.329   0.704   1.029
12743TIP3    H238175   6.415   0.581   1.012
12744TIP3   OH238176   7.178   0.132   6.655
12744TIP3    H138177   7.265   0.122   6.615
12744TIP3    H238178   7.192   0.192   6.728
12745TIP3   OH238179   1.488   4.951   0.294
12745TIP3    H138180   1.514   5.043   0.296
12745TIP3    H238181   1.535   4.914   0.219
12746TIP3   OH238182   2.735   6.203   0.914
12746TIP3    H138183   2.710   6.253   0.837
12746TIP3    H238184   2.817   6.160   0.890
12747TIP3   OH238185   4.723   5.765   1.671
12747TIP3    H138186   4.633   5.750   1.700
12747TIP3    H238187   4.724   5.732   1.581
12748TIP3   OH238188   6.816   6.248   4.563
12748TIP3    H138189   6.732   6.286   4.588
12748TIP3    H238190   6.865   6.241   4.645
12749TIP3   OH238191   3.014   1.058   2.103
12749TIP3    H138192   3.035   1.045   2.196
12749TIP3    H238193   2.964   0.981   2.079
12750TIP3   OH238194   5.991   6.706   4.878
12750TIP3    H138195   5.928   6.777   4.866
12750TIP3    H238196   5.964   6.665   4.960
12751TIP3   OH238197   2.592   5.401   6.344
12751TIP3    H138198   2.640   5.367   6.420
12751TIP3    H238199   2.517   5.342   6.334
12752TIP3   OH238200   3.765   7.809   4.081
12752TIP3    H138201   3.769   7.718   4.110
12752TIP3    H238202   3.837   7.852   4.127
12753TIP3   OH238203   1.819   6.986   0.492
12753TIP3    H138204   1.829   6.978   0.397
12753TIP3    H238205   1.773   7.069   0.504
12754TIP3   OH238206   5.035   6.969   2.109
12754TIP3    H138207   4.996   6.957   2.195
12754TIP3    H238208   5.128   6.985   2.127
12755TIP3   OH238209   1.154   4.672   5.788
12755TIP3    H138210   1.068   4.681   5.747
12755TIP3    H238211   1.161   4.579   5.810
12756TIP3   OH238212   6.782   4.624   3.355
12756TIP3    H138213   6.690   4.612   3.333
12756TIP3    H238214   6.787   4.607   3.449
12757TIP3   OH238215   7.663   5.847   0.789
12757TIP3    H138216   7.649   5.849   0.884
12757TIP3    H238217   7.696   5.934   0.768
12758TIP3   OH238218   2.156   2.715   0.896
12758TIP3    H138219   2.197   2.801   0.900
12758TIP3    H238220   2.148   2.687   0.987
12759TIP3   OH238221   7.025   6.745   4.329
12759TIP3    H138222   6.984   6.749   4.415
12759TIP3    H238223   6.988   6.667   4.288
12760TIP3   OH238224   3.547   3.345   1.128
12760TIP3    H138225   3.596   3.263   1.142
12760TIP3    H238226   3.542   3.384   1.215
12761TIP3   OH238227   6.007   5.138   3.098
12761TIP3    H138228   6.024   5.056   3.051
12761TIP3    H238229   6.010   5.205   3.030
12762TIP3   OH238230   5.778   5.077   5.379
12762TIP3    H138231   5.840   5.053   5.310
12762TIP3    H238232   5.692   5.054   5.343
12763TIP3   OH238233   4.346   0.709   3.390
12763TIP3    H138234   4.332   0.677   3.479
12763TIP3    H238235   4.440   0.728   3.386
12764TIP3   OH238236   0.761   7.613   1.432
12764TIP3    H138237   0.789   7.574   1.349
12764TIP3    H238238   0.832   7.592   1.494
12765TIP3   OH238239   7.111   3.179   4.499
12765TIP3    H138240   7.042   3.160   4.564
12765TIP3    H238241   7.168   3.241   4.544
12766TIP3   OH238242   7.735   1.147   0.142
12766TIP3    H138243   7.645   1.168   0.165
12766TIP3    H238244   7.787   1.179   0.216
12767TIP3   OH238245   1.002   6.381   5.855
12767TIP3    H138246   1.052   6.306   5.887
12767TIP3    H238247   1.010   6.447   5.924
12768TIP3   OH238248   7.882   3.398   0.021
12768TIP3    H138249   7.892   3.338   0.094
12768TIP3    H238250   7.818   3.357  -0.037
12769TIP3   OH238251   7.701   0.118   5.597
12769TIP3    H138252   7.627   0.178   5.599
12769TIP3    H238253   7.667   0.039   5.555
12770TIP3   OH238254   2.705   3.795   2.960
12770TIP3    H138255   2.796   3.822   2.945
12770TIP3    H238256   2.675   3.850   3.032
12771TIP3   OH238257   7.374   4.006   1.192
12771TIP3    H138258   7.304   4.042   1.137
12771TIP3    H238259   7.444   4.070   1.186
12772TIP3   OH238260   4.892   1.677   5.343
12772TIP3    H138261   4.932   1.655   5.428
12772TIP3    H238262   4.967   1.696   5.286
12773TIP3   OH238263   6.419   2.235   1.922
12773TIP3    H138264   6.452   2.324   1.915
12773TIP3    H238265   6.366   2.235   2.002
12774TIP3   OH238266   1.843   6.108   0.483
12774TIP3    H138267   1.814   6.018   0.494
12774TIP3    H238268   1.788   6.142   0.412
12775TIP3   OH238269   5.555   6.254   6.009
12775TIP3    H138270   5.649   6.238   5.999
12775TIP3    H238271   5.515   6.207   5.936
12776TIP3   OH238272   7.331   7.553   6.199
12776TIP3    H138273   7.368   7.478   6.245
12776TIP3    H238274   7.260   7.517   6.147
12777TIP3   OH238275   3.557   6.941   2.420
12777TIP3    H138276   3.478   6.959   2.370
12777TIP3    H238277   3.537   6.971   2.509
12778TIP3   OH238278   1.059   2.873   1.657
12778TIP3    H138279   1.037   2.832   1.741
12778TIP3    H238280   1.022   2.961   1.662
12779TIP3   OH238281   3.216   7.665   4.143
12779TIP3    H138282   3.209   7.641   4.051
12779TIP3    H238283   3.273   7.741   4.144
12780TIP3   OH238284   0.082   4.167   0.214
12780TIP3    H138285  -0.012   4.155   0.228
12780TIP3    H238286   0.115   4.080   0.192
12781TIP3   OH238287   0.198   4.683   2.895
12781TIP3    H138288   0.216   4.590   2.886
12781TIP3    H238289   0.112   4.686   2.937
12782TIP3   OH238290   3.434   3.497   5.087
12782TIP3    H138291   3.513   3.494   5.141
12782TIP3    H238292   3.428   3.587   5.058
12783TIP3   OH238293   0.658   2.058   5.233
12783TIP3    H138294   0.710   2.021   5.305
12783TIP3    H238295   0.568   2.053   5.263
12784TIP3   OH238296   5.856   6.326   2.631
12784TIP3    H138297   5.928   6.350   2.572
12784TIP3    H238298   5.900   6.298   2.711
12785TIP3   OH238299   0.564   2.807   3.304
12785TIP3    H138300   0.571   2.901   3.287
12785TIP3    H238301   0.472   2.786   3.287
12786TIP3   OH238302   1.334   1.430   0.218
12786TIP3    H138303   1.299   1.367   0.281
12786TIP3    H238304   1.311   1.394   0.133
12787TIP3   OH238305   5.244   0.743   2.987
12787TIP3    H138306   5.164   0.773   3.030
12787TIP3    H238307   5.223   0.742   2.894
12788TIP3   OH238308   7.196   6.363   5.667
12788TIP3    H138309   7.193   6.428   5.597
12788TIP3    H238310   7.216   6.281   5.623
12789TIP3   OH238311   6.848   4.596   1.326
12789TIP3    H138312   6.808   4.629   1.245
12789TIP3    H238313   6.791   4.525   1.353
12790TIP3   OH238314   4.278   5.888   0.023
12790TIP3    H138315   4.297   5.813   0.079
12790TIP3    H238316   4.227   5.852  -0.049
12791TIP3   OH238317   4.566   3.870   4.189
12791TIP3    H138318   4.619   3.932   4.139
12791TIP3    H238319   4.478   3.908   4.189
12792TIP3   OH238320   1.381   4.490   3.540
12792TIP3    H138321   1.317   4.452   3.601
12792TIP3    H238322   1.461   4.441   3.556
12793TIP3   OH238323   4.569   5.586   5.423
12793TIP3    H138324   4.559   5.508   5.477
12793TIP3    H238325   4.664   5.592   5.408
12794TIP3   OH238326   3.581   3.328   6.495
12794TIP3    H138327   3.656   3.274   6.469
12794TIP3    H238328   3.561   3.380   6.417
12795TIP3   OH238329   1.026   6.563   6.046
12795TIP3    H138330   0.991   6.604   6.125
12795TIP3    H238331   1.023   6.632   5.980
12796TIP3   OH238332   5.535   0.426   1.483
12796TIP3    H138333   5.531   0.448   1.390
12796TIP3    H238334   5.461   0.473   1.522
12797TIP3   OH238335   7.057   0.857   1.669
12797TIP3    H138336   7.069   0.929   1.731
12797TIP3    H238337   7.061   0.898   1.583
12798TIP3   OH238338   7.580  -0.014   5.211
12798TIP3    H138339   7.538  -0.012   5.125
12798TIP3    H238340   7.627   0.069   5.217
12799TIP3   OH238341   4.359   6.177   5.518
12799TIP3    H138342   4.418   6.223   5.459
12799TIP3    H238343   4.281   6.233   5.522
12800TIP3   OH238344   7.989   3.710   4.537
12800TIP3    H138345   8.024   3.799   4.540
12800TIP3    H238346   7.931   3.709   4.462
12801TIP3   OH238347   8.121   1.425   4.253
12801TIP3    H138348   8.101   1.506   4.301
12801TIP3    H238349   8.078   1.437   4.168
12802TIP3   OH238350   2.908   5.654   5.488
12802TIP3    H138351   2.894   5.568   5.528
12802TIP3    H238352   2.832   5.706   5.517
12803TIP3   OH238353   2.043   5.178   5.059
12803TIP3    H138354   2.051   5.273   5.070
12803TIP3    H238355   2.029   5.145   5.148
12804TIP3   OH238356   0.718   7.136   0.860
12804TIP3    H138357   0.788   7.101   0.804
12804TIP3    H238358   0.764   7.174   0.935
12805TIP3   OH238359   5.148   1.089   6.284
12805TIP3    H138360   5.174   1.157   6.346
12805TIP3    H238361   5.067   1.122   6.245
12806TIP3   OH238362   5.299   6.135   5.442
12806TIP3    H138363   5.361   6.065   5.457
12806TIP3    H238364   5.328   6.206   5.499
12807TIP3   OH238365   6.059   0.575   6.579
12807TIP3    H138366   6.005   0.497   6.589
12807TIP3    H238367   6.043   0.626   6.658
12808TIP3   OH238368   1.736   3.883   2.613
12808TIP3    H138369   1.678   3.920   2.680
12808TIP3    H238370   1.801   3.951   2.597
12809TIP3   OH238371   5.346   5.478   6.596
12809TIP3    H138372   5.426   5.453   6.549
12809TIP3    H238373   5.297   5.531   6.533
12810TIP3   OH238374   6.548   3.852   3.704
12810TIP3    H138375   6.588   3.879   3.621
12810TIP3    H238376   6.611   3.879   3.771
12811TIP3   OH238377   1.597   6.136   2.760
12811TIP3    H138378   1.646   6.076   2.816
12811TIP3    H238379   1.614   6.104   2.671
12812TIP3   OH238380   1.502   1.964   3.040
12812TIP3    H138381   1.539   2.037   2.990
12812TIP3    H238382   1.577   1.918   3.076
12813TIP3   OH238383   0.304   7.680   0.197
12813TIP3    H138384   0.265   7.738   0.132
12813TIP3    H238385   0.243   7.607   0.203
12814TIP3   OH238386   4.935   4.540   6.667
12814TIP3    H138387   4.867   4.519   6.731
12814TIP3    H238388   5.017   4.519   6.711
12815TIP3   OH238389   0.559   1.618   0.571
12815TIP3    H138390   0.544   1.701   0.617
12815TIP3    H238391   0.653   1.605   0.574
12816TIP3   OH238392   3.923   4.215   5.555
12816TIP3    H138393   3.841   4.220   5.505
12816TIP3    H238394   3.937   4.121   5.568
12817TIP3   OH238395   0.860   0.236   6.351
12817TIP3    H138396   0.877   0.147   6.381
12817TIP3    H238397   0.856   0.288   6.431
12818TIP3   OH238398   0.845   0.075   5.810
12818TIP3    H138399   0.809   0.158   5.840
12818TIP3    H238400   0.781   0.044   5.745
12819TIP3   OH238401   1.522   6.748   1.162
12819TIP3    H138402   1.474   6.691   1.101
12819TIP3    H238403   1.613   6.722   1.152
12820TIP3   OH238404   1.762   5.358   0.210
12820TIP3    H138405   1.816   5.340   0.133
12820TIP3    H238406   1.750   5.453   0.208
12821TIP3   OH238407   4.141   4.663   5.015
12821TIP3    H138408   4.090   4.729   4.968
12821TIP3    H238409   4.083   4.587   5.021
12822TIP3   OH238410   4.551   4.383   5.292
12822TIP3    H138411   4.456   4.388   5.307
12822TIP3    H238412   4.563   4.411   5.202
12823TIP3   OH238413   5.509   4.542   1.690
12823TIP3    H138414   5.573   4.609   1.668
12823TIP3    H238415   5.424   4.587   1.686
12824TIP3   OH238416   7.787   5.636   2.130
12824TIP3    H138417   7.784   5.676   2.217
12824TIP3    H238418   7.860   5.574   2.135
12825TIP3   OH238419   2.994   3.640   6.401
12825TIP3    H138420   3.012   3.602   6.487
12825TIP3    H238421   3.020   3.572   6.339
12826TIP3   OH238422   7.121   1.654   5.355
12826TIP3    H138423   7.203   1.698   5.334
12826TIP3    H238424   7.122   1.574   5.302
12827TIP3   OH238425   7.083   5.856   5.276
12827TIP3    H138426   7.046   5.944   5.270
12827TIP3    H238427   7.073   5.832   5.368
12828TIP3   OH238428   1.369   3.100   1.664
12828TIP3    H138429   1.307   3.109   1.736
12828TIP3    H238430   1.375   3.188   1.627
12829TIP3   OH238431   3.616   4.405   0.038
12829TIP3    H138432   3.565   4.442   0.110
12829TIP3    H238433   3.707   4.414   0.066
12830TIP3   OH238434   5.555   5.803   1.884
12830TIP3    H138435   5.496   5.737   1.917
12830TIP3    H238436   5.554   5.872   1.950
12831TIP3   OH238437   2.884   3.938   6.778
12831TIP3    H138438   2.899   3.843   6.782
12831TIP3    H238439   2.792   3.947   6.756
12832TIP3   OH238440   5.080   2.590   5.237
12832TIP3    H138441   5.001   2.618   5.191
12832TIP3    H238442   5.152   2.625   5.185
12833TIP3   OH238443   7.265   5.756   0.615
12833TIP3    H138444   7.272   5.755   0.710
12833TIP3    H238445   7.354   5.767   0.584
12834TIP3   OH238446   4.073   1.933   6.764
12834TIP3    H138447   4.031   1.849   6.784
12834TIP3    H238448   4.125   1.915   6.685
12835TIP3   OH238449   1.884   1.726   1.704
12835TIP3    H138450   1.819   1.731   1.775
12835TIP3    H238451   1.844   1.667   1.640
12836TIP3   OH238452   3.062   2.826   2.170
12836TIP3    H138453   3.008   2.903   2.185
12836TIP3    H238454   3.129   2.829   2.239
12837TIP3   OH238455   5.519   0.489   1.974
12837TIP3    H138456   5.528   0.545   1.897
12837TIP3    H238457   5.428   0.461   1.973
12838TIP3   OH238458   6.402   1.021   0.731
12838TIP3    H138459   6.492   1.030   0.762
12838TIP3    H238460   6.350   1.016   0.811
12839TIP3   OH238461   1.978   4.787   5.495
12839TIP3    H138462   2.038   4.829   5.556
12839TIP3    H238463   1.904   4.759   5.550
12840TIP3   OH238464   7.374   0.981   1.814
12840TIP3    H138465   7.292   1.002   1.858
12840TIP3    H238466   7.413   0.911   1.868
12841TIP3   OH238467   8.003   0.381   6.075
12841TIP3    H138468   7.944   0.375   6.000
12841TIP3    H238469   8.011   0.475   6.092
12842TIP3   OH238470   8.135   0.403   5.044
12842TIP3    H138471   8.100   0.346   5.113
12842TIP3    H238472   8.170   0.344   4.978
12843TIP3   OH238473   3.988   6.717   1.807
12843TIP3    H138474   3.963   6.625   1.811
12843TIP3    H238475   3.961   6.747   1.721
12844TIP3   OH238476   5.263   3.944   4.286
12844TIP3    H138477   5.315   3.899   4.353
12844TIP3    H238478   5.282   4.037   4.300
12845TIP3   OH238479   5.690   7.630   4.400
12845TIP3    H138480   5.758   7.697   4.409
12845TIP3    H238481   5.684   7.591   4.488
12846TIP3   OH238482   6.670   5.397   1.523
12846TIP3    H138483   6.704   5.366   1.440
12846TIP3    H238484   6.646   5.317   1.571
12847TIP3   OH238485   8.233   2.082   2.512
12847TIP3    H138486   8.144   2.086   2.477
12847TIP3    H238487   8.222   2.068   2.606
12848TIP3   OH238488   2.153   6.647   4.137
12848TIP3    H138489   2.184   6.627   4.049
12848TIP3    H238490   2.069   6.691   4.123
12849TIP3   OH238491   1.235   4.252   4.394
12849TIP3    H138492   1.274   4.213   4.472
12849TIP3    H238493   1.207   4.339   4.421
12850TIP3   OH238494   0.683   1.390   5.295
12850TIP3    H138495   0.607   1.447   5.283
12850TIP3    H238496   0.719   1.414   5.380
12851TIP3   OH238497   7.124   4.483   1.349
12851TIP3    H138498   7.111   4.458   1.440
12851TIP3    H238499   7.049   4.538   1.327
12852TIP3   OH238500   7.674   3.772   5.301
12852TIP3    H138501   7.626   3.848   5.269
12852TIP3    H238502   7.674   3.782   5.396
12853TIP3   OH238503   6.833   7.797   3.966
12853TIP3    H138504   6.890   7.785   3.890
12853TIP3    H238505   6.875   7.747   4.036
12854TIP3   OH238506   0.630   4.244   0.727
12854TIP3    H138507   0.541   4.253   0.761
12854TIP3    H238508   0.687   4.254   0.803
12855TIP3   OH238509   1.079   5.075   0.146
12855TIP3    H138510   1.169   5.091   0.118
12855TIP3    H238511   1.059   5.148   0.204
12856TIP3   OH238512   6.151   4.856   5.260
12856TIP3    H138513   6.135   4.914   5.335
12856TIP3    H238514   6.246   4.843   5.259
12857TIP3   OH238515   5.224   7.681   0.245
12857TIP3    H138516   5.284   7.661   0.173
12857TIP3    H238517   5.258   7.630   0.319
12858TIP3   OH238518   3.821   0.192   6.399
12858TIP3    H138519   3.861   0.158   6.319
12858TIP3    H238520   3.847   0.130   6.467
12859TIP3   OH238521   5.964   7.407   6.072
12859TIP3    H138522   5.947   7.471   6.141
12859TIP3    H238523   5.895   7.342   6.083
12860TIP3   OH238524   2.241   1.560   1.152
12860TIP3    H138525   2.276   1.476   1.182
12860TIP3    H238526   2.306   1.624   1.180
12861TIP3   OH238527   5.384   0.013   6.444
12861TIP3    H138528   5.465  -0.037   6.453
12861TIP3    H238529   5.411   0.104   6.459
12862TIP3   OH238530   0.782   7.262   5.934
12862TIP3    H138531   0.750   7.179   5.897
12862TIP3    H238532   0.788   7.321   5.859
12863TIP3   OH238533   6.401   2.641   2.480
12863TIP3    H138534   6.480   2.681   2.516
12863TIP3    H238535   6.340   2.714   2.469
12864TIP3   OH238536   3.672   2.261   0.558
12864TIP3    H138537   3.602   2.231   0.616
12864TIP3    H238538   3.707   2.181   0.519
12865TIP3   OH238539   5.218   6.788   3.373
12865TIP3    H138540   5.303   6.808   3.414
12865TIP3    H238541   5.213   6.693   3.373
12866TIP3   OH238542   6.478   2.648   0.656
12866TIP3    H138543   6.455   2.578   0.594
12866TIP3    H238544   6.455   2.729   0.611
12867TIP3   OH238545   7.181   2.733   4.936
12867TIP3    H138546   7.247   2.693   4.993
12867TIP3    H238547   7.156   2.814   4.982
12868TIP3   OH238548   0.836   2.495   3.824
12868TIP3    H138549   0.874   2.558   3.762
12868TIP3    H238550   0.818   2.418   3.771
12869TIP3   OH238551   6.461   7.146   4.365
12869TIP3    H138552   6.483   7.056   4.340
12869TIP3    H238553   6.537   7.197   4.338
12870TIP3   OH238554   7.340   1.630   6.434
12870TIP3    H138555   7.320   1.723   6.423
12870TIP3    H238556   7.263   1.585   6.401
12871TIP3   OH238557   7.494   0.834   1.147
12871TIP3    H138558   7.531   0.753   1.182
12871TIP3    H238559   7.423   0.856   1.207
12872TIP3   OH238560   6.053   5.565   5.190
12872TIP3    H138561   6.016   5.489   5.145
12872TIP3    H238562   6.007   5.568   5.274
12873TIP3   OH238563   1.473   6.351   2.882
12873TIP3    H138564   1.515   6.312   2.960
12873TIP3    H238565   1.502   6.295   2.810
12874TIP3   OH238566   5.187   5.962   0.351
12874TIP3    H138567   5.176   6.011   0.432
12874TIP3    H238568   5.278   5.933   0.352
12875TIP3   OH238569   4.005   3.137   1.853
12875TIP3    H138570   4.091   3.096   1.858
12875TIP3    H238571   4.016   3.221   1.898
12876TIP3   OH238572   6.400   6.738   6.650
12876TIP3    H138573   6.308   6.714   6.660
12876TIP3    H238574   6.439   6.666   6.601
12877TIP3   OH238575   2.870   1.899   2.286
12877TIP3    H138576   2.902   1.976   2.239
12877TIP3    H238577   2.940   1.835   2.276
12878TIP3   OH238578   6.710   6.770   2.114
12878TIP3    H138579   6.652   6.776   2.190
12878TIP3    H238580   6.764   6.848   2.118
12879TIP3   OH238581   2.100   5.829   2.303
12879TIP3    H138582   2.164   5.900   2.307
12879TIP3    H238583   2.140   5.763   2.247
12880TIP3   OH238584   6.214   6.989   5.632
12880TIP3    H138585   6.250   7.050   5.696
12880TIP3    H238586   6.246   7.021   5.547
12881TIP3   OH238587   2.648   1.513   2.437
12881TIP3    H138588   2.663   1.421   2.458
12881TIP3    H238589   2.651   1.517   2.341
12882TIP3   OH238590   7.776   1.713   0.364
12882TIP3    H138591   7.820   1.737   0.446
12882TIP3    H238592   7.715   1.643   0.389
12883TIP3   OH238593   1.843   2.097   3.281
12883TIP3    H138594   1.867   2.133   3.366
12883TIP3    H238595   1.792   2.166   3.239
12884TIP3   OH238596   3.745   7.643   1.178
12884TIP3    H138597   3.695   7.599   1.109
12884TIP3    H238598   3.740   7.583   1.253
12885TIP3   OH238599   5.802   4.701   3.031
12885TIP3    H138600   5.851   4.668   2.956
12885TIP3    H238601   5.856   4.678   3.107
12886TIP3   OH238602   6.355   0.306   1.772
12886TIP3    H138603   6.420   0.355   1.823
12886TIP3    H238604   6.274   0.356   1.781
12887TIP3   OH238605   4.938   4.275   0.922
12887TIP3    H138606   4.848   4.300   0.901
12887TIP3    H238607   4.970   4.345   0.980
12888TIP3   OH238608   6.924   3.355   0.241
12888TIP3    H138609   6.831   3.373   0.232
12888TIP3    H238610   6.951   3.322   0.155
12889TIP3   OH238611   2.630   5.908   5.256
12889TIP3    H138612   2.581   5.932   5.178
12889TIP3    H238613   2.592   5.826   5.285
12890TIP3   OH238614   7.825   0.542   4.229
12890TIP3    H138615   7.733   0.563   4.212
12890TIP3    H238616   7.833   0.545   4.325
12891TIP3   OH238617   1.056   0.029   2.726
12891TIP3    H138618   1.145   0.062   2.712
12891TIP3    H238619   0.999   0.099   2.695
12892TIP3   OH238620   1.108   3.320   0.529
12892TIP3    H138621   1.028   3.370   0.513
12892TIP3    H238622   1.178   3.384   0.519
12893TIP3   OH238623   6.680   6.511   0.597
12893TIP3    H138624   6.654   6.419   0.601
12893TIP3    H238625   6.730   6.525   0.677
12894TIP3   OH238626   7.047   5.275   2.273
12894TIP3    H138627   6.984   5.347   2.278
12894TIP3    H238628   6.994   5.196   2.265
12895TIP3   OH238629   2.982   5.429   6.003
12895TIP3    H138630   3.029   5.506   5.971
12895TIP3    H238631   2.935   5.461   6.080
12896TIP3   OH238632   6.207   7.381   5.193
12896TIP3    H138633   6.233   7.467   5.160
12896TIP3    H238634   6.265   7.365   5.267
12897TIP3   OH238635   4.310   7.214   2.729
12897TIP3    H138636   4.239   7.218   2.665
12897TIP3    H238637   4.271   7.170   2.805
12898TIP3   OH238638   4.604   6.885   0.361
12898TIP3    H138639   4.515   6.891   0.395
12898TIP3    H238640   4.653   6.950   0.411
12899TIP3   OH238641   7.225   4.450   5.529
12899TIP3    H138642   7.249   4.433   5.621
12899TIP3    H238643   7.229   4.545   5.520
12900TIP3   OH238644   4.363   3.760   5.523
12900TIP3    H138645   4.395   3.802   5.443
12900TIP3    H238646   4.307   3.688   5.493
12901TIP3   OH238647   0.224   7.581   4.447
12901TIP3    H138648   0.244   7.596   4.355
12901TIP3    H238649   0.149   7.638   4.466
12902TIP3   OH238650   5.874   1.580   3.599
12902TIP3    H138651   5.847   1.669   3.620
12902TIP3    H238652   5.862   1.531   3.681
12903TIP3   OH238653   3.637   6.141   5.120
12903TIP3    H138654   3.724   6.137   5.081
12903TIP3    H238655   3.590   6.207   5.068
12904TIP3   OH238656   0.184   2.038   6.539
12904TIP3    H138657   0.112   2.070   6.594
12904TIP3    H238658   0.165   1.945   6.527
12905TIP3   OH238659   2.697   5.732   2.518
12905TIP3    H138660   2.791   5.715   2.530
12905TIP3    H238661   2.657   5.645   2.514
12906TIP3   OH238662   6.757   3.174   5.105
12906TIP3    H138663   6.687   3.231   5.074
12906TIP3    H238664   6.750   3.095   5.051
12907TIP3   OH238665   4.873   6.940   2.857
12907TIP3    H138666   4.845   6.882   2.928
12907TIP3    H238667   4.964   6.962   2.879
12908TIP3   OH238668   6.340   3.891   6.619
12908TIP3    H138669   6.259   3.887   6.670
12908TIP3    H238670   6.400   3.833   6.666
12909TIP3   OH238671   1.112   0.514   1.458
12909TIP3    H138672   1.187   0.455   1.449
12909TIP3    H238673   1.052   0.469   1.518
12910TIP3   OH238674   0.719   7.067   4.673
12910TIP3    H138675   0.687   7.117   4.598
12910TIP3    H238676   0.702   7.125   4.748
12911TIP3   OH238677   3.460   2.767   5.154
12911TIP3    H138678   3.387   2.748   5.212
12911TIP3    H238679   3.516   2.826   5.204
12912TIP3   OH238680   4.229   0.003   5.808
12912TIP3    H138681   4.219  -0.053   5.884
12912TIP3    H238682   4.276   0.080   5.840
12913TIP3   OH238683   6.533   2.755   0.257
12913TIP3    H138684   6.443   2.725   0.271
12913TIP3    H238685   6.573   2.687   0.202
12914TIP3   OH238686   1.742   2.448   5.974
12914TIP3    H138687   1.663   2.404   6.005
12914TIP3    H238688   1.780   2.388   5.911
12915TIP3   OH238689   4.598   7.162   1.918
12915TIP3    H138690   4.515   7.200   1.948
12915TIP3    H238691   4.575   7.074   1.889
12916TIP3   OH238692   1.072   3.385   3.815
12916TIP3    H138693   1.040   3.390   3.905
12916TIP3    H238694   0.996   3.356   3.764
12917TIP3   OH238695   0.075   6.392   1.756
12917TIP3    H138696   0.070   6.317   1.815
12917TIP3    H238697   0.044   6.465   1.808
12918TIP3   OH238698   5.331   7.313   0.531
12918TIP3    H138699   5.332   7.308   0.626
12918TIP3    H238700   5.264   7.249   0.504
12919TIP3   OH238701   6.891   4.391   3.211
12919TIP3    H138702   6.937   4.364   3.291
12919TIP3    H238703   6.835   4.464   3.239
12920TIP3   OH238704   6.076   6.090   5.764
12920TIP3    H138705   6.133   6.014   5.775
12920TIP3    H238706   6.133   6.165   5.779
12921TIP3   OH238707   4.722   1.695   0.948
12921TIP3    H138708   4.699   1.746   1.025
12921TIP3    H238709   4.648   1.706   0.889
12922TIP3   OH238710   5.247   0.391   0.518
12922TIP3    H138711   5.261   0.343   0.599
12922TIP3    H238712   5.311   0.462   0.520
12923TIP3   OH238713   6.429   3.479   1.484
12923TIP3    H138714   6.369   3.430   1.540
12923TIP3    H238715   6.385   3.482   1.399
12924TIP3   OH238716   6.421   3.611   3.616
12924TIP3    H138717   6.479   3.556   3.563
12924TIP3    H238718   6.470   3.693   3.627
12925TIP3   OH238719   7.556   6.244   4.001
12925TIP3    H138720   7.517   6.194   4.073
12925TIP3    H238721   7.650   6.236   4.016
12926TIP3   OH238722   7.808   5.495   6.077
12926TIP3    H138723   7.766   5.562   6.023
12926TIP3    H238724   7.770   5.507   6.164
12927TIP3   OH238725   2.895   4.676   4.949
12927TIP3    H138726   2.910   4.582   4.937
12927TIP3    H238727   2.859   4.705   4.865
12928TIP3   OH238728   6.693   6.700   4.581
12928TIP3    H138729   6.785   6.684   4.601
12928TIP3    H238730   6.684   6.795   4.581
12929TIP3   OH238731   3.974   4.296   3.698
12929TIP3    H138732   3.973   4.377   3.749
12929TIP3    H238733   3.904   4.307   3.633
12930TIP3   OH238734   5.425   5.146   2.910
12930TIP3    H138735   5.373   5.068   2.893
12930TIP3    H238736   5.374   5.195   2.974
12931TIP3   OH238737   0.353   5.428   4.290
12931TIP3    H138738   0.325   5.417   4.381
12931TIP3    H238739   0.275   5.409   4.238
12932TIP3   OH238740   4.518   1.497   2.757
12932TIP3    H138741   4.509   1.402   2.759
12932TIP3    H238742   4.560   1.515   2.672
12933TIP3   OH238743   0.735   5.754   2.263
12933TIP3    H138744   0.656   5.701   2.271
12933TIP3    H238745   0.803   5.704   2.307
12934TIP3   OH238746   4.293   4.379   6.196
12934TIP3    H138747   4.199   4.358   6.199
12934TIP3    H238748   4.313   4.408   6.285
12935TIP3   OH238749   2.506   0.640   2.607
12935TIP3    H138750   2.584   0.695   2.598
12935TIP3    H238751   2.524   0.564   2.552
12936TIP3   OH238752   4.521   1.830   0.823
12936TIP3    H138753   4.441   1.776   0.831
12936TIP3    H238754   4.495   1.903   0.768
12937TIP3   OH238755   8.249   1.196   0.868
12937TIP3    H138756   8.297   1.279   0.874
12937TIP3    H238757   8.190   1.197   0.944
12938TIP3   OH238758   0.006   6.249   3.406
12938TIP3    H138759   0.018   6.184   3.336
12938TIP3    H238760  -0.008   6.332   3.360
12939TIP3   OH238761   0.660   3.406   4.381
12939TIP3    H138762   0.623   3.419   4.294
12939TIP3    H238763   0.664   3.311   4.392
12940TIP3   OH238764   5.775   0.221   1.289
12940TIP3    H138765   5.860   0.230   1.246
12940TIP3    H238766   5.796   0.202   1.380
12941TIP3   OH238767   2.408   4.654   4.837
12941TIP3    H138768   2.327   4.704   4.849
12941TIP3    H238769   2.441   4.683   4.752
12942TIP3   OH238770   2.398   2.671   5.416
12942TIP3    H138771   2.481   2.719   5.410
12942TIP3    H238772   2.331   2.734   5.391
12943TIP3   OH238773   1.036   2.018   1.071
12943TIP3    H138774   0.942   2.033   1.064
12943TIP3    H238775   1.044   1.933   1.114
12944TIP3   OH238776   3.819   3.480   4.569
12944TIP3    H138777   3.839   3.389   4.548
12944TIP3    H238778   3.781   3.477   4.657
12945TIP3   OH238779   2.279   6.277   5.808
12945TIP3    H138780   2.337   6.243   5.877
12945TIP3    H238781   2.200   6.225   5.815
12946TIP3   OH238782   4.170   3.116   6.335
12946TIP3    H138783   4.177   3.190   6.274
12946TIP3    H238784   4.156   3.040   6.279
12947TIP3   OH238785   5.360   6.532   6.271
12947TIP3    H138786   5.282   6.587   6.271
12947TIP3    H238787   5.433   6.594   6.268
12948TIP3   OH238788   0.301   5.788   0.232
12948TIP3    H138789   0.369   5.721   0.232
12948TIP3    H238790   0.265   5.785   0.321
12949TIP3   OH238791   4.435   2.847   5.172
12949TIP3    H138792   4.466   2.915   5.113
12949TIP3    H238793   4.487   2.858   5.252
12950TIP3   OH238794   0.118   0.504   2.380
12950TIP3    H138795   0.109   0.484   2.473
12950TIP3    H238796   0.029   0.519   2.350
12951TIP3   OH238797   1.620   7.799   0.549
12951TIP3    H138798   1.643   7.733   0.484
12951TIP3    H238799   1.591   7.749   0.625
12952TIP3   OH238800   5.847   7.770   3.404
12952TIP3    H138801   5.754   7.747   3.413
12952TIP3    H238802   5.845   7.862   3.376
12953TIP3   OH238803   2.700   5.377   6.579
12953TIP3    H138804   2.630   5.383   6.644
12953TIP3    H238805   2.725   5.284   6.579
12954TIP3   OH238806   2.990   7.503   4.113
12954TIP3    H138807   3.076   7.535   4.142
12954TIP3    H238808   2.948   7.580   4.075
12955TIP3   OH238809   3.726   1.122   1.646
12955TIP3    H138810   3.801   1.098   1.592
12955TIP3    H238811   3.764   1.165   1.722
12956TIP3   OH238812   5.229   0.343   5.255
12956TIP3    H138813   5.290   0.271   5.272
12956TIP3    H238814   5.222   0.345   5.159
12957TIP3   OH238815   0.591   4.961   1.047
12957TIP3    H138816   0.563   4.870   1.051
12957TIP3    H238817   0.676   4.961   1.092
12958TIP3   OH238818   6.550   7.215   3.127
12958TIP3    H138819   6.626   7.159   3.144
12958TIP3    H238820   6.561   7.288   3.187
12959TIP3   OH238821   5.750   6.886   3.302
12959TIP3    H138822   5.717   6.975   3.306
12959TIP3    H238823   5.680   6.836   3.258
12960TIP3   OH238824   1.933   6.188   1.612
12960TIP3    H138825   1.978   6.273   1.603
12960TIP3    H238826   1.841   6.211   1.622
12961TIP3   OH238827   6.193   1.453   0.315
12961TIP3    H138828   6.125   1.461   0.248
12961TIP3    H238829   6.269   1.418   0.268
12962TIP3   OH238830   7.023   5.340   3.733
12962TIP3    H138831   6.935   5.373   3.751
12962TIP3    H238832   7.032   5.264   3.791
12963TIP3   OH238833   0.930   0.088   5.369
12963TIP3    H138834   0.896   0.027   5.304
12963TIP3    H238835   0.863   0.091   5.437
12964TIP3   OH238836   8.290   3.449   3.167
12964TIP3    H138837   8.205   3.470   3.205
12964TIP3    H238838   8.307   3.520   3.105
12965TIP3   OH238839   7.752   4.558   4.362
12965TIP3    H138840   7.787   4.491   4.303
12965TIP3    H238841   7.701   4.509   4.427
12966TIP3   OH238842   3.544   0.611   2.963
12966TIP3    H138843   3.474   0.637   2.903
12966TIP3    H238844   3.611   0.573   2.906
12967TIP3   OH238845   1.727   4.891   4.646
12967TIP3    H138846   1.686   4.812   4.681
12967TIP3    H238847   1.769   4.863   4.565
12968TIP3   OH238848   4.651   5.714   4.891
12968TIP3    H138849   4.615   5.655   4.957
12968TIP3    H238850   4.584   5.780   4.878
12969TIP3   OH238851   0.590   7.657   3.187
12969TIP3    H138852   0.684   7.673   3.200
12969TIP3    H238853   0.573   7.575   3.233
12970TIP3   OH238854   2.878   5.807   2.216
12970TIP3    H138855   2.877   5.751   2.294
12970TIP3    H238856   2.930   5.758   2.153
12971TIP3   OH238857   1.877   2.911   5.476
12971TIP3    H138858   1.876   2.854   5.400
12971TIP3    H238859   1.832   2.990   5.448
12972TIP3   OH238860   2.118   3.326   6.048
12972TIP3    H138861   2.214   3.324   6.055
12972TIP3    H238862   2.092   3.235   6.065
12973TIP3   OH238863   1.832   3.924   0.464
12973TIP3    H138864   1.739   3.932   0.483
12973TIP3    H238865   1.871   4.004   0.499
12974TIP3   OH238866   7.004   5.752   0.946
12974TIP3    H138867   7.036   5.662   0.947
12974TIP3    H238868   7.007   5.777   0.854
12975TIP3   OH238869   7.123   5.526   0.462
12975TIP3    H138870   7.168   5.597   0.508
12975TIP3    H238871   7.053   5.500   0.522
12976TIP3   OH238872   4.979   1.066   5.550
12976TIP3    H138873   4.891   1.102   5.546
12976TIP3    H238874   5.036   1.137   5.518
12977TIP3   OH238875   5.574   1.043   3.877
12977TIP3    H138876   5.566   1.138   3.881
12977TIP3    H238877   5.650   1.022   3.931
12978TIP3   OH238878   3.525   5.429   6.509
12978TIP3    H138879   3.497   5.339   6.522
12978TIP3    H238880   3.556   5.432   6.419
12979TIP3   OH238881   1.667   5.326   5.566
12979TIP3    H138882   1.682   5.233   5.580
12979TIP3    H238883   1.744   5.369   5.605
12980TIP3   OH238884   4.408   0.928   6.043
12980TIP3    H138885   4.313   0.936   6.053
12980TIP3    H238886   4.432   0.860   6.106
12981TIP3   OH238887   1.514   3.754   5.605
12981TIP3    H138888   1.596   3.803   5.612
12981TIP3    H238889   1.489   3.761   5.513
12982TIP3   OH238890   7.196   0.603   0.945
12982TIP3    H138891   7.279   0.585   0.900
12982TIP3    H238892   7.202   0.555   1.027
12983TIP3   OH238893   3.873   1.303   1.827
12983TIP3    H138894   3.919   1.239   1.881
12983TIP3    H238895   3.942   1.347   1.777
12984TIP3   OH238896   3.289   3.850   2.878
12984TIP3    H138897   3.294   3.926   2.936
12984TIP3    H238898   3.217   3.798   2.912
12985TIP3   OH238899   4.013   2.754   0.797
12985TIP3    H138900   3.951   2.688   0.766
12985TIP3    H238901   4.036   2.804   0.719
12986TIP3   OH238902   6.080   1.615   4.027
12986TIP3    H138903   6.089   1.584   4.117
12986TIP3    H238904   6.065   1.709   4.035
12987TIP3   OH238905   2.799   2.066   6.090
12987TIP3    H138906   2.776   1.981   6.127
12987TIP3    H238907   2.883   2.052   6.046
12988TIP3   OH238908   0.231   3.337   5.060
12988TIP3    H138909   0.165   3.284   5.104
12988TIP3    H238910   0.244   3.293   4.976
12989TIP3   OH238911   3.330   1.529   0.274
12989TIP3    H138912   3.369   1.490   0.352
12989TIP3    H238913   3.393   1.510   0.204
12990TIP3   OH238914   0.059   1.148   1.679
12990TIP3    H138915  -0.032   1.121   1.684
12990TIP3    H238916   0.068   1.217   1.744
12991TIP3   OH238917   1.868   7.238   5.181
12991TIP3    H138918   1.882   7.144   5.165
12991TIP3    H238919   1.892   7.251   5.272
12992TIP3   OH238920   7.858   0.516   3.427
12992TIP3    H138921   7.808   0.435   3.443
12992TIP3    H238922   7.792   0.585   3.428
12993TIP3   OH238923   3.949   3.881   0.173
12993TIP3    H138924   3.935   3.796   0.130
12993TIP3    H238925   3.883   3.939   0.134
12994TIP3   OH238926   0.065   1.866   4.899
12994TIP3    H138927   0.158   1.881   4.885
12994TIP3    H238928   0.024   1.951   4.880
12995TIP3   OH238929   1.991   3.041   0.938
12995TIP3    H138930   1.999   3.064   0.845
12995TIP3    H238931   2.080   3.020   0.965
12996TIP3   OH238932   2.407   1.993   4.966
12996TIP3    H138933   2.359   1.996   4.883
12996TIP3    H238934   2.359   2.053   5.023
12997TIP3   OH238935   5.763   6.451   3.395
12997TIP3    H138936   5.685   6.424   3.346
12997TIP3    H238937   5.732   6.520   3.454
12998TIP3   OH238938   1.850   6.780   4.387
12998TIP3    H138939   1.796   6.829   4.449
12998TIP3    H238940   1.844   6.689   4.416
12999TIP3   OH238941   3.876   1.774   3.194
12999TIP3    H138942   3.796   1.782   3.245
12999TIP3    H238943   3.874   1.848   3.134
13000TIP3   OH238944   0.063   3.491   5.677
13000TIP3    H138945  -0.004   3.538   5.627
13000TIP3    H238946   0.018   3.415   5.713
13001TIP3   OH238947   8.083   4.868   0.109
13001TIP3    H138948   8.109   4.885   0.018
13001TIP3    H238949   8.021   4.938   0.130
13002TIP3   OH238950   5.828   0.959   5.641
13002TIP3    H138951   5.879   1.008   5.706
13002TIP3    H238952   5.740   0.955   5.679
13003TIP3   OH238953   5.659   2.686   5.890
13003TIP3    H138954   5.604   2.689   5.811
13003TIP3    H238955   5.700   2.599   5.887
13004TIP3   OH238956   7.257   5.166   4.103
13004TIP3    H138957   7.315   5.105   4.148
13004TIP3    H238958   7.313   5.210   4.040
13005TIP3   OH238959   2.342   5.116   6.681
13005TIP3    H138960   2.279   5.075   6.741
13005TIP3    H238961   2.287   5.148   6.609
13006TIP3   OH238962   3.960   6.340   0.972
13006TIP3    H138963   3.986   6.422   0.929
13006TIP3    H238964   3.962   6.361   1.066
13007TIP3   OH238965   6.123   6.430   5.531
13007TIP3    H138966   6.179   6.506   5.546
13007TIP3    H238967   6.168   6.380   5.463
13008TIP3   OH238968   6.889   7.640   2.364
13008TIP3    H138969   6.930   7.715   2.322
13008TIP3    H238970   6.931   7.635   2.450
13009TIP3   OH238971   3.395   0.387   2.878
13009TIP3    H138972   3.388   0.380   2.973
13009TIP3    H238973   3.354   0.471   2.856
13010TIP3   OH238974   5.919   5.415   2.368
13010TIP3    H138975   5.905   5.332   2.321
13010TIP3    H238976   5.947   5.476   2.300
13011TIP3   OH238977   7.591   6.857   4.798
13011TIP3    H138978   7.500   6.874   4.772
13011TIP3    H238979   7.643   6.916   4.743
13012TIP3   OH238980   6.015   6.961   1.235
13012TIP3    H138981   6.106   6.990   1.248
13012TIP3    H238982   6.021   6.866   1.227
13013TIP3   OH238983   3.308   2.165   0.351
13013TIP3    H138984   3.242   2.140   0.415
13013TIP3    H238985   3.278   2.125   0.269
13014TIP3   OH238986   7.868   3.915   1.360
13014TIP3    H138987   7.889   4.001   1.323
13014TIP3    H238988   7.854   3.859   1.284
13015TIP3   OH238989   5.911   1.475   3.864
13015TIP3    H138990   5.895   1.400   3.920
13015TIP3    H238991   5.968   1.532   3.915
13016TIP3   OH238992   1.962   3.234   5.642
13016TIP3    H138993   2.048   3.194   5.658
13016TIP3    H238994   1.955   3.302   5.709
13017TIP3   OH238995   1.125   0.790   5.208
13017TIP3    H138996   1.043   0.824   5.171
13017TIP3    H238997   1.161   0.735   5.139
13018TIP3   OH238998   0.095   7.768   3.368
13018TIP3    H138999   0.116   7.857   3.395
13018TIP3    H239000   0.180   7.723   3.367
13019TIP3   OH239001   2.967   0.447   3.896
13019TIP3    H139002   3.028   0.510   3.857
13019TIP3    H239003   2.926   0.494   3.968
13020TIP3   OH239004   7.755   7.308   1.149
13020TIP3    H139005   7.840   7.352   1.139
13020TIP3    H239006   7.753   7.243   1.079
13021TIP3   OH239007   2.954   5.392   1.107
13021TIP3    H139008   2.884   5.367   1.047
13021TIP3    H239009   3.025   5.422   1.051
13022TIP3   OH239010   2.784   6.925   6.561
13022TIP3    H139011   2.807   6.969   6.480
13022TIP3    H239012   2.742   6.993   6.614
13023TIP3   OH239013   1.712   3.052   5.311
13023TIP3    H139014   1.644   3.117   5.294
13023TIP3    H239015   1.692   2.979   5.252
13024TIP3   OH239016   6.186   3.502   4.651
13024TIP3    H139017   6.113   3.458   4.694
13024TIP3    H239018   6.176   3.481   4.559
13025TIP3   OH239019   3.697   3.467   0.092
13025TIP3    H139020   3.626   3.477   0.028
13025TIP3    H239021   3.654   3.473   0.177
13026TIP3   OH239022   2.107   7.750   3.461
13026TIP3    H139023   2.120   7.743   3.556
13026TIP3    H239024   2.195   7.767   3.427
13027TIP3   OH239025   0.855   7.373   6.577
13027TIP3    H139026   0.906   7.400   6.652
13027TIP3    H239027   0.768   7.411   6.592
13028TIP3   OH239028   3.711   3.350   1.800
13028TIP3    H139029   3.789   3.401   1.780
13028TIP3    H239030   3.725   3.318   1.889
13029TIP3   OH239031   6.440   2.993   3.562
13029TIP3    H139032   6.460   3.087   3.566
13029TIP3    H239033   6.481   2.957   3.641
13030TIP3   OH239034   7.623   2.731   2.930
13030TIP3    H139035   7.654   2.724   2.839
13030TIP3    H239036   7.537   2.690   2.928
13031TIP3   OH239037   3.645   7.093   2.134
13031TIP3    H139038   3.577   7.038   2.095
13031TIP3    H239039   3.725   7.041   2.126
13032TIP3   OH239040   2.608   0.470   6.522
13032TIP3    H139041   2.565   0.467   6.436
13032TIP3    H239042   2.540   0.446   6.584
13033TIP3   OH239043   2.687   3.129   4.239
13033TIP3    H139044   2.709   3.209   4.287
13033TIP3    H239045   2.628   3.081   4.297
13034TIP3   OH239046   7.689   2.333   5.392
13034TIP3    H139047   7.609   2.382   5.410
13034TIP3    H239048   7.753   2.369   5.453
13035TIP3   OH239049   1.212   5.573   6.472
13035TIP3    H139050   1.261   5.645   6.432
13035TIP3    H239051   1.252   5.494   6.438
13036TIP3   OH239052   4.749   6.204   3.615
13036TIP3    H139053   4.765   6.148   3.539
13036TIP3    H239054   4.820   6.184   3.676
13037TIP3   OH239055   6.052   4.791   0.774
13037TIP3    H139056   6.051   4.855   0.845
13037TIP3    H239057   6.064   4.707   0.818
13038TIP3   OH239058   6.658   0.911   0.409
13038TIP3    H139059   6.675   0.848   0.479
13038TIP3    H239060   6.743   0.950   0.390
13039TIP3   OH239061   5.717   1.428   5.149
13039TIP3    H139062   5.691   1.353   5.203
13039TIP3    H239063   5.635   1.466   5.118
13040TIP3   OH239064   3.360   1.033   2.438
13040TIP3    H139065   3.318   0.964   2.388
13040TIP3    H239066   3.368   0.997   2.527
13041TIP3   OH239067   6.231   3.046   2.743
13041TIP3    H139068   6.183   3.110   2.796
13041TIP3    H239069   6.193   3.053   2.656
13042TIP3   OH239070   5.698   1.857   5.872
13042TIP3    H139071   5.709   1.918   5.945
13042TIP3    H239072   5.756   1.784   5.893
13043TIP3   OH239073   7.929   3.953   5.120
13043TIP3    H139074   7.998   3.911   5.067
13043TIP3    H239075   7.976   4.014   5.176
13044TIP3   OH239076   2.456   1.524   6.032
13044TIP3    H139077   2.374   1.555   5.992
13044TIP3    H239078   2.433   1.439   6.070
13045TIP3   OH239079   7.656   2.251   1.336
13045TIP3    H139080   7.649   2.304   1.415
13045TIP3    H239081   7.748   2.258   1.311
13046TIP3   OH239082   7.852   4.216   2.672
13046TIP3    H139083   7.887   4.251   2.754
13046TIP3    H239084   7.796   4.143   2.699
13047TIP3   OH239085   2.353   2.245   0.157
13047TIP3    H139086   2.398   2.161   0.147
13047TIP3    H239087   2.287   2.229   0.224
13048TIP3   OH239088   0.489   7.288   0.777
13048TIP3    H139089   0.513   7.370   0.820
13048TIP3    H239090   0.569   7.236   0.781
13049TIP3   OH239091   1.219   4.206   0.181
13049TIP3    H139092   1.134   4.165   0.167
13049TIP3    H239093   1.278   4.160   0.121
13050TIP3   OH239094   6.136   1.961   4.610
13050TIP3    H139095   6.212   2.014   4.585
13050TIP3    H239096   6.167   1.909   4.684
13051TIP3   OH239097   7.321   3.861   2.084
13051TIP3    H139098   7.249   3.837   2.026
13051TIP3    H239099   7.373   3.780   2.092
13052TIP3   OH239100   7.796   0.860   2.627
13052TIP3    H139101   7.833   0.789   2.574
13052TIP3    H239102   7.717   0.822   2.666
13053TIP3   OH239103   3.645   4.805   4.335
13053TIP3    H139104   3.718   4.771   4.387
13053TIP3    H239105   3.575   4.820   4.398
13054TIP3   OH239106   4.426   1.051   1.495
13054TIP3    H139107   4.455   1.055   1.587
13054TIP3    H239108   4.330   1.049   1.501
13055TIP3   OH239109   0.599   2.565   2.863
13055TIP3    H139110   0.544   2.519   2.799
13055TIP3    H239111   0.574   2.528   2.947
13056TIP3   OH239112   5.229   4.150   0.868
13056TIP3    H139113   5.136   4.171   0.864
13056TIP3    H239114   5.255   4.141   0.776
13057TIP3   OH239115   0.415   1.165   4.230
13057TIP3    H139116   0.373   1.248   4.252
13057TIP3    H239117   0.365   1.099   4.277
13058TIP3   OH239118   0.759   1.745   2.096
13058TIP3    H139119   0.750   1.653   2.074
13058TIP3    H239120   0.669   1.777   2.104
13059TIP3   OH239121   6.013   1.356   5.094
13059TIP3    H139122   5.936   1.312   5.129
13059TIP3    H239123   6.079   1.287   5.086
13060TIP3   OH239124   2.458   7.721   0.885
13060TIP3    H139125   2.453   7.653   0.818
13060TIP3    H239126   2.411   7.684   0.959
13061TIP3   OH239127   4.793   3.572   2.524
13061TIP3    H139128   4.786   3.591   2.617
13061TIP3    H239129   4.743   3.491   2.512
13062TIP3   OH239130   6.643   2.603   3.060
13062TIP3    H139131   6.576   2.565   3.118
13062TIP3    H239132   6.625   2.564   2.975
13063TIP3   OH239133   3.935   4.646   2.730
13063TIP3    H139134   3.871   4.646   2.659
13063TIP3    H239135   3.885   4.674   2.807
13064TIP3   OH239136   6.709   1.375   5.174
13064TIP3    H139137   6.685   1.324   5.252
13064TIP3    H239138   6.798   1.345   5.153
13065TIP3   OH239139   6.674   3.856   2.136
13065TIP3    H139140   6.673   3.939   2.089
13065TIP3    H239141   6.596   3.859   2.192
13066TIP3   OH239142   7.997   1.447   2.559
13066TIP3    H139143   8.081   1.403   2.547
13066TIP3    H239144   7.935   1.393   2.509
13067TIP3   OH239145   7.412   4.812   5.713
13067TIP3    H139146   7.363   4.821   5.631
13067TIP3    H239147   7.457   4.728   5.706
13068TIP3   OH239148   5.176   1.606   1.466
13068TIP3    H139149   5.133   1.674   1.413
13068TIP3    H239150   5.109   1.538   1.475
13069TIP3   OH239151   3.304   4.582   5.140
13069TIP3    H139152   3.336   4.492   5.151
13069TIP3    H239153   3.217   4.581   5.179
13070TIP3   OH239154   7.857   5.467   5.772
13070TIP3    H139155   7.837   5.446   5.681
13070TIP3    H239156   7.790   5.532   5.797
13071TIP3   OH239157   0.715   6.957   0.093
13071TIP3    H139158   0.759   6.899   0.031
13071TIP3    H239159   0.639   6.906   0.123
13072TIP3   OH239160   3.368   2.871   1.785
13072TIP3    H139161   3.281   2.849   1.751
13072TIP3    H239162   3.428   2.835   1.720
13073TIP3   OH239163   2.155   2.474   5.317
13073TIP3    H139164   2.193   2.482   5.405
13073TIP3    H239165   2.198   2.543   5.266
13074TIP3   OH239166   3.030   3.188   6.154
13074TIP3    H139167   2.959   3.172   6.092
13074TIP3    H239168   3.108   3.152   6.111
13075TIP3   OH239169   6.092   2.838   0.548
13075TIP3    H139170   6.039   2.845   0.627
13075TIP3    H239171   6.035   2.796   0.484
13076TIP3   OH239172   6.409   5.587   3.810
13076TIP3    H139173   6.318   5.562   3.828
13076TIP3    H239174   6.402   5.665   3.755
13077TIP3   OH239175   1.963   3.002   2.178
13077TIP3    H139176   1.942   3.019   2.087
13077TIP3    H239177   1.878   2.986   2.220
13078TIP3   OH239178   3.880   5.616   6.420
13078TIP3    H139179   3.907   5.582   6.506
13078TIP3    H239180   3.847   5.704   6.439
13079TIP3   OH239181   8.172   0.934   6.645
13079TIP3    H139182   8.161   1.020   6.605
13079TIP3    H239183   8.218   0.882   6.578
13080TIP3   OH239184   7.080   3.474   0.440
13080TIP3    H139185   7.029   3.493   0.518
13080TIP3    H239186   7.015   3.447   0.375
13081TIP3   OH239187   1.670   7.214   0.566
13081TIP3    H139188   1.650   7.294   0.517
13081TIP3    H239189   1.724   7.243   0.639
13082TIP3   OH239190   5.721   5.336   4.438
13082TIP3    H139191   5.680   5.286   4.508
13082TIP3    H239192   5.691   5.293   4.357
13083TIP3   OH239193   4.924   5.429   1.249
13083TIP3    H139194   4.856   5.497   1.243
13083TIP3    H239195   4.939   5.418   1.343
13084TIP3   OH239196   1.509   7.863   1.489
13084TIP3    H139197   1.421   7.885   1.460
13084TIP3    H239198   1.496   7.802   1.562
13085TIP3   OH239199   6.504   0.971   2.926
13085TIP3    H139200   6.424   1.022   2.932
13085TIP3    H239201   6.566   1.029   2.880
13086TIP3   OH239202   6.388   1.070   4.897
13086TIP3    H139203   6.378   1.012   4.821
13086TIP3    H239204   6.460   1.128   4.873
13087TIP3   OH239205   0.290   5.744   1.881
13087TIP3    H139206   0.330   5.765   1.796
13087TIP3    H239207   0.242   5.823   1.904
13088TIP3   OH239208   1.303   1.081   1.425
13088TIP3    H139209   1.323   1.038   1.341
13088TIP3    H239210   1.313   1.011   1.490
13089TIP3   OH239211   3.693   6.264   3.544
13089TIP3    H139212   3.715   6.338   3.600
13089TIP3    H239213   3.597   6.260   3.546
13090TIP3   OH239214   5.824   1.776   5.579
13090TIP3    H139215   5.806   1.863   5.543
13090TIP3    H239216   5.739   1.734   5.582
13091TIP3   OH239217   4.831   4.828   5.157
13091TIP3    H139218   4.840   4.791   5.244
13091TIP3    H239219   4.760   4.778   5.116
13092TIP3   OH239220   1.735   5.226   3.351
13092TIP3    H139221   1.807   5.267   3.302
13092TIP3    H239222   1.775   5.196   3.432
13093TIP3   OH239223   3.168   3.703   1.311
13093TIP3    H139224   3.156   3.789   1.272
13093TIP3    H239225   3.255   3.706   1.350
13094TIP3   OH239226   1.033   1.188   5.309
13094TIP3    H139227   1.018   1.145   5.224
13094TIP3    H239228   1.079   1.269   5.287
13095TIP3   OH239229   3.478   6.518   2.525
13095TIP3    H139230   3.570   6.526   2.551
13095TIP3    H239231   3.460   6.424   2.527
13096TIP3   OH239232   3.645   4.527   0.363
13096TIP3    H139233   3.706   4.573   0.421
13096TIP3    H239234   3.623   4.447   0.410
13097TIP3   OH239235   4.974   4.939   5.930
13097TIP3    H139236   5.055   4.932   5.880
13097TIP3    H239237   4.968   5.031   5.954
13098TIP3   OH239238   7.696   1.664   4.821
13098TIP3    H139239   7.686   1.646   4.727
13098TIP3    H239240   7.726   1.755   4.824
13099TIP3   OH239241   8.277   1.779   5.536
13099TIP3    H139242   8.350   1.761   5.477
13099TIP3    H239243   8.219   1.836   5.485
13100TIP3   OH239244   3.885   4.491   5.014
13100TIP3    H139245   3.853   4.489   5.104
13100TIP3    H239246   3.819   4.541   4.966
13101TIP3   OH239247   4.683   3.340   3.920
13101TIP3    H139248   4.736   3.390   3.858
13101TIP3    H239249   4.740   3.325   3.995
13102TIP3   OH239250   7.336   5.989   0.873
13102TIP3    H139251   7.410   6.014   0.817
13102TIP3    H239252   7.338   5.894   0.875
13103TIP3   OH239253   5.663   7.379   2.378
13103TIP3    H139254   5.589   7.439   2.372
13103TIP3    H239255   5.633   7.309   2.435
13104TIP3   OH239256   4.965   4.526   2.412
13104TIP3    H139257   5.022   4.461   2.453
13104TIP3    H239258   4.889   4.531   2.471
13105TIP3   OH239259   5.738   6.057   5.033
13105TIP3    H139260   5.748   6.066   5.128
13105TIP3    H239261   5.718   5.964   5.020
13106TIP3   OH239262   1.564   2.947   3.182
13106TIP3    H139263   1.575   2.971   3.274
13106TIP3    H239264   1.653   2.936   3.149
13107TIP3   OH239265   2.348   0.979   4.775
13107TIP3    H139266   2.324   0.984   4.867
13107TIP3    H239267   2.403   1.055   4.760
13108TIP3   OH239268   6.829   5.400   5.568
13108TIP3    H139269   6.784   5.432   5.491
13108TIP3    H239270   6.768   5.337   5.607
13109TIP3   OH239271   8.243   0.296   6.229
13109TIP3    H139272   8.316   0.294   6.168
13109TIP3    H239273   8.168   0.323   6.176
13110TIP3   OH239274   0.214   0.957   4.802
13110TIP3    H139275   0.184   0.875   4.840
13110TIP3    H239276   0.139   1.017   4.812
13111TIP3   OH239277   0.898   1.891   4.273
13111TIP3    H139278   0.812   1.881   4.314
13111TIP3    H239279   0.958   1.848   4.334
13112TIP3   OH239280   3.624   0.224   2.967
13112TIP3    H139281   3.611   0.215   3.061
13112TIP3    H239282   3.561   0.291   2.940
13113TIP3   OH239283   7.160   4.904   2.173
13113TIP3    H139284   7.081   4.925   2.224
13113TIP3    H239285   7.131   4.836   2.112
13114TIP3   OH239286   2.964   1.187   5.867
13114TIP3    H139287   2.957   1.238   5.948
13114TIP3    H239288   3.041   1.223   5.823
13115TIP3   OH239289   4.793   2.834   2.049
13115TIP3    H139290   4.774   2.741   2.059
13115TIP3    H239291   4.736   2.862   1.977
13116TIP3   OH239292   6.646   4.957   3.485
13116TIP3    H139293   6.561   5.001   3.488
13116TIP3    H239294   6.626   4.866   3.507
13117TIP3   OH239295   7.074   6.542   4.046
13117TIP3    H139296   7.124   6.476   3.997
13117TIP3    H239297   7.085   6.517   4.138
13118TIP3   OH239298   4.066   7.179   3.789
13118TIP3    H139299   4.111   7.187   3.705
13118TIP3    H239300   4.072   7.086   3.810
13119TIP3   OH239301   4.079   4.873   6.314
13119TIP3    H139302   4.064   4.966   6.327
13119TIP3    H239303   4.019   4.830   6.375
13120TIP3   OH239304   4.872   1.303   2.413
13120TIP3    H139305   4.890   1.367   2.343
13120TIP3    H239306   4.927   1.332   2.486
13121TIP3   OH239307   4.325   0.578   0.762
13121TIP3    H139308   4.344   0.498   0.713
13121TIP3    H239309   4.390   0.578   0.833
13122TIP3   OH239310   7.245   0.440   2.584
13122TIP3    H139311   7.251   0.521   2.635
13122TIP3    H239312   7.167   0.452   2.530
13123TIP3   OH239313   5.371   4.625   0.021
13123TIP3    H139314   5.318   4.632  -0.058
13123TIP3    H239315   5.446   4.682   0.005
13124TIP3   OH239316   5.561   4.103   0.354
13124TIP3    H139317   5.517   4.150   0.425
13124TIP3    H239318   5.560   4.012   0.381
13125TIP3   OH239319   3.032   2.506   5.408
13125TIP3    H139320   3.009   2.425   5.360
13125TIP3    H239321   3.067   2.475   5.491
13126TIP3   OH239322   5.144   5.985   4.529
13126TIP3    H139323   5.078   5.974   4.596
13126TIP3    H239324   5.123   6.069   4.488
13127TIP3   OH239325   4.955   5.578   4.962
13127TIP3    H139326   4.991   5.666   4.954
13127TIP3    H239327   4.861   5.592   4.977
13128TIP3   OH239328   0.720   0.344   0.757
13128TIP3    H139329   0.726   0.439   0.768
13128TIP3    H239330   0.630   0.328   0.730
13129TIP3   OH239331   7.543   2.938   3.099
13129TIP3    H139332   7.578   2.877   3.034
13129TIP3    H239333   7.515   2.881   3.171
13130TIP3   OH239334   5.363   2.079   0.237
13130TIP3    H139335   5.351   2.039   0.150
13130TIP3    H239336   5.436   2.030   0.275
13131TIP3   OH239337   3.725   6.003   1.694
13131TIP3    H139338   3.716   5.921   1.646
13131TIP3    H239339   3.693   6.070   1.634
13132TIP3   OH239340   2.713   1.600   3.921
13132TIP3    H139341   2.755   1.514   3.920
13132TIP3    H239342   2.756   1.647   3.992
13133TIP3   OH239343   4.036   3.564   0.902
13133TIP3    H139344   4.089   3.642   0.890
13133TIP3    H239345   3.968   3.590   0.964
13134TIP3   OH239346   0.405   6.752   3.912
13134TIP3    H139347   0.421   6.804   3.834
13134TIP3    H239348   0.381   6.817   3.979
13135TIP3   OH239349   3.750   3.071   1.460
13135TIP3    H139350   3.687   3.076   1.532
13135TIP3    H239351   3.835   3.086   1.500
13136TIP3   OH239352   1.816   3.636   2.671
13136TIP3    H139353   1.814   3.729   2.648
13136TIP3    H239354   1.725   3.612   2.686
13137TIP3   OH239355   0.230   3.001   5.047
13137TIP3    H139356   0.154   3.033   5.095
13137TIP3    H239357   0.220   2.906   5.047
13138TIP3   OH239358   2.726   7.787   0.842
13138TIP3    H139359   2.748   7.848   0.913
13138TIP3    H239360   2.632   7.772   0.852
13139TIP3   OH239361   2.212   5.134   0.185
13139TIP3    H139362   2.196   5.194   0.113
13139TIP3    H239363   2.251   5.187   0.254
13140TIP3   OH239364   0.830   1.771   3.529
13140TIP3    H139365   0.861   1.840   3.470
13140TIP3    H239366   0.774   1.716   3.474
13141TIP3   OH239367   8.271   4.994   0.992
13141TIP3    H139368   8.185   5.035   0.993
13141TIP3    H239369   8.316   5.035   0.918
13142TIP3   OH239370   4.704   2.726   6.685
13142TIP3    H139371   4.774   2.662   6.702
13142TIP3    H239372   4.715   2.750   6.593
13143TIP3   OH239373   2.382   3.697   6.316
13143TIP3    H139374   2.410   3.781   6.281
13143TIP3    H239375   2.433   3.632   6.267
13144TIP3   OH239376   0.035   2.529   2.334
13144TIP3    H139377  -0.047   2.486   2.358
13144TIP3    H239378   0.085   2.462   2.289
13145TIP3   OH239379   3.942   4.894   2.322
13145TIP3    H139380   3.913   4.821   2.267
13145TIP3    H239381   3.921   4.972   2.272
13146TIP3   OH239382   6.000   4.370   0.098
13146TIP3    H139383   6.080   4.357   0.148
13146TIP3    H239384   5.957   4.284   0.099
13147TIP3   OH239385   1.878   0.912   0.776
13147TIP3    H139386   1.932   0.989   0.756
13147TIP3    H239387   1.907   0.845   0.714
13148TIP3   OH239388   0.493   3.795   2.360
13148TIP3    H139389   0.459   3.725   2.417
13148TIP3    H239390   0.480   3.761   2.271
13149TIP3   OH239391   4.178   4.790   2.625
13149TIP3    H139392   4.244   4.759   2.686
13149TIP3    H239393   4.102   4.734   2.641
13150TIP3   OH239394   2.024   2.898   5.171
13150TIP3    H139395   1.957   2.834   5.192
13150TIP3    H239396   1.976   2.977   5.145
13151TIP3   OH239397   1.271   3.453   1.776
13151TIP3    H139398   1.324   3.529   1.798
13151TIP3    H239399   1.265   3.455   1.680
13152TIP3   OH239400   1.816   2.387   0.892
13152TIP3    H139401   1.735   2.434   0.871
13152TIP3    H239402   1.788   2.297   0.905
13153TIP3   OH239403   4.637   3.032   2.191
13153TIP3    H139404   4.696   3.056   2.262
13153TIP3    H239405   4.683   2.962   2.144
13154TIP3   OH239406   8.103   1.071   3.863
13154TIP3    H139407   8.031   1.063   3.801
13154TIP3    H239408   8.158   1.140   3.828
13155TIP3   OH239409   2.739   1.076   6.422
13155TIP3    H139410   2.811   1.132   6.452
13155TIP3    H239411   2.777   0.988   6.419
13156TIP3   OH239412   4.212   2.416   6.674
13156TIP3    H139413   4.240   2.327   6.697
13156TIP3    H239414   4.124   2.424   6.710
13157TIP3   OH239415   5.696   4.496   1.875
13157TIP3    H139416   5.630   4.521   1.811
13157TIP3    H239417   5.745   4.426   1.831
13158TIP3   OH239418   5.852   0.104   0.890
13158TIP3    H139419   5.871   0.054   0.970
13158TIP3    H239420   5.758   0.093   0.878
13159TIP3   OH239421   0.227   3.210   5.761
13159TIP3    H139422   0.133   3.201   5.775
13159TIP3    H239423   0.240   3.184   5.670
13160TIP3   OH239424   5.899   3.709   4.841
13160TIP3    H139425   5.842   3.708   4.917
13160TIP3    H239426   5.987   3.720   4.877
13161TIP3   OH239427   2.920   0.079   0.159
13161TIP3    H139428   2.860   0.019   0.203
13161TIP3    H239429   2.884   0.089   0.071
13162TIP3   OH239430   5.567   4.719   3.667
13162TIP3    H139431   5.654   4.740   3.631
13162TIP3    H239432   5.576   4.734   3.761
13163TIP3   OH239433   5.115   7.210   4.874
13163TIP3    H139434   5.111   7.287   4.931
13163TIP3    H239435   5.171   7.238   4.801
13164TIP3   OH239436   6.407   2.807   1.750
13164TIP3    H139437   6.323   2.830   1.710
13164TIP3    H239438   6.419   2.714   1.730
13165TIP3   OH239439   2.070   1.784   4.420
13165TIP3    H139440   2.021   1.714   4.465
13165TIP3    H239441   2.159   1.776   4.454
13166TIP3   OH239442   3.456   4.233   1.105
13166TIP3    H139443   3.461   4.312   1.052
13166TIP3    H239444   3.365   4.204   1.097
13167TIP3   OH239445   4.126   4.451   3.472
13167TIP3    H139446   4.200   4.391   3.481
13167TIP3    H239447   4.092   4.461   3.560
13168TIP3   OH239448   7.122   1.234   2.494
13168TIP3    H139449   7.181   1.205   2.425
13168TIP3    H239450   7.167   1.214   2.576
13169TIP3   OH239451   7.655   3.789   2.409
13169TIP3    H139452   7.689   3.761   2.494
13169TIP3    H239453   7.679   3.881   2.403
13170TIP3   OH239454   3.945   1.300   4.526
13170TIP3    H139455   3.997   1.328   4.601
13170TIP3    H239456   3.929   1.207   4.540
13171TIP3   OH239457   1.612   4.112   4.847
13171TIP3    H139458   1.523   4.129   4.816
13171TIP3    H239459   1.603   4.103   4.942
13172TIP3   OH239460   6.217   5.062   0.551
13172TIP3    H139461   6.239   5.154   0.565
13172TIP3    H239462   6.219   5.052   0.456
13173TIP3   OH239463   7.055   3.115   0.803
13173TIP3    H139464   6.989   3.088   0.739
13173TIP3    H239465   7.133   3.132   0.751
13174TIP3   OH239466   4.427   3.516   1.777
13174TIP3    H139467   4.404   3.588   1.835
13174TIP3    H239468   4.404   3.437   1.826
13175TIP3   OH239469   2.454   6.033   4.226
13175TIP3    H139470   2.386   5.969   4.247
13175TIP3    H239471   2.534   5.981   4.218
13176TIP3   OH239472   0.314   5.415   1.947
13176TIP3    H139473   0.270   5.466   2.015
13176TIP3    H239474   0.293   5.460   1.865
13177TIP3   OH239475   0.791   2.152   1.561
13177TIP3    H139476   0.844   2.075   1.538
13177TIP3    H239477   0.848   2.204   1.617
13178TIP3   OH239478   2.486   1.464   0.566
13178TIP3    H139479   2.480   1.437   0.474
13178TIP3    H239480   2.403   1.436   0.604
13179TIP3   OH239481   7.727   6.763   2.477
13179TIP3    H139482   7.815   6.778   2.511
13179TIP3    H239483   7.740   6.725   2.390
13180TIP3   OH239484   3.392   7.677   5.063
13180TIP3    H139485   3.322   7.663   5.000
13180TIP3    H239486   3.383   7.768   5.090
13181TIP3   OH239487   3.695   5.863   4.888
13181TIP3    H139488   3.692   5.851   4.793
13181TIP3    H239489   3.728   5.952   4.900
13182TIP3   OH239490   6.181   1.752   1.100
13182TIP3    H139491   6.168   1.693   1.174
13182TIP3    H239492   6.093   1.783   1.078
13183TIP3   OH239493   0.412   5.265   5.909
13183TIP3    H139494   0.470   5.189   5.904
13183TIP3    H239495   0.408   5.286   6.002
13184TIP3   OH239496   0.563   3.764   4.456
13184TIP3    H139497   0.548   3.699   4.525
13184TIP3    H239498   0.630   3.725   4.401
13185TIP3   OH239499   5.707   1.290   4.719
13185TIP3    H139500   5.641   1.229   4.685
13185TIP3    H239501   5.670   1.376   4.701
13186TIP3   OH239502   4.687   2.246   6.005
13186TIP3    H139503   4.619   2.288   5.952
13186TIP3    H239504   4.703   2.163   5.961
13187TIP3   OH239505   7.943   6.530   4.890
13187TIP3    H139506   8.012   6.593   4.872
13187TIP3    H239507   7.921   6.492   4.805
13188TIP3   OH239508   1.217   3.454   5.983
13188TIP3    H139509   1.156   3.528   5.986
13188TIP3    H239510   1.268   3.468   5.903
13189TIP3   OH239511   4.470   4.943   4.270
13189TIP3    H139512   4.411   4.968   4.342
13189TIP3    H239513   4.523   5.021   4.255
13190TIP3   OH239514   3.127   3.822   4.302
13190TIP3    H139515   3.144   3.735   4.337
13190TIP3    H239516   3.208   3.871   4.318
13191TIP3   OH239517   0.056   4.312   4.844
13191TIP3    H139518   0.106   4.235   4.818
13191TIP3    H239519  -0.035   4.282   4.850
13192TIP3   OH239520   3.186   1.125   0.813
13192TIP3    H139521   3.264   1.111   0.760
13192TIP3    H239522   3.138   1.194   0.768
13193TIP3   OH239523   3.221   3.895   1.642
13193TIP3    H139524   3.232   3.987   1.666
13193TIP3    H239525   3.127   3.886   1.626
13194TIP3   OH239526   1.097   1.180   6.535
13194TIP3    H139527   1.121   1.140   6.452
13194TIP3    H239528   1.003   1.193   6.531
13195TIP3   OH239529   8.241   5.179   5.426
13195TIP3    H139530   8.313   5.133   5.470
13195TIP3    H239531   8.283   5.255   5.385
13196TIP3   OH239532   6.013   7.806   6.307
13196TIP3    H139533   5.939   7.866   6.307
13196TIP3    H239534   6.027   7.785   6.400
13197TIP3   OH239535   6.747   6.666   3.687
13197TIP3    H139536   6.713   6.710   3.765
13197TIP3    H239537   6.670   6.625   3.648
13198TIP3   OH239538   5.508   3.625   4.360
13198TIP3    H139539   5.466   3.688   4.419
13198TIP3    H239540   5.600   3.626   4.387
13199TIP3   OH239541   3.522   5.067   5.997
13199TIP3    H139542   3.431   5.095   6.003
13199TIP3    H239543   3.521   4.995   5.934
13200TIP3   OH239544   2.975   7.587   0.322
13200TIP3    H139545   2.902   7.647   0.304
13200TIP3    H239546   2.997   7.550   0.237
13201TIP3   OH239547   8.247   0.328   4.050
13201TIP3    H139548   8.175   0.267   4.063
13201TIP3    H239549   8.291   0.332   4.135
13202TIP3   OH239550   7.893   3.659   3.087
13202TIP3    H139551   7.823   3.672   3.022
13202TIP3    H239552   7.896   3.742   3.135
13203TIP3   OH239553   0.639   5.752   0.319
13203TIP3    H139554   0.617   5.684   0.382
13203TIP3    H239555   0.646   5.705   0.235
13204TIP3   OH239556   2.121   2.848   3.045
13204TIP3    H139557   2.090   2.936   3.025
13204TIP3    H239558   2.128   2.805   2.960
13205TIP3   OH239559   0.432   1.283   3.406
13205TIP3    H139560   0.423   1.255   3.497
13205TIP3    H239561   0.359   1.242   3.360
13206TIP3   OH239562   1.617   6.573   3.254
13206TIP3    H139563   1.654   6.598   3.170
13206TIP3    H239564   1.560   6.646   3.279
13207TIP3   OH239565   4.015   5.773   3.713
13207TIP3    H139566   4.031   5.751   3.622
13207TIP3    H239567   4.095   5.746   3.759
13208TIP3   OH239568   0.114   2.475   2.624
13208TIP3    H139569   0.043   2.411   2.634
13208TIP3    H239570   0.144   2.463   2.534
13209TIP3   OH239571   7.258   5.052   5.297
13209TIP3    H139572   7.320   5.061   5.225
13209TIP3    H239573   7.279   4.967   5.335
13210TIP3   OH239574   3.749   4.899   3.231
13210TIP3    H139575   3.820   4.841   3.260
13210TIP3    H239576   3.688   4.841   3.185
13211TIP3   OH239577   6.581   2.431   2.795
13211TIP3    H139578   6.514   2.404   2.733
13211TIP3    H239579   6.647   2.475   2.742
13212TIP3   OH239580   7.549   2.056   3.517
13212TIP3    H139581   7.465   2.064   3.563
13212TIP3    H239582   7.584   1.971   3.544
13213TIP3   OH239583   3.078   7.457   0.088
13213TIP3    H139584   3.156   7.402   0.099
13213TIP3    H239585   3.016   7.401   0.042
13214TIP3   OH239586   2.789   2.664   4.513
13214TIP3    H139587   2.868   2.664   4.567
13214TIP3    H239588   2.733   2.598   4.553
13215TIP3   OH239589   0.569   3.784   5.748
13215TIP3    H139590   0.590   3.843   5.819
13215TIP3    H239591   0.480   3.808   5.721
13216TIP3   OH239592   2.525   0.366   1.084
13216TIP3    H139593   2.504   0.390   1.174
13216TIP3    H239594   2.567   0.280   1.092
13217TIP3   OH239595   0.879   6.957   4.388
13217TIP3    H139596   0.836   7.029   4.342
13217TIP3    H239597   0.871   6.882   4.329
13218TIP3   OH239598   4.409   0.502   0.094
13218TIP3    H139599   4.427   0.445   0.168
13218TIP3    H239600   4.435   0.451   0.017
13219TIP3   OH239601   4.425   1.422   2.374
13219TIP3    H139602   4.394   1.435   2.284
13219TIP3    H239603   4.367   1.356   2.410
13220TIP3   OH239604   0.706   0.299   5.877
13220TIP3    H139605   0.667   0.281   5.962
13220TIP3    H239606   0.686   0.391   5.859
13221TIP3   OH239607   0.219   5.285   3.137
13221TIP3    H139608   0.185   5.280   3.227
13221TIP3    H239609   0.149   5.249   3.083
13222TIP3   OH239610   8.013   3.016   4.622
13222TIP3    H139611   7.980   2.957   4.690
13222TIP3    H239612   8.099   2.981   4.600
13223TIP3   OH239613   8.111   6.534   2.650
13223TIP3    H139614   8.173   6.461   2.657
13223TIP3    H239615   8.120   6.580   2.734
13224TIP3   OH239616   0.199   1.996   1.289
13224TIP3    H139617   0.149   2.004   1.370
13224TIP3    H239618   0.137   2.017   1.220
13225TIP3   OH239619   4.695   1.744   2.314
13225TIP3    H139620   4.729   1.808   2.377
13225TIP3    H239621   4.601   1.745   2.328
13226TIP3   OH239622   1.408   0.984   0.268
13226TIP3    H139623   1.318   0.952   0.275
13226TIP3    H239624   1.406   1.049   0.199
13227TIP3   OH239625   4.290   0.245   5.925
13227TIP3    H139626   4.375   0.202   5.932
13227TIP3    H239627   4.309   0.338   5.937
13228TIP3   OH239628   0.208   5.675   5.283
13228TIP3    H139629   0.155   5.728   5.343
13228TIP3    H239630   0.284   5.730   5.264
13229TIP3   OH239631   2.008   3.648   1.882
13229TIP3    H139632   1.991   3.557   1.858
13229TIP3    H239633   2.078   3.677   1.824
13230TIP3   OH239634   3.321   6.731   2.956
13230TIP3    H139635   3.278   6.778   2.884
13230TIP3    H239636   3.252   6.715   3.019
13231TIP3   OH239637   4.594   5.084   6.081
13231TIP3    H139638   4.542   5.018   6.035
13231TIP3    H239639   4.643   5.035   6.146
13232TIP3   OH239640   3.288   3.980   5.316
13232TIP3    H139641   3.230   4.051   5.343
13232TIP3    H239642   3.348   3.968   5.390
13233TIP3   OH239643   0.849   0.810   4.740
13233TIP3    H139644   0.772   0.860   4.769
13233TIP3    H239645   0.890   0.867   4.675
13234TIP3   OH239646   2.436   6.855   4.830
13234TIP3    H139647   2.409   6.917   4.762
13234TIP3    H239648   2.529   6.839   4.812
13235TIP3   OH239649   5.575   4.029   5.472
13235TIP3    H139650   5.539   4.004   5.558
13235TIP3    H239651   5.514   3.990   5.409
13236TIP3   OH239652   4.694   2.315   6.802
13236TIP3    H139653   4.680   2.403   6.837
13236TIP3    H239654   4.629   2.306   6.732
13237TIP3   OH239655   8.112   0.687   0.231
13237TIP3    H139656   8.093   0.601   0.195
13237TIP3    H239657   8.165   0.670   0.308
13238TIP3   OH239658   6.316   6.903   3.908
13238TIP3    H139659   6.333   6.810   3.924
13238TIP3    H239660   6.304   6.908   3.813
13239TIP3   OH239661   3.936   5.300   4.798
13239TIP3    H139662   3.910   5.216   4.759
13239TIP3    H239663   3.973   5.277   4.883
13240TIP3   OH239664   7.561   0.822   3.913
13240TIP3    H139665   7.611   0.825   3.832
13240TIP3    H239666   7.626   0.830   3.982
13241TIP3   OH239667   7.744   2.567   3.157
13241TIP3    H139668   7.691   2.522   3.222
13241TIP3    H239669   7.680   2.616   3.105
13242TIP3   OH239670   8.228   5.644   6.312
13242TIP3    H139671   8.313   5.642   6.355
13242TIP3    H239672   8.249   5.642   6.218
13243TIP3   OH239673   0.107   2.526   3.148
13243TIP3    H139674   0.133   2.501   3.059
13243TIP3    H239675   0.148   2.460   3.204
13244TIP3   OH239676   3.986   1.524   6.525
13244TIP3    H139677   3.910   1.538   6.469
13244TIP3    H239678   3.968   1.441   6.570
13245TIP3   OH239679   0.693   4.063   0.242
13245TIP3    H139680   0.773   4.044   0.194
13245TIP3    H239681   0.721   4.071   0.334
13246TIP3   OH239682   5.090   1.571   0.672
13246TIP3    H139683   5.060   1.484   0.698
13246TIP3    H239684   5.155   1.555   0.604
13247TIP3   OH239685   5.537   5.636   0.223
13247TIP3    H139686   5.580   5.641   0.137
13247TIP3    H239687   5.445   5.622   0.202
13248TIP3   OH239688   3.962   0.067   2.389
13248TIP3    H139689   3.939   0.157   2.365
13248TIP3    H239690   3.884   0.033   2.432
13249TIP3   OH239691   6.058   0.325   1.579
13249TIP3    H139692   6.033   0.386   1.509
13249TIP3    H239693   6.059   0.240   1.536
13250TIP3   OH239694   6.512   7.108   3.972
13250TIP3    H139695   6.578   7.050   4.011
13250TIP3    H239696   6.456   7.050   3.920
13251TIP3   OH239697   1.760   6.606   2.234
13251TIP3    H139698   1.807   6.531   2.272
13251TIP3    H239699   1.808   6.625   2.153
13252TIP3   OH239700   3.683   6.551   0.059
13252TIP3    H139701   3.773   6.580   0.070
13252TIP3    H239702   3.640   6.572   0.142
13253TIP3   OH239703   6.127   7.717   2.251
13253TIP3    H139704   6.160   7.641   2.204
13253TIP3    H239705   6.112   7.686   2.340
13254TIP3   OH239706   7.282   6.333   2.456
13254TIP3    H139707   7.200   6.297   2.421
13254TIP3    H239708   7.257   6.418   2.492
13255TIP3   OH239709   6.556   0.953   6.414
13255TIP3    H139710   6.583   0.991   6.497
13255TIP3    H239711   6.630   0.968   6.355
13256TIP3   OH239712   4.060   4.461   2.910
13256TIP3    H139713   4.078   4.550   2.940
13256TIP3    H239714   4.026   4.472   2.821
13257TIP3   OH239715   7.791   1.159   0.918
13257TIP3    H139716   7.859   1.095   0.940
13257TIP3    H239717   7.837   1.229   0.872
13258TIP3   OH239718   1.892   7.344   2.307
13258TIP3    H139719   1.890   7.256   2.268
13258TIP3    H239720   1.843   7.398   2.245
13259TIP3   OH239721   5.473   3.885   0.523
13259TIP3    H139722   5.420   3.860   0.447
13259TIP3    H239723   5.413   3.878   0.597
13260TIP3   OH239724   7.901   7.233   5.231
13260TIP3    H139725   7.838   7.280   5.176
13260TIP3    H239726   7.849   7.197   5.302
13261TIP3   OH239727   0.602   7.189   4.471
13261TIP3    H139728   0.606   7.158   4.381
13261TIP3    H239729   0.514   7.166   4.500
13262TIP3   OH239730   8.189   3.101   3.784
13262TIP3    H139731   8.164   3.167   3.720
13262TIP3    H239732   8.149   3.020   3.753
13263TIP3   OH239733   6.942   5.438   3.177
13263TIP3    H139734   6.877   5.506   3.159
13263TIP3    H239735   6.893   5.356   3.170
13264TIP3   OH239736   4.505   1.563   0.365
13264TIP3    H139737   4.517   1.530   0.454
13264TIP3    H239738   4.566   1.512   0.312
13265TIP3   OH239739   7.370   6.488   0.122
13265TIP3    H139740   7.293   6.446   0.160
13265TIP3    H239741   7.334   6.564   0.075
13266TIP3   OH239742   5.791   5.509   0.793
13266TIP3    H139743   5.707   5.555   0.793
13266TIP3    H239744   5.853   5.571   0.830
13267TIP3   OH239745   7.300   3.021   5.163
13267TIP3    H139746   7.282   3.094   5.222
13267TIP3    H239747   7.222   3.017   5.107
13268TIP3   OH239748   6.214   0.883   1.105
13268TIP3    H139749   6.148   0.829   1.062
13268TIP3    H239750   6.218   0.963   1.052
13269TIP3   OH239751   5.395   1.218   2.108
13269TIP3    H139752   5.327   1.285   2.108
13269TIP3    H239753   5.441   1.230   2.191
13270TIP3   OH239754   3.906   1.923   6.322
13270TIP3    H139755   3.937   1.980   6.392
13270TIP3    H239756   3.890   1.981   6.248
13271TIP3   OH239757   0.559   4.146   1.908
13271TIP3    H139758   0.544   4.052   1.911
13271TIP3    H239759   0.512   4.176   1.831
13272TIP3   OH239760   6.236   1.686   0.435
13272TIP3    H139761   6.231   1.591   0.424
13272TIP3    H239762   6.145   1.715   0.429
13273TIP3   OH239763   5.888   7.418   5.756
13273TIP3    H139764   5.901   7.500   5.802
13273TIP3    H239765   5.839   7.442   5.677
13274TIP3   OH239766   2.912   6.059   5.443
13274TIP3    H139767   2.938   5.998   5.374
13274TIP3    H239768   2.817   6.064   5.437
13275TIP3   OH239769   2.439   3.058   5.575
13275TIP3    H139770   2.494   3.047   5.498
13275TIP3    H239771   2.499   3.082   5.646
13276TIP3   OH239772   4.211   6.637   0.994
13276TIP3    H139773   4.146   6.707   1.003
13276TIP3    H239774   4.239   6.642   0.902
13277TIP3   OH239775   3.825   2.611   4.185
13277TIP3    H139776   3.786   2.525   4.201
13277TIP3    H239777   3.838   2.614   4.090
13278TIP3   OH239778   1.434   3.823   6.370
13278TIP3    H139779   1.397   3.811   6.283
13278TIP3    H239780   1.500   3.754   6.378
13279TIP3   OH239781   0.238   0.180   3.743
13279TIP3    H139782   0.304   0.169   3.811
13279TIP3    H239783   0.181   0.104   3.752
13280TIP3   OH239784   7.530   4.191   0.525
13280TIP3    H139785   7.480   4.260   0.481
13280TIP3    H239786   7.575   4.145   0.454
13281TIP3   OH239787   4.557   3.146   0.743
13281TIP3    H139788   4.475   3.136   0.792
13281TIP3    H239789   4.613   3.198   0.801
13282TIP3   OH239790   4.115   2.744   5.572
13282TIP3    H139791   4.142   2.834   5.590
13282TIP3    H239792   4.196   2.700   5.546
13283TIP3   OH239793   0.983   3.954   6.118
13283TIP3    H139794   1.072   3.925   6.097
13283TIP3    H239795   0.957   3.901   6.193
13284TIP3   OH239796   4.633   4.744   6.644
13284TIP3    H139797   4.726   4.733   6.622
13284TIP3    H239798   4.623   4.838   6.657
13285TIP3   OH239799   0.977   4.375   2.118
13285TIP3    H139800   0.909   4.395   2.053
13285TIP3    H239801   1.054   4.354   2.065
13286TIP3   OH239802   7.519   6.192   2.505
13286TIP3    H139803   7.454   6.249   2.464
13286TIP3    H239804   7.518   6.216   2.597
13287TIP3   OH239805   8.139   0.476   4.671
13287TIP3    H139806   8.052   0.494   4.706
13287TIP3    H239807   8.171   0.401   4.721
13288TIP3   OH239808   5.141   4.945   0.327
13288TIP3    H139809   5.226   4.912   0.296
13288TIP3    H239810   5.125   4.897   0.408
13289TIP3   OH239811   8.260   5.182   2.541
13289TIP3    H139812   8.211   5.148   2.466
13289TIP3    H239813   8.193   5.211   2.603
13290TIP3   OH239814   0.897   6.261   3.072
13290TIP3    H139815   0.832   6.217   3.018
13290TIP3    H239816   0.880   6.354   3.059
13291TIP3   OH239817   2.065   5.234   6.616
13291TIP3    H139818   2.057   5.209   6.708
13291TIP3    H239819   2.008   5.172   6.570
13292TIP3   OH239820   1.178   1.943   0.708
13292TIP3    H139821   1.244   1.988   0.656
13292TIP3    H239822   1.135   1.883   0.647
13293TIP3   OH239823   3.382   0.893   4.148
13293TIP3    H139824   3.364   0.943   4.228
13293TIP3    H239825   3.477   0.879   4.149
13294TIP3   OH239826   6.418   7.368   0.939
13294TIP3    H139827   6.512   7.380   0.943
13294TIP3    H239828   6.405   7.275   0.957
13295TIP3   OH239829   1.857   2.997   6.202
13295TIP3    H139830   1.879   2.969   6.291
13295TIP3    H239831   1.942   3.010   6.160
13296TIP3   OH239832   2.447   5.979   1.588
13296TIP3    H139833   2.454   5.887   1.611
13296TIP3    H239834   2.382   6.015   1.649
13297TIP3   OH239835   4.559   4.864   4.617
13297TIP3    H139836   4.609   4.856   4.535
13297TIP3    H239837   4.475   4.901   4.590
13298TIP3   OH239838   4.317   6.404   4.148
13298TIP3    H139839   4.332   6.394   4.054
13298TIP3    H239840   4.405   6.407   4.186
13299TIP3   OH239841   7.370   3.576   2.090
13299TIP3    H139842   7.420   3.604   2.014
13299TIP3    H239843   7.370   3.481   2.086
13300TIP3   OH239844   5.979   6.001   0.259
13300TIP3    H139845   6.064   5.965   0.284
13300TIP3    H239846   5.992   6.095   0.259
13301TIP3   OH239847   4.139   1.289   3.202
13301TIP3    H139848   4.151   1.200   3.168
13301TIP3    H239849   4.085   1.277   3.280
13302TIP3   OH239850   7.231   6.177   1.471
13302TIP3    H139851   7.237   6.085   1.446
13302TIP3    H239852   7.211   6.222   1.389
13303TIP3   OH239853   3.315   7.305   3.572
13303TIP3    H139854   3.393   7.353   3.543
13303TIP3    H239855   3.244   7.342   3.519
13304TIP3   OH239856   4.602   2.086   5.127
13304TIP3    H139857   4.635   2.043   5.049
13304TIP3    H239858   4.598   2.018   5.194
13305TIP3   OH239859   1.816   7.475   3.687
13305TIP3    H139860   1.763   7.552   3.709
13305TIP3    H239861   1.906   7.504   3.699
13306TIP3   OH239862   0.428   0.535   3.796
13306TIP3    H139863   0.415   0.575   3.710
13306TIP3    H239864   0.370   0.583   3.854
13307TIP3   OH239865   2.064   4.037   1.330
13307TIP3    H139866   2.145   4.078   1.300
13307TIP3    H239867   2.086   4.000   1.415
13308TIP3   OH239868   6.218   6.004   6.304
13308TIP3    H139869   6.270   6.036   6.231
13308TIP3    H239870   6.172   5.928   6.269
13309TIP3   OH239871   6.833   5.213   6.290
13309TIP3    H139872   6.912   5.166   6.262
13309TIP3    H239873   6.852   5.305   6.272
13310TIP3   OH239874   2.064   0.042   2.188
13310TIP3    H139875   2.062  -0.037   2.134
13310TIP3    H239876   1.975   0.077   2.182
13311TIP3   OH239877   4.329   1.586   4.832
13311TIP3    H139878   4.396   1.527   4.867
13311TIP3    H239879   4.346   1.670   4.876
13312TIP3   OH239880   0.505   2.280   4.838
13312TIP3    H139881   0.589   2.236   4.843
13312TIP3    H239882   0.460   2.239   4.765
13313TIP3   OH239883   2.996   4.096   6.046
13313TIP3    H139884   2.965   4.046   5.971
13313TIP3    H239885   2.998   4.186   6.016
13314TIP3   OH239886   2.520   0.746   4.893
13314TIP3    H139887   2.429   0.723   4.871
13314TIP3    H239888   2.570   0.718   4.817
13315TIP3   OH239889   5.939   5.646   1.308
13315TIP3    H139890   5.990   5.576   1.267
13315TIP3    H239891   5.855   5.606   1.328
13316TIP3   OH239892   4.455   2.204   3.868
13316TIP3    H139893   4.398   2.127   3.867
13316TIP3    H239894   4.491   2.208   3.779
13317TIP3   OH239895   3.412   2.923   1.068
13317TIP3    H139896   3.475   2.881   1.009
13317TIP3    H239897   3.395   3.008   1.028
13318TIP3   OH239898   0.084   5.364   1.567
13318TIP3    H139899   0.022   5.330   1.502
13318TIP3    H239900   0.142   5.290   1.585
13319TIP3   OH239901   1.330   1.909   5.447
13319TIP3    H139902   1.276   1.981   5.481
13319TIP3    H239903   1.357   1.861   5.525
13320TIP3   OH239904   5.609   4.113   6.694
13320TIP3    H139905   5.603   4.111   6.599
13320TIP3    H239906   5.696   4.147   6.712
13321TIP3   OH239907   5.894   2.667   5.446
13321TIP3    H139908   5.903   2.585   5.494
13321TIP3    H239909   5.982   2.705   5.447
13322TIP3   OH239910   3.520   6.892   0.059
13322TIP3    H139911   3.502   6.813   0.110
13322TIP3    H239912   3.596   6.931   0.103
13323TIP3   OH239913   0.313   6.984   0.454
13323TIP3    H139914   0.293   6.953   0.542
13323TIP3    H239915   0.274   7.071   0.450
13324TIP3   OH239916   3.819   4.772   2.129
13324TIP3    H139917   3.862   4.784   2.045
13324TIP3    H239918   3.726   4.767   2.108
13325TIP3   OH239919   3.761   5.118   2.573
13325TIP3    H139920   3.813   5.048   2.536
13325TIP3    H239921   3.789   5.123   2.665
13326TIP3   OH239922   5.946   1.049   2.674
13326TIP3    H139923   5.981   1.039   2.763
13326TIP3    H239924   5.882   0.979   2.665
13327TIP3   OH239925   6.302   3.806   1.504
13327TIP3    H139926   6.305   3.719   1.545
13327TIP3    H239927   6.274   3.789   1.414
13328TIP3   OH239928   2.026   2.230   0.628
13328TIP3    H139929   2.038   2.260   0.718
13328TIP3    H239930   2.083   2.154   0.620
13329TIP3   OH239931   1.725   0.853   6.674
13329TIP3    H139932   1.734   0.794   6.599
13329TIP3    H239933   1.801   0.834   6.729
13330TIP3   OH239934   6.362   4.444   5.807
13330TIP3    H139935   6.320   4.467   5.724
13330TIP3    H239936   6.445   4.404   5.782
13331TIP3   OH239937   1.719   6.602   3.548
13331TIP3    H139938   1.703   6.534   3.482
13331TIP3    H239939   1.738   6.681   3.498
13332TIP3   OH239940   0.816   2.462   0.070
13332TIP3    H139941   0.836   2.444   0.161
13332TIP3    H239942   0.786   2.378   0.034
13333TIP3   OH239943   1.207   1.558   5.745
13333TIP3    H139944   1.172   1.631   5.694
13333TIP3    H239945   1.143   1.487   5.733
13334TIP3   OH239946   4.079   7.201   5.806
13334TIP3    H139947   4.123   7.251   5.738
13334TIP3    H239948   4.028   7.135   5.759
13335TIP3   OH239949   2.676   3.451   4.081
13335TIP3    H139950   2.629   3.382   4.033
13335TIP3    H239951   2.765   3.448   4.045
13336TIP3   OH239952   7.941   2.174   2.499
13336TIP3    H139953   7.899   2.090   2.483
13336TIP3    H239954   7.873   2.227   2.541
13337TIP3   OH239955   3.933   1.839   0.359
13337TIP3    H139956   3.966   1.838   0.269
13337TIP3    H239957   3.940   1.930   0.386
13338TIP3   OH239958   4.616   0.786   0.921
13338TIP3    H139959   4.632   0.735   1.000
13338TIP3    H239960   4.652   0.873   0.940
13339TIP3   OH239961   3.559   4.808   3.037
13339TIP3    H139962   3.564   4.902   3.055
13339TIP3    H239963   3.467   4.792   3.019
13340TIP3   OH239964   7.405   5.429   0.089
13340TIP3    H139965   7.362   5.514   0.077
13340TIP3    H239966   7.360   5.389   0.164
13341TIP3   OH239967   6.105   0.490   3.927
13341TIP3    H139968   6.178   0.546   3.953
13341TIP3    H239969   6.029   0.526   3.972
13342TIP3   OH239970   2.351   6.833   1.775
13342TIP3    H139971   2.446   6.824   1.786
13342TIP3    H239972   2.314   6.761   1.825
13343TIP3   OH239973   4.959   7.258   3.923
13343TIP3    H139974   4.982   7.298   3.839
13343TIP3    H239975   5.029   7.286   3.983
13344TIP3   OH239976   6.839   5.343   1.260
13344TIP3    H139977   6.879   5.416   1.307
13344TIP3    H239978   6.752   5.375   1.234
13345TIP3   OH239979   7.249   1.741   4.560
13345TIP3    H139980   7.282   1.687   4.488
13345TIP3    H239981   7.292   1.826   4.548
13346TIP3   OH239982   6.832   1.106   2.326
13346TIP3    H139983   6.836   1.201   2.338
13346TIP3    H239984   6.761   1.094   2.263
13347TIP3   OH239985   4.215   4.752   6.099
13347TIP3    H139986   4.170   4.798   6.170
13347TIP3    H239987   4.304   4.739   6.131
13348TIP3   OH239988   4.221   5.782   2.347
13348TIP3    H139989   4.147   5.841   2.363
13348TIP3    H239990   4.180   5.701   2.317
13349TIP3   OH239991   2.815   4.360   2.111
13349TIP3    H139992   2.851   4.416   2.042
13349TIP3    H239993   2.765   4.419   2.167
13350TIP3   OH239994   1.404   5.452   0.960
13350TIP3    H139995   1.341   5.384   0.985
13350TIP3    H239996   1.447   5.418   0.882
13351TIP3   OH239997   6.109   5.819   3.591
13351TIP3    H139998   6.115   5.854   3.680
13351TIP3    H239999   6.149   5.885   3.536
13352TIP3   OH240000   2.394   5.770   3.947
13352TIP3    H140001   2.373   5.840   3.886
13352TIP3    H240002   2.477   5.797   3.987
13353TIP3   OH240003   1.969   5.901   0.904
13353TIP3    H140004   1.969   5.848   0.824
13353TIP3    H240005   2.061   5.923   0.918
13354TIP3   OH240006   7.971   2.654   6.213
13354TIP3    H140007   7.952   2.564   6.186
13354TIP3    H240008   7.926   2.664   6.297
13355TIP3   OH240009   6.111   7.003   0.906
13355TIP3    H140010   6.093   6.922   0.954
13355TIP3    H240011   6.026   7.046   0.897
13356TIP3   OH240012   8.299   2.041   6.154
13356TIP3    H140013   8.274   2.028   6.062
13356TIP3    H240014   8.321   1.954   6.185
13357TIP3   OH240015   5.154   5.734   6.122
13357TIP3    H140016   5.162   5.643   6.094
13357TIP3    H240017   5.105   5.777   6.052
13358TIP3   OH240018   3.540   1.112   2.723
13358TIP3    H140019   3.466   1.172   2.732
13358TIP3    H240020   3.510   1.030   2.763
13359TIP3   OH240021   2.564   3.485   3.770
13359TIP3    H140022   2.503   3.425   3.727
13359TIP3    H240023   2.617   3.521   3.698
13360TIP3   OH240024   0.940   3.174   4.046
13360TIP3    H140025   0.890   3.213   3.975
13360TIP3    H240026   0.874   3.138   4.105
13361TIP3   OH240027   2.542   2.775   4.999
13361TIP3    H140028   2.502   2.697   4.961
13361TIP3    H240029   2.559   2.832   4.924
13362TIP3   OH240030   2.002   7.502   6.618
13362TIP3    H140031   1.934   7.566   6.641
13362TIP3    H240032   2.055   7.546   6.552
13363TIP3   OH240033   8.192   1.863   2.198
13363TIP3    H140034   8.208   1.812   2.119
13363TIP3    H240035   8.269   1.847   2.253
13364TIP3   OH240036   5.028   0.925   6.732
13364TIP3    H140037   4.971   0.957   6.662
13364TIP3    H240038   5.115   0.922   6.692
13365TIP3   OH240039   8.097   3.347   5.547
13365TIP3    H140040   8.090   3.331   5.453
13365TIP3    H240041   8.121   3.440   5.554
13366TIP3   OH240042   1.407   0.449   3.432
13366TIP3    H140043   1.442   0.514   3.493
13366TIP3    H240044   1.425   0.365   3.474
13367TIP3   OH240045   0.324   1.473   0.044
13367TIP3    H140046   0.238   1.476   0.085
13367TIP3    H240047   0.386   1.489   0.115
13368TIP3   OH240048   4.444   3.959   0.058
13368TIP3    H140049   4.385   3.965  -0.016
13368TIP3    H240050   4.397   3.905   0.122
13369TIP3   OH240051   3.124   2.986   4.936
13369TIP3    H140052   3.076   2.904   4.928
13369TIP3    H240053   3.058   3.053   4.915
13370TIP3   OH240054   3.032   0.034   2.218
13370TIP3    H140055   3.104  -0.010   2.262
13370TIP3    H240056   2.953  -0.006   2.254
13371TIP3   OH240057   7.942   0.615   2.550
13371TIP3    H140058   7.949   0.581   2.461
13371TIP3    H240059   7.977   0.545   2.605
13372TIP3   OH240060   3.337   2.368   4.694
13372TIP3    H140061   3.246   2.384   4.668
13372TIP3    H240062   3.364   2.449   4.738
13373TIP3   OH240063   3.517   1.902   1.703
13373TIP3    H140064   3.464   1.823   1.691
13373TIP3    H240065   3.470   1.970   1.655
13374TIP3   OH240066   0.894   1.363   2.823
13374TIP3    H140067   0.878   1.381   2.730
13374TIP3    H240068   0.988   1.373   2.834
13375TIP3   OH240069   5.117   6.382   5.094
13375TIP3    H140070   5.122   6.426   5.179
13375TIP3    H240071   5.156   6.296   5.110
13376TIP3   OH240072   2.870   0.842   1.721
13376TIP3    H140073   2.783   0.803   1.708
13376TIP3    H240074   2.870   0.920   1.666
13377TIP3   OH240075   8.142   3.156   0.753
13377TIP3    H140076   8.193   3.206   0.817
13377TIP3    H240077   8.086   3.099   0.806
13378TIP3   OH240078   5.547   3.064   4.351
13378TIP3    H140079   5.529   3.010   4.428
13378TIP3    H240080   5.584   3.145   4.385
13379TIP3   OH240081   2.028   6.325   6.209
13379TIP3    H140082   2.106   6.379   6.196
13379TIP3    H240083   2.059   6.247   6.254
13380TIP3   OH240084   3.766   0.836   2.930
13380TIP3    H140085   3.760   0.750   2.972
13380TIP3    H240086   3.716   0.894   2.987
13381TIP3   OH240087   1.926   7.013   0.223
13381TIP3    H140088   1.958   7.099   0.248
13381TIP3    H240089   1.847   7.030   0.171
13382TIP3   OH240090   7.070   0.274   6.431
13382TIP3    H140091   7.108   0.187   6.432
13382TIP3    H240092   7.111   0.320   6.504
13383TIP3   OH240093   4.903   2.196   3.869
13383TIP3    H140094   4.830   2.153   3.915
13383TIP3    H240095   4.973   2.201   3.935
13384TIP3   OH240096   7.129   2.098   1.353
13384TIP3    H140097   7.192   2.035   1.319
13384TIP3    H240098   7.122   2.165   1.285
13385TIP3   OH240099   2.983   2.322   3.564
13385TIP3    H140100   3.035   2.384   3.515
13385TIP3    H240101   2.983   2.356   3.654
13386TIP3   OH240102   7.329   5.687   3.838
13386TIP3    H140103   7.400   5.718   3.895
13386TIP3    H240104   7.303   5.603   3.876
13387TIP3   OH240105   1.952   0.903   5.030
13387TIP3    H140106   2.029   0.872   5.077
13387TIP3    H240107   1.904   0.956   5.094
13388TIP3   OH240108   1.335   7.785   4.915
13388TIP3    H140109   1.369   7.700   4.887
13388TIP3    H240110   1.381   7.848   4.859
13389TIP3   OH240111   7.449   2.311   4.013
13389TIP3    H140112   7.428   2.220   3.995
13389TIP3    H240113   7.493   2.310   4.098
13390TIP3   OH240114   5.086   6.948   5.261
13390TIP3    H140115   5.008   6.983   5.305
13390TIP3    H240116   5.064   6.952   5.167
13391TIP3   OH240117   3.602   7.628   1.982
13391TIP3    H140118   3.685   7.673   1.965
13391TIP3    H240119   3.575   7.660   2.068
13392TIP3   OH240120   6.808   4.197   3.408
13392TIP3    H140121   6.887   4.222   3.456
13392TIP3    H240122   6.737   4.246   3.450
13393TIP3   OH240123   5.298   3.444   1.309
13393TIP3    H140124   5.385   3.408   1.289
13393TIP3    H240125   5.314   3.510   1.377
13394TIP3   OH240126   7.783   2.649   5.355
13394TIP3    H140127   7.723   2.713   5.316
13394TIP3    H240128   7.741   2.565   5.342
13395TIP3   OH240129   2.461   3.230   4.750
13395TIP3    H140130   2.383   3.266   4.709
13395TIP3    H240131   2.450   3.247   4.844
13396TIP3   OH240132   7.080   4.101   2.071
13396TIP3    H140133   7.075   4.112   2.166
13396TIP3    H240134   7.098   4.008   2.058
13397TIP3   OH240135   2.643   4.747   5.044
13397TIP3    H140136   2.616   4.657   5.062
13397TIP3    H240137   2.731   4.739   5.007
13398TIP3   OH240138   2.025   4.612   5.808
13398TIP3    H140139   1.942   4.583   5.847
13398TIP3    H240140   2.079   4.638   5.883
13399TIP3   OH240141   3.491   6.082   3.292
13399TIP3    H140142   3.457   6.157   3.243
13399TIP3    H240143   3.414   6.026   3.305
13400TIP3   OH240144   6.462   5.288   2.844
13400TIP3    H140145   6.516   5.235   2.786
13400TIP3    H240146   6.489   5.261   2.932
13401TIP3   OH240147   4.371   2.252   1.709
13401TIP3    H140148   4.399   2.187   1.644
13401TIP3    H240149   4.288   2.219   1.742
13402TIP3   OH240150   3.913   0.316   3.889
13402TIP3    H140151   4.006   0.299   3.871
13402TIP3    H240152   3.866   0.269   3.820
13403TIP3   OH240153   0.622   1.512   2.072
13403TIP3    H140154   0.560   1.494   2.002
13403TIP3    H240155   0.647   1.426   2.105
13404TIP3   OH240156   5.747   4.816   4.985
13404TIP3    H140157   5.772   4.810   5.077
13404TIP3    H240158   5.706   4.903   4.977
13405TIP3   OH240159   1.511   0.577   6.170
13405TIP3    H140160   1.520   0.492   6.213
13405TIP3    H240161   1.456   0.628   6.229
13406TIP3   OH240162   6.998   1.016   3.376
13406TIP3    H140163   6.972   1.105   3.353
13406TIP3    H240164   7.093   1.020   3.387
13407TIP3   OH240165   5.686   2.358   3.895
13407TIP3    H140166   5.635   2.437   3.907
13407TIP3    H240167   5.622   2.287   3.897
13408TIP3   OH240168   7.026   1.032   4.874
13408TIP3    H140169   6.973   0.962   4.836
13408TIP3    H240170   7.053   1.085   4.799
13409TIP3   OH240171   5.450   2.619   4.302
13409TIP3    H140172   5.501   2.641   4.380
13409TIP3    H240173   5.361   2.647   4.324
13410TIP3   OH240174   3.346   4.356   0.484
13410TIP3    H140175   3.303   4.296   0.545
13410TIP3    H240176   3.330   4.443   0.521
13411TIP3   OH240177   0.790   6.425   6.655
13411TIP3    H140178   0.811   6.517   6.638
13411TIP3    H240179   0.873   6.386   6.683
13412TIP3   OH240180   4.434   3.754   2.377
13412TIP3    H140181   4.490   3.698   2.322
13412TIP3    H240182   4.346   3.740   2.344
13413TIP3   OH240183   5.061   3.599   0.058
13413TIP3    H140184   5.058   3.503   0.062
13413TIP3    H240185   4.969   3.626   0.062
13414TIP3   OH240186   1.315   7.756   2.923
13414TIP3    H140187   1.281   7.667   2.916
13414TIP3    H240188   1.273   7.803   2.851
13415TIP3   OH240189   4.682   0.401   3.276
13415TIP3    H140190   4.663   0.325   3.222
13415TIP3    H240191   4.652   0.476   3.224
13416TIP3   OH240192   3.415   7.636   2.333
13416TIP3    H140193   3.506   7.610   2.325
13416TIP3    H240194   3.375   7.565   2.384
13417TIP3   OH240195   3.761   3.205   4.539
13417TIP3    H140196   3.707   3.188   4.616
13417TIP3    H240197   3.711   3.170   4.465
13418TIP3   OH240198   2.754   0.181   2.545
13418TIP3    H140199   2.748   0.276   2.543
13418TIP3    H240200   2.672   0.152   2.584
13419TIP3   OH240201   3.872   5.936   2.344
13419TIP3    H140202   3.844   5.859   2.393
13419TIP3    H240203   3.928   5.984   2.405
13420TIP3   OH240204   7.993   5.492   3.473
13420TIP3    H140205   7.995   5.587   3.459
13420TIP3    H240206   7.903   5.474   3.498
13421TIP3   OH240207   7.461   0.609   0.071
13421TIP3    H140208   7.418   0.686   0.108
13421TIP3    H240209   7.467   0.547   0.143
13422TIP3   OH240210   3.255   3.075   6.061
13422TIP3    H140211   3.277   2.981   6.057
13422TIP3    H240212   3.319   3.112   6.122
13423TIP3   OH240213   7.418   0.280   5.380
13423TIP3    H140214   7.397   0.237   5.463
13423TIP3    H240215   7.334   0.292   5.337
13424TIP3   OH240216   3.869   3.968   0.999
13424TIP3    H140217   3.918   4.005   0.926
13424TIP3    H240218   3.797   4.030   1.013
13425TIP3   OH240219   1.578   2.473   1.793
13425TIP3    H140220   1.646   2.464   1.859
13425TIP3    H240221   1.581   2.391   1.743
13426TIP3   OH240222   0.187   0.855   0.759
13426TIP3    H140223   0.096   0.879   0.748
13426TIP3    H240224   0.235   0.938   0.759
13427TIP3   OH240225   1.786   4.082   1.421
13427TIP3    H140226   1.879   4.061   1.419
13427TIP3    H240227   1.782   4.174   1.395
13428TIP3   OH240228   6.910   3.013   0.579
13428TIP3    H140229   6.880   3.093   0.537
13428TIP3    H240230   6.987   2.987   0.527
13429TIP3   OH240231   0.116   5.649   3.865
13429TIP3    H140232   0.175   5.649   3.941
13429TIP3    H240233   0.034   5.612   3.898
13430TIP3   OH240234   2.152   5.645   0.510
13430TIP3    H140235   2.137   5.592   0.432
13430TIP3    H240236   2.196   5.723   0.477
13431TIP3   OH240237   4.122   2.628   0.025
13431TIP3    H140238   4.059   2.654  -0.043
13431TIP3    H240239   4.191   2.694   0.020
13432TIP3   OH240240   7.384   4.361   4.257
13432TIP3    H140241   7.372   4.305   4.334
13432TIP3    H240242   7.462   4.326   4.214
13433TIP3   OH240243   7.314   6.427   2.905
13433TIP3    H140244   7.290   6.488   2.835
13433TIP3    H240245   7.240   6.366   2.910
13434TIP3   OH240246   5.849   4.273   3.300
13434TIP3    H140247   5.888   4.187   3.285
13434TIP3    H240248   5.782   4.258   3.367
13435TIP3   OH240249   0.284   6.896   4.390
13435TIP3    H140250   0.200   6.857   4.413
13435TIP3    H240251   0.320   6.929   4.472
13436TIP3   OH240252   4.141   7.022   0.544
13436TIP3    H140253   4.223   6.972   0.550
13436TIP3    H240254   4.170   7.112   0.527
13437TIP3   OH240255   2.255   2.585   5.884
13437TIP3    H140256   2.305   2.580   5.803
13437TIP3    H240257   2.306   2.533   5.947
13438TIP3   OH240258   7.569   5.245   6.151
13438TIP3    H140259   7.594   5.235   6.059
13438TIP3    H240260   7.545   5.157   6.179
13439TIP3   OH240261   8.209   0.003   2.845
13439TIP3    H140262   8.289   0.055   2.842
13439TIP3    H240263   8.218  -0.051   2.923
13440TIP3   OH240264   7.995   5.604   5.471
13440TIP3    H140265   8.076   5.647   5.500
13440TIP3    H240266   8.019   5.512   5.461
13441TIP3   OH240267   5.946   1.856   4.453
13441TIP3    H140268   6.026   1.891   4.493
13441TIP3    H240269   5.968   1.765   4.432
13442TIP3   OH240270   7.725   5.810   3.557
13442TIP3    H140271   7.630   5.820   3.558
13442TIP3    H240272   7.749   5.804   3.650
13443TIP3   OH240273   0.650   4.321   0.115
13443TIP3    H140274   0.632   4.239   0.160
13443TIP3    H240275   0.728   4.303   0.063
13444TIP3   OH240276   8.146   0.294   3.674
13444TIP3    H140277   8.090   0.281   3.751
13444TIP3    H240278   8.123   0.382   3.643
13445TIP3   OH240279   0.588   2.307   6.474
13445TIP3    H140280   0.678   2.285   6.452
13445TIP3    H240281   0.583   2.402   6.466
13446TIP3   OH240282   0.691   6.994   3.905
13446TIP3    H140283   0.703   6.984   3.811
13446TIP3    H240284   0.638   7.073   3.915
13447TIP3   OH240285   0.690   3.145   3.379
13447TIP3    H140286   0.733   3.060   3.378
13447TIP3    H240287   0.720   3.189   3.299
13448TIP3   OH240288   7.227   3.681   6.453
13448TIP3    H140289   7.211   3.599   6.406
13448TIP3    H240290   7.305   3.718   6.412
13449TIP3   OH240291   7.998   7.189   2.913
13449TIP3    H140292   7.908   7.164   2.934
13449TIP3    H240293   8.009   7.165   2.821
13450TIP3   OH240294   8.059   3.183   6.400
13450TIP3    H140295   7.972   3.222   6.392
13450TIP3    H240296   8.060   3.115   6.333
13451TIP3   OH240297   0.066   2.089   1.511
13451TIP3    H140298  -0.006   2.149   1.530
13451TIP3    H240299   0.145   2.141   1.527
13452TIP3   OH240300   0.480   4.517   5.977
13452TIP3    H140301   0.535   4.441   5.960
13452TIP3    H240302   0.541   4.592   5.973
13453TIP3   OH240303   6.313   3.654   6.113
13453TIP3    H140304   6.309   3.608   6.029
13453TIP3    H240305   6.249   3.724   6.106
13454TIP3   OH240306   6.366   0.585   3.724
13454TIP3    H140307   6.409   0.505   3.693
13454TIP3    H240308   6.401   0.654   3.669
13455TIP3   OH240309   7.831   0.165   0.617
13455TIP3    H140310   7.893   0.117   0.671
13455TIP3    H240311   7.751   0.170   0.670
13456TIP3   OH240312   5.031   7.666   6.118
13456TIP3    H140313   5.082   7.645   6.196
13456TIP3    H240314   5.039   7.761   6.109
13457TIP3   OH240315   2.303   6.345   3.269
13457TIP3    H140316   2.221   6.350   3.319
13457TIP3    H240317   2.309   6.430   3.225
13458TIP3   OH240318   2.214   0.713   5.964
13458TIP3    H140319   2.156   0.771   6.013
13458TIP3    H240320   2.250   0.767   5.894
13459TIP3   OH240321   2.020   2.274   1.122
13459TIP3    H140322   1.967   2.353   1.116
13459TIP3    H240323   1.958   2.204   1.136
13460TIP3   OH240324   4.988   1.488   4.107
13460TIP3    H140325   5.066   1.524   4.064
13460TIP3    H240326   4.915   1.522   4.056
13461TIP3   OH240327   4.983   1.923   6.430
13461TIP3    H140328   4.975   1.965   6.344
13461TIP3    H240329   5.074   1.940   6.455
13462TIP3   OH240330   7.140   1.547   3.104
13462TIP3    H140331   7.113   1.617   3.044
13462TIP3    H240332   7.173   1.478   3.046
13463TIP3   OH240333   4.622   0.732   3.422
13463TIP3    H140334   4.687   0.663   3.431
13463TIP3    H240335   4.587   0.744   3.511
13464TIP3   OH240336   4.160   5.884   3.928
13464TIP3    H140337   4.092   5.934   3.882
13464TIP3    H240338   4.111   5.822   3.982
13465TIP3   OH240339   6.678   5.150   3.117
13465TIP3    H140340   6.754   5.092   3.122
13465TIP3    H240341   6.604   5.091   3.101
13466TIP3   OH240342   6.692   6.582   6.605
13466TIP3    H140343   6.661   6.672   6.595
13466TIP3    H240344   6.708   6.552   6.516
13467TIP3   OH240345   0.844   0.457   2.096
13467TIP3    H140346   0.770   0.470   2.037
13467TIP3    H240347   0.921   0.485   2.046
13468TIP3   OH240348   2.381   1.255   6.081
13468TIP3    H140349   2.445   1.216   6.021
13468TIP3    H240350   2.377   1.194   6.155
13469TIP3   OH240351   7.537   3.247   4.136
13469TIP3    H140352   7.489   3.265   4.217
13469TIP3    H240353   7.530   3.328   4.085
13470TIP3   OH240354   2.452   6.376   0.221
13470TIP3    H140355   2.383   6.395   0.158
13470TIP3    H240356   2.533   6.377   0.170
13471TIP3   OH240357   4.673   1.438   2.040
13471TIP3    H140358   4.691   1.514   1.984
13471TIP3    H240359   4.578   1.437   2.049
13472TIP3   OH240360   4.786   3.297   1.921
13472TIP3    H140361   4.807   3.208   1.893
13472TIP3    H240362   4.840   3.312   1.998
13473TIP3   OH240363   7.754   3.454   3.845
13473TIP3    H140364   7.761   3.359   3.841
13473TIP3    H240365   7.844   3.485   3.840
13474TIP3   OH240366   3.888   1.671   6.175
13474TIP3    H140367   3.875   1.733   6.246
13474TIP3    H240368   3.861   1.587   6.212
13475TIP3   OH240369   3.541   2.264   4.911
13475TIP3    H140370   3.605   2.276   4.841
13475TIP3    H240371   3.456   2.262   4.867
13476TIP3   OH240372   0.565   7.591   4.241
13476TIP3    H140373   0.509   7.589   4.319
13476TIP3    H240374   0.634   7.527   4.260
13477TIP3   OH240375   7.124   4.280   2.595
13477TIP3    H140376   7.083   4.277   2.681
13477TIP3    H240377   7.206   4.232   2.606
13478TIP3   OH240378   3.838   0.332   5.905
13478TIP3    H140379   3.916   0.292   5.944
13478TIP3    H240380   3.787   0.259   5.871
13479TIP3   OH240381   5.689   4.204   4.364
13479TIP3    H140382   5.664   4.261   4.437
13479TIP3    H240383   5.675   4.115   4.397
13480TIP3   OH240384   7.204   2.936   3.411
13480TIP3    H140385   7.292   2.971   3.426
13480TIP3    H240386   7.216   2.873   3.340
13481TIP3   OH240387   7.619   4.819   0.448
13481TIP3    H140388   7.540   4.812   0.396
13481TIP3    H240389   7.601   4.766   0.526
13482TIP3   OH240390   7.654   1.868   6.505
13482TIP3    H140391   7.725   1.907   6.454
13482TIP3    H240392   7.621   1.797   6.449
13483TIP3   OH240393   7.344   1.062   5.993
13483TIP3    H140394   7.271   1.081   5.935
13483TIP3    H240395   7.422   1.067   5.938
13484TIP3   OH240396   1.238   3.166   3.837
13484TIP3    H140397   1.188   3.245   3.817
13484TIP3    H240398   1.193   3.128   3.913
13485TIP3   OH240399   3.278   6.189   0.483
13485TIP3    H140400   3.259   6.147   0.400
13485TIP3    H240401   3.210   6.256   0.491
13486TIP3   OH240402   0.128   3.436   0.941
13486TIP3    H140403   0.151   3.467   0.853
13486TIP3    H240404   0.212   3.415   0.981
13487TIP3   OH240405   2.255   1.540   6.378
13487TIP3    H140406   2.267   1.612   6.316
13487TIP3    H240407   2.209   1.579   6.452
13488TIP3   OH240408   1.229   4.287   2.048
13488TIP3    H140409   1.312   4.303   2.003
13488TIP3    H240410   1.197   4.205   2.011
13489TIP3   OH240411   7.455   2.641   6.200
13489TIP3    H140412   7.478   2.651   6.108
13489TIP3    H240413   7.393   2.568   6.201
13490TIP3   OH240414   2.644   0.729   5.902
13490TIP3    H140415   2.711   0.681   5.950
13490TIP3    H240416   2.618   0.670   5.831
13491TIP3   OH240417   7.272   2.994   6.703
13491TIP3    H140418   7.181   2.977   6.681
13491TIP3    H240419   7.278   3.089   6.710
13492TIP3   OH240420   2.074   1.538   1.827
13492TIP3    H140421   2.040   1.581   1.749
13492TIP3    H240422   2.000   1.490   1.862
13493TIP3   OH240423   0.369   4.577   0.622
13493TIP3    H140424   0.346   4.501   0.570
13493TIP3    H240425   0.459   4.560   0.650
13494TIP3   OH240426   0.981   5.662   0.386
13494TIP3    H140427   0.928   5.642   0.309
13494TIP3    H240428   1.004   5.577   0.422
13495TIP3   OH240429   1.532   2.225   0.907
13495TIP3    H140430   1.479   2.276   0.845
13495TIP3    H240431   1.544   2.141   0.862
13496TIP3   OH240432   4.601   3.345   6.713
13496TIP3    H140433   4.628   3.382   6.797
13496TIP3    H240434   4.596   3.420   6.654
13497TIP3   OH240435   1.212   4.894   4.090
13497TIP3    H140436   1.123   4.860   4.088
13497TIP3    H240437   1.266   4.821   4.061
13498TIP3   OH240438   1.209   4.996   2.752
13498TIP3    H140439   1.281   4.981   2.691
13498TIP3    H240440   1.205   5.091   2.763
13499TIP3   OH240441   0.218   7.116   3.419
13499TIP3    H140442   0.163   7.161   3.354
13499TIP3    H240443   0.161   7.103   3.494
13500TIP3   OH240444   4.719   7.443   3.665
13500TIP3    H140445   4.758   7.371   3.615
13500TIP3    H240446   4.625   7.428   3.660
13501TIP3   OH240447   2.092   5.240   6.104
13501TIP3    H140448   2.131   5.259   6.019
13501TIP3    H240449   1.999   5.257   6.092
13502TIP3   OH240450   8.208   4.406   4.403
13502TIP3    H140451   8.245   4.327   4.364
13502TIP3    H240452   8.270   4.475   4.381
13503TIP3   OH240453   5.954   4.191   4.281
13503TIP3    H140454   6.016   4.211   4.351
13503TIP3    H240455   5.877   4.245   4.301
13504TIP3   OH240456   1.563   3.332   2.850
13504TIP3    H140457   1.507   3.405   2.821
13504TIP3    H240458   1.529   3.308   2.936
13505TIP3   OH240459   2.112   2.097   6.579
13505TIP3    H140460   2.018   2.110   6.564
13505TIP3    H240461   2.117   2.047   6.660
13506TIP3   OH240462   6.445   0.050   0.820
13506TIP3    H140463   6.350   0.058   0.810
13506TIP3    H240464   6.459   0.046   0.914
13507TIP3   OH240465   4.683   7.145   1.652
13507TIP3    H140466   4.645   7.173   1.736
13507TIP3    H240467   4.627   7.186   1.586
13508TIP3   OH240468   8.103   0.296   5.503
13508TIP3    H140469   8.149   0.364   5.453
13508TIP3    H240470   8.159   0.280   5.578
13509TIP3   OH240471   7.006   1.299   0.742
13509TIP3    H140472   7.025   1.236   0.673
13509TIP3    H240473   6.912   1.288   0.759
13510TIP3   OH240474   3.048   1.828   3.212
13510TIP3    H140475   2.966   1.780   3.205
13510TIP3    H240476   3.049   1.888   3.138
13511TIP3   OH240477   4.872   5.088   5.093
13511TIP3    H140478   4.793   5.121   5.051
13511TIP3    H240479   4.854   4.996   5.112
13512TIP3   OH240480   7.351   3.099   3.038
13512TIP3    H140481   7.418   3.038   3.069
13512TIP3    H240482   7.382   3.127   2.952
13513TIP3   OH240483   0.648   4.837   0.477
13513TIP3    H140484   0.680   4.898   0.410
13513TIP3    H240485   0.689   4.867   0.558
13514TIP3   OH240486   7.526   1.901   2.496
13514TIP3    H140487   7.442   1.939   2.470
13514TIP3    H240488   7.527   1.815   2.455
13515TIP3   OH240489   0.562   3.534   4.632
13515TIP3    H140490   0.578   3.440   4.639
13515TIP3    H240491   0.484   3.549   4.686
13516TIP3   OH240492   7.971   6.841   0.986
13516TIP3    H140493   7.917   6.842   0.907
13516TIP3    H240494   7.972   6.750   1.014
13517TIP3   OH240495   6.225   5.814   2.842
13517TIP3    H140496   6.137   5.823   2.807
13517TIP3    H240497   6.218   5.843   2.933
13518TIP3   OH240498   2.210   6.099   0.904
13518TIP3    H140499   2.301   6.125   0.919
13518TIP3    H240500   2.205   6.084   0.810
13519TIP3   OH240501   4.377   5.377   5.549
13519TIP3    H140502   4.404   5.360   5.639
13519TIP3    H240503   4.398   5.296   5.502
13520TIP3   OH240504   3.114   5.919   6.178
13520TIP3    H140505   3.206   5.903   6.159
13520TIP3    H240506   3.094   5.865   6.254
13521TIP3   OH240507   6.593   2.905   3.780
13521TIP3    H140508   6.652   2.830   3.778
13521TIP3    H240509   6.652   2.981   3.790
13522TIP3   OH240510   6.512   5.848   2.771
13522TIP3    H140511   6.492   5.941   2.761
13522TIP3    H240512   6.607   5.842   2.760
13523TIP3   OH240513   6.056   3.023   2.526
13523TIP3    H140514   5.965   3.002   2.507
13523TIP3    H240515   6.072   3.106   2.481
13524TIP3   OH240516   5.346   3.205   4.826
13524TIP3    H140517   5.277   3.240   4.769
13524TIP3    H240518   5.419   3.266   4.814
13525TIP3   OH240519   0.655   3.686   3.145
13525TIP3    H140520   0.573   3.660   3.103
13525TIP3    H240521   0.656   3.781   3.139
13526TIP3   OH240522   1.503   6.025   1.904
13526TIP3    H140523   1.419   6.013   1.947
13526TIP3    H240524   1.504   5.959   1.834
13527TIP3   OH240525   8.178   0.134   2.393
13527TIP3    H140526   8.122   0.093   2.328
13527TIP3    H240527   8.189   0.066   2.460
13528TIP3   OH240528   7.794   4.200   4.905
13528TIP3    H140529   7.750   4.175   4.986
13528TIP3    H240530   7.790   4.295   4.903
13529TIP3   OH240531   0.726   2.352   2.259
13529TIP3    H140532   0.659   2.364   2.326
13529TIP3    H240533   0.745   2.258   2.260
13530TIP3   OH240534   7.121   4.027   1.683
13530TIP3    H140535   7.099   4.041   1.590
13530TIP3    H240536   7.200   4.079   1.697
13531TIP3   OH240537   2.547   4.532   0.617
13531TIP3    H140538   2.628   4.552   0.571
13531TIP3    H240539   2.504   4.465   0.563
13532TIP3   OH240540   0.084   3.109   4.622
13532TIP3    H140541   0.031   3.189   4.623
13532TIP3    H240542   0.155   3.129   4.561
13533TIP3   OH240543   1.544   6.396   2.559
13533TIP3    H140544   1.475   6.407   2.624
13533TIP3    H240545   1.615   6.451   2.590
13534TIP3   OH240546   7.834   5.921   6.414
13534TIP3    H140547   7.859   5.854   6.350
13534TIP3    H240548   7.800   5.871   6.488
13535TIP3   OH240549   1.336   0.806   4.504
13535TIP3    H140550   1.379   0.726   4.475
13535TIP3    H240551   1.399   0.876   4.486
13536TIP3   OH240552   1.689   0.762   3.215
13536TIP3    H140553   1.603   0.782   3.178
13536TIP3    H240554   1.686   0.797   3.304
13537TIP3   OH240555   5.555   1.549   6.715
13537TIP3    H140556   5.555   1.625   6.773
13537TIP3    H240557   5.613   1.486   6.756
13538TIP3   OH240558   0.598   7.451   3.392
13538TIP3    H140559   0.667   7.397   3.353
13538TIP3    H240560   0.560   7.396   3.461
13539TIP3   OH240561   4.942   2.780   4.309
13539TIP3    H140562   4.870   2.721   4.286
13539TIP3    H240563   4.902   2.845   4.367
13540TIP3   OH240564   5.279   5.490   1.723
13540TIP3    H140565   5.278   5.582   1.697
13540TIP3    H240566   5.195   5.475   1.765
13541TIP3   OH240567   1.362   7.005   4.126
13541TIP3    H140568   1.379   6.932   4.067
13541TIP3    H240569   1.290   6.975   4.181
13542TIP3   OH240570   6.268   1.699   2.613
13542TIP3    H140571   6.343   1.720   2.669
13542TIP3    H240572   6.271   1.764   2.543
13543TIP3   OH240573   7.095   4.186   5.223
13543TIP3    H140574   7.087   4.242   5.300
13543TIP3    H240575   7.101   4.097   5.258
13544TIP3   OH240576   0.494   6.426   6.041
13544TIP3    H140577   0.451   6.346   6.073
13544TIP3    H240578   0.448   6.446   5.959
13545TIP3   OH240579   1.385   5.445   5.710
13545TIP3    H140580   1.441   5.456   5.633
13545TIP3    H240581   1.297   5.431   5.674
13546TIP3   OH240582   7.125   7.760   2.829
13546TIP3    H140583   7.210   7.724   2.803
13546TIP3    H240584   7.141   7.854   2.839
13547TIP3   OH240585   6.494   0.019   2.249
13547TIP3    H140586   6.484  -0.045   2.320
13547TIP3    H240587   6.556   0.083   2.284
13548TIP3   OH240588   7.298   2.468   5.106
13548TIP3    H140589   7.382   2.423   5.099
13548TIP3    H240590   7.321   2.560   5.119
13549TIP3   OH240591   0.044   4.887   3.638
13549TIP3    H140592   0.056   4.846   3.724
13549TIP3    H240593   0.113   4.849   3.583
13550TIP3   OH240594   3.604   5.772   3.162
13550TIP3    H140595   3.554   5.820   3.096
13550TIP3    H240596   3.690   5.760   3.123
13551TIP3   OH240597   0.073   3.650   2.677
13551TIP3    H140598   0.077   3.636   2.582
13551TIP3    H240599   0.111   3.737   2.691
13552TIP3   OH240600   7.520   2.399   6.459
13552TIP3    H140601   7.448   2.398   6.397
13552TIP3    H240602   7.479   2.418   6.543
13553TIP3   OH240603   1.660   0.997   1.964
13553TIP3    H140604   1.726   1.058   1.930
13553TIP3    H240605   1.589   1.001   1.901
13554TIP3   OH240606   0.435   1.393   6.513
13554TIP3    H140607   0.456   1.395   6.420
13554TIP3    H240608   0.517   1.419   6.557
13555TIP3   OH240609   7.664   5.669   0.175
13555TIP3    H140610   7.736   5.633   0.123
13555TIP3    H240611   7.700   5.680   0.262
13556TIP3   OH240612   0.661   5.222   5.161
13556TIP3    H140613   0.700   5.245   5.077
13556TIP3    H240614   0.615   5.140   5.144
13557TIP3   OH240615   7.516   6.828   1.951
13557TIP3    H140616   7.580   6.827   1.880
13557TIP3    H240617   7.442   6.776   1.917
13558TIP3   OH240618   0.945   7.244   1.444
13558TIP3    H140619   1.025   7.200   1.416
13558TIP3    H240620   0.882   7.174   1.459
13559TIP3   OH240621   3.346   4.972   5.727
13559TIP3    H140622   3.319   4.909   5.794
13559TIP3    H240623   3.266   4.993   5.679
13560TIP3   OH240624   0.936   6.030   1.793
13560TIP3    H140625   0.937   6.021   1.698
13560TIP3    H240626   0.917   6.122   1.808
13561TIP3   OH240627   2.872   7.326   3.344
13561TIP3    H140628   2.822   7.330   3.263
13561TIP3    H240629   2.816   7.368   3.409
13562TIP3   OH240630   5.270   6.968   1.246
13562TIP3    H140631   5.304   7.055   1.268
13562TIP3    H240632   5.224   6.980   1.163
13563TIP3   OH240633   7.820   2.808   3.352
13563TIP3    H140634   7.748   2.760   3.311
13563TIP3    H240635   7.818   2.894   3.311
13564TIP3   OH240636   3.441   5.899   1.609
13564TIP3    H140637   3.515   5.849   1.574
13564TIP3    H240638   3.418   5.960   1.538
13565TIP3   OH240639   1.107   4.066   3.864
13565TIP3    H140640   1.170   3.995   3.868
13565TIP3    H240641   1.073   4.064   3.774
13566TIP3   OH240642   5.861   6.960   3.796
13566TIP3    H140643   5.884   7.028   3.732
13566TIP3    H240644   5.914   6.981   3.873
13567TIP3   OH240645   1.763   0.368   0.065
13567TIP3    H140646   1.720   0.286   0.041
13567TIP3    H240647   1.832   0.378  -0.001
13568TIP3   OH240648   2.389   6.200   5.267
13568TIP3    H140649   2.426   6.155   5.191
13568TIP3    H240650   2.391   6.293   5.243
13569TIP3   OH240651   3.194   6.710   6.712
13569TIP3    H140652   3.129   6.770   6.749
13569TIP3    H240653   3.261   6.703   6.780
13570TIP3   OH240654   6.903   2.785   0.150
13570TIP3    H140655   6.817   2.788   0.107
13570TIP3    H240656   6.920   2.877   0.173
13571TIP3   OH240657   7.439   4.951   4.241
13571TIP3    H140658   7.503   4.922   4.307
13571TIP3    H240659   7.483   4.938   4.157
13572TIP3   OH240660   8.234   6.877   0.154
13572TIP3    H140661   8.174   6.874   0.079
13572TIP3    H240662   8.244   6.970   0.173
13573TIP3   OH240663   3.148   3.450   4.163
13573TIP3    H140664   3.064   3.487   4.190
13573TIP3    H240665   3.211   3.482   4.228
13574TIP3   OH240666   8.129   7.115   5.637
13574TIP3    H140667   8.146   7.193   5.585
13574TIP3    H240668   8.091   7.147   5.718
13575TIP3   OH240669   0.262   0.309   5.596
13575TIP3    H140670   0.352   0.340   5.589
13575TIP3    H240671   0.270   0.215   5.611
13576TIP3   OH240672   7.392   2.444   4.667
13576TIP3    H140673   7.316   2.413   4.619
13576TIP3    H240674   7.404   2.379   4.737
13577TIP3   OH240675   4.153   7.783   1.309
13577TIP3    H140676   4.153   7.830   1.392
13577TIP3    H240677   4.085   7.717   1.318
13578TIP3   OH240678   2.038   6.492   4.402
13578TIP3    H140679   2.114   6.437   4.418
13578TIP3    H240680   2.072   6.569   4.357
13579TIP3   OH240681   4.646   2.246   2.853
13579TIP3    H140682   4.662   2.201   2.770
13579TIP3    H240683   4.730   2.284   2.877
13580TIP3   OH240684   2.301   2.767   1.270
13580TIP3    H140685   2.378   2.755   1.326
13580TIP3    H240686   2.324   2.723   1.188
13581TIP3   OH240687   6.310   1.717   5.203
13581TIP3    H140688   6.380   1.765   5.159
13581TIP3    H240689   6.353   1.644   5.247
13582TIP3   OH240690   3.719   0.407   1.789
13582TIP3    H140691   3.710   0.433   1.697
13582TIP3    H240692   3.631   0.384   1.816
13583TIP3   OH240693   2.677   0.200   4.039
13583TIP3    H140694   2.715   0.243   4.116
13583TIP3    H240695   2.752   0.160   3.995
13584TIP3   OH240696   5.730   1.673   1.009
13584TIP3    H140697   5.800   1.718   0.963
13584TIP3    H240698   5.718   1.724   1.090
13585TIP3   OH240699   3.300   0.523   5.188
13585TIP3    H140700   3.222   0.572   5.163
13585TIP3    H240701   3.348   0.582   5.247
13586TIP3   OH240702   1.690   4.945   1.118
13586TIP3    H140703   1.682   5.008   1.047
13586TIP3    H240704   1.718   4.998   1.193
13587TIP3   OH240705   3.330   0.418   5.820
13587TIP3    H140706   3.316   0.393   5.728
13587TIP3    H240707   3.423   0.402   5.836
13588TIP3   OH240708   4.785   3.807   0.335
13588TIP3    H140709   4.851   3.848   0.280
13588TIP3    H240710   4.833   3.782   0.415
13589TIP3   OH240711   2.077   2.884   4.628
13589TIP3    H140712   2.023   2.963   4.625
13589TIP3    H240713   2.105   2.878   4.719
13590TIP3   OH240714   6.582   1.931   0.823
13590TIP3    H140715   6.575   1.895   0.735
13590TIP3    H240716   6.573   1.856   0.881
13591TIP3   OH240717   7.192   4.320   1.870
13591TIP3    H140718   7.240   4.310   1.787
13591TIP3    H240719   7.260   4.344   1.934
13592TIP3   OH240720   5.096   5.442   5.161
13592TIP3    H140721   5.034   5.376   5.192
13592TIP3    H240722   5.045   5.500   5.106
13593TIP3   OH240723   2.301   2.216   5.153
13593TIP3    H140724   2.303   2.311   5.164
13593TIP3    H240725   2.386   2.186   5.187
13594TIP3   OH240726   1.378   1.992   1.097
13594TIP3    H140727   1.449   1.982   1.034
13594TIP3    H240728   1.416   2.042   1.170
13595TIP3   OH240729   6.058   7.077   2.032
13595TIP3    H140730   6.054   7.172   2.027
13595TIP3    H240731   5.979   7.047   1.986
13596TIP3   OH240732   7.962   4.672   2.656
13596TIP3    H140733   8.014   4.606   2.702
13596TIP3    H240734   7.872   4.657   2.686
13597TIP3   OH240735   7.351   1.989   4.491
13597TIP3    H140736   7.424   1.981   4.553
13597TIP3    H240737   7.370   2.069   4.442
13598TIP3   OH240738   0.735   5.057   0.325
13598TIP3    H140739   0.802   5.051   0.257
13598TIP3    H240740   0.738   5.148   0.353
13599TIP3   OH240741   1.250   2.888   0.928
13599TIP3    H140742   1.223   2.833   0.855
13599TIP3    H240743   1.293   2.828   0.989
13600TIP3   OH240744   5.092   4.009   6.589
13600TIP3    H140745   5.079   4.102   6.607
13600TIP3    H240746   5.020   3.985   6.531
13601TIP3   OH240747   3.680   5.291   1.058
13601TIP3    H140748   3.586   5.278   1.054
13601TIP3    H240749   3.716   5.228   0.995
13602TIP3   OH240750   6.489   1.303   0.854
13602TIP3    H140751   6.516   1.302   0.946
13602TIP3    H240752   6.483   1.396   0.832
13603TIP3   OH240753   3.526   5.388   4.913
13603TIP3    H140754   3.576   5.463   4.945
13603TIP3    H240755   3.506   5.410   4.822
13604TIP3   OH240756   6.106   0.927   2.456
13604TIP3    H140757   6.154   1.004   2.427
13604TIP3    H240758   6.033   0.963   2.506
13605TIP3   OH240759   5.002   2.105   5.102
13605TIP3    H140760   4.995   2.190   5.146
13605TIP3    H240761   5.057   2.121   5.026
13606TIP3   OH240762   5.353   2.125   4.273
13606TIP3    H140763   5.402   2.198   4.236
13606TIP3    H240764   5.308   2.163   4.349
13607TIP3   OH240765   4.701   0.230   2.292
13607TIP3    H140766   4.689   0.157   2.231
13607TIP3    H240767   4.795   0.239   2.300
13608TIP3   OH240768   1.738   6.639   5.614
13608TIP3    H140769   1.722   6.610   5.704
13608TIP3    H240770   1.792   6.570   5.575
13609TIP3   OH240771   6.213   7.439   1.883
13609TIP3    H140772   6.235   7.346   1.878
13609TIP3    H240773   6.119   7.440   1.903
13610TIP3   OH240774   4.479   4.049   6.612
13610TIP3    H140775   4.530   4.105   6.554
13610TIP3    H240776   4.496   3.960   6.581
13611TIP3   OH240777   2.525   5.066   2.561
13611TIP3    H140778   2.562   5.114   2.635
13611TIP3    H240779   2.431   5.082   2.566
13612TIP3   OH240780   5.778   3.799   2.030
13612TIP3    H140781   5.706   3.771   2.087
13612TIP3    H240782   5.742   3.795   1.942
13613TIP3   OH240783   3.395   0.701   4.953
13613TIP3    H140784   3.305   0.695   4.986
13613TIP3    H240785   3.417   0.794   4.959
13614TIP3   OH240786   1.457   4.933   5.453
13614TIP3    H140787   1.385   4.871   5.462
13614TIP3    H240788   1.430   4.991   5.382
13615TIP3   OH240789   3.940   7.739   5.223
13615TIP3    H140790   4.009   7.794   5.185
13615TIP3    H240791   3.936   7.767   5.315
13616TIP3   OH240792   6.655   4.581   4.507
13616TIP3    H140793   6.704   4.546   4.582
13616TIP3    H240794   6.591   4.640   4.547
13617TIP3   OH240795   1.585   0.464   2.656
13617TIP3    H140796   1.665   0.466   2.603
13617TIP3    H240797   1.545   0.550   2.643
13618TIP3   OH240798   3.681   3.282   2.506
13618TIP3    H140799   3.628   3.238   2.572
13618TIP3    H240800   3.768   3.289   2.546
13619TIP3   OH240801   8.249   6.491   1.207
13619TIP3    H140802   8.328   6.455   1.246
13619TIP3    H240803   8.263   6.482   1.113
13620TIP3   OH240804   2.665   1.004   2.274
13620TIP3    H140805   2.645   0.949   2.198
13620TIP3    H240806   2.741   0.961   2.314
13621TIP3   OH240807   0.911   7.037   1.968
13621TIP3    H140808   0.821   7.060   1.942
13621TIP3    H240809   0.930   6.957   1.918
13622TIP3   OH240810   6.444   5.109   0.127
13622TIP3    H140811   6.484   5.040   0.181
13622TIP3    H240812   6.415   5.175   0.189
13623TIP3   OH240813   3.722   0.622   4.955
13623TIP3    H140814   3.637   0.578   4.959
13623TIP3    H240815   3.780   0.557   4.915
13624TIP3   OH240816   0.836   0.633   1.657
13624TIP3    H140817   0.878   0.549   1.674
13624TIP3    H240818   0.747   0.610   1.631
13625TIP3   OH240819   7.695   4.580   5.152
13625TIP3    H140820   7.729   4.664   5.183
13625TIP3    H240821   7.640   4.548   5.224
13626TIP3   OH240822   0.583   0.759   0.944
13626TIP3    H140823   0.543   0.824   1.001
13626TIP3    H240824   0.516   0.691   0.934
13627TIP3   OH240825   7.822   1.482   3.805
13627TIP3    H140826   7.838   1.414   3.739
13627TIP3    H240827   7.732   1.511   3.788
13628TIP3   OH240828   7.282   6.214   0.301
13628TIP3    H140829   7.347   6.191   0.235
13628TIP3    H240830   7.210   6.253   0.252
13629TIP3   OH240831   3.824   5.803   1.212
13629TIP3    H140832   3.866   5.871   1.265
13629TIP3    H240833   3.896   5.748   1.181
13630TIP3   OH240834   1.089   0.579   4.579
13630TIP3    H140835   1.083   0.504   4.638
13630TIP3    H240836   1.135   0.646   4.630
13631TIP3   OH240837   2.210   7.527   5.134
13631TIP3    H140838   2.213   7.437   5.165
13631TIP3    H240839   2.124   7.536   5.092
13632TIP3   OH240840   4.284   2.642   5.099
13632TIP3    H140841   4.361   2.699   5.104
13632TIP3    H240842   4.249   2.656   5.011
13633TIP3   OH240843   6.852   7.380   3.563
13633TIP3    H140844   6.879   7.412   3.649
13633TIP3    H240845   6.888   7.292   3.557
13634TIP3   OH240846   1.496   1.750   4.472
13634TIP3    H140847   1.469   1.734   4.563
13634TIP3    H240848   1.463   1.837   4.452
13635TIP3   OH240849   7.892   5.525   0.164
13635TIP3    H140850   7.898   5.566   0.250
13635TIP3    H240851   7.968   5.467   0.159
13636TIP3   OH240852   7.341   6.081   3.152
13636TIP3    H140853   7.425   6.088   3.197
13636TIP3    H240854   7.278   6.061   3.221
13637TIP3   OH240855   5.563   7.204   1.176
13637TIP3    H140856   5.588   7.181   1.265
13637TIP3    H240857   5.538   7.296   1.181
13638TIP3   OH240858   3.995   1.823   0.762
13638TIP3    H140859   4.037   1.901   0.727
13638TIP3    H240860   3.907   1.824   0.723
13639TIP3   OH240861   6.333   6.507   4.899
13639TIP3    H140862   6.293   6.592   4.879
13639TIP3    H240863   6.417   6.529   4.940
13640TIP3   OH240864   0.314   5.266   5.419
13640TIP3    H140865   0.380   5.253   5.488
13640TIP3    H240866   0.277   5.179   5.405
13641TIP3   OH240867   7.268   6.813   3.949
13641TIP3    H140868   7.229   6.870   4.016
13641TIP3    H240869   7.284   6.730   3.994
13642TIP3   OH240870   7.493   6.299   1.731
13642TIP3    H140871   7.551   6.225   1.750
13642TIP3    H240872   7.405   6.261   1.732
13643TIP3   OH240873   4.789   4.744   1.126
13643TIP3    H140874   4.859   4.798   1.162
13643TIP3    H240875   4.729   4.731   1.200
13644TIP3   OH240876   4.305   5.629   0.486
13644TIP3    H140877   4.385   5.679   0.505
13644TIP3    H240878   4.325   5.540   0.513
13645TIP3   OH240879   6.846   1.805   0.340
13645TIP3    H140880   6.754   1.788   0.321
13645TIP3    H240881   6.874   1.732   0.395
13646TIP3   OH240882   4.852   3.553   5.596
13646TIP3    H140883   4.789   3.491   5.633
13646TIP3    H240884   4.813   3.581   5.514
13647TIP3   OH240885   7.166   4.667   0.736
13647TIP3    H140886   7.072   4.662   0.717
13647TIP3    H240887   7.188   4.581   0.771
13648TIP3   OH240888   6.199   0.388   3.097
13648TIP3    H140889   6.232   0.433   3.019
13648TIP3    H240890   6.188   0.297   3.069
13649TIP3   OH240891   2.121   0.288   1.915
13649TIP3    H140892   2.106   0.306   2.007
13649TIP3    H240893   2.216   0.276   1.908
13650TIP3   OH240894   0.363   3.258   0.657
13650TIP3    H140895   0.281   3.281   0.612
13650TIP3    H240896   0.387   3.338   0.704
13651TIP3   OH240897   4.595   7.036   3.355
13651TIP3    H140898   4.506   7.018   3.326
13651TIP3    H240899   4.641   6.952   3.345
13652TIP3   OH240900   3.640   5.777   5.606
13652TIP3    H140901   3.613   5.757   5.516
13652TIP3    H240902   3.726   5.819   5.597
13653TIP3   OH240903   0.970   5.493   3.176
13653TIP3    H140904   0.957   5.503   3.082
13653TIP3    H240905   0.883   5.470   3.210
13654TIP3   OH240906   1.141   4.577   2.413
13654TIP3    H140907   1.162   4.531   2.494
13654TIP3    H240908   1.053   4.549   2.391
13655TIP3   OH240909   3.295   6.390   3.926
13655TIP3    H140910   3.246   6.350   3.855
13655TIP3    H240911   3.282   6.332   4.001
13656TIP3   OH240912   6.926   7.585   4.137
13656TIP3    H140913   6.891   7.596   4.226
13656TIP3    H240914   7.008   7.538   4.149
13657TIP3   OH240915   3.118   2.706   0.827
13657TIP3    H140916   3.052   2.758   0.873
13657TIP3    H240917   3.069   2.659   0.759
13658TIP3   OH240918   4.376   0.183   1.706
13658TIP3    H140919   4.469   0.193   1.724
13658TIP3    H240920   4.364   0.088   1.697
13659TIP3   OH240921   2.052   0.752   1.274
13659TIP3    H140922   1.990   0.722   1.339
13659TIP3    H240923   2.000   0.807   1.215
13660TIP3   OH240924   5.988   3.934   1.447
13660TIP3    H140925   6.010   3.900   1.534
13660TIP3    H240926   5.914   3.880   1.419
13661TIP3   OH240927   6.530   3.395   1.107
13661TIP3    H140928   6.554   3.302   1.111
13661TIP3    H240929   6.613   3.441   1.095
13662TIP3   OH240930   5.913   2.852   3.000
13662TIP3    H140931   5.900   2.900   2.918
13662TIP3    H240932   5.953   2.770   2.973
13663TIP3   OH240933   5.037   5.214   2.438
13663TIP3    H140934   4.944   5.193   2.439
13663TIP3    H240935   5.074   5.159   2.370
13664TIP3   OH240936   5.233   7.211   2.662
13664TIP3    H140937   5.239   7.306   2.652
13664TIP3    H240938   5.318   7.178   2.635
13665TIP3   OH240939   1.628   2.149   2.896
13665TIP3    H140940   1.700   2.090   2.875
13665TIP3    H240941   1.609   2.193   2.813
13666TIP3   OH240942   5.355   5.985   3.387
13666TIP3    H140943   5.426   5.922   3.371
13666TIP3    H240944   5.320   6.003   3.299
13667TIP3   OH240945   0.268   0.204   6.582
13667TIP3    H140946   0.276   0.125   6.636
13667TIP3    H240947   0.253   0.171   6.494
13668TIP3   OH240948   7.848   4.311   5.213
13668TIP3    H140949   7.900   4.322   5.293
13668TIP3    H240950   7.892   4.366   5.149
13669TIP3   OH240951   4.996   4.070   5.069
13669TIP3    H140952   5.007   4.064   5.164
13669TIP3    H240953   5.019   4.161   5.048
13670TIP3   OH240954   5.333   4.042   1.443
13670TIP3    H140955   5.288   4.011   1.522
13670TIP3    H240956   5.419   4.001   1.448
13671TIP3   OH240957   0.110   6.012   5.203
13671TIP3    H140958   0.127   6.079   5.270
13671TIP3    H240959   0.078   6.062   5.128
13672TIP3   OH240960   2.569   0.101   0.381
13672TIP3    H140961   2.506   0.050   0.432
13672TIP3    H240962   2.614   0.155   0.446
13673TIP3   OH240963   2.777   1.721   0.712
13673TIP3    H140964   2.760   1.689   0.623
13673TIP3    H240965   2.740   1.809   0.713
13674TIP3   OH240966   7.529   3.279   2.529
13674TIP3    H140967   7.520   3.264   2.435
13674TIP3    H240968   7.618   3.250   2.549
13675TIP3   OH240969   3.598   7.515   1.002
13675TIP3    H140970   3.530   7.577   0.976
13675TIP3    H240971   3.566   7.430   0.970
13676TIP3   OH240972   8.119   1.557   2.765
13676TIP3    H140973   8.114   1.652   2.751
13676TIP3    H240974   8.061   1.520   2.699
13677TIP3   OH240975   1.852   7.687   1.672
13677TIP3    H140976   1.934   7.647   1.641
13677TIP3    H240977   1.808   7.617   1.720
13678TIP3   OH240978   8.231   0.979   4.893
13678TIP3    H140979   8.235   1.017   4.980
13678TIP3    H240980   8.198   0.890   4.907
13679TIP3   OH240981   4.428   6.179   2.510
13679TIP3    H140982   4.353   6.152   2.563
13679TIP3    H240983   4.435   6.112   2.442
13680TIP3   OH240984   7.885   4.473   4.985
13680TIP3    H140985   7.932   4.541   4.938
13680TIP3    H240986   7.816   4.519   5.033
13681TIP3   OH240987   3.702   1.699   6.432
13681TIP3    H140988   3.774   1.761   6.436
13681TIP3    H240989   3.624   1.753   6.424
13682TIP3   OH240990   4.545   5.334   3.490
13682TIP3    H140991   4.553   5.380   3.406
13682TIP3    H240992   4.498   5.395   3.546
13683TIP3   OH240993   4.189   2.984   2.507
13683TIP3    H140994   4.203   2.946   2.594
13683TIP3    H240995   4.175   3.077   2.523
13684TIP3   OH240996   2.323   3.843   1.377
13684TIP3    H140997   2.341   3.928   1.417
13684TIP3    H240998   2.379   3.782   1.425
13685TIP3   OH240999   3.421   3.771   5.186
13685TIP3    H141000   3.373   3.838   5.235
13685TIP3    H241001   3.487   3.739   5.247
13686TIP3   OH241002   4.600   2.627   3.222
13686TIP3    H141003   4.519   2.669   3.195
13686TIP3    H241004   4.580   2.534   3.224
13687TIP3   OH241005   1.144   3.944   0.369
13687TIP3    H141006   1.182   4.019   0.414
13687TIP3    H241007   1.103   3.982   0.291
13688TIP3   OH241008   1.940   5.365   3.231
13688TIP3    H141009   2.009   5.359   3.297
13688TIP3    H241010   1.922   5.459   3.223
13689TIP3   OH241011   4.364   3.291   2.826
13689TIP3    H141012   4.428   3.340   2.877
13689TIP3    H241013   4.317   3.358   2.776
13690TIP3   OH241014   1.889   6.055   6.547
13690TIP3    H141015   1.870   6.049   6.640
13690TIP3    H241016   1.931   6.141   6.537
13691TIP3   OH241017   0.262   6.590   2.037
13691TIP3    H141018   0.287   6.498   2.051
13691TIP3    H241019   0.172   6.586   2.005
13692TIP3   OH241020   8.276   5.696   2.679
13692TIP3    H141021   8.208   5.660   2.622
13692TIP3    H241022   8.278   5.789   2.659
13693TIP3   OH241023   7.316   7.823   0.257
13693TIP3    H141024   7.253   7.871   0.203
13693TIP3    H241025   7.288   7.840   0.347
13694TIP3   OH241026   4.671   1.668   1.868
13694TIP3    H141027   4.614   1.621   1.807
13694TIP3    H241028   4.617   1.741   1.898
13695TIP3   OH241029   0.186   3.065   1.884
13695TIP3    H141030   0.164   3.035   1.972
13695TIP3    H241031   0.276   3.097   1.890
13696TIP3   OH241032   4.028   4.312   6.137
13696TIP3    H141033   3.967   4.363   6.084
13696TIP3    H241034   3.984   4.298   6.220
13697TIP3   OH241035   7.163   6.602   3.753
13697TIP3    H141036   7.208   6.670   3.804
13697TIP3    H241037   7.140   6.535   3.817
13698TIP3   OH241038   1.708   5.198   6.681
13698TIP3    H141039   1.698   5.258   6.608
13698TIP3    H241040   1.631   5.214   6.736
13699TIP3   OH241041   0.796   2.950   0.377
13699TIP3    H141042   0.802   3.021   0.441
13699TIP3    H241043   0.789   2.871   0.431
13700TIP3   OH241044   5.127   0.980   4.418
13700TIP3    H141045   5.107   0.898   4.462
13700TIP3    H241046   5.043   1.010   4.383
13701TIP3   OH241047   4.141   1.328   0.427
13701TIP3    H141048   4.233   1.306   0.443
13701TIP3    H241049   4.140   1.423   0.419
13702TIP3   OH241050   5.574   1.553   2.247
13702TIP3    H141051   5.546   1.642   2.267
13702TIP3    H241052   5.529   1.532   2.165
13703TIP3   OH241053   5.544   4.710   2.016
13703TIP3    H141054   5.553   4.631   2.069
13703TIP3    H241055   5.616   4.705   1.953
13704TIP3   OH241056   0.857   3.811   0.313
13704TIP3    H141057   0.768   3.793   0.282
13704TIP3    H241058   0.891   3.876   0.252
13705TIP3   OH241059   7.749   7.089   2.911
13705TIP3    H141060   7.784   7.001   2.895
13705TIP3    H241061   7.696   7.109   2.834
13706TIP3   OH241062  -0.023   0.432   6.708
13706TIP3    H141063   0.072   0.442   6.702
13706TIP3    H241064  -0.044   0.368   6.640
13707TIP3   OH241065   7.289   1.616   1.137
13707TIP3    H141066   7.347   1.690   1.159
13707TIP3    H241067   7.208   1.657   1.109
13708TIP3   OH241068   0.485   0.366   2.234
13708TIP3    H141069   0.495   0.445   2.181
13708TIP3    H241070   0.521   0.296   2.179
13709TIP3   OH241071   3.372   1.775   2.823
13709TIP3    H141072   3.344   1.820   2.744
13709TIP3    H241073   3.457   1.814   2.844
13710TIP3   OH241074   6.501   7.115   4.649
13710TIP3    H141075   6.564   7.052   4.614
13710TIP3    H241076   6.449   7.142   4.573
13711TIP3   OH241077   0.413   1.157   0.816
13711TIP3    H141078   0.497   1.113   0.819
13711TIP3    H241079   0.434   1.249   0.830
13712TIP3   OH241080   0.486   4.682   4.977
13712TIP3    H141081   0.461   4.669   5.068
13712TIP3    H241082   0.433   4.618   4.928
13713TIP3   OH241083   7.774   6.838   0.791
13713TIP3    H141084   7.686   6.843   0.752
13713TIP3    H241085   7.809   6.755   0.759
13714TIP3   OH241086   7.268   0.804   5.002
13714TIP3    H141087   7.253   0.899   5.005
13714TIP3    H241088   7.297   0.782   5.091
13715TIP3   OH241089   4.299   6.468   2.282
13715TIP3    H141090   4.280   6.525   2.208
13715TIP3    H241091   4.393   6.475   2.295
13716TIP3   OH241092   6.715   6.909   1.284
13716TIP3    H141093   6.728   7.001   1.259
13716TIP3    H241094   6.723   6.909   1.379
13717TIP3   OH241095   0.568   6.908   2.327
13717TIP3    H141096   0.510   6.868   2.262
13717TIP3    H241097   0.608   6.982   2.282
13718TIP3   OH241098   6.210   5.819   5.729
13718TIP3    H141099   6.270   5.794   5.799
13718TIP3    H241100   6.257   5.799   5.648
13719TIP3   OH241101   7.772   0.531   0.653
13719TIP3    H141102   7.834   0.604   0.646
13719TIP3    H241103   7.827   0.453   0.662
13720TIP3   OH241104   3.780   0.863   0.040
13720TIP3    H141105   3.831   0.855   0.121
13720TIP3    H241106   3.839   0.834  -0.029
13721TIP3   OH241107   0.500   0.580   0.542
13721TIP3    H141108   0.466   0.507   0.594
13721TIP3    H241109   0.579   0.546   0.501
13722TIP3   OH241110   5.247   4.392   2.196
13722TIP3    H141111   5.216   4.374   2.285
13722TIP3    H241112   5.168   4.399   2.144
13723TIP3   OH241113   2.876   3.327   3.070
13723TIP3    H141114   2.893   3.420   3.084
13723TIP3    H241115   2.785   3.314   3.096
13724TIP3   OH241116   3.826   5.293   6.841
13724TIP3    H141117   3.853   5.232   6.771
13724TIP3    H241118   3.732   5.277   6.851
13725TIP3   OH241119   8.237   3.172   1.255
13725TIP3    H141120   8.284   3.198   1.335
13725TIP3    H241121   8.176   3.104   1.284
13726TIP3   OH241122   2.865   5.666   3.096
13726TIP3    H141123   2.817   5.688   3.176
13726TIP3    H241124   2.808   5.605   3.049
13727TIP3   OH241125   2.051   7.787   5.602
13727TIP3    H141126   2.127   7.841   5.582
13727TIP3    H241127   2.084   7.697   5.597
13728TIP3   OH241128   2.616   0.095   1.108
13728TIP3    H141129   2.607   0.073   1.016
13728TIP3    H241130   2.703   0.133   1.116
13729TIP3   OH241131   2.626   6.929   1.794
13729TIP3    H141132   2.603   6.973   1.876
13729TIP3    H241133   2.720   6.942   1.785
13730TIP3   OH241134   1.295   3.366   3.035
13730TIP3    H141135   1.352   3.307   3.084
13730TIP3    H241136   1.222   3.310   3.008
13731TIP3   OH241137   6.218   1.679   4.629
13731TIP3    H141138   6.276   1.745   4.667
13731TIP3    H241139   6.173   1.641   4.705
13732TIP3   OH241140   0.238   7.833   5.815
13732TIP3    H141141   0.292   7.755   5.805
13732TIP3    H241142   0.150   7.798   5.834
13733TIP3   OH241143   1.744   6.588   0.579
13733TIP3    H141144   1.655   6.621   0.570
13733TIP3    H241145   1.788   6.653   0.634
13734TIP3   OH241146   4.266   1.417   3.838
13734TIP3    H141147   4.296   1.333   3.873
13734TIP3    H241148   4.340   1.476   3.850
13735TIP3   OH241149   2.975   5.241   1.945
13735TIP3    H141150   2.994   5.240   1.851
13735TIP3    H241151   2.981   5.333   1.970
13736TIP3   OH241152   4.688   2.665   4.263
13736TIP3    H141153   4.640   2.700   4.187
13736TIP3    H241154   4.619   2.632   4.321
13737TIP3   OH241155   1.503   6.744   0.548
13737TIP3    H141156   1.490   6.827   0.594
13737TIP3    H241157   1.515   6.768   0.456
13738TIP3   OH241158   8.073   1.189   4.817
13738TIP3    H141159   8.129   1.112   4.824
13738TIP3    H241160   7.998   1.160   4.766
13739TIP3   OH241161   3.863   3.912   2.177
13739TIP3    H141162   3.833   3.822   2.187
13739TIP3    H241163   3.822   3.960   2.248
13740TIP3   OH241164   0.211   4.116   5.655
13740TIP3    H141165   0.147   4.055   5.689
13740TIP3    H241166   0.188   4.200   5.695
13741TIP3   OH241167   3.267   2.020   0.863
13741TIP3    H141168   3.174   2.029   0.879
13741TIP3    H241169   3.306   2.011   0.950
13742TIP3   OH241170   0.103   4.596   5.718
13742TIP3    H141171   0.060   4.631   5.797
13742TIP3    H241172   0.113   4.502   5.737
13743TIP3   OH241173   0.967   3.210   3.447
13743TIP3    H141174   1.021   3.211   3.526
13743TIP3    H241175   0.891   3.264   3.469
13744TIP3   OH241176   3.945   5.479   6.020
13744TIP3    H141177   3.881   5.542   6.053
13744TIP3    H241178   4.029   5.525   6.024
13745TIP3   OH241179   0.210   0.624   3.929
13745TIP3    H141180   0.154   0.700   3.915
13745TIP3    H241181   0.164   0.552   3.886
13746TIP3   OH241182   5.614   6.529   5.128
13746TIP3    H141183   5.567   6.531   5.044
13746TIP3    H241184   5.569   6.461   5.178
13747TIP3   OH241185   6.844   6.054   6.496
13747TIP3    H141186   6.800   6.034   6.414
13747TIP3    H241187   6.783   6.024   6.564
13748TIP3   OH241188   3.266   4.546   2.227
13748TIP3    H141189   3.346   4.584   2.264
13748TIP3    H241190   3.253   4.593   2.145
13749TIP3   OH241191   6.014   7.544   0.588
13749TIP3    H141192   6.023   7.549   0.683
13749TIP3    H241193   6.104   7.541   0.556
13750TIP3   OH241194   4.078   2.437   1.913
13750TIP3    H141195   4.158   2.393   1.883
13750TIP3    H241196   4.054   2.390   1.993
13751TIP3   OH241197   5.147   6.687   1.328
13751TIP3    H141198   5.074   6.628   1.344
13751TIP3    H241199   5.123   6.735   1.249
13752TIP3   OH241200   4.803   0.503   3.707
13752TIP3    H141201   4.850   0.543   3.634
13752TIP3    H241202   4.869   0.452   3.754
13753TIP3   OH241203   1.393   2.296   4.031
13753TIP3    H141204   1.327   2.227   4.038
13753TIP3    H241205   1.475   2.252   4.051
13754TIP3   OH241206   2.641   6.356   5.559
13754TIP3    H141207   2.677   6.383   5.644
13754TIP3    H241208   2.570   6.418   5.543
13755TIP3   OH241209   3.981   0.390   1.573
13755TIP3    H141210   4.068   0.419   1.600
13755TIP3    H241211   3.980   0.296   1.593
13756TIP3   OH241212   0.436   3.228   5.221
13756TIP3    H141213   0.371   3.294   5.201
13756TIP3    H241214   0.492   3.224   5.143
13757TIP3   OH241215   5.846   2.584   6.779
13757TIP3    H141216   5.924   2.563   6.728
13757TIP3    H241217   5.796   2.643   6.723
13758TIP3   OH241218   2.332   7.612   1.745
13758TIP3    H141219   2.424   7.606   1.767
13758TIP3    H241220   2.308   7.703   1.760
13759TIP3   OH241221   1.311   1.208   5.813
13759TIP3    H141222   1.271   1.259   5.883
13759TIP3    H241223   1.337   1.126   5.854
13760TIP3   OH241224   7.258   2.220   6.036
13760TIP3    H141225   7.332   2.160   6.047
13760TIP3    H241226   7.205   2.180   5.967
13761TIP3   OH241227   7.815   3.311   6.417
13761TIP3    H141228   7.821   3.403   6.441
13761TIP3    H241229   7.758   3.309   6.341
13762TIP3   OH241230   2.122   3.367   6.733
13762TIP3    H141231   2.184   3.304   6.697
13762TIP3    H241232   2.176   3.438   6.768
13763TIP3   OH241233   6.637   1.666   3.233
13763TIP3    H141234   6.600   1.703   3.153
13763TIP3    H241235   6.568   1.678   3.299
13764TIP3   OH241236   4.345   4.629   3.633
13764TIP3    H141237   4.416   4.608   3.573
13764TIP3    H241238   4.339   4.553   3.691
13765TIP3   OH241239   4.827   4.778   3.478
13765TIP3    H141240   4.737   4.762   3.506
13765TIP3    H241241   4.870   4.693   3.483
13766TIP3   OH241242   4.131   2.762   0.397
13766TIP3    H141243   4.064   2.702   0.364
13766TIP3    H241244   4.213   2.731   0.359
13767TIP3   OH241245   8.007   6.175   1.143
13767TIP3    H141246   8.043   6.211   1.224
13767TIP3    H241247   8.084   6.151   1.092
13768TIP3   OH241248   2.121   3.243   5.402
13768TIP3    H141249   2.066   3.235   5.479
13768TIP3    H241250   2.060   3.243   5.328
13769TIP3   OH241251   3.388   7.680   6.692
13769TIP3    H141252   3.410   7.772   6.679
13769TIP3    H241253   3.449   7.633   6.635
13770TIP3   OH241254   3.882   3.433   5.299
13770TIP3    H141255   3.873   3.498   5.368
13770TIP3    H241256   3.876   3.349   5.344
13771TIP3   OH241257   6.097   5.789   4.283
13771TIP3    H141258   6.036   5.863   4.284
13771TIP3    H241259   6.069   5.734   4.357
13772TIP3   OH241260   5.547   5.547   0.491
13772TIP3    H141261   5.560   5.580   0.402
13772TIP3    H241262   5.503   5.618   0.537
13773TIP3   OH241263   2.688   5.011   2.072
13773TIP3    H141264   2.636   5.079   2.030
13773TIP3    H241265   2.747   4.981   2.002
13774TIP3   OH241266   1.335   3.436   5.331
13774TIP3    H141267   1.279   3.514   5.334
13774TIP3    H241268   1.291   3.377   5.271
13775TIP3   OH241269   1.502   6.265   6.262
13775TIP3    H141270   1.495   6.265   6.358
13775TIP3    H241271   1.423   6.309   6.232
13776TIP3   OH241272   6.960   6.976   3.020
13776TIP3    H141273   7.053   6.992   3.032
13776TIP3    H241274   6.920   7.063   3.017
13777TIP3   OH241275   2.210   7.530   5.985
13777TIP3    H141276   2.196   7.441   6.017
13777TIP3    H241277   2.276   7.521   5.917
13778TIP3   OH241278   4.994   2.118   1.484
13778TIP3    H141279   4.924   2.139   1.545
13778TIP3    H241280   5.039   2.044   1.525
13779TIP3   OH241281   0.197   1.182   5.643
13779TIP3    H141282   0.109   1.155   5.617
13779TIP3    H241283   0.246   1.100   5.649
13780TIP3   OH241284   2.499   1.534   1.456
13780TIP3    H141285   2.584   1.524   1.499
13780TIP3    H241286   2.520   1.539   1.362
13781TIP3   OH241287   6.447   1.618   1.975
13781TIP3    H141288   6.382   1.637   2.043
13781TIP3    H241289   6.404   1.554   1.918
13782TIP3   OH241290   0.023   6.606   4.238
13782TIP3    H141291   0.085   6.585   4.168
13782TIP3    H241292  -0.043   6.662   4.197
13783TIP3   OH241293   5.313   0.382   2.351
13783TIP3    H141294   5.263   0.445   2.300
13783TIP3    H241295   5.331   0.310   2.290
13784TIP3   OH241296   6.327   3.112   6.555
13784TIP3    H141297   6.253   3.057   6.530
13784TIP3    H241298   6.384   3.055   6.605
13785TIP3   OH241299   0.591   3.307   4.993
13785TIP3    H141300   0.577   3.357   4.913
13785TIP3    H241301   0.638   3.229   4.965
13786TIP3   OH241302   0.634   6.115   5.226
13786TIP3    H141303   0.613   6.060   5.302
13786TIP3    H241304   0.651   6.202   5.263
13787TIP3   OH241305   5.466   5.098   6.030
13787TIP3    H141306   5.439   5.055   6.111
13787TIP3    H241307   5.439   5.038   5.961
13788TIP3   OH241308   4.302   3.828   0.233
13788TIP3    H141309   4.302   3.806   0.326
13788TIP3    H241310   4.298   3.743   0.189
13789TIP3   OH241311   0.765   0.311   5.543
13789TIP3    H141312   0.686   0.365   5.549
13789TIP3    H241313   0.737   0.225   5.573
13790TIP3   OH241314   0.669   4.332   5.891
13790TIP3    H141315   0.745   4.300   5.938
13790TIP3    H241316   0.628   4.253   5.854
13791TIP3   OH241317   7.499   1.107   0.663
13791TIP3    H141318   7.561   1.056   0.610
13791TIP3    H241319   7.523   1.087   0.753
13792TIP3   OH241320   2.249   1.728   4.001
13792TIP3    H141321   2.259   1.664   3.930
13792TIP3    H241322   2.226   1.809   3.957
13793TIP3   OH241323   2.226   7.071   1.659
13793TIP3    H141324   2.228   7.151   1.711
13793TIP3    H241325   2.266   7.005   1.716
13794TIP3   OH241326   0.397   0.684   6.036
13794TIP3    H141327   0.387   0.612   5.974
13794TIP3    H241328   0.329   0.669   6.102
13795TIP3   OH241329   4.009   2.484   3.993
13795TIP3    H141330   3.976   2.395   4.005
13795TIP3    H241331   4.099   2.480   4.026
13796TIP3   OH241332   1.946   0.697   5.791
13796TIP3    H141333   2.028   0.658   5.760
13796TIP3    H241334   1.934   0.662   5.879
13797TIP3   OH241335   2.105   4.519   2.268
13797TIP3    H141336   2.171   4.588   2.279
13797TIP3    H241337   2.136   4.467   2.195
13798TIP3   OH241338   4.217   7.647   2.557
13798TIP3    H141339   4.148   7.588   2.588
13798TIP3    H241340   4.284   7.589   2.521
13799TIP3   OH241341   0.911   3.228   5.927
13799TIP3    H141342   0.874   3.184   6.003
13799TIP3    H241343   1.004   3.240   5.948
13800TIP3   OH241344   0.981   1.506   5.973
13800TIP3    H141345   1.013   1.501   5.883
13800TIP3    H241346   0.886   1.497   5.965
13801TIP3   OH241347   0.199   4.470   3.573
13801TIP3    H141348   0.264   4.538   3.553
13801TIP3    H241349   0.236   4.390   3.535
13802TIP3   OH241350   1.380   5.374   5.051
13802TIP3    H141351   1.469   5.409   5.044
13802TIP3    H241352   1.360   5.377   5.144
13803TIP3   OH241353   1.818   4.005   3.441
13803TIP3    H141354   1.739   3.971   3.483
13803TIP3    H241355   1.789   4.087   3.399
13804TIP3   OH241356   3.137   1.586   2.451
13804TIP3    H141357   3.221   1.542   2.464
13804TIP3    H241358   3.074   1.516   2.434
13805TIP3   OH241359   6.172   1.724   0.129
13805TIP3    H141360   6.123   1.643   0.117
13805TIP3    H241361   6.227   1.708   0.206
13806TIP3   OH241362   4.258   7.721   5.115
13806TIP3    H141363   4.209   7.767   5.047
13806TIP3    H241364   4.316   7.662   5.066
13807TIP3   OH241365   0.727   6.967   6.474
13807TIP3    H141366   0.760   7.027   6.407
13807TIP3    H241367   0.710   7.023   6.550
13808TIP3   OH241368   3.666   1.682   2.459
13808TIP3    H141369   3.660   1.608   2.399
13808TIP3    H241370   3.674   1.642   2.545
13809TIP3   OH241371   0.807   1.089   4.968
13809TIP3    H141372   0.808   1.057   5.058
13809TIP3    H241373   0.729   1.050   4.929
13810TIP3   OH241374   7.026   7.244   1.512
13810TIP3    H141375   6.932   7.242   1.532
13810TIP3    H241376   7.032   7.214   1.421
13811TIP3   OH241377   5.474   7.313   3.022
13811TIP3    H141378   5.459   7.287   2.931
13811TIP3    H241379   5.568   7.330   3.028
13812TIP3   OH241380   5.599   0.106   1.067
13812TIP3    H141381   5.689   0.088   1.096
13812TIP3    H241382   5.572   0.180   1.121
13813TIP3   OH241383   6.888   4.163   4.846
13813TIP3    H141384   6.913   4.235   4.788
13813TIP3    H241385   6.878   4.088   4.789
13814TIP3   OH241386   2.425   0.719   2.172
13814TIP3    H141387   2.491   0.755   2.112
13814TIP3    H241388   2.435   0.624   2.163
13815TIP3   OH241389   0.715   3.052   4.963
13815TIP3    H141390   0.800   3.021   4.933
13815TIP3    H241391   0.662   2.972   4.970
13816TIP3   OH241392   1.993   5.130   5.565
13816TIP3    H141393   2.017   5.066   5.632
13816TIP3    H241394   1.899   5.119   5.554
13817TIP3   OH241395   1.633   5.659   6.548
13817TIP3    H141396   1.598   5.725   6.488
13817TIP3    H241397   1.592   5.679   6.632
13818TIP3   OH241398   7.354   2.930   2.297
13818TIP3    H141399   7.296   2.881   2.238
13818TIP3    H241400   7.408   2.983   2.239
13819TIP3   OH241401   0.083   3.840   1.687
13819TIP3    H141402   0.122   3.854   1.601
13819TIP3    H241403   0.114   3.915   1.740
13820TIP3   OH241404   3.589   0.807   0.686
13820TIP3    H141405   3.540   0.842   0.611
13820TIP3    H241406   3.668   0.861   0.690
13821TIP3   OH241407   7.769   2.423   3.981
13821TIP3    H141408   7.843   2.482   3.970
13821TIP3    H241409   7.702   2.475   4.025
13822TIP3   OH241410   7.562   6.731   3.179
13822TIP3    H141411   7.623   6.804   3.164
13822TIP3    H241412   7.547   6.732   3.273
13823TIP3   OH241413   1.363   5.774   3.262
13823TIP3    H141414   1.297   5.705   3.264
13823TIP3    H241415   1.413   5.763   3.343
13824TIP3   OH241416   2.623   5.787   4.100
13824TIP3    H141417   2.714   5.778   4.071
13824TIP3    H241418   2.600   5.701   4.136
13825TIP3   OH241419   2.037   6.049   0.272
13825TIP3    H141420   1.970   6.091   0.325
13825TIP3    H241421   2.028   6.089   0.185
13826TIP3   OH241422   2.090   4.765   1.367
13826TIP3    H141423   2.145   4.724   1.300
13826TIP3    H241424   2.001   4.742   1.341
13827TIP3   OH241425   1.568   1.221   0.896
13827TIP3    H141426   1.474   1.219   0.880
13827TIP3    H241427   1.605   1.160   0.831
13828TIP3   OH241428   6.362   0.860   5.057
13828TIP3    H141429   6.354   0.939   5.004
13828TIP3    H241430   6.456   0.845   5.065
13829TIP3   OH241431   2.704   1.220   2.881
13829TIP3    H141432   2.789   1.256   2.906
13829TIP3    H241433   2.659   1.207   2.965
13830TIP3   OH241434   2.424   0.301   5.410
13830TIP3    H141435   2.390   0.281   5.498
13830TIP3    H241436   2.404   0.393   5.397
13831TIP3   OH241437   2.328   0.011   5.466
13831TIP3    H141438   2.282   0.087   5.501
13831TIP3    H241439   2.350   0.035   5.376
13832TIP3   OH241440   0.700   4.981   3.114
13832TIP3    H141441   0.758   4.977   3.191
13832TIP3    H241442   0.759   4.985   3.039
13833TIP3   OH241443   1.929   5.541   3.660
13833TIP3    H141444   2.002   5.490   3.624
13833TIP3    H241445   1.921   5.509   3.750
13834TIP3   OH241446   5.847   4.159   0.631
13834TIP3    H141447   5.882   4.070   0.627
13834TIP3    H241448   5.866   4.196   0.545
13835TIP3   OH241449   2.362   2.960   0.337
13835TIP3    H141450   2.319   2.975   0.421
13835TIP3    H241451   2.406   3.043   0.317
13836TIP3   OH241452   0.843   0.919   4.411
13836TIP3    H141453   0.753   0.930   4.442
13836TIP3    H241454   0.892   0.989   4.454
13837TIP3   OH241455   5.403   2.562   3.331
13837TIP3    H141456   5.333   2.628   3.336
13837TIP3    H241457   5.359   2.480   3.351
13838TIP3   OH241458   2.509   2.896   5.806
13838TIP3    H141459   2.482   2.863   5.720
13838TIP3    H241460   2.486   2.826   5.867
13839TIP3   OH241461   8.293   7.423   5.257
13839TIP3    H141462   8.222   7.486   5.252
13839TIP3    H241463   8.349   7.455   5.329
13840TIP3   OH241464   3.586   6.329   6.513
13840TIP3    H141465   3.677   6.312   6.489
13840TIP3    H241466   3.592   6.383   6.592
13841TIP3   OH241467   7.649   3.227   4.722
13841TIP3    H141468   7.702   3.166   4.671
13841TIP3    H241469   7.605   3.282   4.656
13842TIP3   OH241470   6.401   5.349   0.794
13842TIP3    H141471   6.464   5.420   0.806
13842TIP3    H241472   6.381   5.349   0.701
13843TIP3   OH241473   2.164   4.667   0.557
13843TIP3    H141474   2.231   4.716   0.509
13843TIP3    H241475   2.081   4.700   0.523
13844TIP3   OH241476   7.513   3.732   4.213
13844TIP3    H141477   7.496   3.821   4.183
13844TIP3    H241478   7.461   3.724   4.294
13845TIP3   OH241479   6.367   1.479   0.563
13845TIP3    H141480   6.413   1.458   0.482
13845TIP3    H241481   6.391   1.570   0.581
13846TIP3   OH241482   1.011   1.397   1.312
13846TIP3    H141483   0.972   1.424   1.395
13846TIP3    H241484   1.093   1.447   1.307
13847TIP3   OH241485   2.163   1.971   3.873
13847TIP3    H141486   2.082   1.990   3.920
13847TIP3    H241487   2.230   2.022   3.919
13848TIP3   OH241488   5.671   7.679   4.050
13848TIP3    H141489   5.588   7.697   4.007
13848TIP3    H241490   5.649   7.669   4.143
13849TIP3   OH241491   6.706   2.674   1.459
13849TIP3    H141492   6.641   2.604   1.451
13849TIP3    H241493   6.789   2.629   1.473
13850TIP3   OH241494   4.470   5.013   0.045
13850TIP3    H141495   4.454   4.948  -0.023
13850TIP3    H241496   4.398   5.000   0.107
13851TIP3   OH241497   7.527   2.072   0.308
13851TIP3    H141498   7.544   2.154   0.355
13851TIP3    H241499   7.614   2.033   0.297
13852TIP3   OH241500   1.328   0.293   0.620
13852TIP3    H141501   1.275   0.246   0.556
13852TIP3    H241502   1.418   0.276   0.593
13853TIP3   OH241503   7.229   5.340   6.673
13853TIP3    H141504   7.250   5.256   6.714
13853TIP3    H241505   7.146   5.366   6.714
13854TIP3   OH241506   6.675   3.635   5.027
13854TIP3    H141507   6.766   3.631   5.059
13854TIP3    H241508   6.673   3.572   4.955
13855TIP3   OH241509   0.652   4.669   5.339
13855TIP3    H141510   0.557   4.671   5.352
13855TIP3    H241511   0.679   4.582   5.367
13856TIP3   OH241512   5.230   5.130   5.221
13856TIP3    H141513   5.268   5.164   5.140
13856TIP3    H241514   5.198   5.043   5.197
13857TIP3   OH241515   0.651   4.628   2.067
13857TIP3    H141516   0.592   4.556   2.045
13857TIP3    H241517   0.706   4.639   1.989
13858TIP3   OH241518   6.421   5.120   1.255
13858TIP3    H141519   6.376   5.157   1.179
13858TIP3    H241520   6.372   5.154   1.330
13859TIP3   OH241521   4.823   6.495   3.983
13859TIP3    H141522   4.813   6.591   3.981
13859TIP3    H241523   4.765   6.464   3.913
13860TIP3   OH241524   5.407   3.661   1.458
13860TIP3    H141525   5.462   3.679   1.534
13860TIP3    H241526   5.464   3.674   1.383
13861TIP3   OH241527   0.011   5.769   4.734
13861TIP3    H141528   0.091   5.780   4.786
13861TIP3    H241529  -0.039   5.702   4.780
13862TIP3   OH241530   2.567   7.150   4.448
13862TIP3    H141531   2.549   7.125   4.357
13862TIP3    H241532   2.574   7.246   4.445
13863TIP3   OH241533   7.711   5.704   5.240
13863TIP3    H141534   7.785   5.764   5.251
13863TIP3    H241535   7.635   5.761   5.235
13864TIP3   OH241536   6.091   2.475   0.894
13864TIP3    H141537   6.040   2.395   0.883
13864TIP3    H241538   6.035   2.545   0.861
13865TIP3   OH241539   4.439   6.434   5.993
13865TIP3    H141540   4.484   6.355   5.963
13865TIP3    H241541   4.392   6.465   5.915
13866TIP3   OH241542   4.006   5.691   3.446
13866TIP3    H141543   4.025   5.754   3.377
13866TIP3    H241544   4.041   5.608   3.413
13867TIP3   OH241545   8.015   3.032   1.347
13867TIP3    H141546   7.985   2.971   1.415
13867TIP3    H241547   7.943   3.094   1.337
13868TIP3   OH241548   2.060   5.242   4.743
13868TIP3    H141549   2.035   5.162   4.697
13868TIP3    H241550   2.085   5.212   4.831
13869TIP3   OH241551   0.796   0.625   4.555
13869TIP3    H141552   0.805   0.681   4.633
13869TIP3    H241553   0.865   0.559   4.566
13870TIP3   OH241554   7.441   3.494   4.054
13870TIP3    H141555   7.470   3.582   4.081
13870TIP3    H241556   7.350   3.489   4.084
13871TIP3   OH241557   4.140   4.815   3.558
13871TIP3    H141558   4.087   4.770   3.624
13871TIP3    H241559   4.213   4.755   3.541
13872TIP3   OH241560   6.817   1.845   3.948
13872TIP3    H141561   6.738   1.855   4.001
13872TIP3    H241562   6.786   1.848   3.858
13873TIP3   OH241563   7.322   6.326   6.227
13873TIP3    H141564   7.310   6.318   6.132
13873TIP3    H241565   7.414   6.354   6.237
13874TIP3   OH241566   4.044   1.000   0.621
13874TIP3    H141567   4.137   0.976   0.619
13874TIP3    H241568   4.020   1.009   0.528
13875TIP3   OH241569   4.239   6.498   2.573
13875TIP3    H141570   4.329   6.527   2.587
13875TIP3    H241571   4.221   6.518   2.481
13876TIP3   OH241572   4.610   1.295   6.236
13876TIP3    H141573   4.575   1.247   6.311
13876TIP3    H241574   4.689   1.247   6.211
13877TIP3   OH241575   7.063   0.688   0.508
13877TIP3    H141576   7.132   0.754   0.501
13877TIP3    H241577   7.092   0.616   0.452
13878TIP3   OH241578   5.957   6.699   3.048
13878TIP3    H141579   6.047   6.681   3.076
13878TIP3    H241580   5.916   6.739   3.125
13879TIP3   OH241581   6.559   4.304   5.099
13879TIP3    H141582   6.640   4.264   5.128
13879TIP3    H241583   6.493   4.275   5.162
13880TIP3   OH241584   6.724   0.208   3.045
13880TIP3    H141585   6.708   0.301   3.057
13880TIP3    H241586   6.815   0.203   3.014
13881TIP3   OH241587   5.956   1.079   4.858
13881TIP3    H141588   5.983   1.150   4.800
13881TIP3    H241589   5.995   1.100   4.942
13882TIP3   OH241590   2.566   3.628   2.215
13882TIP3    H141591   2.615   3.591   2.142
13882TIP3    H241592   2.608   3.713   2.232
13883TIP3   OH241593   8.044   0.152   4.140
13883TIP3    H141594   7.976   0.218   4.127
13883TIP3    H241595   7.998   0.068   4.132
13884TIP3   OH241596   0.751   5.337   4.911
13884TIP3    H141597   0.759   5.431   4.895
13884TIP3    H241598   0.784   5.296   4.831
13885TIP3   OH241599   8.178   0.559   3.209
13885TIP3    H141600   8.261   0.511   3.208
13885TIP3    H241601   8.114   0.495   3.177
13886TIP3   OH241602   4.292   4.213   3.473
13886TIP3    H141603   4.362   4.261   3.427
13886TIP3    H241604   4.324   4.122   3.475
13887TIP3   OH241605   8.160   0.024   6.560
13887TIP3    H141606   8.195  -0.043   6.501
13887TIP3    H241607   8.087   0.063   6.512
13888TIP3   OH241608   1.255   7.199   0.679
13888TIP3    H141609   1.197   7.147   0.623
13888TIP3    H241610   1.229   7.176   0.768
13889TIP3   OH241611   2.747   7.066   5.984
13889TIP3    H141612   2.763   7.130   5.916
13889TIP3    H241613   2.720   7.118   6.060
13890TIP3   OH241614   4.512   3.510   4.666
13890TIP3    H141615   4.542   3.532   4.577
13890TIP3    H241616   4.418   3.526   4.664
13891TIP3   OH241617   0.558   4.238   4.571
13891TIP3    H141618   0.579   4.151   4.607
13891TIP3    H241619   0.545   4.293   4.649
13892TIP3   OH241620   3.291   0.106   3.500
13892TIP3    H141621   3.276   0.131   3.409
13892TIP3    H241622   3.344   0.177   3.536
13893TIP3   OH241623   1.387   4.553   5.320
13893TIP3    H141624   1.425   4.558   5.407
13893TIP3    H241625   1.416   4.633   5.276
13894TIP3   OH241626   4.234   7.726   4.637
13894TIP3    H141627   4.300   7.659   4.652
13894TIP3    H241628   4.161   7.680   4.596
13895TIP3   OH241629   0.502   7.267   5.812
13895TIP3    H141630   0.449   7.305   5.882
13895TIP3    H241631   0.554   7.340   5.779
13896TIP3   OH241632   7.399   6.301   5.001
13896TIP3    H141633   7.476   6.358   5.004
13896TIP3    H241634   7.422   6.234   4.937
13897TIP3   OH241635   8.278   7.471   1.316
13897TIP3    H141636   8.283   7.425   1.399
13897TIP3    H241637   8.221   7.546   1.333
13898TIP3   OH241638   5.411   3.894   5.273
13898TIP3    H141639   5.342   3.828   5.273
13898TIP3    H241640   5.393   3.949   5.196
13899TIP3   OH241641   1.344   4.484   0.499
13899TIP3    H141642   1.270   4.442   0.456
13899TIP3    H241643   1.312   4.571   0.523
13900TIP3   OH241644   6.209   0.312   0.192
13900TIP3    H141645   6.233   0.222   0.216
13900TIP3    H241646   6.174   0.350   0.273
13901TIP3   OH241647   4.154   5.480   3.360
13901TIP3    H141648   4.228   5.540   3.364
13901TIP3    H241649   4.192   5.393   3.373
13902TIP3   OH241650   2.693   2.287   1.199
13902TIP3    H141651   2.775   2.245   1.224
13902TIP3    H241652   2.627   2.247   1.255
13903TIP3   OH241653   0.421   3.438   0.842
13903TIP3    H141654   0.437   3.531   0.860
13903TIP3    H241655   0.474   3.392   0.907
13904TIP3   OH241656   3.292   1.282   5.919
13904TIP3    H141657   3.258   1.316   5.836
13904TIP3    H241658   3.345   1.206   5.894
13905TIP3   OH241659   2.136   5.305   5.404
13905TIP3    H141660   2.079   5.264   5.469
13905TIP3    H241661   2.208   5.243   5.393
13906TIP3   OH241662   1.895   5.454   3.947
13906TIP3    H141663   1.843   5.439   4.026
13906TIP3    H241664   1.944   5.534   3.966
13907TIP3   OH241665   6.779   7.621   5.479
13907TIP3    H141666   6.708   7.626   5.415
13907TIP3    H241667   6.765   7.539   5.526
13908TIP3   OH241668   4.711   4.655   3.726
13908TIP3    H141669   4.647   4.699   3.669
13908TIP3    H241670   4.758   4.727   3.769
13909TIP3   OH241671   7.027   6.130   5.112
13909TIP3    H141672   6.933   6.129   5.129
13909TIP3    H241673   7.042   6.056   5.053
13910TIP3   OH241674   6.587   4.037   6.567
13910TIP3    H141675   6.506   4.085   6.550
13910TIP3    H241676   6.565   3.978   6.639
13911TIP3   OH241677   3.801   0.598   5.890
13911TIP3    H141678   3.849   0.515   5.887
13911TIP3    H241679   3.804   0.623   5.983
13912TIP3   OH241680   2.900   0.213   5.222
13912TIP3    H141681   2.893   0.301   5.185
13912TIP3    H241682   2.810   0.190   5.246
13913TIP3   OH241683   5.714   1.228   0.908
13913TIP3    H141684   5.710   1.133   0.922
13913TIP3    H241685   5.804   1.244   0.880
13914TIP3   OH241686   4.650   0.313   5.631
13914TIP3    H141687   4.678   0.253   5.561
13914TIP3    H241688   4.561   0.284   5.652
13915TIP3   OH241689   1.498   2.967   2.523
13915TIP3    H141690   1.496   2.926   2.610
13915TIP3    H241691   1.511   3.060   2.541
13916TIP3   OH241692   2.045   4.546   5.022
13916TIP3    H141693   2.015   4.550   5.112
13916TIP3    H241694   2.051   4.453   5.002
13917TIP3   OH241695   3.238   5.943   1.827
13917TIP3    H141696   3.234   5.926   1.733
13917TIP3    H241697   3.327   5.918   1.852
13918TIP3   OH241698   0.026   3.601   6.590
13918TIP3    H141699  -0.026   3.528   6.558
13918TIP3    H241700  -0.007   3.677   6.543
13919TIP3   OH241701   7.813   1.139   2.652
13919TIP3    H141702   7.815   1.044   2.661
13919TIP3    H241703   7.728   1.157   2.614
13920TIP3   OH241704   6.243   1.356   0.040
13920TIP3    H141705   6.173   1.399  -0.010
13920TIP3    H241706   6.218   1.263   0.040
13921TIP3   OH241707   2.268   1.461   3.305
13921TIP3    H141708   2.300   1.518   3.375
13921TIP3    H241709   2.214   1.518   3.250
13922TIP3   OH241710   2.831   7.155   4.527
13922TIP3    H141711   2.746   7.140   4.487
13922TIP3    H241712   2.887   7.086   4.492
13923TIP3   OH241713   0.936   0.516   5.604
13923TIP3    H141714   0.988   0.536   5.526
13923TIP3    H241715   0.881   0.442   5.577
13924TIP3   OH241716   1.775   2.584   0.156
13924TIP3    H141717   1.866   2.554   0.162
13924TIP3    H241718   1.781   2.679   0.149
13925TIP3   OH241719   6.126   4.208   1.037
13925TIP3    H141720   6.056   4.179   1.096
13925TIP3    H241721   6.103   4.170   0.952
13926TIP3   OH241722   0.168   5.398   5.023
13926TIP3    H141723   0.260   5.417   5.004
13926TIP3    H241724   0.131   5.482   5.051
13927TIP3   OH241725   6.428   1.556   1.594
13927TIP3    H141726   6.435   1.650   1.583
13927TIP3    H241727   6.385   1.526   1.513
13928TIP3   OH241728   2.478   2.576   6.475
13928TIP3    H141729   2.505   2.559   6.566
13928TIP3    H241730   2.549   2.541   6.422
13929TIP3   OH241731   1.088   3.571   1.400
13929TIP3    H141732   1.178   3.541   1.413
13929TIP3    H241733   1.097   3.652   1.349
13930TIP3   OH241734   6.925   6.457   3.712
13930TIP3    H141735   6.875   6.538   3.720
13930TIP3    H241736   7.016   6.483   3.730
13931TIP3   OH241737   6.064   1.422   4.219
13931TIP3    H141738   6.008   1.360   4.172
13931TIP3    H241739   6.128   1.367   4.264
13932TIP3   OH241740   5.843   6.444   5.546
13932TIP3    H141741   5.933   6.428   5.516
13932TIP3    H241742   5.816   6.522   5.498
13933TIP3   OH241743   4.219   5.636   6.697
13933TIP3    H141744   4.280   5.581   6.648
13933TIP3    H241745   4.269   5.668   6.772
13934TIP3   OH241746   4.008   5.367   2.865
13934TIP3    H141747   4.090   5.323   2.845
13934TIP3    H241748   3.949   5.341   2.794
13935TIP3   OH241749   5.774   3.439   2.777
13935TIP3    H141750   5.778   3.485   2.693
13935TIP3    H241751   5.862   3.446   2.813
13936TIP3   OH241752   4.618   0.618   3.119
13936TIP3    H141753   4.611   0.713   3.120
13936TIP3    H241754   4.528   0.586   3.109
13937TIP3   OH241755   3.599   1.299   3.583
13937TIP3    H141756   3.632   1.367   3.642
13937TIP3    H241757   3.664   1.229   3.588
13938TIP3   OH241758   4.776   4.665   1.702
13938TIP3    H141759   4.729   4.691   1.781
13938TIP3    H241760   4.866   4.650   1.732
13939TIP3   OH241761   4.826   0.527   0.662
13939TIP3    H141762   4.896   0.512   0.598
13939TIP3    H241763   4.749   0.486   0.624
13940TIP3   OH241764   1.046   3.620   5.599
13940TIP3    H141765   1.003   3.672   5.667
13940TIP3    H241766   1.050   3.680   5.523
13941TIP3   OH241767   0.777   3.575   2.045
13941TIP3    H141768   0.765   3.552   2.138
13941TIP3    H241769   0.818   3.661   2.047
13942TIP3   OH241770   7.124   6.127   6.708
13942TIP3    H141771   7.211   6.113   6.746
13942TIP3    H241772   7.107   6.220   6.720
13943TIP3   OH241773   2.075   6.763   6.036
13943TIP3    H141774   2.046   6.777   6.126
13943TIP3    H241775   2.011   6.702   5.999
13944TIP3   OH241776   5.269   6.874   4.913
13944TIP3    H141777   5.256   6.781   4.894
13944TIP3    H241778   5.186   6.903   4.950
13945TIP3   OH241779   6.017   6.743   0.977
13945TIP3    H141780   5.937   6.724   0.929
13945TIP3    H241781   5.998   6.719   1.068
13946TIP3   OH241782   2.730   7.040   3.024
13946TIP3    H141783   2.705   7.115   3.078
13946TIP3    H241784   2.785   6.987   3.082
13947TIP3   OH241785   4.990   2.749   4.668
13947TIP3    H141786   4.934   2.694   4.613
13947TIP3    H241787   5.036   2.806   4.606
13948TIP3   OH241788   1.586   2.118   4.070
13948TIP3    H141789   1.623   2.118   4.158
13948TIP3    H241790   1.554   2.029   4.058
13949TIP3   OH241791   5.227   3.563   4.553
13949TIP3    H141792   5.181   3.621   4.493
13949TIP3    H241793   5.302   3.614   4.584
13950TIP3   OH241794   7.543   0.537   1.325
13950TIP3    H141795   7.497   0.535   1.409
13950TIP3    H241796   7.487   0.490   1.264
13951TIP3   OH241797   7.654   0.859   4.214
13951TIP3    H141798   7.747   0.860   4.191
13951TIP3    H241799   7.649   0.909   4.295
13952TIP3   OH241800   7.127   1.953   3.467
13952TIP3    H141801   7.039   1.972   3.435
13952TIP3    H241802   7.182   1.954   3.389
13953TIP3   OH241803   3.276   6.010   5.465
13953TIP3    H141804   3.358   6.032   5.421
13953TIP3    H241805   3.226   6.092   5.465
13954TIP3   OH241806   4.513   6.676   1.096
13954TIP3    H141807   4.451   6.718   1.156
13954TIP3    H241808   4.458   6.622   1.038
13955TIP3   OH241809   5.906   4.474   5.564
13955TIP3    H141810   5.864   4.472   5.650
13955TIP3    H241811   5.999   4.470   5.583
13956TIP3   OH241812   3.101   2.358   2.102
13956TIP3    H141813   3.171   2.356   2.167
13956TIP3    H241814   3.121   2.435   2.048
13957TIP3   OH241815   0.825   4.782   4.840
13957TIP3    H141816   0.876   4.708   4.808
13957TIP3    H241817   0.890   4.839   4.881
13958TIP3   OH241818   7.975   1.835   2.724
13958TIP3    H141819   7.891   1.866   2.691
13958TIP3    H241820   8.033   1.911   2.718
13959TIP3   OH241821   5.789   5.241   0.227
13959TIP3    H141822   5.802   5.333   0.207
13959TIP3    H241823   5.763   5.202   0.143
13960TIP3   OH241824   6.176   1.133   5.073
13960TIP3    H141825   6.244   1.112   5.008
13960TIP3    H241826   6.158   1.050   5.116
13961TIP3   OH241827   4.935   0.805   0.995
13961TIP3    H141828   4.889   0.883   1.024
13961TIP3    H241829   5.006   0.838   0.940
13962TIP3   OH241830   0.684   6.498   1.811
13962TIP3    H141831   0.625   6.426   1.832
13962TIP3    H241832   0.771   6.457   1.804
13963TIP3   OH241833   4.228   6.063   3.242
13963TIP3    H141834   4.213   6.113   3.162
13963TIP3    H241835   4.228   6.128   3.312
13964TIP3   OH241836   8.191   1.539   6.485
13964TIP3    H141837   8.275   1.554   6.440
13964TIP3    H241838   8.212   1.477   6.554
13965TIP3   OH241839   1.428   5.163   4.884
13965TIP3    H141840   1.417   5.221   4.960
13965TIP3    H241841   1.370   5.201   4.817
13966TIP3   OH241842   2.150   4.753   6.399
13966TIP3    H141843   2.093   4.685   6.436
13966TIP3    H241844   2.095   4.799   6.336
13967TIP3   OH241845   8.025   1.153   2.371
13967TIP3    H141846   7.931   1.168   2.365
13967TIP3    H241847   8.051   1.127   2.282
13968TIP3   OH241848   2.869   4.225   3.744
13968TIP3    H141849   2.791   4.174   3.767
13968TIP3    H241850   2.861   4.306   3.795
13969TIP3   OH241851   0.342   2.493   0.564
13969TIP3    H141852   0.338   2.584   0.592
13969TIP3    H241853   0.335   2.443   0.646
13970TIP3   OH241854   8.035   2.895   3.663
13970TIP3    H141855   8.024   2.802   3.680
13970TIP3    H241856   8.090   2.899   3.584
13971TIP3   OH241857   1.556   7.765   0.970
13971TIP3    H141858   1.463   7.768   0.995
13971TIP3    H241859   1.592   7.695   1.024
13972TIP3   OH241860   1.531   5.479   4.371
13972TIP3    H141861   1.480   5.403   4.399
13972TIP3    H241862   1.473   5.526   4.311
13973TIP3   OH241863   5.653   3.844   4.695
13973TIP3    H141864   5.741   3.821   4.726
13973TIP3    H241865   5.642   3.935   4.720
13974TIP3   OH241866   0.175   2.400   3.769
13974TIP3    H141867   0.113   2.423   3.838
13974TIP3    H241868   0.255   2.374   3.815
13975TIP3   OH241869   4.008   6.743   2.811
13975TIP3    H141870   3.978   6.818   2.862
13975TIP3    H241871   4.022   6.779   2.723
13976TIP3   OH241872   5.141   4.741   6.298
13976TIP3    H141873   5.064   4.748   6.241
13976TIP3    H241874   5.104   4.737   6.387
13977TIP3   OH241875   1.980   5.308   0.722
13977TIP3    H141876   1.924   5.376   0.759
13977TIP3    H241877   1.956   5.305   0.629
13978TIP3   OH241878   1.634   0.818   3.732
13978TIP3    H141879   1.691   0.806   3.655
13978TIP3    H241880   1.555   0.768   3.711
13979TIP3   OH241881   0.049   3.540   0.032
13979TIP3    H141882   0.130   3.493   0.009
13979TIP3    H241883  -0.014   3.470   0.053
13980TIP3   OH241884   5.013   2.553   0.553
13980TIP3    H141885   4.952   2.488   0.517
13980TIP3    H241886   5.065   2.504   0.617
13981TIP3   OH241887   2.185   3.514   0.243
13981TIP3    H141888   2.135   3.434   0.260
13981TIP3    H241889   2.125   3.570   0.192
13982TIP3   OH241890   0.496   5.818   6.557
13982TIP3    H141891   0.564   5.861   6.608
13982TIP3    H241892   0.427   5.797   6.621
13983TIP3   OH241893   7.590   5.305   1.031
13983TIP3    H141894   7.561   5.235   0.973
13983TIP3    H241895   7.685   5.298   1.032
13984TIP3   OH241896   7.151   0.490   1.996
13984TIP3    H141897   7.203   0.418   1.958
13984TIP3    H241898   7.060   0.463   1.984
13985TIP3   OH241899   3.912   1.052   2.234
13985TIP3    H141900   3.883   1.081   2.321
13985TIP3    H241901   3.934   0.960   2.245
13986TIP3   OH241902   7.653   6.022   4.688
13986TIP3    H141903   7.734   5.984   4.722
13986TIP3    H241904   7.615   5.952   4.634
13987TIP3   OH241905   3.092   4.546   0.853
13987TIP3    H141906   3.082   4.454   0.827
13987TIP3    H241907   3.021   4.592   0.809
13988TIP3   OH241908   7.910   0.460   2.098
13988TIP3    H141909   7.869   0.434   2.015
13988TIP3    H241910   8.003   0.446   2.084
13989TIP3   OH241911   7.284   4.445   0.092
13989TIP3    H141912   7.349   4.422   0.025
13989TIP3    H241913   7.333   4.497   0.155
13990TIP3   OH241914   4.108   5.713   5.950
13990TIP3    H141915   4.128   5.794   5.905
13990TIP3    H241916   4.021   5.727   5.987
13991TIP3   OH241917   6.257   2.156   5.936
13991TIP3    H141918   6.163   2.162   5.956
13991TIP3    H241919   6.297   2.131   6.019
13992TIP3   OH241920   1.011   3.041   4.545
13992TIP3    H141921   1.103   3.065   4.544
13992TIP3    H241922   1.008   2.951   4.511
13993TIP3   OH241923   7.752   7.058   4.942
13993TIP3    H141924   7.824   7.037   5.001
13993TIP3    H241925   7.721   6.973   4.911
13994TIP3   OH241926   4.340   4.358   0.968
13994TIP3    H141927   4.374   4.326   0.885
13994TIP3    H241928   4.257   4.311   0.980
13995TIP3   OH241929   1.002   7.680   4.815
13995TIP3    H141930   0.951   7.726   4.881
13995TIP3    H241931   0.980   7.588   4.827
13996TIP3   OH241932   6.907   5.507   2.257
13996TIP3    H141933   6.960   5.585   2.240
13996TIP3    H241934   6.817   5.536   2.248
13997TIP3   OH241935   6.607   4.336   1.224
13997TIP3    H141936   6.621   4.312   1.132
13997TIP3    H241937   6.575   4.426   1.221
13998TIP3   OH241938   8.042   1.156   4.288
13998TIP3    H141939   8.084   1.241   4.274
13998TIP3    H241940   8.112   1.100   4.323
13999TIP3   OH241941   6.133   5.714   4.968
13999TIP3    H141942   6.142   5.649   5.038
13999TIP3    H241943   6.143   5.663   4.888
14000TIP3   OH241944   6.576   0.356   4.198
14000TIP3    H141945   6.561   0.268   4.233
14000TIP3    H241946   6.668   0.373   4.217
14001TIP3   OH241947   1.217   7.026   0.893
14001TIP3    H141948   1.306   6.992   0.901
14001TIP3    H241949   1.173   6.965   0.834
14002TIP3   OH241950   0.529   0.847   1.929
14002TIP3    H141951   0.473   0.893   1.866
14002TIP3    H241952   0.532   0.757   1.897
14003TIP3   OH241953   1.197   1.778   3.782
14003TIP3    H141954   1.157   1.706   3.831
14003TIP3    H241955   1.280   1.741   3.749
14004TIP3   OH241956   6.626   5.960   4.285
14004TIP3    H141957   6.539   5.940   4.319
14004TIP3    H241958   6.684   5.947   4.359
14005TIP3   OH241959   7.105   1.232   1.601
14005TIP3    H141960   7.115   1.315   1.648
14005TIP3    H241961   7.128   1.165   1.665
14006TIP3   OH241962   2.051   1.950   2.605
14006TIP3    H141963   2.080   1.975   2.693
14006TIP3    H241964   2.101   1.872   2.584
14007TIP3   OH241965   3.542   6.696   4.606
14007TIP3    H141966   3.636   6.689   4.585
14007TIP3    H241967   3.509   6.607   4.593
14008TIP3   OH241968   0.786   5.518   5.179
14008TIP3    H141969   0.711   5.479   5.224
14008TIP3    H241970   0.747   5.585   5.122
14009TIP3   OH241971   5.798   1.223   0.511
14009TIP3    H141972   5.780   1.130   0.522
14009TIP3    H241973   5.714   1.266   0.526
14010TIP3   OH241974   7.650   5.695   5.602
14010TIP3    H141975   7.696   5.655   5.528
14010TIP3    H241976   7.588   5.756   5.562
14011TIP3   OH241977   4.173   4.207   3.884
14011TIP3    H141978   4.129   4.222   3.800
14011TIP3    H241979   4.129   4.266   3.945
14012TIP3   OH241980   0.201   3.766   5.245
14012TIP3    H141981   0.162   3.690   5.289
14012TIP3    H241982   0.132   3.832   5.246
14013TIP3   OH241983   1.143   5.275   3.904
14013TIP3    H141984   1.224   5.326   3.903
14013TIP3    H241985   1.164   5.198   3.957
14014TIP3   OH241986   1.861   0.924   2.131
14014TIP3    H141987   1.945   0.906   2.089
14014TIP3    H241988   1.800   0.941   2.059
14015TIP3   OH241989   2.396   2.671   4.060
14015TIP3    H141990   2.335   2.619   4.112
14015TIP3    H241991   2.483   2.642   4.088
14016TIP3   OH241992   5.862   4.809   5.242
14016TIP3    H141993   5.817   4.798   5.326
14016TIP3    H241994   5.955   4.811   5.265
14017TIP3   OH241995   6.944   1.872   0.019
14017TIP3    H141996   6.954   1.948  -0.038
14017TIP3    H241997   6.970   1.904   0.106
14018TIP3   OH241998   2.309   4.094   2.663
14018TIP3    H141999   2.324   4.128   2.575
14018TIP3    H242000   2.367   4.018   2.669
14019TIP3   OH242001   5.410   3.687   2.042
14019TIP3    H142002   5.460   3.702   2.122
14019TIP3    H242003   5.339   3.750   2.046
14020TIP3   OH242004   7.269   7.437   4.912
14020TIP3    H142005   7.363   7.422   4.922
14020TIP3    H242006   7.258   7.460   4.820
14021TIP3   OH242007   5.442   2.066   2.831
14021TIP3    H142008   5.381   1.993   2.841
14021TIP3    H242009   5.388   2.144   2.843
14022TIP3   OH242010   0.926   4.729   5.666
14022TIP3    H142011   0.916   4.810   5.716
14022TIP3    H242012   0.907   4.754   5.575
14023TIP3   OH242013   5.019   0.779   4.561
14023TIP3    H142014   4.964   0.855   4.580
14023TIP3    H242015   5.038   0.741   4.647
14024TIP3   OH242016   4.253   1.982   1.938
14024TIP3    H142017   4.206   1.938   2.009
14024TIP3    H242018   4.232   2.075   1.950
14025TIP3   OH242019   3.357   0.610   6.680
14025TIP3    H142020   3.416   0.650   6.744
14025TIP3    H242021   3.303   0.550   6.730
14026TIP3   OH242022   1.737   4.351   5.649
14026TIP3    H142023   1.730   4.320   5.740
14026TIP3    H242024   1.681   4.292   5.599
14027TIP3   OH242025   4.590   0.061   5.032
14027TIP3    H142026   4.593   0.137   5.091
14027TIP3    H242027   4.682   0.036   5.021
14028TIP3   OH242028   4.647   0.247   2.565
14028TIP3    H142029   4.652   0.250   2.470
14028TIP3    H242030   4.577   0.184   2.584
14029TIP3   OH242031   5.674   3.908   1.126
14029TIP3    H142032   5.607   3.927   1.061
14029TIP3    H242033   5.757   3.926   1.081
14030TIP3   OH242034   0.128   5.321   3.394
14030TIP3    H142035   0.164   5.349   3.479
14030TIP3    H242036   0.034   5.339   3.400
14031TIP3   OH242037   5.811   5.063   2.608
14031TIP3    H142038   5.735   5.052   2.551
14031TIP3    H242039   5.878   5.006   2.571
14032TIP3   OH242040   2.887   1.500   6.414
14032TIP3    H142041   2.973   1.466   6.436
14032TIP3    H242042   2.844   1.516   6.498
14033TIP3   OH242043   7.023   0.104   1.946
14033TIP3    H142044   7.090   0.151   1.896
14033TIP3    H242045   6.957   0.170   1.967
14034TIP3   OH242046   3.887   2.461   6.619
14034TIP3    H142047   3.887   2.529   6.686
14034TIP3    H242048   3.888   2.509   6.536
14035TIP3   OH242049   2.111   6.625   4.687
14035TIP3    H142050   2.194   6.620   4.735
14035TIP3    H242051   2.089   6.534   4.667
14036TIP3   OH242052   4.897   1.606   6.607
14036TIP3    H142053   4.932   1.540   6.667
14036TIP3    H242054   4.813   1.570   6.578
14037TIP3   OH242055   6.074   6.752   5.655
14037TIP3    H142056   6.007   6.737   5.589
14037TIP3    H242057   6.106   6.840   5.637
14038TIP3   OH242058   7.743   4.165   2.139
14038TIP3    H142059   7.833   4.136   2.122
14038TIP3    H242060   7.688   4.095   2.106
14039TIP3   OH242061   0.052   6.335   3.046
14039TIP3    H142062  -0.038   6.367   3.043
14039TIP3    H242063   0.044   6.240   3.058
14040TIP3   OH242064   5.510   2.744   6.419
14040TIP3    H142065   5.580   2.770   6.359
14040TIP3    H242066   5.462   2.825   6.436
14041TIP3   OH242067   2.870   7.141   2.100
14041TIP3    H142068   2.783   7.103   2.089
14041TIP3    H242069   2.857   7.235   2.089
14042TIP3   OH242070   4.389   7.809   2.825
14042TIP3    H142071   4.334   7.760   2.764
14042TIP3    H242072   4.387   7.899   2.793
14043TIP3   OH242073   0.007   1.311   2.092
14043TIP3    H142074   0.014   1.216   2.090
14043TIP3    H242075   0.080   1.340   2.147
14044TIP3   OH242076   2.556   7.014   2.069
14044TIP3    H142077   2.595   6.930   2.092
14044TIP3    H242078   2.535   7.055   2.152
14045TIP3   OH242079   6.634   1.620   4.958
14045TIP3    H142080   6.597   1.696   5.004
14045TIP3    H242081   6.728   1.624   4.978
14046TIP3   OH242082   6.597   5.547   5.486
14046TIP3    H142083   6.554   5.467   5.516
14046TIP3    H242084   6.643   5.521   5.406
14047TIP3   OH242085   3.668   1.386   2.426
14047TIP3    H142086   3.654   1.345   2.511
14047TIP3    H242087   3.634   1.322   2.363
14048TIP3   OH242088   3.931   6.139   3.555
14048TIP3    H142089   3.852   6.191   3.564
14048TIP3    H242090   3.925   6.074   3.625
14049TIP3   OH242091   6.810   0.983   6.312
14049TIP3    H142092   6.802   1.041   6.237
14049TIP3    H242093   6.887   1.016   6.359
14050TIP3   OH242094   4.445   5.804   4.109
14050TIP3    H142095   4.433   5.753   4.190
14050TIP3    H242096   4.378   5.770   4.050
14051TIP3   OH242097   3.830   1.093   2.507
14051TIP3    H142098   3.817   1.012   2.557
14051TIP3    H242099   3.769   1.156   2.547
14052TIP3   OH242100   6.017   5.351   1.975
14052TIP3    H142101   6.047   5.391   1.894
14052TIP3    H242102   6.001   5.425   2.034
14053TIP3   OH242103   3.103   7.785   1.122
14053TIP3    H142104   3.195   7.765   1.107
14053TIP3    H242105   3.086   7.756   1.212
14054TIP3   OH242106   6.026   7.211   3.369
14054TIP3    H142107   5.948   7.205   3.425
14054TIP3    H242108   6.091   7.156   3.413
14055TIP3   OH242109   8.068   5.912   4.217
14055TIP3    H142110   8.090   5.854   4.290
14055TIP3    H242111   8.091   6.000   4.248
14056TIP3   OH242112   8.176   6.952   5.354
14056TIP3    H142113   8.157   7.045   5.356
14056TIP3    H242114   8.115   6.913   5.416
14057TIP3   OH242115   5.140   0.384   6.148
14057TIP3    H142116   5.187   0.312   6.188
14057TIP3    H242117   5.048   0.364   6.163
14058TIP3   OH242118   5.386   2.026   5.340
14058TIP3    H142119   5.324   2.008   5.269
14058TIP3    H242120   5.470   1.995   5.307
14059TIP3   OH242121   6.886   3.391   6.469
14059TIP3    H142122   6.809   3.422   6.421
14059TIP3    H242123   6.850   3.359   6.552
14060TIP3   OH242124   0.501   5.305   2.348
14060TIP3    H142125   0.554   5.229   2.372
14060TIP3    H242126   0.422   5.268   2.309
14061TIP3   OH242127   0.629   0.800   0.668
14061TIP3    H142128   0.584   0.819   0.750
14061TIP3    H242129   0.571   0.741   0.621
14062TIP3   OH242130   3.296   2.038   3.590
14062TIP3    H142131   3.256   2.066   3.508
14062TIP3    H242132   3.367   2.101   3.605
14063TIP3   OH242133   7.329   7.269   6.243
14063TIP3    H142134   7.331   7.234   6.332
14063TIP3    H242135   7.258   7.221   6.200
14064TIP3   OH242136   6.802   5.490   5.845
14064TIP3    H142137   6.811   5.452   5.758
14064TIP3    H242138   6.708   5.504   5.856
14065TIP3   OH242139   0.527   5.303   6.627
14065TIP3    H142140   0.436   5.292   6.600
14065TIP3    H242141   0.578   5.262   6.557
14066TIP3   OH242142   5.351   0.965   5.995
14066TIP3    H142143   5.350   0.939   6.087
14066TIP3    H242144   5.361   1.060   5.997
14067TIP3   OH242145   5.771   0.992   1.792
14067TIP3    H142146   5.733   0.984   1.879
14067TIP3    H242147   5.697   1.012   1.735
14068TIP3   OH242148   2.223   6.234   4.449
14068TIP3    H142149   2.293   6.277   4.399
14068TIP3    H242150   2.269   6.185   4.517
14069TIP3   OH242151   5.556   6.213   1.077
14069TIP3    H142152   5.609   6.292   1.066
14069TIP3    H242153   5.590   6.152   1.012
14070TIP3   OH242154   5.683   7.403   0.546
14070TIP3    H142155   5.648   7.491   0.558
14070TIP3    H242156   5.766   7.416   0.500
14071TIP3   OH242157   5.123   0.461   2.849
14071TIP3    H142158   5.181   0.496   2.782
14071TIP3    H242159   5.089   0.379   2.812
14072TIP3   OH242160   4.253   0.589   4.836
14072TIP3    H142161   4.230   0.508   4.882
14072TIP3    H242162   4.294   0.560   4.755
14073TIP3   OH242163   5.563   7.427   6.279
14073TIP3    H142164   5.468   7.439   6.278
14073TIP3    H242165   5.583   7.381   6.198
14074TIP3   OH242166   2.381   3.689   0.920
14074TIP3    H142167   2.349   3.601   0.902
14074TIP3    H242168   2.472   3.688   0.890
14075TIP3   OH242169   7.144   6.369   5.069
14075TIP3    H142170   7.239   6.355   5.071
14075TIP3    H242171   7.108   6.283   5.088
14076TIP3   OH242172   4.229   1.248   4.452
14076TIP3    H142173   4.146   1.217   4.416
14076TIP3    H242174   4.205   1.310   4.521
14077TIP3   OH242175   2.070   5.997   3.067
14077TIP3    H142176   2.019   5.930   3.022
14077TIP3    H242177   2.017   6.019   3.144
14078TIP3   OH242178   1.898   4.805   2.113
14078TIP3    H142179   1.868   4.715   2.103
14078TIP3    H242180   1.896   4.821   2.207
14079TIP3   OH242181   5.419   3.929   6.693
14079TIP3    H142182   5.437   3.891   6.779
14079TIP3    H242183   5.468   4.011   6.692
14080TIP3   OH242184   5.815   2.045   5.041
14080TIP3    H142185   5.889   2.012   4.990
14080TIP3    H242186   5.760   1.969   5.057
14081TIP3   OH242187   2.356   5.425   2.231
14081TIP3    H142188   2.308   5.342   2.225
14081TIP3    H242189   2.360   5.444   2.324
14082TIP3   OH242190   5.111   3.328   1.770
14082TIP3    H142191   5.072   3.309   1.685
14082TIP3    H242192   5.143   3.418   1.762
14083TIP3   OH242193   0.930   3.909   4.723
14083TIP3    H142194   0.992   3.894   4.795
14083TIP3    H242195   0.968   3.863   4.648
14084TIP3   OH242196   1.432   1.798   6.611
14084TIP3    H142197   1.420   1.763   6.523
14084TIP3    H242198   1.473   1.727   6.660
14085TIP3   OH242199   0.475   5.838   3.893
14085TIP3    H142200   0.498   5.904   3.958
14085TIP3    H242201   0.559   5.811   3.856
14086TIP3   OH242202   0.699   6.873   0.561
14086TIP3    H142203   0.733   6.959   0.537
14086TIP3    H242204   0.721   6.817   0.487
14087TIP3   OH242205   2.910   5.133   4.573
14087TIP3    H142206   2.957   5.128   4.656
14087TIP3    H242207   2.820   5.153   4.597
14088TIP3   OH242208   5.485   1.636   5.121
14088TIP3    H142209   5.444   1.672   5.043
14088TIP3    H242210   5.563   1.690   5.135
14089TIP3   OH242211   6.035   2.582   1.604
14089TIP3    H142212   6.063   2.495   1.634
14089TIP3    H242213   6.005   2.626   1.683
14090TIP3   OH242214   1.897   5.194   0.954
14090TIP3    H142215   1.962   5.130   0.984
14090TIP3    H242216   1.941   5.242   0.883
14091TIP3   OH242217   6.662   5.140   2.744
14091TIP3    H142218   6.725   5.090   2.796
14091TIP3    H242219   6.632   5.079   2.677
14092TIP3   OH242220   5.089   4.648   3.618
14092TIP3    H142221   5.052   4.712   3.679
14092TIP3    H242222   5.160   4.695   3.574
14093TIP3   OH242223   7.906   4.378   4.209
14093TIP3    H142224   7.914   4.294   4.165
14093TIP3    H242225   7.996   4.402   4.232
14094TIP3   OH242226   5.936   1.629   5.179
14094TIP3    H142227   5.982   1.616   5.263
14094TIP3    H242228   5.896   1.543   5.161
14095TIP3   OH242229   5.228   3.894   3.548
14095TIP3    H142230   5.137   3.867   3.537
14095TIP3    H242231   5.278   3.831   3.495
14096TIP3   OH242232   1.004   1.721   5.308
14096TIP3    H142233   1.044   1.801   5.276
14096TIP3    H242234   0.910   1.737   5.303
14097TIP3   OH242235   1.538   2.647   6.324
14097TIP3    H142236   1.457   2.674   6.281
14097TIP3    H242237   1.606   2.700   6.283
14098TIP3   OH242238   6.568   4.778   0.540
14098TIP3    H142239   6.502   4.842   0.568
14098TIP3    H242240   6.552   4.701   0.594
14099TIP3   OH242241   5.591   0.432   1.180
14099TIP3    H142242   5.658   0.382   1.226
14099TIP3    H242243   5.626   0.443   1.091
14100TIP3   OH242244   0.625   1.725   5.090
14100TIP3    H142245   0.703   1.779   5.078
14100TIP3    H242246   0.614   1.679   5.007
14101TIP3   OH242247   6.658   1.094   1.488
14101TIP3    H142248   6.646   1.177   1.442
14101TIP3    H242249   6.742   1.061   1.456
14102TIP3   OH242250   0.653   7.145   6.684
14102TIP3    H142251   0.643   7.159   6.778
14102TIP3    H242252   0.564   7.139   6.651
14103TIP3   OH242253   3.006   6.757   3.442
14103TIP3    H142254   2.956   6.818   3.496
14103TIP3    H242255   3.008   6.676   3.493
14104TIP3   OH242256   1.148   2.535   3.772
14104TIP3    H142257   1.124   2.443   3.782
14104TIP3    H242258   1.079   2.572   3.717
14105TIP3   OH242259   1.275   4.013   2.008
14105TIP3    H142260   1.360   3.978   1.980
14105TIP3    H242261   1.283   4.022   2.103
14106TIP3   OH242262   2.767   0.334   4.266
14106TIP3    H142263   2.754   0.386   4.345
14106TIP3    H242264   2.828   0.266   4.292
14107TIP3   OH242265   5.127   0.233   5.757
14107TIP3    H142266   5.218   0.204   5.756
14107TIP3    H242267   5.088   0.193   5.680
14108TIP3   OH242268   6.944   0.504   2.648
14108TIP3    H142269   6.925   0.420   2.691
14108TIP3    H242270   6.967   0.563   2.720
14109TIP3   OH242271   5.251   3.770   5.715
14109TIP3    H142272   5.329   3.724   5.747
14109TIP3    H242273   5.220   3.716   5.642
14110TIP3   OH242274   4.725   3.811   2.419
14110TIP3    H142275   4.752   3.733   2.468
14110TIP3    H242276   4.632   3.798   2.402
14111TIP3   OH242277   4.076   2.222   1.458
14111TIP3    H142278   4.101   2.314   1.465
14111TIP3    H242279   4.011   2.209   1.527
14112TIP3   OH242280   5.709   1.859   4.826
14112TIP3    H142281   5.626   1.846   4.871
14112TIP3    H242282   5.686   1.907   4.747
14113TIP3   OH242283   3.525   3.005   6.684
14113TIP3    H142284   3.522   3.013   6.589
14113TIP3    H242285   3.610   3.044   6.709
14114TIP3   OH242286   5.499   3.026   4.073
14114TIP3    H142287   5.412   3.037   4.034
14114TIP3    H242288   5.495   3.077   4.154
14115TIP3   OH242289   1.944   0.301   2.991
14115TIP3    H142290   1.989   0.247   3.057
14115TIP3    H242291   1.986   0.277   2.908
14116TIP3   OH242292   7.460   3.142   2.111
14116TIP3    H142293   7.489   3.084   2.041
14116TIP3    H242294   7.530   3.140   2.175
14117TIP3   OH242295   7.530   3.565   3.245
14117TIP3    H142296   7.561   3.617   3.171
14117TIP3    H242297   7.491   3.487   3.206
14118TIP3   OH242298   2.214   6.871   2.895
14118TIP3    H142299   2.256   6.807   2.838
14118TIP3    H242300   2.121   6.848   2.893
14119TIP3   OH242301   0.991   2.228   1.729
14119TIP3    H142302   1.068   2.284   1.740
14119TIP3    H242303   0.984   2.182   1.813
14120TIP3   OH242304   3.447   6.780   0.934
14120TIP3    H142305   3.469   6.742   1.019
14120TIP3    H242306   3.496   6.728   0.870
14121TIP3   OH242307   3.599   4.471   4.737
14121TIP3    H142308   3.636   4.550   4.778
14121TIP3    H242309   3.656   4.455   4.662
14122TIP3   OH242310   3.405   0.400   5.506
14122TIP3    H142311   3.374   0.481   5.465
14122TIP3    H242312   3.475   0.428   5.564
14123TIP3   OH242313   1.689   0.821   2.882
14123TIP3    H142314   1.776   0.834   2.919
14123TIP3    H242315   1.638   0.784   2.954
14124TIP3   OH242316   7.737   7.426   0.162
14124TIP3    H142317   7.643   7.415   0.173
14124TIP3    H242318   7.746   7.502   0.105
14125TIP3   OH242319   2.870   1.621   1.366
14125TIP3    H142320   2.832   1.577   1.442
14125TIP3    H242321   2.919   1.553   1.321
14126TIP3   OH242322   0.481   0.698   2.992
14126TIP3    H142323   0.398   0.717   3.036
14126TIP3    H242324   0.521   0.783   2.977
14127TIP3   OH242325   5.897   3.089   5.398
14127TIP3    H142326   5.950   3.153   5.446
14127TIP3    H242327   5.873   3.023   5.463
14128TIP3   OH242328   4.749   7.532   1.971
14128TIP3    H142329   4.770   7.526   2.064
14128TIP3    H242330   4.820   7.485   1.928
14129TIP3   OH242331   3.794   1.466   5.459
14129TIP3    H142332   3.792   1.517   5.539
14129TIP3    H242333   3.703   1.440   5.445
14130TIP3   OH242334   4.437   7.566   3.769
14130TIP3    H142335   4.462   7.475   3.755
14130TIP3    H242336   4.419   7.573   3.862
14131TIP3   OH242337   5.230   5.770   5.502
14131TIP3    H142338   5.310   5.823   5.500
14131TIP3    H242339   5.203   5.764   5.410
14132TIP3   OH242340   0.927   7.145   5.640
14132TIP3    H142341   0.939   7.071   5.581
14132TIP3    H242342   0.857   7.117   5.699
14133TIP3   OH242343   2.720   4.474   1.367
14133TIP3    H142344   2.744   4.549   1.313
14133TIP3    H242345   2.771   4.486   1.447
14134TIP3   OH242346   6.151   6.200   4.785
14134TIP3    H142347   6.074   6.223   4.836
14134TIP3    H242348   6.179   6.283   4.746
14135TIP3   OH242349   2.944   1.820   5.471
14135TIP3    H142350   2.967   1.883   5.402
14135TIP3    H242351   3.027   1.782   5.497
14136TIP3   OH242352   7.038   6.286   2.880
14136TIP3    H142353   6.997   6.255   2.961
14136TIP3    H242354   6.981   6.357   2.850
14137TIP3   OH242355   4.666   5.763   0.608
14137TIP3    H142356   4.602   5.697   0.636
14137TIP3    H242357   4.748   5.735   0.647
14138TIP3   OH242358   2.774   5.123   6.580
14138TIP3    H142359   2.777   5.076   6.664
14138TIP3    H242360   2.849   5.088   6.531
14139TIP3   OH242361   1.631   5.376   1.236
14139TIP3    H142362   1.543   5.342   1.220
14139TIP3    H242363   1.623   5.430   1.315
14140TIP3   OH242364   6.800   7.801   0.267
14140TIP3    H142365   6.808   7.745   0.344
14140TIP3    H242366   6.841   7.883   0.292
14141TIP3   OH242367   2.414   5.878   6.762
14141TIP3    H142368   2.378   5.966   6.754
14141TIP3    H242369   2.497   5.882   6.715
14142TIP3   OH242370   5.355   7.001   3.887
14142TIP3    H142371   5.360   6.936   3.817
14142TIP3    H242372   5.410   6.965   3.957
14143TIP3   OH242373   7.902   0.217   3.804
14143TIP3    H142374   7.926   0.125   3.808
14143TIP3    H242375   7.868   0.237   3.891
14144TIP3   OH242376   2.087   0.116   3.613
14144TIP3    H142377   2.099   0.024   3.639
14144TIP3    H242378   2.164   0.160   3.648
14145TIP3   OH242379   6.904   5.321   2.706
14145TIP3    H142380   6.997   5.301   2.703
14145TIP3    H242381   6.860   5.237   2.697
14146TIP3   OH242382   4.913   1.945   0.391
14146TIP3    H142383   4.853   1.947   0.466
14146TIP3    H242384   4.961   2.027   0.396
14147TIP3   OH242385   3.643   7.836   6.303
14147TIP3    H142386   3.671   7.793   6.384
14147TIP3    H242387   3.548   7.832   6.305
14148TIP3   OH242388   4.157   6.434   5.620
14148TIP3    H142389   4.136   6.411   5.530
14148TIP3    H242390   4.078   6.477   5.654
14149TIP3   OH242391   4.478   7.525   6.281
14149TIP3    H142392   4.489   7.570   6.198
14149TIP3    H242393   4.385   7.536   6.302
14150TIP3   OH242394   7.548   2.553   4.107
14150TIP3    H142395   7.498   2.501   4.044
14150TIP3    H242396   7.509   2.641   4.101
14151TIP3   OH242397   3.769   4.347   2.843
14151TIP3    H142398   3.745   4.344   2.935
14151TIP3    H242399   3.700   4.398   2.802
14152TIP3   OH242400   7.013   4.343   5.429
14152TIP3    H142401   6.943   4.356   5.493
14152TIP3    H242402   7.092   4.376   5.472
14153TIP3   OH242403   0.747   0.896   6.627
14153TIP3    H142404   0.814   0.832   6.602
14153TIP3    H242405   0.716   0.865   6.713
14154TIP3   OH242406   3.858   6.215   2.483
14154TIP3    H142407   3.908   6.228   2.403
14154TIP3    H242408   3.918   6.240   2.553
14155TIP3   OH242409   8.265   6.261   6.314
14155TIP3    H142410   8.238   6.171   6.294
14155TIP3    H242411   8.304   6.292   6.232
14156TIP3   OH242412   6.862   4.143   6.641
14156TIP3    H142413   6.778   4.103   6.665
14156TIP3    H242414   6.908   4.155   6.724
14157TIP3   OH242415   1.728   1.503   5.675
14157TIP3    H142416   1.716   1.597   5.656
14157TIP3    H242417   1.641   1.474   5.703
14158TIP3   OH242418   6.636   0.577   0.507
14158TIP3    H142419   6.643   0.549   0.415
14158TIP3    H242420   6.565   0.524   0.543
14159TIP3   OH242421   7.792   0.533   1.234
14159TIP3    H142422   7.711   0.547   1.284
14159TIP3    H242423   7.825   0.448   1.264
14160TIP3   OH242424   7.664   3.053   1.294
14160TIP3    H142425   7.722   3.129   1.288
14160TIP3    H242426   7.580   3.089   1.321
14161TIP3   OH242427   2.210   1.214   6.522
14161TIP3    H142428   2.282   1.276   6.512
14161TIP3    H242429   2.228   1.171   6.606
14162TIP3   OH242430   5.215   4.863   5.199
14162TIP3    H142431   5.271   4.803   5.248
14162TIP3    H242432   5.133   4.815   5.186
14163TIP3   OH242433   5.181   1.412   4.682
14163TIP3    H142434   5.098   1.457   4.667
14163TIP3    H242435   5.158   1.320   4.689
14164TIP3   OH242436   6.651   5.896   2.423
14164TIP3    H142437   6.718   5.864   2.483
14164TIP3    H242438   6.620   5.977   2.462
14165TIP3   OH242439   1.444   2.473   2.145
14165TIP3    H142440   1.498   2.526   2.085
14165TIP3    H242441   1.415   2.399   2.092
14166TIP3   OH242442   1.856   5.715   2.784
14166TIP3    H142443   1.880   5.626   2.760
14166TIP3    H242444   1.791   5.741   2.719
14167TIP3   OH242445   0.380   1.255   1.346
14167TIP3    H142446   0.471   1.251   1.377
14167TIP3    H242447   0.332   1.196   1.405
14168TIP3   OH242448   8.090   4.254   4.909
14168TIP3    H142449   8.001   4.225   4.929
14168TIP3    H242450   8.100   4.336   4.957
14169TIP3   OH242451   3.722   2.426   0.355
14169TIP3    H142452   3.640   2.412   0.307
14169TIP3    H242453   3.703   2.400   0.445
14170TIP3   OH242454   7.174   5.529   6.069
14170TIP3    H142455   7.102   5.465   6.066
14170TIP3    H242456   7.155   5.589   5.997
14171TIP3   OH242457   4.521   6.262   6.273
14171TIP3    H142458   4.585   6.333   6.263
14171TIP3    H242459   4.552   6.194   6.213
14172TIP3   OH242460   7.128   7.140   6.633
14172TIP3    H142461   7.202   7.082   6.654
14172TIP3    H242462   7.082   7.095   6.563
14173TIP3   OH242463   6.631   4.048   4.153
14173TIP3    H142464   6.576   4.118   4.118
14173TIP3    H242465   6.621   4.054   4.248
14174TIP3   OH242466   1.049   6.086   0.254
14174TIP3    H142467   0.962   6.059   0.283
14174TIP3    H242468   1.064   6.034   0.174
14175TIP3   OH242469   3.496   5.699   4.475
14175TIP3    H142470   3.428   5.754   4.514
14175TIP3    H242471   3.448   5.640   4.416
14176TIP3   OH242472   6.009   0.358   3.691
14176TIP3    H142473   6.068   0.380   3.619
14176TIP3    H242474   6.045   0.404   3.767
14177TIP3   OH242475   4.846   5.558   2.029
14177TIP3    H142476   4.766   5.612   2.034
14177TIP3    H242477   4.828   5.484   2.087
14178TIP3   OH242478   3.945   4.228   2.644
14178TIP3    H142479   3.897   4.259   2.721
14178TIP3    H242480   3.958   4.134   2.660
14179TIP3   OH242481   3.958   2.528   3.707
14179TIP3    H142482   3.867   2.499   3.714
14179TIP3    H242483   3.991   2.525   3.796
14180TIP3   OH242484   7.983   3.544   0.987
14180TIP3    H142485   7.932   3.467   1.011
14180TIP3    H242486   7.932   3.586   0.918
14181TIP3   OH242487   7.175   4.870   2.808
14181TIP3    H142488   7.170   4.946   2.866
14181TIP3    H242489   7.176   4.795   2.867
14182TIP3   OH242490   0.777   2.162   2.957
14182TIP3    H142491   0.798   2.069   2.944
14182TIP3    H242492   0.731   2.164   3.041
14183TIP3   OH242493   7.777   5.853   4.993
14183TIP3    H142494   7.691   5.884   5.021
14183TIP3    H242495   7.768   5.757   4.991
14184TIP3   OH242496   6.262   0.741   2.018
14184TIP3    H142497   6.257   0.835   1.998
14184TIP3    H242498   6.189   0.725   2.077
14185TIP3   OH242499   0.581   3.772   0.188
14185TIP3    H142500   0.602   3.742   0.100
14185TIP3    H242501   0.560   3.865   0.178
14186TIP3   OH242502   1.896   2.386   0.434
14186TIP3    H142503   1.934   2.347   0.512
14186TIP3    H242504   1.970   2.401   0.376
14187TIP3   OH242505   2.992   2.785   6.069
14187TIP3    H142506   2.967   2.805   5.979
14187TIP3    H242507   3.087   2.797   6.071
14188TIP3   OH242508   4.366   5.372   0.547
14188TIP3    H142509   4.372   5.353   0.641
14188TIP3    H242510   4.368   5.286   0.505
14189TIP3   OH242511   1.374   4.745   3.629
14189TIP3    H142512   1.363   4.659   3.589
14189TIP3    H242513   1.327   4.739   3.712
14190TIP3   OH242514   7.758   5.702   0.456
14190TIP3    H142515   7.785   5.624   0.505
14190TIP3    H242516   7.826   5.767   0.475
14191TIP3   OH242517   2.714   1.520   4.863
14191TIP3    H142518   2.730   1.485   4.776
14191TIP3    H242519   2.628   1.560   4.858
14192TIP3   OH242520   5.026   6.437   2.078
14192TIP3    H142521   4.940   6.439   2.035
14192TIP3    H242522   5.006   6.441   2.171
14193TIP3   OH242523   5.122   5.469   4.775
14193TIP3    H142524   5.062   5.517   4.832
14193TIP3    H242525   5.206   5.472   4.820
14194TIP3   OH242526   6.069   0.070   3.825
14194TIP3    H142527   6.097   0.001   3.884
14194TIP3    H242528   6.115   0.148   3.855
14195TIP3   OH242529   1.608   2.495   0.350
14195TIP3    H142530   1.688   2.457   0.385
14195TIP3    H242531   1.628   2.513   0.258
14196TIP3   OH242532   5.677   0.085   3.186
14196TIP3    H142533   5.677   0.098   3.281
14196TIP3    H242534   5.626   0.158   3.151
14197TIP3   OH242535   5.776   5.046   3.260
14197TIP3    H142536   5.841   5.079   3.197
14197TIP3    H242537   5.697   5.032   3.207
14198TIP3   OH242538   3.615   2.377   1.691
14198TIP3    H142539   3.675   2.438   1.734
14198TIP3    H242540   3.658   2.353   1.610
14199TIP3   OH242541   6.066   0.067   2.388
14199TIP3    H142542   6.092  -0.018   2.355
14199TIP3    H242543   6.019   0.108   2.315
14200TIP3   OH242544   4.882   1.519   3.794
14200TIP3    H142545   4.869   1.515   3.699
14200TIP3    H242546   4.927   1.438   3.815
14201TIP3   OH242547   1.015   5.378   5.307
14201TIP3    H142548   0.946   5.318   5.335
14201TIP3    H242549   0.967   5.451   5.267
14202TIP3   OH242550   4.845   6.713   0.820
14202TIP3    H142551   4.848   6.630   0.773
14202TIP3    H242552   4.868   6.778   0.753
14203TIP3   OH242553   2.571   0.150   6.646
14203TIP3    H142554   2.600   0.166   6.736
14203TIP3    H242555   2.640   0.189   6.592
14204TIP3   OH242556   7.110   2.100   5.856
14204TIP3    H142557   7.059   2.149   5.792
14204TIP3    H242558   7.045   2.064   5.916
14205TIP3   OH242559   2.959   5.059   0.781
14205TIP3    H142560   3.029   5.088   0.723
14205TIP3    H242561   3.004   5.012   0.851
14206TIP3   OH242562   5.275   2.002   6.118
14206TIP3    H142563   5.205   1.941   6.141
14206TIP3    H242564   5.352   1.970   6.165
14207TIP3   OH242565   8.139   0.871   5.979
14207TIP3    H142566   8.056   0.919   5.974
14207TIP3    H242567   8.206   0.939   5.977
14208TIP3   OH242568   2.905   1.388   6.070
14208TIP3    H142569   2.846   1.319   6.101
14208TIP3    H242570   2.852   1.467   6.072
14209TIP3   OH242571   7.149   0.947   0.779
14209TIP3    H142572   7.102   0.871   0.813
14209TIP3    H242573   7.241   0.931   0.802
14210TIP3   OH242574   7.387   6.510   3.593
14210TIP3    H142575   7.463   6.526   3.648
14210TIP3    H242576   7.313   6.546   3.643
14211TIP3   OH242577   3.211   4.675   2.488
14211TIP3    H142578   3.161   4.724   2.423
14211TIP3    H242579   3.256   4.608   2.438
14212TIP3   OH242580   8.069   7.414   5.576
14212TIP3    H142581   8.123   7.471   5.631
14212TIP3    H242582   8.078   7.451   5.487
14213TIP3   OH242583   3.655   7.582   3.514
14213TIP3    H142584   3.737   7.546   3.548
14213TIP3    H242585   3.598   7.506   3.503
14214TIP3   OH242586   7.329   0.573   6.629
14214TIP3    H142587   7.369   0.492   6.598
14214TIP3    H242588   7.238   0.550   6.645
14215TIP3   OH242589   7.896   5.486   4.201
14215TIP3    H142590   7.944   5.422   4.148
14215TIP3    H242591   7.851   5.433   4.267
14216TIP3   OH242592   5.331   1.886   3.681
14216TIP3    H142593   5.255   1.828   3.678
14216TIP3    H242594   5.364   1.887   3.591
14217TIP3   OH242595   8.296   7.203   1.713
14217TIP3    H142596   8.363   7.269   1.726
14217TIP3    H242597   8.257   7.191   1.800
14218TIP3   OH242598   2.417   4.211   2.198
14218TIP3    H142599   2.331   4.251   2.194
14218TIP3    H242600   2.401   4.117   2.207
14219TIP3   OH242601   7.766   6.093   1.059
14219TIP3    H142602   7.740   6.014   1.107
14219TIP3    H242603   7.842   6.127   1.107
14220TIP3   OH242604   1.638   7.523   3.362
14220TIP3    H142605   1.561   7.565   3.401
14220TIP3    H242606   1.648   7.565   3.277
14221TIP3   OH242607   0.994   0.382   2.770
14221TIP3    H142608   0.952   0.307   2.729
14221TIP3    H242609   0.986   0.452   2.705
14222TIP3   OH242610   0.138   2.001   5.272
14222TIP3    H142611   0.155   1.908   5.289
14222TIP3    H242612   0.049   2.015   5.303
14223TIP3   OH242613   3.302   6.792   3.417
14223TIP3    H142614   3.207   6.795   3.419
14223TIP3    H242615   3.324   6.708   3.458
14224TIP3   OH242616   4.219   5.400   1.041
14224TIP3    H142617   4.194   5.311   1.062
14224TIP3    H242618   4.279   5.425   1.112
14225TIP3   OH242619   6.314   3.013   0.330
14225TIP3    H142620   6.331   2.919   0.341
14225TIP3    H242621   6.396   3.055   0.358
14226TIP3   OH242622   3.751   7.506   4.304
14226TIP3    H142623   3.810   7.487   4.231
14226TIP3    H242624   3.809   7.533   4.376
14227TIP3   OH242625   0.262   7.516   3.039
14227TIP3    H142626   0.223   7.450   2.981
14227TIP3    H242627   0.354   7.520   3.011
14228TIP3   OH242628   3.545   5.807   6.477
14228TIP3    H142629   3.546   5.714   6.501
14228TIP3    H242630   3.610   5.847   6.536
14229TIP3   OH242631   3.403   7.441   0.158
14229TIP3    H142632   3.440   7.408   0.240
14229TIP3    H242633   3.401   7.366   0.099
14230TIP3   OH242634   5.665   0.227   4.407
14230TIP3    H142635   5.740   0.187   4.452
14230TIP3    H242636   5.614   0.153   4.375
14231TIP3   OH242637   0.573   0.974   6.139
14231TIP3    H142638   0.505   0.937   6.196
14231TIP3    H242639   0.639   0.906   6.134
14232TIP3   OH242640   5.273   0.373   1.912
14232TIP3    H142641   5.183   0.352   1.937
14232TIP3    H242642   5.303   0.296   1.862
14233TIP3   OH242643   0.781   7.575   1.805
14233TIP3    H142644   0.690   7.544   1.809
14233TIP3    H242645   0.827   7.507   1.756
14234TIP3   OH242646   6.135   0.680   3.585
14234TIP3    H142647   6.192   0.605   3.599
14234TIP3    H242648   6.064   0.647   3.529
14235TIP3   OH242649   1.727   2.297   5.277
14235TIP3    H142650   1.768   2.282   5.192
14235TIP3    H242651   1.633   2.305   5.257
14236TIP3   OH242652   0.968   5.676   4.414
14236TIP3    H142653   0.886   5.637   4.442
14236TIP3    H242654   1.000   5.617   4.345
14237TIP3   OH242655   4.358   5.474   4.789
14237TIP3    H142656   4.450   5.448   4.791
14237TIP3    H242657   4.346   5.511   4.701
14238TIP3   OH242658   3.582   0.244   0.967
14238TIP3    H142659   3.527   0.322   0.972
14238TIP3    H242660   3.614   0.232   1.056
14239TIP3   OH242661   0.394   3.030   0.225
14239TIP3    H142662   0.403   3.120   0.256
14239TIP3    H242663   0.319   3.032   0.166
14240TIP3   OH242664   0.187   1.155   3.982
14240TIP3    H142665   0.263   1.134   3.929
14240TIP3    H242666   0.188   1.251   3.989
14241TIP3   OH242667   5.378   1.268   6.696
14241TIP3    H142668   5.349   1.321   6.769
14241TIP3    H242669   5.400   1.331   6.627
14242TIP3   OH242670   6.317   7.745   5.219
14242TIP3    H142671   6.222   7.739   5.217
14242TIP3    H242672   6.346   7.699   5.140
14243TIP3   OH242673   5.492   3.661   6.439
14243TIP3    H142674   5.482   3.575   6.479
14243TIP3    H242675   5.410   3.677   6.394
14244TIP3   OH242676   6.239   3.336   1.636
14244TIP3    H142677   6.260   3.407   1.696
14244TIP3    H242678   6.145   3.324   1.643
14245TIP3   OH242679   5.694   6.923   4.051
14245TIP3    H142680   5.624   6.922   4.115
14245TIP3    H242681   5.681   7.005   4.002
14246TIP3   OH242682   5.469   6.856   3.457
14246TIP3    H142683   5.502   6.902   3.379
14246TIP3    H242684   5.511   6.900   3.531
14247TIP3   OH242685   1.771   3.074   5.932
14247TIP3    H142686   1.723   3.145   5.975
14247TIP3    H242687   1.818   3.030   6.004
14248TIP3   OH242688   6.096   0.740   0.905
14248TIP3    H142689   6.130   0.655   0.875
14248TIP3    H242690   6.024   0.760   0.845
14249TIP3   OH242691   4.876   5.154   2.859
14249TIP3    H142692   4.814   5.210   2.812
14249TIP3    H242693   4.911   5.209   2.928
14250TIP3   OH242694   0.001   0.984   4.351
14250TIP3    H142695   0.038   1.008   4.266
14250TIP3    H242696   0.035   1.051   4.411
14251TIP3   OH242697   3.060   0.719   3.560
14251TIP3    H142698   3.053   0.812   3.540
14251TIP3    H242699   3.044   0.675   3.476
14252TIP3   OH242700   5.483   6.170   1.685
14252TIP3    H142701   5.500   6.076   1.688
14252TIP3    H242702   5.457   6.192   1.775
14253TIP3   OH242703   6.364   4.260   2.176
14253TIP3    H142704   6.411   4.337   2.145
14253TIP3    H242705   6.288   4.252   2.118
14254TIP3   OH242706   8.098   7.519   5.035
14254TIP3    H142707   8.046   7.544   4.959
14254TIP3    H242708   8.126   7.602   5.074
14255TIP3   OH242709   0.385   3.643   4.097
14255TIP3    H142710   0.383   3.676   4.187
14255TIP3    H242711   0.304   3.675   4.058
14256TIP3   OH242712   3.772   1.748   5.224
14256TIP3    H142713   3.736   1.736   5.312
14256TIP3    H242714   3.721   1.820   5.188
14257TIP3   OH242715   0.959   7.179   2.855
14257TIP3    H142716   0.966   7.245   2.924
14257TIP3    H242717   1.045   7.179   2.814
14258TIP3   OH242718   7.387   0.161   5.646
14258TIP3    H142719   7.337   0.082   5.629
14258TIP3    H242720   7.446   0.137   5.718
14259TIP3   OH242721   0.757   4.136   3.776
14259TIP3    H142722   0.741   4.112   3.867
14259TIP3    H242723   0.835   4.086   3.751
14260TIP3   OH242724   5.332   4.565   4.867
14260TIP3    H142725   5.279   4.640   4.894
14260TIP3    H242726   5.337   4.572   4.771
14261TIP3   OH242727   3.713   6.921   0.238
14261TIP3    H142728   3.699   6.830   0.266
14261TIP3    H242729   3.803   6.941   0.265
14262TIP3   OH242730   8.234   3.332   6.034
14262TIP3    H142731   8.308   3.348   6.092
14262TIP3    H242732   8.202   3.419   6.011
14263TIP3   OH242733   4.045   7.405   0.191
14263TIP3    H142734   4.095   7.483   0.215
14263TIP3    H242735   3.960   7.418   0.232
14264TIP3   OH242736   1.944   2.598   0.748
14264TIP3    H142737   1.952   2.502   0.752
14264TIP3    H242738   2.020   2.630   0.796
14265TIP3   OH242739   4.022   1.904   5.184
14265TIP3    H142740   3.927   1.889   5.176
14265TIP3    H242741   4.040   1.973   5.120
14266TIP3   OH242742   6.070   3.580   3.388
14266TIP3    H142743   6.162   3.580   3.413
14266TIP3    H242744   6.038   3.667   3.413
14267TIP3   OH242745   3.621   0.473   6.113
14267TIP3    H142746   3.671   0.503   6.188
14267TIP3    H242747   3.665   0.393   6.085
14268TIP3   OH242748   3.835   5.974   4.203
14268TIP3    H142749   3.879   6.036   4.146
14268TIP3    H242750   3.742   5.991   4.189
14269TIP3   OH242751   8.242   0.655   0.790
14269TIP3    H142752   8.253   0.701   0.874
14269TIP3    H242753   8.198   0.718   0.733
14270TIP3   OH242754   7.084   6.948   4.853
14270TIP3    H142755   7.082   6.890   4.930
14270TIP3    H242756   6.999   6.992   4.855
14271TIP3   OH242757   2.046   6.864   4.566
14271TIP3    H142758   1.982   6.855   4.495
14271TIP3    H242759   2.058   6.775   4.599
14272TIP3   OH242760   6.466   0.402   0.633
14272TIP3    H142761   6.510   0.322   0.603
14272TIP3    H242762   6.373   0.379   0.633
14273TIP3   OH242763   6.250   3.290   3.052
14273TIP3    H142764   6.281   3.203   3.074
14273TIP3    H242765   6.156   3.289   3.074
14274TIP3   OH242766   3.210   6.094   2.168
14274TIP3    H142767   3.301   6.062   2.171
14274TIP3    H242768   3.219   6.189   2.160
14275TIP3   OH242769   2.355   2.491   6.172
14275TIP3    H142770   2.425   2.473   6.236
14275TIP3    H242771   2.287   2.535   6.223
14276TIP3   OH242772   8.189   1.348   5.954
14276TIP3    H142773   8.255   1.368   5.888
14276TIP3    H242774   8.211   1.261   5.985
14277TIP3   OH242775   1.837   1.970   2.896
14277TIP3    H142776   1.898   1.972   2.970
14277TIP3    H242777   1.816   1.877   2.884
14278TIP3   OH242778   6.002   4.846   1.067
14278TIP3    H142779   5.974   4.871   1.155
14278TIP3    H242780   5.933   4.788   1.035
14279TIP3   OH242781   7.050   1.985   0.277
14279TIP3    H142782   7.031   2.077   0.296
14279TIP3    H242783   6.985   1.936   0.328
14280TIP3   OH242784   2.020   2.372   6.381
14280TIP3    H142785   1.959   2.303   6.406
14280TIP3    H242786   1.965   2.447   6.359
14281TIP3   OH242787   7.938   1.113   2.077
14281TIP3    H142788   7.994   1.057   2.024
14281TIP3    H242789   7.876   1.151   2.015
14282TIP3   OH242790   7.046   1.287   2.067
14282TIP3    H142791   7.066   1.194   2.078
14282TIP3    H242792   6.961   1.298   2.110
14283TIP3   OH242793   4.464   3.494   5.223
14283TIP3    H142794   4.393   3.449   5.178
14283TIP3    H242795   4.504   3.549   5.156
14284TIP3   OH242796   3.520   0.649   0.130
14284TIP3    H142797   3.461   0.699   0.187
14284TIP3    H242798   3.540   0.708   0.058
14285TIP3   OH242799   1.658   0.542   0.243
14285TIP3    H142800   1.662   0.630   0.205
14285TIP3    H242801   1.688   0.484   0.173
14286TIP3   OH242802   3.168   1.271   5.213
14286TIP3    H142803   3.150   1.180   5.234
14286TIP3    H242804   3.160   1.317   5.297
14287TIP3   OH242805   7.641   1.452   0.111
14287TIP3    H142806   7.719   1.508   0.115
14287TIP3    H242807   7.610   1.447   0.202
14288TIP3   OH242808   4.180   3.284   5.782
14288TIP3    H142809   4.267   3.297   5.821
14288TIP3    H242810   4.140   3.217   5.838
14289TIP3   OH242811   1.896   4.232   0.297
14289TIP3    H142812   1.981   4.237   0.252
14289TIP3    H242813   1.919   4.234   0.390
14290TIP3   OH242814   2.731   4.617   6.374
14290TIP3    H142815   2.641   4.646   6.356
14290TIP3    H242816   2.726   4.521   6.374
14291TIP3   OH242817   5.805   0.456   4.310
14291TIP3    H142818   5.729   0.397   4.312
14291TIP3    H242819   5.852   0.436   4.391
14292TIP3   OH242820   1.511   3.355   5.519
14292TIP3    H142821   1.476   3.405   5.445
14292TIP3    H242822   1.605   3.349   5.502
14293TIP3   OH242823   7.446   5.395   1.451
14293TIP3    H142824   7.476   5.318   1.499
14293TIP3    H242825   7.494   5.468   1.490
14294TIP3   OH242826   2.176   3.253   3.225
14294TIP3    H142827   2.226   3.211   3.295
14294TIP3    H242828   2.229   3.243   3.147
14295TIP3   OH242829   6.838   3.277   1.741
14295TIP3    H142830   6.784   3.293   1.663
14295TIP3    H242831   6.918   3.326   1.725
14296TIP3   OH242832   0.600   4.855   0.058
14296TIP3    H142833   0.561   4.933   0.097
14296TIP3    H242834   0.694   4.874   0.057
14297TIP3   OH242835   7.438   6.603   4.101
14297TIP3    H142836   7.396   6.631   4.183
14297TIP3    H242837   7.529   6.586   4.126
14298TIP3   OH242838   6.569   1.330   4.937
14298TIP3    H142839   6.587   1.299   5.025
14298TIP3    H242840   6.579   1.425   4.942
14299TIP3   OH242841   0.523   0.142   3.107
14299TIP3    H142842   0.438   0.106   3.081
14299TIP3    H242843   0.582   0.121   3.035
14300TIP3   OH242844   7.227   0.168   3.580
14300TIP3    H142845   7.264   0.080   3.581
14300TIP3    H242846   7.204   0.185   3.671
14301TIP3   OH242847   3.583   5.056   5.626
14301TIP3    H142848   3.587   5.150   5.609
14301TIP3    H242849   3.493   5.042   5.656
14302TIP3   OH242850   2.789   5.457   2.739
14302TIP3    H142851   2.761   5.465   2.830
14302TIP3    H242852   2.884   5.449   2.744
14303TIP3   OH242853   4.138   2.194   2.404
14303TIP3    H142854   4.141   2.290   2.410
14303TIP3    H242855   4.056   2.170   2.447
14304TIP3   OH242856   0.958   6.233   5.095
14304TIP3    H142857   0.865   6.213   5.084
14304TIP3    H242858   0.971   6.314   5.044
14305TIP3   OH242859   6.115   1.074   5.694
14305TIP3    H142860   6.199   1.119   5.695
14305TIP3    H242861   6.055   1.136   5.653
14306TIP3   OH242862   4.347   7.596   4.031
14306TIP3    H142863   4.273   7.656   4.034
14306TIP3    H242864   4.406   7.627   4.100
14307TIP3   OH242865   3.398   4.343   5.331
14307TIP3    H142866   3.338   4.407   5.370
14307TIP3    H242867   3.348   4.261   5.331
14308TIP3   OH242868   7.826   1.886   3.947
14308TIP3    H142869   7.811   1.979   3.964
14308TIP3    H242870   7.854   1.883   3.855
14309TIP3   OH242871   1.496   5.929   5.332
14309TIP3    H142872   1.576   5.981   5.321
14309TIP3    H242873   1.527   5.845   5.366
14310TIP3   OH242874   2.210   1.091   1.247
14310TIP3    H142875   2.200   1.092   1.151
14310TIP3    H242876   2.261   1.170   1.266
14311TIP3   OH242877   2.291   2.918   5.287
14311TIP3    H142878   2.213   2.875   5.253
14311TIP3    H242879   2.266   2.945   5.376
14312TIP3   OH242880   8.298   4.866   1.283
14312TIP3    H142881   8.223   4.835   1.333
14312TIP3    H242882   8.279   4.840   1.193
14313TIP3   OH242883   0.517   6.302   1.881
14313TIP3    H142884   0.428   6.319   1.909
14313TIP3    H242885   0.519   6.209   1.859
14314TIP3   OH242886   6.193   2.172   6.395
14314TIP3    H142887   6.125   2.239   6.390
14314TIP3    H242888   6.253   2.204   6.463
14315TIP3   OH242889   2.753   7.210   0.523
14315TIP3    H142890   2.823   7.256   0.476
14315TIP3    H242891   2.672   7.249   0.491
14316TIP3   OH242892   0.158   1.197   0.349
14316TIP3    H142893   0.096   1.203   0.423
14316TIP3    H242894   0.209   1.118   0.367
14317TIP3   OH242895   6.319   2.596   4.505
14317TIP3    H142896   6.248   2.556   4.455
14317TIP3    H242897   6.332   2.681   4.463
14318TIP3   OH242898   4.532   4.431   0.186
14318TIP3    H142899   4.567   4.509   0.229
14318TIP3    H242900   4.526   4.366   0.256
14319TIP3   OH242901   4.853   1.432   6.218
14319TIP3    H142902   4.891   1.344   6.224
14319TIP3    H242903   4.873   1.462   6.130
14320TIP3   OH242904   0.374   3.742   1.891
14320TIP3    H142905   0.341   3.752   1.802
14320TIP3    H242906   0.451   3.685   1.881
14321TIP3   OH242907   0.874   7.671   2.875
14321TIP3    H142908   0.901   7.716   2.955
14321TIP3    H242909   0.823   7.736   2.826
14322TIP3   OH242910   7.473   0.942   2.256
14322TIP3    H142911   7.438   0.911   2.173
14322TIP3    H242912   7.568   0.926   2.250
14323TIP3   OH242913   7.000   0.593   0.152
14323TIP3    H142914   7.023   0.541   0.075
14323TIP3    H242915   6.978   0.679   0.116
14324TIP3   OH242916   6.353   3.748   5.369
14324TIP3    H142917   6.366   3.782   5.281
14324TIP3    H242918   6.313   3.661   5.356
14325TIP3   OH242919   0.630   0.157   0.346
14325TIP3    H142920   0.583   0.120   0.272
14325TIP3    H242921   0.616   0.095   0.418
14326TIP3   OH242922   0.401   2.177   2.162
14326TIP3    H142923   0.469   2.185   2.229
14326TIP3    H242924   0.449   2.183   2.079
14327TIP3   OH242925   0.924   6.530   1.047
14327TIP3    H142926   0.889   6.599   1.103
14327TIP3    H242927   0.936   6.455   1.105
14328TIP3   OH242928   4.206   6.824   3.074
14328TIP3    H142929   4.169   6.774   3.001
14328TIP3    H242930   4.138   6.822   3.141
14329TIP3   OH242931   2.623   3.205   2.998
14329TIP3    H142932   2.666   3.235   2.918
14329TIP3    H242933   2.667   3.123   3.020
14330TIP3   OH242934   4.190   0.269   3.789
14330TIP3    H142935   4.267   0.213   3.794
14330TIP3    H242936   4.225   0.356   3.770
14331TIP3   OH242937   6.935   3.918   4.410
14331TIP3    H142938   7.018   3.893   4.369
14331TIP3    H242939   6.870   3.863   4.366
14332TIP3   OH242940   2.430   1.834   1.389
14332TIP3    H142941   2.510   1.862   1.433
14332TIP3    H242942   2.417   1.743   1.418
14333TIP3   OH242943   0.298   3.008   6.524
14333TIP3    H142944   0.312   3.029   6.432
14333TIP3    H242945   0.215   3.051   6.545
14334TIP3   OH242946   2.360   7.424   4.617
14334TIP3    H142947   2.346   7.346   4.670
14334TIP3    H242948   2.448   7.414   4.582
14335TIP3   OH242949   3.427   7.498   1.500
14335TIP3    H142950   3.344   7.452   1.509
14335TIP3    H242951   3.425   7.534   1.411
14336TIP3   OH242952   1.674   7.718   5.358
14336TIP3    H142953   1.672   7.691   5.266
14336TIP3    H242954   1.608   7.787   5.364
14337TIP3   OH242955   0.683   4.175   6.696
14337TIP3    H142956   0.705   4.169   6.788
14337TIP3    H242957   0.599   4.222   6.694
14338TIP3   OH242958   4.398   3.076   4.953
14338TIP3    H142959   4.383   2.996   4.902
14338TIP3    H242960   4.431   3.139   4.888
14339TIP3   OH242961   8.028   1.958   3.016
14339TIP3    H142962   8.067   1.871   3.022
14339TIP3    H242963   7.934   1.941   3.004
14340TIP3   OH242964   3.704   0.104   5.072
14340TIP3    H142965   3.751   0.112   5.155
14340TIP3    H242966   3.672   0.014   5.071
14341TIP3   OH242967   3.982   0.992   2.857
14341TIP3    H142968   4.032   0.911   2.852
14341TIP3    H242969   3.894   0.965   2.884
14342TIP3   OH242970   6.296   6.150   6.070
14342TIP3    H142971   6.331   6.239   6.077
14342TIP3    H242972   6.202   6.161   6.080
14343TIP3   OH242973   5.640   0.570   6.176
14343TIP3    H142974   5.682   0.539   6.256
14343TIP3    H242975   5.604   0.656   6.200
14344TIP3   OH242976   1.254   4.748   0.489
14344TIP3    H142977   1.181   4.803   0.461
14344TIP3    H242978   1.312   4.744   0.412
14345TIP3   OH242979   6.589   6.044   4.936
14345TIP3    H142980   6.566   6.135   4.919
14345TIP3    H242981   6.506   5.997   4.934
14346TIP3   OH242982   4.397   0.842   2.565
14346TIP3    H142983   4.443   0.820   2.646
14346TIP3    H242984   4.466   0.859   2.501
14347TIP3   OH242985   3.198   7.382   5.816
14347TIP3    H142986   3.184   7.392   5.722
14347TIP3    H242987   3.290   7.358   5.824
14348TIP3   OH242988   3.515   1.824   6.015
14348TIP3    H142989   3.487   1.778   6.094
14348TIP3    H242990   3.496   1.916   6.033
14349TIP3   OH242991   3.571   5.703   6.132
14349TIP3    H142992   3.616   5.773   6.180
14349TIP3    H242993   3.539   5.644   6.200
14350TIP3   OH242994   1.752   0.114   5.081
14350TIP3    H142995   1.846   0.109   5.099
14350TIP3    H242996   1.711   0.100   5.167
14351TIP3   OH242997   0.355   1.374   2.112
14351TIP3    H142998   0.309   1.379   2.196
14351TIP3    H242999   0.337   1.458   2.069
14352TIP3   OH243000   7.770   6.943   6.778
14352TIP3    H143001   7.808   6.860   6.807
14352TIP3    H243002   7.795   6.950   6.686
14353TIP3   OH243003   7.437   5.877   3.468
14353TIP3    H143004   7.496   5.934   3.419
14353TIP3    H243005   7.363   5.934   3.491
14354TIP3   OH243006   3.318   2.877   0.703
14354TIP3    H143007   3.256   2.806   0.720
14354TIP3    H243008   3.367   2.848   0.626
14355TIP3   OH243009   5.304   7.636   4.655
14355TIP3    H143010   5.348   7.668   4.576
14355TIP3    H243011   5.243   7.706   4.678
14356TIP3   OH243012   1.321   5.778   4.005
14356TIP3    H143013   1.289   5.855   3.958
14356TIP3    H243014   1.253   5.758   4.069
14357TIP3   OH243015   8.298   0.617   5.038
14357TIP3    H143016   8.266   0.687   5.095
14357TIP3    H243017   8.228   0.552   5.038
14358TIP3   OH243018   3.486   3.189   5.667
14358TIP3    H143019   3.520   3.136   5.595
14358TIP3    H243020   3.447   3.265   5.625
14359TIP3   OH243021   6.713   6.513   2.972
14359TIP3    H143022   6.744   6.591   3.018
14359TIP3    H243023   6.617   6.517   2.980
14360TIP3   OH243024   5.893   0.760   5.456
14360TIP3    H143025   5.884   0.843   5.504
14360TIP3    H243026   5.975   0.723   5.490
14361TIP3   OH243027   1.260   6.815   5.779
14361TIP3    H143028   1.169   6.788   5.785
14361TIP3    H243029   1.262   6.902   5.819
14362TIP3   OH243030   6.793   0.799   5.650
14362TIP3    H143031   6.837   0.883   5.648
14362TIP3    H243032   6.785   0.778   5.743
14363TIP3   OH243033   2.771   6.528   2.637
14363TIP3    H143034   2.753   6.571   2.554
14363TIP3    H243035   2.830   6.588   2.683
14364TIP3   OH243036   0.088   3.540   1.515
14364TIP3    H143037   0.144   3.481   1.465
14364TIP3    H243038   0.037   3.587   1.448
14365TIP3   OH243039   1.052   6.844   3.859
14365TIP3    H143040   1.132   6.835   3.807
14365TIP3    H243041   1.036   6.756   3.893
14366TIP3   OH243042   7.251   3.072   1.008
14366TIP3    H143043   7.293   2.989   0.986
14366TIP3    H243044   7.205   3.097   0.928
14367TIP3   OH243045   1.292   7.652   4.153
14367TIP3    H143046   1.201   7.654   4.124
14367TIP3    H243047   1.289   7.601   4.235
14368TIP3   OH243048   7.827   5.316   4.667
14368TIP3    H143049   7.818   5.307   4.572
14368TIP3    H243050   7.834   5.227   4.699
14369TIP3   OH243051   0.393   5.573   3.430
14369TIP3    H143052   0.488   5.583   3.438
14369TIP3    H243053   0.357   5.627   3.501
14370TIP3   OH243054   4.817   4.253   2.032
14370TIP3    H143055   4.758   4.262   1.958
14370TIP3    H243056   4.898   4.296   2.004
14371TIP3   OH243057   7.296   7.708   3.912
14371TIP3    H143058   7.223   7.686   3.853
14371TIP3    H243059   7.278   7.658   3.992
14372TIP3   OH243060   1.605   0.752   5.679
14372TIP3    H143061   1.588   0.846   5.673
14372TIP3    H243062   1.670   0.744   5.749
14373TIP3   OH243063   1.286   7.394   0.464
14373TIP3    H143064   1.263   7.337   0.537
14373TIP3    H243065   1.376   7.368   0.441
14374TIP3   OH243066   1.176   5.866   2.408
14374TIP3    H143067   1.116   5.910   2.468
14374TIP3    H243068   1.142   5.777   2.401
14375TIP3   OH243069   5.092   1.238   0.312
14375TIP3    H143070   5.100   1.283   0.228
14375TIP3    H243071   5.179   1.243   0.350
14376TIP3   OH243072   0.702   4.607   3.662
14376TIP3    H143073   0.764   4.623   3.591
14376TIP3    H243074   0.739   4.533   3.710
14377TIP3   OH243075   5.174   2.011   2.968
14377TIP3    H143076   5.104   2.074   2.982
14377TIP3    H243077   5.129   1.929   2.948
14378TIP3   OH243078   4.007   0.507   2.163
14378TIP3    H143079   3.960   0.500   2.079
14378TIP3    H243080   4.088   0.457   2.149
14379TIP3   OH243081   6.701   6.870   3.095
14379TIP3    H143082   6.714   6.879   3.000
14379TIP3    H243083   6.741   6.949   3.132
14380TIP3   OH243084   7.795   2.491   6.819
14380TIP3    H143085   7.797   2.427   6.748
14380TIP3    H243086   7.756   2.569   6.780
14381TIP3   OH243087   1.299   3.501   4.063
14381TIP3    H143088   1.371   3.439   4.052
14381TIP3    H243089   1.278   3.529   3.973
14382TIP3   OH243090   3.630   6.903   5.656
14382TIP3    H143091   3.635   6.873   5.746
14382TIP3    H243092   3.672   6.989   5.657
14383TIP3   OH243093   8.075   4.456   5.353
14383TIP3    H143094   8.065   4.544   5.389
14383TIP3    H243095   8.154   4.460   5.299
14384TIP3   OH243096   1.369   6.048   6.119
14384TIP3    H143097   1.439   5.992   6.086
14384TIP3    H243098   1.412   6.107   6.181
14385TIP3   OH243099   4.342   1.232   5.099
14385TIP3    H143100   4.373   1.292   5.167
14385TIP3    H243101   4.290   1.167   5.147
14386TIP3   OH243102   6.304   3.472   4.974
14386TIP3    H143103   6.213   3.485   4.998
14386TIP3    H243104   6.337   3.559   4.953
14387TIP3   OH243105   4.681   2.945   2.787
14387TIP3    H143106   4.725   3.021   2.748
14387TIP3    H243107   4.609   2.927   2.727
14388TIP3   OH243108   4.306   5.744   1.980
14388TIP3    H143109   4.266   5.796   1.911
14388TIP3    H243110   4.399   5.766   1.976
14389TIP3   OH243111   4.703   3.502   0.904
14389TIP3    H143112   4.737   3.490   0.992
14389TIP3    H243113   4.743   3.431   0.853
14390TIP3   OH243114   6.606   1.569   5.851
14390TIP3    H143115   6.689   1.540   5.813
14390TIP3    H243116   6.624   1.575   5.945
14391TIP3   OH243117   2.646   3.317   2.020
14391TIP3    H143118   2.597   3.397   2.002
14391TIP3    H243119   2.706   3.308   1.946
14392TIP3   OH243120   7.920   2.631   6.526
14392TIP3    H143121   8.009   2.664   6.539
14392TIP3    H243122   7.869   2.674   6.595
14393TIP3   OH243123   3.402   5.375   0.431
14393TIP3    H143124   3.444   5.458   0.410
14393TIP3    H243125   3.456   5.309   0.386
14394TIP3   OH243126   4.248   2.242   5.181
14394TIP3    H143127   4.256   2.233   5.086
14394TIP3    H243128   4.183   2.311   5.194
14395TIP3   OH243129   6.133   2.352   6.695
14395TIP3    H143130   6.059   2.292   6.685
14395TIP3    H243131   6.209   2.303   6.663
14396TIP3   OH243132   0.702   5.659   4.944
14396TIP3    H143133   0.730   5.680   4.854
14396TIP3    H243134   0.609   5.641   4.936
14397TIP3   OH243135   1.698   1.726   5.392
14397TIP3    H143136   1.663   1.743   5.479
14397TIP3    H243137   1.789   1.755   5.396
14398TIP3   OH243138   5.192   0.028   2.175
14398TIP3    H143139   5.260   0.095   2.170
14398TIP3    H243140   5.233  -0.050   2.137
14399TIP3   OH243141   2.950   3.029   5.913
14399TIP3    H143142   3.012   2.997   5.848
14399TIP3    H243143   2.866   3.032   5.867
14400TIP3   OH243144   1.922   1.280   5.340
14400TIP3    H143145   1.894   1.242   5.423
14400TIP3    H243146   1.935   1.373   5.360
14401TIP3   OH243147   5.855   4.077   6.007
14401TIP3    H143148   5.795   4.043   5.940
14401TIP3    H243149   5.871   4.002   6.065
14402TIP3   OH243150   4.047   3.283   0.466
14402TIP3    H143151   4.101   3.307   0.541
14402TIP3    H243152   4.087   3.202   0.433
14403TIP3   OH243153   7.422   7.682   2.900
14403TIP3    H143154   7.515   7.703   2.890
14403TIP3    H243155   7.400   7.635   2.819
14404TIP3   OH243156   1.648   6.452   1.479
14404TIP3    H143157   1.722   6.471   1.422
14404TIP3    H243158   1.672   6.370   1.522
14405TIP3   OH243159   7.538   7.755   2.530
14405TIP3    H143160   7.454   7.714   2.547
14405TIP3    H243161   7.603   7.687   2.549
14406TIP3   OH243162   8.046   1.343   1.965
14406TIP3    H143163   8.002   1.265   1.999
14406TIP3    H243164   8.128   1.347   2.013
14407TIP3   OH243165   5.814   5.112   1.706
14407TIP3    H143166   5.798   5.199   1.742
14407TIP3    H243167   5.799   5.122   1.612
14408TIP3   OH243168   5.951   5.441   4.297
14408TIP3    H143169   5.936   5.401   4.383
14408TIP3    H243170   5.877   5.502   4.286
14409TIP3   OH243171   6.322   2.204   3.121
14409TIP3    H143172   6.271   2.133   3.083
14409TIP3    H243173   6.405   2.202   3.074
14410TIP3   OH243174   0.530   7.682   2.895
14410TIP3    H143175   0.571   7.714   2.975
14410TIP3    H243176   0.585   7.716   2.824
14411TIP3   OH243177   2.779   0.694   0.272
14411TIP3    H143178   2.685   0.706   0.289
14411TIP3    H243179   2.789   0.600   0.259
14412TIP3   OH243180   1.999   1.331   2.168
14412TIP3    H143181   1.922   1.354   2.220
14412TIP3    H243182   2.072   1.373   2.213
14413TIP3   OH243183   0.080   5.067   4.322
14413TIP3    H143184  -0.015   5.062   4.330
14413TIP3    H243185   0.107   4.976   4.308
14414TIP3   OH243186   0.208   6.204   2.493
14414TIP3    H143187   0.116   6.212   2.516
14414TIP3    H243188   0.246   6.289   2.514
14415TIP3   OH243189   7.345   1.677   0.493
14415TIP3    H143190   7.364   1.761   0.452
14415TIP3    H243191   7.294   1.629   0.428
14416TIP3   OH243192   0.610   6.878   1.932
14416TIP3    H143193   0.681   6.828   1.972
14416TIP3    H243194   0.530   6.836   1.965
14417TIP3   OH243195   5.935   2.232   0.820
14417TIP3    H143196   5.840   2.216   0.814
14417TIP3    H243197   5.968   2.161   0.874
14418TIP3   OH243198   0.687   6.358   1.485
14418TIP3    H143199   0.778   6.326   1.479
14418TIP3    H243200   0.695   6.444   1.525
14419TIP3   OH243201   2.611   3.332   1.682
14419TIP3    H143202   2.547   3.285   1.736
14419TIP3    H243203   2.564   3.353   1.602
14420TIP3   OH243204   3.363   3.706   1.530
14420TIP3    H143205   3.395   3.642   1.594
14420TIP3    H243206   3.314   3.770   1.582
14421TIP3   OH243207   3.968   7.213   2.111
14421TIP3    H143208   3.911   7.272   2.061
14421TIP3    H243209   3.943   7.125   2.083
14422TIP3   OH243210   8.305   3.011   2.594
14422TIP3    H143211   8.329   3.092   2.548
14422TIP3    H243212   8.217   3.029   2.629
14423TIP3   OH243213   4.020   5.013   4.264
14423TIP3    H143214   3.982   4.943   4.212
14423TIP3    H243215   3.975   5.008   4.348
14424TIP3   OH243216   6.061   4.993   4.267
14424TIP3    H143217   6.115   5.067   4.295
14424TIP3    H243218   5.978   5.005   4.313
14425TIP3   OH243219   4.707   1.911   4.831
14425TIP3    H143220   4.635   1.939   4.775
14425TIP3    H243221   4.692   1.817   4.844
14426TIP3   OH243222   0.366   6.505   5.828
14426TIP3    H143223   0.279   6.544   5.840
14426TIP3    H243224   0.385   6.518   5.735
14427TIP3   OH243225   3.591   7.020   1.262
14427TIP3    H143226   3.498   7.001   1.274
14427TIP3    H243227   3.604   7.021   1.168
14428TIP3   OH243228   5.415   7.049   1.550
14428TIP3    H143229   5.362   6.970   1.540
14428TIP3    H243230   5.394   7.081   1.638
14429TIP3   OH243231   6.100   6.579   4.640
14429TIP3    H143232   6.015   6.591   4.597
14429TIP3    H243233   6.104   6.649   4.705
14430TIP3   OH243234   5.215   1.026   2.605
14430TIP3    H143235   5.309   1.006   2.611
14430TIP3    H243236   5.212   1.104   2.548
14431TIP3   OH243237   7.160   0.914   6.555
14431TIP3    H143238   7.122   0.837   6.512
14431TIP3    H243239   7.254   0.904   6.543
14432TIP3   OH243240   5.115   0.371   3.502
14432TIP3    H143241   5.191   0.338   3.455
14432TIP3    H243242   5.146   0.386   3.592
14433TIP3   OH243243   3.359   3.114   4.916
14433TIP3    H143244   3.421   3.055   4.958
14433TIP3    H243245   3.277   3.065   4.912
14434TIP3   OH243246   4.936   0.782   3.017
14434TIP3    H143247   4.900   0.865   3.047
14434TIP3    H243248   4.883   0.759   2.940
14435TIP3   OH243249   2.193   4.838   4.790
14435TIP3    H143250   2.105   4.870   4.806
14435TIP3    H243251   2.241   4.915   4.759
14436TIP3   OH243252   3.590   2.045   5.492
14436TIP3    H143253   3.605   2.126   5.443
14436TIP3    H243254   3.587   2.074   5.584
14437TIP3   OH243255   0.281   3.622   0.205
14437TIP3    H143256   0.201   3.619   0.153
14437TIP3    H243257   0.339   3.557   0.164
14438TIP3   OH243258   7.699   6.109   1.458
14438TIP3    H143259   7.753   6.181   1.489
14438TIP3    H243260   7.644   6.086   1.533
14439TIP3   OH243261   6.101   4.102   2.894
14439TIP3    H143262   6.102   4.060   2.979
14439TIP3    H243263   6.029   4.060   2.847
14440TIP3   OH243264   0.972   1.061   1.787
14440TIP3    H143265   0.910   1.040   1.856
14440TIP3    H243266   0.983   0.978   1.740
14441TIP3   OH243267   1.549   6.888   2.225
14441TIP3    H143268   1.559   6.981   2.246
14441TIP3    H243269   1.454   6.874   2.225
14442TIP3   OH243270   4.778   6.942   2.596
14442TIP3    H143271   4.717   7.014   2.610
14442TIP3    H243272   4.810   6.920   2.683
14443TIP3   OH243273   6.001   2.384   2.674
14443TIP3    H143274   6.038   2.429   2.749
14443TIP3    H243275   6.011   2.446   2.602
14444TIP3   OH243276   7.048   5.020   0.116
14444TIP3    H143277   6.957   4.990   0.121
14444TIP3    H243278   7.045   5.110   0.147
14445TIP3   OH243279   2.228   0.850   6.261
14445TIP3    H143280   2.291   0.922   6.268
14445TIP3    H243281   2.170   0.875   6.189
14446TIP3   OH243282   2.555   1.156   3.479
14446TIP3    H143283   2.478   1.202   3.512
14446TIP3    H243284   2.551   1.070   3.520
14447TIP3   OH243285   0.066   3.083   0.204
14447TIP3    H143286   0.017   3.016   0.251
14447TIP3    H243287   0.068   3.158   0.263
14448TIP3   OH243288   6.623   3.311   2.303
14448TIP3    H143289   6.541   3.356   2.321
14448TIP3    H243290   6.683   3.381   2.276
14449TIP3   OH243291   3.964   3.937   2.687
14449TIP3    H143292   3.979   3.922   2.780
14449TIP3    H243293   3.879   3.897   2.669
14450TIP3   OH243294   4.409   5.158   0.351
14450TIP3    H143295   4.326   5.170   0.305
14450TIP3    H243296   4.431   5.066   0.338
14451TIP3   OH243297   6.428   5.405   2.479
14451TIP3    H143298   6.522   5.413   2.492
14451TIP3    H243299   6.404   5.324   2.524
14452TIP3   OH243300   2.105   0.148   5.891
14452TIP3    H143301   2.160   0.152   5.813
14452TIP3    H243302   2.015   0.155   5.858
14453TIP3   OH243303   3.587   7.630   5.308
14453TIP3    H143304   3.589   7.655   5.216
14453TIP3    H243305   3.656   7.565   5.317
14454TIP3   OH243306   7.965   6.931   5.545
14454TIP3    H143307   8.018   7.003   5.579
14454TIP3    H243308   7.998   6.853   5.589
14455TIP3   OH243309   5.178   2.078   0.648
14455TIP3    H143310   5.196   2.058   0.556
14455TIP3    H243311   5.154   1.994   0.686
14456TIP3   OH243312   5.225   1.006   1.282
14456TIP3    H143313   5.241   1.049   1.366
14456TIP3    H243314   5.131   1.018   1.266
14457TIP3   OH243315   6.933   7.745   1.369
14457TIP3    H143316   6.979   7.668   1.405
14457TIP3    H243317   6.986   7.771   1.293
14458TIP3   OH243318   0.561   0.207   4.453
14458TIP3    H143319   0.635   0.217   4.394
14458TIP3    H243320   0.544   0.296   4.486
14459TIP3   OH243321   1.711   4.517   2.588
14459TIP3    H143322   1.768   4.446   2.619
14459TIP3    H243323   1.771   4.579   2.547
14460TIP3   OH243324   6.339   7.491   4.110
14460TIP3    H143325   6.338   7.580   4.146
14460TIP3    H243326   6.335   7.503   4.015
14461TIP3   OH243327   5.502   3.408   4.046
14461TIP3    H143328   5.484   3.502   4.041
14461TIP3    H243329   5.551   3.398   4.127
14462TIP3   OH243330   3.931   2.940   5.083
14462TIP3    H143331   3.900   3.022   5.043
14462TIP3    H243332   4.004   2.967   5.139
14463TIP3   OH243333   0.744   5.532   6.126
14463TIP3    H143334   0.781   5.607   6.078
14463TIP3    H243335   0.723   5.567   6.212
14464TIP3   OH243336   4.567   6.716   2.808
14464TIP3    H143337   4.502   6.786   2.804
14464TIP3    H243338   4.650   6.762   2.825
14465TIP3   OH243339   3.270   4.972   1.858
14465TIP3    H143340   3.182   4.939   1.842
14465TIP3    H243341   3.327   4.910   1.814
14466TIP3   OH243342   0.600   7.186   5.329
14466TIP3    H143343   0.564   7.138   5.404
14466TIP3    H243344   0.548   7.266   5.326
14467TIP3   OH243345   1.021   1.468   3.218
14467TIP3    H143346   1.097   1.473   3.159
14467TIP3    H243347   0.948   1.498   3.165
14468TIP3   OH243348   3.797   1.566   1.814
14468TIP3    H143349   3.827   1.476   1.826
14468TIP3    H243350   3.876   1.615   1.791
14469TIP3   OH243351   5.519   4.445   5.224
14469TIP3    H143352   5.552   4.361   5.189
14469TIP3    H243353   5.581   4.510   5.190
14470TIP3   OH243354   8.211   2.298   0.877
14470TIP3    H143355   8.130   2.348   0.873
14470TIP3    H243356   8.183   2.209   0.899
14471TIP3   OH243357   4.282   6.699   0.537
14471TIP3    H143358   4.279   6.618   0.486
14471TIP3    H243359   4.306   6.767   0.474
14472TIP3   OH243360   5.769   0.211   2.743
14472TIP3    H143361   5.791   0.195   2.651
14472TIP3    H243362   5.796   0.301   2.759
14473TIP3   OH243363   5.322   2.161   1.183
14473TIP3    H143364   5.308   2.081   1.234
14473TIP3    H243365   5.337   2.130   1.094
14474TIP3   OH243366   1.645   7.377   6.081
14474TIP3    H143367   1.640   7.334   5.996
14474TIP3    H243368   1.701   7.454   6.066
14475TIP3   OH243369   2.485   6.070   0.991
14475TIP3    H143370   2.564   6.108   0.952
14475TIP3    H243371   2.487   5.978   0.963
14476TIP3   OH243372   0.046   6.552   4.499
14476TIP3    H143373   0.016   6.579   4.412
14476TIP3    H243374   0.085   6.466   4.486
14477TIP3   OH243375   6.081   7.591   6.703
14477TIP3    H143376   6.133   7.512   6.690
14477TIP3    H243377   6.077   7.602   6.798
14478TIP3   OH243378   7.032   1.063   5.147
14478TIP3    H143379   7.043   1.037   5.056
14478TIP3    H243380   6.982   0.992   5.187
14479TIP3   OH243381   0.953   2.795   4.437
14479TIP3    H143382   0.940   2.711   4.481
14479TIP3    H243383   0.881   2.801   4.374
14480TIP3   OH243384   7.854   0.319   2.635
14480TIP3    H143385   7.948   0.298   2.635
14480TIP3    H243386   7.815   0.253   2.693
14481TIP3   OH243387   4.880   4.146   0.057
14481TIP3    H143388   4.807   4.092   0.026
14481TIP3    H243389   4.958   4.101   0.024
14482TIP3   OH243390   6.935   4.615   4.104
14482TIP3    H143391   6.990   4.694   4.102
14482TIP3    H243392   6.995   4.545   4.131
14483TIP3   OH243393   5.850   6.465   4.742
14483TIP3    H143394   5.835   6.430   4.654
14483TIP3    H243395   5.858   6.559   4.730
14484TIP3   OH243396   7.889   2.102   2.185
14484TIP3    H143397   7.818   2.148   2.229
14484TIP3    H243398   7.919   2.036   2.248
14485TIP3   OH243399   3.746   3.938   4.424
14485TIP3    H143400   3.777   4.028   4.436
14485TIP3    H243401   3.679   3.926   4.491
14486TIP3   OH243402   2.849   6.398   0.316
14486TIP3    H143403   2.899   6.472   0.351
14486TIP3    H243404   2.781   6.438   0.262
14487TIP3   OH243405   8.098   6.050   4.982
14487TIP3    H143406   8.055   6.068   5.065
14487TIP3    H243407   8.177   6.103   4.983
14488TIP3   OH243408   0.049   4.155   3.949
14488TIP3    H143409   0.122   4.145   3.888
14488TIP3    H243410   0.008   4.068   3.952
14489TIP3   OH243411   2.404   7.685   3.958
14489TIP3    H143412   2.395   7.760   4.017
14489TIP3    H243413   2.335   7.625   3.985
14490TIP3   OH243414   4.907   6.479   0.696
14490TIP3    H143415   4.880   6.482   0.604
14490TIP3    H243416   5.001   6.493   0.693
14491TIP3   OH243417   4.129   4.612   1.037
14491TIP3    H143418   4.141   4.520   1.062
14491TIP3    H243419   4.187   4.660   1.096
14492TIP3   OH243420   1.312   3.803   3.049
14492TIP3    H143421   1.261   3.723   3.065
14492TIP3    H243422   1.250   3.862   3.005
14493TIP3   OH243423   6.557   7.223   2.827
14493TIP3    H143424   6.605   7.304   2.843
14493TIP3    H243425   6.525   7.196   2.913
14494TIP3   OH243426   6.992   4.299   1.153
14494TIP3    H143427   6.932   4.322   1.082
14494TIP3    H243428   7.049   4.375   1.162
14495TIP3   OH243429   5.664   6.436   6.257
14495TIP3    H143430   5.686   6.412   6.167
14495TIP3    H243431   5.660   6.352   6.303
14496TIP3   OH243432   5.402   3.000   0.218
14496TIP3    H143433   5.442   3.086   0.230
14496TIP3    H243434   5.308   3.018   0.209
14497TIP3   OH243435   0.193   5.736   6.169
14497TIP3    H143436   0.126   5.713   6.104
14497TIP3    H243437   0.265   5.676   6.151
14498TIP3   OH243438   7.115   2.451   6.432
14498TIP3    H143439   7.138   2.479   6.521
14498TIP3    H243440   7.024   2.479   6.421
14499TIP3   OH243441   7.514   3.169   6.668
14499TIP3    H143442   7.593   3.133   6.708
14499TIP3    H243443   7.521   3.146   6.575
14500TIP3   OH243444   0.364   6.828   2.150
14500TIP3    H143445   0.286   6.879   2.172
14500TIP3    H243446   0.331   6.741   2.126
14501TIP3   OH243447   3.549   3.817   0.102
14501TIP3    H143448   3.578   3.829   0.193
14501TIP3    H243449   3.458   3.788   0.110
14502TIP3   OH243450   0.666   2.819   1.978
14502TIP3    H143451   0.612   2.816   1.899
14502TIP3    H243452   0.634   2.895   2.026
14503TIP3   OH243453   1.316   6.767   3.083
14503TIP3    H143454   1.324   6.849   3.034
14503TIP3    H243455   1.333   6.791   3.174
14504TIP3   OH243456   2.244   4.695   3.160
14504TIP3    H143457   2.166   4.692   3.216
14504TIP3    H243458   2.220   4.756   3.090
14505TIP3   OH243459   1.043   6.281   2.329
14505TIP3    H143460   0.968   6.253   2.275
14505TIP3    H243461   1.044   6.219   2.402
14506TIP3   OH243462   6.005   5.961   2.686
14506TIP3    H143463   5.982   5.871   2.708
14506TIP3    H243464   6.017   5.960   2.591
14507TIP3   OH243465   1.801   4.531   4.511
14507TIP3    H143466   1.731   4.526   4.576
14507TIP3    H243467   1.867   4.587   4.551
14508TIP3   OH243468   1.467   0.268   5.514
14508TIP3    H143469   1.481   0.356   5.551
14508TIP3    H243470   1.373   0.255   5.519
14509TIP3   OH243471   4.986   4.461   1.499
14509TIP3    H143472   5.009   4.469   1.406
14509TIP3    H243473   4.891   4.450   1.499
14510TIP3   OH243474   5.889   1.661   5.855
14510TIP3    H143475   5.837   1.586   5.885
14510TIP3    H243476   5.842   1.693   5.778
14511TIP3   OH243477   3.507   4.079   3.604
14511TIP3    H143478   3.571   4.149   3.592
14511TIP3    H243479   3.540   4.029   3.678
14512TIP3   OH243480   5.507   5.708   6.754
14512TIP3    H143481   5.452   5.701   6.676
14512TIP3    H243482   5.572   5.638   6.744
14513TIP3   OH243483   6.568   3.255   4.296
14513TIP3    H143484   6.500   3.309   4.335
14513TIP3    H243485   6.591   3.191   4.364
14514TIP3   OH243486   4.202   3.824   5.282
14514TIP3    H143487   4.157   3.901   5.248
14514TIP3    H243488   4.183   3.754   5.219
14515TIP3   OH243489   5.438   2.513   0.655
14515TIP3    H143490   5.440   2.463   0.736
14515TIP3    H243491   5.526   2.505   0.619
14516TIP3   OH243492   2.671   3.388   5.152
14516TIP3    H143493   2.650   3.443   5.077
14516TIP3    H243494   2.586   3.366   5.190
14517TIP3   OH243495   4.027   5.179   5.051
14517TIP3    H143496   4.063   5.207   5.136
14517TIP3    H243497   4.039   5.084   5.050
14518TIP3   OH243498   6.050   0.965   4.340
14518TIP3    H143499   6.070   0.923   4.256
14518TIP3    H243500   6.053   0.893   4.403
14519TIP3   OH243501   4.328   3.669   5.892
14519TIP3    H143502   4.364   3.751   5.858
14519TIP3    H243503   4.360   3.664   5.982
14520TIP3   OH243504   2.713   6.922   5.129
14520TIP3    H143505   2.655   6.998   5.128
14520TIP3    H243506   2.723   6.898   5.037
14521TIP3   OH243507   7.824   4.519   1.568
14521TIP3    H143508   7.774   4.470   1.633
14521TIP3    H243509   7.828   4.608   1.603
14522TIP3   OH243510   3.155   4.132   5.778
14522TIP3    H143511   3.106   4.067   5.729
14522TIP3    H243512   3.111   4.215   5.759
14523TIP3   OH243513   3.950   6.898   4.154
14523TIP3    H143514   3.888   6.827   4.137
14523TIP3    H243515   4.029   6.874   4.105
14524TIP3   OH243516   0.281   6.596   1.061
14524TIP3    H143517   0.217   6.526   1.047
14524TIP3    H243518   0.229   6.677   1.058
14525TIP3   OH243519   0.064   0.615   4.286
14525TIP3    H143520  -0.028   0.601   4.263
14525TIP3    H243521   0.100   0.526   4.294
14526TIP3   OH243522   4.409   5.002   1.196
14526TIP3    H143523   4.385   4.932   1.135
14526TIP3    H243524   4.504   5.011   1.186
14527TIP3   OH243525   0.324   3.784   5.556
14527TIP3    H143526   0.323   3.809   5.464
14527TIP3    H243527   0.333   3.688   5.555
14528TIP3   OH243528   5.417   7.696   4.430
14528TIP3    H143529   5.512   7.682   4.434
14528TIP3    H243530   5.398   7.704   4.336
14529TIP3   OH243531   3.418   5.231   3.444
14529TIP3    H143532   3.486   5.295   3.464
14529TIP3    H243533   3.416   5.173   3.520
14530TIP3   OH243534   2.509   6.707   3.847
14530TIP3    H143535   2.503   6.612   3.860
14530TIP3    H243536   2.566   6.717   3.771
14531TIP3   OH243537   3.540   3.221   4.329
14531TIP3    H143538   3.527   3.141   4.278
14531TIP3    H243539   3.452   3.260   4.334
14532TIP3   OH243540   1.023   6.747   6.270
14532TIP3    H143541   1.007   6.839   6.291
14532TIP3    H243542   1.111   6.746   6.233
14533TIP3   OH243543   1.639   3.702   1.121
14533TIP3    H143544   1.647   3.752   1.040
14533TIP3    H243545   1.673   3.761   1.189
14534TIP3   OH243546   6.324   0.702   0.394
14534TIP3    H143547   6.308   0.791   0.361
14534TIP3    H243548   6.301   0.645   0.321
14535TIP3   OH243549   2.440   0.120   4.998
14535TIP3    H143550   2.463   0.031   5.025
14535TIP3    H243551   2.523   0.166   4.991
14536TIP3   OH243552   5.825   3.761   6.609
14536TIP3    H143553   5.751   3.703   6.628
14536TIP3    H243554   5.794   3.818   6.540
14537TIP3   OH243555   0.296   5.844   4.913
14537TIP3    H143556   0.351   5.799   4.848
14537TIP3    H243557   0.354   5.912   4.949
14538TIP3   OH243558   2.093   0.503   2.751
14538TIP3    H143559   2.005   0.490   2.715
14538TIP3    H243560   2.151   0.462   2.687
14539TIP3   OH243561   3.376   0.016   0.262
14539TIP3    H143562   3.433   0.091   0.281
14539TIP3    H243563   3.289   0.044   0.291
14540TIP3   OH243564   7.037   0.617   5.316
14540TIP3    H143565   6.988   0.696   5.341
14540TIP3    H243566   7.077   0.588   5.398
14541TIP3   OH243567   4.603   1.160   0.226
14541TIP3    H143568   4.679   1.107   0.201
14541TIP3    H243569   4.606   1.161   0.322
14542TIP3   OH243570   0.115   5.885   2.400
14542TIP3    H143571   0.058   5.843   2.336
14542TIP3    H243572   0.056   5.939   2.452
14543TIP3   OH243573   0.552   0.159   3.507
14543TIP3    H143574   0.621   0.222   3.487
14543TIP3    H243575   0.473   0.195   3.468
14544TIP3   OH243576   5.788   2.263   1.881
14544TIP3    H143577   5.760   2.174   1.903
14544TIP3    H243578   5.714   2.319   1.905
14545TIP3   OH243579   3.055   5.099   0.496
14545TIP3    H143580   3.115   5.052   0.438
14545TIP3    H243581   3.031   5.178   0.447
14546TIP3   OH243582   5.100   0.051   1.660
14546TIP3    H143583   5.135   0.008   1.582
14546TIP3    H243584   5.037   0.115   1.627
14547TIP3   OH243585   5.122   7.759   1.050
14547TIP3    H143586   5.103   7.666   1.062
14547TIP3    H243587   5.182   7.781   1.121
14548TIP3   OH243588   0.847   3.703   2.362
14548TIP3    H143589   0.932   3.730   2.328
14548TIP3    H243590   0.787   3.772   2.334
14549TIP3   OH243591   5.318   6.069   2.954
14549TIP3    H143592   5.353   6.002   3.013
14549TIP3    H243593   5.282   6.020   2.880
14550TIP3   OH243594   0.879   2.068   2.437
14550TIP3    H143595   0.973   2.072   2.421
14550TIP3    H243596   0.840   2.078   2.351
14551TIP3   OH243597   4.855   2.118   1.130
14551TIP3    H143598   4.835   2.163   1.212
14551TIP3    H243599   4.788   2.148   1.069
14552TIP3   OH243600   4.245   5.046   5.251
14552TIP3    H143601   4.205   5.014   5.332
14552TIP3    H243602   4.310   4.978   5.229
14553TIP3   OH243603   4.063   4.870   3.274
14553TIP3    H143604   4.128   4.801   3.258
14553TIP3    H243605   4.067   4.884   3.369
14554TIP3   OH243606   1.688   1.727   0.076
14554TIP3    H143607   1.756   1.730   0.009
14554TIP3    H243608   1.685   1.635   0.103
14555TIP3   OH243609   0.857   5.929   0.379
14555TIP3    H143610   0.913   5.852   0.373
14555TIP3    H243611   0.771   5.898   0.350
14556TIP3   OH243612   4.627   0.773   0.635
14556TIP3    H143613   4.700   0.716   0.611
14556TIP3    H243614   4.634   0.782   0.731
14557TIP3   OH243615   5.483   0.732   1.155
14557TIP3    H143616   5.556   0.777   1.197
14557TIP3    H243617   5.499   0.639   1.172
14558TIP3   OH243618   0.316   7.173   4.082
14558TIP3    H143619   0.226   7.143   4.074
14558TIP3    H243620   0.311   7.267   4.062
14559TIP3   OH243621   3.133   4.464   6.037
14559TIP3    H143622   3.062   4.462   6.102
14559TIP3    H243623   3.090   4.485   5.955
14560TIP3   OH243624   2.657   7.407   3.911
14560TIP3    H143625   2.599   7.419   3.836
14560TIP3    H243626   2.745   7.417   3.875
14561TIP3   OH243627   5.352   4.661   2.976
14561TIP3    H143628   5.429   4.707   2.942
14561TIP3    H243629   5.387   4.580   3.014
14562TIP3   OH243630   0.946   3.546   6.432
14562TIP3    H143631   0.971   3.638   6.417
14562TIP3    H243632   0.935   3.510   6.344
14563TIP3   OH243633   4.111   0.580   4.474
14563TIP3    H143634   4.028   0.579   4.428
14563TIP3    H243635   4.130   0.488   4.494
14564TIP3   OH243636   6.343   2.636   3.781
14564TIP3    H143637   6.368   2.612   3.692
14564TIP3    H243638   6.270   2.697   3.770
14565TIP3   OH243639   5.234   2.121   3.749
14565TIP3    H143640   5.269   2.037   3.719
14565TIP3    H243641   5.203   2.105   3.838
14566TIP3   OH243642   2.680   5.456   4.131
14566TIP3    H143643   2.703   5.377   4.084
14566TIP3    H243644   2.733   5.525   4.091
14567TIP3   OH243645   2.283   6.118   6.734
14567TIP3    H143646   2.313   6.199   6.775
14567TIP3    H243647   2.206   6.144   6.683
14568TIP3   OH243648   2.458   2.788   1.987
14568TIP3    H143649   2.526   2.856   1.990
14568TIP3    H243650   2.376   2.836   1.997
14569TIP3   OH243651   2.533   4.180   3.811
14569TIP3    H143652   2.586   4.102   3.830
14569TIP3    H243653   2.443   4.147   3.809
14570TIP3   OH243654   1.128   1.025   0.057
14570TIP3    H143655   1.075   0.991  -0.015
14570TIP3    H243656   1.147   0.948   0.111
14571TIP3   OH243657   2.921   5.979   5.764
14571TIP3    H143658   2.995   5.918   5.772
14571TIP3    H243659   2.931   6.018   5.677
14572TIP3   OH243660   1.893   6.398   2.640
14572TIP3    H143661   1.853   6.362   2.719
14572TIP3    H243662   1.845   6.480   2.624
14573TIP3   OH243663   3.458   1.344   4.451
14573TIP3    H143664   3.487   1.353   4.542
14573TIP3    H243665   3.460   1.434   4.417
14574TIP3   OH243666   1.584   1.333   2.066
14574TIP3    H143667   1.529   1.255   2.071
14574TIP3    H243668   1.652   1.319   2.133
14575TIP3   OH243669   6.621   5.076   3.838
14575TIP3    H143670   6.673   5.136   3.893
14575TIP3    H243671   6.565   5.134   3.787
14576TIP3   OH243672   2.560   4.004   0.744
14576TIP3    H143673   2.628   3.941   0.721
14576TIP3    H243674   2.606   4.071   0.795
14577TIP3   OH243675   2.871   7.641   5.659
14577TIP3    H143676   2.930   7.644   5.735
14577TIP3    H243677   2.930   7.649   5.584
14578TIP3   OH243678   0.389   1.047   1.793
14578TIP3    H143679   0.330   1.120   1.772
14578TIP3    H243680   0.401   1.054   1.888
14579TIP3   OH243681   5.733   2.385   2.351
14579TIP3    H143682   5.725   2.476   2.321
14579TIP3    H243683   5.701   2.387   2.441
14580TIP3   OH243684   0.050   7.061   3.623
14580TIP3    H143685  -0.030   7.113   3.619
14580TIP3    H243686   0.068   7.052   3.716
14581TIP3   OH243687   1.944   0.798   3.710
14581TIP3    H143688   1.976   0.839   3.790
14581TIP3    H243689   1.900   0.719   3.739
14582TIP3   OH243690   4.385   5.273   1.524
14582TIP3    H143691   4.469   5.295   1.484
14582TIP3    H243692   4.320   5.317   1.469
14583TIP3   OH243693   7.495   0.877   5.804
14583TIP3    H143694   7.519   0.966   5.778
14583TIP3    H243695   7.567   0.822   5.772
14584TIP3   OH243696   3.793   2.553   0.735
14584TIP3    H143697   3.707   2.559   0.776
14584TIP3    H243698   3.841   2.488   0.787
14585TIP3   OH243699   5.535   2.985   4.615
14585TIP3    H143700   5.626   2.962   4.631
14585TIP3    H243701   5.510   3.040   4.689
14586TIP3   OH243702   3.910   2.121   0.655
14586TIP3    H143703   3.888   2.183   0.725
14586TIP3    H243704   3.846   2.050   0.664
14587TIP3   OH243705   8.049   6.647   3.449
14587TIP3    H143706   7.999   6.705   3.391
14587TIP3    H243707   7.990   6.574   3.466
14588TIP3   OH243708   5.606   7.544   0.858
14588TIP3    H143709   5.526   7.498   0.879
14588TIP3    H243710   5.586   7.592   0.777
14589TIP3   OH243711   3.111   0.053   4.547
14589TIP3    H143712   3.201   0.037   4.520
14589TIP3    H243713   3.102   0.006   4.630
14590TIP3   OH243714   4.451   6.370   3.185
14590TIP3    H143715   4.428   6.434   3.118
14590TIP3    H243716   4.408   6.402   3.264
14591TIP3   OH243717   1.774   0.466   4.082
14591TIP3    H143718   1.739   0.408   4.150
14591TIP3    H243719   1.796   0.547   4.129
14592TIP3   OH243720   2.984   4.897   3.116
14592TIP3    H143721   3.024   4.824   3.163
14592TIP3    H243722   2.956   4.957   3.185
14593TIP3   OH243723   4.727   0.937   1.563
14593TIP3    H143724   4.721   0.977   1.650
14593TIP3    H243725   4.640   0.901   1.547
14594TIP3   OH243726   7.888   6.278   0.119
14594TIP3    H143727   7.936   6.211   0.169
14594TIP3    H243728   7.805   6.238   0.098
14595TIP3   OH243729   1.780   6.406   6.358
14595TIP3    H143730   1.815   6.368   6.439
14595TIP3    H243731   1.793   6.339   6.292
14596TIP3   OH243732   3.050   6.564   6.249
14596TIP3    H143733   3.032   6.471   6.239
14596TIP3    H243734   3.046   6.599   6.160
14597TIP3   OH243735   6.003   0.417   4.553
14597TIP3    H143736   6.098   0.413   4.555
14597TIP3    H243737   5.983   0.507   4.528
14598TIP3   OH243738   1.822   3.434   0.070
14598TIP3    H143739   1.763   3.414   0.142
14598TIP3    H243740   1.788   3.514   0.031
14599TIP3   OH243741   5.853   2.852   2.046
14599TIP3    H143742   5.903   2.930   2.023
14599TIP3    H243743   5.764   2.884   2.060
14600TIP3   OH243744   1.630   3.198   4.622
14600TIP3    H143745   1.642   3.281   4.669
14600TIP3    H243746   1.580   3.221   4.544
14601TIP3   OH243747   0.859   7.639   6.375
14601TIP3    H143748   0.821   7.639   6.287
14601TIP3    H243749   0.952   7.619   6.361
14602TIP3   OH243750   4.633   0.225   1.737
14602TIP3    H143751   4.695   0.174   1.685
14602TIP3    H243752   4.635   0.313   1.699
14603TIP3   OH243753   1.890   2.272   5.830
14603TIP3    H143754   1.958   2.285   5.765
14603TIP3    H243755   1.904   2.183   5.863
14604TIP3   OH243756   2.263   1.906   5.371
14604TIP3    H143757   2.251   1.998   5.393
14604TIP3    H243758   2.273   1.862   5.455
14605TIP3   OH243759   2.386   6.604   1.156
14605TIP3    H143760   2.426   6.611   1.242
14605TIP3    H243761   2.304   6.556   1.171
14606TIP3   OH243762   4.898   1.158   6.162
14606TIP3    H143763   4.848   1.091   6.209
14606TIP3    H243764   4.917   1.118   6.077
14607TIP3   OH243765   1.468   4.354   0.692
14607TIP3    H143766   1.410   4.385   0.761
14607TIP3    H243767   1.456   4.416   0.620
14608TIP3   OH243768   3.691   0.041   0.831
14608TIP3    H143769   3.625   0.042   0.762
14608TIP3    H243770   3.671   0.119   0.884
14609TIP3   OH243771   2.365   1.746   0.319
14609TIP3    H143772   2.353   1.654   0.294
14609TIP3    H243773   2.276   1.780   0.328
14610TIP3   OH243774   5.567   3.390   1.245
14610TIP3    H143775   5.593   3.313   1.193
14610TIP3    H243776   5.588   3.464   1.188
14611TIP3   OH243777   3.280   7.691   0.216
14611TIP3    H143778   3.320   7.605   0.203
14611TIP3    H243779   3.202   7.673   0.270
14612TIP3   OH243780   5.983   4.373   2.619
14612TIP3    H143781   6.023   4.299   2.573
14612TIP3    H243782   5.891   4.370   2.593
14613TIP3   OH243783   6.450   6.927   2.123
14613TIP3    H143784   6.535   6.927   2.079
14613TIP3    H243785   6.471   6.925   2.216
14614TIP3   OH243786   4.700   0.101   1.990
14614TIP3    H143787   4.680   0.149   1.910
14614TIP3    H243788   4.794   0.085   1.985
14615TIP3   OH243789   3.392   5.618   2.974
14615TIP3    H143790   3.304   5.582   2.975
14615TIP3    H243791   3.380   5.710   2.997
14616TIP3   OH243792   5.874   0.052   6.479
14616TIP3    H143793   5.892  -0.042   6.480
14616TIP3    H243794   5.805   0.063   6.414
14617TIP3   OH243795   3.526   1.849   4.020
14617TIP3    H143796   3.556   1.880   3.935
14617TIP3    H243797   3.448   1.798   4.001
14618TIP3   OH243798   6.341   2.174   0.306
14618TIP3    H143799   6.418   2.184   0.251
14618TIP3    H243800   6.273   2.223   0.261
14619TIP3   OH243801   1.568   4.792   2.523
14619TIP3    H143802   1.510   4.722   2.493
14619TIP3    H243803   1.551   4.799   2.617
14620TIP3   OH243804   6.664   1.825   1.479
14620TIP3    H143805   6.675   1.817   1.384
14620TIP3    H243806   6.570   1.812   1.494
14621TIP3   OH243807   2.698   6.213   0.426
14621TIP3    H143808   2.750   6.271   0.370
14621TIP3    H243809   2.614   6.205   0.381
14622TIP3   OH243810   4.908   4.002   0.742
14622TIP3    H143811   4.925   4.007   0.836
14622TIP3    H243812   4.813   4.012   0.735
14623TIP3   OH243813   5.648   6.185   0.332
14623TIP3    H143814   5.704   6.113   0.360
14623TIP3    H243815   5.607   6.153   0.252
14624TIP3   OH243816   2.211   4.758   2.567
14624TIP3    H143817   2.153   4.731   2.496
14624TIP3    H243818   2.157   4.817   2.621
14625TIP3   OH243819   3.728   0.902   4.085
14625TIP3    H143820   3.748   0.861   4.000
14625TIP3    H243821   3.674   0.978   4.062
14626TIP3   OH243822   8.270   0.046   3.504
14626TIP3    H143823   8.287   0.122   3.561
14626TIP3    H243824   8.274   0.082   3.415
14627TIP3   OH243825   0.774   4.527   4.062
14627TIP3    H143826   0.686   4.538   4.096
14627TIP3    H243827   0.799   4.614   4.030
14628TIP3   OH243828   3.295   4.710   3.023
14628TIP3    H143829   3.254   4.746   3.102
14628TIP3    H243830   3.303   4.616   3.041
14629TIP3   OH243831   0.741   0.667   5.750
14629TIP3    H143832   0.681   0.607   5.706
14629TIP3    H243833   0.828   0.639   5.721
14630TIP3   OH243834   4.293   5.305   5.256
14630TIP3    H143835   4.291   5.209   5.261
14630TIP3    H243836   4.331   5.332   5.340
14631TIP3   OH243837   5.883   2.663   6.508
14631TIP3    H143838   5.958   2.626   6.461
14631TIP3    H243839   5.850   2.732   6.450
14632TIP3   OH243840   1.154   2.884   6.179
14632TIP3    H143841   1.134   2.903   6.271
14632TIP3    H243842   1.249   2.870   6.178
14633TIP3   OH243843   0.781   1.989   6.263
14633TIP3    H143844   0.818   1.905   6.291
14633TIP3    H243845   0.701   1.998   6.314
14634TIP3   OH243846   4.214   7.436   6.703
14634TIP3    H143847   4.160   7.419   6.626
14634TIP3    H243848   4.304   7.426   6.671
14635TIP3   OH243849   0.920   0.564   6.374
14635TIP3    H143850   1.006   0.530   6.348
14635TIP3    H243851   0.874   0.488   6.409
14636TIP3   OH243852   2.051   2.658   5.618
14636TIP3    H143853   2.136   2.692   5.589
14636TIP3    H243854   2.018   2.725   5.679
14637TIP3   OH243855   0.308   6.229   3.203
14637TIP3    H143856   0.225   6.265   3.171
14637TIP3    H243857   0.291   6.136   3.215
14638TIP3   OH243858   3.292   1.321   6.326
14638TIP3    H143859   3.241   1.344   6.249
14638TIP3    H243860   3.375   1.367   6.314
14639TIP3   OH243861   1.385   7.000   6.023
14639TIP3    H143862   1.471   6.959   6.020
14639TIP3    H243863   1.392   7.076   5.964
14640TIP3   OH243864   5.896   6.657   2.158
14640TIP3    H143865   5.990   6.653   2.141
14640TIP3    H243866   5.883   6.603   2.236
14641TIP3   OH243867   5.476   0.766   6.480
14641TIP3    H143868   5.452   0.786   6.390
14641TIP3    H243869   5.462   0.671   6.487
14642TIP3   OH243870   4.198   7.539   2.175
14642TIP3    H143871   4.232   7.455   2.204
14642TIP3    H243872   4.265   7.602   2.201
14643TIP3   OH243873   5.732   5.925   0.246
14643TIP3    H143874   5.819   5.966   0.253
14643TIP3    H243875   5.738   5.848   0.302
14644TIP3   OH243876   2.372   6.547   4.468
14644TIP3    H143877   2.400   6.475   4.411
14644TIP3    H243878   2.400   6.519   4.555
14645TIP3   OH243879   1.084   4.487   4.529
14645TIP3    H143880   1.074   4.560   4.591
14645TIP3    H243881   1.007   4.433   4.545
14646TIP3   OH243882   6.062   1.988   6.235
14646TIP3    H143883   6.121   1.913   6.244
14646TIP3    H243884   6.105   2.057   6.286
14647TIP3   OH243885   2.988   2.965   6.317
14647TIP3    H143886   3.016   3.049   6.282
14647TIP3    H243887   2.974   2.911   6.239
14648TIP3   OH243888   3.457   4.766   0.329
14648TIP3    H143889   3.493   4.678   0.322
14648TIP3    H243890   3.496   4.814   0.256
14649TIP3   OH243891   7.953   0.950   1.046
14649TIP3    H143892   8.009   0.993   1.111
14649TIP3    H243893   7.944   0.860   1.079
14650TIP3   OH243894   0.189   0.050   0.273
14650TIP3    H143895   0.151   0.117   0.330
14650TIP3    H243896   0.151   0.067   0.187
14651TIP3   OH243897   2.015   3.685   0.092
14651TIP3    H143898   1.932   3.676   0.044
14651TIP3    H243899   2.005   3.767   0.140
14652TIP3   OH243900   2.865   4.599   1.569
14652TIP3    H143901   2.791   4.657   1.588
14652TIP3    H243902   2.934   4.629   1.629
14653TIP3   OH243903   2.162   5.682   5.085
14653TIP3    H143904   2.116   5.599   5.092
14653TIP3    H243905   2.236   5.664   5.027
14654TIP3   OH243906   7.122   5.554   2.722
14654TIP3    H143907   7.162   5.640   2.715
14654TIP3    H243908   7.115   5.523   2.632
14655TIP3   OH243909   0.157   4.748   3.841
14655TIP3    H143910   0.153   4.768   3.934
14655TIP3    H243911   0.149   4.652   3.837
14656TIP3   OH243912   7.066   1.059   1.852
14656TIP3    H143913   6.972   1.062   1.832
14656TIP3    H243914   7.071   1.084   1.945
14657TIP3   OH243915   1.124   6.179   2.585
14657TIP3    H143916   1.212   6.143   2.596
14657TIP3    H243917   1.066   6.111   2.618
14658TIP3   OH243918   5.147   3.510   3.743
14658TIP3    H143919   5.073   3.507   3.804
14658TIP3    H243920   5.109   3.542   3.661
14659TIP3   OH243921   2.946   5.869   1.759
14659TIP3    H143922   2.965   5.911   1.674
14659TIP3    H243923   2.980   5.930   1.824
14660TIP3   OH243924   1.221   7.591   4.639
14660TIP3    H143925   1.164   7.644   4.695
14660TIP3    H243926   1.295   7.568   4.695
14661TIP3   OH243927   6.812   5.413   0.964
14661TIP3    H143928   6.857   5.436   1.044
14661TIP3    H243929   6.753   5.487   0.947
14662TIP3   OH243930   0.888   1.577   4.206
14662TIP3    H143931   0.866   1.583   4.300
14662TIP3    H243932   0.815   1.620   4.162
14663TIP3   OH243933   6.917   2.659   2.292
14663TIP3    H143934   6.863   2.605   2.234
14663TIP3    H243935   6.855   2.699   2.353
14664TIP3   OH243936   7.335   6.628   2.409
14664TIP3    H143937   7.383   6.562   2.358
14664TIP3    H243938   7.368   6.617   2.498
14665TIP3   OH243939   2.535   4.816   5.297
14665TIP3    H143940   2.596   4.784   5.231
14665TIP3    H243941   2.455   4.764   5.285
14666TIP3   OH243942   1.457   3.309   3.939
14666TIP3    H143943   1.524   3.364   3.899
14666TIP3    H243944   1.402   3.281   3.866
14667TIP3   OH243945   1.118   2.687   4.760
14667TIP3    H143946   1.175   2.662   4.688
14667TIP3    H243947   1.105   2.781   4.750
14668TIP3   OH243948   5.136   7.311   6.094
14668TIP3    H143949   5.107   7.323   6.184
14668TIP3    H243950   5.114   7.393   6.051
14669TIP3   OH243951   7.565   7.374   1.844
14669TIP3    H143952   7.656   7.402   1.850
14669TIP3    H243953   7.561   7.318   1.767
14670TIP3   OH243954   5.718   0.836   1.250
14670TIP3    H143955   5.787   0.848   1.315
14670TIP3    H243956   5.757   0.867   1.168
14671TIP3   OH243957   8.003   0.790   2.791
14671TIP3    H143958   7.925   0.802   2.738
14671TIP3    H243959   8.047   0.715   2.751
14672TIP3   OH243960   3.786   1.440   6.333
14672TIP3    H143961   3.802   1.354   6.373
14672TIP3    H243962   3.691   1.448   6.333
14673TIP3   OH243963   8.193   7.738   5.178
14673TIP3    H143964   8.206   7.798   5.251
14673TIP3    H243965   8.241   7.778   5.105
14674TIP3   OH243966   7.483   0.365   3.945
14674TIP3    H143967   7.449   0.454   3.948
14674TIP3    H243968   7.535   0.363   3.865
14675TIP3   OH243969   0.447   5.077   0.133
14675TIP3    H143970   0.492   5.137   0.073
14675TIP3    H243971   0.383   5.132   0.179
14676TIP3   OH243972   5.969   1.278   0.799
14676TIP3    H143973   6.049   1.290   0.748
14676TIP3    H243974   5.928   1.364   0.801
14677TIP3   OH243975   4.027   5.226   6.604
14677TIP3    H143976   4.011   5.181   6.521
14677TIP3    H243977   3.992   5.314   6.590
14678TIP3   OH243978   5.515   3.269   0.217
14678TIP3    H143979   5.434   3.265   0.268
14678TIP3    H243980   5.507   3.350   0.166
14679TIP3   OH243981   2.721   2.788   4.260
14679TIP3    H143982   2.652   2.854   4.255
14679TIP3    H243983   2.729   2.769   4.354
14680TIP3   OH243984   8.219   7.770   0.172
14680TIP3    H143985   8.230   7.682   0.209
14680TIP3    H243986   8.189   7.823   0.245
14681TIP3   OH243987   7.187   4.664   6.270
14681TIP3    H143988   7.175   4.668   6.365
14681TIP3    H243989   7.279   4.685   6.257
14682TIP3   OH243990   6.785   7.613   1.902
14682TIP3    H143991   6.773   7.520   1.924
14682TIP3    H243992   6.876   7.618   1.873
14683TIP3   OH243993   6.842   6.489   6.307
14683TIP3    H143994   6.937   6.495   6.301
14683TIP3    H243995   6.827   6.422   6.373
14684TIP3   OH243996   7.065   1.653   6.322
14684TIP3    H143997   7.043   1.701   6.402
14684TIP3    H243998   7.063   1.720   6.253
14685TIP3   OH243999   1.827   1.590   1.450
14685TIP3    H144000   1.798   1.532   1.521
14685TIP3    H244001   1.756   1.587   1.386
14686TIP3   OH244002   3.605   7.220   1.838
14686TIP3    H144003   3.561   7.165   1.774
14686TIP3    H244004   3.676   7.166   1.871
14687TIP3   OH244005   3.377   2.522   0.526
14687TIP3    H144006   3.362   2.588   0.459
14687TIP3    H244007   3.297   2.469   0.526
14688TIP3   OH244008   0.833   5.051   0.007
14688TIP3    H144009   0.913   5.049   0.059
14688TIP3    H244010   0.846   4.982  -0.059
14689TIP3   OH244011   0.451   1.550   5.956
14689TIP3    H144012   0.425   1.640   5.971
14689TIP3    H244013   0.459   1.542   5.861
14690TIP3   OH244014   8.066   5.609   1.309
14690TIP3    H144015   8.102   5.558   1.235
14690TIP3    H244016   8.081   5.553   1.385
14691TIP3   OH244017   2.640   3.638   3.355
14691TIP3    H144018   2.566   3.698   3.362
14691TIP3    H244019   2.620   3.583   3.279
14692TIP3   OH244020   1.245   2.546   3.226
14692TIP3    H144021   1.155   2.560   3.197
14692TIP3    H244022   1.276   2.470   3.176
14693TIP3   OH244023   0.114   1.450   0.248
14693TIP3    H144024   0.163   1.384   0.297
14693TIP3    H244025   0.023   1.419   0.250
14694TIP3   OH244026   1.724   1.389   2.276
14694TIP3    H144027   1.767   1.396   2.361
14694TIP3    H244028   1.723   1.479   2.242
14695TIP3   OH244029   6.226   6.732   6.352
14695TIP3    H144030   6.167   6.805   6.337
14695TIP3    H244031   6.171   6.664   6.391
14696TIP3   OH244032   1.568   3.051   0.137
14696TIP3    H144033   1.529   3.056   0.224
14696TIP3    H244034   1.540   3.131   0.093
14697TIP3   OH244035   7.836   4.253   0.465
14697TIP3    H144036   7.855   4.266   0.558
14697TIP3    H244037   7.807   4.339   0.434
14698TIP3   OH244038   6.650   6.928   5.540
14698TIP3    H144039   6.692   6.938   5.625
14698TIP3    H244040   6.610   6.841   5.544
14699TIP3   OH244041   3.003   1.986   0.959
14699TIP3    H144042   3.023   1.908   1.012
14699TIP3    H244043   2.909   1.997   0.968
14700TIP3   OH244044   1.681   5.110   4.980
14700TIP3    H144045   1.717   5.155   4.905
14700TIP3    H244046   1.587   5.104   4.962
14701TIP3   OH244047   6.179   6.321   2.666
14701TIP3    H144048   6.170   6.346   2.575
14701TIP3    H244049   6.247   6.254   2.666
14702TIP3   OH244050   3.453   5.097   6.419
14702TIP3    H144051   3.404   5.107   6.500
14702TIP3    H244052   3.543   5.080   6.447
14703TIP3   OH244053   8.098   6.759   4.880
14703TIP3    H144054   8.127   6.788   4.966
14703TIP3    H244055   8.171   6.707   4.846
14704TIP3   OH244056   2.201   5.865   0.725
14704TIP3    H144057   2.250   5.785   0.746
14704TIP3    H244058   2.205   5.871   0.630
14705TIP3   OH244059   4.141   6.056   4.888
14705TIP3    H144060   4.087   6.047   4.809
14705TIP3    H244061   4.161   5.966   4.913
14706TIP3   OH244062   7.534   0.951   5.363
14706TIP3    H144063   7.473   0.899   5.311
14706TIP3    H244064   7.568   1.017   5.302
14707TIP3   OH244065   0.538   1.944   5.728
14707TIP3    H144066   0.571   2.031   5.751
14707TIP3    H244067   0.506   1.908   5.810
14708TIP3   OH244068   6.949   0.141   3.528
14708TIP3    H144069   6.938   0.166   3.436
14708TIP3    H244070   7.042   0.155   3.545
14709TIP3   OH244071   2.650   2.082   4.166
14709TIP3    H144072   2.636   2.158   4.222
14709TIP3    H244073   2.715   2.029   4.213
14710TIP3   OH244074   4.076   2.970   3.351
14710TIP3    H144075   4.130   2.892   3.363
14710TIP3    H244076   3.987   2.936   3.341
14711TIP3   OH244077   4.002   6.441   0.686
14711TIP3    H144078   3.969   6.353   0.699
14711TIP3    H244079   4.019   6.447   0.592
14712TIP3   OH244080   3.089   0.504   2.694
14712TIP3    H144081   3.033   0.578   2.720
14712TIP3    H244082   3.045   0.428   2.731
14713TIP3   OH244083   6.393   0.900   2.319
14713TIP3    H144084   6.383   0.991   2.347
14713TIP3    H244085   6.304   0.864   2.322
14714TIP3   OH244086   4.375   6.368   0.446
14714TIP3    H144087   4.439   6.407   0.505
14714TIP3    H244088   4.412   6.380   0.359
14715TIP3   OH244089   4.166   3.210   3.008
14715TIP3    H144090   4.152   3.116   2.997
14715TIP3    H244091   4.248   3.227   2.963
14716TIP3   OH244092   2.301   6.308   2.934
14716TIP3    H144093   2.232   6.349   2.987
14716TIP3    H244094   2.382   6.351   2.963
14717TIP3   OH244095   1.064   3.296   6.211
14717TIP3    H144096   1.156   3.318   6.192
14717TIP3    H244097   1.015   3.373   6.185
14718TIP3   OH244098   4.853   6.578   0.076
14718TIP3    H144099   4.809   6.627   0.006
14718TIP3    H244100   4.908   6.515   0.029
14719TIP3   OH244101   5.952   7.655   0.846
14719TIP3    H144102   5.984   7.745   0.835
14719TIP3    H244103   6.013   7.615   0.908
14720TIP3   OH244104   0.145   3.268   3.334
14720TIP3    H144105   0.095   3.327   3.278
14720TIP3    H244106   0.171   3.323   3.409
14721TIP3   OH244107   3.695   6.956   6.763
14721TIP3    H144108   3.697   6.865   6.792
14721TIP3    H244109   3.701   7.007   6.844
14722TIP3   OH244110   0.878   1.840   5.925
14722TIP3    H144111   0.866   1.906   5.857
14722TIP3    H244112   0.972   1.842   5.945
14723TIP3   OH244113   5.561   7.230   0.358
14723TIP3    H144114   5.631   7.270   0.410
14723TIP3    H244115   5.483   7.239   0.412
14724TIP3   OH244116   0.532   2.452   3.110
14724TIP3    H144117   0.486   2.468   3.192
14724TIP3    H244118   0.523   2.358   3.095
14725TIP3   OH244119   5.612   1.712   4.319
14725TIP3    H144120   5.707   1.702   4.317
14725TIP3    H244121   5.599   1.807   4.329
14726TIP3   OH244122   1.769   6.806   5.354
14726TIP3    H144123   1.757   6.760   5.438
14726TIP3    H244124   1.846   6.765   5.315
14727TIP3   OH244125   6.087   4.076   0.108
14727TIP3    H144126   6.078   4.089   0.203
14727TIP3    H244127   6.070   3.984   0.094
14728TIP3   OH244128   1.905   4.581   1.088
14728TIP3    H144129   1.933   4.618   1.004
14728TIP3    H244130   1.837   4.641   1.119
14729TIP3   OH244131   5.782   3.548   1.595
14729TIP3    H144132   5.772   3.458   1.565
14729TIP3    H244133   5.805   3.598   1.517
14730TIP3   OH244134   7.720   5.521   1.805
14730TIP3    H144135   7.741   5.428   1.814
14730TIP3    H244136   7.805   5.565   1.806
14731TIP3   OH244137   4.995   3.260   5.963
14731TIP3    H144138   5.041   3.201   5.903
14731TIP3    H244139   4.916   3.213   5.987
14732TIP3   OH244140   6.546   7.852   6.458
14732TIP3    H144141   6.634   7.819   6.479
14732TIP3    H244142   6.493   7.827   6.534
14733TIP3   OH244143   0.462   0.059   0.139
14733TIP3    H144144   0.473  -0.032   0.110
14733TIP3    H244145   0.373   0.062   0.174
14734TIP3   OH244146   1.388   0.026   0.747
14734TIP3    H144147   1.417   0.106   0.790
14734TIP3    H244148   1.458   0.005   0.685
14735TIP3   OH244149   4.026   4.541   3.818
14735TIP3    H144150   4.076   4.486   3.878
14735TIP3    H244151   4.054   4.630   3.840
14736TIP3   OH244152   8.244   3.711   4.685
14736TIP3    H144153   8.318   3.743   4.635
14736TIP3    H244154   8.182   3.680   4.619
14737TIP3   OH244155   2.189   0.706   2.918
14737TIP3    H144156   2.261   0.757   2.882
14737TIP3    H244157   2.185   0.627   2.863
14738TIP3   OH244158   2.973   0.275   2.773
14738TIP3    H144159   3.036   0.217   2.730
14738TIP3    H244160   2.924   0.217   2.833
14739TIP3   OH244161   4.861   3.193   0.185
14739TIP3    H144162   4.824   3.119   0.232
14739TIP3    H244163   4.896   3.155   0.104
14740TIP3   OH244164   2.256   4.959   2.788
14740TIP3    H144165   2.342   4.996   2.807
14740TIP3    H244166   2.225   5.009   2.712
14741TIP3   OH244167   6.146   0.605   5.532
14741TIP3    H144168   6.097   0.584   5.611
14741TIP3    H244169   6.173   0.697   5.544
14742TIP3   OH244170   7.763   5.367   5.529
14742TIP3    H144171   7.701   5.361   5.456
14742TIP3    H244172   7.847   5.341   5.492
14743TIP3   OH244173   7.858   3.088   5.011
14743TIP3    H144174   7.790   3.024   4.989
14743TIP3    H244175   7.908   3.098   4.930
14744TIP3   OH244176   1.602   6.398   5.161
14744TIP3    H144177   1.640   6.479   5.128
14744TIP3    H244178   1.613   6.404   5.256
14745TIP3   OH244179   7.512   5.331   1.791
14745TIP3    H144180   7.587   5.390   1.794
14745TIP3    H244181   7.504   5.297   1.880
14746TIP3   OH244182   7.471   4.120   4.878
14746TIP3    H144183   7.391   4.161   4.912
14746TIP3    H244184   7.542   4.165   4.923
14747TIP3   OH244185   5.783   4.725   6.287
14747TIP3    H144186   5.846   4.709   6.217
14747TIP3    H244187   5.701   4.687   6.255
14748TIP3   OH244188   3.895   7.453   3.598
14748TIP3    H144189   3.956   7.497   3.658
14748TIP3    H244190   3.850   7.389   3.652
14749TIP3   OH244191   5.677   3.045   5.248
14749TIP3    H144192   5.700   3.118   5.191
14749TIP3    H244193   5.751   3.038   5.308
14750TIP3   OH244194   7.774   2.956   6.424
14750TIP3    H144195   7.716   2.882   6.407
14750TIP3    H244196   7.716   3.032   6.423
14751TIP3   OH244197   6.730   5.655   3.827
14751TIP3    H144198   6.636   5.670   3.830
14751TIP3    H244199   6.767   5.739   3.799
14752TIP3   OH244200   5.260   5.596   0.309
14752TIP3    H144201   5.261   5.504   0.282
14752TIP3    H244202   5.169   5.623   0.300
14753TIP3   OH244203   1.430   6.677   5.199
14753TIP3    H144204   1.521   6.681   5.169
14753TIP3    H244205   1.379   6.686   5.118
14754TIP3   OH244206   3.426   5.780   3.395
14754TIP3    H144207   3.377   5.741   3.323
14754TIP3    H244208   3.517   5.783   3.364
14755TIP3   OH244209   7.524   4.056   0.282
14755TIP3    H144210   7.477   4.056   0.198
14755TIP3    H244211   7.487   3.981   0.329
14756TIP3   OH244212   8.206   0.604   0.493
14756TIP3    H144213   8.250   0.552   0.560
14756TIP3    H244214   8.124   0.631   0.533
14757TIP3   OH244215   7.806   5.729   4.441
14757TIP3    H144216   7.887   5.746   4.488
14757TIP3    H244217   7.833   5.706   4.353
14758TIP3   OH244218   2.343   0.344   6.584
14758TIP3    H144219   2.370   0.254   6.599
14758TIP3    H244220   2.280   0.340   6.513
14759TIP3   OH244221   5.497   6.127   0.128
14759TIP3    H144222   5.469   6.128   0.036
14759TIP3    H244223   5.433   6.180   0.174
14760TIP3   OH244224   2.044   4.580   4.223
14760TIP3    H144225   1.996   4.654   4.186
14760TIP3    H244226   2.102   4.552   4.153
14761TIP3   OH244227   0.630   0.309   2.735
14761TIP3    H144228   0.640   0.214   2.746
14761TIP3    H244229   0.564   0.334   2.800
14762TIP3   OH244230   8.117   6.486   3.078
14762TIP3    H144231   8.023   6.484   3.095
14762TIP3    H244232   8.128   6.553   3.010
14763TIP3   OH244233   6.007   1.611   6.559
14763TIP3    H144234   5.911   1.613   6.566
14763TIP3    H244235   6.036   1.579   6.644
14764TIP3   OH244236   4.527   5.020   2.464
14764TIP3    H144237   4.518   4.925   2.456
14764TIP3    H244238   4.462   5.045   2.529
14765TIP3   OH244239   6.455   1.204   1.650
14765TIP3    H144240   6.368   1.172   1.626
14765TIP3    H244241   6.515   1.134   1.624
14766TIP3   OH244242   8.151   4.252   3.268
14766TIP3    H144243   8.202   4.263   3.187
14766TIP3    H244244   8.107   4.336   3.280
14767TIP3   OH244245   3.687   7.295   2.489
14767TIP3    H144246   3.642   7.338   2.562
14767TIP3    H244247   3.629   7.310   2.414
14768TIP3   OH244248   6.879   5.243   4.090
14768TIP3    H144249   6.923   5.322   4.123
14768TIP3    H244250   6.794   5.275   4.059
14769TIP3   OH244251   7.113   1.120   2.976
14769TIP3    H144252   7.058   1.172   3.034
14769TIP3    H244253   7.081   1.030   2.986
14770TIP3   OH244254   2.390   3.579   3.956
14770TIP3    H144255   2.330   3.549   3.888
14770TIP3    H244256   2.475   3.585   3.913
14771TIP3   OH244257   4.989   7.551   3.430
14771TIP3    H144258   5.073   7.546   3.384
14771TIP3    H244259   4.998   7.489   3.503
14772TIP3   OH244260   3.838   0.537   4.013
14772TIP3    H144261   3.743   0.548   4.012
14772TIP3    H244262   3.855   0.456   3.965
14773TIP3   OH244263   7.883   4.899   6.480
14773TIP3    H144264   7.919   4.839   6.545
14773TIP3    H244265   7.788   4.896   6.494
14774TIP3   OH244266   7.907   4.538   5.957
14774TIP3    H144267   7.965   4.539   5.880
14774TIP3    H244268   7.898   4.446   5.979
14775TIP3   OH244269   8.336   7.755   4.085
14775TIP3    H144270   8.324   7.838   4.131
14775TIP3    H244271   8.381   7.779   4.004
14776TIP3   OH244272   4.109   3.067   0.340
14776TIP3    H144273   4.149   3.049   0.254
14776TIP3    H244274   4.016   3.050   0.327
14777TIP3   OH244275   5.634   4.884   0.800
14777TIP3    H144276   5.709   4.935   0.832
14777TIP3    H244277   5.634   4.898   0.706
14778TIP3   OH244278   3.005   3.715   3.714
14778TIP3    H144279   2.964   3.757   3.790
14778TIP3    H244280   2.931   3.694   3.656
14779TIP3   OH244281   0.367   5.764   0.519
14779TIP3    H144282   0.272   5.769   0.525
14779TIP3    H244283   0.390   5.680   0.558
14780TIP3   OH244284   3.159   0.040   4.071
14780TIP3    H144285   3.157   0.129   4.036
14780TIP3    H244286   3.252   0.017   4.072
14781TIP3   OH244287   7.704   7.325   5.022
14781TIP3    H144288   7.628   7.309   5.079
14781TIP3    H244289   7.722   7.241   4.982
14782TIP3   OH244290   6.289   0.495   2.868
14782TIP3    H144291   6.295   0.486   2.773
14782TIP3    H244292   6.343   0.571   2.889
14783TIP3   OH244293   5.096   1.818   0.789
14783TIP3    H144294   5.080   1.728   0.758
14783TIP3    H244295   5.177   1.811   0.840
14784TIP3   OH244296   7.029   5.397   1.680
14784TIP3    H144297   6.963   5.462   1.655
14784TIP3    H244298   7.066   5.367   1.597
14785TIP3   OH244299   8.166   5.273   0.524
14785TIP3    H144300   8.101   5.242   0.461
14785TIP3    H244301   8.250   5.258   0.481
14786TIP3   OH244302   4.776   5.881   5.116
14786TIP3    H144303   4.736   5.962   5.083
14786TIP3    H244304   4.778   5.823   5.040
14787TIP3   OH244305   4.293   2.623   4.586
14787TIP3    H144306   4.256   2.581   4.664
14787TIP3    H244307   4.216   2.642   4.531
14788TIP3   OH244308   2.549   0.859   3.547
14788TIP3    H144309   2.572   0.805   3.623
14788TIP3    H244310   2.462   0.893   3.567
14789TIP3   OH244311   2.626   6.383   5.966
14789TIP3    H144312   2.691   6.398   6.035
14789TIP3    H244313   2.656   6.436   5.892
14790TIP3   OH244314   5.258   2.433   4.966
14790TIP3    H144315   5.206   2.481   4.901
14790TIP3    H244316   5.269   2.495   5.038
14791TIP3   OH244317   1.612   3.431   1.176
14791TIP3    H144318   1.613   3.370   1.103
14791TIP3    H244319   1.606   3.517   1.136
14792TIP3   OH244320   4.808   1.496   5.951
14792TIP3    H144321   4.746   1.485   5.879
14792TIP3    H244322   4.811   1.591   5.966
14793TIP3   OH244323   5.609   3.377   6.558
14793TIP3    H144324   5.600   3.374   6.463
14793TIP3    H244325   5.566   3.297   6.589
14794TIP3   OH244326   0.246   0.842   1.116
14794TIP3    H144327   0.313   0.908   1.135
14794TIP3    H244328   0.174   0.891   1.077
14795TIP3   OH244329   3.291   3.952   0.460
14795TIP3    H144330   3.244   3.876   0.425
14795TIP3    H244331   3.363   3.915   0.510
14796TIP3   OH244332   1.295   4.127   4.862
14796TIP3    H144333   1.276   4.034   4.877
14796TIP3    H244334   1.306   4.134   4.767
14797TIP3   OH244335   8.244   2.690   5.410
14797TIP3    H144336   8.207   2.602   5.420
14797TIP3    H244337   8.172   2.741   5.372
14798TIP3   OH244338   7.195   5.411   2.502
14798TIP3    H144339   7.187   5.318   2.478
14798TIP3    H244340   7.235   5.452   2.426
14799TIP3   OH244341   1.368   1.180   1.139
14799TIP3    H144342   1.272   1.186   1.138
14799TIP3    H244343   1.387   1.088   1.159
14800TIP3   OH244344   4.077   3.059   2.265
14800TIP3    H144345   4.107   3.034   2.352
14800TIP3    H244346   4.004   2.999   2.246
14801TIP3   OH244347   2.849   3.244   0.168
14801TIP3    H144348   2.924   3.246   0.108
14801TIP3    H244349   2.868   3.171   0.227
14802TIP3   OH244350   4.239   4.075   2.573
14802TIP3    H144351   4.183   4.092   2.498
14802TIP3    H244352   4.179   4.069   2.648
14803TIP3   OH244353   1.159   5.576   2.332
14803TIP3    H144354   1.208   5.509   2.285
14803TIP3    H244355   1.081   5.591   2.278
14804TIP3   OH244356   6.668   5.196   6.075
14804TIP3    H144357   6.578   5.217   6.098
14804TIP3    H244358   6.713   5.185   6.158
14805TIP3   OH244359   6.493   4.852   1.233
14805TIP3    H144360   6.547   4.845   1.311
14805TIP3    H244361   6.466   4.944   1.231
14806TIP3   OH244362   0.121   3.289   3.658
14806TIP3    H144363   0.027   3.273   3.650
14806TIP3    H244364   0.132   3.379   3.629
14807TIP3   OH244365   1.378   3.789   2.238
14807TIP3    H144366   1.401   3.704   2.200
14807TIP3    H244367   1.461   3.834   2.250
14808TIP3   OH244368   4.983   6.312   2.759
14808TIP3    H144369   4.895   6.336   2.729
14808TIP3    H244370   4.987   6.217   2.748
14809TIP3   OH244371   4.781   5.072   3.550
14809TIP3    H144372   4.806   4.979   3.557
14809TIP3    H244373   4.731   5.077   3.469
14810TIP3   OH244374   0.787   1.218  -0.001
14810TIP3    H144375   0.758   1.127   0.011
14810TIP3    H244376   0.729   1.269   0.054
14811TIP3   OH244377   0.426   6.265   4.859
14811TIP3    H144378   0.509   6.232   4.824
14811TIP3    H244379   0.407   6.343   4.807
14812TIP3   OH244380   7.360   5.968   2.150
14812TIP3    H144381   7.320   5.920   2.077
14812TIP3    H244382   7.441   6.003   2.114
14813TIP3   OH244383   5.387   7.651   4.094
14813TIP3    H144384   5.335   7.590   4.145
14813TIP3    H244385   5.366   7.631   4.003
14814TIP3   OH244386   7.947   2.796   2.408
14814TIP3    H144387   7.996   2.754   2.479
14814TIP3    H244388   7.860   2.757   2.412
14815TIP3   OH244389   8.052   2.116   5.177
14815TIP3    H144390   7.962   2.128   5.207
14815TIP3    H244391   8.052   2.147   5.087
14816TIP3   OH244392   3.139   3.941   3.507
14816TIP3    H144393   3.227   3.905   3.518
14816TIP3    H244394   3.125   3.994   3.585
14817TIP3   OH244395   2.521   3.945   6.350
14817TIP3    H144396   2.487   4.023   6.394
14817TIP3    H244397   2.532   3.972   6.259
14818TIP3   OH244398   7.097   5.903   6.172
14818TIP3    H144399   7.151   5.865   6.104
14818TIP3    H244400   7.024   5.842   6.183
14819TIP3   OH244401   1.720   0.919   1.271
14819TIP3    H144402   1.766   0.931   1.188
14819TIP3    H244403   1.721   1.006   1.311
14820TIP3   OH244404   4.088   7.170   4.974
14820TIP3    H144405   4.090   7.156   5.069
14820TIP3    H244406   4.144   7.247   4.960
14821TIP3   OH244407   4.422   0.804   4.099
14821TIP3    H144408   4.470   0.885   4.084
14821TIP3    H244409   4.400   0.806   4.192
14822TIP3   OH244410   0.899   0.705   0.586
14822TIP3    H144411   0.809   0.716   0.617
14822TIP3    H244412   0.925   0.618   0.616
14823TIP3   OH244413   4.817   3.866   5.150
14823TIP3    H144414   4.870   3.929   5.100
14823TIP3    H244415   4.872   3.788   5.156
14824TIP3   OH244416   4.145   6.578   1.539
14824TIP3    H144417   4.151   6.673   1.550
14824TIP3    H244418   4.164   6.564   1.446
14825TIP3   OH244419   6.949   4.957   5.648
14825TIP3    H144420   6.895   4.997   5.716
14825TIP3    H244421   7.032   5.005   5.652
14826TIP3   OH244422   1.946   4.862   2.689
14826TIP3    H144423   1.935   4.858   2.594
14826TIP3    H244424   1.957   4.956   2.708
14827TIP3   OH244425   0.187   0.873   2.669
14827TIP3    H144426   0.095   0.880   2.692
14827TIP3    H244427   0.231   0.935   2.727
14828TIP3   OH244428   2.126   3.590   1.339
14828TIP3    H144429   2.172   3.584   1.256
14828TIP3    H244430   2.063   3.662   1.327
14829TIP3   OH244431   3.340   0.519   6.410
14829TIP3    H144432   3.346   0.548   6.501
14829TIP3    H244433   3.338   0.599   6.359
14830TIP3   OH244434   2.923   6.046   2.949
14830TIP3    H144435   2.860   5.975   2.936
14830TIP3    H244436   3.002   6.002   2.980
14831TIP3   OH244437   1.342   6.031   2.742
14831TIP3    H144438   1.426   6.075   2.753
14831TIP3    H244439   1.286   6.070   2.809
14832TIP3   OH244440   4.300   2.115   4.551
14832TIP3    H144441   4.205   2.118   4.561
14832TIP3    H244442   4.335   2.160   4.628
14833TIP3   OH244443   7.513   5.111   0.302
14833TIP3    H144444   7.554   5.188   0.343
14833TIP3    H244445   7.471   5.064   0.374
14834TIP3   OH244446   1.579   2.292   1.167
14834TIP3    H144447   1.601   2.383   1.145
14834TIP3    H244448   1.543   2.256   1.087
14835TIP3   OH244449   2.907   4.507   2.945
14835TIP3    H144450   2.914   4.440   2.877
14835TIP3    H244451   2.945   4.467   3.023
14836TIP3   OH244452   0.033   0.274   4.815
14836TIP3    H144453   0.093   0.348   4.812
14836TIP3    H244454   0.029   0.249   4.907
14837TIP3   OH244455   1.636   7.765   2.000
14837TIP3    H144456   1.587   7.751   1.919
14837TIP3    H244457   1.703   7.829   1.976
14838TIP3   OH244458   6.826   3.634   1.659
14838TIP3    H144459   6.754   3.627   1.596
14838TIP3    H244460   6.801   3.707   1.715
14839TIP3   OH244461   0.766   3.397   1.727
14839TIP3    H144462   0.782   3.343   1.805
14839TIP3    H244463   0.853   3.426   1.700
   8.30316   7.82830   6.77950   0.00000   0.00000  -2.76772   0.00000  -2.76772  -3.91415
