Title t= 167.00000 step= 83500
44463
    1GLY      N    1   2.964   3.358   3.890
    1GLY    HT1    2   3.009   3.326   3.978
    1GLY    HT2    3   2.865   3.376   3.913
    1GLY    HT3    4   3.014   3.447   3.870
    1GLY     CA    5   2.985   3.246   3.790
    1GLY    HA1    6   3.087   3.212   3.790
    1GLY    HA2    7   2.947   3.267   3.691
    1GLY      C    8   2.914   3.124   3.826
    1GLY      O    9   2.859   3.124   3.936
    2PRO      N   10   2.900   3.010   3.755
    2PRO     CD   11   2.913   3.009   3.609
    2PRO    HD1   12   3.023   3.009   3.589
    2PRO    HD2   13   2.853   3.085   3.554
    2PRO     CA   14   2.877   2.887   3.823
    2PRO     HA   15   2.784   2.898   3.876
    2PRO     CB   16   2.870   2.790   3.707
    2PRO    HB1   17   2.799   2.706   3.725
    2PRO    HB2   18   2.969   2.741   3.697
    2PRO     CG   19   2.859   2.869   3.573
    2PRO    HG1   20   2.905   2.814   3.487
    2PRO    HG2   21   2.752   2.875   3.542
    2PRO      C   22   2.978   2.839   3.929
    2PRO      O   23   3.089   2.897   3.933
    3GLY      N   24   2.945   2.737   4.008
    3GLY     HN   25   2.861   2.684   4.000
    3GLY     CA   26   3.029   2.679   4.116
    3GLY    HA1   27   2.965   2.633   4.190
    3GLY    HA2   28   3.093   2.754   4.161
    3GLY      C   29   3.130   2.572   4.073
    3GLY      O   30   3.159   2.561   3.952
    4ASP      N   31   3.187   2.493   4.170
    4ASP     HN   32   3.161   2.491   4.266
    4ASP     CA   33   3.285   2.385   4.145
    4ASP     HA   34   3.347   2.422   4.065
    4ASP     CB   35   3.374   2.368   4.268
    4ASP    HB1   36   3.454   2.291   4.260
    4ASP    HB2   37   3.308   2.331   4.349
    4ASP     CG   38   3.444   2.492   4.303
    4ASP    OD1   39   3.460   2.518   4.426
    4ASP    OD2   40   3.504   2.551   4.211
    4ASP      C   41   3.225   2.250   4.103
    4ASP      O   42   3.106   2.227   4.134
    5PRO      N   43   3.299   2.157   4.038
    5PRO     CD   44   3.419   2.187   3.957
    5PRO    HD1   45   3.506   2.178   4.026
    5PRO    HD2   46   3.406   2.280   3.899
    5PRO     CA   47   3.272   2.013   4.029
    5PRO     HA   48   3.177   2.020   3.978
    5PRO     CB   49   3.386   1.956   3.946
    5PRO    HB1   50   3.340   1.874   3.887
    5PRO    HB2   51   3.464   1.906   4.007
    5PRO     CG   52   3.431   2.072   3.858
    5PRO    HG1   53   3.539   2.064   3.834
    5PRO    HG2   54   3.377   2.099   3.765
    5PRO      C   55   3.251   1.941   4.164
    5PRO      O   56   3.336   1.957   4.251
    6GLY      N   57   3.146   1.862   4.180
    6GLY     HN   58   3.086   1.842   4.103
    6GLY     CA   59   3.113   1.801   4.313
    6GLY    HA1   60   3.009   1.773   4.317
    6GLY    HA2   61   3.138   1.871   4.392
    6GLY      C   62   3.195   1.676   4.347
    6GLY      O   63   3.274   1.629   4.262
    7PRO      N   64   3.181   1.622   4.471
    7PRO     CD   65   3.104   1.678   4.582
    7PRO    HD1   66   3.005   1.628   4.571
    7PRO    HD2   67   3.097   1.789   4.582
    7PRO     CA   68   3.267   1.511   4.519
    7PRO     HA   69   3.371   1.532   4.503
    7PRO     CB   70   3.223   1.498   4.667
    7PRO    HB1   71   3.304   1.456   4.729
    7PRO    HB2   72   3.131   1.437   4.679
    7PRO     CG   73   3.174   1.635   4.709
    7PRO    HG1   74   3.115   1.636   4.803
    7PRO    HG2   75   3.267   1.693   4.726
    7PRO      C   76   3.250   1.376   4.446
    7PRO      O   77   3.152   1.344   4.376
    8GLY      N   78   3.355   1.287   4.447
    8GLY     HN   79   3.429   1.313   4.510
    8GLY     CA   80   3.374   1.157   4.382
    8GLY    HA1   81   3.311   1.084   4.430
    8GLY    HA2   82   3.480   1.134   4.388
    8GLY      C   83   3.352   1.150   4.234
    8GLY      O   84   3.369   1.248   4.163
    9ASP      N   85   3.329   1.025   4.188
    9ASP     HN   86   3.353   0.948   4.247
    9ASP     CA   87   3.288   0.987   4.057
    9ASP     HA   88   3.366   1.013   3.987
    9ASP     CB   89   3.241   0.836   4.058
    9ASP    HB1   90   3.165   0.813   3.979
    9ASP    HB2   91   3.171   0.819   4.143
    9ASP     CG   92   3.354   0.735   4.063
    9ASP    OD1   93   3.473   0.766   4.036
    9ASP    OD2   94   3.326   0.613   4.074
    9ASP      C   95   3.160   1.066   4.013
    9ASP      O   96   3.080   1.101   4.099
   10PRO      N   97   3.135   1.100   3.885
   10PRO     CD   98   3.216   1.068   3.763
   10PRO    HD1   99   3.178   0.968   3.731
   10PRO    HD2  100   3.326   1.068   3.773
   10PRO     CA  101   3.023   1.177   3.840
   10PRO     HA  102   3.033   1.274   3.888
   10PRO     CB  103   3.024   1.190   3.692
   10PRO    HB1  104   2.998   1.294   3.660
   10PRO    HB2  105   2.956   1.118   3.643
   10PRO     CG  106   3.169   1.166   3.655
   10PRO    HG1  107   3.181   1.118   3.555
   10PRO    HG2  108   3.233   1.256   3.658
   10PRO      C  109   2.877   1.134   3.890
   10PRO      O  110   2.853   1.019   3.917
   11GLY      N  111   2.784   1.231   3.891
   11GLY     HN  112   2.809   1.326   3.875
   11GLY     CA  113   2.652   1.195   3.932
   11GLY    HA1  114   2.657   1.104   3.990
   11GLY    HA2  115   2.599   1.186   3.839
   11GLY      C  116   2.586   1.302   4.021
   11GLY      O  117   2.658   1.389   4.067
   12PRO      N  118   2.456   1.301   4.033
   12PRO     CD  119   2.370   1.213   3.961
   12PRO    HD1  120   2.389   1.111   4.001
   12PRO    HD2  121   2.371   1.219   3.850
   12PRO     CA  122   2.384   1.389   4.132
   12PRO     HA  123   2.397   1.480   4.074
   12PRO     CB  124   2.241   1.335   4.135
   12PRO    HB1  125   2.160   1.411   4.143
   12PRO    HB2  126   2.231   1.258   4.214
   12PRO     CG  127   2.231   1.245   4.004
   12PRO    HG1  128   2.163   1.158   4.016
   12PRO    HG2  129   2.184   1.307   3.924
   12PRO      C  130   2.432   1.410   4.279
   12PRO      O  131   2.480   1.317   4.344
   13GLY      N  132   2.417   1.536   4.327
   13GLY     HN  133   2.406   1.602   4.253
   13GLY     CA  134   2.408   1.586   4.462
   13GLY    HA1  135   2.369   1.685   4.442
   13GLY    HA2  136   2.505   1.571   4.508
   13GLY      C  137   2.304   1.522   4.550
   13GLY      O  138   2.232   1.433   4.516
   14ASP      N  139   2.292   1.556   4.681
   14ASP     HN  140   2.346   1.624   4.730
   14ASP     CA  141   2.218   1.476   4.779
   14ASP     HA  142   2.268   1.381   4.788
   14ASP     CB  143   2.225   1.544   4.920
   14ASP    HB1  144   2.158   1.492   4.992
   14ASP    HB2  145   2.202   1.652   4.906
   14ASP     CG  146   2.361   1.538   4.986
   14ASP    OD1  147   2.372   1.558   5.110
   14ASP    OD2  148   2.465   1.523   4.923
   14ASP      C  149   2.070   1.465   4.751
   14ASP      O  150   2.009   1.573   4.720
   15PRO      N  151   2.003   1.345   4.761
   15PRO     CD  152   2.059   1.212   4.775
   15PRO    HD1  153   2.132   1.208   4.858
   15PRO    HD2  154   2.092   1.174   4.676
   15PRO     CA  155   1.854   1.345   4.770
   15PRO     HA  156   1.799   1.393   4.691
   15PRO     CB  157   1.822   1.193   4.752
   15PRO    HB1  158   1.808   1.157   4.648
   15PRO    HB2  159   1.725   1.171   4.802
   15PRO     CG  160   1.942   1.120   4.815
   15PRO    HG1  161   1.931   1.120   4.926
   15PRO    HG2  162   1.964   1.016   4.783
   15PRO      C  163   1.814   1.405   4.905
   15PRO    OT1  164   1.904   1.439   4.987
   15PRO    OT2  165   1.693   1.417   4.932
   16LIT    LIT  166   1.734   1.537   5.088
   17LIT    LIT  167   1.832   1.773   6.182
   18LIT    LIT  168   2.721   7.254   2.416
   19LIT    LIT  169   5.263   4.810   1.578
   20LIT    LIT  170   1.778   5.972   3.538
   21LIT    LIT  171   7.828   2.619   2.414
   22LIT    LIT  172   0.062   1.145   4.864
   23LIT    LIT  173   1.429   2.209   3.208
   24LIT    LIT  174   1.492   0.524   4.997
   25LIT    LIT  175   2.049   7.643   4.459
   26LIT    LIT  176   6.667   2.596   2.105
   27LIT    LIT  177   1.032   3.196   6.591
   28LIT    LIT  178   5.695   0.619   5.113
   29LIT    LIT  179   2.400   5.069   0.895
   30LIT    LIT  180   3.600   2.783   0.627
   31LIT    LIT  181   7.162   5.827   5.924
   32LIT    LIT  182   1.670   0.353   6.494
   33LIT    LIT  183   7.534   2.321   0.926
   34LIT    LIT  184   5.418   7.726   2.892
   35LIT    LIT  185   1.202   3.892   1.148
   36LIT    LIT  186   3.512   0.574   4.060
   37LIT    LIT  187   0.513   6.072   1.868
   38LIT    LIT  188   4.955   6.951   4.090
   39LIT    LIT  189   8.266   7.707   2.764
   40LIT    LIT  190   6.368   7.716   1.081
   41LIT    LIT  191   1.737   7.017   3.643
   42LIT    LIT  192   6.643   0.497   0.243
   43LIT    LIT  193   0.860   6.856   6.550
   44LIT    LIT  194   7.032   2.755   4.874
   45LIT    LIT  195   7.304   5.594   3.274
   46LIT    LIT  196   6.786   5.760   1.795
   47LIT    LIT  197   1.113   4.601   3.085
   48LIT    LIT  198   6.379   3.774   4.465
   49LIT    LIT  199   2.159   6.011   1.127
   50LIT    LIT  200   8.173   0.281   4.301
   51LIT    LIT  201   2.339   0.317   3.859
   52LIT    LIT  202   6.911   5.389   0.931
   53LIT    LIT  203   0.025   2.982   2.436
   54LIT    LIT  204   1.645   2.812   2.519
   55LIT    LIT  205   0.914   1.083   2.839
   56LIT    LIT  206   4.469   6.032   2.099
   57LIT    LIT  207   6.077   4.381   2.803
   58LIT    LIT  208   2.561   1.494   5.090
   59LIT    LIT  209   1.335   6.280   4.930
   60LIT    LIT  210   4.055   4.708   5.098
   61CLA    CLA  211   0.728   5.440   4.227
   62CLA    CLA  212   1.556   4.953   5.065
   63CLA    CLA  213   1.716   1.536   2.640
   64CLA    CLA  214   5.114   3.643   1.245
   65CLA    CLA  215   3.945   7.175   3.370
   66CLA    CLA  216   8.219   0.273   3.211
   67CLA    CLA  217   1.352   0.876   5.874
   68CLA    CLA  218   4.295   7.044   4.631
   69CLA    CLA  219   1.789   2.449   5.899
   70CLA    CLA  220   5.405   7.033   5.673
   71CLA    CLA  221   0.612   5.243   5.669
   72CLA    CLA  222   2.606   5.927   1.385
   73CLA    CLA  223   3.068   7.602   6.346
   74CLA    CLA  224   8.171   7.157   3.981
   75CLA    CLA  225   7.678   1.163   4.134
   76CLA    CLA  226   5.372   1.165   0.977
   77CLA    CLA  227   3.550   5.079   4.196
   78CLA    CLA  228   3.924   4.610   0.958
   79CLA    CLA  229   7.502   5.810   0.211
   80CLA    CLA  230   0.650   4.482   2.131
   81CLA    CLA  231   6.124   5.767   6.030
   82CLA    CLA  232   0.210   0.546   6.032
   83CLA    CLA  233   2.409   4.614   1.048
   84CLA    CLA  234   0.094   7.400   0.801
   85CLA    CLA  235   3.476   6.239   5.889
   86CLA    CLA  236   7.325   4.255   4.246
   87CLA    CLA  237   3.485   7.265   1.926
   88CLA    CLA  238   5.163   5.959   1.102
   89CLA    CLA  239   6.542   4.245   4.710
   90CLA    CLA  240   2.547   0.146   5.873
   91CLA    CLA  241   3.075   3.201   2.303
   92CLA    CLA  242   7.613   7.750   5.021
   93CLA    CLA  243   4.397   1.484   5.137
   94CLA    CLA  244   4.329   6.490   0.346
   95CLA    CLA  245   2.708   5.932   4.553
   96CLA    CLA  246   0.485   1.825   2.362
   97CLA    CLA  247   5.934   1.961   3.890
   98CLA    CLA  248   1.584   6.086   3.098
   99CLA    CLA  249   7.719   2.423   1.023
  100CLA    CLA  250   0.789   4.322   3.617
  101CLA    CLA  251   7.647   2.479   2.472
  102CLA    CLA  252   0.232   0.887   4.589
  103TIP3   OH2  253   1.376   6.189   3.552
  103TIP3    H1  254   1.337   6.112   3.510
  103TIP3    H2  255   1.456   6.206   3.501
  104TIP3   OH2  256   6.978   6.213   6.112
  104TIP3    H1  257   6.884   6.192   6.112
  104TIP3    H2  258   6.996   6.238   6.203
  105TIP3   OH2  259   8.026   2.397   4.305
  105TIP3    H1  260   8.042   2.310   4.342
  105TIP3    H2  261   7.974   2.380   4.227
  106TIP3   OH2  262   5.188   5.233   1.387
  106TIP3    H1  263   5.209   5.188   1.305
  106TIP3    H2  264   5.268   5.281   1.409
  107TIP3   OH2  265   2.041   5.438   3.552
  107TIP3    H1  266   2.051   5.363   3.610
  107TIP3    H2  267   2.068   5.513   3.604
  108TIP3   OH2  268   0.928   4.797   1.854
  108TIP3    H1  269   0.863   4.816   1.922
  108TIP3    H2  270   1.013   4.804   1.899
  109TIP3   OH2  271   1.063   5.139   1.709
  109TIP3    H1  272   1.119   5.217   1.701
  109TIP3    H2  273   1.125   5.067   1.717
  110TIP3   OH2  274   6.021   6.454   3.673
  110TIP3    H1  275   6.074   6.526   3.709
  110TIP3    H2  276   6.085   6.397   3.630
  111TIP3   OH2  277   0.287   6.726   4.528
  111TIP3    H1  278   0.297   6.646   4.581
  111TIP3    H2  279   0.345   6.712   4.453
  112TIP3   OH2  280   2.547   3.342   4.764
  112TIP3    H1  281   2.487   3.352   4.838
  112TIP3    H2  282   2.502   3.382   4.690
  113TIP3   OH2  283   6.199   1.848   3.416
  113TIP3    H1  284   6.196   1.943   3.403
  113TIP3    H2  285   6.276   1.834   3.471
  114TIP3   OH2  286   0.919   0.701   1.888
  114TIP3    H1  287   0.844   0.659   1.846
  114TIP3    H2  288   0.986   0.633   1.891
  115TIP3   OH2  289   6.348   6.482   1.652
  115TIP3    H1  290   6.371   6.549   1.717
  115TIP3    H2  291   6.380   6.517   1.569
  116TIP3   OH2  292   1.087   2.525   6.350
  116TIP3    H1  293   1.175   2.564   6.347
  116TIP3    H2  294   1.028   2.600   6.345
  117TIP3   OH2  295   5.797   6.196   4.964
  117TIP3    H1  296   5.850   6.146   5.026
  117TIP3    H2  297   5.719   6.220   5.014
  118TIP3   OH2  298   7.967   3.262   6.445
  118TIP3    H1  299   8.001   3.251   6.534
  118TIP3    H2  300   7.890   3.318   6.455
  119TIP3   OH2  301   7.348   5.638   1.604
  119TIP3    H1  302   7.257   5.624   1.576
  119TIP3    H2  303   7.384   5.550   1.613
  120TIP3   OH2  304   3.533   1.868   2.376
  120TIP3    H1  305   3.576   1.785   2.397
  120TIP3    H2  306   3.548   1.922   2.454
  121TIP3   OH2  307   0.974   2.023   6.295
  121TIP3    H1  308   1.001   2.012   6.386
  121TIP3    H2  309   0.981   2.117   6.278
  122TIP3   OH2  310   6.209   7.144   6.010
  122TIP3    H1  311   6.130   7.101   5.978
  122TIP3    H2  312   6.275   7.075   6.013
  123TIP3   OH2  313   5.630   4.887   1.320
  123TIP3    H1  314   5.603   4.829   1.250
  123TIP3    H2  315   5.692   4.948   1.278
  124TIP3   OH2  316   0.485   7.822   4.211
  124TIP3    H1  317   0.532   7.747   4.247
  124TIP3    H2  318   0.396   7.791   4.199
  125TIP3   OH2  319   0.529   4.645   1.765
  125TIP3    H1  320   0.585   4.592   1.709
  125TIP3    H2  321   0.557   4.735   1.747
  126TIP3   OH2  322   2.167   1.138   2.467
  126TIP3    H1  323   2.252   1.151   2.424
  126TIP3    H2  324   2.152   1.044   2.462
  127TIP3   OH2  325   4.378   7.537   0.535
  127TIP3    H1  326   4.327   7.582   0.602
  127TIP3    H2  327   4.435   7.478   0.584
  128TIP3   OH2  328   6.441   6.498   5.552
  128TIP3    H1  329   6.462   6.415   5.596
  128TIP3    H2  330   6.418   6.472   5.462
  129TIP3   OH2  331   7.737   5.253   2.608
  129TIP3    H1  332   7.799   5.325   2.601
  129TIP3    H2  333   7.788   5.181   2.645
  130TIP3   OH2  334   1.171   1.274   2.614
  130TIP3    H1  335   1.220   1.353   2.593
  130TIP3    H2  336   1.220   1.233   2.685
  131TIP3   OH2  337   4.479   1.108   1.015
  131TIP3    H1  338   4.545   1.093   1.082
  131TIP3    H2  339   4.497   1.197   0.983
  132TIP3   OH2  340   3.820   5.463   5.018
  132TIP3    H1  341   3.742   5.451   5.072
  132TIP3    H2  342   3.795   5.430   4.932
  133TIP3   OH2  343   0.250   7.803   5.475
  133TIP3    H1  344   0.253   7.826   5.568
  133TIP3    H2  345   0.262   7.708   5.473
  134TIP3   OH2  346   4.582   0.680   3.895
  134TIP3    H1  347   4.581   0.636   3.810
  134TIP3    H2  348   4.603   0.771   3.874
  135TIP3   OH2  349   7.247   5.938   5.054
  135TIP3    H1  350   7.171   5.924   5.110
  135TIP3    H2  351   7.260   5.854   5.010
  136TIP3   OH2  352   1.748   2.958   2.447
  136TIP3    H1  353   1.783   2.988   2.363
  136TIP3    H2  354   1.745   3.036   2.502
  137TIP3   OH2  355   1.952   3.881   1.933
  137TIP3    H1  356   1.889   3.862   1.863
  137TIP3    H2  357   1.898   3.917   2.004
  138TIP3   OH2  358   0.521   5.076   6.566
  138TIP3    H1  359   0.540   4.983   6.556
  138TIP3    H2  360   0.439   5.090   6.519
  139TIP3   OH2  361   5.220   1.127   5.563
  139TIP3    H1  362   5.201   1.155   5.652
  139TIP3    H2  363   5.309   1.158   5.547
  140TIP3   OH2  364   1.562   7.774   0.890
  140TIP3    H1  365   1.491   7.832   0.918
  140TIP3    H2  366   1.530   7.686   0.910
  141TIP3   OH2  367   2.582   2.428   1.224
  141TIP3    H1  368   2.515   2.477   1.271
  141TIP3    H2  369   2.646   2.404   1.290
  142TIP3   OH2  370   4.666   5.198   3.954
  142TIP3    H1  371   4.670   5.108   3.987
  142TIP3    H2  372   4.754   5.216   3.921
  143TIP3   OH2  373   6.336   2.922   5.184
  143TIP3    H1  374   6.278   2.858   5.224
  143TIP3    H2  375   6.389   2.872   5.122
  144TIP3   OH2  376   0.880   7.095   3.308
  144TIP3    H1  377   0.842   7.158   3.246
  144TIP3    H2  378   0.817   7.024   3.312
  145TIP3   OH2  379   5.805   4.837   4.671
  145TIP3    H1  380   5.814   4.874   4.583
  145TIP3    H2  381   5.713   4.815   4.679
  146TIP3   OH2  382   5.811   3.539   3.104
  146TIP3    H1  383   5.853   3.456   3.127
  146TIP3    H2  384   5.836   3.598   3.174
  147TIP3   OH2  385   2.049   2.106   3.356
  147TIP3    H1  386   2.001   2.102   3.273
  147TIP3    H2  387   1.993   2.059   3.418
  148TIP3   OH2  388   6.678   3.300   3.463
  148TIP3    H1  389   6.773   3.287   3.460
  148TIP3    H2  390   6.644   3.248   3.390
  149TIP3   OH2  391   6.603   2.615   6.804
  149TIP3    H1  392   6.588   2.532   6.851
  149TIP3    H2  393   6.690   2.606   6.767
  150TIP3   OH2  394   4.712   6.372   1.920
  150TIP3    H1  395   4.805   6.370   1.897
  150TIP3    H2  396   4.703   6.451   1.974
  151TIP3   OH2  397   0.451   5.918   5.253
  151TIP3    H1  398   0.511   5.856   5.294
  151TIP3    H2  399   0.414   5.968   5.326
  152TIP3   OH2  400   1.742   7.454   5.134
  152TIP3    H1  401   1.650   7.480   5.125
  152TIP3    H2  402   1.780   7.521   5.191
  153TIP3   OH2  403   6.301   6.977   1.537
  153TIP3    H1  404   6.275   6.885   1.550
  153TIP3    H2  405   6.234   7.027   1.583
  154TIP3   OH2  406   5.067   7.368   3.637
  154TIP3    H1  407   5.157   7.347   3.614
  154TIP3    H2  408   5.064   7.464   3.636
  155TIP3   OH2  409   1.383   0.268   0.119
  155TIP3    H1  410   1.333   0.295   0.042
  155TIP3    H2  411   1.352   0.178   0.137
  156TIP3   OH2  412   1.330   3.928   2.575
  156TIP3    H1  413   1.263   3.984   2.535
  156TIP3    H2  414   1.314   3.841   2.537
  157TIP3   OH2  415   3.114   1.842   1.377
  157TIP3    H1  416   3.044   1.902   1.352
  157TIP3    H2  417   3.087   1.807   1.462
  158TIP3   OH2  418   4.008   0.886   0.972
  158TIP3    H1  419   3.935   0.901   0.912
  158TIP3    H2  420   3.972   0.825   1.037
  159TIP3   OH2  421   8.122   0.199   0.346
  159TIP3    H1  422   8.047   0.175   0.293
  159TIP3    H2  423   8.197   0.194   0.286
  160TIP3   OH2  424   3.166   3.225   1.740
  160TIP3    H1  425   3.165   3.320   1.752
  160TIP3    H2  426   3.148   3.190   1.827
  161TIP3   OH2  427   1.788   0.942   6.241
  161TIP3    H1  428   1.724   1.012   6.240
  161TIP3    H2  429   1.861   0.977   6.293
  162TIP3   OH2  430   2.664   7.351   5.783
  162TIP3    H1  431   2.697   7.440   5.769
  162TIP3    H2  432   2.593   7.362   5.847
  163TIP3   OH2  433   0.299   2.341   2.223
  163TIP3    H1  434   0.305   2.361   2.129
  163TIP3    H2  435   0.370   2.279   2.239
  164TIP3   OH2  436   6.150   6.351   1.899
  164TIP3    H1  437   6.116   6.439   1.882
  164TIP3    H2  438   6.178   6.320   1.813
  165TIP3   OH2  439   5.439   1.963   4.728
  165TIP3    H1  440   5.437   2.059   4.730
  165TIP3    H2  441   5.515   1.940   4.781
  166TIP3   OH2  442   3.953   5.298   1.493
  166TIP3    H1  443   3.867   5.291   1.533
  166TIP3    H2  444   4.004   5.354   1.552
  167TIP3   OH2  445   6.756   3.093   4.578
  167TIP3    H1  446   6.807   3.070   4.500
  167TIP3    H2  447   6.672   3.122   4.544
  168TIP3   OH2  448   8.004   3.149   0.961
  168TIP3    H1  449   8.065   3.220   0.981
  168TIP3    H2  450   8.002   3.144   0.866
  169TIP3   OH2  451   6.321   4.087   2.780
  169TIP3    H1  452   6.277   4.168   2.754
  169TIP3    H2  453   6.336   4.097   2.874
  170TIP3   OH2  454   0.587   4.031   6.787
  170TIP3    H1  455   0.629   4.017   6.702
  170TIP3    H2  456   0.596   3.947   6.832
  171TIP3   OH2  457   3.371   4.862   5.959
  171TIP3    H1  458   3.350   4.784   5.907
  171TIP3    H2  459   3.369   4.831   6.049
  172TIP3   OH2  460   5.572   3.088   2.344
  172TIP3    H1  461   5.627   3.166   2.339
  172TIP3    H2  462   5.560   3.072   2.437
  173TIP3   OH2  463   3.166   5.344   4.403
  173TIP3    H1  464   3.236   5.278   4.407
  173TIP3    H2  465   3.133   5.349   4.493
  174TIP3   OH2  466   6.844   4.247   2.970
  174TIP3    H1  467   6.819   4.217   3.057
  174TIP3    H2  468   6.811   4.337   2.966
  175TIP3   OH2  469   4.852   7.498   4.219
  175TIP3    H1  470   4.809   7.582   4.201
  175TIP3    H2  471   4.824   7.441   4.147
  176TIP3   OH2  472   4.733   6.077   4.503
  176TIP3    H1  473   4.717   5.992   4.543
  176TIP3    H2  474   4.701   6.067   4.413
  177TIP3   OH2  475   2.907   1.319   4.865
  177TIP3    H1  476   2.877   1.247   4.920
  177TIP3    H2  477   2.976   1.361   4.917
  178TIP3   OH2  478   8.119   0.286   3.540
  178TIP3    H1  479   8.133   0.285   3.446
  178TIP3    H2  480   8.197   0.245   3.577
  179TIP3   OH2  481   0.700   6.961   4.393
  179TIP3    H1  482   0.773   6.923   4.343
  179TIP3    H2  483   0.707   7.055   4.379
  180TIP3   OH2  484   5.750   7.651   4.693
  180TIP3    H1  485   5.755   7.661   4.598
  180TIP3    H2  486   5.659   7.628   4.710
  181TIP3   OH2  487   7.958   6.674   2.569
  181TIP3    H1  488   7.947   6.767   2.587
  181TIP3    H2  489   7.893   6.655   2.501
  182TIP3   OH2  490   0.779   6.386   0.104
  182TIP3    H1  491   0.765   6.439   0.025
  182TIP3    H2  492   0.850   6.327   0.080
  183TIP3   OH2  493   7.776   1.596   0.261
  183TIP3    H1  494   7.778   1.599   0.166
  183TIP3    H2  495   7.852   1.648   0.288
  184TIP3   OH2  496   7.836   7.152   1.570
  184TIP3    H1  497   7.910   7.194   1.526
  184TIP3    H2  498   7.864   7.061   1.581
  185TIP3   OH2  499   3.211   5.924   0.723
  185TIP3    H1  500   3.139   5.898   0.780
  185TIP3    H2  501   3.282   5.863   0.746
  186TIP3   OH2  502   7.583   0.325   5.457
  186TIP3    H1  503   7.499   0.295   5.493
  186TIP3    H2  504   7.572   0.320   5.362
  187TIP3   OH2  505   4.180   6.631   4.139
  187TIP3    H1  506   4.136   6.566   4.193
  187TIP3    H2  507   4.271   6.602   4.135
  188TIP3   OH2  508   4.242   2.181   5.645
  188TIP3    H1  509   4.336   2.180   5.626
  188TIP3    H2  510   4.214   2.269   5.621
  189TIP3   OH2  511   2.397   2.844   0.679
  189TIP3    H1  512   2.365   2.813   0.764
  189TIP3    H2  513   2.491   2.828   0.681
  190TIP3   OH2  514   2.953   6.724   1.140
  190TIP3    H1  515   2.987   6.635   1.145
  190TIP3    H2  516   3.031   6.779   1.136
  191TIP3   OH2  517   7.386   3.947   0.114
  191TIP3    H1  518   7.408   3.984   0.200
  191TIP3    H2  519   7.433   3.864   0.111
  192TIP3   OH2  520   4.841   4.570   6.092
  192TIP3    H1  521   4.790   4.599   6.017
  192TIP3    H2  522   4.931   4.563   6.059
  193TIP3   OH2  523   6.660   6.557   0.976
  193TIP3    H1  524   6.675   6.570   0.882
  193TIP3    H2  525   6.688   6.639   1.016
  194TIP3   OH2  526   6.490   4.277   3.144
  194TIP3    H1  527   6.416   4.219   3.165
  194TIP3    H2  528   6.548   4.270   3.220
  195TIP3   OH2  529   0.899   0.106   1.482
  195TIP3    H1  530   0.890   0.011   1.492
  195TIP3    H2  531   0.815   0.141   1.512
  196TIP3   OH2  532   0.846   2.872   1.037
  196TIP3    H1  533   0.840   2.828   1.121
  196TIP3    H2  534   0.836   2.802   0.972
  197TIP3   OH2  535   1.441   0.367   0.558
  197TIP3    H1  536   1.375   0.418   0.606
  197TIP3    H2  537   1.456   0.290   0.612
  198TIP3   OH2  538   5.841   7.387   2.572
  198TIP3    H1  539   5.920   7.419   2.617
  198TIP3    H2  540   5.769   7.416   2.628
  199TIP3   OH2  541   2.476   3.200   0.905
  199TIP3    H1  542   2.522   3.226   0.825
  199TIP3    H2  543   2.420   3.127   0.878
  200TIP3   OH2  544   3.810   5.194   3.681
  200TIP3    H1  545   3.747   5.180   3.752
  200TIP3    H2  546   3.881   5.132   3.700
  201TIP3   OH2  547   0.508   6.608   6.350
  201TIP3    H1  548   0.457   6.686   6.328
  201TIP3    H2  549   0.472   6.540   6.293
  202TIP3   OH2  550   7.412   7.616   4.785
  202TIP3    H1  551   7.464   7.572   4.852
  202TIP3    H2  552   7.416   7.558   4.709
  203TIP3   OH2  553   1.329   5.671   1.903
  203TIP3    H1  554   1.348   5.751   1.854
  203TIP3    H2  555   1.251   5.635   1.860
  204TIP3   OH2  556   3.812   5.376   4.232
  204TIP3    H1  557   3.781   5.290   4.260
  204TIP3    H2  558   3.872   5.358   4.159
  205TIP3   OH2  559   0.762   5.289   2.574
  205TIP3    H1  560   0.698   5.232   2.617
  205TIP3    H2  561   0.840   5.234   2.562
  206TIP3   OH2  562   4.578   4.959   6.318
  206TIP3    H1  563   4.600   4.873   6.282
  206TIP3    H2  564   4.623   4.963   6.402
  207TIP3   OH2  565   1.292   2.402   0.472
  207TIP3    H1  566   1.286   2.381   0.566
  207TIP3    H2  567   1.289   2.498   0.469
  208TIP3   OH2  568   7.497   2.946   3.677
  208TIP3    H1  569   7.513   2.858   3.711
  208TIP3    H2  570   7.465   2.996   3.752
  209TIP3   OH2  571   2.846   4.198   2.768
  209TIP3    H1  572   2.922   4.155   2.728
  209TIP3    H2  573   2.820   4.140   2.839
  210TIP3   OH2  574   7.887   4.351   5.085
  210TIP3    H1  575   7.977   4.334   5.058
  210TIP3    H2  576   7.873   4.443   5.066
  211TIP3   OH2  577   7.732   4.813   0.014
  211TIP3    H1  578   7.819   4.851   0.000
  211TIP3    H2  579   7.746   4.719   0.003
  212TIP3   OH2  580   0.094   7.052   0.774
  212TIP3    H1  581   0.072   7.139   0.809
  212TIP3    H2  582   0.185   7.060   0.747
  213TIP3   OH2  583   5.690   6.577   1.619
  213TIP3    H1  584   5.673   6.498   1.568
  213TIP3    H2  585   5.723   6.544   1.703
  214TIP3   OH2  586   6.819   2.916   6.525
  214TIP3    H1  587   6.743   2.908   6.466
  214TIP3    H2  588   6.786   2.965   6.600
  215TIP3   OH2  589   7.930   5.756   1.737
  215TIP3    H1  590   7.871   5.687   1.707
  215TIP3    H2  591   7.875   5.812   1.792
  216TIP3   OH2  592   2.128   3.024   4.346
  216TIP3    H1  593   2.114   3.111   4.309
  216TIP3    H2  594   2.043   2.980   4.338
  217TIP3   OH2  595   0.667   6.127   4.456
  217TIP3    H1  596   0.613   6.100   4.531
  217TIP3    H2  597   0.740   6.065   4.455
  218TIP3   OH2  598   0.182   2.380   2.915
  218TIP3    H1  599   0.138   2.412   2.836
  218TIP3    H2  600   0.260   2.435   2.923
  219TIP3   OH2  601   3.924   3.969   3.760
  219TIP3    H1  602   3.929   3.918   3.678
  219TIP3    H2  603   3.858   3.923   3.812
  220TIP3   OH2  604   2.996   3.499   1.826
  220TIP3    H1  605   2.949   3.423   1.859
  220TIP3    H2  606   2.942   3.531   1.754
  221TIP3   OH2  607   7.175   1.758   2.379
  221TIP3    H1  608   7.237   1.714   2.437
  221TIP3    H2  609   7.109   1.794   2.438
  222TIP3   OH2  610   7.272   7.734   5.000
  222TIP3    H1  611   7.240   7.707   4.914
  222TIP3    H2  612   7.367   7.718   4.995
  223TIP3   OH2  613   0.076   0.483   3.828
  223TIP3    H1  614   0.117   0.397   3.838
  223TIP3    H2  615   0.122   0.539   3.891
  224TIP3   OH2  616   1.814   4.774   6.382
  224TIP3    H1  617   1.828   4.708   6.450
  224TIP3    H2  618   1.873   4.846   6.406
  225TIP3   OH2  619   5.987   1.899   4.543
  225TIP3    H1  620   5.941   1.818   4.567
  225TIP3    H2  621   5.985   1.900   4.448
  226TIP3   OH2  622   1.785   6.782   5.429
  226TIP3    H1  623   1.755   6.815   5.344
  226TIP3    H2  624   1.879   6.774   5.419
  227TIP3   OH2  625   1.771   1.481   1.115
  227TIP3    H1  626   1.773   1.557   1.174
  227TIP3    H2  627   1.730   1.514   1.035
  228TIP3   OH2  628   0.372   7.572   3.842
  228TIP3    H1  629   0.389   7.515   3.917
  228TIP3    H2  630   0.393   7.519   3.765
  229TIP3   OH2  631   0.396   2.181   3.067
  229TIP3    H1  632   0.372   2.090   3.086
  229TIP3    H2  633   0.455   2.176   2.992
  230TIP3   OH2  634   7.158   3.765   2.459
  230TIP3    H1  635   7.222   3.782   2.390
  230TIP3    H2  636   7.145   3.849   2.502
  231TIP3   OH2  637   3.461   3.310   5.497
  231TIP3    H1  638   3.479   3.292   5.589
  231TIP3    H2  639   3.523   3.379   5.473
  232TIP3   OH2  640   2.478   3.463   2.663
  232TIP3    H1  641   2.392   3.428   2.688
  232TIP3    H2  642   2.472   3.472   2.568
  233TIP3   OH2  643   3.220   2.865   6.038
  233TIP3    H1  644   3.227   2.924   5.963
  233TIP3    H2  645   3.302   2.876   6.086
  234TIP3   OH2  646   2.903   1.973   4.504
  234TIP3    H1  647   2.868   1.981   4.415
  234TIP3    H2  648   2.964   2.046   4.513
  235TIP3   OH2  649   2.917   1.319   1.584
  235TIP3    H1  650   2.948   1.340   1.672
  235TIP3    H2  651   2.941   1.394   1.531
  236TIP3   OH2  652   5.330   3.572   2.373
  236TIP3    H1  653   5.289   3.658   2.367
  236TIP3    H2  654   5.263   3.515   2.411
  237TIP3   OH2  655   5.772   6.384   3.742
  237TIP3    H1  656   5.720   6.463   3.731
  237TIP3    H2  657   5.857   6.404   3.703
  238TIP3   OH2  658   1.972   3.741   3.920
  238TIP3    H1  659   2.051   3.780   3.958
  238TIP3    H2  660   1.903   3.804   3.940
  239TIP3   OH2  661   6.245   7.046   2.492
  239TIP3    H1  662   6.173   7.061   2.553
  239TIP3    H2  663   6.323   7.038   2.547
  240TIP3   OH2  664   1.747   3.179   3.569
  240TIP3    H1  665   1.659   3.142   3.565
  240TIP3    H2  666   1.787   3.137   3.645
  241TIP3   OH2  667   4.714   1.561   6.691
  241TIP3    H1  668   4.735   1.481   6.642
  241TIP3    H2  669   4.693   1.531   6.779
  242TIP3   OH2  670   4.551   7.416   4.066
  242TIP3    H1  671   4.489   7.399   3.995
  242TIP3    H2  672   4.555   7.334   4.115
  243TIP3   OH2  673   3.612   6.943   0.684
  243TIP3    H1  674   3.524   6.941   0.720
  243TIP3    H2  675   3.651   6.860   0.710
  244TIP3   OH2  676   1.934   0.712   1.271
  244TIP3    H1  677   1.997   0.684   1.205
  244TIP3    H2  678   1.934   0.808   1.266
  245TIP3   OH2  679   2.168   2.367   6.527
  245TIP3    H1  680   2.112   2.429   6.480
  245TIP3    H2  681   2.127   2.282   6.513
  246TIP3   OH2  682   7.939   4.897   5.570
  246TIP3    H1  683   7.981   4.842   5.505
  246TIP3    H2  684   7.994   4.888   5.648
  247TIP3   OH2  685   7.619   1.941   0.816
  247TIP3    H1  686   7.592   1.862   0.769
  247TIP3    H2  687   7.675   1.987   0.753
  248TIP3   OH2  688   2.950   1.804   3.079
  248TIP3    H1  689   2.860   1.833   3.062
  248TIP3    H2  690   2.944   1.755   3.161
  249TIP3   OH2  691   1.420   2.228   4.636
  249TIP3    H1  692   1.458   2.182   4.561
  249TIP3    H2  693   1.496   2.261   4.685
  250TIP3   OH2  694   3.912   1.634   5.591
  250TIP3    H1  695   3.905   1.571   5.664
  250TIP3    H2  696   4.006   1.641   5.575
  251TIP3   OH2  697   2.223   2.729   5.545
  251TIP3    H1  698   2.265   2.698   5.625
  251TIP3    H2  699   2.234   2.824   5.548
  252TIP3   OH2  700   7.747   4.405   2.647
  252TIP3    H1  701   7.704   4.424   2.564
  252TIP3    H2  702   7.682   4.428   2.714
  253TIP3   OH2  703   2.037   1.813   0.909
  253TIP3    H1  704   2.083   1.782   0.832
  253TIP3    H2  705   1.945   1.814   0.884
  254TIP3   OH2  706   2.961   5.160   5.161
  254TIP3    H1  707   2.972   5.202   5.246
  254TIP3    H2  708   2.911   5.081   5.179
  255TIP3   OH2  709   6.273   1.015   3.219
  255TIP3    H1  710   6.339   1.056   3.164
  255TIP3    H2  711   6.194   1.015   3.165
  256TIP3   OH2  712   5.209   4.963   0.804
  256TIP3    H1  713   5.275   4.895   0.792
  256TIP3    H2  714   5.126   4.916   0.806
  257TIP3   OH2  715   1.320   2.159   2.769
  257TIP3    H1  716   1.359   2.116   2.692
  257TIP3    H2  717   1.259   2.223   2.733
  258TIP3   OH2  718   1.969   1.038   6.405
  258TIP3    H1  719   2.060   1.036   6.434
  258TIP3    H2  720   1.918   1.044   6.486
  259TIP3   OH2  721   7.857   0.311   6.614
  259TIP3    H1  722   7.831   0.241   6.673
  259TIP3    H2  723   7.895   0.378   6.671
  260TIP3   OH2  724   2.875   3.081   6.394
  260TIP3    H1  725   2.905   3.005   6.344
  260TIP3    H2  726   2.787   3.058   6.423
  261TIP3   OH2  727   6.895   2.479   5.642
  261TIP3    H1  728   6.903   2.573   5.627
  261TIP3    H2  729   6.842   2.472   5.722
  262TIP3   OH2  730   1.854   4.855   1.251
  262TIP3    H1  731   1.873   4.840   1.344
  262TIP3    H2  732   1.763   4.883   1.249
  263TIP3   OH2  733   4.853   1.484   1.981
  263TIP3    H1  734   4.919   1.440   2.034
  263TIP3    H2  735   4.805   1.539   2.043
  264TIP3   OH2  736   2.589   0.842   6.682
  264TIP3    H1  737   2.605   0.936   6.688
  264TIP3    H2  738   2.578   0.814   6.773
  265TIP3   OH2  739   1.211   6.207   5.546
  265TIP3    H1  740   1.272   6.253   5.488
  265TIP3    H2  741   1.206   6.118   5.510
  266TIP3   OH2  742   3.238   4.792   1.173
  266TIP3    H1  743   3.161   4.771   1.120
  266TIP3    H2  744   3.208   4.780   1.263
  267TIP3   OH2  745   0.465   1.491   3.182
  267TIP3    H1  746   0.464   1.401   3.149
  267TIP3    H2  747   0.534   1.491   3.249
  268TIP3   OH2  748   6.304   2.678   4.947
  268TIP3    H1  749   6.396   2.652   4.940
  268TIP3    H2  750   6.303   2.770   4.918
  269TIP3   OH2  751   6.417   7.337   2.468
  269TIP3    H1  752   6.512   7.339   2.482
  269TIP3    H2  753   6.403   7.260   2.413
  270TIP3   OH2  754   7.890   3.533   3.450
  270TIP3    H1  755   7.870   3.606   3.392
  270TIP3    H2  756   7.877   3.568   3.538
  271TIP3   OH2  757   2.417   6.913   5.676
  271TIP3    H1  758   2.353   6.978   5.707
  271TIP3    H2  759   2.402   6.836   5.732
  272TIP3   OH2  760   5.263   0.318   6.123
  272TIP3    H1  761   5.277   0.348   6.033
  272TIP3    H2  762   5.350   0.314   6.161
  273TIP3   OH2  763   3.087   6.326   5.482
  273TIP3    H1  764   3.158   6.355   5.425
  273TIP3    H2  765   3.061   6.405   5.530
  274TIP3   OH2  766   7.459   1.370   4.100
  274TIP3    H1  767   7.481   1.418   4.180
  274TIP3    H2  768   7.528   1.304   4.092
  275TIP3   OH2  769   5.399   5.854   6.022
  275TIP3    H1  770   5.394   5.950   6.031
  275TIP3    H2  771   5.488   5.837   5.992
  276TIP3   OH2  772   3.657   5.194   3.942
  276TIP3    H1  773   3.620   5.163   4.025
  276TIP3    H2  774   3.744   5.155   3.939
  277TIP3   OH2  775   4.520   1.194   6.564
  277TIP3    H1  776   4.439   1.192   6.513
  277TIP3    H2  777   4.532   1.103   6.593
  278TIP3   OH2  778   6.825   6.107   3.522
  278TIP3    H1  779   6.765   6.074   3.589
  278TIP3    H2  780   6.874   6.176   3.566
  279TIP3   OH2  781   3.115   2.365   0.791
  279TIP3    H1  782   3.065   2.344   0.712
  279TIP3    H2  783   3.205   2.340   0.769
  280TIP3   OH2  784   3.240   7.607   2.136
  280TIP3    H1  785   3.281   7.540   2.190
  280TIP3    H2  786   3.305   7.628   2.069
  281TIP3   OH2  787   5.039   0.283   5.255
  281TIP3    H1  788   5.024   0.346   5.326
  281TIP3    H2  789   4.957   0.282   5.206
  282TIP3   OH2  790   1.565   1.286   1.213
  282TIP3    H1  791   1.647   1.331   1.191
  282TIP3    H2  792   1.588   1.193   1.211
  283TIP3   OH2  793   4.662   3.905   1.243
  283TIP3    H1  794   4.575   3.885   1.207
  283TIP3    H2  795   4.658   3.998   1.264
  284TIP3   OH2  796   1.712   1.736   6.041
  284TIP3    H1  797   1.728   1.760   5.949
  284TIP3    H2  798   1.633   1.681   6.037
  285TIP3   OH2  799   2.323   6.601   4.745
  285TIP3    H1  800   2.400   6.568   4.700
  285TIP3    H2  801   2.347   6.690   4.773
  286TIP3   OH2  802   3.198   2.584   4.464
  286TIP3    H1  803   3.184   2.675   4.488
  286TIP3    H2  804   3.293   2.574   4.458
  287TIP3   OH2  805   1.708   1.838   5.586
  287TIP3    H1  806   1.757   1.757   5.594
  287TIP3    H2  807   1.683   1.843   5.494
  288TIP3   OH2  808   4.814   6.792   0.796
  288TIP3    H1  809   4.834   6.752   0.880
  288TIP3    H2  810   4.748   6.734   0.756
  289TIP3   OH2  811   1.221   6.310   6.452
  289TIP3    H1  812   1.233   6.391   6.502
  289TIP3    H2  813   1.255   6.241   6.508
  290TIP3   OH2  814   0.793   2.326   2.517
  290TIP3    H1  815   0.798   2.238   2.482
  290TIP3    H2  816   0.702   2.354   2.500
  291TIP3   OH2  817   0.542   4.510   3.316
  291TIP3    H1  818   0.509   4.544   3.233
  291TIP3    H2  819   0.471   4.457   3.351
  292TIP3   OH2  820   4.316   3.822   6.333
  292TIP3    H1  821   4.251   3.776   6.386
  292TIP3    H2  822   4.365   3.752   6.289
  293TIP3   OH2  823   0.991   2.483   5.828
  293TIP3    H1  824   0.997   2.390   5.806
  293TIP3    H2  825   1.075   2.519   5.799
  294TIP3   OH2  826   5.648   0.756   4.303
  294TIP3    H1  827   5.620   0.840   4.265
  294TIP3    H2  828   5.676   0.778   4.392
  295TIP3   OH2  829   3.804   6.427   2.747
  295TIP3    H1  830   3.755   6.504   2.716
  295TIP3    H2  831   3.737   6.370   2.786
  296TIP3   OH2  832   4.055   2.485   2.667
  296TIP3    H1  833   3.974   2.526   2.698
  296TIP3    H2  834   4.063   2.405   2.719
  297TIP3   OH2  835   6.861   6.015   0.759
  297TIP3    H1  836   6.842   6.103   0.789
  297TIP3    H2  837   6.955   6.016   0.738
  298TIP3   OH2  838   7.789   0.590   1.648
  298TIP3    H1  839   7.709   0.538   1.639
  298TIP3    H2  840   7.758   0.680   1.655
  299TIP3   OH2  841   7.322   5.116   4.518
  299TIP3    H1  842   7.311   5.206   4.485
  299TIP3    H2  843   7.252   5.106   4.583
  300TIP3   OH2  844   6.068   6.328   5.875
  300TIP3    H1  845   6.163   6.335   5.881
  300TIP3    H2  846   6.048   6.246   5.919
  301TIP3   OH2  847   7.702   4.469   6.302
  301TIP3    H1  848   7.755   4.397   6.337
  301TIP3    H2  849   7.683   4.442   6.212
  302TIP3   OH2  850   2.863   5.291   2.253
  302TIP3    H1  851   2.771   5.267   2.247
  302TIP3    H2  852   2.874   5.359   2.186
  303TIP3   OH2  853   4.758   3.846   3.760
  303TIP3    H1  854   4.812   3.889   3.826
  303TIP3    H2  855   4.810   3.771   3.731
  304TIP3   OH2  856   6.206   5.070   5.689
  304TIP3    H1  857   6.243   5.024   5.614
  304TIP3    H2  858   6.230   5.161   5.675
  305TIP3   OH2  859   1.313   5.535   3.563
  305TIP3    H1  860   1.405   5.560   3.570
  305TIP3    H2  861   1.288   5.512   3.653
  306TIP3   OH2  862   3.039   3.966   4.983
  306TIP3    H1  863   3.045   3.996   5.074
  306TIP3    H2  864   2.986   3.887   4.988
  307TIP3   OH2  865   1.459   5.268   6.106
  307TIP3    H1  866   1.495   5.201   6.164
  307TIP3    H2  867   1.508   5.258   6.025
  308TIP3   OH2  868   7.509   0.269   5.197
  308TIP3    H1  869   7.573   0.202   5.172
  308TIP3    H2  870   7.427   0.240   5.158
  309TIP3   OH2  871   3.139   4.838   3.395
  309TIP3    H1  872   3.093   4.898   3.453
  309TIP3    H2  873   3.186   4.779   3.453
  310TIP3   OH2  874   1.888   7.265   3.304
  310TIP3    H1  875   1.932   7.258   3.219
  310TIP3    H2  876   1.807   7.311   3.286
  311TIP3   OH2  877   5.461   4.444   6.346
  311TIP3    H1  878   5.533   4.385   6.323
  311TIP3    H2  879   5.450   4.499   6.268
  312TIP3   OH2  880   7.787   3.910   3.759
  312TIP3    H1  881   7.845   3.930   3.685
  312TIP3    H2  882   7.723   3.981   3.759
  313TIP3   OH2  883   2.748   0.388   3.954
  313TIP3    H1  884   2.785   0.371   4.040
  313TIP3    H2  885   2.777   0.476   3.932
  314TIP3   OH2  886   0.641   7.201   1.343
  314TIP3    H1  887   0.701   7.152   1.286
  314TIP3    H2  888   0.653   7.162   1.430
  315TIP3   OH2  889   7.029   6.221   5.838
  315TIP3    H1  890   7.121   6.196   5.834
  315TIP3    H2  891   7.005   6.208   5.930
  316TIP3   OH2  892   6.774   4.520   3.753
  316TIP3    H1  893   6.857   4.505   3.798
  316TIP3    H2  894   6.797   4.573   3.677
  317TIP3   OH2  895   1.460   5.869   4.954
  317TIP3    H1  896   1.553   5.847   4.950
  317TIP3    H2  897   1.419   5.792   4.993
  318TIP3   OH2  898   1.747   4.375   6.168
  318TIP3    H1  899   1.691   4.300   6.190
  318TIP3    H2  900   1.831   4.354   6.208
  319TIP3   OH2  901   6.907   1.281   5.926
  319TIP3    H1  902   6.837   1.344   5.912
  319TIP3    H2  903   6.875   1.223   5.995
  320TIP3   OH2  904   2.656   0.896   0.597
  320TIP3    H1  905   2.606   0.885   0.516
  320TIP3    H2  906   2.610   0.966   0.644
  321TIP3   OH2  907   5.873   0.863   3.350
  321TIP3    H1  908   5.940   0.891   3.412
  321TIP3    H2  909   5.847   0.943   3.305
  322TIP3   OH2  910   4.500   0.586   0.727
  322TIP3    H1  911   4.498   0.621   0.638
  322TIP3    H2  912   4.561   0.644   0.773
  323TIP3   OH2  913   1.771   7.758   0.679
  323TIP3    H1  914   1.796   7.694   0.745
  323TIP3    H2  915   1.771   7.708   0.597
  324TIP3   OH2  916   5.629   4.587   1.529
  324TIP3    H1  917   5.679   4.535   1.467
  324TIP3    H2  918   5.651   4.550   1.615
  325TIP3   OH2  919   7.537   0.917   5.596
  325TIP3    H1  920   7.581   0.913   5.681
  325TIP3    H2  921   7.492   1.002   5.596
  326TIP3   OH2  922   6.563   7.136   5.331
  326TIP3    H1  923   6.605   7.064   5.285
  326TIP3    H2  924   6.637   7.190   5.362
  327TIP3   OH2  925   0.378   0.472   0.936
  327TIP3    H1  926   0.365   0.403   1.002
  327TIP3    H2  927   0.322   0.445   0.863
  328TIP3   OH2  928   0.975   1.152   1.486
  328TIP3    H1  929   1.025   1.090   1.432
  328TIP3    H2  930   0.944   1.099   1.559
  329TIP3   OH2  931   2.997   3.019   0.313
  329TIP3    H1  932   3.037   3.055   0.392
  329TIP3    H2  933   2.923   2.967   0.346
  330TIP3   OH2  934   3.934   7.031   5.731
  330TIP3    H1  935   3.844   7.031   5.765
  330TIP3    H2  936   3.949   6.941   5.704
  331TIP3   OH2  937   1.715   4.851   3.318
  331TIP3    H1  938   1.657   4.823   3.389
  331TIP3    H2  939   1.798   4.807   3.335
  332TIP3   OH2  940   2.817   2.230   2.494
  332TIP3    H1  941   2.780   2.317   2.483
  332TIP3    H2  942   2.907   2.238   2.464
  333TIP3   OH2  943   6.506   1.742   3.793
  333TIP3    H1  944   6.574   1.676   3.807
  333TIP3    H2  945   6.444   1.727   3.865
  334TIP3   OH2  946   3.258   4.507   1.165
  334TIP3    H1  947   3.215   4.546   1.089
  334TIP3    H2  948   3.274   4.581   1.224
  335TIP3   OH2  949   3.181   3.734   6.342
  335TIP3    H1  950   3.092   3.720   6.310
  335TIP3    H2  951   3.236   3.721   6.264
  336TIP3   OH2  952   8.234   6.963   1.522
  336TIP3    H1  953   8.271   7.039   1.477
  336TIP3    H2  954   8.308   6.903   1.532
  337TIP3   OH2  955   1.395   7.654   2.634
  337TIP3    H1  956   1.408   7.568   2.673
  337TIP3    H2  957   1.409   7.641   2.540
  338TIP3   OH2  958   7.131   7.488   6.560
  338TIP3    H1  959   7.139   7.474   6.655
  338TIP3    H2  960   7.053   7.438   6.535
  339TIP3   OH2  961   6.363   3.228   4.936
  339TIP3    H1  962   6.320   3.288   4.876
  339TIP3    H2  963   6.447   3.270   4.957
  340TIP3   OH2  964   6.358   5.706   3.854
  340TIP3    H1  965   6.329   5.783   3.807
  340TIP3    H2  966   6.283   5.679   3.906
  341TIP3   OH2  967   3.389   1.191   5.778
  341TIP3    H1  968   3.338   1.153   5.849
  341TIP3    H2  969   3.373   1.285   5.785
  342TIP3   OH2  970   3.816   7.117   1.059
  342TIP3    H1  971   3.847   7.027   1.055
  342TIP3    H2  972   3.725   7.110   1.087
  343TIP3   OH2  973   3.007   2.935   1.401
  343TIP3    H1  974   2.930   2.975   1.441
  343TIP3    H2  975   3.072   2.934   1.471
  344TIP3   OH2  976   1.152   5.081   2.124
  344TIP3    H1  977   1.155   5.055   2.216
  344TIP3    H2  978   1.167   5.175   2.125
  345TIP3   OH2  979   6.768   1.756   0.109
  345TIP3    H1  980   6.791   1.733   0.199
  345TIP3    H2  981   6.846   1.731   0.058
  346TIP3   OH2  982   4.510   3.814   0.239
  346TIP3    H1  983   4.440   3.847   0.295
  346TIP3    H2  984   4.509   3.719   0.252
  347TIP3   OH2  985   2.236   4.077   6.237
  347TIP3    H1  986   2.198   4.110   6.156
  347TIP3    H2  987   2.326   4.109   6.237
  348TIP3   OH2  988   3.630   5.229   2.092
  348TIP3    H1  989   3.660   5.293   2.028
  348TIP3    H2  990   3.697   5.161   2.092
  349TIP3   OH2  991   5.881   1.303   3.182
  349TIP3    H1  992   5.872   1.286   3.088
  349TIP3    H2  993   5.952   1.367   3.188
  350TIP3   OH2  994   4.034   6.281   3.634
  350TIP3    H1  995   3.978   6.218   3.678
  350TIP3    H2  996   4.015   6.364   3.677
  351TIP3   OH2  997   6.860   6.647   2.682
  351TIP3    H1  998   6.924   6.698   2.632
  351TIP3    H2  999   6.844   6.570   2.629
  352TIP3   OH2 1000   2.563   1.701   2.693
  352TIP3    H1 1001   2.501   1.643   2.737
  352TIP3    H2 1002   2.525   1.717   2.607
  353TIP3   OH2 1003   7.345   5.756   5.940
  353TIP3    H1 1004   7.418   5.755   5.879
  353TIP3    H2 1005   7.373   5.702   6.014
  354TIP3   OH2 1006   0.513   2.533   4.742
  354TIP3    H1 1007   0.594   2.505   4.700
  354TIP3    H2 1008   0.511   2.484   4.824
  355TIP3   OH2 1009   1.034   6.545   4.718
  355TIP3    H1 1010   1.008   6.605   4.648
  355TIP3    H2 1011   0.961   6.549   4.780
  356TIP3   OH2 1012   0.686   0.983   1.422
  356TIP3    H1 1013   0.745   0.936   1.480
  356TIP3    H2 1014   0.670   0.922   1.350
  357TIP3   OH2 1015   1.222   5.493   1.051
  357TIP3    H1 1016   1.252   5.448   0.971
  357TIP3    H2 1017   1.178   5.425   1.102
  358TIP3   OH2 1018   1.631   7.739   1.387
  358TIP3    H1 1019   1.629   7.826   1.349
  358TIP3    H2 1020   1.665   7.752   1.476
  359TIP3   OH2 1021   8.156   0.033   3.777
  359TIP3    H1 1022   8.085  -0.028   3.795
  359TIP3    H2 1023   8.135   0.110   3.831
  360TIP3   OH2 1024   2.037   7.540   2.949
  360TIP3    H1 1025   2.111   7.585   2.909
  360TIP3    H2 1026   1.979   7.610   2.979
  361TIP3   OH2 1027   1.926   4.490   3.447
  361TIP3    H1 1028   1.940   4.580   3.416
  361TIP3    H2 1029   1.834   4.472   3.427
  362TIP3   OH2 1030   3.362   3.180   2.691
  362TIP3    H1 1031   3.392   3.253   2.637
  362TIP3    H2 1032   3.331   3.222   2.772
  363TIP3   OH2 1033   1.336   1.031   1.847
  363TIP3    H1 1034   1.338   1.127   1.837
  363TIP3    H2 1035   1.344   0.998   1.757
  364TIP3   OH2 1036   6.531   4.905   2.844
  364TIP3    H1 1037   6.546   4.865   2.758
  364TIP3    H2 1038   6.462   4.970   2.829
  365TIP3   OH2 1039   0.485   6.376   2.988
  365TIP3    H1 1040   0.403   6.418   2.963
  365TIP3    H2 1041   0.545   6.398   2.917
  366TIP3   OH2 1042   2.963   7.023   4.874
  366TIP3    H1 1043   2.941   7.097   4.818
  366TIP3    H2 1044   2.882   6.974   4.883
  367TIP3   OH2 1045   3.344   6.503   6.309
  367TIP3    H1 1046   3.360   6.553   6.229
  367TIP3    H2 1047   3.249   6.502   6.318
  368TIP3   OH2 1048   0.466   2.978   0.705
  368TIP3    H1 1049   0.474   2.904   0.645
  368TIP3    H2 1050   0.523   2.955   0.779
  369TIP3   OH2 1051   8.163   3.323   1.321
  369TIP3    H1 1052   8.082   3.315   1.371
  369TIP3    H2 1053   8.135   3.342   1.232
  370TIP3   OH2 1054   1.530   5.663   5.360
  370TIP3    H1 1055   1.603   5.603   5.344
  370TIP3    H2 1056   1.470   5.647   5.287
  371TIP3   OH2 1057   7.806   3.955   1.372
  371TIP3    H1 1058   7.725   3.914   1.341
  371TIP3    H2 1059   7.872   3.885   1.366
  372TIP3   OH2 1060   0.390   7.135   5.262
  372TIP3    H1 1061   0.347   7.220   5.248
  372TIP3    H2 1062   0.441   7.121   5.183
  373TIP3   OH2 1063   4.716   1.975   6.212
  373TIP3    H1 1064   4.704   2.018   6.127
  373TIP3    H2 1065   4.723   2.046   6.275
  374TIP3   OH2 1066   5.677   2.923   6.723
  374TIP3    H1 1067   5.610   2.932   6.655
  374TIP3    H2 1068   5.758   2.909   6.675
  375TIP3   OH2 1069   5.177   0.622   6.096
  375TIP3    H1 1070   5.265   0.585   6.092
  375TIP3    H2 1071   5.169   0.670   6.013
  376TIP3   OH2 1072   7.932   1.697   4.645
  376TIP3    H1 1073   8.001   1.645   4.605
  376TIP3    H2 1074   7.965   1.787   4.640
  377TIP3   OH2 1075   2.984   6.808   2.694
  377TIP3    H1 1076   2.959   6.900   2.690
  377TIP3    H2 1077   2.910   6.761   2.655
  378TIP3   OH2 1078   2.770   1.200   0.780
  378TIP3    H1 1079   2.685   1.156   0.780
  378TIP3    H2 1080   2.749   1.293   0.769
  379TIP3   OH2 1081   7.528   0.593   0.834
  379TIP3    H1 1082   7.444   0.576   0.876
  379TIP3    H2 1083   7.593   0.581   0.903
  380TIP3   OH2 1084   1.934   7.231   5.017
  380TIP3    H1 1085   1.869   7.300   5.010
  380TIP3    H2 1086   1.933   7.187   4.932
  381TIP3   OH2 1087   1.282   4.424   4.478
  381TIP3    H1 1088   1.238   4.443   4.560
  381TIP3    H2 1089   1.252   4.336   4.454
  382TIP3   OH2 1090   6.836   4.546   1.512
  382TIP3    H1 1091   6.809   4.540   1.603
  382TIP3    H2 1092   6.917   4.494   1.508
  383TIP3   OH2 1093   2.517   5.007   6.201
  383TIP3    H1 1094   2.454   5.076   6.184
  383TIP3    H2 1095   2.516   4.953   6.122
  384TIP3   OH2 1096   6.281   5.341   5.671
  384TIP3    H1 1097   6.349   5.330   5.605
  384TIP3    H2 1098   6.286   5.434   5.696
  385TIP3   OH2 1099   1.834   4.374   0.630
  385TIP3    H1 1100   1.791   4.415   0.705
  385TIP3    H2 1101   1.843   4.282   0.655
  386TIP3   OH2 1102   4.025   2.785   1.133
  386TIP3    H1 1103   3.985   2.842   1.199
  386TIP3    H2 1104   4.119   2.794   1.147
  387TIP3   OH2 1105   4.824   5.968   1.958
  387TIP3    H1 1106   4.874   5.950   1.878
  387TIP3    H2 1107   4.805   5.882   1.995
  388TIP3   OH2 1108   6.170   5.274   2.818
  388TIP3    H1 1109   6.180   5.289   2.913
  388TIP3    H2 1110   6.118   5.348   2.788
  389TIP3   OH2 1111   3.596   1.731   6.430
  389TIP3    H1 1112   3.664   1.793   6.453
  389TIP3    H2 1113   3.526   1.784   6.391
  390TIP3   OH2 1114   7.771   5.468   4.715
  390TIP3    H1 1115   7.805   5.469   4.626
  390TIP3    H2 1116   7.817   5.539   4.759
  391TIP3   OH2 1117   3.880   2.636   5.309
  391TIP3    H1 1118   3.802   2.690   5.294
  391TIP3    H2 1119   3.849   2.547   5.294
  392TIP3   OH2 1120   1.916   2.838   1.224
  392TIP3    H1 1121   1.897   2.802   1.311
  392TIP3    H2 1122   2.003   2.804   1.202
  393TIP3   OH2 1123   3.592   1.603   3.796
  393TIP3    H1 1124   3.616   1.521   3.753
  393TIP3    H2 1125   3.499   1.614   3.775
  394TIP3   OH2 1126   0.532   0.146   4.482
  394TIP3    H1 1127   0.501   0.068   4.527
  394TIP3    H2 1128   0.453   0.197   4.464
  395TIP3   OH2 1129   3.891   4.525   1.417
  395TIP3    H1 1130   3.945   4.600   1.394
  395TIP3    H2 1131   3.918   4.501   1.505
  396TIP3   OH2 1132   7.841   0.512   2.458
  396TIP3    H1 1133   7.815   0.426   2.426
  396TIP3    H2 1134   7.820   0.511   2.552
  397TIP3   OH2 1135   2.571   5.362   4.895
  397TIP3    H1 1136   2.659   5.323   4.895
  397TIP3    H2 1137   2.522   5.309   4.957
  398TIP3   OH2 1138   6.836   1.176   2.680
  398TIP3    H1 1139   6.773   1.233   2.724
  398TIP3    H2 1140   6.819   1.190   2.587
  399TIP3   OH2 1141   1.971   6.649   1.804
  399TIP3    H1 1142   1.960   6.704   1.881
  399TIP3    H2 1143   1.881   6.630   1.775
  400TIP3   OH2 1144   6.258   6.127   2.201
  400TIP3    H1 1145   6.334   6.177   2.231
  400TIP3    H2 1146   6.196   6.194   2.172
  401TIP3   OH2 1147   2.331   0.599   6.401
  401TIP3    H1 1148   2.338   0.503   6.406
  401TIP3    H2 1149   2.264   0.614   6.335
  402TIP3   OH2 1150   5.614   5.892   6.676
  402TIP3    H1 1151   5.666   5.820   6.641
  402TIP3    H2 1152   5.670   5.931   6.743
  403TIP3   OH2 1153   0.863   6.521   4.228
  403TIP3    H1 1154   0.791   6.479   4.275
  403TIP3    H2 1155   0.942   6.486   4.270
  404TIP3   OH2 1156   6.116   5.311   3.894
  404TIP3    H1 1157   6.191   5.252   3.907
  404TIP3    H2 1158   6.041   5.261   3.926
  405TIP3   OH2 1159   0.020   5.338   3.048
  405TIP3    H1 1160   0.051   5.354   2.959
  405TIP3    H2 1161   0.100   5.328   3.101
  406TIP3   OH2 1162   8.104   3.381   4.490
  406TIP3    H1 1163   8.052   3.458   4.467
  406TIP3    H2 1164   8.179   3.417   4.538
  407TIP3   OH2 1165   5.306   6.450   5.202
  407TIP3    H1 1166   5.383   6.504   5.187
  407TIP3    H2 1167   5.250   6.466   5.126
  408TIP3   OH2 1168   3.527   1.547   3.410
  408TIP3    H1 1169   3.508   1.489   3.484
  408TIP3    H2 1170   3.575   1.492   3.348
  409TIP3   OH2 1171   3.382   6.764   5.963
  409TIP3    H1 1172   3.393   6.674   5.994
  409TIP3    H2 1173   3.287   6.772   5.950
  410TIP3   OH2 1174   4.730   0.913   3.049
  410TIP3    H1 1175   4.772   0.907   2.963
  410TIP3    H2 1176   4.803   0.928   3.109
  411TIP3   OH2 1177   4.159   4.666   2.823
  411TIP3    H1 1178   4.080   4.655   2.876
  411TIP3    H2 1179   4.186   4.576   2.801
  412TIP3   OH2 1180   0.379   3.299   0.245
  412TIP3    H1 1181   0.417   3.235   0.305
  412TIP3    H2 1182   0.406   3.271   0.158
  413TIP3   OH2 1183   3.665   0.591   2.043
  413TIP3    H1 1184   3.591   0.566   1.987
  413TIP3    H2 1185   3.734   0.618   1.983
  414TIP3   OH2 1186   3.141   4.625   0.949
  414TIP3    H1 1187   3.053   4.636   0.911
  414TIP3    H2 1188   3.198   4.678   0.893
  415TIP3   OH2 1189   2.195   1.565   6.290
  415TIP3    H1 1190   2.193   1.518   6.374
  415TIP3    H2 1191   2.285   1.555   6.259
  416TIP3   OH2 1192   4.223   2.620   5.085
  416TIP3    H1 1193   4.208   2.689   5.020
  416TIP3    H2 1194   4.214   2.664   5.169
  417TIP3   OH2 1195   6.213   4.979   5.951
  417TIP3    H1 1196   6.227   5.004   5.860
  417TIP3    H2 1197   6.290   5.010   5.998
  418TIP3   OH2 1198   6.061   4.161   3.866
  418TIP3    H1 1199   6.052   4.187   3.957
  418TIP3    H2 1200   6.062   4.243   3.817
  419TIP3   OH2 1201   7.165   6.520   2.954
  419TIP3    H1 1202   7.198   6.541   2.867
  419TIP3    H2 1203   7.242   6.494   3.004
  420TIP3   OH2 1204   7.219   2.768   2.992
  420TIP3    H1 1205   7.190   2.697   3.049
  420TIP3    H2 1206   7.143   2.827   2.986
  421TIP3   OH2 1207   0.027   1.445   0.159
  421TIP3    H1 1208   0.080   1.516   0.193
  421TIP3    H2 1209   0.016   1.466   0.066
  422TIP3   OH2 1210   6.368   4.625   0.533
  422TIP3    H1 1211   6.297   4.615   0.469
  422TIP3    H2 1212   6.323   4.647   0.615
  423TIP3   OH2 1213   3.032   3.146   0.824
  423TIP3    H1 1214   3.045   3.240   0.811
  423TIP3    H2 1215   3.050   3.131   0.917
  424TIP3   OH2 1216   6.689   6.240   6.159
  424TIP3    H1 1217   6.645   6.172   6.210
  424TIP3    H2 1218   6.714   6.306   6.224
  425TIP3   OH2 1219   7.584   4.008   5.750
  425TIP3    H1 1220   7.644   3.996   5.823
  425TIP3    H2 1221   7.497   4.011   5.790
  426TIP3   OH2 1222   6.727   4.614   2.572
  426TIP3    H1 1223   6.672   4.560   2.514
  426TIP3    H2 1224   6.675   4.692   2.588
  427TIP3   OH2 1225   7.940   7.460   5.442
  427TIP3    H1 1226   7.977   7.435   5.357
  427TIP3    H2 1227   7.887   7.538   5.423
  428TIP3   OH2 1228   7.426   6.843   5.152
  428TIP3    H1 1229   7.434   6.792   5.233
  428TIP3    H2 1230   7.396   6.930   5.181
  429TIP3   OH2 1231   5.653   7.220   0.868
  429TIP3    H1 1232   5.588   7.154   0.843
  429TIP3    H2 1233   5.610   7.272   0.936
  430TIP3   OH2 1234   8.024   3.981   2.955
  430TIP3    H1 1235   8.021   4.055   3.015
  430TIP3    H2 1236   8.105   3.935   2.978
  431TIP3   OH2 1237   8.159   5.570   0.950
  431TIP3    H1 1238   8.129   5.625   1.022
  431TIP3    H2 1239   8.251   5.555   0.968
  432TIP3   OH2 1240   5.458   5.498   5.169
  432TIP3    H1 1241   5.543   5.498   5.125
  432TIP3    H2 1242   5.459   5.577   5.223
  433TIP3   OH2 1243   3.500   3.187   5.138
  433TIP3    H1 1244   3.500   3.144   5.053
  433TIP3    H2 1245   3.428   3.250   5.133
  434TIP3   OH2 1246   7.546   6.582   0.319
  434TIP3    H1 1247   7.586   6.639   0.385
  434TIP3    H2 1248   7.619   6.532   0.283
  435TIP3   OH2 1249   2.109   3.236   3.799
  435TIP3    H1 1250   2.024   3.192   3.806
  435TIP3    H2 1251   2.105   3.305   3.866
  436TIP3   OH2 1252   2.743   5.143   4.314
  436TIP3    H1 1253   2.829   5.171   4.281
  436TIP3    H2 1254   2.753   5.049   4.329
  437TIP3   OH2 1255   0.629   5.772   5.419
  437TIP3    H1 1256   0.589   5.693   5.454
  437TIP3    H2 1257   0.674   5.811   5.494
  438TIP3   OH2 1258   4.504   4.488   1.175
  438TIP3    H1 1259   4.579   4.482   1.117
  438TIP3    H2 1260   4.465   4.401   1.173
  439TIP3   OH2 1261   4.984   7.600   5.150
  439TIP3    H1 1262   5.041   7.597   5.227
  439TIP3    H2 1263   4.961   7.508   5.134
  440TIP3   OH2 1264   8.146   7.776   5.471
  440TIP3    H1 1265   8.137   7.726   5.552
  440TIP3    H2 1266   8.193   7.855   5.496
  441TIP3   OH2 1267   4.631   0.641   5.271
  441TIP3    H1 1268   4.715   0.598   5.260
  441TIP3    H2 1269   4.573   0.599   5.208
  442TIP3   OH2 1270   6.103   3.578   6.171
  442TIP3    H1 1271   6.016   3.608   6.198
  442TIP3    H2 1272   6.090   3.544   6.082
  443TIP3   OH2 1273   8.239   1.965   4.575
  443TIP3    H1 1274   8.325   1.959   4.616
  443TIP3    H2 1275   8.229   1.881   4.529
  444TIP3   OH2 1276   4.651   7.595   2.712
  444TIP3    H1 1277   4.599   7.515   2.703
  444TIP3    H2 1278   4.633   7.625   2.801
  445TIP3   OH2 1279   3.028   6.843   1.565
  445TIP3    H1 1280   2.973   6.895   1.624
  445TIP3    H2 1281   2.966   6.788   1.516
  446TIP3   OH2 1282   5.999   0.950   6.616
  446TIP3    H1 1283   6.087   0.983   6.599
  446TIP3    H2 1284   5.941   1.020   6.584
  447TIP3   OH2 1285   5.844   0.056   0.121
  447TIP3    H1 1286   5.879   0.009   0.045
  447TIP3    H2 1287   5.756   0.083   0.094
  448TIP3   OH2 1288   0.951   4.156   1.568
  448TIP3    H1 1289   0.922   4.065   1.561
  448TIP3    H2 1290   0.940   4.191   1.479
  449TIP3   OH2 1291   7.721   1.257   3.323
  449TIP3    H1 1292   7.710   1.175   3.372
  449TIP3    H2 1293   7.816   1.272   3.323
  450TIP3   OH2 1294   6.407   5.379   6.508
  450TIP3    H1 1295   6.426   5.314   6.576
  450TIP3    H2 1296   6.435   5.337   6.427
  451TIP3   OH2 1297   7.062   3.344   3.914
  451TIP3    H1 1298   7.079   3.282   3.842
  451TIP3    H2 1299   7.125   3.414   3.899
  452TIP3   OH2 1300   0.120   4.016   0.534
  452TIP3    H1 1301   0.111   4.067   0.615
  452TIP3    H2 1302   0.060   4.058   0.473
  453TIP3   OH2 1303   6.618   0.729   6.448
  453TIP3    H1 1304   6.664   0.654   6.410
  453TIP3    H2 1305   6.527   0.715   6.424
  454TIP3   OH2 1306   2.868   6.956   0.406
  454TIP3    H1 1307   2.870   6.899   0.329
  454TIP3    H2 1308   2.782   6.941   0.445
  455TIP3   OH2 1309   1.639   7.421   5.645
  455TIP3    H1 1310   1.616   7.390   5.558
  455TIP3    H2 1311   1.644   7.516   5.637
  456TIP3   OH2 1312   2.270   5.994   6.616
  456TIP3    H1 1313   2.334   5.980   6.546
  456TIP3    H2 1314   2.323   5.996   6.696
  457TIP3   OH2 1315   3.415   7.055   3.898
  457TIP3    H1 1316   3.378   7.040   3.985
  457TIP3    H2 1317   3.503   7.018   3.903
  458TIP3   OH2 1318   6.522   6.924   0.358
  458TIP3    H1 1319   6.547   6.874   0.436
  458TIP3    H2 1320   6.429   6.902   0.344
  459TIP3   OH2 1321   6.896   5.862   2.190
  459TIP3    H1 1322   6.958   5.856   2.117
  459TIP3    H2 1323   6.810   5.865   2.147
  460TIP3   OH2 1324   5.801   4.387   1.313
  460TIP3    H1 1325   5.751   4.323   1.363
  460TIP3    H2 1326   5.879   4.340   1.285
  461TIP3   OH2 1327   4.737   3.621   6.715
  461TIP3    H1 1328   4.678   3.644   6.643
  461TIP3    H2 1329   4.722   3.689   6.781
  462TIP3   OH2 1330   0.039   3.563   1.071
  462TIP3    H1 1331   0.039   3.597   1.160
  462TIP3    H2 1332   0.123   3.590   1.035
  463TIP3   OH2 1333   4.033   3.481   0.354
  463TIP3    H1 1334   4.086   3.456   0.430
  463TIP3    H2 1335   3.984   3.401   0.332
  464TIP3   OH2 1336   2.451   1.818   5.189
  464TIP3    H1 1337   2.420   1.733   5.159
  464TIP3    H2 1338   2.546   1.808   5.196
  465TIP3   OH2 1339   0.280   3.229   5.049
  465TIP3    H1 1340   0.288   3.183   4.965
  465TIP3    H2 1341   0.368   3.226   5.086
  466TIP3   OH2 1342   7.713   3.187   1.028
  466TIP3    H1 1343   7.673   3.172   0.942
  466TIP3    H2 1344   7.784   3.123   1.033
  467TIP3   OH2 1345   2.433   4.393   1.930
  467TIP3    H1 1346   2.490   4.357   1.862
  467TIP3    H2 1347   2.401   4.476   1.892
  468TIP3   OH2 1348   1.381   3.970   4.546
  468TIP3    H1 1349   1.427   3.918   4.480
  468TIP3    H2 1350   1.446   4.033   4.577
  469TIP3   OH2 1351   3.129   7.673   2.474
  469TIP3    H1 1352   3.052   7.701   2.425
  469TIP3    H2 1353   3.094   7.638   2.556
  470TIP3   OH2 1354   8.217   1.861   6.494
  470TIP3    H1 1355   8.184   1.948   6.474
  470TIP3    H2 1356   8.140   1.811   6.520
  471TIP3   OH2 1357   3.350   0.040   6.627
  471TIP3    H1 1358   3.257   0.058   6.612
  471TIP3    H2 1359   3.354  -0.054   6.645
  472TIP3   OH2 1360   5.894   0.390   4.715
  472TIP3    H1 1361   5.892   0.364   4.807
  472TIP3    H2 1362   5.810   0.434   4.700
  473TIP3   OH2 1363   7.118   2.171   5.463
  473TIP3    H1 1364   7.113   2.266   5.464
  473TIP3    H2 1365   7.142   2.149   5.373
  474TIP3   OH2 1366   4.349   2.834   2.503
  474TIP3    H1 1367   4.348   2.805   2.595
  474TIP3    H2 1368   4.439   2.865   2.490
  475TIP3   OH2 1369   0.217   1.056   5.812
  475TIP3    H1 1370   0.228   0.979   5.867
  475TIP3    H2 1371   0.249   1.029   5.726
  476TIP3   OH2 1372   3.168   1.830   0.904
  476TIP3    H1 1373   3.171   1.784   0.988
  476TIP3    H2 1374   3.223   1.908   0.918
  477TIP3   OH2 1375   2.688   3.846   5.559
  477TIP3    H1 1376   2.689   3.895   5.642
  477TIP3    H2 1377   2.706   3.755   5.585
  478TIP3   OH2 1378   2.707   7.378   0.567
  478TIP3    H1 1379   2.682   7.286   0.574
  478TIP3    H2 1380   2.639   7.425   0.616
  479TIP3   OH2 1381   7.699   0.759   3.239
  479TIP3    H1 1382   7.627   0.802   3.193
  479TIP3    H2 1383   7.663   0.739   3.326
  480TIP3   OH2 1384   6.938   6.488   4.555
  480TIP3    H1 1385   6.977   6.429   4.619
  480TIP3    H2 1386   6.884   6.548   4.606
  481TIP3   OH2 1387   7.168   3.138   4.559
  481TIP3    H1 1388   7.244   3.164   4.507
  481TIP3    H2 1389   7.193   3.055   4.598
  482TIP3   OH2 1390   5.391   5.623   3.184
  482TIP3    H1 1391   5.297   5.636   3.168
  482TIP3    H2 1392   5.396   5.600   3.277
  483TIP3   OH2 1393   6.320   7.329   2.025
  483TIP3    H1 1394   6.321   7.424   2.034
  483TIP3    H2 1395   6.317   7.296   2.115
  484TIP3   OH2 1396   1.121   7.264   3.028
  484TIP3    H1 1397   1.181   7.250   3.102
  484TIP3    H2 1398   1.035   7.273   3.069
  485TIP3   OH2 1399   0.965   5.449   5.910
  485TIP3    H1 1400   1.011   5.373   5.944
  485TIP3    H2 1401   1.032   5.501   5.865
  486TIP3   OH2 1402   1.627   2.862   1.655
  486TIP3    H1 1403   1.623   2.928   1.724
  486TIP3    H2 1404   1.558   2.800   1.677
  487TIP3   OH2 1405   3.777   2.614   0.786
  487TIP3    H1 1406   3.816   2.700   0.804
  487TIP3    H2 1407   3.776   2.570   0.871
  488TIP3   OH2 1408   5.558   3.458   3.037
  488TIP3    H1 1409   5.542   3.486   3.128
  488TIP3    H2 1410   5.652   3.439   3.034
  489TIP3   OH2 1411   0.723   7.261   4.094
  489TIP3    H1 1412   0.728   7.339   4.039
  489TIP3    H2 1413   0.644   7.216   4.065
  490TIP3   OH2 1414   0.872   7.402   4.884
  490TIP3    H1 1415   0.839   7.336   4.945
  490TIP3    H2 1416   0.809   7.401   4.812
  491TIP3   OH2 1417   0.235   3.759   5.668
  491TIP3    H1 1418   0.302   3.748   5.735
  491TIP3    H2 1419   0.188   3.838   5.695
  492TIP3   OH2 1420   7.238   1.922   3.075
  492TIP3    H1 1421   7.289   1.962   3.146
  492TIP3    H2 1422   7.276   1.959   2.995
  493TIP3   OH2 1423   4.232   7.497   6.542
  493TIP3    H1 1424   4.325   7.486   6.518
  493TIP3    H2 1425   4.207   7.580   6.501
  494TIP3   OH2 1426   4.913   4.447   2.252
  494TIP3    H1 1427   4.863   4.504   2.311
  494TIP3    H2 1428   4.848   4.388   2.215
  495TIP3   OH2 1429   2.811   5.054   3.959
  495TIP3    H1 1430   2.790   5.084   3.871
  495TIP3    H2 1431   2.805   4.959   3.954
  496TIP3   OH2 1432   2.768   3.907   1.484
  496TIP3    H1 1433   2.765   3.988   1.433
  496TIP3    H2 1434   2.815   3.845   1.428
  497TIP3   OH2 1435   0.632   3.742   1.064
  497TIP3    H1 1436   0.611   3.651   1.042
  497TIP3    H2 1437   0.627   3.789   0.981
  498TIP3   OH2 1438   3.519   5.569   1.222
  498TIP3    H1 1439   3.538   5.520   1.142
  498TIP3    H2 1440   3.587   5.542   1.284
  499TIP3   OH2 1441   6.679   7.023   0.884
  499TIP3    H1 1442   6.604   6.964   0.895
  499TIP3    H2 1443   6.736   6.978   0.822
  500TIP3   OH2 1444   4.796   4.088   3.525
  500TIP3    H1 1445   4.848   4.008   3.535
  500TIP3    H2 1446   4.823   4.144   3.598
  501TIP3   OH2 1447   1.405   4.302   5.819
  501TIP3    H1 1448   1.316   4.277   5.795
  501TIP3    H2 1449   1.394   4.383   5.870
  502TIP3   OH2 1450   5.820   4.816   3.100
  502TIP3    H1 1451   5.804   4.904   3.066
  502TIP3    H2 1452   5.915   4.813   3.115
  503TIP3   OH2 1453   3.752   6.230   4.889
  503TIP3    H1 1454   3.666   6.247   4.928
  503TIP3    H2 1455   3.800   6.182   4.957
  504TIP3   OH2 1456   3.101   5.847   2.003
  504TIP3    H1 1457   3.064   5.934   2.019
  504TIP3    H2 1458   3.060   5.819   1.922
  505TIP3   OH2 1459   8.312   6.943   2.625
  505TIP3    H1 1460   8.217   6.940   2.631
  505TIP3    H2 1461   8.339   7.005   2.692
  506TIP3   OH2 1462   2.065   7.071   6.511
  506TIP3    H1 1463   2.141   7.066   6.453
  506TIP3    H2 1464   2.082   7.147   6.566
  507TIP3   OH2 1465   2.202   5.984   3.398
  507TIP3    H1 1466   2.209   5.966   3.491
  507TIP3    H2 1467   2.278   5.941   3.359
  508TIP3   OH2 1468   5.380   2.909   3.714
  508TIP3    H1 1469   5.473   2.930   3.701
  508TIP3    H2 1470   5.362   2.841   3.649
  509TIP3   OH2 1471   4.733   3.626   0.118
  509TIP3    H1 1472   4.715   3.689   0.048
  509TIP3    H2 1473   4.706   3.671   0.198
  510TIP3   OH2 1474   2.793   1.803   0.997
  510TIP3    H1 1475   2.761   1.775   1.083
  510TIP3    H2 1476   2.754   1.741   0.935
  511TIP3   OH2 1477   6.008   5.420   4.193
  511TIP3    H1 1478   6.042   5.332   4.205
  511TIP3    H2 1479   5.913   5.411   4.207
  512TIP3   OH2 1480   2.817   6.990   1.366
  512TIP3    H1 1481   2.913   6.989   1.369
  512TIP3    H2 1482   2.793   7.082   1.381
  513TIP3   OH2 1483   0.598   1.794   4.805
  513TIP3    H1 1484   0.592   1.771   4.898
  513TIP3    H2 1485   0.661   1.732   4.768
  514TIP3   OH2 1486   2.317   1.724   6.721
  514TIP3    H1 1487   2.325   1.715   6.626
  514TIP3    H2 1488   2.254   1.795   6.733
  515TIP3   OH2 1489   4.404   7.301   1.798
  515TIP3    H1 1490   4.408   7.320   1.704
  515TIP3    H2 1491   4.320   7.258   1.810
  516TIP3   OH2 1492   5.376   4.580   5.934
  516TIP3    H1 1493   5.444   4.514   5.943
  516TIP3    H2 1494   5.400   4.629   5.856
  517TIP3   OH2 1495   4.580   2.849   0.460
  517TIP3    H1 1496   4.590   2.885   0.372
  517TIP3    H2 1497   4.566   2.755   0.446
  518TIP3   OH2 1498   5.546   5.356   6.147
  518TIP3    H1 1499   5.549   5.443   6.106
  518TIP3    H2 1500   5.635   5.322   6.138
  519TIP3   OH2 1501   3.732   0.868   5.914
  519TIP3    H1 1502   3.651   0.846   5.868
  519TIP3    H2 1503   3.737   0.963   5.909
  520TIP3   OH2 1504   5.730   0.514   5.848
  520TIP3    H1 1505   5.648   0.562   5.853
  520TIP3    H2 1506   5.798   0.581   5.856
  521TIP3   OH2 1507   2.005   6.927   2.838
  521TIP3    H1 1508   2.010   6.888   2.751
  521TIP3    H2 1509   1.927   6.888   2.878
  522TIP3   OH2 1510   1.319   4.781   5.448
  522TIP3    H1 1511   1.268   4.862   5.445
  522TIP3    H2 1512   1.264   4.716   5.404
  523TIP3   OH2 1513   5.322   6.090   4.275
  523TIP3    H1 1514   5.353   6.091   4.184
  523TIP3    H2 1515   5.243   6.037   4.272
  524TIP3   OH2 1516   4.789   3.228   5.265
  524TIP3    H1 1517   4.859   3.262   5.209
  524TIP3    H2 1518   4.765   3.145   5.224
  525TIP3   OH2 1519   0.462   0.136   3.409
  525TIP3    H1 1520   0.506   0.157   3.327
  525TIP3    H2 1521   0.425   0.219   3.439
  526TIP3   OH2 1522   2.761   0.509   2.120
  526TIP3    H1 1523   2.770   0.604   2.108
  526TIP3    H2 1524   2.838   0.472   2.077
  527TIP3   OH2 1525   6.362   3.287   0.800
  527TIP3    H1 1526   6.391   3.244   0.881
  527TIP3    H2 1527   6.327   3.372   0.829
  528TIP3   OH2 1528   1.733   3.397   5.460
  528TIP3    H1 1529   1.645   3.407   5.425
  528TIP3    H2 1530   1.789   3.393   5.382
  529TIP3   OH2 1531   3.290   3.573   1.781
  529TIP3    H1 1532   3.254   3.561   1.868
  529TIP3    H2 1533   3.213   3.574   1.723
  530TIP3   OH2 1534   1.539   1.673   4.267
  530TIP3    H1 1535   1.523   1.765   4.244
  530TIP3    H2 1536   1.561   1.631   4.183
  531TIP3   OH2 1537   1.745   5.355   4.241
  531TIP3    H1 1538   1.744   5.428   4.302
  531TIP3    H2 1539   1.822   5.304   4.265
  532TIP3   OH2 1540   1.706   7.556   4.195
  532TIP3    H1 1541   1.647   7.490   4.232
  532TIP3    H2 1542   1.691   7.634   4.248
  533TIP3   OH2 1543   6.103   6.614   1.816
  533TIP3    H1 1544   6.189   6.650   1.837
  533TIP3    H2 1545   6.080   6.653   1.732
  534TIP3   OH2 1546   0.013   3.753   2.318
  534TIP3    H1 1547  -0.049   3.731   2.249
  534TIP3    H2 1548   0.017   3.675   2.373
  535TIP3   OH2 1549   5.624   3.892   2.709
  535TIP3    H1 1550   5.646   3.858   2.622
  535TIP3    H2 1551   5.535   3.861   2.725
  536TIP3   OH2 1552   1.502   6.356   6.724
  536TIP3    H1 1553   1.592   6.338   6.696
  536TIP3    H2 1554   1.491   6.304   6.804
  537TIP3   OH2 1555   0.921   0.806   0.650
  537TIP3    H1 1556   0.950   0.895   0.670
  537TIP3    H2 1557   0.996   0.750   0.670
  538TIP3   OH2 1558   0.738   2.556   4.580
  538TIP3    H1 1559   0.779   2.470   4.570
  538TIP3    H2 1560   0.797   2.604   4.638
  539TIP3   OH2 1561   4.949   6.171   3.410
  539TIP3    H1 1562   4.995   6.205   3.333
  539TIP3    H2 1563   4.998   6.092   3.434
  540TIP3   OH2 1564   0.456   5.689   5.793
  540TIP3    H1 1565   0.440   5.687   5.699
  540TIP3    H2 1566   0.426   5.776   5.821
  541TIP3   OH2 1567   0.683   4.393   1.320
  541TIP3    H1 1568   0.772   4.406   1.286
  541TIP3    H2 1569   0.684   4.306   1.358
  542TIP3   OH2 1570   5.961   4.338   0.377
  542TIP3    H1 1571   6.027   4.310   0.314
  542TIP3    H2 1572   5.878   4.304   0.342
  543TIP3   OH2 1573   4.950   3.174   3.244
  543TIP3    H1 1574   5.010   3.124   3.188
  543TIP3    H2 1575   4.892   3.219   3.183
  544TIP3   OH2 1576   4.799   7.154   0.062
  544TIP3    H1 1577   4.815   7.247   0.044
  544TIP3    H2 1578   4.721   7.152   0.116
  545TIP3   OH2 1579   4.659   7.630   1.674
  545TIP3    H1 1580   4.614   7.546   1.663
  545TIP3    H2 1581   4.688   7.653   1.586
  546TIP3   OH2 1582   6.047   7.589   3.644
  546TIP3    H1 1583   6.039   7.681   3.670
  546TIP3    H2 1584   6.062   7.593   3.549
  547TIP3   OH2 1585   2.062   5.653   2.543
  547TIP3    H1 1586   2.128   5.585   2.558
  547TIP3    H2 1587   2.032   5.676   2.631
  548TIP3   OH2 1588   3.992   0.511   5.391
  548TIP3    H1 1589   4.087   0.522   5.402
  548TIP3    H2 1590   3.956   0.597   5.413
  549TIP3   OH2 1591   4.708   3.979   5.212
  549TIP3    H1 1592   4.751   4.061   5.239
  549TIP3    H2 1593   4.715   3.922   5.288
  550TIP3   OH2 1594   6.063   1.566   5.128
  550TIP3    H1 1595   6.154   1.582   5.150
  550TIP3    H2 1596   6.019   1.558   5.213
  551TIP3   OH2 1597   5.111   7.421   3.989
  551TIP3    H1 1598   5.029   7.373   3.999
  551TIP3    H2 1599   5.178   7.360   4.023
  552TIP3   OH2 1600   1.654   1.523   1.970
  552TIP3    H1 1601   1.749   1.532   1.960
  552TIP3    H2 1602   1.619   1.605   1.937
  553TIP3   OH2 1603   6.941   7.264   6.564
  553TIP3    H1 1604   6.848   7.245   6.552
  553TIP3    H2 1605   6.952   7.275   6.658
  554TIP3   OH2 1606   3.476   7.328   6.190
  554TIP3    H1 1607   3.553   7.364   6.146
  554TIP3    H2 1608   3.405   7.339   6.127
  555TIP3   OH2 1609   3.283   2.009   1.498
  555TIP3    H1 1610   3.249   1.944   1.436
  555TIP3    H2 1611   3.313   2.081   1.442
  556TIP3   OH2 1612   3.555   1.091   4.697
  556TIP3    H1 1613   3.527   1.180   4.679
  556TIP3    H2 1614   3.649   1.099   4.715
  557TIP3   OH2 1615   4.872   0.672   1.693
  557TIP3    H1 1616   4.950   0.672   1.637
  557TIP3    H2 1617   4.833   0.586   1.680
  558TIP3   OH2 1618   5.156   0.459   0.356
  558TIP3    H1 1619   5.131   0.436   0.267
  558TIP3    H2 1620   5.251   0.448   0.358
  559TIP3   OH2 1621   4.432   7.015   1.925
  559TIP3    H1 1622   4.371   6.950   1.891
  559TIP3    H2 1623   4.376   7.081   1.966
  560TIP3   OH2 1624   5.988   0.146   2.920
  560TIP3    H1 1625   6.007   0.203   2.846
  560TIP3    H2 1626   6.072   0.134   2.963
  561TIP3   OH2 1627   5.753   7.734   3.689
  561TIP3    H1 1628   5.727   7.690   3.770
  561TIP3    H2 1629   5.780   7.663   3.631
  562TIP3   OH2 1630   6.755   2.913   5.715
  562TIP3    H1 1631   6.784   2.979   5.653
  562TIP3    H2 1632   6.660   2.907   5.702
  563TIP3   OH2 1633   6.906   6.490   2.422
  563TIP3    H1 1634   6.917   6.433   2.497
  563TIP3    H2 1635   6.992   6.492   2.380
  564TIP3   OH2 1636   8.076   1.320   0.210
  564TIP3    H1 1637   8.034   1.351   0.130
  564TIP3    H2 1638   8.161   1.363   0.210
  565TIP3   OH2 1639   5.832   7.532   6.143
  565TIP3    H1 1640   5.905   7.586   6.112
  565TIP3    H2 1641   5.858   7.443   6.121
  566TIP3   OH2 1642   3.387   4.226   1.269
  566TIP3    H1 1643   3.345   4.202   1.187
  566TIP3    H2 1644   3.449   4.295   1.246
  567TIP3   OH2 1645   6.472   5.558   4.082
  567TIP3    H1 1646   6.473   5.646   4.043
  567TIP3    H2 1647   6.441   5.501   4.011
  568TIP3   OH2 1648   4.745   6.045   5.200
  568TIP3    H1 1649   4.672   6.052   5.139
  568TIP3    H2 1650   4.819   6.018   5.145
  569TIP3   OH2 1651   4.116   2.876   2.030
  569TIP3    H1 1652   4.153   2.818   1.963
  569TIP3    H2 1653   4.069   2.817   2.090
  570TIP3   OH2 1654   3.249   0.058   3.209
  570TIP3    H1 1655   3.275  -0.033   3.228
  570TIP3    H2 1656   3.332   0.105   3.200
  571TIP3   OH2 1657   2.479   4.410  -0.032
  571TIP3    H1 1658   2.497   4.417  -0.126
  571TIP3    H2 1659   2.468   4.500  -0.003
  572TIP3   OH2 1660   7.630   1.875   4.446
  572TIP3    H1 1661   7.638   1.910   4.535
  572TIP3    H2 1662   7.720   1.876   4.413
  573TIP3   OH2 1663   6.394   3.429   1.866
  573TIP3    H1 1664   6.463   3.364   1.883
  573TIP3    H2 1665   6.360   3.405   1.780
  574TIP3   OH2 1666   0.287   4.339   1.331
  574TIP3    H1 1667   0.312   4.266   1.387
  574TIP3    H2 1668   0.362   4.398   1.332
  575TIP3   OH2 1669   4.300   5.405   1.807
  575TIP3    H1 1670   4.249   5.324   1.796
  575TIP3    H2 1671   4.324   5.430   1.718
  576TIP3   OH2 1672   6.100   2.005   6.292
  576TIP3    H1 1673   6.156   1.927   6.287
  576TIP3    H2 1674   6.159   2.079   6.281
  577TIP3   OH2 1675   3.969   6.545   3.635
  577TIP3    H1 1676   4.018   6.617   3.674
  577TIP3    H2 1677   3.933   6.581   3.554
  578TIP3   OH2 1678   7.100   3.484   1.417
  578TIP3    H1 1679   7.077   3.571   1.451
  578TIP3    H2 1680   7.047   3.423   1.470
  579TIP3   OH2 1681   7.272   5.478   0.798
  579TIP3    H1 1682   7.299   5.513   0.713
  579TIP3    H2 1683   7.275   5.383   0.787
  580TIP3   OH2 1684   3.574   3.302   2.861
  580TIP3    H1 1685   3.638   3.263   2.802
  580TIP3    H2 1686   3.625   3.363   2.915
  581TIP3   OH2 1687   0.902   5.697   4.310
  581TIP3    H1 1688   0.856   5.624   4.269
  581TIP3    H2 1689   0.987   5.698   4.266
  582TIP3   OH2 1690   3.409   7.395   0.200
  582TIP3    H1 1691   3.430   7.396   0.294
  582TIP3    H2 1692   3.454   7.318   0.167
  583TIP3   OH2 1693   2.465   3.044   0.516
  583TIP3    H1 1694   2.393   3.077   0.462
  583TIP3    H2 1695   2.425   2.977   0.571
  584TIP3   OH2 1696   2.688   6.734   2.010
  584TIP3    H1 1697   2.747   6.736   2.085
  584TIP3    H2 1698   2.638   6.653   2.021
  585TIP3   OH2 1699   1.990   1.842   6.079
  585TIP3    H1 1700   2.022   1.932   6.069
  585TIP3    H2 1701   2.047   1.790   6.023
  586TIP3   OH2 1702   7.582   5.576   5.280
  586TIP3    H1 1703   7.549   5.621   5.357
  586TIP3    H2 1704   7.511   5.583   5.216
  587TIP3   OH2 1705   3.889   5.908   0.023
  587TIP3    H1 1706   3.964   5.967   0.033
  587TIP3    H2 1707   3.826   5.958  -0.029
  588TIP3   OH2 1708   4.381   0.401   4.854
  588TIP3    H1 1709   4.433   0.412   4.934
  588TIP3    H2 1710   4.327   0.324   4.871
  589TIP3   OH2 1711   0.884   3.298   5.585
  589TIP3    H1 1712   0.844   3.348   5.656
  589TIP3    H2 1713   0.973   3.279   5.615
  590TIP3   OH2 1714   5.074   4.411   4.652
  590TIP3    H1 1715   5.058   4.479   4.717
  590TIP3    H2 1716   5.019   4.338   4.679
  591TIP3   OH2 1717   0.990   0.030   0.690
  591TIP3    H1 1718   1.054   0.065   0.628
  591TIP3    H2 1719   0.907   0.070   0.663
  592TIP3   OH2 1720   3.538   7.583   3.735
  592TIP3    H1 1721   3.537   7.489   3.753
  592TIP3    H2 1722   3.574   7.590   3.646
  593TIP3   OH2 1723   3.496   6.005   5.693
  593TIP3    H1 1724   3.479   6.081   5.749
  593TIP3    H2 1725   3.412   5.987   5.650
  594TIP3   OH2 1726   3.079   6.371   3.058
  594TIP3    H1 1727   3.151   6.313   3.032
  594TIP3    H2 1728   3.122   6.451   3.086
  595TIP3   OH2 1729   4.808   0.656   6.381
  595TIP3    H1 1730   4.754   0.726   6.418
  595TIP3    H2 1731   4.809   0.589   6.448
  596TIP3   OH2 1732   1.201   2.711   4.077
  596TIP3    H1 1733   1.238   2.623   4.076
  596TIP3    H2 1734   1.256   2.760   4.015
  597TIP3   OH2 1735   6.572   5.328   5.156
  597TIP3    H1 1736   6.531   5.400   5.204
  597TIP3    H2 1737   6.518   5.317   5.078
  598TIP3   OH2 1738   0.972   3.487   2.732
  598TIP3    H1 1739   0.887   3.444   2.740
  598TIP3    H2 1740   0.982   3.536   2.814
  599TIP3   OH2 1741   6.696   6.266   6.708
  599TIP3    H1 1742   6.619   6.226   6.749
  599TIP3    H2 1743   6.668   6.355   6.686
  600TIP3   OH2 1744   6.611   0.013   4.260
  600TIP3    H1 1745   6.535   0.009   4.317
  600TIP3    H2 1746   6.667  -0.059   4.289
  601TIP3   OH2 1747   2.928   5.652   6.740
  601TIP3    H1 1748   2.947   5.638   6.833
  601TIP3    H2 1749   3.008   5.690   6.704
  602TIP3   OH2 1750   5.775   4.384   3.565
  602TIP3    H1 1751   5.794   4.297   3.530
  602TIP3    H2 1752   5.728   4.429   3.494
  603TIP3   OH2 1753   6.730   5.802   0.221
  603TIP3    H1 1754   6.667   5.851   0.272
  603TIP3    H2 1755   6.790   5.764   0.285
  604TIP3   OH2 1756   3.024   0.962   4.667
  604TIP3    H1 1757   3.050   1.008   4.587
  604TIP3    H2 1758   2.962   1.022   4.710
  605TIP3   OH2 1759   2.203   3.772   0.051
  605TIP3    H1 1760   2.254   3.692   0.064
  605TIP3    H2 1761   2.113   3.746   0.068
  606TIP3   OH2 1762   6.479   7.378   1.424
  606TIP3    H1 1763   6.386   7.371   1.446
  606TIP3    H2 1764   6.525   7.346   1.502
  607TIP3   OH2 1765   7.259   0.248   3.113
  607TIP3    H1 1766   7.213   0.233   3.195
  607TIP3    H2 1767   7.214   0.323   3.074
  608TIP3   OH2 1768   6.600   4.511   0.746
  608TIP3    H1 1769   6.538   4.491   0.816
  608TIP3    H2 1770   6.547   4.508   0.666
  609TIP3   OH2 1771   2.013   6.723   3.568
  609TIP3    H1 1772   2.103   6.746   3.592
  609TIP3    H2 1773   2.017   6.629   3.550
  610TIP3   OH2 1774   2.175   7.155   2.869
  610TIP3    H1 1775   2.147   7.069   2.838
  610TIP3    H2 1776   2.130   7.217   2.812
  611TIP3   OH2 1777   0.410   2.043   1.835
  611TIP3    H1 1778   0.416   2.005   1.923
  611TIP3    H2 1779   0.345   1.989   1.790
  612TIP3   OH2 1780   1.946   7.523   5.708
  612TIP3    H1 1781   1.873   7.572   5.670
  612TIP3    H2 1782   2.006   7.509   5.635
  613TIP3   OH2 1783   7.929   7.352   2.659
  613TIP3    H1 1784   7.979   7.338   2.579
  613TIP3    H2 1785   7.875   7.429   2.641
  614TIP3   OH2 1786   1.184   3.914   2.187
  614TIP3    H1 1787   1.107   3.968   2.171
  614TIP3    H2 1788   1.195   3.864   2.106
  615TIP3   OH2 1789   2.078   5.883   5.637
  615TIP3    H1 1790   2.022   5.835   5.697
  615TIP3    H2 1791   2.166   5.877   5.676
  616TIP3   OH2 1792   8.313   0.518   1.613
  616TIP3    H1 1793   8.228   0.561   1.608
  616TIP3    H2 1794   8.336   0.499   1.522
  617TIP3   OH2 1795   6.274   2.519   5.941
  617TIP3    H1 1796   6.198   2.498   5.888
  617TIP3    H2 1797   6.267   2.461   6.017
  618TIP3   OH2 1798   7.007   2.260   1.484
  618TIP3    H1 1799   6.968   2.232   1.401
  618TIP3    H2 1800   7.099   2.275   1.463
  619TIP3   OH2 1801   6.314   3.631   0.415
  619TIP3    H1 1802   6.380   3.656   0.480
  619TIP3    H2 1803   6.240   3.689   0.432
  620TIP3   OH2 1804   6.255   5.084   3.982
  620TIP3    H1 1805   6.333   5.047   4.021
  620TIP3    H2 1806   6.183   5.029   4.014
  621TIP3   OH2 1807   4.570   6.994   3.477
  621TIP3    H1 1808   4.530   7.049   3.544
  621TIP3    H2 1809   4.546   7.035   3.394
  622TIP3   OH2 1810   8.136   7.194   1.690
  622TIP3    H1 1811   8.213   7.241   1.724
  622TIP3    H2 1812   8.109   7.244   1.613
  623TIP3   OH2 1813   6.570   6.000   6.236
  623TIP3    H1 1814   6.491   6.039   6.200
  623TIP3    H2 1815   6.551   5.906   6.239
  624TIP3   OH2 1816   7.211   5.661   1.233
  624TIP3    H1 1817   7.295   5.625   1.260
  624TIP3    H2 1818   7.232   5.718   1.159
  625TIP3   OH2 1819   5.778   6.155   3.163
  625TIP3    H1 1820   5.721   6.177   3.237
  625TIP3    H2 1821   5.755   6.218   3.096
  626TIP3   OH2 1822   3.312   3.267   2.976
  626TIP3    H1 1823   3.246   3.333   2.954
  626TIP3    H2 1824   3.395   3.313   2.966
  627TIP3   OH2 1825   4.813   7.411   3.468
  627TIP3    H1 1826   4.855   7.417   3.554
  627TIP3    H2 1827   4.723   7.386   3.487
  628TIP3   OH2 1828   5.048   2.473   0.582
  628TIP3    H1 1829   5.043   2.543   0.517
  628TIP3    H2 1830   5.136   2.436   0.570
  629TIP3   OH2 1831   2.231   7.835   2.231
  629TIP3    H1 1832   2.290   7.910   2.225
  629TIP3    H2 1833   2.276   7.774   2.289
  630TIP3   OH2 1834   4.215   0.937   2.863
  630TIP3    H1 1835   4.220   0.918   2.769
  630TIP3    H2 1836   4.289   0.996   2.879
  631TIP3   OH2 1837   1.000   0.262   2.292
  631TIP3    H1 1838   0.955   0.182   2.317
  631TIP3    H2 1839   0.978   0.274   2.199
  632TIP3   OH2 1840   3.213   0.510   3.371
  632TIP3    H1 1841   3.118   0.516   3.382
  632TIP3    H2 1842   3.249   0.559   3.445
  633TIP3   OH2 1843   3.196   7.459   4.773
  633TIP3    H1 1844   3.170   7.550   4.756
  633TIP3    H2 1845   3.292   7.460   4.769
  634TIP3   OH2 1846   0.784   3.232   4.567
  634TIP3    H1 1847   0.690   3.249   4.580
  634TIP3    H2 1848   0.807   3.174   4.639
  635TIP3   OH2 1849   6.160   6.499   2.680
  635TIP3    H1 1850   6.231   6.435   2.690
  635TIP3    H2 1851   6.083   6.447   2.660
  636TIP3   OH2 1852   7.967   1.700   6.534
  636TIP3    H1 1853   7.987   1.632   6.469
  636TIP3    H2 1854   7.988   1.659   6.618
  637TIP3   OH2 1855   7.654   4.914   0.981
  637TIP3    H1 1856   7.677   4.963   1.059
  637TIP3    H2 1857   7.560   4.900   0.988
  638TIP3   OH2 1858   3.756   5.355   4.746
  638TIP3    H1 1859   3.698   5.291   4.704
  638TIP3    H2 1860   3.725   5.440   4.715
  639TIP3   OH2 1861   6.074   1.229   1.745
  639TIP3    H1 1862   6.167   1.207   1.757
  639TIP3    H2 1863   6.070   1.324   1.755
  640TIP3   OH2 1864   8.304   0.550   1.942
  640TIP3    H1 1865   8.395   0.577   1.934
  640TIP3    H2 1866   8.256   0.608   1.883
  641TIP3   OH2 1867   5.459   2.482   3.702
  641TIP3    H1 1868   5.479   2.415   3.637
  641TIP3    H2 1869   5.363   2.482   3.707
  642TIP3   OH2 1870   1.414   5.169   3.178
  642TIP3    H1 1871   1.474   5.220   3.232
  642TIP3    H2 1872   1.400   5.088   3.227
  643TIP3   OH2 1873   0.589   4.230   3.859
  643TIP3    H1 1874   0.615   4.244   3.768
  643TIP3    H2 1875   0.622   4.306   3.907
  644TIP3   OH2 1876   2.115   4.105   5.863
  644TIP3    H1 1877   2.118   4.185   5.916
  644TIP3    H2 1878   2.042   4.055   5.898
  645TIP3   OH2 1879   6.216   7.029   4.120
  645TIP3    H1 1880   6.151   7.065   4.181
  645TIP3    H2 1881   6.228   6.939   4.150
  646TIP3   OH2 1882   0.012   0.908   0.967
  646TIP3    H1 1883   0.005   0.928   0.874
  646TIP3    H2 1884   0.074   0.835   0.972
  647TIP3   OH2 1885   8.204   0.771   1.798
  647TIP3    H1 1886   8.256   0.828   1.742
  647TIP3    H2 1887   8.113   0.794   1.779
  648TIP3   OH2 1888   7.406   5.965   6.594
  648TIP3    H1 1889   7.467   6.026   6.636
  648TIP3    H2 1890   7.370   5.913   6.666
  649TIP3   OH2 1891   6.872   4.960   4.131
  649TIP3    H1 1892   6.918   5.000   4.057
  649TIP3    H2 1893   6.878   4.866   4.114
  650TIP3   OH2 1894   7.690   4.235   6.490
  650TIP3    H1 1895   7.749   4.212   6.562
  650TIP3    H2 1896   7.697   4.161   6.430
  651TIP3   OH2 1897   5.806   4.358   6.210
  651TIP3    H1 1898   5.862   4.371   6.134
  651TIP3    H2 1899   5.775   4.268   6.202
  652TIP3   OH2 1900   5.035   7.106   3.691
  652TIP3    H1 1901   5.039   7.201   3.687
  652TIP3    H2 1902   5.053   7.077   3.602
  653TIP3   OH2 1903   0.508   0.448   5.667
  653TIP3    H1 1904   0.473   0.443   5.578
  653TIP3    H2 1905   0.597   0.414   5.659
  654TIP3   OH2 1906   6.802   6.981   3.980
  654TIP3    H1 1907   6.882   6.965   3.929
  654TIP3    H2 1908   6.818   7.066   4.021
  655TIP3   OH2 1909   7.316   0.895   2.311
  655TIP3    H1 1910   7.303   0.834   2.384
  655TIP3    H2 1911   7.291   0.846   2.233
  656TIP3   OH2 1912   3.455   7.542   6.605
  656TIP3    H1 1913   3.412   7.488   6.540
  656TIP3    H2 1914   3.449   7.492   6.686
  657TIP3   OH2 1915   0.489   7.296   2.760
  657TIP3    H1 1916   0.503   7.213   2.715
  657TIP3    H2 1917   0.426   7.342   2.705
  658TIP3   OH2 1918   0.577   4.797   6.679
  658TIP3    H1 1919   0.541   4.717   6.640
  658TIP3    H2 1920   0.639   4.766   6.744
  659TIP3   OH2 1921   7.467   4.376   1.012
  659TIP3    H1 1922   7.430   4.459   1.043
  659TIP3    H2 1923   7.485   4.392   0.919
  660TIP3   OH2 1924   4.193   3.099   0.183
  660TIP3    H1 1925   4.142   3.049   0.247
  660TIP3    H2 1926   4.209   3.039   0.111
  661TIP3   OH2 1927   4.306   2.082   3.436
  661TIP3    H1 1928   4.259   1.998   3.434
  661TIP3    H2 1929   4.249   2.142   3.388
  662TIP3   OH2 1930   0.501   3.912   4.621
  662TIP3    H1 1931   0.562   3.921   4.695
  662TIP3    H2 1932   0.441   3.843   4.647
  663TIP3   OH2 1933   0.383   2.751   1.870
  663TIP3    H1 1934   0.331   2.822   1.907
  663TIP3    H2 1935   0.412   2.701   1.947
  664TIP3   OH2 1936   1.226   4.558   4.033
  664TIP3    H1 1937   1.212   4.582   3.941
  664TIP3    H2 1938   1.144   4.581   4.076
  665TIP3   OH2 1939   0.991   6.177   6.517
  665TIP3    H1 1940   1.062   6.212   6.463
  665TIP3    H2 1941   0.962   6.251   6.571
  666TIP3   OH2 1942   3.553   6.798   5.761
  666TIP3    H1 1943   3.601   6.870   5.802
  666TIP3    H2 1944   3.517   6.748   5.834
  667TIP3   OH2 1945   8.279   2.070   0.467
  667TIP3    H1 1946   8.260   2.017   0.389
  667TIP3    H2 1947   8.344   2.020   0.515
  668TIP3   OH2 1948   5.061   7.462   0.469
  668TIP3    H1 1949   5.016   7.531   0.518
  668TIP3    H2 1950   5.139   7.442   0.521
  669TIP3   OH2 1951   4.122   0.923   2.151
  669TIP3    H1 1952   4.152   0.839   2.117
  669TIP3    H2 1953   4.050   0.901   2.211
  670TIP3   OH2 1954   3.463   1.869   4.687
  670TIP3    H1 1955   3.473   1.963   4.704
  670TIP3    H2 1956   3.496   1.858   4.598
  671TIP3   OH2 1957   6.892   3.913   6.148
  671TIP3    H1 1958   6.820   3.976   6.145
  671TIP3    H2 1959   6.916   3.901   6.056
  672TIP3   OH2 1960   4.184   2.423   3.097
  672TIP3    H1 1961   4.156   2.514   3.094
  672TIP3    H2 1962   4.126   2.377   3.036
  673TIP3   OH2 1963   5.794   5.339   1.074
  673TIP3    H1 1964   5.754   5.306   0.994
  673TIP3    H2 1965   5.720   5.371   1.126
  674TIP3   OH2 1966   5.136   0.430   1.663
  674TIP3    H1 1967   5.140   0.406   1.571
  674TIP3    H2 1968   5.047   0.463   1.675
  675TIP3   OH2 1969   7.472   2.811   0.774
  675TIP3    H1 1970   7.483   2.906   0.779
  675TIP3    H2 1971   7.517   2.778   0.852
  676TIP3   OH2 1972   1.021   0.956   3.441
  676TIP3    H1 1973   1.097   0.912   3.402
  676TIP3    H2 1974   1.056   1.005   3.514
  677TIP3   OH2 1975   5.701   6.215   2.775
  677TIP3    H1 1976   5.767   6.148   2.793
  677TIP3    H2 1977   5.651   6.181   2.700
  678TIP3   OH2 1978   5.611   5.361   2.626
  678TIP3    H1 1979   5.665   5.388   2.552
  678TIP3    H2 1980   5.622   5.431   2.690
  679TIP3   OH2 1981   3.948   2.472   1.642
  679TIP3    H1 1982   3.943   2.376   1.644
  679TIP3    H2 1983   4.041   2.491   1.629
  680TIP3   OH2 1984   5.518   4.705   1.120
  680TIP3    H1 1985   5.611   4.685   1.108
  680TIP3    H2 1986   5.484   4.713   1.031
  681TIP3   OH2 1987   2.320   4.170   1.219
  681TIP3    H1 1988   2.325   4.265   1.228
  681TIP3    H2 1989   2.365   4.151   1.137
  682TIP3   OH2 1990   5.928   1.216   2.055
  682TIP3    H1 1991   5.866   1.223   1.983
  682TIP3    H2 1992   5.878   1.241   2.133
  683TIP3   OH2 1993   3.813   5.323   2.695
  683TIP3    H1 1994   3.798   5.328   2.601
  683TIP3    H2 1995   3.808   5.230   2.715
  684TIP3   OH2 1996   2.542   7.496   6.532
  684TIP3    H1 1997   2.510   7.579   6.567
  684TIP3    H2 1998   2.636   7.497   6.550
  685TIP3   OH2 1999   3.689   4.594   3.882
  685TIP3    H1 2000   3.693   4.678   3.927
  685TIP3    H2 2001   3.737   4.608   3.800
  686TIP3   OH2 2002   0.591   0.191   5.872
  686TIP3    H1 2003   0.528   0.262   5.887
  686TIP3    H2 2004   0.672   0.222   5.912
  687TIP3   OH2 2005   4.921   6.587   3.943
  687TIP3    H1 2006   4.854   6.547   3.998
  687TIP3    H2 2007   4.898   6.560   3.854
  688TIP3   OH2 2008   4.009   6.530   1.944
  688TIP3    H1 2009   3.922   6.510   1.911
  688TIP3    H2 2010   3.996   6.607   2.000
  689TIP3   OH2 2011   4.732   4.460   0.399
  689TIP3    H1 2012   4.702   4.385   0.450
  689TIP3    H2 2013   4.717   4.435   0.308
  690TIP3   OH2 2014   5.019   7.685   6.517
  690TIP3    H1 2015   5.076   7.720   6.586
  690TIP3    H2 2016   4.930   7.698   6.550
  691TIP3   OH2 2017   1.185   2.403   6.599
  691TIP3    H1 2018   1.245   2.329   6.586
  691TIP3    H2 2019   1.161   2.430   6.510
  692TIP3   OH2 2020   5.719   4.086   3.072
  692TIP3    H1 2021   5.721   4.117   3.163
  692TIP3    H2 2022   5.741   3.993   3.078
  693TIP3   OH2 2023   5.717   2.496   6.438
  693TIP3    H1 2024   5.756   2.433   6.499
  693TIP3    H2 2025   5.767   2.576   6.451
  694TIP3   OH2 2026   7.215   6.839   6.723
  694TIP3    H1 2027   7.155   6.838   6.648
  694TIP3    H2 2028   7.268   6.918   6.709
  695TIP3   OH2 2029   7.353   1.995   6.210
  695TIP3    H1 2030   7.386   1.977   6.297
  695TIP3    H2 2031   7.429   1.987   6.153
  696TIP3   OH2 2032   3.285   5.954   5.058
  696TIP3    H1 2033   3.323   5.987   4.976
  696TIP3    H2 2034   3.285   5.859   5.048
  697TIP3   OH2 2035   1.685   5.947   3.366
  697TIP3    H1 2036   1.624   5.989   3.306
  697TIP3    H2 2037   1.721   5.873   3.317
  698TIP3   OH2 2038   0.544   4.862   3.952
  698TIP3    H1 2039   0.495   4.828   3.878
  698TIP3    H2 2040   0.617   4.910   3.913
  699TIP3   OH2 2041   7.957   6.722   0.545
  699TIP3    H1 2042   8.051   6.725   0.563
  699TIP3    H2 2043   7.947   6.772   0.464
  700TIP3   OH2 2044   5.518   1.664   2.320
  700TIP3    H1 2045   5.569   1.663   2.401
  700TIP3    H2 2046   5.525   1.575   2.286
  701TIP3   OH2 2047   0.250   7.121   6.473
  701TIP3    H1 2048   0.220   7.189   6.413
  701TIP3    H2 2049   0.258   7.043   6.419
  702TIP3   OH2 2050   2.540   4.778   5.798
  702TIP3    H1 2051   2.464   4.825   5.833
  702TIP3    H2 2052   2.615   4.823   5.836
  703TIP3   OH2 2053   6.376   2.310   3.117
  703TIP3    H1 2054   6.435   2.266   3.056
  703TIP3    H2 2055   6.288   2.290   3.084
  704TIP3   OH2 2056   1.738   3.074   0.019
  704TIP3    H1 2057   1.666   3.037   0.068
  704TIP3    H2 2058   1.807   3.088   0.084
  705TIP3   OH2 2059   7.650   4.107   5.360
  705TIP3    H1 2060   7.673   4.091   5.269
  705TIP3    H2 2061   7.694   4.038   5.409
  706TIP3   OH2 2062   3.886   0.730   2.929
  706TIP3    H1 2063   3.858   0.639   2.942
  706TIP3    H2 2064   3.965   0.738   2.983
  707TIP3   OH2 2065   5.157   3.729   6.056
  707TIP3    H1 2066   5.127   3.640   6.039
  707TIP3    H2 2067   5.252   3.724   6.053
  708TIP3   OH2 2068   7.483   3.572   5.495
  708TIP3    H1 2069   7.392   3.576   5.524
  708TIP3    H2 2070   7.486   3.498   5.435
  709TIP3   OH2 2071   7.135   5.413   1.600
  709TIP3    H1 2072   7.106   5.386   1.687
  709TIP3    H2 2073   7.227   5.388   1.597
  710TIP3   OH2 2074   6.384   5.738   2.590
  710TIP3    H1 2075   6.333   5.700   2.662
  710TIP3    H2 2076   6.334   5.814   2.563
  711TIP3   OH2 2077   8.356   7.657   4.561
  711TIP3    H1 2078   8.354   7.584   4.500
  711TIP3    H2 2079   8.344   7.735   4.506
  712TIP3   OH2 2080   0.235   2.088   4.637
  712TIP3    H1 2081   0.279   2.104   4.554
  712TIP3    H2 2082   0.186   2.169   4.655
  713TIP3   OH2 2083   6.577   3.066   2.713
  713TIP3    H1 2084   6.655   3.061   2.658
  713TIP3    H2 2085   6.573   3.157   2.741
  714TIP3   OH2 2086   7.780   7.630   3.191
  714TIP3    H1 2087   7.787   7.546   3.236
  714TIP3    H2 2088   7.820   7.693   3.251
  715TIP3   OH2 2089   5.315   2.562   0.154
  715TIP3    H1 2090   5.243   2.501   0.171
  715TIP3    H2 2091   5.330   2.556   0.060
  716TIP3   OH2 2092   1.208   1.293   1.398
  716TIP3    H1 2093   1.234   1.322   1.311
  716TIP3    H2 2094   1.116   1.317   1.405
  717TIP3   OH2 2095   6.068   0.595   2.383
  717TIP3    H1 2096   6.121   0.529   2.428
  717TIP3    H2 2097   6.044   0.554   2.300
  718TIP3   OH2 2098   2.409   5.823   3.360
  718TIP3    H1 2099   2.469   5.748   3.355
  718TIP3    H2 2100   2.444   5.877   3.431
  719TIP3   OH2 2101   5.036   2.779   3.911
  719TIP3    H1 2102   4.955   2.727   3.914
  719TIP3    H2 2103   5.043   2.807   3.820
  720TIP3   OH2 2104   1.467   3.521   5.330
  720TIP3    H1 2105   1.457   3.452   5.396
  720TIP3    H2 2106   1.416   3.490   5.255
  721TIP3   OH2 2107   6.075   6.776   0.962
  721TIP3    H1 2108   6.081   6.822   1.045
  721TIP3    H2 2109   6.113   6.690   0.979
  722TIP3   OH2 2110   0.489   2.066   3.524
  722TIP3    H1 2111   0.490   2.046   3.430
  722TIP3    H2 2112   0.518   2.157   3.530
  723TIP3   OH2 2113   5.254   5.218   0.728
  723TIP3    H1 2114   5.170   5.243   0.688
  723TIP3    H2 2115   5.238   5.131   0.763
  724TIP3   OH2 2116   8.011   3.797   4.001
  724TIP3    H1 2117   7.982   3.779   4.090
  724TIP3    H2 2118   7.947   3.860   3.967
  725TIP3   OH2 2119   5.471   0.992   1.222
  725TIP3    H1 2120   5.430   1.040   1.150
  725TIP3    H2 2121   5.454   1.046   1.299
  726TIP3   OH2 2122   7.614   6.279   1.448
  726TIP3    H1 2123   7.596   6.361   1.402
  726TIP3    H2 2124   7.549   6.218   1.414
  727TIP3   OH2 2125   8.259   4.133   3.155
  727TIP3    H1 2126   8.294   4.054   3.113
  727TIP3    H2 2127   8.332   4.194   3.156
  728TIP3   OH2 2128   1.845   7.307   1.426
  728TIP3    H1 2129   1.872   7.216   1.418
  728TIP3    H2 2130   1.903   7.343   1.493
  729TIP3   OH2 2131   4.395   3.570   6.192
  729TIP3    H1 2132   4.307   3.541   6.166
  729TIP3    H2 2133   4.454   3.518   6.138
  730TIP3   OH2 2134   2.147   5.901   1.536
  730TIP3    H1 2135   2.163   5.807   1.530
  730TIP3    H2 2136   2.108   5.913   1.623
  731TIP3   OH2 2137   0.058   7.334   3.387
  731TIP3    H1 2138   0.141   7.286   3.386
  731TIP3    H2 2139   0.067   7.397   3.315
  732TIP3   OH2 2140   6.201   0.492   4.152
  732TIP3    H1 2141   6.277   0.540   4.184
  732TIP3    H2 2142   6.177   0.433   4.223
  733TIP3   OH2 2143   5.742   4.676   4.999
  733TIP3    H1 2144   5.769   4.627   5.076
  733TIP3    H2 2145   5.721   4.609   4.934
  734TIP3   OH2 2146   6.384   5.983   4.403
  734TIP3    H1 2147   6.309   5.962   4.459
  734TIP3    H2 2148   6.352   5.972   4.314
  735TIP3   OH2 2149   0.802   3.584   5.574
  735TIP3    H1 2150   0.774   3.537   5.652
  735TIP3    H2 2151   0.754   3.667   5.577
  736TIP3   OH2 2152   1.080   5.693   0.176
  736TIP3    H1 2153   1.131   5.663   0.101
  736TIP3    H2 2154   1.072   5.788   0.163
  737TIP3   OH2 2155   4.026   0.482   2.941
  737TIP3    H1 2156   4.070   0.438   2.869
  737TIP3    H2 2157   4.073   0.453   3.019
  738TIP3   OH2 2158   8.010   2.756   5.211
  738TIP3    H1 2159   7.993   2.730   5.301
  738TIP3    H2 2160   8.098   2.723   5.192
  739TIP3   OH2 2161   1.886   7.105   0.051
  739TIP3    H1 2162   1.976   7.089   0.023
  739TIP3    H2 2163   1.860   7.024   0.095
  740TIP3   OH2 2164   2.971   3.113   6.657
  740TIP3    H1 2165   2.954   3.142   6.567
  740TIP3    H2 2166   2.884   3.098   6.694
  741TIP3   OH2 2167   7.674   2.698   4.579
  741TIP3    H1 2168   7.681   2.610   4.542
  741TIP3    H2 2169   7.760   2.715   4.617
  742TIP3   OH2 2170   1.569   4.699   0.007
  742TIP3    H1 2171   1.564   4.709  -0.088
  742TIP3    H2 2172   1.632   4.628   0.021
  743TIP3   OH2 2173   5.987   4.677   5.764
  743TIP3    H1 2174   5.956   4.595   5.725
  743TIP3    H2 2175   6.076   4.687   5.730
  744TIP3   OH2 2176   7.314   1.619   2.586
  744TIP3    H1 2177   7.323   1.656   2.674
  744TIP3    H2 2178   7.400   1.631   2.545
  745TIP3   OH2 2179   0.070   4.722   5.790
  745TIP3    H1 2180   0.032   4.766   5.714
  745TIP3    H2 2181   0.139   4.781   5.820
  746TIP3   OH2 2182   4.137   0.091   5.276
  746TIP3    H1 2183   4.043   0.111   5.276
  746TIP3    H2 2184   4.165   0.109   5.365
  747TIP3   OH2 2185   2.228   1.972   5.645
  747TIP3    H1 2186   2.305   1.999   5.595
  747TIP3    H2 2187   2.263   1.946   5.730
  748TIP3   OH2 2188   0.922   1.298   0.901
  748TIP3    H1 2189   0.865   1.240   0.851
  748TIP3    H2 2190   0.986   1.330   0.837
  749TIP3   OH2 2191   2.482   0.342   1.320
  749TIP3    H1 2192   2.552   0.322   1.258
  749TIP3    H2 2193   2.401   0.333   1.269
  750TIP3   OH2 2194   3.287   4.688   5.749
  750TIP3    H1 2195   3.277   4.666   5.657
  750TIP3    H2 2196   3.233   4.624   5.795
  751TIP3   OH2 2197   1.854   6.773   6.154
  751TIP3    H1 2198   1.790   6.821   6.102
  751TIP3    H2 2199   1.819   6.775   6.243
  752TIP3   OH2 2200   5.393   3.827   2.907
  752TIP3    H1 2201   5.338   3.903   2.885
  752TIP3    H2 2202   5.336   3.771   2.959
  753TIP3   OH2 2203   2.578   1.464   3.733
  753TIP3    H1 2204   2.526   1.543   3.715
  753TIP3    H2 2205   2.662   1.497   3.765
  754TIP3   OH2 2206   6.320   4.126   0.500
  754TIP3    H1 2207   6.410   4.132   0.531
  754TIP3    H2 2208   6.311   4.196   0.436
  755TIP3   OH2 2209   7.256   1.006   1.849
  755TIP3    H1 2210   7.275   0.919   1.885
  755TIP3    H2 2211   7.213   1.053   1.921
  756TIP3   OH2 2212   1.171   7.133   5.171
  756TIP3    H1 2213   1.082   7.159   5.195
  756TIP3    H2 2214   1.160   7.048   5.127
  757TIP3   OH2 2215   4.968   4.689   2.133
  757TIP3    H1 2216   4.928   4.603   2.147
  757TIP3    H2 2217   4.993   4.717   2.221
  758TIP3   OH2 2218   6.575   1.213   2.403
  758TIP3    H1 2219   6.625   1.231   2.324
  758TIP3    H2 2220   6.579   1.294   2.453
  759TIP3   OH2 2221   8.193   5.788   6.703
  759TIP3    H1 2222   8.133   5.750   6.767
  759TIP3    H2 2223   8.225   5.868   6.746
  760TIP3   OH2 2224   7.647   6.337   6.095
  760TIP3    H1 2225   7.627   6.403   6.028
  760TIP3    H2 2226   7.600   6.259   6.068
  761TIP3   OH2 2227   4.217   0.070   4.085
  761TIP3    H1 2228   4.238   0.091   3.995
  761TIP3    H2 2229   4.140   0.013   4.079
  762TIP3   OH2 2230   6.944   3.611   2.428
  762TIP3    H1 2231   6.906   3.641   2.345
  762TIP3    H2 2232   7.026   3.661   2.436
  763TIP3   OH2 2233   0.610   0.418   3.619
  763TIP3    H1 2234   0.633   0.507   3.595
  763TIP3    H2 2235   0.515   0.413   3.605
  764TIP3   OH2 2236   0.483   4.100   1.733
  764TIP3    H1 2237   0.452   4.071   1.818
  764TIP3    H2 2238   0.481   4.196   1.738
  765TIP3   OH2 2239   0.799   1.647   4.668
  765TIP3    H1 2240   0.883   1.691   4.654
  765TIP3    H2 2241   0.822   1.555   4.676
  766TIP3   OH2 2242   1.063   3.869   6.069
  766TIP3    H1 2243   1.043   3.960   6.091
  766TIP3    H2 2244   1.122   3.840   6.138
  767TIP3   OH2 2245   8.037   7.377   6.386
  767TIP3    H1 2246   8.064   7.468   6.401
  767TIP3    H2 2247   8.111   7.324   6.416
  768TIP3   OH2 2248   0.354   4.712   2.684
  768TIP3    H1 2249   0.275   4.658   2.684
  768TIP3    H2 2250   0.426   4.648   2.688
  769TIP3   OH2 2251   4.506   5.877   0.864
  769TIP3    H1 2252   4.538   5.796   0.823
  769TIP3    H2 2253   4.527   5.946   0.801
  770TIP3   OH2 2254   4.988   1.724   3.691
  770TIP3    H1 2255   5.029   1.800   3.651
  770TIP3    H2 2256   5.060   1.665   3.711
  771TIP3   OH2 2257   7.923   7.559   0.782
  771TIP3    H1 2258   7.936   7.464   0.783
  771TIP3    H2 2259   8.009   7.595   0.762
  772TIP3   OH2 2260   1.266   2.455   5.190
  772TIP3    H1 2261   1.242   2.372   5.232
  772TIP3    H2 2262   1.320   2.499   5.255
  773TIP3   OH2 2263   2.500   6.226   6.253
  773TIP3    H1 2264   2.427   6.164   6.261
  773TIP3    H2 2265   2.555   6.208   6.330
  774TIP3   OH2 2266   2.815   6.724   1.438
  774TIP3    H1 2267   2.746   6.702   1.500
  774TIP3    H2 2268   2.785   6.805   1.397
  775TIP3   OH2 2269   4.663   7.397   5.506
  775TIP3    H1 2270   4.610   7.328   5.466
  775TIP3    H2 2271   4.631   7.478   5.465
  776TIP3   OH2 2272   7.988   4.038   6.729
  776TIP3    H1 2273   8.053   3.997   6.786
  776TIP3    H2 2274   7.913   3.979   6.732
  777TIP3   OH2 2275   3.286   0.352   4.487
  777TIP3    H1 2276   3.266   0.421   4.424
  777TIP3    H2 2277   3.365   0.309   4.453
  778TIP3   OH2 2278   8.141   0.748   6.117
  778TIP3    H1 2279   8.163   0.837   6.090
  778TIP3    H2 2280   8.062   0.727   6.068
  779TIP3   OH2 2281   6.768   3.090   6.725
  779TIP3    H1 2282   6.720   3.162   6.684
  779TIP3    H2 2283   6.757   3.105   6.819
  780TIP3   OH2 2284   4.623   0.478   1.926
  780TIP3    H1 2285   4.591   0.487   1.836
  780TIP3    H2 2286   4.684   0.550   1.937
  781TIP3   OH2 2287   5.015   7.390   4.646
  781TIP3    H1 2288   4.968   7.447   4.706
  781TIP3    H2 2289   5.024   7.307   4.693
  782TIP3   OH2 2290   8.194   7.278   1.012
  782TIP3    H1 2291   8.139   7.271   0.933
  782TIP3    H2 2292   8.277   7.313   0.980
  783TIP3   OH2 2293   1.925   1.210   2.417
  783TIP3    H1 2294   1.941   1.264   2.340
  783TIP3    H2 2295   2.011   1.180   2.444
  784TIP3   OH2 2296   5.019   4.123   3.769
  784TIP3    H1 2297   5.087   4.121   3.701
  784TIP3    H2 2298   5.027   4.210   3.809
  785TIP3   OH2 2299   0.627   2.967   2.404
  785TIP3    H1 2300   0.604   2.990   2.494
  785TIP3    H2 2301   0.713   3.007   2.390
  786TIP3   OH2 2302   6.771   1.781   1.744
  786TIP3    H1 2303   6.790   1.813   1.656
  786TIP3    H2 2304   6.702   1.716   1.732
  787TIP3   OH2 2305   7.022   4.413   2.400
  787TIP3    H1 2306   7.014   4.326   2.438
  787TIP3    H2 2307   7.039   4.471   2.474
  788TIP3   OH2 2308   4.739   2.650   3.610
  788TIP3    H1 2309   4.831   2.673   3.600
  788TIP3    H2 2310   4.705   2.648   3.521
  789TIP3   OH2 2311   6.421   1.017   2.042
  789TIP3    H1 2312   6.388   0.934   2.008
  789TIP3    H2 2313   6.365   1.083   2.001
  790TIP3   OH2 2314   5.150   5.663   4.700
  790TIP3    H1 2315   5.177   5.724   4.769
  790TIP3    H2 2316   5.168   5.577   4.736
  791TIP3   OH2 2317   1.886   7.600   1.120
  791TIP3    H1 2318   1.837   7.681   1.111
  791TIP3    H2 2319   1.935   7.593   1.038
  792TIP3   OH2 2320   4.109   1.963   5.786
  792TIP3    H1 2321   4.157   1.941   5.866
  792TIP3    H2 2322   4.172   2.013   5.734
  793TIP3   OH2 2323   5.505   0.720   2.009
  793TIP3    H1 2324   5.562   0.665   2.063
  793TIP3    H2 2325   5.418   0.706   2.045
  794TIP3   OH2 2326   8.183   6.416   6.654
  794TIP3    H1 2327   8.180   6.336   6.602
  794TIP3    H2 2328   8.250   6.470   6.611
  795TIP3   OH2 2329   5.574   4.548   4.298
  795TIP3    H1 2330   5.661   4.510   4.294
  795TIP3    H2 2331   5.529   4.500   4.368
  796TIP3   OH2 2332   2.440   2.841   2.563
  796TIP3    H1 2333   2.472   2.777   2.627
  796TIP3    H2 2334   2.430   2.791   2.482
  797TIP3   OH2 2335   3.617   4.065   3.936
  797TIP3    H1 2336   3.700   4.087   3.978
  797TIP3    H2 2337   3.630   3.977   3.901
  798TIP3   OH2 2338   2.127   1.753   6.463
  798TIP3    H1 2339   2.175   1.833   6.441
  798TIP3    H2 2340   2.146   1.693   6.391
  799TIP3   OH2 2341   4.295   4.718   2.098
  799TIP3    H1 2342   4.281   4.667   2.177
  799TIP3    H2 2343   4.254   4.803   2.116
  800TIP3   OH2 2344   4.932   4.899   6.273
  800TIP3    H1 2345   4.968   4.928   6.357
  800TIP3    H2 2346   5.008   4.885   6.217
  801TIP3   OH2 2347   7.919   7.311   0.445
  801TIP3    H1 2348   8.011   7.289   0.463
  801TIP3    H2 2349   7.919   7.343   0.354
  802TIP3   OH2 2350   5.505   3.998   6.052
  802TIP3    H1 2351   5.561   3.992   5.975
  802TIP3    H2 2352   5.420   4.027   6.018
  803TIP3   OH2 2353   1.585   4.535   0.584
  803TIP3    H1 2354   1.518   4.603   0.588
  803TIP3    H2 2355   1.658   4.576   0.539
  804TIP3   OH2 2356   1.098   7.489   0.650
  804TIP3    H1 2357   1.020   7.501   0.597
  804TIP3    H2 2358   1.139   7.575   0.653
  805TIP3   OH2 2359   1.938   3.894   0.263
  805TIP3    H1 2360   2.019   3.867   0.306
  805TIP3    H2 2361   1.962   3.971   0.212
  806TIP3   OH2 2362   4.685   1.321   4.635
  806TIP3    H1 2363   4.597   1.320   4.675
  806TIP3    H2 2364   4.739   1.270   4.695
  807TIP3   OH2 2365   4.130   4.899   2.642
  807TIP3    H1 2366   4.120   4.855   2.557
  807TIP3    H2 2367   4.145   4.828   2.704
  808TIP3   OH2 2368   7.642   4.175   1.029
  808TIP3    H1 2369   7.630   4.153   0.937
  808TIP3    H2 2370   7.595   4.257   1.041
  809TIP3   OH2 2371   3.532   5.921   3.261
  809TIP3    H1 2372   3.446   5.963   3.257
  809TIP3    H2 2373   3.590   5.981   3.215
  810TIP3   OH2 2374   6.014   5.346   3.106
  810TIP3    H1 2375   5.987   5.436   3.121
  810TIP3    H2 2376   5.932   5.299   3.090
  811TIP3   OH2 2377   6.704   0.551   3.260
  811TIP3    H1 2378   6.643   0.584   3.326
  811TIP3    H2 2379   6.718   0.625   3.201
  812TIP3   OH2 2380   5.341   1.656   0.873
  812TIP3    H1 2381   5.283   1.705   0.815
  812TIP3    H2 2382   5.282   1.606   0.930
  813TIP3   OH2 2383   1.377   3.847   2.846
  813TIP3    H1 2384   1.360   3.884   2.759
  813TIP3    H2 2385   1.316   3.893   2.904
  814TIP3   OH2 2386   4.513   5.187   0.073
  814TIP3    H1 2387   4.586   5.239   0.105
  814TIP3    H2 2388   4.436   5.227   0.113
  815TIP3   OH2 2389   1.279   1.278   6.510
  815TIP3    H1 2390   1.332   1.245   6.582
  815TIP3    H2 2391   1.267   1.371   6.530
  816TIP3   OH2 2392   5.361   4.229   3.499
  816TIP3    H1 2393   5.407   4.174   3.562
  816TIP3    H2 2394   5.273   4.193   3.494
  817TIP3   OH2 2395   2.819   5.484   6.215
  817TIP3    H1 2396   2.781   5.419   6.157
  817TIP3    H2 2397   2.755   5.491   6.287
  818TIP3   OH2 2398   6.317   4.612   1.980
  818TIP3    H1 2399   6.283   4.523   1.993
  818TIP3    H2 2400   6.239   4.667   1.975
  819TIP3   OH2 2401   5.657   4.552   0.010
  819TIP3    H1 2402   5.611   4.622   0.056
  819TIP3    H2 2403   5.591   4.485  -0.004
  820TIP3   OH2 2404   7.499   6.638   4.957
  820TIP3    H1 2405   7.470   6.690   5.031
  820TIP3    H2 2406   7.565   6.691   4.914
  821TIP3   OH2 2407   3.817   0.141   1.221
  821TIP3    H1 2408   3.802   0.071   1.157
  821TIP3    H2 2409   3.905   0.173   1.202
  822TIP3   OH2 2410   0.917   0.337   1.307
  822TIP3    H1 2411   0.839   0.386   1.335
  822TIP3    H2 2412   0.911   0.255   1.355
  823TIP3   OH2 2413   1.568   1.490   4.713
  823TIP3    H1 2414   1.646   1.461   4.759
  823TIP3    H2 2415   1.503   1.421   4.728
  824TIP3   OH2 2416   0.630   7.680   3.348
  824TIP3    H1 2417   0.656   7.626   3.273
  824TIP3    H2 2418   0.706   7.734   3.366
  825TIP3   OH2 2419   6.276   1.667   4.813
  825TIP3    H1 2420   6.309   1.757   4.820
  825TIP3    H2 2421   6.349   1.618   4.775
  826TIP3   OH2 2422   6.730   1.725   1.457
  826TIP3    H1 2423   6.673   1.656   1.492
  826TIP3    H2 2424   6.808   1.678   1.427
  827TIP3   OH2 2425   3.523   7.586   3.088
  827TIP3    H1 2426   3.595   7.522   3.093
  827TIP3    H2 2427   3.560   7.666   3.124
  828TIP3   OH2 2428   2.314   5.055   0.439
  828TIP3    H1 2429   2.345   5.145   0.430
  828TIP3    H2 2430   2.389   5.001   0.416
  829TIP3   OH2 2431   4.872   3.429   4.630
  829TIP3    H1 2432   4.933   3.362   4.662
  829TIP3    H2 2433   4.888   3.433   4.536
  830TIP3   OH2 2434   5.349   0.863   0.870
  830TIP3    H1 2435   5.345   0.957   0.890
  830TIP3    H2 2436   5.420   0.830   0.925
  831TIP3   OH2 2437   5.795   7.193   5.444
  831TIP3    H1 2438   5.870   7.243   5.410
  831TIP3    H2 2439   5.794   7.113   5.391
  832TIP3   OH2 2440   1.557   1.535   2.907
  832TIP3    H1 2441   1.504   1.615   2.900
  832TIP3    H2 2442   1.603   1.529   2.824
  833TIP3   OH2 2443   2.814   3.710   1.304
  833TIP3    H1 2444   2.788   3.782   1.246
  833TIP3    H2 2445   2.789   3.631   1.257
  834TIP3   OH2 2446   4.056   3.582   3.251
  834TIP3    H1 2447   4.065   3.511   3.316
  834TIP3    H2 2448   3.962   3.594   3.242
  835TIP3   OH2 2449   5.078   7.671   4.323
  835TIP3    H1 2450   5.092   7.698   4.232
  835TIP3    H2 2451   5.026   7.591   4.317
  836TIP3   OH2 2452   0.417   1.325   3.578
  836TIP3    H1 2453   0.436   1.402   3.632
  836TIP3    H2 2454   0.339   1.349   3.530
  837TIP3   OH2 2455   1.392   2.128   0.099
  837TIP3    H1 2456   1.385   2.033   0.105
  837TIP3    H2 2457   1.424   2.156   0.185
  838TIP3   OH2 2458   7.826   0.285   0.475
  838TIP3    H1 2459   7.871   0.370   0.475
  838TIP3    H2 2460   7.790   0.278   0.564
  839TIP3   OH2 2461   7.460   7.446   6.427
  839TIP3    H1 2462   7.410   7.516   6.384
  839TIP3    H2 2463   7.418   7.365   6.397
  840TIP3   OH2 2464   6.921   1.730   4.755
  840TIP3    H1 2465   6.870   1.708   4.833
  840TIP3    H2 2466   6.863   1.712   4.682
  841TIP3   OH2 2467   6.596   1.864   4.125
  841TIP3    H1 2468   6.501   1.861   4.114
  841TIP3    H2 2469   6.616   1.785   4.175
  842TIP3   OH2 2470   4.254   5.010   0.679
  842TIP3    H1 2471   4.170   4.965   0.686
  842TIP3    H2 2472   4.238   5.083   0.620
  843TIP3   OH2 2473   1.819   0.989   1.964
  843TIP3    H1 2474   1.802   1.043   2.041
  843TIP3    H2 2475   1.773   1.033   1.893
  844TIP3   OH2 2476   0.630   5.703   3.685
  844TIP3    H1 2477   0.586   5.668   3.608
  844TIP3    H2 2478   0.723   5.703   3.662
  845TIP3   OH2 2479   4.914   1.537   0.691
  845TIP3    H1 2480   4.928   1.627   0.661
  845TIP3    H2 2481   4.819   1.528   0.696
  846TIP3   OH2 2482   0.940   6.004   3.520
  846TIP3    H1 2483   1.001   6.077   3.531
  846TIP3    H2 2484   0.944   5.983   3.427
  847TIP3   OH2 2485   0.549   4.536   2.423
  847TIP3    H1 2486   0.587   4.612   2.466
  847TIP3    H2 2487   0.596   4.529   2.340
  848TIP3   OH2 2488   4.512  -0.028   4.979
  848TIP3    H1 2489   4.462  -0.103   4.948
  848TIP3    H2 2490   4.450   0.021   5.033
  849TIP3   OH2 2491   1.127   1.097   4.172
  849TIP3    H1 2492   1.180   1.172   4.144
  849TIP3    H2 2493   1.098   1.122   4.260
  850TIP3   OH2 2494   3.753   5.987   1.890
  850TIP3    H1 2495   3.679   6.048   1.897
  850TIP3    H2 2496   3.751   5.937   1.971
  851TIP3   OH2 2497   7.477   3.683   1.625
  851TIP3    H1 2498   7.413   3.720   1.686
  851TIP3    H2 2499   7.465   3.588   1.633
  852TIP3   OH2 2500   2.795   6.612   0.520
  852TIP3    H1 2501   2.782   6.525   0.558
  852TIP3    H2 2502   2.822   6.596   0.430
  853TIP3   OH2 2503   0.173   4.068   1.989
  853TIP3    H1 2504   0.137   4.148   1.951
  853TIP3    H2 2505   0.195   4.093   2.079
  854TIP3   OH2 2506   2.304   0.920   6.139
  854TIP3    H1 2507   2.289   1.014   6.146
  854TIP3    H2 2508   2.326   0.905   6.048
  855TIP3   OH2 2509   0.207   3.410   5.306
  855TIP3    H1 2510   0.227   3.347   5.236
  855TIP3    H2 2511   0.273   3.479   5.296
  856TIP3   OH2 2512   7.684   4.947   3.816
  856TIP3    H1 2513   7.754   4.981   3.759
  856TIP3    H2 2514   7.731   4.903   3.887
  857TIP3   OH2 2515   1.010   1.686   3.655
  857TIP3    H1 2516   0.915   1.698   3.648
  857TIP3    H2 2517   1.026   1.600   3.615
  858TIP3   OH2 2518   7.301   2.526   0.375
  858TIP3    H1 2519   7.224   2.477   0.401
  858TIP3    H2 2520   7.352   2.535   0.455
  859TIP3   OH2 2521   0.519   0.926   2.969
  859TIP3    H1 2522   0.577   0.947   2.895
  859TIP3    H2 2523   0.444   0.985   2.957
  860TIP3   OH2 2524   5.531   6.229   3.704
  860TIP3    H1 2525   5.526   6.221   3.800
  860TIP3    H2 2526   5.624   6.238   3.686
  861TIP3   OH2 2527   4.159   1.613   1.088
  861TIP3    H1 2528   4.217   1.574   1.153
  861TIP3    H2 2529   4.189   1.578   1.004
  862TIP3   OH2 2530   5.773   2.661   0.077
  862TIP3    H1 2531   5.837   2.645   0.008
  862TIP3    H2 2532   5.702   2.708   0.034
  863TIP3   OH2 2533   0.084   6.558   6.493
  863TIP3    H1 2534   0.004   6.597   6.458
  863TIP3    H2 2535   0.139   6.634   6.515
  864TIP3   OH2 2536   5.407   3.793   0.241
  864TIP3    H1 2537   5.448   3.731   0.301
  864TIP3    H2 2538   5.329   3.824   0.287
  865TIP3   OH2 2539   4.565   0.907   5.072
  865TIP3    H1 2540   4.660   0.909   5.085
  865TIP3    H2 2541   4.538   0.998   5.080
  866TIP3   OH2 2542   4.970   6.845   4.744
  866TIP3    H1 2543   4.895   6.805   4.700
  866TIP3    H2 2544   5.046   6.814   4.695
  867TIP3   OH2 2545   7.389   1.650   1.920
  867TIP3    H1 2546   7.464   1.678   1.868
  867TIP3    H2 2547   7.413   1.564   1.955
  868TIP3   OH2 2548   2.670   4.153   0.141
  868TIP3    H1 2549   2.683   4.070   0.095
  868TIP3    H2 2550   2.575   4.162   0.149
  869TIP3   OH2 2551   0.423   0.810   5.247
  869TIP3    H1 2552   0.374   0.803   5.165
  869TIP3    H2 2553   0.363   0.775   5.313
  870TIP3   OH2 2554   7.836   0.136   1.949
  870TIP3    H1 2555   7.756   0.134   2.002
  870TIP3    H2 2556   7.863   0.045   1.943
  871TIP3   OH2 2557   1.410   7.830   4.525
  871TIP3    H1 2558   1.385   7.745   4.489
  871TIP3    H2 2559   1.484   7.812   4.583
  872TIP3   OH2 2560   3.623   1.028   5.204
  872TIP3    H1 2561   3.612   0.990   5.291
  872TIP3    H2 2562   3.564   0.976   5.148
  873TIP3   OH2 2563   7.521   2.908   1.588
  873TIP3    H1 2564   7.553   2.995   1.566
  873TIP3    H2 2565   7.496   2.914   1.680
  874TIP3   OH2 2566   3.098   5.508   6.311
  874TIP3    H1 2567   3.018   5.468   6.277
  874TIP3    H2 2568   3.089   5.600   6.288
  875TIP3   OH2 2569   4.289   4.608   2.340
  875TIP3    H1 2570   4.368   4.650   2.373
  875TIP3    H2 2571   4.244   4.576   2.418
  876TIP3   OH2 2572   3.873   7.378   2.676
  876TIP3    H1 2573   3.806   7.440   2.645
  876TIP3    H2 2574   3.907   7.417   2.756
  877TIP3   OH2 2575   1.311   1.843   5.162
  877TIP3    H1 2576   1.308   1.938   5.157
  877TIP3    H2 2577   1.275   1.822   5.248
  878TIP3   OH2 2578   5.557   1.516   5.024
  878TIP3    H1 2579   5.621   1.567   5.073
  878TIP3    H2 2580   5.472   1.542   5.060
  879TIP3   OH2 2581   0.832   4.518   4.956
  879TIP3    H1 2582   0.905   4.580   4.962
  879TIP3    H2 2583   0.875   4.433   4.939
  880TIP3   OH2 2584   3.990   5.086   1.711
  880TIP3    H1 2585   3.960   5.004   1.673
  880TIP3    H2 2586   4.001   5.145   1.636
  881TIP3   OH2 2587   3.923   0.591   1.949
  881TIP3    H1 2588   3.989   0.522   1.944
  881TIP3    H2 2589   3.949   0.653   1.881
  882TIP3   OH2 2590   7.417   1.483   3.622
  882TIP3    H1 2591   7.349   1.499   3.687
  882TIP3    H2 2592   7.487   1.438   3.669
  883TIP3   OH2 2593   6.807   7.140   4.209
  883TIP3    H1 2594   6.811   7.235   4.219
  883TIP3    H2 2595   6.843   7.105   4.290
  884TIP3   OH2 2596   5.926   5.677   5.402
  884TIP3    H1 2597   5.850   5.726   5.370
  884TIP3    H2 2598   5.981   5.742   5.444
  885TIP3   OH2 2599   5.113   7.383   0.782
  885TIP3    H1 2600   5.139   7.293   0.797
  885TIP3    H2 2601   5.180   7.418   0.723
  886TIP3   OH2 2602   5.013   6.767   5.542
  886TIP3    H1 2603   5.046   6.698   5.599
  886TIP3    H2 2604   4.943   6.725   5.491
  887TIP3   OH2 2605   3.400   7.253   4.472
  887TIP3    H1 2606   3.379   7.335   4.426
  887TIP3    H2 2607   3.468   7.277   4.534
  888TIP3   OH2 2608   5.967   0.591   3.192
  888TIP3    H1 2609   6.017   0.648   3.250
  888TIP3    H2 2610   5.888   0.569   3.241
  889TIP3   OH2 2611   5.140   2.026   3.895
  889TIP3    H1 2612   5.209   1.965   3.920
  889TIP3    H2 2613   5.153   2.102   3.952
  890TIP3   OH2 2614   7.065   2.866   0.086
  890TIP3    H1 2615   7.079   2.904   0.173
  890TIP3    H2 2616   7.127   2.793   0.081
  891TIP3   OH2 2617   4.223   2.891   6.670
  891TIP3    H1 2618   4.290   2.832   6.704
  891TIP3    H2 2619   4.179   2.925   6.748
  892TIP3   OH2 2620   6.430   7.648   6.141
  892TIP3    H1 2621   6.343   7.686   6.131
  892TIP3    H2 2622   6.478   7.711   6.195
  893TIP3   OH2 2623   2.178   3.707   1.995
  893TIP3    H1 2624   2.100   3.755   1.968
  893TIP3    H2 2625   2.233   3.773   2.036
  894TIP3   OH2 2626   2.773   2.198   1.208
  894TIP3    H1 2627   2.681   2.174   1.213
  894TIP3    H2 2628   2.785   2.264   1.277
  895TIP3   OH2 2629   7.540   1.867   3.181
  895TIP3    H1 2630   7.572   1.942   3.230
  895TIP3    H2 2631   7.611   1.846   3.120
  896TIP3   OH2 2632   4.067   7.316   6.171
  896TIP3    H1 2633   4.076   7.402   6.130
  896TIP3    H2 2634   4.051   7.256   6.098
  897TIP3   OH2 2635   2.701   7.633   0.325
  897TIP3    H1 2636   2.743   7.676   0.400
  897TIP3    H2 2637   2.767   7.572   0.292
  898TIP3   OH2 2638   4.953   5.384   2.325
  898TIP3    H1 2639   4.991   5.351   2.407
  898TIP3    H2 2640   4.973   5.317   2.260
  899TIP3   OH2 2641   3.467   3.919   0.776
  899TIP3    H1 2642   3.528   3.890   0.844
  899TIP3    H2 2643   3.509   3.894   0.694
  900TIP3   OH2 2644   0.565   3.871   1.604
  900TIP3    H1 2645   0.597   3.825   1.682
  900TIP3    H2 2646   0.537   3.956   1.637
  901TIP3   OH2 2647   0.436   4.898   6.369
  901TIP3    H1 2648   0.433   4.934   6.281
  901TIP3    H2 2649   0.351   4.921   6.407
  902TIP3   OH2 2650   3.112   3.091   1.075
  902TIP3    H1 2651   3.077   3.141   1.149
  902TIP3    H2 2652   3.118   3.001   1.108
  903TIP3   OH2 2653   1.232   5.908   3.723
  903TIP3    H1 2654   1.232   5.963   3.801
  903TIP3    H2 2655   1.140   5.897   3.701
  904TIP3   OH2 2656   7.703   4.434   3.485
  904TIP3    H1 2657   7.628   4.478   3.444
  904TIP3    H2 2658   7.689   4.446   3.579
  905TIP3   OH2 2659   0.576   7.042   3.412
  905TIP3    H1 2660   0.615   6.984   3.347
  905TIP3    H2 2661   0.515   7.097   3.363
  906TIP3   OH2 2662   2.574   4.873   5.486
  906TIP3    H1 2663   2.569   4.860   5.581
  906TIP3    H2 2664   2.546   4.789   5.449
  907TIP3   OH2 2665   0.918   1.597   1.620
  907TIP3    H1 2666   0.900   1.628   1.709
  907TIP3    H2 2667   0.872   1.659   1.563
  908TIP3   OH2 2668   1.808   3.322   5.975
  908TIP3    H1 2669   1.895   3.361   5.986
  908TIP3    H2 2670   1.818   3.232   6.007
  909TIP3   OH2 2671   2.511   3.552   0.893
  909TIP3    H1 2672   2.586   3.611   0.887
  909TIP3    H2 2673   2.494   3.545   0.987
  910TIP3   OH2 2674   4.061   1.555   2.781
  910TIP3    H1 2675   3.967   1.554   2.801
  910TIP3    H2 2676   4.103   1.564   2.867
  911TIP3   OH2 2677   4.283   7.407   3.026
  911TIP3    H1 2678   4.270   7.491   3.069
  911TIP3    H2 2679   4.209   7.354   3.055
  912TIP3   OH2 2680   5.965   2.513   5.542
  912TIP3    H1 2681   5.949   2.570   5.468
  912TIP3    H2 2682   6.034   2.454   5.513
  913TIP3   OH2 2683   6.324   7.657   3.724
  913TIP3    H1 2684   6.326   7.572   3.679
  913TIP3    H2 2685   6.235   7.662   3.760
  914TIP3   OH2 2686   0.157   6.416   3.087
  914TIP3    H1 2687   0.221   6.421   3.016
  914TIP3    H2 2688   0.198   6.357   3.151
  915TIP3   OH2 2689   1.930   0.370   1.621
  915TIP3    H1 2690   1.933   0.430   1.696
  915TIP3    H2 2691   1.955   0.425   1.547
  916TIP3   OH2 2692   4.728   3.050   6.622
  916TIP3    H1 2693   4.812   3.014   6.593
  916TIP3    H2 2694   4.672   2.974   6.636
  917TIP3   OH2 2695   0.209   0.267   2.386
  917TIP3    H1 2696   0.172   0.263   2.297
  917TIP3    H2 2697   0.267   0.343   2.384
  918TIP3   OH2 2698   0.837   4.255   6.691
  918TIP3    H1 2699   0.803   4.344   6.690
  918TIP3    H2 2700   0.919   4.261   6.741
  919TIP3   OH2 2701   7.231   3.375   2.646
  919TIP3    H1 2702   7.287   3.448   2.672
  919TIP3    H2 2703   7.196   3.341   2.728
  920TIP3   OH2 2704   0.016   2.347   5.227
  920TIP3    H1 2705   0.087   2.290   5.255
  920TIP3    H2 2706   0.042   2.380   5.142
  921TIP3   OH2 2707   4.959   3.049   0.728
  921TIP3    H1 2708   4.873   3.011   0.744
  921TIP3    H2 2709   4.971   3.113   0.798
  922TIP3   OH2 2710   6.348   2.289   4.457
  922TIP3    H1 2711   6.387   2.376   4.471
  922TIP3    H2 2712   6.423   2.231   4.444
  923TIP3   OH2 2713   4.064   3.974   4.199
  923TIP3    H1 2714   4.125   4.048   4.197
  923TIP3    H2 2715   4.096   3.919   4.270
  924TIP3   OH2 2716   6.856   4.159   1.734
  924TIP3    H1 2717   6.851   4.235   1.791
  924TIP3    H2 2718   6.783   4.169   1.674
  925TIP3   OH2 2719   5.714   3.956   2.176
  925TIP3    H1 2720   5.661   3.890   2.129
  925TIP3    H2 2721   5.803   3.940   2.147
  926TIP3   OH2 2722   4.029   1.089   5.575
  926TIP3    H1 2723   3.998   1.164   5.625
  926TIP3    H2 2724   4.013   1.112   5.484
  927TIP3   OH2 2725   5.613   5.847   1.912
  927TIP3    H1 2726   5.591   5.939   1.898
  927TIP3    H2 2727   5.672   5.848   1.987
  928TIP3   OH2 2728   5.294   0.102   4.461
  928TIP3    H1 2729   5.237   0.177   4.475
  928TIP3    H2 2730   5.280   0.047   4.538
  929TIP3   OH2 2731   3.355   3.656   2.899
  929TIP3    H1 2732   3.348   3.659   2.994
  929TIP3    H2 2733   3.450   3.651   2.882
  930TIP3   OH2 2734   2.351   4.496   2.429
  930TIP3    H1 2735   2.433   4.545   2.441
  930TIP3    H2 2736   2.288   4.542   2.484
  931TIP3   OH2 2737   7.849   4.784   6.348
  931TIP3    H1 2738   7.892   4.867   6.365
  931TIP3    H2 2739   7.757   4.799   6.372
  932TIP3   OH2 2740   0.248   6.609   1.969
  932TIP3    H1 2741   0.282   6.623   1.881
  932TIP3    H2 2742   0.170   6.664   1.974
  933TIP3   OH2 2743   6.418   6.499   0.720
  933TIP3    H1 2744   6.385   6.546   0.796
  933TIP3    H2 2745   6.345   6.502   0.657
  934TIP3   OH2 2746   7.655   0.678   2.624
  934TIP3    H1 2747   7.575   0.704   2.669
  934TIP3    H2 2748   7.677   0.752   2.568
  935TIP3   OH2 2749   6.056   2.003   0.046
  935TIP3    H1 2750   5.980   1.957   0.082
  935TIP3    H2 2751   6.120   1.933   0.031
  936TIP3   OH2 2752   4.020   0.134   2.529
  936TIP3    H1 2753   4.011   0.168   2.618
  936TIP3    H2 2754   3.937   0.154   2.487
  937TIP3   OH2 2755   6.884   2.378   0.773
  937TIP3    H1 2756   6.846   2.407   0.856
  937TIP3    H2 2757   6.847   2.437   0.707
  938TIP3   OH2 2758   1.566   6.289   6.079
  938TIP3    H1 2759   1.487   6.284   6.134
  938TIP3    H2 2760   1.537   6.259   5.993
  939TIP3   OH2 2761   0.288   0.563   6.567
  939TIP3    H1 2762   0.288   0.481   6.517
  939TIP3    H2 2763   0.288   0.631   6.500
  940TIP3   OH2 2764   2.723   5.695   2.586
  940TIP3    H1 2765   2.672   5.774   2.602
  940TIP3    H2 2766   2.799   5.725   2.536
  941TIP3   OH2 2767   5.616   2.982   2.804
  941TIP3    H1 2768   5.533   3.029   2.807
  941TIP3    H2 2769   5.683   3.050   2.815
  942TIP3   OH2 2770   7.317   4.538   6.720
  942TIP3    H1 2771   7.262   4.460   6.712
  942TIP3    H2 2772   7.386   4.525   6.655
  943TIP3   OH2 2773   0.601   0.235   5.265
  943TIP3    H1 2774   0.603   0.329   5.285
  943TIP3    H2 2775   0.534   0.199   5.323
  944TIP3   OH2 2776   4.610   2.763   1.360
  944TIP3    H1 2777   4.690   2.749   1.411
  944TIP3    H2 2778   4.539   2.754   1.423
  945TIP3   OH2 2779   5.324   2.292   5.202
  945TIP3    H1 2780   5.270   2.359   5.160
  945TIP3    H2 2781   5.353   2.236   5.130
  946TIP3   OH2 2782   6.366   2.440   3.676
  946TIP3    H1 2783   6.282   2.394   3.671
  946TIP3    H2 2784   6.400   2.439   3.586
  947TIP3   OH2 2785   6.103   1.432   3.193
  947TIP3    H1 2786   6.198   1.441   3.183
  947TIP3    H2 2787   6.068   1.518   3.170
  948TIP3   OH2 2788   0.286   6.958   1.839
  948TIP3    H1 2789   0.221   7.010   1.792
  948TIP3    H2 2790   0.350   6.934   1.771
  949TIP3   OH2 2791   0.149   3.489   3.372
  949TIP3    H1 2792   0.237   3.453   3.376
  949TIP3    H2 2793   0.101   3.442   3.441
  950TIP3   OH2 2794   0.799   4.917   3.237
  950TIP3    H1 2795   0.846   4.976   3.177
  950TIP3    H2 2796   0.754   4.855   3.179
  951TIP3   OH2 2797   4.494   6.164   2.619
  951TIP3    H1 2798   4.427   6.116   2.570
  951TIP3    H2 2799   4.569   6.104   2.621
  952TIP3   OH2 2800   4.779   5.439   3.552
  952TIP3    H1 2801   4.830   5.371   3.595
  952TIP3    H2 2802   4.694   5.436   3.597
  953TIP3   OH2 2803   4.782   6.676   5.439
  953TIP3    H1 2804   4.755   6.588   5.413
  953TIP3    H2 2805   4.718   6.703   5.504
  954TIP3   OH2 2806   5.037   4.304   3.077
  954TIP3    H1 2807   4.970   4.367   3.048
  954TIP3    H2 2808   4.998   4.262   3.153
  955TIP3   OH2 2809   2.128   4.592   3.661
  955TIP3    H1 2810   2.086   4.678   3.660
  955TIP3    H2 2811   2.102   4.552   3.578
  956TIP3   OH2 2812   4.365   6.453   4.571
  956TIP3    H1 2813   4.286   6.474   4.620
  956TIP3    H2 2814   4.403   6.538   4.550
  957TIP3   OH2 2815   5.415   4.647   6.557
  957TIP3    H1 2816   5.427   4.573   6.498
  957TIP3    H2 2817   5.449   4.616   6.641
  958TIP3   OH2 2818   0.597   3.269   3.379
  958TIP3    H1 2819   0.648   3.190   3.395
  958TIP3    H2 2820   0.512   3.237   3.349
  959TIP3   OH2 2821   0.303   4.401   5.140
  959TIP3    H1 2822   0.258   4.479   5.173
  959TIP3    H2 2823   0.250   4.327   5.171
  960TIP3   OH2 2824   5.678   4.665   2.523
  960TIP3    H1 2825   5.602   4.723   2.515
  960TIP3    H2 2826   5.646   4.579   2.498
  961TIP3   OH2 2827   5.863   3.675   2.878
  961TIP3    H1 2828   5.863   3.624   2.959
  961TIP3    H2 2829   5.789   3.735   2.888
  962TIP3   OH2 2830   7.405   0.809   3.792
  962TIP3    H1 2831   7.465   0.831   3.863
  962TIP3    H2 2832   7.372   0.893   3.761
  963TIP3   OH2 2833   0.292   0.691   3.029
  963TIP3    H1 2834   0.274   0.686   3.123
  963TIP3    H2 2835   0.245   0.769   3.000
  964TIP3   OH2 2836   0.665   4.535   1.566
  964TIP3    H1 2837   0.745   4.588   1.560
  964TIP3    H2 2838   0.663   4.484   1.485
  965TIP3   OH2 2839   6.992   5.268   1.063
  965TIP3    H1 2840   6.969   5.179   1.090
  965TIP3    H2 2841   7.032   5.308   1.140
  966TIP3   OH2 2842   5.853   2.736   1.573
  966TIP3    H1 2843   5.905   2.790   1.513
  966TIP3    H2 2844   5.772   2.717   1.525
  967TIP3   OH2 2845   5.552   5.069   5.277
  967TIP3    H1 2846   5.584   5.024   5.200
  967TIP3    H2 2847   5.625   5.124   5.306
  968TIP3   OH2 2848   4.306   4.894   2.944
  968TIP3    H1 2849   4.285   4.800   2.943
  968TIP3    H2 2850   4.221   4.937   2.932
  969TIP3   OH2 2851   0.062   7.362   6.485
  969TIP3    H1 2852   0.080   7.332   6.574
  969TIP3    H2 2853   0.079   7.456   6.487
  970TIP3   OH2 2854   3.231   0.962   0.788
  970TIP3    H1 2855   3.264   0.970   0.877
  970TIP3    H2 2856   3.140   0.991   0.793
  971TIP3   OH2 2857   3.127   4.303   2.581
  971TIP3    H1 2858   3.122   4.243   2.656
  971TIP3    H2 2859   3.196   4.365   2.604
  972TIP3   OH2 2860   4.916   5.047   1.613
  972TIP3    H1 2861   4.977   5.119   1.627
  972TIP3    H2 2862   4.845   5.063   1.676
  973TIP3   OH2 2863   4.115   3.690   5.422
  973TIP3    H1 2864   4.109   3.776   5.379
  973TIP3    H2 2865   4.039   3.642   5.389
  974TIP3   OH2 2866   6.051   7.261   5.606
  974TIP3    H1 2867   6.029   7.317   5.681
  974TIP3    H2 2868   6.139   7.229   5.625
  975TIP3   OH2 2869   2.995   7.486   1.807
  975TIP3    H1 2870   2.965   7.458   1.893
  975TIP3    H2 2871   2.999   7.581   1.813
  976TIP3   OH2 2872   6.187   5.693   4.802
  976TIP3    H1 2873   6.117   5.758   4.801
  976TIP3    H2 2874   6.166   5.634   4.729
  977TIP3   OH2 2875   0.509   2.513   1.615
  977TIP3    H1 2876   0.516   2.447   1.684
  977TIP3    H2 2877   0.542   2.593   1.656
  978TIP3   OH2 2878   7.784   4.996   1.404
  978TIP3    H1 2879   7.692   4.975   1.389
  978TIP3    H2 2880   7.832   4.923   1.363
  979TIP3   OH2 2881   7.841   4.800   0.805
  979TIP3    H1 2882   7.763   4.835   0.849
  979TIP3    H2 2883   7.861   4.865   0.738
  980TIP3   OH2 2884   2.724   3.740   3.017
  980TIP3    H1 2885   2.671   3.668   2.981
  980TIP3    H2 2886   2.725   3.724   3.111
  981TIP3   OH2 2887   0.453   2.861   1.625
  981TIP3    H1 2888   0.548   2.864   1.615
  981TIP3    H2 2889   0.439   2.826   1.713
  982TIP3   OH2 2890   6.056   3.590   5.365
  982TIP3    H1 2891   6.123   3.658   5.374
  982TIP3    H2 2892   6.000   3.600   5.442
  983TIP3   OH2 2893   6.494   1.533   6.640
  983TIP3    H1 2894   6.559   1.602   6.641
  983TIP3    H2 2895   6.519   1.474   6.711
  984TIP3   OH2 2896   6.195   3.557   0.088
  984TIP3    H1 2897   6.115   3.573   0.038
  984TIP3    H2 2898   6.164   3.515   0.169
  985TIP3   OH2 2899   7.497   5.343   6.245
  985TIP3    H1 2900   7.453   5.269   6.287
  985TIP3    H2 2901   7.591   5.322   6.251
  986TIP3   OH2 2902   7.911   1.396   6.595
  986TIP3    H1 2903   7.974   1.455   6.637
  986TIP3    H2 2904   7.937   1.396   6.502
  987TIP3   OH2 2905   7.807   6.541   0.685
  987TIP3    H1 2906   7.810   6.453   0.646
  987TIP3    H2 2907   7.879   6.588   0.644
  988TIP3   OH2 2908   5.247   5.134   5.612
  988TIP3    H1 2909   5.252   5.203   5.545
  988TIP3    H2 2910   5.192   5.066   5.572
  989TIP3   OH2 2911   5.315   1.538   2.507
  989TIP3    H1 2912   5.363   1.595   2.448
  989TIP3    H2 2913   5.255   1.596   2.554
  990TIP3   OH2 2914   3.387   4.398   6.647
  990TIP3    H1 2915   3.460   4.346   6.614
  990TIP3    H2 2916   3.309   4.348   6.625
  991TIP3   OH2 2917   4.766   1.130   0.662
  991TIP3    H1 2918   4.794   1.046   0.626
  991TIP3    H2 2919   4.709   1.168   0.595
  992TIP3   OH2 2920   0.620   5.745   2.052
  992TIP3    H1 2921   0.643   5.690   1.977
  992TIP3    H2 2922   0.646   5.833   2.025
  993TIP3   OH2 2923   4.540   6.426   6.472
  993TIP3    H1 2924   4.509   6.376   6.397
  993TIP3    H2 2925   4.489   6.393   6.546
  994TIP3   OH2 2926   0.269   7.049   3.724
  994TIP3    H1 2927   0.305   7.040   3.813
  994TIP3    H2 2928   0.174   7.044   3.736
  995TIP3   OH2 2929   1.409   6.885   5.719
  995TIP3    H1 2930   1.406   6.961   5.777
  995TIP3    H2 2931   1.502   6.874   5.699
  996TIP3   OH2 2932   3.191   2.951   6.498
  996TIP3    H1 2933   3.217   2.942   6.589
  996TIP3    H2 2934   3.109   3.001   6.501
  997TIP3   OH2 2935   2.464   5.402   5.269
  997TIP3    H1 2936   2.475   5.307   5.274
  997TIP3    H2 2937   2.400   5.414   5.198
  998TIP3   OH2 2938   3.861   2.152   5.182
  998TIP3    H1 2939   3.867   2.057   5.187
  998TIP3    H2 2940   3.952   2.180   5.169
  999TIP3   OH2 2941   2.451   7.553   3.074
  999TIP3    H1 2942   2.446   7.461   3.049
  999TIP3    H2 2943   2.544   7.573   3.073
 1000TIP3   OH2 2944   3.555   0.617   0.086
 1000TIP3    H1 2945   3.483   0.554   0.075
 1000TIP3    H2 2946   3.601   0.614   0.002
 1001TIP3   OH2 2947   7.241   6.351   3.857
 1001TIP3    H1 2948   7.210   6.442   3.860
 1001TIP3    H2 2949   7.298   6.347   3.780
 1002TIP3   OH2 2950   7.234   6.495   5.184
 1002TIP3    H1 2951   7.151   6.447   5.189
 1002TIP3    H2 2952   7.288   6.445   5.123
 1003TIP3   OH2 2953   7.493   7.021   4.774
 1003TIP3    H1 2954   7.401   6.994   4.779
 1003TIP3    H2 2955   7.536   6.974   4.845
 1004TIP3   OH2 2956   7.372   4.359   0.445
 1004TIP3    H1 2957   7.298   4.375   0.388
 1004TIP3    H2 2958   7.339   4.297   0.510
 1005TIP3   OH2 2959   7.385   2.049   5.207
 1005TIP3    H1 2960   7.420   2.106   5.276
 1005TIP3    H2 2961   7.312   2.098   5.170
 1006TIP3   OH2 2962   5.123   5.860   4.005
 1006TIP3    H1 2963   5.106   5.901   4.090
 1006TIP3    H2 2964   5.210   5.821   4.015
 1007TIP3   OH2 2965   4.618   5.623   4.993
 1007TIP3    H1 2966   4.676   5.582   5.058
 1007TIP3    H2 2967   4.607   5.556   4.926
 1008TIP3   OH2 2968   8.119   1.918   5.764
 1008TIP3    H1 2969   8.101   1.920   5.670
 1008TIP3    H2 2970   8.092   2.004   5.796
 1009TIP3   OH2 2971   5.731   0.692   2.291
 1009TIP3    H1 2972   5.752   0.785   2.283
 1009TIP3    H2 2973   5.754   0.655   2.206
 1010TIP3   OH2 2974   7.998   7.082   1.910
 1010TIP3    H1 2975   8.022   7.125   1.828
 1010TIP3    H2 2976   7.907   7.108   1.924
 1011TIP3   OH2 2977   7.032   2.734   4.209
 1011TIP3    H1 2978   6.995   2.735   4.121
 1011TIP3    H2 2979   7.103   2.798   4.206
 1012TIP3   OH2 2980   0.368   3.061   1.236
 1012TIP3    H1 2981   0.447   3.036   1.284
 1012TIP3    H2 2982   0.396   3.132   1.179
 1013TIP3   OH2 2983   3.109   6.716   5.289
 1013TIP3    H1 2984   3.071   6.641   5.335
 1013TIP3    H2 2985   3.035   6.775   5.272
 1014TIP3   OH2 2986   5.018   3.675   6.640
 1014TIP3    H1 2987   4.928   3.656   6.666
 1014TIP3    H2 2988   5.018   3.665   6.545
 1015TIP3   OH2 2989   0.457   4.700   5.955
 1015TIP3    H1 2990   0.398   4.688   5.881
 1015TIP3    H2 2991   0.540   4.662   5.926
 1016TIP3   OH2 2992   8.182   7.121   6.516
 1016TIP3    H1 2993   8.146   7.169   6.590
 1016TIP3    H2 2994   8.242   7.182   6.473
 1017TIP3   OH2 2995   2.265   5.960   1.276
 1017TIP3    H1 2996   2.356   5.977   1.302
 1017TIP3    H2 2997   2.229   5.909   1.349
 1018TIP3   OH2 2998   3.040   2.187   6.112
 1018TIP3    H1 2999   3.077   2.113   6.161
 1018TIP3    H2 3000   3.048   2.261   6.172
 1019TIP3   OH2 3001   3.771   5.121   0.837
 1019TIP3    H1 3002   3.703   5.100   0.901
 1019TIP3    H2 3003   3.725   5.169   0.768
 1020TIP3   OH2 3004   4.524   0.704   3.174
 1020TIP3    H1 3005   4.591   0.771   3.162
 1020TIP3    H2 3006   4.442   0.753   3.178
 1021TIP3   OH2 3007   4.006   3.612   3.950
 1021TIP3    H1 3008   4.025   3.595   4.043
 1021TIP3    H2 3009   3.912   3.601   3.942
 1022TIP3   OH2 3010   0.928   2.974   4.315
 1022TIP3    H1 3011   0.884   3.058   4.302
 1022TIP3    H2 3012   0.873   2.928   4.379
 1023TIP3   OH2 3013   2.638   3.901   6.622
 1023TIP3    H1 3014   2.677   3.823   6.583
 1023TIP3    H2 3015   2.698   3.972   6.600
 1024TIP3   OH2 3016   7.732   1.282   0.903
 1024TIP3    H1 3017   7.761   1.284   0.995
 1024TIP3    H2 3018   7.814   1.285   0.853
 1025TIP3   OH2 3019   1.107   1.000   6.026
 1025TIP3    H1 3020   1.125   0.943   5.951
 1025TIP3    H2 3021   1.085   0.941   6.097
 1026TIP3   OH2 3022   3.940   5.797   2.909
 1026TIP3    H1 3023   3.965   5.796   3.002
 1026TIP3    H2 3024   4.012   5.752   2.865
 1027TIP3   OH2 3025   6.371   0.717   1.435
 1027TIP3    H1 3026   6.389   0.710   1.342
 1027TIP3    H2 3027   6.316   0.795   1.443
 1028TIP3   OH2 3028   7.836   7.730   6.564
 1028TIP3    H1 3029   7.764   7.670   6.545
 1028TIP3    H2 3030   7.892   7.724   6.486
 1029TIP3   OH2 3031   4.687   3.417   2.818
 1029TIP3    H1 3032   4.628   3.482   2.857
 1029TIP3    H2 3033   4.651   3.402   2.730
 1030TIP3   OH2 3034   5.628   3.591   5.409
 1030TIP3    H1 3035   5.594   3.514   5.456
 1030TIP3    H2 3036   5.608   3.665   5.467
 1031TIP3   OH2 3037   6.790   5.842   6.616
 1031TIP3    H1 3038   6.701   5.867   6.639
 1031TIP3    H2 3039   6.837   5.925   6.608
 1032TIP3   OH2 3040   7.842   1.920   6.356
 1032TIP3    H1 3041   7.868   1.828   6.361
 1032TIP3    H2 3042   7.908   1.967   6.407
 1033TIP3   OH2 3043   3.734   1.860   0.471
 1033TIP3    H1 3044   3.742   1.847   0.566
 1033TIP3    H2 3045   3.723   1.955   0.461
 1034TIP3   OH2 3046   7.282   3.603   6.224
 1034TIP3    H1 3047   7.263   3.685   6.179
 1034TIP3    H2 3048   7.196   3.559   6.231
 1035TIP3   OH2 3049   6.075   3.161   6.783
 1035TIP3    H1 3050   6.082   3.124   6.871
 1035TIP3    H2 3051   5.995   3.123   6.747
 1036TIP3   OH2 3052   1.575   3.381   2.266
 1036TIP3    H1 3053   1.571   3.380   2.362
 1036TIP3    H2 3054   1.635   3.453   2.246
 1037TIP3   OH2 3055   0.951   5.292   3.485
 1037TIP3    H1 3056   0.963   5.263   3.575
 1037TIP3    H2 3057   1.039   5.315   3.455
 1038TIP3   OH2 3058   3.675   0.831   4.568
 1038TIP3    H1 3059   3.614   0.826   4.495
 1038TIP3    H2 3060   3.696   0.924   4.575
 1039TIP3   OH2 3061   2.069   0.161   0.239
 1039TIP3    H1 3062   2.030   0.157   0.326
 1039TIP3    H2 3063   2.016   0.225   0.191
 1040TIP3   OH2 3064   3.942   5.449   3.016
 1040TIP3    H1 3065   3.875   5.498   3.063
 1040TIP3    H2 3066   3.905   5.361   3.007
 1041TIP3   OH2 3067   5.969   3.679   6.494
 1041TIP3    H1 3068   5.971   3.762   6.540
 1041TIP3    H2 3069   6.061   3.651   6.489
 1042TIP3   OH2 3070   2.604   3.256   1.626
 1042TIP3    H1 3071   2.602   3.198   1.703
 1042TIP3    H2 3072   2.580   3.342   1.661
 1043TIP3   OH2 3073   1.001   4.594   1.372
 1043TIP3    H1 3074   1.002   4.651   1.294
 1043TIP3    H2 3075   0.959   4.647   1.440
 1044TIP3   OH2 3076   0.404   5.227   3.413
 1044TIP3    H1 3077   0.390   5.141   3.452
 1044TIP3    H2 3078   0.474   5.267   3.464
 1045TIP3   OH2 3079   7.946   7.166   2.343
 1045TIP3    H1 3080   7.852   7.170   2.326
 1045TIP3    H2 3081   7.986   7.198   2.262
 1046TIP3   OH2 3082   5.602   4.606   2.079
 1046TIP3    H1 3083   5.661   4.532   2.061
 1046TIP3    H2 3084   5.515   4.566   2.085
 1047TIP3   OH2 3085   2.272   5.123   2.868
 1047TIP3    H1 3086   2.292   5.031   2.852
 1047TIP3    H2 3087   2.353   5.170   2.846
 1048TIP3   OH2 3088   2.474   2.042   0.973
 1048TIP3    H1 3089   2.520   2.062   1.055
 1048TIP3    H2 3090   2.537   2.064   0.905
 1049TIP3   OH2 3091   4.070   1.541   3.963
 1049TIP3    H1 3092   4.027   1.501   4.039
 1049TIP3    H2 3093   4.159   1.560   3.992
 1050TIP3   OH2 3094   0.065   3.624   1.885
 1050TIP3    H1 3095   0.035   3.715   1.876
 1050TIP3    H2 3096  -0.014   3.571   1.876
 1051TIP3   OH2 3097   4.600   6.320   5.041
 1051TIP3    H1 3098   4.695   6.332   5.039
 1051TIP3    H2 3099   4.573   6.326   4.949
 1052TIP3   OH2 3100   8.007   6.032   4.457
 1052TIP3    H1 3101   8.081   5.974   4.475
 1052TIP3    H2 3102   8.000   6.032   4.361
 1053TIP3   OH2 3103   7.627   1.628   6.646
 1053TIP3    H1 3104   7.638   1.611   6.740
 1053TIP3    H2 3105   7.630   1.542   6.606
 1054TIP3   OH2 3106   8.316   2.643   5.445
 1054TIP3    H1 3107   8.380   2.576   5.470
 1054TIP3    H2 3108   8.242   2.594   5.409
 1055TIP3   OH2 3109   1.780   0.722   1.856
 1055TIP3    H1 3110   1.687   0.742   1.857
 1055TIP3    H2 3111   1.818   0.781   1.921
 1056TIP3   OH2 3112   4.213   5.891   3.993
 1056TIP3    H1 3113   4.263   5.837   4.053
 1056TIP3    H2 3114   4.277   5.953   3.957
 1057TIP3   OH2 3115   4.528   3.596   4.797
 1057TIP3    H1 3116   4.503   3.558   4.881
 1057TIP3    H2 3117   4.569   3.523   4.750
 1058TIP3   OH2 3118   5.891   2.020   6.089
 1058TIP3    H1 3119   5.947   1.989   6.159
 1058TIP3    H2 3120   5.806   2.035   6.131
 1059TIP3   OH2 3121   7.155   1.180   0.799
 1059TIP3    H1 3122   7.116   1.144   0.719
 1059TIP3    H2 3123   7.194   1.105   0.843
 1060TIP3   OH2 3124   7.884   4.516   5.399
 1060TIP3    H1 3125   7.887   4.473   5.485
 1060TIP3    H2 3126   7.821   4.464   5.349
 1061TIP3   OH2 3127   7.253   4.926   3.457
 1061TIP3    H1 3128   7.248   5.018   3.433
 1061TIP3    H2 3129   7.346   4.911   3.476
 1062TIP3   OH2 3130   7.919   0.069   3.343
 1062TIP3    H1 3131   7.952  -0.003   3.396
 1062TIP3    H2 3132   7.973   0.067   3.264
 1063TIP3   OH2 3133   2.086   6.637   4.099
 1063TIP3    H1 3134   2.060   6.573   4.166
 1063TIP3    H2 3135   2.133   6.705   4.148
 1064TIP3   OH2 3136   5.828   2.238   4.937
 1064TIP3    H1 3137   5.774   2.205   4.865
 1064TIP3    H2 3138   5.811   2.333   4.937
 1065TIP3   OH2 3139   4.966   6.838   5.018
 1065TIP3    H1 3140   4.971   6.841   4.922
 1065TIP3    H2 3141   4.930   6.751   5.037
 1066TIP3   OH2 3142   7.587   2.996   1.215
 1066TIP3    H1 3143   7.623   3.035   1.294
 1066TIP3    H2 3144   7.653   3.013   1.148
 1067TIP3   OH2 3145   5.103   0.106   1.170
 1067TIP3    H1 3146   5.134   0.192   1.142
 1067TIP3    H2 3147   5.008   0.115   1.174
 1068TIP3   OH2 3148   2.287   4.624   6.473
 1068TIP3    H1 3149   2.372   4.658   6.444
 1068TIP3    H2 3150   2.296   4.529   6.466
 1069TIP3   OH2 3151   2.942   0.838   4.083
 1069TIP3    H1 3152   2.917   0.887   4.005
 1069TIP3    H2 3153   2.918   0.895   4.156
 1070TIP3   OH2 3154   7.419   5.113   5.577
 1070TIP3    H1 3155   7.464   5.090   5.658
 1070TIP3    H2 3156   7.487   5.148   5.520
 1071TIP3   OH2 3157   0.818   6.892   1.961
 1071TIP3    H1 3158   0.856   6.804   1.971
 1071TIP3    H2 3159   0.731   6.876   1.924
 1072TIP3   OH2 3160   3.020   5.459   0.188
 1072TIP3    H1 3161   3.059   5.461   0.276
 1072TIP3    H2 3162   3.087   5.420   0.133
 1073TIP3   OH2 3163   7.330   2.715   5.592
 1073TIP3    H1 3164   7.395   2.785   5.586
 1073TIP3    H2 3165   7.266   2.736   5.524
 1074TIP3   OH2 3166   7.074   0.210   1.680
 1074TIP3    H1 3167   7.019   0.135   1.657
 1074TIP3    H2 3168   7.137   0.176   1.743
 1075TIP3   OH2 3169   7.096   3.797   2.021
 1075TIP3    H1 3170   7.015   3.825   1.978
 1075TIP3    H2 3171   7.070   3.721   2.073
 1076TIP3   OH2 3172   7.416   2.995   4.305
 1076TIP3    H1 3173   7.375   2.964   4.385
 1076TIP3    H2 3174   7.494   3.041   4.334
 1077TIP3   OH2 3175   0.097   6.882   3.334
 1077TIP3    H1 3176   0.024   6.919   3.385
 1077TIP3    H2 3177   0.058   6.809   3.286
 1078TIP3   OH2 3178   5.351   6.609   1.299
 1078TIP3    H1 3179   5.359   6.534   1.240
 1078TIP3    H2 3180   5.257   6.617   1.316
 1079TIP3   OH2 3181   7.046   6.561   1.014
 1079TIP3    H1 3182   7.087   6.535   0.932
 1079TIP3    H2 3183   7.047   6.481   1.067
 1080TIP3   OH2 3184   2.059   3.519   5.541
 1080TIP3    H1 3185   2.102   3.604   5.531
 1080TIP3    H2 3186   2.080   3.471   5.461
 1081TIP3   OH2 3187   1.192   7.330   1.559
 1081TIP3    H1 3188   1.260   7.320   1.493
 1081TIP3    H2 3189   1.159   7.419   1.547
 1082TIP3   OH2 3190   3.873   6.771   3.039
 1082TIP3    H1 3191   3.801   6.711   3.019
 1082TIP3    H2 3192   3.944   6.715   3.072
 1083TIP3   OH2 3193   3.153   5.202   5.404
 1083TIP3    H1 3194   3.180   5.145   5.476
 1083TIP3    H2 3195   3.146   5.289   5.443
 1084TIP3   OH2 3196   1.890   3.828   2.788
 1084TIP3    H1 3197   1.897   3.911   2.740
 1084TIP3    H2 3198   1.871   3.853   2.878
 1085TIP3   OH2 3199   5.225   2.501   5.056
 1085TIP3    H1 3200   5.229   2.454   4.972
 1085TIP3    H2 3201   5.277   2.580   5.041
 1086TIP3   OH2 3202   1.902   6.337   2.296
 1086TIP3    H1 3203   1.954   6.258   2.308
 1086TIP3    H2 3204   1.949   6.387   2.230
 1087TIP3   OH2 3205   4.198   6.395   0.774
 1087TIP3    H1 3206   4.240   6.458   0.716
 1087TIP3    H2 3207   4.265   6.374   0.838
 1088TIP3   OH2 3208   1.250   3.503   2.279
 1088TIP3    H1 3209   1.229   3.435   2.343
 1088TIP3    H2 3210   1.267   3.581   2.332
 1089TIP3   OH2 3211   0.225   4.562   3.442
 1089TIP3    H1 3212   0.315   4.544   3.469
 1089TIP3    H2 3213   0.213   4.656   3.458
 1090TIP3   OH2 3214   4.756   3.732   2.497
 1090TIP3    H1 3215   4.774   3.693   2.583
 1090TIP3    H2 3216   4.831   3.789   2.481
 1091TIP3   OH2 3217   6.670   1.342   2.843
 1091TIP3    H1 3218   6.648   1.433   2.822
 1091TIP3    H2 3219   6.587   1.296   2.840
 1092TIP3   OH2 3220   2.462   6.135   5.386
 1092TIP3    H1 3221   2.502   6.098   5.465
 1092TIP3    H2 3222   2.370   6.146   5.408
 1093TIP3   OH2 3223   0.416   5.005   3.591
 1093TIP3    H1 3224   0.511   5.002   3.579
 1093TIP3    H2 3225   0.394   4.919   3.628
 1094TIP3   OH2 3226   8.147   2.621   1.210
 1094TIP3    H1 3227   8.088   2.573   1.269
 1094TIP3    H2 3228   8.128   2.713   1.227
 1095TIP3   OH2 3229   4.105   2.526   0.296
 1095TIP3    H1 3230   4.073   2.456   0.239
 1095TIP3    H2 3231   4.124   2.483   0.379
 1096TIP3   OH2 3232   5.579   0.836   2.699
 1096TIP3    H1 3233   5.497   0.885   2.706
 1096TIP3    H2 3234   5.595   0.803   2.787
 1097TIP3   OH2 3235   4.211   6.578   2.918
 1097TIP3    H1 3236   4.210   6.490   2.881
 1097TIP3    H2 3237   4.255   6.567   3.003
 1098TIP3   OH2 3238   7.350   6.891   4.203
 1098TIP3    H1 3239   7.290   6.949   4.249
 1098TIP3    H2 3240   7.420   6.875   4.266
 1099TIP3   OH2 3241   0.110   1.160   0.234
 1099TIP3    H1 3242   0.055   1.237   0.221
 1099TIP3    H2 3243   0.092   1.104   0.159
 1100TIP3   OH2 3244   0.702   5.404   5.939
 1100TIP3    H1 3245   0.681   5.346   5.866
 1100TIP3    H2 3246   0.796   5.420   5.931
 1101TIP3   OH2 3247   5.169   3.635   2.712
 1101TIP3    H1 3248   5.262   3.654   2.712
 1101TIP3    H2 3249   5.151   3.603   2.624
 1102TIP3   OH2 3250   4.525   0.324   6.436
 1102TIP3    H1 3251   4.449   0.269   6.457
 1102TIP3    H2 3252   4.598   0.263   6.431
 1103TIP3   OH2 3253   3.003   3.121   4.840
 1103TIP3    H1 3254   3.057   3.090   4.768
 1103TIP3    H2 3255   2.958   3.197   4.805
 1104TIP3   OH2 3256   2.447   2.827   5.970
 1104TIP3    H1 3257   2.514   2.869   5.915
 1104TIP3    H2 3258   2.397   2.773   5.909
 1105TIP3   OH2 3259   2.255   2.332   4.318
 1105TIP3    H1 3260   2.253   2.395   4.390
 1105TIP3    H2 3261   2.275   2.248   4.360
 1106TIP3   OH2 3262   7.599   6.119   6.690
 1106TIP3    H1 3263   7.659   6.180   6.648
 1106TIP3    H2 3264   7.651   6.040   6.704
 1107TIP3   OH2 3265   6.914   6.918   6.237
 1107TIP3    H1 3266   6.933   6.867   6.158
 1107TIP3    H2 3267   6.844   6.869   6.280
 1108TIP3   OH2 3268   2.702   4.854   4.331
 1108TIP3    H1 3269   2.727   4.811   4.249
 1108TIP3    H2 3270   2.607   4.862   4.325
 1109TIP3   OH2 3271   1.842   1.583   1.429
 1109TIP3    H1 3272   1.755   1.542   1.432
 1109TIP3    H2 3273   1.826   1.675   1.451
 1110TIP3   OH2 3274   2.495   1.109   0.679
 1110TIP3    H1 3275   2.404   1.135   0.695
 1110TIP3    H2 3276   2.521   1.158   0.601
 1111TIP3   OH2 3277   3.506   1.925   2.028
 1111TIP3    H1 3278   3.444   1.860   2.063
 1111TIP3    H2 3279   3.567   1.873   1.975
 1112TIP3   OH2 3280   7.634   3.135   6.645
 1112TIP3    H1 3281   7.672   3.078   6.712
 1112TIP3    H2 3282   7.662   3.096   6.562
 1113TIP3   OH2 3283   7.984   5.155   6.678
 1113TIP3    H1 3284   8.037   5.093   6.729
 1113TIP3    H2 3285   7.950   5.102   6.606
 1114TIP3   OH2 3286   3.598   3.366   1.876
 1114TIP3    H1 3287   3.544   3.391   1.951
 1114TIP3    H2 3288   3.667   3.311   1.913
 1115TIP3   OH2 3289   1.793   5.371   5.718
 1115TIP3    H1 3290   1.738   5.441   5.684
 1115TIP3    H2 3291   1.877   5.412   5.734
 1116TIP3   OH2 3292   5.334   7.365   3.522
 1116TIP3    H1 3293   5.349   7.291   3.462
 1116TIP3    H2 3294   5.402   7.356   3.589
 1117TIP3   OH2 3295   0.287   0.299   0.158
 1117TIP3    H1 3296   0.301   0.386   0.197
 1117TIP3    H2 3297   0.375   0.270   0.135
 1118TIP3   OH2 3298   1.110   5.809   5.744
 1118TIP3    H1 3299   1.109   5.783   5.652
 1118TIP3    H2 3300   1.141   5.731   5.790
 1119TIP3   OH2 3301   6.416   7.116   4.644
 1119TIP3    H1 3302   6.411   7.071   4.728
 1119TIP3    H2 3303   6.341   7.084   4.595
 1120TIP3   OH2 3304   7.996   6.983   2.573
 1120TIP3    H1 3305   7.972   7.047   2.506
 1120TIP3    H2 3306   7.960   7.017   2.654
 1121TIP3   OH2 3307   0.413   6.097   0.365
 1121TIP3    H1 3308   0.458   6.140   0.438
 1121TIP3    H2 3309   0.460   6.127   0.287
 1122TIP3   OH2 3310   0.059   1.159   3.476
 1122TIP3    H1 3311   0.109   1.085   3.509
 1122TIP3    H2 3312   0.124   1.219   3.441
 1123TIP3   OH2 3313   6.235   5.824   3.507
 1123TIP3    H1 3314   6.242   5.731   3.489
 1123TIP3    H2 3315   6.318   5.861   3.477
 1124TIP3   OH2 3316   6.945   1.616   0.653
 1124TIP3    H1 3317   6.863   1.660   0.630
 1124TIP3    H2 3318   6.972   1.572   0.573
 1125TIP3   OH2 3319   6.066   6.174   2.852
 1125TIP3    H1 3320   6.032   6.163   2.763
 1125TIP3    H2 3321   6.010   6.241   2.890
 1126TIP3   OH2 3322   4.298   3.859   2.701
 1126TIP3    H1 3323   4.356   3.914   2.648
 1126TIP3    H2 3324   4.344   3.775   2.709
 1127TIP3   OH2 3325   3.942   6.280   2.073
 1127TIP3    H1 3326   3.952   6.371   2.045
 1127TIP3    H2 3327   3.933   6.231   1.992
 1128TIP3   OH2 3328   6.652   4.994   4.609
 1128TIP3    H1 3329   6.731   5.017   4.560
 1128TIP3    H2 3330   6.633   5.072   4.661
 1129TIP3   OH2 3331   8.222   6.925   1.808
 1129TIP3    H1 3332   8.258   6.951   1.723
 1129TIP3    H2 3333   8.136   6.967   1.812
 1130TIP3   OH2 3334   6.513   7.255   1.829
 1130TIP3    H1 3335   6.579   7.254   1.898
 1130TIP3    H2 3336   6.431   7.233   1.873
 1131TIP3   OH2 3337   5.773   6.945   3.163
 1131TIP3    H1 3338   5.737   6.975   3.080
 1131TIP3    H2 3339   5.706   6.889   3.201
 1132TIP3   OH2 3340   3.220   4.932   0.232
 1132TIP3    H1 3341   3.248   4.980   0.154
 1132TIP3    H2 3342   3.204   4.843   0.201
 1133TIP3   OH2 3343   5.357   6.238   0.145
 1133TIP3    H1 3344   5.336   6.287   0.225
 1133TIP3    H2 3345   5.413   6.166   0.176
 1134TIP3   OH2 3346   1.606   4.959   5.466
 1134TIP3    H1 3347   1.546   4.892   5.432
 1134TIP3    H2 3348   1.691   4.914   5.472
 1135TIP3   OH2 3349   7.524   3.143   3.081
 1135TIP3    H1 3350   7.472   3.103   3.011
 1135TIP3    H2 3351   7.610   3.102   3.073
 1136TIP3   OH2 3352   6.253   1.643   6.283
 1136TIP3    H1 3353   6.251   1.640   6.188
 1136TIP3    H2 3354   6.163   1.663   6.309
 1137TIP3   OH2 3355   4.534   6.033   3.037
 1137TIP3    H1 3356   4.453   6.084   3.033
 1137TIP3    H2 3357   4.548   6.003   2.947
 1138TIP3   OH2 3358   0.121   2.808   5.639
 1138TIP3    H1 3359   0.116   2.895   5.600
 1138TIP3    H2 3360   0.089   2.748   5.571
 1139TIP3   OH2 3361   1.720   4.021   3.987
 1139TIP3    H1 3362   1.774   4.006   4.064
 1139TIP3    H2 3363   1.633   4.040   4.022
 1140TIP3   OH2 3364   7.927   0.226   5.710
 1140TIP3    H1 3365   7.880   0.143   5.719
 1140TIP3    H2 3366   7.997   0.221   5.776
 1141TIP3   OH2 3367   6.035   4.892   3.777
 1141TIP3    H1 3368   6.061   4.875   3.867
 1141TIP3    H2 3369   6.053   4.810   3.731
 1142TIP3   OH2 3370   6.914   2.021   6.353
 1142TIP3    H1 3371   6.868   1.944   6.388
 1142TIP3    H2 3372   7.006   2.005   6.372
 1143TIP3   OH2 3373   1.446   4.880   5.823
 1143TIP3    H1 3374   1.518   4.837   5.777
 1143TIP3    H2 3375   1.441   4.967   5.784
 1144TIP3   OH2 3376   6.367   2.423   1.717
 1144TIP3    H1 3377   6.338   2.475   1.643
 1144TIP3    H2 3378   6.302   2.439   1.785
 1145TIP3   OH2 3379   5.086   4.065   4.160
 1145TIP3    H1 3380   5.144   4.136   4.132
 1145TIP3    H2 3381   5.072   4.082   4.254
 1146TIP3   OH2 3382   2.257   6.049   6.229
 1146TIP3    H1 3383   2.234   5.983   6.295
 1146TIP3    H2 3384   2.174   6.093   6.210
 1147TIP3   OH2 3385   4.938   1.212   6.734
 1147TIP3    H1 3386   4.885   1.268   6.677
 1147TIP3    H2 3387   5.001   1.171   6.675
 1148TIP3   OH2 3388   4.258   3.817   3.577
 1148TIP3    H1 3389   4.238   3.905   3.608
 1148TIP3    H2 3390   4.184   3.763   3.606
 1149TIP3   OH2 3391   0.561   2.227   2.229
 1149TIP3    H1 3392   0.584   2.252   2.319
 1149TIP3    H2 3393   0.607   2.144   2.215
 1150TIP3   OH2 3394   1.655   7.014   3.224
 1150TIP3    H1 3395   1.738   6.977   3.194
 1150TIP3    H2 3396   1.648   7.097   3.177
 1151TIP3   OH2 3397   2.926   2.786   5.116
 1151TIP3    H1 3398   2.959   2.874   5.101
 1151TIP3    H2 3399   2.852   2.777   5.055
 1152TIP3   OH2 3400   7.366   1.217   1.702
 1152TIP3    H1 3401   7.369   1.121   1.707
 1152TIP3    H2 3402   7.297   1.235   1.638
 1153TIP3   OH2 3403   0.955   0.032   4.243
 1153TIP3    H1 3404   0.971   0.091   4.169
 1153TIP3    H2 3405   0.905   0.085   4.305
 1154TIP3   OH2 3406   5.608   1.445   4.624
 1154TIP3    H1 3407   5.638   1.435   4.533
 1154TIP3    H2 3408   5.541   1.513   4.619
 1155TIP3   OH2 3409   6.584   0.104   6.096
 1155TIP3    H1 3410   6.620   0.026   6.054
 1155TIP3    H2 3411   6.616   0.101   6.186
 1156TIP3   OH2 3412   2.375   7.349   3.279
 1156TIP3    H1 3413   2.435   7.420   3.259
 1156TIP3    H2 3414   2.414   7.305   3.354
 1157TIP3   OH2 3415   0.538   4.674   1.045
 1157TIP3    H1 3416   0.517   4.734   1.117
 1157TIP3    H2 3417   0.463   4.614   1.041
 1158TIP3   OH2 3418   4.336   0.663   4.018
 1158TIP3    H1 3419   4.416   0.655   3.965
 1158TIP3    H2 3420   4.349   0.601   4.089
 1159TIP3   OH2 3421   3.992   0.929   3.439
 1159TIP3    H1 3422   4.080   0.962   3.420
 1159TIP3    H2 3423   3.940   0.954   3.363
 1160TIP3   OH2 3424   1.310   6.837   2.308
 1160TIP3    H1 3425   1.342   6.918   2.349
 1160TIP3    H2 3426   1.251   6.867   2.239
 1161TIP3   OH2 3427   2.116   2.358   2.051
 1161TIP3    H1 3428   2.190   2.399   2.097
 1161TIP3    H2 3429   2.050   2.348   2.119
 1162TIP3   OH2 3430   6.920   4.757   6.535
 1162TIP3    H1 3431   6.853   4.750   6.603
 1162TIP3    H2 3432   6.916   4.675   6.488
 1163TIP3   OH2 3433   1.054   2.745   1.707
 1163TIP3    H1 3434   1.021   2.826   1.746
 1163TIP3    H2 3435   1.033   2.754   1.614
 1164TIP3   OH2 3436   5.712   0.336   0.372
 1164TIP3    H1 3437   5.684   0.424   0.349
 1164TIP3    H2 3438   5.801   0.329   0.339
 1165TIP3   OH2 3439   3.050   2.970   4.244
 1165TIP3    H1 3440   2.969   2.934   4.281
 1165TIP3    H2 3441   3.051   2.941   4.153
 1166TIP3   OH2 3442   6.241   3.580   6.560
 1166TIP3    H1 3443   6.335   3.564   6.559
 1166TIP3    H2 3444   6.202   3.495   6.539
 1167TIP3   OH2 3445   2.180   7.309   1.991
 1167TIP3    H1 3446   2.226   7.292   2.073
 1167TIP3    H2 3447   2.167   7.223   1.952
 1168TIP3   OH2 3448   1.529   6.889   2.532
 1168TIP3    H1 3449   1.482   6.816   2.493
 1168TIP3    H2 3450   1.603   6.849   2.578
 1169TIP3   OH2 3451   3.424   5.603   1.974
 1169TIP3    H1 3452   3.459   5.640   2.054
 1169TIP3    H2 3453   3.495   5.610   1.910
 1170TIP3   OH2 3454   4.073   6.082   0.125
 1170TIP3    H1 3455   4.042   6.120   0.208
 1170TIP3    H2 3456   4.100   6.158   0.073
 1171TIP3   OH2 3457   0.643   1.685   5.596
 1171TIP3    H1 3458   0.549   1.671   5.603
 1171TIP3    H2 3459   0.668   1.642   5.515
 1172TIP3   OH2 3460   2.390   6.443   4.043
 1172TIP3    H1 3461   2.325   6.478   3.983
 1172TIP3    H2 3462   2.354   6.458   4.130
 1173TIP3   OH2 3463   5.405   3.497   6.068
 1173TIP3    H1 3464   5.453   3.429   6.117
 1173TIP3    H2 3465   5.374   3.452   5.990
 1174TIP3   OH2 3466   5.904   4.876   0.528
 1174TIP3    H1 3467   5.874   4.808   0.587
 1174TIP3    H2 3468   5.938   4.945   0.585
 1175TIP3   OH2 3469   5.228   7.080   1.749
 1175TIP3    H1 3470   5.258   7.154   1.696
 1175TIP3    H2 3471   5.247   7.003   1.696
 1176TIP3   OH2 3472   3.893   2.521   5.565
 1176TIP3    H1 3473   3.871   2.542   5.474
 1176TIP3    H2 3474   3.816   2.476   5.599
 1177TIP3   OH2 3475   4.430   3.491   1.066
 1177TIP3    H1 3476   4.429   3.422   0.999
 1177TIP3    H2 3477   4.344   3.489   1.106
 1178TIP3   OH2 3478   7.547   0.041   3.751
 1178TIP3    H1 3479   7.526   0.064   3.661
 1178TIP3    H2 3480   7.640   0.059   3.759
 1179TIP3   OH2 3481   7.884   5.101   5.834
 1179TIP3    H1 3482   7.975   5.086   5.861
 1179TIP3    H2 3483   7.841   5.017   5.847
 1180TIP3   OH2 3484   1.237   7.784   3.884
 1180TIP3    H1 3485   1.164   7.840   3.911
 1180TIP3    H2 3486   1.212   7.697   3.913
 1181TIP3   OH2 3487   5.654   6.564   6.634
 1181TIP3    H1 3488   5.682   6.529   6.549
 1181TIP3    H2 3489   5.559   6.569   6.628
 1182TIP3   OH2 3490   5.341   6.440   2.798
 1182TIP3    H1 3491   5.323   6.534   2.795
 1182TIP3    H2 3492   5.305   6.406   2.715
 1183TIP3   OH2 3493   5.356   7.635   1.169
 1183TIP3    H1 3494   5.317   7.689   1.101
 1183TIP3    H2 3495   5.358   7.692   1.246
 1184TIP3   OH2 3496   2.246   7.673   4.446
 1184TIP3    H1 3497   2.296   7.700   4.369
 1184TIP3    H2 3498   2.313   7.658   4.513
 1185TIP3   OH2 3499   3.853   2.836   5.581
 1185TIP3    H1 3500   3.836   2.801   5.668
 1185TIP3    H2 3501   3.874   2.759   5.528
 1186TIP3   OH2 3502   1.661   5.648   3.267
 1186TIP3    H1 3503   1.687   5.604   3.348
 1186TIP3    H2 3504   1.738   5.643   3.211
 1187TIP3   OH2 3505   2.859   7.396   2.793
 1187TIP3    H1 3506   2.804   7.470   2.768
 1187TIP3    H2 3507   2.892   7.419   2.880
 1188TIP3   OH2 3508   3.669   4.140   2.963
 1188TIP3    H1 3509   3.764   4.136   2.955
 1188TIP3    H2 3510   3.639   4.169   2.877
 1189TIP3   OH2 3511   4.522   1.210   5.169
 1189TIP3    H1 3512   4.502   1.304   5.163
 1189TIP3    H2 3513   4.606   1.206   5.214
 1190TIP3   OH2 3514   0.092   3.515   2.467
 1190TIP3    H1 3515   0.008   3.469   2.473
 1190TIP3    H2 3516   0.114   3.537   2.557
 1191TIP3   OH2 3517   7.624   6.806   1.709
 1191TIP3    H1 3518   7.567   6.826   1.636
 1191TIP3    H2 3519   7.606   6.715   1.730
 1192TIP3   OH2 3520   2.944   6.243   4.869
 1192TIP3    H1 3521   2.949   6.192   4.950
 1192TIP3    H2 3522   2.922   6.179   4.801
 1193TIP3   OH2 3523   4.493   5.328   5.011
 1193TIP3    H1 3524   4.411   5.377   5.010
 1193TIP3    H2 3525   4.522   5.329   4.920
 1194TIP3   OH2 3526   0.073   5.464   3.468
 1194TIP3    H1 3527   0.134   5.420   3.409
 1194TIP3    H2 3528   0.064   5.405   3.542
 1195TIP3   OH2 3529   7.463   6.401   2.379
 1195TIP3    H1 3530   7.459   6.313   2.342
 1195TIP3    H2 3531   7.535   6.397   2.442
 1196TIP3   OH2 3532   4.010   4.770   6.805
 1196TIP3    H1 3533   3.966   4.848   6.770
 1196TIP3    H2 3534   4.095   4.768   6.762
 1197TIP3   OH2 3535   7.812   5.277   3.250
 1197TIP3    H1 3536   7.816   5.334   3.173
 1197TIP3    H2 3537   7.783   5.192   3.215
 1198TIP3   OH2 3538   4.001   7.125   0.809
 1198TIP3    H1 3539   3.930   7.112   0.872
 1198TIP3    H2 3540   4.068   7.060   0.835
 1199TIP3   OH2 3541   4.173   2.434   0.528
 1199TIP3    H1 3542   4.258   2.401   0.497
 1199TIP3    H2 3543   4.177   2.425   0.623
 1200TIP3   OH2 3544   6.948   2.164   1.235
 1200TIP3    H1 3545   6.926   2.102   1.165
 1200TIP3    H2 3546   6.877   2.228   1.233
 1201TIP3   OH2 3547   0.974   6.821   1.150
 1201TIP3    H1 3548   0.939   6.897   1.197
 1201TIP3    H2 3549   1.001   6.760   1.218
 1202TIP3   OH2 3550   8.207   3.097   1.451
 1202TIP3    H1 3551   8.218   3.178   1.403
 1202TIP3    H2 3552   8.251   3.031   1.398
 1203TIP3   OH2 3553   2.216   6.643   2.558
 1203TIP3    H1 3554   2.166   6.720   2.586
 1203TIP3    H2 3555   2.151   6.573   2.552
 1204TIP3   OH2 3556   2.380   5.728   4.700
 1204TIP3    H1 3557   2.471   5.699   4.699
 1204TIP3    H2 3558   2.382   5.816   4.662
 1205TIP3   OH2 3559   4.585   6.132   5.443
 1205TIP3    H1 3560   4.669   6.105   5.405
 1205TIP3    H2 3561   4.599   6.224   5.468
 1206TIP3   OH2 3562   6.331   3.925   6.676
 1206TIP3    H1 3563   6.383   3.880   6.610
 1206TIP3    H2 3564   6.326   4.016   6.645
 1207TIP3   OH2 3565   1.194   2.635   0.923
 1207TIP3    H1 3566   1.264   2.622   0.986
 1207TIP3    H2 3567   1.114   2.619   0.972
 1208TIP3   OH2 3568   0.484   5.661   2.538
 1208TIP3    H1 3569   0.572   5.642   2.570
 1208TIP3    H2 3570   0.426   5.607   2.592
 1209TIP3   OH2 3571   0.390   2.671   0.094
 1209TIP3    H1 3572   0.387   2.735   0.023
 1209TIP3    H2 3573   0.478   2.679   0.130
 1210TIP3   OH2 3574   6.355   2.804   1.954
 1210TIP3    H1 3575   6.274   2.805   1.904
 1210TIP3    H2 3576   6.394   2.891   1.938
 1211TIP3   OH2 3577   8.225   5.950   3.561
 1211TIP3    H1 3578   8.320   5.958   3.564
 1211TIP3    H2 3579   8.193   6.019   3.619
 1212TIP3   OH2 3580   3.927   1.357   1.565
 1212TIP3    H1 3581   3.989   1.415   1.523
 1212TIP3    H2 3582   3.928   1.278   1.511
 1213TIP3   OH2 3583   2.019   2.086   1.714
 1213TIP3    H1 3584   1.994   2.002   1.676
 1213TIP3    H2 3585   1.946   2.144   1.693
 1214TIP3   OH2 3586   3.455   0.217   1.776
 1214TIP3    H1 3587   3.520   0.160   1.816
 1214TIP3    H2 3588   3.463   0.300   1.823
 1215TIP3   OH2 3589   6.064   3.825   1.004
 1215TIP3    H1 3590   6.024   3.766   1.069
 1215TIP3    H2 3591   5.991   3.851   0.948
 1216TIP3   OH2 3592   7.492   7.576   5.326
 1216TIP3    H1 3593   7.414   7.631   5.340
 1216TIP3    H2 3594   7.566   7.637   5.334
 1217TIP3   OH2 3595   5.915   0.567   3.989
 1217TIP3    H1 3596   5.939   0.629   4.058
 1217TIP3    H2 3597   5.904   0.484   4.034
 1218TIP3   OH2 3598   3.977   5.172   5.736
 1218TIP3    H1 3599   3.980   5.251   5.790
 1218TIP3    H2 3600   3.960   5.204   5.647
 1219TIP3   OH2 3601   0.304   7.732   0.075
 1219TIP3    H1 3602   0.366   7.737   0.002
 1219TIP3    H2 3603   0.218   7.738   0.033
 1220TIP3   OH2 3604   6.039   7.015   5.384
 1220TIP3    H1 3605   6.106   7.066   5.429
 1220TIP3    H2 3606   6.005   6.955   5.451
 1221TIP3   OH2 3607   6.375   4.469   6.592
 1221TIP3    H1 3608   6.310   4.534   6.567
 1221TIP3    H2 3609   6.413   4.440   6.509
 1222TIP3   OH2 3610   6.231   2.857   5.849
 1222TIP3    H1 3611   6.214   2.916   5.776
 1222TIP3    H2 3612   6.156   2.797   5.849
 1223TIP3   OH2 3613   1.756   7.592   2.481
 1223TIP3    H1 3614   1.695   7.519   2.471
 1223TIP3    H2 3615   1.792   7.582   2.569
 1224TIP3   OH2 3616   4.425   7.332   0.968
 1224TIP3    H1 3617   4.341   7.289   0.952
 1224TIP3    H2 3618   4.470   7.276   1.031
 1225TIP3   OH2 3619   4.709   5.328   6.684
 1225TIP3    H1 3620   4.720   5.318   6.589
 1225TIP3    H2 3621   4.662   5.250   6.712
 1226TIP3   OH2 3622   0.220   2.706   3.241
 1226TIP3    H1 3623   0.194   2.616   3.261
 1226TIP3    H2 3624   0.234   2.746   3.327
 1227TIP3   OH2 3625   5.565   4.117   0.146
 1227TIP3    H1 3626   5.492   4.088   0.092
 1227TIP3    H2 3627   5.622   4.041   0.153
 1228TIP3   OH2 3628   3.209   2.347   2.127
 1228TIP3    H1 3629   3.261   2.273   2.093
 1228TIP3    H2 3630   3.167   2.312   2.206
 1229TIP3   OH2 3631   6.415   6.913   0.973
 1229TIP3    H1 3632   6.419   6.972   1.048
 1229TIP3    H2 3633   6.343   6.948   0.920
 1230TIP3   OH2 3634   7.951   1.983   0.932
 1230TIP3    H1 3635   7.960   1.968   0.838
 1230TIP3    H2 3636   7.896   1.911   0.963
 1231TIP3   OH2 3637   5.636   3.107   1.366
 1231TIP3    H1 3638   5.562   3.048   1.359
 1231TIP3    H2 3639   5.611   3.170   1.433
 1232TIP3   OH2 3640   1.157   3.602   0.548
 1232TIP3    H1 3641   1.124   3.636   0.631
 1232TIP3    H2 3642   1.181   3.681   0.498
 1233TIP3   OH2 3643   4.307   5.108   5.011
 1233TIP3    H1 3644   4.257   5.164   4.951
 1233TIP3    H2 3645   4.375   5.166   5.046
 1234TIP3   OH2 3646   5.878   2.836   1.830
 1234TIP3    H1 3647   5.837   2.803   1.750
 1234TIP3    H2 3648   5.962   2.790   1.834
 1235TIP3   OH2 3649   3.492   2.395   5.988
 1235TIP3    H1 3650   3.552   2.320   5.988
 1235TIP3    H2 3651   3.526   2.451   5.918
 1236TIP3   OH2 3652   1.352   3.534   3.067
 1236TIP3    H1 3653   1.423   3.473   3.086
 1236TIP3    H2 3654   1.367   3.560   2.976
 1237TIP3   OH2 3655   6.696   5.215   6.643
 1237TIP3    H1 3656   6.720   5.146   6.581
 1237TIP3    H2 3657   6.762   5.284   6.630
 1238TIP3   OH2 3658   4.804   5.576   6.274
 1238TIP3    H1 3659   4.836   5.555   6.362
 1238TIP3    H2 3660   4.720   5.531   6.268
 1239TIP3   OH2 3661   4.724   3.325   0.999
 1239TIP3    H1 3662   4.702   3.364   1.083
 1239TIP3    H2 3663   4.648   3.342   0.944
 1240TIP3   OH2 3664   1.900   5.641   3.120
 1240TIP3    H1 3665   1.935   5.556   3.092
 1240TIP3    H2 3666   1.963   5.673   3.184
 1241TIP3   OH2 3667   6.651   6.045   4.029
 1241TIP3    H1 3668   6.568   6.049   3.981
 1241TIP3    H2 3669   6.669   6.136   4.054
 1242TIP3   OH2 3670   4.015   1.516   0.293
 1242TIP3    H1 3671   3.950   1.480   0.234
 1242TIP3    H2 3672   4.087   1.545   0.236
 1243TIP3   OH2 3673   5.597   7.485   0.226
 1243TIP3    H1 3674   5.570   7.436   0.148
 1243TIP3    H2 3675   5.583   7.577   0.203
 1244TIP3   OH2 3676   3.365   1.977   2.910
 1244TIP3    H1 3677   3.292   2.020   2.867
 1244TIP3    H2 3678   3.330   1.893   2.941
 1245TIP3   OH2 3679   8.052   1.949   1.274
 1245TIP3    H1 3680   8.110   2.011   1.231
 1245TIP3    H2 3681   7.965   1.987   1.267
 1246TIP3   OH2 3682   1.919   2.781   1.763
 1246TIP3    H1 3683   2.002   2.812   1.727
 1246TIP3    H2 3684   1.856   2.794   1.692
 1247TIP3   OH2 3685   6.395   0.782   3.295
 1247TIP3    H1 3686   6.367   0.873   3.307
 1247TIP3    H2 3687   6.490   0.787   3.285
 1248TIP3   OH2 3688   6.343   2.032   1.379
 1248TIP3    H1 3689   6.435   2.056   1.379
 1248TIP3    H2 3690   6.304   2.086   1.310
 1249TIP3   OH2 3691   0.200   0.603   5.154
 1249TIP3    H1 3692   0.137   0.639   5.216
 1249TIP3    H2 3693   0.212   0.673   5.089
 1250TIP3   OH2 3694   2.444   0.372   3.722
 1250TIP3    H1 3695   2.475   0.462   3.733
 1250TIP3    H2 3696   2.511   0.330   3.668
 1251TIP3   OH2 3697   2.407   6.663   0.641
 1251TIP3    H1 3698   2.355   6.671   0.561
 1251TIP3    H2 3699   2.345   6.683   0.712
 1252TIP3   OH2 3700   1.873   7.654   5.294
 1252TIP3    H1 3701   1.904   7.679   5.207
 1252TIP3    H2 3702   1.825   7.730   5.325
 1253TIP3   OH2 3703   2.749   0.750   1.678
 1253TIP3    H1 3704   2.818   0.688   1.699
 1253TIP3    H2 3705   2.677   0.728   1.737
 1254TIP3   OH2 3706   7.629   6.235   3.563
 1254TIP3    H1 3707   7.658   6.291   3.635
 1254TIP3    H2 3708   7.559   6.182   3.601
 1255TIP3   OH2 3709   8.024   3.727   1.341
 1255TIP3    H1 3710   7.994   3.736   1.251
 1255TIP3    H2 3711   8.100   3.669   1.336
 1256TIP3   OH2 3712   0.801   1.781   5.826
 1256TIP3    H1 3713   0.889   1.750   5.807
 1256TIP3    H2 3714   0.747   1.747   5.755
 1257TIP3   OH2 3715   6.568   1.238   5.595
 1257TIP3    H1 3716   6.625   1.179   5.546
 1257TIP3    H2 3717   6.501   1.265   5.532
 1258TIP3   OH2 3718   2.698   0.386   0.367
 1258TIP3    H1 3719   2.630   0.415   0.427
 1258TIP3    H2 3720   2.778   0.430   0.398
 1259TIP3   OH2 3721   3.710   3.995   5.924
 1259TIP3    H1 3722   3.791   4.013   5.973
 1259TIP3    H2 3723   3.646   4.056   5.961
 1260TIP3   OH2 3724   1.356   4.842   0.365
 1260TIP3    H1 3725   1.408   4.896   0.305
 1260TIP3    H2 3726   1.296   4.794   0.309
 1261TIP3   OH2 3727   1.761   0.517   3.534
 1261TIP3    H1 3728   1.742   0.584   3.599
 1261TIP3    H2 3729   1.676   0.479   3.512
 1262TIP3   OH2 3730   3.919   5.740   5.045
 1262TIP3    H1 3731   3.903   5.646   5.047
 1262TIP3    H2 3732   4.001   5.749   4.996
 1263TIP3   OH2 3733   5.265   6.810   3.827
 1263TIP3    H1 3734   5.273   6.797   3.733
 1263TIP3    H2 3735   5.300   6.898   3.841
 1264TIP3   OH2 3736   0.964   1.859   3.415
 1264TIP3    H1 3737   0.904   1.854   3.489
 1264TIP3    H2 3738   0.946   1.944   3.375
 1265TIP3   OH2 3739   3.803   3.281   1.442
 1265TIP3    H1 3740   3.831   3.211   1.501
 1265TIP3    H2 3741   3.717   3.254   1.411
 1266TIP3   OH2 3742   1.760   5.430   4.792
 1266TIP3    H1 3743   1.718   5.349   4.823
 1266TIP3    H2 3744   1.791   5.473   4.872
 1267TIP3   OH2 3745   4.340   2.724   3.138
 1267TIP3    H1 3746   4.343   2.640   3.183
 1267TIP3    H2 3747   4.411   2.720   3.074
 1268TIP3   OH2 3748   4.492   5.831  -0.010
 1268TIP3    H1 3749   4.460   5.921  -0.005
 1268TIP3    H2 3750   4.510   5.806   0.080
 1269TIP3   OH2 3751   2.663   5.170   6.662
 1269TIP3    H1 3752   2.632   5.120   6.586
 1269TIP3    H2 3753   2.594   5.233   6.679
 1270TIP3   OH2 3754   1.270   5.350   2.321
 1270TIP3    H1 3755   1.359   5.316   2.320
 1270TIP3    H2 3756   1.275   5.434   2.276
 1271TIP3   OH2 3757   6.236   3.289   1.586
 1271TIP3    H1 3758   6.229   3.210   1.639
 1271TIP3    H2 3759   6.152   3.295   1.542
 1272TIP3   OH2 3760   2.991   4.726   3.052
 1272TIP3    H1 3761   2.976   4.693   3.141
 1272TIP3    H2 3762   2.908   4.766   3.027
 1273TIP3   OH2 3763   7.553   7.683   3.481
 1273TIP3    H1 3764   7.506   7.739   3.544
 1273TIP3    H2 3765   7.503   7.690   3.400
 1274TIP3   OH2 3766   5.241   4.235   6.259
 1274TIP3    H1 3767   5.227   4.205   6.169
 1274TIP3    H2 3768   5.325   4.196   6.284
 1275TIP3   OH2 3769   2.388   2.503   3.894
 1275TIP3    H1 3770   2.431   2.452   3.963
 1275TIP3    H2 3771   2.458   2.524   3.833
 1276TIP3   OH2 3772   5.841   3.261   3.066
 1276TIP3    H1 3773   5.786   3.185   3.084
 1276TIP3    H2 3774   5.831   3.277   2.973
 1277TIP3   OH2 3775   3.706   4.835   2.890
 1277TIP3    H1 3776   3.623   4.874   2.865
 1277TIP3    H2 3777   3.738   4.791   2.811
 1278TIP3   OH2 3778   6.549   2.481   2.722
 1278TIP3    H1 3779   6.491   2.533   2.777
 1278TIP3    H2 3780   6.503   2.397   2.711
 1279TIP3   OH2 3781   7.868   0.079   3.658
 1279TIP3    H1 3782   7.890   0.120   3.742
 1279TIP3    H2 3783   7.945   0.095   3.603
 1280TIP3   OH2 3784   3.594   5.578   5.165
 1280TIP3    H1 3785   3.629   5.542   5.247
 1280TIP3    H2 3786   3.545   5.505   5.126
 1281TIP3   OH2 3787   5.410   5.708   6.722
 1281TIP3    H1 3788   5.411   5.645   6.794
 1281TIP3    H2 3789   5.487   5.763   6.737
 1282TIP3   OH2 3790   0.496   3.556   4.254
 1282TIP3    H1 3791   0.478   3.620   4.323
 1282TIP3    H2 3792   0.416   3.554   4.202
 1283TIP3   OH2 3793   4.843   4.418   0.086
 1283TIP3    H1 3794   4.900   4.468   0.145
 1283TIP3    H2 3795   4.832   4.475   0.010
 1284TIP3   OH2 3796   6.474   1.585   2.137
 1284TIP3    H1 3797   6.412   1.615   2.203
 1284TIP3    H2 3798   6.527   1.663   2.116
 1285TIP3   OH2 3799   5.331   4.670   0.238
 1285TIP3    H1 3800   5.307   4.579   0.254
 1285TIP3    H2 3801   5.250   4.719   0.252
 1286TIP3   OH2 3802   3.405   2.230   2.373
 1286TIP3    H1 3803   3.481   2.275   2.411
 1286TIP3    H2 3804   3.422   2.231   2.279
 1287TIP3   OH2 3805   4.565   2.119   2.378
 1287TIP3    H1 3806   4.512   2.118   2.457
 1287TIP3    H2 3807   4.505   2.145   2.308
 1288TIP3   OH2 3808   7.747   1.293   6.183
 1288TIP3    H1 3809   7.658   1.322   6.205
 1288TIP3    H2 3810   7.734   1.215   6.129
 1289TIP3   OH2 3811   8.192   3.915   0.324
 1289TIP3    H1 3812   8.179   3.909   0.229
 1289TIP3    H2 3813   8.155   4.000   0.347
 1290TIP3   OH2 3814   6.928   4.110   0.442
 1290TIP3    H1 3815   6.924   4.095   0.537
 1290TIP3    H2 3816   6.935   4.022   0.404
 1291TIP3   OH2 3817   7.012  -0.015   3.714
 1291TIP3    H1 3818   6.962  -0.056   3.785
 1291TIP3    H2 3819   6.948  -0.003   3.644
 1292TIP3   OH2 3820   3.835   3.019   2.356
 1292TIP3    H1 3821   3.873   3.054   2.436
 1292TIP3    H2 3822   3.823   2.926   2.374
 1293TIP3   OH2 3823   6.363   2.818   1.186
 1293TIP3    H1 3824   6.381   2.771   1.267
 1293TIP3    H2 3825   6.448   2.853   1.159
 1294TIP3   OH2 3826   3.685   2.810   4.785
 1294TIP3    H1 3827   3.740   2.864   4.842
 1294TIP3    H2 3828   3.745   2.774   4.720
 1295TIP3   OH2 3829   6.353   7.522   5.527
 1295TIP3    H1 3830   6.405   7.596   5.495
 1295TIP3    H2 3831   6.283   7.513   5.462
 1296TIP3   OH2 3832   4.536   3.037   1.513
 1296TIP3    H1 3833   4.553   2.944   1.498
 1296TIP3    H2 3834   4.538   3.047   1.608
 1297TIP3   OH2 3835   3.310   0.481   0.012
 1297TIP3    H1 3836   3.300   0.385   0.014
 1297TIP3    H2 3837   3.238   0.511  -0.042
 1298TIP3   OH2 3838   0.843   7.593   1.533
 1298TIP3    H1 3839   0.792   7.518   1.564
 1298TIP3    H2 3840   0.788   7.669   1.552
 1299TIP3   OH2 3841   7.913   2.850   1.815
 1299TIP3    H1 3842   7.877   2.784   1.756
 1299TIP3    H2 3843   8.006   2.829   1.821
 1300TIP3   OH2 3844   4.004   6.734   2.110
 1300TIP3    H1 3845   3.951   6.718   2.188
 1300TIP3    H2 3846   4.033   6.826   2.119
 1301TIP3   OH2 3847   1.829   6.128   1.710
 1301TIP3    H1 3848   1.883   6.050   1.706
 1301TIP3    H2 3849   1.740   6.095   1.723
 1302TIP3   OH2 3850   3.792   2.095   3.806
 1302TIP3    H1 3851   3.751   2.169   3.850
 1302TIP3    H2 3852   3.883   2.097   3.835
 1303TIP3   OH2 3853   3.814   1.655   2.347
 1303TIP3    H1 3854   3.845   1.564   2.346
 1303TIP3    H2 3855   3.729   1.651   2.392
 1304TIP3   OH2 3856   7.931   6.441   3.627
 1304TIP3    H1 3857   7.932   6.477   3.538
 1304TIP3    H2 3858   7.980   6.359   3.620
 1305TIP3   OH2 3859   7.164   2.812   1.734
 1305TIP3    H1 3860   7.224   2.865   1.786
 1305TIP3    H2 3861   7.220   2.747   1.692
 1306TIP3   OH2 3862   5.205   3.875   5.545
 1306TIP3    H1 3863   5.169   3.812   5.483
 1306TIP3    H2 3864   5.244   3.821   5.613
 1307TIP3   OH2 3865   6.950   2.012   5.829
 1307TIP3    H1 3866   6.895   2.014   5.751
 1307TIP3    H2 3867   7.039   2.020   5.796
 1308TIP3   OH2 3868   5.373   5.183   5.859
 1308TIP3    H1 3869   5.448   5.132   5.889
 1308TIP3    H2 3870   5.355   5.150   5.771
 1309TIP3   OH2 3871   3.810   7.626   5.507
 1309TIP3    H1 3872   3.781   7.535   5.514
 1309TIP3    H2 3873   3.902   7.620   5.482
 1310TIP3   OH2 3874   5.900   3.058   6.575
 1310TIP3    H1 3875   5.816   3.103   6.562
 1310TIP3    H2 3876   5.956   3.093   6.506
 1311TIP3   OH2 3877   2.228   6.688   0.430
 1311TIP3    H1 3878   2.227   6.770   0.379
 1311TIP3    H2 3879   2.142   6.650   0.415
 1312TIP3   OH2 3880   0.718   7.288   2.516
 1312TIP3    H1 3881   0.798   7.335   2.537
 1312TIP3    H2 3882   0.653   7.356   2.500
 1313TIP3   OH2 3883   6.212   7.527   4.287
 1313TIP3    H1 3884   6.219   7.451   4.229
 1313TIP3    H2 3885   6.211   7.489   4.375
 1314TIP3   OH2 3886   3.045   3.776   5.519
 1314TIP3    H1 3887   3.062   3.825   5.599
 1314TIP3    H2 3888   3.025   3.687   5.550
 1315TIP3   OH2 3889   5.682   2.012   6.257
 1315TIP3    H1 3890   5.683   2.055   6.343
 1315TIP3    H2 3891   5.620   1.939   6.268
 1316TIP3   OH2 3892   6.022   5.129   6.101
 1316TIP3    H1 3893   6.072   5.081   6.035
 1316TIP3    H2 3894   5.939   5.149   6.058
 1317TIP3   OH2 3895   6.582   4.501   6.378
 1317TIP3    H1 3896   6.618   4.502   6.290
 1317TIP3    H2 3897   6.512   4.566   6.376
 1318TIP3   OH2 3898   3.119   4.002   1.403
 1318TIP3    H1 3899   3.206   3.971   1.429
 1318TIP3    H2 3900   3.063   3.924   1.411
 1319TIP3   OH2 3901   6.811   4.994   4.880
 1319TIP3    H1 3902   6.857   4.936   4.819
 1319TIP3    H2 3903   6.812   4.948   4.963
 1320TIP3   OH2 3904   6.854   5.166   0.054
 1320TIP3    H1 3905   6.765   5.133   0.039
 1320TIP3    H2 3906   6.911   5.092   0.036
 1321TIP3   OH2 3907   7.023   0.189   5.179
 1321TIP3    H1 3908   6.997   0.278   5.153
 1321TIP3    H2 3909   6.974   0.132   5.121
 1322TIP3   OH2 3910   6.226   1.296   4.530
 1322TIP3    H1 3911   6.264   1.208   4.531
 1322TIP3    H2 3912   6.173   1.300   4.610
 1323TIP3   OH2 3913   8.094   3.924   2.655
 1323TIP3    H1 3914   8.170   3.981   2.644
 1323TIP3    H2 3915   8.085   3.914   2.750
 1324TIP3   OH2 3916   4.996   3.444   3.794
 1324TIP3    H1 3917   4.981   3.459   3.887
 1324TIP3    H2 3918   4.978   3.351   3.781
 1325TIP3   OH2 3919   2.238   5.581   0.603
 1325TIP3    H1 3920   2.237   5.488   0.583
 1325TIP3    H2 3921   2.173   5.591   0.673
 1326TIP3   OH2 3922   7.903   2.162   1.789
 1326TIP3    H1 3923   7.992   2.169   1.754
 1326TIP3    H2 3924   7.857   2.104   1.728
 1327TIP3   OH2 3925   7.179   5.944   5.505
 1327TIP3    H1 3926   7.115   5.938   5.434
 1327TIP3    H2 3927   7.252   5.994   5.467
 1328TIP3   OH2 3928   0.595   5.340   0.581
 1328TIP3    H1 3929   0.501   5.362   0.582
 1328TIP3    H2 3930   0.615   5.318   0.672
 1329TIP3   OH2 3931   3.420   6.000   3.826
 1329TIP3    H1 3932   3.392   6.084   3.864
 1329TIP3    H2 3933   3.510   6.015   3.799
 1330TIP3   OH2 3934   2.838   2.472   3.557
 1330TIP3    H1 3935   2.845   2.390   3.507
 1330TIP3    H2 3936   2.916   2.474   3.611
 1331TIP3   OH2 3937   3.928   5.867   3.633
 1331TIP3    H1 3938   4.018   5.875   3.601
 1331TIP3    H2 3939   3.878   5.839   3.557
 1332TIP3   OH2 3940   0.297   2.020   1.376
 1332TIP3    H1 3941   0.208   1.987   1.362
 1332TIP3    H2 3942   0.286   2.114   1.388
 1333TIP3   OH2 3943   7.443   3.980   3.857
 1333TIP3    H1 3944   7.351   3.985   3.883
 1333TIP3    H2 3945   7.485   4.049   3.907
 1334TIP3   OH2 3946   6.410   1.613   4.069
 1334TIP3    H1 3947   6.318   1.588   4.070
 1334TIP3    H2 3948   6.427   1.645   4.158
 1335TIP3   OH2 3949   2.014   1.642   0.648
 1335TIP3    H1 3950   1.953   1.570   0.664
 1335TIP3    H2 3951   2.100   1.601   0.644
 1336TIP3   OH2 3952   5.975   4.806   5.147
 1336TIP3    H1 3953   6.055   4.803   5.095
 1336TIP3    H2 3954   5.910   4.847   5.089
 1337TIP3   OH2 3955   6.586   6.071   2.221
 1337TIP3    H1 3956   6.554   6.113   2.141
 1337TIP3    H2 3957   6.526   6.099   2.289
 1338TIP3   OH2 3958   2.105   5.841   1.059
 1338TIP3    H1 3959   2.168   5.772   1.036
 1338TIP3    H2 3960   2.024   5.795   1.077
 1339TIP3   OH2 3961   7.131   2.658   6.188
 1339TIP3    H1 3962   7.108   2.647   6.280
 1339TIP3    H2 3963   7.052   2.635   6.139
 1340TIP3   OH2 3964   2.654   2.991   5.852
 1340TIP3    H1 3965   2.714   2.964   5.921
 1340TIP3    H2 3966   2.703   2.978   5.771
 1341TIP3   OH2 3967   1.779   5.862   5.772
 1341TIP3    H1 3968   1.732   5.848   5.689
 1341TIP3    H2 3969   1.798   5.956   5.774
 1342TIP3   OH2 3970   2.667   5.157   0.571
 1342TIP3    H1 3971   2.713   5.175   0.489
 1342TIP3    H2 3972   2.722   5.093   0.616
 1343TIP3   OH2 3973   4.112   6.324   5.916
 1343TIP3    H1 3974   4.150   6.409   5.891
 1343TIP3    H2 3975   4.096   6.280   5.833
 1344TIP3   OH2 3976   1.352   5.350   0.875
 1344TIP3    H1 3977   1.318   5.301   0.800
 1344TIP3    H2 3978   1.437   5.383   0.846
 1345TIP3   OH2 3979   2.689   3.371   3.957
 1345TIP3    H1 3980   2.687   3.353   4.051
 1345TIP3    H2 3981   2.626   3.442   3.944
 1346TIP3   OH2 3982   6.305   4.154   2.420
 1346TIP3    H1 3983   6.224   4.107   2.399
 1346TIP3    H2 3984   6.290   4.244   2.391
 1347TIP3   OH2 3985   5.327   2.208   5.802
 1347TIP3    H1 3986   5.337   2.299   5.776
 1347TIP3    H2 3987   5.412   2.183   5.836
 1348TIP3   OH2 3988   5.429   7.171   0.514
 1348TIP3    H1 3989   5.495   7.133   0.456
 1348TIP3    H2 3990   5.346   7.144   0.476
 1349TIP3   OH2 3991   3.578   6.272   2.627
 1349TIP3    H1 3992   3.578   6.178   2.646
 1349TIP3    H2 3993   3.486   6.294   2.614
 1350TIP3   OH2 3994   4.711   6.822   3.776
 1350TIP3    H1 3995   4.662   6.742   3.797
 1350TIP3    H2 3996   4.719   6.820   3.681
 1351TIP3   OH2 3997   0.817   2.295   1.024
 1351TIP3    H1 3998   0.782   2.206   1.011
 1351TIP3    H2 3999   0.770   2.329   1.100
 1352TIP3   OH2 4000   1.309   1.381   1.106
 1352TIP3    H1 4001   1.264   1.303   1.074
 1352TIP3    H2 4002   1.397   1.351   1.127
 1353TIP3   OH2 4003   4.889   5.371   1.921
 1353TIP3    H1 4004   4.895   5.368   1.826
 1353TIP3    H2 4005   4.795   5.370   1.939
 1354TIP3   OH2 4006   4.847   6.627   4.324
 1354TIP3    H1 4007   4.927   6.603   4.278
 1354TIP3    H2 4008   4.808   6.544   4.350
 1355TIP3   OH2 4009   5.512   2.755   5.930
 1355TIP3    H1 4010   5.541   2.675   5.887
 1355TIP3    H2 4011   5.419   2.761   5.910
 1356TIP3   OH2 4012   3.211   2.877   4.534
 1356TIP3    H1 4013   3.251   2.908   4.453
 1356TIP3    H2 4014   3.229   2.946   4.598
 1357TIP3   OH2 4015   5.545   3.764   4.116
 1357TIP3    H1 4016   5.592   3.748   4.198
 1357TIP3    H2 4017   5.562   3.686   4.063
 1358TIP3   OH2 4018   6.788   1.317   1.622
 1358TIP3    H1 4019   6.835   1.374   1.684
 1358TIP3    H2 4020   6.783   1.369   1.541
 1359TIP3   OH2 4021   0.306   5.951   2.790
 1359TIP3    H1 4022   0.378   6.009   2.814
 1359TIP3    H2 4023   0.281   5.980   2.702
 1360TIP3   OH2 4024   1.116   6.100   6.136
 1360TIP3    H1 4025   1.127   6.056   6.051
 1360TIP3    H2 4026   1.181   6.058   6.192
 1361TIP3   OH2 4027   5.914   4.769   5.409
 1361TIP3    H1 4028   5.922   4.846   5.466
 1361TIP3    H2 4029   5.912   4.805   5.320
 1362TIP3   OH2 4030   5.428   2.461   5.467
 1362TIP3    H1 4031   5.432   2.557   5.459
 1362TIP3    H2 4032   5.340   2.439   5.436
 1363TIP3   OH2 4033   1.849   4.088   2.438
 1363TIP3    H1 4034   1.928   4.113   2.486
 1363TIP3    H2 4035   1.797   4.039   2.500
 1364TIP3   OH2 4036   3.152   6.692   5.012
 1364TIP3    H1 4037   3.110   6.610   4.987
 1364TIP3    H2 4038   3.122   6.708   5.101
 1365TIP3   OH2 4039   0.841   2.275   3.806
 1365TIP3    H1 4040   0.790   2.249   3.882
 1365TIP3    H2 4041   0.884   2.194   3.777
 1366TIP3   OH2 4042   8.285   6.140   1.491
 1366TIP3    H1 4043   8.221   6.099   1.549
 1366TIP3    H2 4044   8.245   6.136   1.404
 1367TIP3   OH2 4045   1.042   4.919   2.785
 1367TIP3    H1 4046   1.119   4.917   2.728
 1367TIP3    H2 4047   1.028   5.012   2.803
 1368TIP3   OH2 4048   4.949   6.174   2.659
 1368TIP3    H1 4049   4.912   6.167   2.747
 1368TIP3    H2 4050   4.873   6.186   2.601
 1369TIP3   OH2 4051   4.021   4.938   5.384
 1369TIP3    H1 4052   4.072   5.008   5.426
 1369TIP3    H2 4053   4.078   4.861   5.389
 1370TIP3   OH2 4054   4.792   0.208   2.393
 1370TIP3    H1 4055   4.760   0.238   2.308
 1370TIP3    H2 4056   4.879   0.172   2.374
 1371TIP3   OH2 4057   3.900   5.708   6.479
 1371TIP3    H1 4058   3.847   5.755   6.544
 1371TIP3    H2 4059   3.840   5.646   6.439
 1372TIP3   OH2 4060   5.286   5.694   0.269
 1372TIP3    H1 4061   5.316   5.650   0.189
 1372TIP3    H2 4062   5.220   5.755   0.239
 1373TIP3   OH2 4063   4.520   2.219   6.201
 1373TIP3    H1 4064   4.489   2.267   6.277
 1373TIP3    H2 4065   4.441   2.198   6.151
 1374TIP3   OH2 4066   6.440   7.094   6.748
 1374TIP3    H1 4067   6.353   7.099   6.709
 1374TIP3    H2 4068   6.491   7.161   6.703
 1375TIP3   OH2 4069   6.758   3.280   1.080
 1375TIP3    H1 4070   6.820   3.341   1.040
 1375TIP3    H2 4071   6.805   3.196   1.081
 1376TIP3   OH2 4072   2.288   0.722   3.563
 1376TIP3    H1 4073   2.293   0.712   3.468
 1376TIP3    H2 4074   2.352   0.790   3.583
 1377TIP3   OH2 4075   0.859   6.880   6.747
 1377TIP3    H1 4076   0.943   6.891   6.791
 1377TIP3    H2 4077   0.799   6.852   6.816
 1378TIP3   OH2 4078   1.604   7.683   3.068
 1378TIP3    H1 4079   1.609   7.603   3.120
 1378TIP3    H2 4080   1.540   7.663   3.000
 1379TIP3   OH2 4081   3.747   6.107   3.148
 1379TIP3    H1 4082   3.753   6.171   3.218
 1379TIP3    H2 4083   3.796   6.146   3.075
 1380TIP3   OH2 4084   2.174   5.866   5.269
 1380TIP3    H1 4085   2.119   5.940   5.243
 1380TIP3    H2 4086   2.208   5.832   5.186
 1381TIP3   OH2 4087   3.838   1.424   0.091
 1381TIP3    H1 4088   3.801   1.504   0.052
 1381TIP3    H2 4089   3.878   1.378   0.017
 1382TIP3   OH2 4090   7.013   5.199   4.827
 1382TIP3    H1 4091   6.940   5.137   4.815
 1382TIP3    H2 4092   7.061   5.164   4.903
 1383TIP3   OH2 4093   6.334   1.191   0.274
 1383TIP3    H1 4094   6.317   1.167   0.366
 1383TIP3    H2 4095   6.249   1.220   0.241
 1384TIP3   OH2 4096   3.458   4.130   0.285
 1384TIP3    H1 4097   3.481   4.038   0.274
 1384TIP3    H2 4098   3.421   4.136   0.373
 1385TIP3   OH2 4099   7.726   1.989   2.529
 1385TIP3    H1 4100   7.819   2.008   2.543
 1385TIP3    H2 4101   7.725   1.928   2.455
 1386TIP3   OH2 4102   0.826   1.057   5.393
 1386TIP3    H1 4103   0.880   0.981   5.413
 1386TIP3    H2 4104   0.820   1.105   5.476
 1387TIP3   OH2 4105   1.655   3.115   6.154
 1387TIP3    H1 4106   1.711   3.079   6.084
 1387TIP3    H2 4107   1.566   3.106   6.120
 1388TIP3   OH2 4108   1.670   3.515   4.592
 1388TIP3    H1 4109   1.670   3.559   4.507
 1388TIP3    H2 4110   1.665   3.422   4.571
 1389TIP3   OH2 4111   5.515   0.998   5.791
 1389TIP3    H1 4112   5.478   1.039   5.869
 1389TIP3    H2 4113   5.476   1.047   5.718
 1390TIP3   OH2 4114   7.953   3.695   2.566
 1390TIP3    H1 4115   7.956   3.682   2.471
 1390TIP3    H2 4116   7.985   3.784   2.579
 1391TIP3   OH2 4117   7.603   3.367   6.368
 1391TIP3    H1 4118   7.598   3.304   6.440
 1391TIP3    H2 4119   7.696   3.372   6.347
 1392TIP3   OH2 4120   7.843   1.699   3.389
 1392TIP3    H1 4121   7.856   1.658   3.303
 1392TIP3    H2 4122   7.798   1.632   3.441
 1393TIP3   OH2 4123   0.283   4.846   0.446
 1393TIP3    H1 4124   0.359   4.795   0.472
 1393TIP3    H2 4125   0.309   4.889   0.364
 1394TIP3   OH2 4126   1.379   3.288   3.901
 1394TIP3    H1 4127   1.366   3.380   3.876
 1394TIP3    H2 4128   1.328   3.276   3.980
 1395TIP3   OH2 4129   0.301   5.192   4.613
 1395TIP3    H1 4130   0.221   5.230   4.577
 1395TIP3    H2 4131   0.272   5.122   4.671
 1396TIP3   OH2 4132   7.534   5.821   0.759
 1396TIP3    H1 4133   7.492   5.748   0.804
 1396TIP3    H2 4134   7.597   5.781   0.700
 1397TIP3   OH2 4135   8.175   1.325   0.642
 1397TIP3    H1 4136   8.231   1.259   0.683
 1397TIP3    H2 4137   8.122   1.275   0.579
 1398TIP3   OH2 4138   5.735   6.981   1.658
 1398TIP3    H1 4139   5.819   6.984   1.705
 1398TIP3    H2 4140   5.676   7.034   1.711
 1399TIP3   OH2 4141   6.653   6.630   2.361
 1399TIP3    H1 4142   6.739   6.588   2.372
 1399TIP3    H2 4143   6.623   6.645   2.451
 1400TIP3   OH2 4144   7.162   0.733   2.850
 1400TIP3    H1 4145   7.229   0.666   2.860
 1400TIP3    H2 4146   7.123   0.714   2.764
 1401TIP3   OH2 4147   2.967   5.177   6.683
 1401TIP3    H1 4148   2.872   5.185   6.676
 1401TIP3    H2 4149   2.989   5.100   6.629
 1402TIP3   OH2 4150   7.961   1.391   2.846
 1402TIP3    H1 4151   7.868   1.394   2.868
 1402TIP3    H2 4152   7.963   1.355   2.757
 1403TIP3   OH2 4153   7.257   2.873   1.451
 1403TIP3    H1 4154   7.341   2.847   1.489
 1403TIP3    H2 4155   7.264   2.967   1.438
 1404TIP3   OH2 4156   0.895   4.869   5.390
 1404TIP3    H1 4157   0.883   4.906   5.478
 1404TIP3    H2 4158   0.965   4.922   5.352
 1405TIP3   OH2 4159   6.442   3.862   4.302
 1405TIP3    H1 4160   6.456   3.837   4.210
 1405TIP3    H2 4161   6.394   3.944   4.297
 1406TIP3   OH2 4162   6.037   0.466   2.133
 1406TIP3    H1 4163   6.129   0.468   2.105
 1406TIP3    H2 4164   5.987   0.478   2.053
 1407TIP3   OH2 4165   0.901   2.912   6.012
 1407TIP3    H1 4166   0.902   3.007   6.026
 1407TIP3    H2 4167   0.811   2.892   5.987
 1408TIP3   OH2 4168   7.414   0.529   3.403
 1408TIP3    H1 4169   7.479   0.459   3.412
 1408TIP3    H2 4170   7.333   0.483   3.380
 1409TIP3   OH2 4171   0.295   1.598   2.333
 1409TIP3    H1 4172   0.293   1.584   2.428
 1409TIP3    H2 4173   0.354   1.672   2.321
 1410TIP3   OH2 4174   2.692   4.722   6.657
 1410TIP3    H1 4175   2.745   4.655   6.700
 1410TIP3    H2 4176   2.721   4.804   6.697
 1411TIP3   OH2 4177   7.185   2.347   3.256
 1411TIP3    H1 4178   7.162   2.360   3.348
 1411TIP3    H2 4179   7.101   2.352   3.209
 1412TIP3   OH2 4180   4.970   7.172   1.579
 1412TIP3    H1 4181   4.947   7.101   1.520
 1412TIP3    H2 4182   4.910   7.163   1.653
 1413TIP3   OH2 4183   2.185   4.807   0.350
 1413TIP3    H1 4184   2.191   4.897   0.382
 1413TIP3    H2 4185   2.228   4.810   0.264
 1414TIP3   OH2 4186   8.231   4.490   5.216
 1414TIP3    H1 4187   8.300   4.556   5.207
 1414TIP3    H2 4188   8.191   4.486   5.129
 1415TIP3   OH2 4189   6.733   2.757   3.514
 1415TIP3    H1 4190   6.723   2.714   3.429
 1415TIP3    H2 4191   6.683   2.703   3.574
 1416TIP3   OH2 4192   5.223   4.988   1.522
 1416TIP3    H1 4193   5.223   5.058   1.588
 1416TIP3    H2 4194   5.262   5.029   1.445
 1417TIP3   OH2 4195   7.450   7.313   6.740
 1417TIP3    H1 4196   7.502   7.356   6.807
 1417TIP3    H2 4197   7.387   7.379   6.712
 1418TIP3   OH2 4198   4.645   5.487   1.925
 1418TIP3    H1 4199   4.649   5.516   1.834
 1418TIP3    H2 4200   4.599   5.558   1.970
 1419TIP3   OH2 4201   3.551   2.319   0.028
 1419TIP3    H1 4202   3.463   2.305   0.062
 1419TIP3    H2 4203   3.545   2.294  -0.065
 1420TIP3   OH2 4204   5.289   0.654   1.135
 1420TIP3    H1 4205   5.367   0.675   1.084
 1420TIP3    H2 4206   5.312   0.675   1.225
 1421TIP3   OH2 4207   1.329   5.292   4.676
 1421TIP3    H1 4208   1.361   5.261   4.761
 1421TIP3    H2 4209   1.298   5.381   4.692
 1422TIP3   OH2 4210   0.980   3.341   4.740
 1422TIP3    H1 4211   0.903   3.329   4.685
 1422TIP3    H2 4212   0.944   3.358   4.827
 1423TIP3   OH2 4213   2.900   4.121   4.766
 1423TIP3    H1 4214   2.985   4.140   4.728
 1423TIP3    H2 4215   2.914   4.044   4.821
 1424TIP3   OH2 4216   4.904   2.495   5.667
 1424TIP3    H1 4217   4.955   2.436   5.611
 1424TIP3    H2 4218   4.813   2.471   5.650
 1425TIP3   OH2 4219   2.633   0.037   6.413
 1425TIP3    H1 4220   2.588   0.121   6.423
 1425TIP3    H2 4221   2.648   0.029   6.319
 1426TIP3   OH2 4222   7.179   1.624   5.597
 1426TIP3    H1 4223   7.238   1.578   5.655
 1426TIP3    H2 4224   7.187   1.579   5.513
 1427TIP3   OH2 4225   2.917   7.221   2.456
 1427TIP3    H1 4226   2.933   7.165   2.533
 1427TIP3    H2 4227   3.005   7.243   2.425
 1428TIP3   OH2 4228   5.189   3.801   3.214
 1428TIP3    H1 4229   5.117   3.862   3.225
 1428TIP3    H2 4230   5.164   3.746   3.140
 1429TIP3   OH2 4231   1.097   7.569   1.526
 1429TIP3    H1 4232   1.141   7.653   1.536
 1429TIP3    H2 4233   1.004   7.592   1.519
 1430TIP3   OH2 4234   7.186   5.674   3.797
 1430TIP3    H1 4235   7.167   5.606   3.732
 1430TIP3    H2 4236   7.260   5.722   3.760
 1431TIP3   OH2 4237   3.903   6.639   0.090
 1431TIP3    H1 4238   3.982   6.692   0.099
 1431TIP3    H2 4239   3.935   6.549   0.087
 1432TIP3   OH2 4240   6.573   3.181   2.396
 1432TIP3    H1 4241   6.631   3.109   2.424
 1432TIP3    H2 4242   6.572   3.241   2.470
 1433TIP3   OH2 4243   3.180   0.575   3.083
 1433TIP3    H1 4244   3.198   0.513   3.154
 1433TIP3    H2 4245   3.142   0.651   3.127
 1434TIP3   OH2 4246   2.380   2.278   5.490
 1434TIP3    H1 4247   2.395   2.370   5.509
 1434TIP3    H2 4248   2.402   2.269   5.397
 1435TIP3   OH2 4249   6.467   5.727   6.385
 1435TIP3    H1 4250   6.414   5.698   6.459
 1435TIP3    H2 4251   6.553   5.688   6.400
 1436TIP3   OH2 4252   6.526   4.834   3.086
 1436TIP3    H1 4253   6.495   4.744   3.082
 1436TIP3    H2 4254   6.532   4.862   2.995
 1437TIP3   OH2 4255   1.293   6.843   2.756
 1437TIP3    H1 4256   1.333   6.758   2.772
 1437TIP3    H2 4257   1.340   6.903   2.814
 1438TIP3   OH2 4258   5.378   2.731   4.241
 1438TIP3    H1 4259   5.434   2.670   4.193
 1438TIP3    H2 4260   5.321   2.768   4.174
 1439TIP3   OH2 4261   6.478   3.538   2.852
 1439TIP3    H1 4262   6.482   3.492   2.935
 1439TIP3    H2 4263   6.559   3.590   2.849
 1440TIP3   OH2 4264   2.325   2.084   2.767
 1440TIP3    H1 4265   2.290   2.167   2.801
 1440TIP3    H2 4266   2.416   2.104   2.745
 1441TIP3   OH2 4267   6.267   1.019   4.534
 1441TIP3    H1 4268   6.256   1.011   4.439
 1441TIP3    H2 4269   6.286   0.930   4.563
 1442TIP3   OH2 4270   3.958   6.400   5.307
 1442TIP3    H1 4271   3.915   6.383   5.223
 1442TIP3    H2 4272   4.028   6.335   5.311
 1443TIP3   OH2 4273   4.948   0.159   5.937
 1443TIP3    H1 4274   4.957   0.251   5.963
 1443TIP3    H2 4275   4.866   0.130   5.978
 1444TIP3   OH2 4276   1.068   0.829   0.227
 1444TIP3    H1 4277   1.137   0.840   0.162
 1444TIP3    H2 4278   0.990   0.809   0.176
 1445TIP3   OH2 4279   5.159   2.445   3.606
 1445TIP3    H1 4280   5.121   2.431   3.692
 1445TIP3    H2 4281   5.122   2.529   3.576
 1446TIP3   OH2 4282   7.728   3.688   2.287
 1446TIP3    H1 4283   7.736   3.768   2.338
 1446TIP3    H2 4284   7.678   3.714   2.209
 1447TIP3   OH2 4285   8.009   1.777   2.749
 1447TIP3    H1 4286   8.040   1.804   2.663
 1447TIP3    H2 4287   7.952   1.702   2.732
 1448TIP3   OH2 4288   4.449   7.377   2.634
 1448TIP3    H1 4289   4.460   7.370   2.540
 1448TIP3    H2 4290   4.355   7.369   2.649
 1449TIP3   OH2 4291   1.136   0.399   0.537
 1449TIP3    H1 4292   1.058   0.349   0.563
 1449TIP3    H2 4293   1.197   0.332   0.507
 1450TIP3   OH2 4294   5.122   1.586   6.166
 1450TIP3    H1 4295   5.149   1.564   6.255
 1450TIP3    H2 4296   5.169   1.667   6.146
 1451TIP3   OH2 4297   6.585   1.596   0.982
 1451TIP3    H1 4298   6.653   1.656   0.951
 1451TIP3    H2 4299   6.513   1.653   1.009
 1452TIP3   OH2 4300   3.527   7.600   4.977
 1452TIP3    H1 4301   3.501   7.513   4.946
 1452TIP3    H2 4302   3.447   7.639   5.011
 1453TIP3   OH2 4303   4.136   4.303   1.022
 1453TIP3    H1 4304   4.195   4.373   0.993
 1453TIP3    H2 4305   4.084   4.343   1.093
 1454TIP3   OH2 4306   3.601   7.893   4.480
 1454TIP3    H1 4307   3.568   7.837   4.550
 1454TIP3    H2 4308   3.566   7.854   4.400
 1455TIP3   OH2 4309   4.884   4.423   1.899
 1455TIP3    H1 4310   4.915   4.504   1.858
 1455TIP3    H2 4311   4.797   4.445   1.933
 1456TIP3   OH2 4312   7.242   3.696   6.531
 1456TIP3    H1 4313   7.257   3.669   6.440
 1456TIP3    H2 4314   7.234   3.613   6.579
 1457TIP3   OH2 4315   1.497   0.987   4.239
 1457TIP3    H1 4316   1.565   1.050   4.263
 1457TIP3    H2 4317   1.527   0.949   4.157
 1458TIP3   OH2 4318   4.223   7.458   5.183
 1458TIP3    H1 4319   4.235   7.373   5.227
 1458TIP3    H2 4320   4.307   7.502   5.191
 1459TIP3   OH2 4321   0.949   0.186   5.411
 1459TIP3    H1 4322   0.926   0.224   5.326
 1459TIP3    H2 4323   0.983   0.099   5.389
 1460TIP3   OH2 4324   4.796   4.359   3.681
 1460TIP3    H1 4325   4.802   4.425   3.611
 1460TIP3    H2 4326   4.886   4.352   3.715
 1461TIP3   OH2 4327   7.927   4.236   3.074
 1461TIP3    H1 4328   7.972   4.280   3.147
 1461TIP3    H2 4329   7.840   4.277   3.072
 1462TIP3   OH2 4330   0.681   2.581   5.266
 1462TIP3    H1 4331   0.742   2.655   5.271
 1462TIP3    H2 4332   0.630   2.587   5.347
 1463TIP3   OH2 4333   7.388   4.882   0.350
 1463TIP3    H1 4334   7.410   4.822   0.421
 1463TIP3    H2 4335   7.470   4.893   0.301
 1464TIP3   OH2 4336   3.565   5.766   4.306
 1464TIP3    H1 4337   3.611   5.741   4.226
 1464TIP3    H2 4338   3.513   5.843   4.281
 1465TIP3   OH2 4339   6.005   1.669   6.382
 1465TIP3    H1 4340   6.014   1.753   6.427
 1465TIP3    H2 4341   6.005   1.604   6.453
 1466TIP3   OH2 4342   2.938   1.137   0.570
 1466TIP3    H1 4343   2.894   1.192   0.505
 1466TIP3    H2 4344   2.886   1.148   0.649
 1467TIP3   OH2 4345   7.765   7.368   0.160
 1467TIP3    H1 4346   7.711   7.378   0.081
 1467TIP3    H2 4347   7.724   7.425   0.224
 1468TIP3   OH2 4348   2.755   7.840   1.021
 1468TIP3    H1 4349   2.696   7.774   1.058
 1468TIP3    H2 4350   2.716   7.862   0.936
 1469TIP3   OH2 4351   2.288   5.070   3.692
 1469TIP3    H1 4352   2.358   5.135   3.685
 1469TIP3    H2 4353   2.325   5.001   3.746
 1470TIP3   OH2 4354   3.676   7.554   4.351
 1470TIP3    H1 4355   3.612   7.535   4.283
 1470TIP3    H2 4356   3.754   7.504   4.325
 1471TIP3   OH2 4357   7.571   7.507   2.112
 1471TIP3    H1 4358   7.541   7.419   2.090
 1471TIP3    H2 4359   7.588   7.549   2.028
 1472TIP3   OH2 4360   3.573   2.856   3.724
 1472TIP3    H1 4361   3.601   2.782   3.778
 1472TIP3    H2 4362   3.488   2.881   3.761
 1473TIP3   OH2 4363   8.192   7.739  -0.028
 1473TIP3    H1 4364   8.167   7.740   0.064
 1473TIP3    H2 4365   8.112   7.762  -0.075
 1474TIP3   OH2 4366   4.261   5.531   6.541
 1474TIP3    H1 4367   4.295   5.449   6.505
 1474TIP3    H2 4368   4.299   5.536   6.629
 1475TIP3   OH2 4369   0.888   3.181   5.910
 1475TIP3    H1 4370   0.941   3.260   5.896
 1475TIP3    H2 4371   0.817   3.210   5.967
 1476TIP3   OH2 4372   3.379   0.324   6.290
 1476TIP3    H1 4373   3.312   0.372   6.240
 1476TIP3    H2 4374   3.345   0.235   6.295
 1477TIP3   OH2 4375   8.151   3.228   2.016
 1477TIP3    H1 4376   8.113   3.251   2.101
 1477TIP3    H2 4377   8.242   3.257   2.022
 1478TIP3   OH2 4378   2.829   6.787   0.193
 1478TIP3    H1 4379   2.835   6.695   0.217
 1478TIP3    H2 4380   2.766   6.789   0.122
 1479TIP3   OH2 4381   5.408   1.074   2.816
 1479TIP3    H1 4382   5.386   1.101   2.905
 1479TIP3    H2 4383   5.326   1.040   2.780
 1480TIP3   OH2 4384   4.421   2.080   5.425
 1480TIP3    H1 4385   4.329   2.091   5.450
 1480TIP3    H2 4386   4.467   2.150   5.470
 1481TIP3   OH2 4387   2.934   0.450   1.917
 1481TIP3    H1 4388   2.928   0.493   1.832
 1481TIP3    H2 4389   3.006   0.387   1.907
 1482TIP3   OH2 4390   6.914   0.228   2.994
 1482TIP3    H1 4391   6.875   0.141   2.990
 1482TIP3    H2 4392   6.985   0.225   2.929
 1483TIP3   OH2 4393   4.130   5.622   1.355
 1483TIP3    H1 4394   4.176   5.614   1.272
 1483TIP3    H2 4395   4.123   5.716   1.371
 1484TIP3   OH2 4396   1.128   3.195   5.377
 1484TIP3    H1 4397   1.125   3.232   5.465
 1484TIP3    H2 4398   1.114   3.101   5.390
 1485TIP3   OH2 4399   6.391   6.546   5.291
 1485TIP3    H1 4400   6.336   6.625   5.291
 1485TIP3    H2 4401   6.370   6.502   5.209
 1486TIP3   OH2 4402   1.401   0.066   6.597
 1486TIP3    H1 4403   1.439   0.001   6.656
 1486TIP3    H2 4404   1.394   0.021   6.513
 1487TIP3   OH2 4405   0.960   5.224   5.314
 1487TIP3    H1 4406   0.947   5.252   5.405
 1487TIP3    H2 4407   0.871   5.212   5.280
 1488TIP3   OH2 4408   2.244   7.851   6.315
 1488TIP3    H1 4409   2.172   7.816   6.262
 1488TIP3    H2 4410   2.302   7.894   6.251
 1489TIP3   OH2 4411   8.030   4.618   0.161
 1489TIP3    H1 4412   8.085   4.684   0.202
 1489TIP3    H2 4413   7.994   4.663   0.084
 1490TIP3   OH2 4414   5.071   3.204   5.943
 1490TIP3    H1 4415   4.998   3.199   5.881
 1490TIP3    H2 4416   5.073   3.119   5.986
 1491TIP3   OH2 4417   1.562   0.025   1.905
 1491TIP3    H1 4418   1.604   0.112   1.909
 1491TIP3    H2 4419   1.522   0.023   1.818
 1492TIP3   OH2 4420   6.521   3.636   2.037
 1492TIP3    H1 4421   6.612   3.612   2.057
 1492TIP3    H2 4422   6.486   3.559   1.993
 1493TIP3   OH2 4423   4.940   3.486   1.516
 1493TIP3    H1 4424   4.920   3.559   1.457
 1493TIP3    H2 4425   4.855   3.455   1.546
 1494TIP3   OH2 4426   5.352   6.707   0.920
 1494TIP3    H1 4427   5.365   6.621   0.879
 1494TIP3    H2 4428   5.272   6.740   0.881
 1495TIP3   OH2 4429   0.993   2.392   4.961
 1495TIP3    H1 4430   1.040   2.378   4.878
 1495TIP3    H2 4431   0.948   2.309   4.977
 1496TIP3   OH2 4432   6.552   3.712   4.540
 1496TIP3    H1 4433   6.630   3.737   4.490
 1496TIP3    H2 4434   6.586   3.672   4.620
 1497TIP3   OH2 4435   0.790   0.763   2.556
 1497TIP3    H1 4436   0.758   0.825   2.621
 1497TIP3    H2 4437   0.852   0.813   2.502
 1498TIP3   OH2 4438   0.361   5.240   5.834
 1498TIP3    H1 4439   0.440   5.267   5.787
 1498TIP3    H2 4440   0.370   5.146   5.845
 1499TIP3   OH2 4441   3.467   5.948   4.877
 1499TIP3    H1 4442   3.528   5.911   4.941
 1499TIP3    H2 4443   3.430   5.872   4.831
 1500TIP3   OH2 4444   1.278   3.943   0.979
 1500TIP3    H1 4445   1.308   4.026   0.942
 1500TIP3    H2 4446   1.346   3.880   0.955
 1501TIP3   OH2 4447   5.825   0.937   2.929
 1501TIP3    H1 4448   5.851   0.845   2.924
 1501TIP3    H2 4449   5.908   0.984   2.937
 1502TIP3   OH2 4450   5.976   3.324   0.519
 1502TIP3    H1 4451   5.944   3.387   0.584
 1502TIP3    H2 4452   5.952   3.239   0.554
 1503TIP3   OH2 4453   2.838   3.230   1.449
 1503TIP3    H1 4454   2.841   3.324   1.430
 1503TIP3    H2 4455   2.775   3.222   1.520
 1504TIP3   OH2 4456   4.970   0.696   5.896
 1504TIP3    H1 4457   4.891   0.652   5.865
 1504TIP3    H2 4458   4.938   0.763   5.957
 1505TIP3   OH2 4459   1.918   5.123   5.386
 1505TIP3    H1 4460   1.897   5.169   5.467
 1505TIP3    H2 4461   1.900   5.031   5.405
 1506TIP3   OH2 4462   3.763   5.569   3.165
 1506TIP3    H1 4463   3.727   5.514   3.235
 1506TIP3    H2 4464   3.686   5.612   3.128
 1507TIP3   OH2 4465   3.456   3.565   4.161
 1507TIP3    H1 4466   3.362   3.579   4.148
 1507TIP3    H2 4467   3.462   3.488   4.216
 1508TIP3   OH2 4468   0.463   6.162   2.728
 1508TIP3    H1 4469   0.493   6.160   2.637
 1508TIP3    H2 4470   0.542   6.177   2.779
 1509TIP3   OH2 4471   7.255   1.371   0.610
 1509TIP3    H1 4472   7.313   1.439   0.646
 1509TIP3    H2 4473   7.219   1.328   0.688
 1510TIP3   OH2 4474   1.274   4.772   1.094
 1510TIP3    H1 4475   1.323   4.850   1.071
 1510TIP3    H2 4476   1.270   4.721   1.014
 1511TIP3   OH2 4477   3.223   3.944   2.267
 1511TIP3    H1 4478   3.238   3.857   2.303
 1511TIP3    H2 4479   3.132   3.964   2.289
 1512TIP3   OH2 4480   6.672   1.258   3.277
 1512TIP3    H1 4481   6.734   1.294   3.213
 1512TIP3    H2 4482   6.587   1.291   3.249
 1513TIP3   OH2 4483   6.852   2.739   0.339
 1513TIP3    H1 4484   6.826   2.770   0.253
 1513TIP3    H2 4485   6.901   2.812   0.377
 1514TIP3   OH2 4486   0.942   6.391   2.495
 1514TIP3    H1 4487   1.025   6.385   2.448
 1514TIP3    H2 4488   0.965   6.370   2.586
 1515TIP3   OH2 4489   7.910   4.758   2.465
 1515TIP3    H1 4490   7.866   4.771   2.549
 1515TIP3    H2 4491   7.847   4.708   2.412
 1516TIP3   OH2 4492   7.021   4.444   6.200
 1516TIP3    H1 4493   7.066   4.467   6.118
 1516TIP3    H2 4494   7.026   4.349   6.205
 1517TIP3   OH2 4495   2.972   7.537   3.296
 1517TIP3    H1 4496   3.057   7.507   3.327
 1517TIP3    H2 4497   2.989   7.624   3.259
 1518TIP3   OH2 4498   4.968   7.701   3.974
 1518TIP3    H1 4499   4.976   7.606   3.987
 1518TIP3    H2 4500   4.909   7.729   4.045
 1519TIP3   OH2 4501   3.330   2.554   2.989
 1519TIP3    H1 4502   3.296   2.465   2.979
 1519TIP3    H2 4503   3.421   2.548   2.960
 1520TIP3   OH2 4504   1.119   2.838   1.422
 1520TIP3    H1 4505   1.120   2.822   1.327
 1520TIP3    H2 4506   1.116   2.934   1.429
 1521TIP3   OH2 4507   0.464   5.449   4.553
 1521TIP3    H1 4508   0.559   5.434   4.547
 1521TIP3    H2 4509   0.429   5.368   4.590
 1522TIP3   OH2 4510   5.014   4.184   4.834
 1522TIP3    H1 4511   4.937   4.211   4.885
 1522TIP3    H2 4512   5.088   4.217   4.884
 1523TIP3   OH2 4513   2.783   4.454   2.723
 1523TIP3    H1 4514   2.708   4.467   2.782
 1523TIP3    H2 4515   2.809   4.362   2.737
 1524TIP3   OH2 4516   7.101   4.680   4.282
 1524TIP3    H1 4517   7.151   4.612   4.327
 1524TIP3    H2 4518   7.144   4.762   4.307
 1525TIP3   OH2 4519   2.713   4.321   4.844
 1525TIP3    H1 4520   2.790   4.265   4.837
 1525TIP3    H2 4521   2.665   4.307   4.762
 1526TIP3   OH2 4522   5.459   6.066   4.652
 1526TIP3    H1 4523   5.534   6.024   4.609
 1526TIP3    H2 4524   5.383   6.028   4.608
 1527TIP3   OH2 4525   4.240   4.742   4.599
 1527TIP3    H1 4526   4.306   4.793   4.554
 1527TIP3    H2 4527   4.179   4.807   4.634
 1528TIP3   OH2 4528  -0.003   3.228   5.927
 1528TIP3    H1 4529   0.075   3.247   5.874
 1528TIP3    H2 4530   0.027   3.237   6.017
 1529TIP3   OH2 4531   6.970   4.195   2.704
 1529TIP3    H1 4532   6.892   4.196   2.649
 1529TIP3    H2 4533   6.941   4.232   2.788
 1530TIP3   OH2 4534   4.667   4.533   1.997
 1530TIP3    H1 4535   4.656   4.612   2.050
 1530TIP3    H2 4536   4.623   4.554   1.914
 1531TIP3   OH2 4537   6.069   1.549   1.500
 1531TIP3    H1 4538   6.014   1.626   1.504
 1531TIP3    H2 4539   6.112   1.554   1.414
 1532TIP3   OH2 4540   6.158   3.323   6.197
 1532TIP3    H1 4541   6.244   3.304   6.161
 1532TIP3    H2 4542   6.155   3.419   6.203
 1533TIP3   OH2 4543   6.632   0.495   4.096
 1533TIP3    H1 4544   6.716   0.541   4.104
 1533TIP3    H2 4545   6.649   0.408   4.134
 1534TIP3   OH2 4546   0.001   6.725   4.546
 1534TIP3    H1 4547   0.093   6.720   4.572
 1534TIP3    H2 4548  -0.036   6.642   4.575
 1535TIP3   OH2 4549   1.288   1.694   2.112
 1535TIP3    H1 4550   1.305   1.777   2.068
 1535TIP3    H2 4551   1.222   1.651   2.058
 1536TIP3   OH2 4552   5.785   7.253   3.021
 1536TIP3    H1 4553   5.846   7.199   3.071
 1536TIP3    H2 4554   5.771   7.204   2.940
 1537TIP3   OH2 4555   4.617   3.067   3.435
 1537TIP3    H1 4556   4.702   3.111   3.449
 1537TIP3    H2 4557   4.553   3.125   3.477
 1538TIP3   OH2 4558   2.820   5.262   4.931
 1538TIP3    H1 4559   2.849   5.239   5.020
 1538TIP3    H2 4560   2.871   5.339   4.908
 1539TIP3   OH2 4561   1.524   4.680   5.256
 1539TIP3    H1 4562   1.476   4.723   5.327
 1539TIP3    H2 4563   1.534   4.748   5.190
 1540TIP3   OH2 4564   6.808   2.491   1.744
 1540TIP3    H1 4565   6.816   2.397   1.725
 1540TIP3    H2 4566   6.862   2.504   1.822
 1541TIP3   OH2 4567   5.983   1.811   6.700
 1541TIP3    H1 4568   6.070   1.771   6.706
 1541TIP3    H2 4569   5.992   1.894   6.746
 1542TIP3   OH2 4570   6.368   5.475   1.287
 1542TIP3    H1 4571   6.430   5.547   1.287
 1542TIP3    H2 4572   6.339   5.468   1.196
 1543TIP3   OH2 4573   6.600   7.306   3.348
 1543TIP3    H1 4574   6.664   7.263   3.291
 1543TIP3    H2 4575   6.515   7.278   3.314
 1544TIP3   OH2 4576   6.489   5.038   5.301
 1544TIP3    H1 4577   6.448   4.952   5.315
 1544TIP3    H2 4578   6.442   5.074   5.226
 1545TIP3   OH2 4579   8.115   4.863   2.114
 1545TIP3    H1 4580   8.131   4.912   2.195
 1545TIP3    H2 4581   8.080   4.779   2.143
 1546TIP3   OH2 4582   7.716   4.874   5.744
 1546TIP3    H1 4583   7.749   4.800   5.795
 1546TIP3    H2 4584   7.784   4.891   5.679
 1547TIP3   OH2 4585   0.796   0.127   0.119
 1547TIP3    H1 4586   0.875   0.100   0.072
 1547TIP3    H2 4587   0.827   0.190   0.184
 1548TIP3   OH2 4588   0.724   5.367   4.561
 1548TIP3    H1 4589   0.722   5.372   4.465
 1548TIP3    H2 4590   0.767   5.283   4.579
 1549TIP3   OH2 4591   5.213   6.170   3.140
 1549TIP3    H1 4592   5.266   6.155   3.062
 1549TIP3    H2 4593   5.166   6.087   3.153
 1550TIP3   OH2 4594   6.345   7.435   3.203
 1550TIP3    H1 4595   6.309   7.349   3.179
 1550TIP3    H2 4596   6.369   7.474   3.119
 1551TIP3   OH2 4597   2.522   6.480   0.826
 1551TIP3    H1 4598   2.604   6.508   0.866
 1551TIP3    H2 4599   2.491   6.556   0.777
 1552TIP3   OH2 4600   5.410   1.091   6.055
 1552TIP3    H1 4601   5.370   1.178   6.054
 1552TIP3    H2 4602   5.371   1.047   6.130
 1553TIP3   OH2 4603   1.859   1.779   3.329
 1553TIP3    H1 4604   1.790   1.795   3.265
 1553TIP3    H2 4605   1.866   1.861   3.378
 1554TIP3   OH2 4606   4.941   5.866   4.430
 1554TIP3    H1 4607   4.907   5.786   4.389
 1554TIP3    H2 4608   4.910   5.862   4.520
 1555TIP3   OH2 4609   5.728   7.684   4.426
 1555TIP3    H1 4610   5.690   7.769   4.407
 1555TIP3    H2 4611   5.815   7.687   4.388
 1556TIP3   OH2 4612   5.719   3.878   0.223
 1556TIP3    H1 4613   5.786   3.836   0.169
 1556TIP3    H2 4614   5.659   3.807   0.247
 1557TIP3   OH2 4615   5.173   4.225   5.113
 1557TIP3    H1 4616   5.176   4.180   5.198
 1557TIP3    H2 4617   5.089   4.271   5.113
 1558TIP3   OH2 4618   8.052   0.159   4.394
 1558TIP3    H1 4619   8.093   0.136   4.477
 1558TIP3    H2 4620   7.958   0.153   4.411
 1559TIP3   OH2 4621   7.484   1.005   4.308
 1559TIP3    H1 4622   7.538   1.050   4.243
 1559TIP3    H2 4623   7.459   0.923   4.266
 1560TIP3   OH2 4624   7.924   5.723   5.353
 1560TIP3    H1 4625   7.988   5.794   5.362
 1560TIP3    H2 4626   7.873   5.748   5.275
 1561TIP3   OH2 4627   8.020   3.222   2.714
 1561TIP3    H1 4628   7.929   3.208   2.742
 1561TIP3    H2 4629   8.067   3.241   2.794
 1562TIP3   OH2 4630   1.526   0.831   1.832
 1562TIP3    H1 4631   1.562   0.859   1.748
 1562TIP3    H2 4632   1.523   0.911   1.884
 1563TIP3   OH2 4633   4.384   7.130   6.591
 1563TIP3    H1 4634   4.301   7.163   6.626
 1563TIP3    H2 4635   4.423   7.081   6.663
 1564TIP3   OH2 4636   1.656   4.427   3.481
 1564TIP3    H1 4637   1.640   4.374   3.404
 1564TIP3    H2 4638   1.570   4.436   3.523
 1565TIP3   OH2 4639   6.106   5.185   6.440
 1565TIP3    H1 4640   6.017   5.150   6.446
 1565TIP3    H2 4641   6.142   5.175   6.529
 1566TIP3   OH2 4642   6.720   6.882   1.893
 1566TIP3    H1 4643   6.790   6.939   1.861
 1566TIP3    H2 4644   6.654   6.884   1.824
 1567TIP3   OH2 4645   7.054   2.421   2.447
 1567TIP3    H1 4646   7.141   2.401   2.480
 1567TIP3    H2 4647   7.045   2.365   2.370
 1568TIP3   OH2 4648   6.240   4.783   0.747
 1568TIP3    H1 4649   6.221   4.876   0.735
 1568TIP3    H2 4650   6.326   4.781   0.790
 1569TIP3   OH2 4651   5.948   0.779   2.570
 1569TIP3    H1 4652   5.978   0.753   2.483
 1569TIP3    H2 4653   5.880   0.716   2.593
 1570TIP3   OH2 4654   5.359   7.422   6.414
 1570TIP3    H1 4655   5.383   7.365   6.341
 1570TIP3    H2 4656   5.421   7.495   6.409
 1571TIP3   OH2 4657   2.719   3.410   1.177
 1571TIP3    H1 4658   2.712   3.316   1.197
 1571TIP3    H2 4659   2.803   3.418   1.131
 1572TIP3   OH2 4660   0.597   3.747   5.189
 1572TIP3    H1 4661   0.529   3.790   5.137
 1572TIP3    H2 4662   0.622   3.813   5.255
 1573TIP3   OH2 4663   6.068   2.567   2.659
 1573TIP3    H1 4664   6.001   2.613   2.609
 1573TIP3    H2 4665   6.093   2.493   2.604
 1574TIP3   OH2 4666   6.050   1.055   3.060
 1574TIP3    H1 4667   6.015   1.137   3.025
 1574TIP3    H2 4668   5.993   1.034   3.134
 1575TIP3   OH2 4669   6.227   4.609   1.087
 1575TIP3    H1 4670   6.153   4.647   1.134
 1575TIP3    H2 4671   6.187   4.553   1.020
 1576TIP3   OH2 4672   5.729   2.876   5.081
 1576TIP3    H1 4673   5.714   2.944   5.014
 1576TIP3    H2 4674   5.806   2.907   5.129
 1577TIP3   OH2 4675   7.568   2.847   4.119
 1577TIP3    H1 4676   7.643   2.867   4.174
 1577TIP3    H2 4677   7.497   2.899   4.156
 1578TIP3   OH2 4678   1.262   4.062   1.806
 1578TIP3    H1 4679   1.195   4.098   1.863
 1578TIP3    H2 4680   1.263   4.121   1.730
 1579TIP3   OH2 4681   4.246   6.061   2.919
 1579TIP3    H1 4682   4.211   6.023   2.999
 1579TIP3    H2 4683   4.236   5.991   2.854
 1580TIP3   OH2 4684   2.294   7.245   2.271
 1580TIP3    H1 4685   2.237   7.316   2.298
 1580TIP3    H2 4686   2.268   7.170   2.325
 1581TIP3   OH2 4687   2.526   6.318   5.195
 1581TIP3    H1 4688   2.496   6.249   5.254
 1581TIP3    H2 4689   2.470   6.393   5.215
 1582TIP3   OH2 4690   6.641   6.616   0.103
 1582TIP3    H1 4691   6.586   6.609   0.025
 1582TIP3    H2 4692   6.713   6.556   0.088
 1583TIP3   OH2 4693   6.952   5.653   1.708
 1583TIP3    H1 4694   6.980   5.669   1.618
 1583TIP3    H2 4695   6.988   5.567   1.729
 1584TIP3   OH2 4696   4.597   2.269   3.411
 1584TIP3    H1 4697   4.567   2.201   3.472
 1584TIP3    H2 4698   4.685   2.292   3.443
 1585TIP3   OH2 4699   1.265   3.522   1.467
 1585TIP3    H1 4700   1.258   3.477   1.551
 1585TIP3    H2 4701   1.241   3.456   1.402
 1586TIP3   OH2 4702   7.321   2.616   5.105
 1586TIP3    H1 4703   7.411   2.589   5.127
 1586TIP3    H2 4704   7.324   2.712   5.105
 1587TIP3   OH2 4705   6.153   0.857   5.652
 1587TIP3    H1 4706   6.067   0.893   5.677
 1587TIP3    H2 4707   6.210   0.933   5.649
 1588TIP3   OH2 4708   8.156   3.989   6.142
 1588TIP3    H1 4709   8.147   3.894   6.128
 1588TIP3    H2 4710   8.134   4.002   6.234
 1589TIP3   OH2 4711   6.805   3.546   3.129
 1589TIP3    H1 4712   6.723   3.595   3.141
 1589TIP3    H2 4713   6.806   3.484   3.202
 1590TIP3   OH2 4714   1.564   5.262   3.495
 1590TIP3    H1 4715   1.617   5.331   3.536
 1590TIP3    H2 4716   1.620   5.228   3.425
 1591TIP3   OH2 4717   5.549   0.761   1.072
 1591TIP3    H1 4718   5.630   0.725   1.108
 1591TIP3    H2 4719   5.510   0.809   1.145
 1592TIP3   OH2 4720   3.494   0.049   1.548
 1592TIP3    H1 4721   3.560   0.097   1.498
 1592TIP3    H2 4722   3.456   0.114   1.607
 1593TIP3   OH2 4723   1.719   3.219   2.552
 1593TIP3    H1 4724   1.794   3.273   2.528
 1593TIP3    H2 4725   1.644   3.278   2.544
 1594TIP3   OH2 4726   6.674   0.055   4.003
 1594TIP3    H1 4727   6.600   0.104   3.967
 1594TIP3    H2 4728   6.648   0.036   4.093
 1595TIP3   OH2 4729   8.023   1.879   0.238
 1595TIP3    H1 4730   8.093   1.816   0.253
 1595TIP3    H2 4731   7.964   1.868   0.313
 1596TIP3   OH2 4732   0.015   1.241   6.010
 1596TIP3    H1 4733   0.057   1.288   5.938
 1596TIP3    H2 4734  -0.007   1.310   6.073
 1597TIP3   OH2 4735   4.717   7.072   3.897
 1597TIP3    H1 4736   4.720   6.992   3.844
 1597TIP3    H2 4737   4.654   7.052   3.966
 1598TIP3   OH2 4738   2.071   0.611   6.528
 1598TIP3    H1 4739   2.157   0.646   6.553
 1598TIP3    H2 4740   2.008   0.672   6.566
 1599TIP3   OH2 4741   0.891   5.864   1.856
 1599TIP3    H1 4742   0.979   5.858   1.892
 1599TIP3    H2 4743   0.894   5.810   1.776
 1600TIP3   OH2 4744   7.651   0.236   0.715
 1600TIP3    H1 4745   7.605   0.315   0.686
 1600TIP3    H2 4746   7.582   0.172   0.730
 1601TIP3   OH2 4747   3.323   6.437   5.717
 1601TIP3    H1 4748   3.358   6.423   5.629
 1601TIP3    H2 4749   3.375   6.379   5.773
 1602TIP3   OH2 4750   5.658   1.402   4.321
 1602TIP3    H1 4751   5.728   1.440   4.268
 1602TIP3    H2 4752   5.585   1.464   4.312
 1603TIP3   OH2 4753   6.116   6.738   4.596
 1603TIP3    H1 4754   6.090   6.765   4.684
 1603TIP3    H2 4755   6.076   6.652   4.584
 1604TIP3   OH2 4756   0.182   0.222   1.284
 1604TIP3    H1 4757   0.131   0.301   1.304
 1604TIP3    H2 4758   0.147   0.155   1.343
 1605TIP3   OH2 4759   5.837   1.378   2.483
 1605TIP3    H1 4760   5.920   1.331   2.488
 1605TIP3    H2 4761   5.817   1.382   2.389
 1606TIP3   OH2 4762   1.530   5.532   0.251
 1606TIP3    H1 4763   1.519   5.614   0.299
 1606TIP3    H2 4764   1.563   5.470   0.316
 1607TIP3   OH2 4765   7.760   7.123   2.070
 1607TIP3    H1 4766   7.669   7.150   2.084
 1607TIP3    H2 4767   7.754   7.031   2.043
 1608TIP3   OH2 4768   7.322   2.599   1.656
 1608TIP3    H1 4769   7.395   2.588   1.595
 1608TIP3    H2 4770   7.307   2.511   1.692
 1609TIP3   OH2 4771   4.981   6.318   0.421
 1609TIP3    H1 4772   4.925   6.245   0.396
 1609TIP3    H2 4773   5.034   6.284   0.493
 1610TIP3   OH2 4774   1.701   1.811   1.962
 1610TIP3    H1 4775   1.720   1.904   1.969
 1610TIP3    H2 4776   1.696   1.780   2.053
 1611TIP3   OH2 4777   1.954   3.109   1.861
 1611TIP3    H1 4778   1.883   3.046   1.868
 1611TIP3    H2 4779   1.970   3.116   1.767
 1612TIP3   OH2 4780   2.858   4.074   6.033
 1612TIP3    H1 4781   2.812   4.021   6.098
 1612TIP3    H2 4782   2.793   4.088   5.964
 1613TIP3   OH2 4783   5.866   0.557   5.201
 1613TIP3    H1 4784   5.835   0.500   5.272
 1613TIP3    H2 4785   5.927   0.617   5.244
 1614TIP3   OH2 4786   7.087   3.239   5.657
 1614TIP3    H1 4787   7.140   3.282   5.589
 1614TIP3    H2 4788   7.125   3.152   5.665
 1615TIP3   OH2 4789   3.245   5.478   2.523
 1615TIP3    H1 4790   3.272   5.409   2.463
 1615TIP3    H2 4791   3.166   5.515   2.483
 1616TIP3   OH2 4792   4.813   5.020   2.271
 1616TIP3    H1 4793   4.732   5.046   2.227
 1616TIP3    H2 4794   4.883   5.048   2.212
 1617TIP3   OH2 4795   7.845   7.410   3.348
 1617TIP3    H1 4796   7.762   7.396   3.393
 1617TIP3    H2 4797   7.911   7.398   3.416
 1618TIP3   OH2 4798   2.469   7.684   4.600
 1618TIP3    H1 4799   2.547   7.635   4.575
 1618TIP3    H2 4800   2.471   7.687   4.695
 1619TIP3   OH2 4801   7.872   3.045   3.281
 1619TIP3    H1 4802   7.800   3.065   3.341
 1619TIP3    H2 4803   7.948   3.030   3.338
 1620TIP3   OH2 4804   1.089   7.658   2.458
 1620TIP3    H1 4805   1.106   7.738   2.507
 1620TIP3    H2 4806   1.169   7.643   2.408
 1621TIP3   OH2 4807   5.672   2.668   3.415
 1621TIP3    H1 4808   5.754   2.621   3.403
 1621TIP3    H2 4809   5.645   2.693   3.327
 1622TIP3   OH2 4810   3.025   1.890   2.393
 1622TIP3    H1 4811   3.073   1.815   2.359
 1622TIP3    H2 4812   2.957   1.853   2.448
 1623TIP3   OH2 4813   8.077   5.435   1.762
 1623TIP3    H1 4814   8.012   5.483   1.814
 1623TIP3    H2 4815   8.129   5.388   1.826
 1624TIP3   OH2 4816   0.644   1.829   1.714
 1624TIP3    H1 4817   0.560   1.830   1.668
 1624TIP3    H2 4818   0.649   1.742   1.753
 1625TIP3   OH2 4819   1.162   3.682   2.561
 1625TIP3    H1 4820   1.131   3.599   2.524
 1625TIP3    H2 4821   1.094   3.708   2.622
 1626TIP3   OH2 4822   7.318   6.582   2.718
 1626TIP3    H1 4823   7.325   6.667   2.674
 1626TIP3    H2 4824   7.392   6.532   2.685
 1627TIP3   OH2 4825   1.249   7.440   0.986
 1627TIP3    H1 4826   1.176   7.501   0.983
 1627TIP3    H2 4827   1.278   7.442   1.078
 1628TIP3   OH2 4828   8.126   4.706   0.848
 1628TIP3    H1 4829   8.118   4.611   0.862
 1628TIP3    H2 4830   8.054   4.744   0.899
 1629TIP3   OH2 4831   7.931   7.423   5.147
 1629TIP3    H1 4832   7.937   7.470   5.064
 1629TIP3    H2 4833   7.842   7.387   5.147
 1630TIP3   OH2 4834   3.604   0.538   3.616
 1630TIP3    H1 4835   3.512   0.564   3.612
 1630TIP3    H2 4836   3.606   0.452   3.573
 1631TIP3   OH2 4837   2.208   5.854   2.843
 1631TIP3    H1 4838   2.125   5.814   2.816
 1631TIP3    H2 4839   2.222   5.924   2.780
 1632TIP3   OH2 4840   4.849   3.611   3.639
 1632TIP3    H1 4841   4.869   3.556   3.715
 1632TIP3    H2 4842   4.891   3.567   3.565
 1633TIP3   OH2 4843   7.193   4.773   1.203
 1633TIP3    H1 4844   7.220   4.813   1.120
 1633TIP3    H2 4845   7.239   4.689   1.205
 1634TIP3   OH2 4846   6.811   4.931   2.913
 1634TIP3    H1 4847   6.854   5.014   2.935
 1634TIP3    H2 4848   6.719   4.947   2.930
 1635TIP3   OH2 4849   0.866   7.678   6.654
 1635TIP3    H1 4850   0.854   7.761   6.700
 1635TIP3    H2 4851   0.916   7.624   6.715
 1636TIP3   OH2 4852   6.608   5.177   4.797
 1636TIP3    H1 4853   6.644   5.262   4.773
 1636TIP3    H2 4854   6.680   5.132   4.842
 1637TIP3   OH2 4855   7.866   4.097   6.272
 1637TIP3    H1 4856   7.840   4.027   6.212
 1637TIP3    H2 4857   7.923   4.054   6.336
 1638TIP3   OH2 4858   8.314   4.083   1.485
 1638TIP3    H1 4859   8.317   4.083   1.389
 1638TIP3    H2 4860   8.243   4.023   1.507
 1639TIP3   OH2 4861   4.961   5.000   2.703
 1639TIP3    H1 4862   4.921   4.930   2.652
 1639TIP3    H2 4863   4.980   4.960   2.788
 1640TIP3   OH2 4864   3.993   6.265   1.330
 1640TIP3    H1 4865   4.058   6.281   1.399
 1640TIP3    H2 4866   4.000   6.340   1.272
 1641TIP3   OH2 4867   4.484   5.229   1.601
 1641TIP3    H1 4868   4.516   5.233   1.511
 1641TIP3    H2 4869   4.407   5.286   1.601
 1642TIP3   OH2 4870   5.227   2.257   2.617
 1642TIP3    H1 4871   5.262   2.229   2.532
 1642TIP3    H2 4872   5.293   2.229   2.680
 1643TIP3   OH2 4873   1.191   1.446   6.270
 1643TIP3    H1 4874   1.237   1.411   6.193
 1643TIP3    H2 4875   1.258   1.451   6.338
 1644TIP3   OH2 4876   7.767   0.707   0.044
 1644TIP3    H1 4877   7.687   0.748   0.076
 1644TIP3    H2 4878   7.737   0.640  -0.017
 1645TIP3   OH2 4879   7.615   0.652   4.136
 1645TIP3    H1 4880   7.593   0.724   4.077
 1645TIP3    H2 4881   7.536   0.641   4.190
 1646TIP3   OH2 4882   8.046   6.165   4.901
 1646TIP3    H1 4883   8.125   6.117   4.925
 1646TIP3    H2 4884   7.974   6.106   4.923
 1647TIP3   OH2 4885   3.162   0.913   4.898
 1647TIP3    H1 4886   3.215   0.992   4.907
 1647TIP3    H2 4887   3.111   0.927   4.818
 1648TIP3   OH2 4888   3.193   2.037   5.411
 1648TIP3    H1 4889   3.271   2.037   5.465
 1648TIP3    H2 4890   3.222   2.071   5.326
 1649TIP3   OH2 4891   0.523   2.666   2.096
 1649TIP3    H1 4892   0.529   2.574   2.069
 1649TIP3    H2 4893   0.599   2.679   2.153
 1650TIP3   OH2 4894   7.608   5.318   0.537
 1650TIP3    H1 4895   7.606   5.395   0.481
 1650TIP3    H2 4896   7.524   5.275   0.522
 1651TIP3   OH2 4897   0.470   7.625   5.317
 1651TIP3    H1 4898   0.476   7.678   5.238
 1651TIP3    H2 4899   0.383   7.586   5.314
 1652TIP3   OH2 4900   2.635   0.201   5.106
 1652TIP3    H1 4901   2.669   0.134   5.166
 1652TIP3    H2 4902   2.568   0.247   5.157
 1653TIP3   OH2 4903   0.568   5.086   5.389
 1653TIP3    H1 4904   0.477   5.092   5.361
 1653TIP3    H2 4905   0.574   5.144   5.465
 1654TIP3   OH2 4906   5.528   6.347   3.310
 1654TIP3    H1 4907   5.595   6.365   3.376
 1654TIP3    H2 4908   5.456   6.306   3.358
 1655TIP3   OH2 4909   4.833   4.009   2.763
 1655TIP3    H1 4910   4.831   3.913   2.767
 1655TIP3    H2 4911   4.844   4.036   2.854
 1656TIP3   OH2 4912   0.672   3.200   6.310
 1656TIP3    H1 4913   0.588   3.162   6.283
 1656TIP3    H2 4914   0.722   3.126   6.345
 1657TIP3   OH2 4915   2.058   5.505   0.802
 1657TIP3    H1 4916   2.019   5.488   0.887
 1657TIP3    H2 4917   2.098   5.422   0.776
 1658TIP3   OH2 4918   7.092   7.258   4.160
 1658TIP3    H1 4919   7.143   7.333   4.192
 1658TIP3    H2 4920   7.063   7.284   4.072
 1659TIP3   OH2 4921   4.409   7.667   2.270
 1659TIP3    H1 4922   4.385   7.753   2.304
 1659TIP3    H2 4923   4.444   7.683   2.183
 1660TIP3   OH2 4924   4.342   3.123   6.049
 1660TIP3    H1 4925   4.409   3.068   6.009
 1660TIP3    H2 4926   4.327   3.194   5.987
 1661TIP3   OH2 4927   0.523   2.843   2.992
 1661TIP3    H1 4928   0.553   2.861   3.081
 1661TIP3    H2 4929   0.603   2.832   2.941
 1662TIP3   OH2 4930   0.989   4.890   3.808
 1662TIP3    H1 4931   0.998   4.795   3.814
 1662TIP3    H2 4932   1.054   4.917   3.743
 1663TIP3   OH2 4933   2.307   5.296   4.040
 1663TIP3    H1 4934   2.379   5.241   4.072
 1663TIP3    H2 4935   2.235   5.235   4.025
 1664TIP3   OH2 4936   5.321   1.407   0.645
 1664TIP3    H1 4937   5.293   1.437   0.558
 1664TIP3    H2 4938   5.252   1.347   0.673
 1665TIP3   OH2 4939   7.159   1.078   3.672
 1665TIP3    H1 4940   7.178   1.138   3.599
 1665TIP3    H2 4941   7.115   1.004   3.631
 1666TIP3   OH2 4942   5.460   6.232   6.457
 1666TIP3    H1 4943   5.370   6.238   6.425
 1666TIP3    H2 4944   5.463   6.151   6.508
 1667TIP3   OH2 4945   1.535   3.439   6.085
 1667TIP3    H1 4946   1.575   3.514   6.041
 1667TIP3    H2 4947   1.606   3.375   6.091
 1668TIP3   OH2 4948   8.164   5.675   4.938
 1668TIP3    H1 4949   8.248   5.684   4.982
 1668TIP3    H2 4950   8.165   5.741   4.869
 1669TIP3   OH2 4951   0.123   7.805   0.652
 1669TIP3    H1 4952   0.142   7.746   0.578
 1669TIP3    H2 4953   0.031   7.828   0.641
 1670TIP3   OH2 4954   3.520   6.113   5.148
 1670TIP3    H1 4955   3.481   6.131   5.233
 1670TIP3    H2 4956   3.447   6.088   5.092
 1671TIP3   OH2 4957   7.133   6.090   1.240
 1671TIP3    H1 4958   7.110   6.179   1.213
 1671TIP3    H2 4959   7.061   6.036   1.208
 1672TIP3   OH2 4960   2.427   4.880   2.154
 1672TIP3    H1 4961   2.504   4.829   2.129
 1672TIP3    H2 4962   2.357   4.815   2.165
 1673TIP3   OH2 4963   0.168   1.973   1.632
 1673TIP3    H1 4964   0.175   2.056   1.585
 1673TIP3    H2 4965   0.105   1.922   1.580
 1674TIP3   OH2 4966   8.249   2.053   3.081
 1674TIP3    H1 4967   8.282   2.000   3.154
 1674TIP3    H2 4968   8.322   2.056   3.019
 1675TIP3   OH2 4969   0.034   7.195   4.602
 1675TIP3    H1 4970   0.091   7.208   4.527
 1675TIP3    H2 4971  -0.035   7.261   4.591
 1676TIP3   OH2 4972   6.010   1.652   4.871
 1676TIP3    H1 4973   6.012   1.605   4.955
 1676TIP3    H2 4974   6.100   1.679   4.857
 1677TIP3   OH2 4975   5.343   5.038   1.261
 1677TIP3    H1 4976   5.364   5.044   1.168
 1677TIP3    H2 4977   5.352   4.945   1.282
 1678TIP3   OH2 4978   0.946   7.667   4.756
 1678TIP3    H1 4979   0.980   7.581   4.729
 1678TIP3    H2 4980   0.868   7.646   4.807
 1679TIP3   OH2 4981   3.860   1.811   2.928
 1679TIP3    H1 4982   3.899   1.791   3.014
 1679TIP3    H2 4983   3.772   1.843   2.949
 1680TIP3   OH2 4984   7.611   0.860   1.622
 1680TIP3    H1 4985   7.649   0.881   1.707
 1680TIP3    H2 4986   7.584   0.945   1.587
 1681TIP3   OH2 4987   7.354   5.885   2.773
 1681TIP3    H1 4988   7.275   5.910   2.820
 1681TIP3    H2 4989   7.325   5.869   2.683
 1682TIP3   OH2 4990   1.280   6.511   6.631
 1682TIP3    H1 4991   1.335   6.588   6.614
 1682TIP3    H2 4992   1.342   6.439   6.641
 1683TIP3   OH2 4993   8.132   6.442   3.037
 1683TIP3    H1 4994   8.106   6.394   3.115
 1683TIP3    H2 4995   8.193   6.382   2.992
 1684TIP3   OH2 4996   7.535   3.409   3.032
 1684TIP3    H1 4997   7.550   3.459   3.113
 1684TIP3    H2 4998   7.519   3.320   3.062
 1685TIP3   OH2 4999   7.515   7.356   1.813
 1685TIP3    H1 5000   7.603   7.392   1.818
 1685TIP3    H2 5001   7.528   7.261   1.816
 1686TIP3   OH2 5002   7.126   5.919   6.087
 1686TIP3    H1 5003   7.143   5.888   6.177
 1686TIP3    H2 5004   7.052   5.979   6.096
 1687TIP3   OH2 5005   4.404   5.874   6.783
 1687TIP3    H1 5006   4.477   5.911   6.733
 1687TIP3    H2 5007   4.356   5.820   6.720
 1688TIP3   OH2 5008   1.646   3.543   0.370
 1688TIP3    H1 5009   1.588   3.543   0.446
 1688TIP3    H2 5010   1.587   3.537   0.295
 1689TIP3   OH2 5011   3.103   2.830   1.163
 1689TIP3    H1 5012   3.048   2.763   1.121
 1689TIP3    H2 5013   3.051   2.860   1.238
 1690TIP3   OH2 5014   7.653   0.247   1.604
 1690TIP3    H1 5015   7.566   0.210   1.622
 1690TIP3    H2 5016   7.708   0.213   1.674
 1691TIP3   OH2 5017   7.109   3.467   1.159
 1691TIP3    H1 5018   7.129   3.476   1.252
 1691TIP3    H2 5019   7.068   3.550   1.135
 1692TIP3   OH2 5020   2.083   0.026   2.665
 1692TIP3    H1 5021   2.079   0.114   2.702
 1692TIP3    H2 5022   2.063  -0.032   2.737
 1693TIP3   OH2 5023   6.140   2.997   2.429
 1693TIP3    H1 5024   6.058   3.019   2.384
 1693TIP3    H2 5025   6.182   3.082   2.445
 1694TIP3   OH2 5026   6.855   4.175   4.652
 1694TIP3    H1 5027   6.855   4.087   4.691
 1694TIP3    H2 5028   6.765   4.206   4.663
 1695TIP3   OH2 5029   6.660   7.229   2.073
 1695TIP3    H1 5030   6.732   7.171   2.050
 1695TIP3    H2 5031   6.626   7.194   2.155
 1696TIP3   OH2 5032   2.720   4.737   3.013
 1696TIP3    H1 5033   2.648   4.775   3.062
 1696TIP3    H2 5034   2.695   4.748   2.921
 1697TIP3   OH2 5035   2.737   1.453   2.439
 1697TIP3    H1 5036   2.765   1.470   2.349
 1697TIP3    H2 5037   2.642   1.465   2.437
 1698TIP3   OH2 5038   0.793   2.756   3.485
 1698TIP3    H1 5039   0.873   2.704   3.476
 1698TIP3    H2 5040   0.750   2.720   3.563
 1699TIP3   OH2 5041   2.002   6.425   3.888
 1699TIP3    H1 5042   2.029   6.478   3.963
 1699TIP3    H2 5043   2.009   6.335   3.919
 1700TIP3   OH2 5044   3.987   7.768   1.788
 1700TIP3    H1 5045   3.969   7.677   1.763
 1700TIP3    H2 5046   4.071   7.788   1.748
 1701TIP3   OH2 5047   1.521   0.672   1.203
 1701TIP3    H1 5048   1.578   0.595   1.203
 1701TIP3    H2 5049   1.548   0.721   1.124
 1702TIP3   OH2 5050   6.020   6.595   4.245
 1702TIP3    H1 5051   5.961   6.599   4.321
 1702TIP3    H2 5052   6.085   6.529   4.270
 1703TIP3   OH2 5053   0.673   6.688   0.174
 1703TIP3    H1 5054   0.657   6.595   0.190
 1703TIP3    H2 5055   0.610   6.734   0.228
 1704TIP3   OH2 5056   0.047   5.178   4.442
 1704TIP3    H1 5057   0.003   5.119   4.503
 1704TIP3    H2 5058   0.055   5.128   4.361
 1705TIP3   OH2 5059   3.856   2.968   6.511
 1705TIP3    H1 5060   3.932   2.944   6.457
 1705TIP3    H2 5061   3.792   3.001   6.449
 1706TIP3   OH2 5062   2.577   7.403   3.857
 1706TIP3    H1 5063   2.651   7.410   3.796
 1706TIP3    H2 5064   2.617   7.380   3.941
 1707TIP3   OH2 5065   3.980   2.177   4.126
 1707TIP3    H1 5066   4.066   2.146   4.156
 1707TIP3    H2 5067   3.918   2.135   4.185
 1708TIP3   OH2 5068   4.229   3.050   1.547
 1708TIP3    H1 5069   4.322   3.033   1.553
 1708TIP3    H2 5070   4.189   2.991   1.610
 1709TIP3   OH2 5071   7.649   0.486   6.499
 1709TIP3    H1 5072   7.710   0.413   6.507
 1709TIP3    H2 5073   7.685   0.555   6.555
 1710TIP3   OH2 5074   2.744   3.943  -0.014
 1710TIP3    H1 5075   2.805   3.885   0.032
 1710TIP3    H2 5076   2.681   3.884  -0.055
 1711TIP3   OH2 5077   0.945   1.871   5.351
 1711TIP3    H1 5078   1.038   1.881   5.372
 1711TIP3    H2 5079   0.931   1.776   5.354
 1712TIP3   OH2 5080   2.166   3.011   5.048
 1712TIP3    H1 5081   2.257   2.995   5.025
 1712TIP3    H2 5082   2.169   3.034   5.141
 1713TIP3   OH2 5083   6.270   0.833   0.772
 1713TIP3    H1 5084   6.295   0.892   0.843
 1713TIP3    H2 5085   6.353   0.805   0.734
 1714TIP3   OH2 5086   7.037   0.815   6.524
 1714TIP3    H1 5087   7.070   0.726   6.515
 1714TIP3    H2 5088   7.073   0.862   6.449
 1715TIP3   OH2 5089   1.290   2.998   1.793
 1715TIP3    H1 5090   1.253   3.081   1.821
 1715TIP3    H2 5091   1.352   3.021   1.723
 1716TIP3   OH2 5092   0.853   2.448   2.738
 1716TIP3    H1 5093   0.841   2.394   2.660
 1716TIP3    H2 5094   0.767   2.489   2.753
 1717TIP3   OH2 5095   1.660   4.872   2.560
 1717TIP3    H1 5096   1.712   4.899   2.636
 1717TIP3    H2 5097   1.668   4.944   2.498
 1718TIP3   OH2 5098   3.346   4.685   2.698
 1718TIP3    H1 5099   3.416   4.745   2.722
 1718TIP3    H2 5100   3.271   4.741   2.682
 1719TIP3   OH2 5101   3.314   3.968   6.423
 1719TIP3    H1 5102   3.285   4.025   6.353
 1719TIP3    H2 5103   3.273   3.884   6.406
 1720TIP3   OH2 5104   0.673   4.595   4.411
 1720TIP3    H1 5105   0.624   4.677   4.405
 1720TIP3    H2 5106   0.759   4.621   4.444
 1721TIP3   OH2 5107   7.732   3.481   0.523
 1721TIP3    H1 5108   7.760   3.516   0.439
 1721TIP3    H2 5109   7.811   3.442   0.561
 1722TIP3   OH2 5110   0.768   6.398   4.638
 1722TIP3    H1 5111   0.726   6.315   4.661
 1722TIP3    H2 5112   0.861   6.378   4.635
 1723TIP3   OH2 5113   1.190   2.366   4.751
 1723TIP3    H1 5114   1.254   2.310   4.707
 1723TIP3    H2 5115   1.237   2.449   4.765
 1724TIP3   OH2 5116   0.859   1.348   3.973
 1724TIP3    H1 5117   0.804   1.355   4.050
 1724TIP3    H2 5118   0.900   1.434   3.965
 1725TIP3   OH2 5119   1.312   4.933   3.254
 1725TIP3    H1 5120   1.218   4.941   3.238
 1725TIP3    H2 5121   1.321   4.854   3.308
 1726TIP3   OH2 5122   0.941   4.488   4.134
 1726TIP3    H1 5123   0.859   4.441   4.121
 1726TIP3    H2 5124   1.009   4.423   4.119
 1727TIP3   OH2 5125   5.736   3.414   3.482
 1727TIP3    H1 5126   5.744   3.320   3.463
 1727TIP3    H2 5127   5.656   3.420   3.535
 1728TIP3   OH2 5128   1.902   3.978   2.202
 1728TIP3    H1 5129   1.870   4.012   2.286
 1728TIP3    H2 5130   1.959   4.047   2.168
 1729TIP3   OH2 5131   6.146   4.199   6.452
 1729TIP3    H1 5132   6.059   4.212   6.414
 1729TIP3    H2 5133   6.206   4.243   6.393
 1730TIP3   OH2 5134   1.718   7.612   4.524
 1730TIP3    H1 5135   1.731   7.530   4.476
 1730TIP3    H2 5136   1.717   7.680   4.457
 1731TIP3   OH2 5137   4.829   5.727   4.180
 1731TIP3    H1 5138   4.819   5.690   4.092
 1731TIP3    H2 5139   4.888   5.802   4.167
 1732TIP3   OH2 5140   1.784   3.894   1.743
 1732TIP3    H1 5141   1.703   3.944   1.754
 1732TIP3    H2 5142   1.784   3.869   1.651
 1733TIP3   OH2 5143   4.030   4.573   2.189
 1733TIP3    H1 5144   4.121   4.585   2.215
 1733TIP3    H2 5145   4.000   4.497   2.239
 1734TIP3   OH2 5146   3.379   4.633   4.014
 1734TIP3    H1 5147   3.475   4.636   4.007
 1734TIP3    H2 5148   3.352   4.724   4.015
 1735TIP3   OH2 5149   0.309   3.106   4.793
 1735TIP3    H1 5150   0.252   3.089   4.718
 1735TIP3    H2 5151   0.302   3.027   4.847
 1736TIP3   OH2 5152   5.033   4.603   4.852
 1736TIP3    H1 5153   4.987   4.541   4.910
 1736TIP3    H2 5154   4.963   4.659   4.818
 1737TIP3   OH2 5155   6.689   3.839   5.830
 1737TIP3    H1 5156   6.622   3.794   5.883
 1737TIP3    H2 5157   6.673   3.809   5.741
 1738TIP3   OH2 5158   1.132   3.352   6.576
 1738TIP3    H1 5159   1.088   3.382   6.497
 1738TIP3    H2 5160   1.223   3.379   6.565
 1739TIP3   OH2 5161   6.117   7.418   6.280
 1739TIP3    H1 5162   6.134   7.418   6.186
 1739TIP3    H2 5163   6.090   7.328   6.300
 1740TIP3   OH2 5164   2.260   2.647   2.045
 1740TIP3    H1 5165   2.298   2.565   2.078
 1740TIP3    H2 5166   2.207   2.680   2.117
 1741TIP3   OH2 5167   0.689   3.631   2.337
 1741TIP3    H1 5168   0.689   3.588   2.252
 1741TIP3    H2 5169   0.612   3.689   2.334
 1742TIP3   OH2 5170   1.577   2.292   3.109
 1742TIP3    H1 5171   1.672   2.289   3.122
 1742TIP3    H2 5172   1.567   2.329   3.021
 1743TIP3   OH2 5173   6.580   6.095   5.463
 1743TIP3    H1 5174   6.645   6.162   5.485
 1743TIP3    H2 5175   6.515   6.100   5.534
 1744TIP3   OH2 5176   5.599   6.116   1.977
 1744TIP3    H1 5177   5.666   6.171   2.019
 1744TIP3    H2 5178   5.538   6.179   1.937
 1745TIP3   OH2 5179   2.903   2.138   5.101
 1745TIP3    H1 5180   2.812   2.156   5.078
 1745TIP3    H2 5181   2.948   2.222   5.090
 1746TIP3   OH2 5182   0.877   0.558   5.642
 1746TIP3    H1 5183   0.968   0.536   5.665
 1746TIP3    H2 5184   0.837   0.474   5.620
 1747TIP3   OH2 5185   4.868   2.144   1.766
 1747TIP3    H1 5186   4.897   2.202   1.695
 1747TIP3    H2 5187   4.934   2.075   1.769
 1748TIP3   OH2 5188   4.926   0.032   3.337
 1748TIP3    H1 5189   4.988   0.026   3.265
 1748TIP3    H2 5190   4.849  -0.015   3.306
 1749TIP3   OH2 5191   5.664   0.493   4.372
 1749TIP3    H1 5192   5.590   0.457   4.325
 1749TIP3    H2 5193   5.673   0.583   4.338
 1750TIP3   OH2 5194   3.039   6.983   5.751
 1750TIP3    H1 5195   3.021   6.947   5.663
 1750TIP3    H2 5196   3.120   7.032   5.740
 1751TIP3   OH2 5197   5.756   2.624   2.245
 1751TIP3    H1 5198   5.704   2.700   2.270
 1751TIP3    H2 5199   5.842   2.660   2.223
 1752TIP3   OH2 5200   2.593   0.475   1.731
 1752TIP3    H1 5201   2.592   0.537   1.804
 1752TIP3    H2 5202   2.515   0.421   1.744
 1753TIP3   OH2 5203   0.191   6.229   2.716
 1753TIP3    H1 5204   0.208   6.321   2.697
 1753TIP3    H2 5205   0.275   6.196   2.748
 1754TIP3   OH2 5206   6.746   7.667   0.860
 1754TIP3    H1 5207   6.739   7.593   0.799
 1754TIP3    H2 5208   6.768   7.741   0.804
 1755TIP3   OH2 5209   2.815   1.770   5.622
 1755TIP3    H1 5210   2.855   1.857   5.632
 1755TIP3    H2 5211   2.877   1.722   5.566
 1756TIP3   OH2 5212   5.487   3.554   3.552
 1756TIP3    H1 5213   5.416   3.557   3.616
 1756TIP3    H2 5214   5.561   3.593   3.598
 1757TIP3   OH2 5215   5.726   6.959   5.273
 1757TIP3    H1 5216   5.655   6.977   5.212
 1757TIP3    H2 5217   5.728   6.864   5.281
 1758TIP3   OH2 5218   4.354   0.104   6.419
 1758TIP3    H1 5219   4.408   0.069   6.348
 1758TIP3    H2 5220   4.273   0.053   6.414
 1759TIP3   OH2 5221   7.327   3.780   0.920
 1759TIP3    H1 5222   7.290   3.807   1.004
 1759TIP3    H2 5223   7.368   3.695   0.938
 1760TIP3   OH2 5224   8.048   7.150   4.426
 1760TIP3    H1 5225   7.964   7.123   4.391
 1760TIP3    H2 5226   8.107   7.077   4.406
 1761TIP3   OH2 5227   4.502   3.360   0.835
 1761TIP3    H1 5228   4.493   3.288   0.773
 1761TIP3    H2 5229   4.464   3.435   0.790
 1762TIP3   OH2 5230   5.000   6.205   3.780
 1762TIP3    H1 5231   5.014   6.268   3.709
 1762TIP3    H2 5232   4.989   6.121   3.736
 1763TIP3   OH2 5233   5.339   0.022   2.765
 1763TIP3    H1 5234   5.304   0.067   2.842
 1763TIP3    H2 5235   5.415   0.074   2.739
 1764TIP3   OH2 5236   6.897   3.026   1.036
 1764TIP3    H1 5237   6.884   2.986   0.950
 1764TIP3    H2 5238   6.989   3.007   1.057
 1765TIP3   OH2 5239   1.018   4.032   3.445
 1765TIP3    H1 5240   0.940   4.059   3.494
 1765TIP3    H2 5241   1.043   3.948   3.483
 1766TIP3   OH2 5242   6.078   1.548   4.587
 1766TIP3    H1 5243   6.083   1.570   4.680
 1766TIP3    H2 5244   5.989   1.516   4.575
 1767TIP3   OH2 5245   7.998   5.465   3.568
 1767TIP3    H1 5246   8.016   5.558   3.586
 1767TIP3    H2 5247   7.970   5.429   3.652
 1768TIP3   OH2 5248   0.573   6.545   1.356
 1768TIP3    H1 5249   0.510   6.474   1.349
 1768TIP3    H2 5250   0.520   6.624   1.371
 1769TIP3   OH2 5251   0.410   7.354   6.590
 1769TIP3    H1 5252   0.315   7.357   6.595
 1769TIP3    H2 5253   0.432   7.263   6.610
 1770TIP3   OH2 5254   6.852   3.435   0.753
 1770TIP3    H1 5255   6.766   3.393   0.741
 1770TIP3    H2 5256   6.892   3.388   0.826
 1771TIP3   OH2 5257   6.089   3.211   2.061
 1771TIP3    H1 5258   6.071   3.118   2.076
 1771TIP3    H2 5259   6.175   3.213   2.019
 1772TIP3   OH2 5260   2.591   3.143   1.135
 1772TIP3    H1 5261   2.573   3.201   1.061
 1772TIP3    H2 5262   2.510   3.143   1.186
 1773TIP3   OH2 5263   4.262   1.243   0.322
 1773TIP3    H1 5264   4.277   1.324   0.370
 1773TIP3    H2 5265   4.284   1.264   0.231
 1774TIP3   OH2 5266   1.063   6.347   0.264
 1774TIP3    H1 5267   0.978   6.341   0.308
 1774TIP3    H2 5268   1.125   6.366   0.335
 1775TIP3   OH2 5269   0.199   6.755   2.794
 1775TIP3    H1 5270   0.176   6.788   2.881
 1775TIP3    H2 5271   0.147   6.808   2.733
 1776TIP3   OH2 5272   6.747   5.506   0.618
 1776TIP3    H1 5273   6.718   5.591   0.651
 1776TIP3    H2 5274   6.792   5.526   0.537
 1777TIP3   OH2 5275   4.723   1.390   1.248
 1777TIP3    H1 5276   4.759   1.322   1.304
 1777TIP3    H2 5277   4.699   1.461   1.308
 1778TIP3   OH2 5278   7.827   2.043   0.612
 1778TIP3    H1 5279   7.840   2.138   0.617
 1778TIP3    H2 5280   7.915   2.006   0.613
 1779TIP3   OH2 5281   7.558   5.865   3.860
 1779TIP3    H1 5282   7.508   5.831   3.934
 1779TIP3    H2 5283   7.632   5.804   3.852
 1780TIP3   OH2 5284   7.722   7.163   5.362
 1780TIP3    H1 5285   7.632   7.153   5.395
 1780TIP3    H2 5286   7.724   7.252   5.325
 1781TIP3   OH2 5287   3.589   4.233   2.690
 1781TIP3    H1 5288   3.658   4.299   2.699
 1781TIP3    H2 5289   3.508   4.284   2.680
 1782TIP3   OH2 5290   3.104   7.647   1.569
 1782TIP3    H1 5291   3.158   7.724   1.587
 1782TIP3    H2 5292   3.016   7.672   1.597
 1783TIP3   OH2 5293   3.425   5.988   4.194
 1783TIP3    H1 5294   3.473   6.068   4.174
 1783TIP3    H2 5295   3.348   5.991   4.137
 1784TIP3   OH2 5296   3.009   4.748   4.008
 1784TIP3    H1 5297   3.091   4.705   3.983
 1784TIP3    H2 5298   2.957   4.679   4.049
 1785TIP3   OH2 5299   7.554   7.476   6.077
 1785TIP3    H1 5300   7.563   7.512   5.988
 1785TIP3    H2 5301   7.642   7.448   6.101
 1786TIP3   OH2 5302   1.779   2.389   0.674
 1786TIP3    H1 5303   1.760   2.391   0.580
 1786TIP3    H2 5304   1.742   2.470   0.708
 1787TIP3   OH2 5305   7.144   4.005   4.450
 1787TIP3    H1 5306   7.056   4.015   4.415
 1787TIP3    H2 5307   7.198   4.061   4.394
 1788TIP3   OH2 5308   7.189   5.461   4.079
 1788TIP3    H1 5309   7.185   5.557   4.080
 1788TIP3    H2 5310   7.127   5.434   4.147
 1789TIP3   OH2 5311   6.183   3.451   4.059
 1789TIP3    H1 5312   6.132   3.375   4.031
 1789TIP3    H2 5313   6.260   3.451   4.002
 1790TIP3   OH2 5314   5.963   4.399   2.261
 1790TIP3    H1 5315   5.945   4.440   2.346
 1790TIP3    H2 5316   5.884   4.414   2.210
 1791TIP3   OH2 5317   4.062   5.642   3.317
 1791TIP3    H1 5318   4.007   5.704   3.269
 1791TIP3    H2 5319   4.144   5.639   3.269
 1792TIP3   OH2 5320   6.525   7.337  -0.030
 1792TIP3    H1 5321   6.561   7.337   0.059
 1792TIP3    H2 5322   6.462   7.409  -0.031
 1793TIP3   OH2 5323   3.449   0.743   0.324
 1793TIP3    H1 5324   3.379   0.786   0.275
 1793TIP3    H2 5325   3.469   0.665   0.273
 1794TIP3   OH2 5326   0.543   7.131   3.153
 1794TIP3    H1 5327   0.629   7.170   3.132
 1794TIP3    H2 5328   0.546   7.044   3.113
 1795TIP3   OH2 5329   5.397   1.672   6.685
 1795TIP3    H1 5330   5.377   1.748   6.740
 1795TIP3    H2 5331   5.487   1.687   6.656
 1796TIP3   OH2 5332   6.239   5.956   5.640
 1796TIP3    H1 5333   6.299   5.911   5.581
 1796TIP3    H2 5334   6.152   5.941   5.603
 1797TIP3   OH2 5335   2.602   1.096   0.987
 1797TIP3    H1 5336   2.611   1.112   1.081
 1797TIP3    H2 5337   2.606   1.000   0.978
 1798TIP3   OH2 5338   2.450   1.446   2.430
 1798TIP3    H1 5339   2.468   1.356   2.403
 1798TIP3    H2 5340   2.355   1.448   2.445
 1799TIP3   OH2 5341   6.433   0.079   4.877
 1799TIP3    H1 5342   6.444  -0.011   4.844
 1799TIP3    H2 5343   6.338   0.088   4.889
 1800TIP3   OH2 5344   3.513   7.219   2.719
 1800TIP3    H1 5345   3.516   7.313   2.738
 1800TIP3    H2 5346   3.590   7.202   2.666
 1801TIP3   OH2 5347   3.582   1.947   6.652
 1801TIP3    H1 5348   3.585   2.039   6.624
 1801TIP3    H2 5349   3.673   1.920   6.656
 1802TIP3   OH2 5350   1.436   6.460   0.600
 1802TIP3    H1 5351   1.531   6.457   0.594
 1802TIP3    H2 5352   1.416   6.415   0.683
 1803TIP3   OH2 5353   3.374   0.747   5.207
 1803TIP3    H1 5354   3.343   0.678   5.266
 1803TIP3    H2 5355   3.311   0.818   5.218
 1804TIP3   OH2 5356   1.444   5.199   0.244
 1804TIP3    H1 5357   1.518   5.145   0.272
 1804TIP3    H2 5358   1.484   5.269   0.192
 1805TIP3   OH2 5359   4.673   1.231   2.904
 1805TIP3    H1 5360   4.737   1.292   2.940
 1805TIP3    H2 5361   4.700   1.218   2.814
 1806TIP3   OH2 5362   8.135   2.219   5.378
 1806TIP3    H1 5363   8.206   2.263   5.332
 1806TIP3    H2 5364   8.084   2.177   5.309
 1807TIP3   OH2 5365   5.738   4.701   6.094
 1807TIP3    H1 5366   5.693   4.758   6.157
 1807TIP3    H2 5367   5.813   4.753   6.064
 1808TIP3   OH2 5368   0.170   5.108   5.087
 1808TIP3    H1 5369   0.138   5.177   5.029
 1808TIP3    H2 5370   0.239   5.151   5.139
 1809TIP3   OH2 5371   7.903   0.917   3.736
 1809TIP3    H1 5372   7.967   0.966   3.683
 1809TIP3    H2 5373   7.845   0.985   3.771
 1810TIP3   OH2 5374   5.170   0.488   1.367
 1810TIP3    H1 5375   5.246   0.432   1.384
 1810TIP3    H2 5376   5.162   0.489   1.272
 1811TIP3   OH2 5377   2.817   3.257   5.518
 1811TIP3    H1 5378   2.722   3.250   5.530
 1811TIP3    H2 5379   2.837   3.349   5.536
 1812TIP3   OH2 5380   3.087   1.616   3.911
 1812TIP3    H1 5381   3.096   1.530   3.952
 1812TIP3    H2 5382   3.010   1.655   3.952
 1813TIP3   OH2 5383   0.187   2.142   5.367
 1813TIP3    H1 5384   0.205   2.068   5.310
 1813TIP3    H2 5385   0.270   2.189   5.373
 1814TIP3   OH2 5386   4.659   3.317   4.814
 1814TIP3    H1 5387   4.717   3.352   4.747
 1814TIP3    H2 5388   4.719   3.281   4.880
 1815TIP3   OH2 5389   6.166   6.026   6.294
 1815TIP3    H1 5390   6.146   5.946   6.246
 1815TIP3    H2 5391   6.088   6.043   6.347
 1816TIP3   OH2 5392   1.022   4.133   2.193
 1816TIP3    H1 5393   0.978   4.212   2.222
 1816TIP3    H2 5394   0.975   4.105   2.115
 1817TIP3   OH2 5395   2.515   0.170   3.454
 1817TIP3    H1 5396   2.424   0.149   3.435
 1817TIP3    H2 5397   2.565   0.124   3.386
 1818TIP3   OH2 5398   1.519   0.477   4.182
 1818TIP3    H1 5399   1.526   0.437   4.269
 1818TIP3    H2 5400   1.471   0.558   4.197
 1819TIP3   OH2 5401   7.712   6.544   4.369
 1819TIP3    H1 5402   7.623   6.510   4.366
 1819TIP3    H2 5403   7.767   6.467   4.380
 1820TIP3   OH2 5404   1.009   5.210   3.752
 1820TIP3    H1 5405   1.048   5.137   3.800
 1820TIP3    H2 5406   0.980   5.271   3.819
 1821TIP3   OH2 5407   7.888   2.101   3.756
 1821TIP3    H1 5408   7.875   2.143   3.671
 1821TIP3    H2 5409   7.816   2.038   3.763
 1822TIP3   OH2 5410   5.865   7.353   5.812
 1822TIP3    H1 5411   5.820   7.272   5.787
 1822TIP3    H2 5412   5.797   7.420   5.811
 1823TIP3   OH2 5413   3.486   7.418   5.708
 1823TIP3    H1 5414   3.481   7.331   5.667
 1823TIP3    H2 5415   3.405   7.424   5.759
 1824TIP3   OH2 5416   6.427   6.691   1.804
 1824TIP3    H1 5417   6.463   6.776   1.777
 1824TIP3    H2 5418   6.431   6.693   1.900
 1825TIP3   OH2 5419   7.680   7.764   4.697
 1825TIP3    H1 5420   7.612   7.728   4.753
 1825TIP3    H2 5421   7.748   7.793   4.758
 1826TIP3   OH2 5422   1.483   0.548   0.042
 1826TIP3    H1 5423   1.575   0.536   0.067
 1826TIP3    H2 5424   1.439   0.471   0.077
 1827TIP3   OH2 5425   4.647   5.527   5.918
 1827TIP3    H1 5426   4.742   5.525   5.906
 1827TIP3    H2 5427   4.612   5.517   5.829
 1828TIP3   OH2 5428   5.621   5.684   3.646
 1828TIP3    H1 5429   5.620   5.612   3.709
 1828TIP3    H2 5430   5.596   5.761   3.698
 1829TIP3   OH2 5431   4.814   4.299   1.150
 1829TIP3    H1 5432   4.834   4.383   1.192
 1829TIP3    H2 5433   4.893   4.246   1.162
 1830TIP3   OH2 5434   0.954   0.602   5.349
 1830TIP3    H1 5435   1.022   0.654   5.305
 1830TIP3    H2 5436   0.904   0.665   5.399
 1831TIP3   OH2 5437   7.400   7.439   3.665
 1831TIP3    H1 5438   7.376   7.376   3.596
 1831TIP3    H2 5439   7.432   7.515   3.617
 1832TIP3   OH2 5440   5.099   6.634   1.372
 1832TIP3    H1 5441   5.088   6.553   1.422
 1832TIP3    H2 5442   5.019   6.684   1.390
 1833TIP3   OH2 5443   7.944   3.330   2.349
 1833TIP3    H1 5444   7.890   3.367   2.419
 1833TIP3    H2 5445   7.929   3.388   2.274
 1834TIP3   OH2 5446   1.089   1.740   2.622
 1834TIP3    H1 5447   1.156   1.706   2.562
 1834TIP3    H2 5448   1.006   1.720   2.578
 1835TIP3   OH2 5449   0.356   3.548   0.795
 1835TIP3    H1 5450   0.294   3.485   0.757
 1835TIP3    H2 5451   0.349   3.625   0.738
 1836TIP3   OH2 5452   6.827   5.301   1.430
 1836TIP3    H1 5453   6.910   5.347   1.421
 1836TIP3    H2 5454   6.843   5.233   1.495
 1837TIP3   OH2 5455   8.057   5.140   5.433
 1837TIP3    H1 5456   8.076   5.114   5.343
 1837TIP3    H2 5457   7.996   5.074   5.465
 1838TIP3   OH2 5458   4.682   4.112   4.082
 1838TIP3    H1 5459   4.745   4.060   4.132
 1838TIP3    H2 5460   4.737   4.169   4.028
 1839TIP3   OH2 5461   2.902   2.056   0.960
 1839TIP3    H1 5462   2.863   1.986   1.013
 1839TIP3    H2 5463   2.972   2.013   0.911
 1840TIP3   OH2 5464   2.350   5.414   1.835
 1840TIP3    H1 5465   2.409   5.424   1.910
 1840TIP3    H2 5466   2.286   5.484   1.846
 1841TIP3   OH2 5467   0.400   3.650   1.287
 1841TIP3    H1 5468   0.491   3.652   1.259
 1841TIP3    H2 5469   0.373   3.742   1.285
 1842TIP3   OH2 5470   8.159   3.864   4.265
 1842TIP3    H1 5471   8.126   3.951   4.242
 1842TIP3    H2 5472   8.218   3.841   4.193
 1843TIP3   OH2 5473   5.797   4.535   3.043
 1843TIP3    H1 5474   5.801   4.623   3.079
 1843TIP3    H2 5475   5.705   4.509   3.052
 1844TIP3   OH2 5476   8.076   4.118   4.111
 1844TIP3    H1 5477   8.113   4.048   4.057
 1844TIP3    H2 5478   7.987   4.130   4.077
 1845TIP3   OH2 5479   1.531   0.521   2.311
 1845TIP3    H1 5480   1.478   0.549   2.236
 1845TIP3    H2 5481   1.615   0.564   2.299
 1846TIP3   OH2 5482   8.180   3.093   4.214
 1846TIP3    H1 5483   8.249   3.159   4.208
 1846TIP3    H2 5484   8.218   3.014   4.176
 1847TIP3   OH2 5485   4.690   3.267   2.379
 1847TIP3    H1 5486   4.762   3.275   2.317
 1847TIP3    H2 5487   4.611   3.262   2.324
 1848TIP3   OH2 5488   4.819   2.834   5.895
 1848TIP3    H1 5489   4.835   2.764   5.832
 1848TIP3    H2 5490   4.874   2.812   5.970
 1849TIP3   OH2 5491   2.598   7.421   4.726
 1849TIP3    H1 5492   2.682   7.418   4.773
 1849TIP3    H2 5493   2.576   7.330   4.710
 1850TIP3   OH2 5494   6.545   0.602   3.496
 1850TIP3    H1 5495   6.514   0.691   3.512
 1850TIP3    H2 5496   6.548   0.562   3.583
 1851TIP3   OH2 5497   0.383   4.088   2.453
 1851TIP3    H1 5498   0.456   4.048   2.500
 1851TIP3    H2 5499   0.396   4.182   2.463
 1852TIP3   OH2 5500   3.268   5.676   1.713
 1852TIP3    H1 5501   3.311   5.757   1.685
 1852TIP3    H2 5502   3.283   5.674   1.808
 1853TIP3   OH2 5503   6.068   5.220   1.736
 1853TIP3    H1 5504   6.134   5.172   1.685
 1853TIP3    H2 5505   5.987   5.170   1.724
 1854TIP3   OH2 5506   0.287   3.334   2.804
 1854TIP3    H1 5507   0.204   3.363   2.841
 1854TIP3    H2 5508   0.351   3.400   2.833
 1855TIP3   OH2 5509   6.222   5.683   5.505
 1855TIP3    H1 5510   6.241   5.688   5.598
 1855TIP3    H2 5511   6.292   5.733   5.462
 1856TIP3   OH2 5512   7.687   4.765   1.964
 1856TIP3    H1 5513   7.685   4.690   1.904
 1856TIP3    H2 5514   7.715   4.839   1.910
 1857TIP3   OH2 5515   1.532   1.639   0.368
 1857TIP3    H1 5516   1.509   1.613   0.279
 1857TIP3    H2 5517   1.565   1.728   0.360
 1858TIP3   OH2 5518   1.709   0.156   0.820
 1858TIP3    H1 5519   1.801   0.179   0.806
 1858TIP3    H2 5520   1.712   0.069   0.859
 1859TIP3   OH2 5521   2.142   1.963   4.976
 1859TIP3    H1 5522   2.047   1.971   4.983
 1859TIP3    H2 5523   2.161   1.874   5.008
 1860TIP3   OH2 5524   4.988   6.677   6.240
 1860TIP3    H1 5525   4.912   6.723   6.205
 1860TIP3    H2 5526   4.963   6.585   6.239
 1861TIP3   OH2 5527   3.307   3.499   5.675
 1861TIP3    H1 5528   3.333   3.505   5.767
 1861TIP3    H2 5529   3.260   3.415   5.669
 1862TIP3   OH2 5530   2.269   6.389   4.288
 1862TIP3    H1 5531   2.179   6.403   4.318
 1862TIP3    H2 5532   2.293   6.302   4.321
 1863TIP3   OH2 5533   7.930   5.833   0.985
 1863TIP3    H1 5534   8.024   5.822   0.999
 1863TIP3    H2 5535   7.890   5.772   1.047
 1864TIP3   OH2 5536   6.062   5.451   3.635
 1864TIP3    H1 5537   6.040   5.359   3.649
 1864TIP3    H2 5538   6.045   5.493   3.720
 1865TIP3   OH2 5539   2.449   6.696   2.748
 1865TIP3    H1 5540   2.392   6.685   2.673
 1865TIP3    H2 5541   2.447   6.790   2.766
 1866TIP3   OH2 5542   3.102   4.595   1.669
 1866TIP3    H1 5543   3.133   4.509   1.695
 1866TIP3    H2 5544   3.010   4.597   1.696
 1867TIP3   OH2 5545   2.683   7.611   4.155
 1867TIP3    H1 5546   2.754   7.625   4.092
 1867TIP3    H2 5547   2.699   7.523   4.188
 1868TIP3   OH2 5548   0.277   5.267   3.176
 1868TIP3    H1 5549   0.286   5.177   3.144
 1868TIP3    H2 5550   0.332   5.270   3.254
 1869TIP3   OH2 5551   5.078   2.951   5.743
 1869TIP3    H1 5552   4.988   2.977   5.763
 1869TIP3    H2 5553   5.071   2.861   5.713
 1870TIP3   OH2 5554   7.310   1.389   2.981
 1870TIP3    H1 5555   7.361   1.345   2.913
 1870TIP3    H2 5556   7.358   1.470   2.998
 1871TIP3   OH2 5557   2.926   2.843   5.869
 1871TIP3    H1 5558   2.948   2.758   5.907
 1871TIP3    H2 5559   2.893   2.822   5.782
 1872TIP3   OH2 5560   8.090   5.974   1.689
 1872TIP3    H1 5561   8.170   5.927   1.712
 1872TIP3    H2 5562   8.019   5.922   1.726
 1873TIP3   OH2 5563   0.583   4.615   0.008
 1873TIP3    H1 5564   0.547   4.659   0.085
 1873TIP3    H2 5565   0.625   4.536   0.043
 1874TIP3   OH2 5566   5.129   2.350   0.137
 1874TIP3    H1 5567   5.076   2.379   0.211
 1874TIP3    H2 5568   5.108   2.257   0.126
 1875TIP3   OH2 5569   3.094   1.393   5.065
 1875TIP3    H1 5570   3.069   1.483   5.084
 1875TIP3    H2 5571   3.188   1.397   5.048
 1876TIP3   OH2 5572   2.271   6.152   0.498
 1876TIP3    H1 5573   2.206   6.213   0.463
 1876TIP3    H2 5574   2.334   6.208   0.543
 1877TIP3   OH2 5575   1.419   0.344   1.738
 1877TIP3    H1 5576   1.439   0.422   1.686
 1877TIP3    H2 5577   1.479   0.350   1.813
 1878TIP3   OH2 5578   4.080   7.756   2.145
 1878TIP3    H1 5579   4.058   7.849   2.141
 1878TIP3    H2 5580   4.090   7.730   2.054
 1879TIP3   OH2 5581   5.128   4.611   6.040
 1879TIP3    H1 5582   5.206   4.572   5.999
 1879TIP3    H2 5583   5.140   4.596   6.134
 1880TIP3   OH2 5584   4.704   7.183   4.923
 1880TIP3    H1 5585   4.756   7.132   4.984
 1880TIP3    H2 5586   4.727   7.274   4.941
 1881TIP3   OH2 5587   4.632   4.072   1.825
 1881TIP3    H1 5588   4.595   4.135   1.886
 1881TIP3    H2 5589   4.712   4.114   1.793
 1882TIP3   OH2 5590   2.670   2.046   5.407
 1882TIP3    H1 5591   2.703   2.092   5.484
 1882TIP3    H2 5592   2.748   2.009   5.366
 1883TIP3   OH2 5593   4.419   1.330   2.544
 1883TIP3    H1 5594   4.400   1.236   2.547
 1883TIP3    H2 5595   4.438   1.348   2.452
 1884TIP3   OH2 5596   2.019   6.471   3.015
 1884TIP3    H1 5597   2.113   6.456   3.007
 1884TIP3    H2 5598   1.988   6.402   3.073
 1885TIP3   OH2 5599   3.986   0.189   6.377
 1885TIP3    H1 5600   3.940   0.158   6.456
 1885TIP3    H2 5601   3.945   0.274   6.358
 1886TIP3   OH2 5602   6.021   1.265   5.030
 1886TIP3    H1 5603   6.059   1.336   4.979
 1886TIP3    H2 5604   6.060   1.186   4.993
 1887TIP3   OH2 5605   0.728   1.970   3.836
 1887TIP3    H1 5606   0.757   2.060   3.852
 1887TIP3    H2 5607   0.758   1.921   3.913
 1888TIP3   OH2 5608   3.799   7.774   3.029
 1888TIP3    H1 5609   3.755   7.858   3.021
 1888TIP3    H2 5610   3.887   7.795   3.059
 1889TIP3   OH2 5611   5.420   6.845   5.393
 1889TIP3    H1 5612   5.458   6.879   5.474
 1889TIP3    H2 5613   5.380   6.922   5.351
 1890TIP3   OH2 5614   2.217   5.301   6.602
 1890TIP3    H1 5615   2.145   5.362   6.591
 1890TIP3    H2 5616   2.185   5.219   6.563
 1891TIP3   OH2 5617   3.763   3.782   2.397
 1891TIP3    H1 5618   3.690   3.837   2.425
 1891TIP3    H2 5619   3.820   3.841   2.349
 1892TIP3   OH2 5620   2.522   1.377   5.724
 1892TIP3    H1 5621   2.432   1.395   5.751
 1892TIP3    H2 5622   2.575   1.433   5.779
 1893TIP3   OH2 5623   3.693   0.665   0.770
 1893TIP3    H1 5624   3.657   0.651   0.857
 1893TIP3    H2 5625   3.720   0.577   0.740
 1894TIP3   OH2 5626   6.029   2.708   2.311
 1894TIP3    H1 5627   6.062   2.782   2.363
 1894TIP3    H2 5628   6.104   2.648   2.306
 1895TIP3   OH2 5629   8.166   2.547   5.120
 1895TIP3    H1 5630   8.146   2.496   5.199
 1895TIP3    H2 5631   8.161   2.484   5.049
 1896TIP3   OH2 5632   3.535   4.323   6.260
 1896TIP3    H1 5633   3.585   4.401   6.235
 1896TIP3    H2 5634   3.553   4.313   6.354
 1897TIP3   OH2 5635   3.058   7.694   0.808
 1897TIP3    H1 5636   2.996   7.766   0.799
 1897TIP3    H2 5637   3.005   7.615   0.797
 1898TIP3   OH2 5638   3.490   5.662   2.241
 1898TIP3    H1 5639   3.455   5.577   2.269
 1898TIP3    H2 5640   3.528   5.699   2.321
 1899TIP3   OH2 5641   7.650   4.623   2.241
 1899TIP3    H1 5642   7.745   4.625   2.228
 1899TIP3    H2 5643   7.614   4.655   2.158
 1900TIP3   OH2 5644   0.895   3.207   1.349
 1900TIP3    H1 5645   0.976   3.221   1.302
 1900TIP3    H2 5646   0.842   3.284   1.330
 1901TIP3   OH2 5647   1.073   4.626   5.698
 1901TIP3    H1 5648   1.162   4.591   5.695
 1901TIP3    H2 5649   1.082   4.714   5.734
 1902TIP3   OH2 5650   6.573   0.765   4.344
 1902TIP3    H1 5651   6.571   0.861   4.344
 1902TIP3    H2 5652   6.622   0.742   4.265
 1903TIP3   OH2 5653   0.497   6.343   2.203
 1903TIP3    H1 5654   0.425   6.320   2.144
 1903TIP3    H2 5655   0.550   6.406   2.154
 1904TIP3   OH2 5656   7.772   5.294   6.246
 1904TIP3    H1 5657   7.837   5.231   6.216
 1904TIP3    H2 5658   7.822   5.356   6.300
 1905TIP3   OH2 5659   7.331   4.280   1.419
 1905TIP3    H1 5660   7.313   4.208   1.358
 1905TIP3    H2 5661   7.420   4.264   1.449
 1906TIP3   OH2 5662   4.579   6.638   6.129
 1906TIP3    H1 5663   4.566   6.690   6.049
 1906TIP3    H2 5664   4.491   6.629   6.166
 1907TIP3   OH2 5665   5.230   3.016   5.130
 1907TIP3    H1 5666   5.242   3.008   5.035
 1907TIP3    H2 5667   5.315   3.046   5.162
 1908TIP3   OH2 5668   0.947   2.420   5.516
 1908TIP3    H1 5669   0.925   2.380   5.432
 1908TIP3    H2 5670   1.021   2.369   5.549
 1909TIP3   OH2 5671   3.285   5.628   4.478
 1909TIP3    H1 5672   3.250   5.542   4.458
 1909TIP3    H2 5673   3.380   5.615   4.482
 1910TIP3   OH2 5674   1.392   7.482   6.557
 1910TIP3    H1 5675   1.442   7.485   6.638
 1910TIP3    H2 5676   1.414   7.397   6.519
 1911TIP3   OH2 5677   3.709   1.224   4.097
 1911TIP3    H1 5678   3.662   1.143   4.078
 1911TIP3    H2 5679   3.670   1.289   4.039
 1912TIP3   OH2 5680   2.893   4.081   4.393
 1912TIP3    H1 5681   2.951   4.046   4.325
 1912TIP3    H2 5682   2.930   4.050   4.475
 1913TIP3   OH2 5683   0.725   7.529   3.929
 1913TIP3    H1 5684   0.707   7.471   3.855
 1913TIP3    H2 5685   0.735   7.616   3.890
 1914TIP3   OH2 5686   5.563   1.290   3.020
 1914TIP3    H1 5687   5.540   1.380   3.043
 1914TIP3    H2 5688   5.593   1.296   2.929
 1915TIP3   OH2 5689   6.899   5.556   1.243
 1915TIP3    H1 5690   6.886   5.588   1.332
 1915TIP3    H2 5691   6.993   5.563   1.229
 1916TIP3   OH2 5692   6.832   6.159   1.915
 1916TIP3    H1 5693   6.849   6.188   1.825
 1916TIP3    H2 5694   6.918   6.139   1.950
 1917TIP3   OH2 5695   1.911   3.842   5.035
 1917TIP3    H1 5696   1.959   3.903   5.092
 1917TIP3    H2 5697   1.879   3.897   4.963
 1918TIP3   OH2 5698   4.070   0.187   0.137
 1918TIP3    H1 5699   4.000   0.135   0.176
 1918TIP3    H2 5700   4.025   0.250   0.081
 1919TIP3   OH2 5701   7.590   4.485   5.773
 1919TIP3    H1 5702   7.495   4.490   5.781
 1919TIP3    H2 5703   7.605   4.417   5.708
 1920TIP3   OH2 5704   4.863  -0.003   1.091
 1920TIP3    H1 5705   4.770  -0.004   1.114
 1920TIP3    H2 5706   4.864   0.009   0.996
 1921TIP3   OH2 5707   6.334   0.857   0.056
 1921TIP3    H1 5708   6.409   0.810   0.020
 1921TIP3    H2 5709   6.319   0.816   0.141
 1922TIP3   OH2 5710   8.046   6.365   5.629
 1922TIP3    H1 5711   8.076   6.274   5.626
 1922TIP3    H2 5712   7.992   6.370   5.707
 1923TIP3   OH2 5713   4.621   2.829   5.306
 1923TIP3    H1 5714   4.551   2.790   5.253
 1923TIP3    H2 5715   4.634   2.916   5.268
 1924TIP3   OH2 5716   3.785   3.741   0.265
 1924TIP3    H1 5717   3.717   3.785   0.215
 1924TIP3    H2 5718   3.771   3.648   0.249
 1925TIP3   OH2 5719   3.639   2.306   1.288
 1925TIP3    H1 5720   3.612   2.292   1.197
 1925TIP3    H2 5721   3.704   2.376   1.284
 1926TIP3   OH2 5722   1.315   0.581   4.544
 1926TIP3    H1 5723   1.237   0.526   4.549
 1926TIP3    H2 5724   1.289   0.662   4.588
 1927TIP3   OH2 5725   5.832   7.649   1.111
 1927TIP3    H1 5726   5.827   7.554   1.105
 1927TIP3    H2 5727   5.877   7.665   1.193
 1928TIP3   OH2 5728   6.078   7.715   4.916
 1928TIP3    H1 5729   6.172   7.734   4.918
 1928TIP3    H2 5730   6.050   7.746   4.830
 1929TIP3   OH2 5731   6.720   4.729   0.292
 1929TIP3    H1 5732   6.647   4.786   0.316
 1929TIP3    H2 5733   6.699   4.644   0.331
 1930TIP3   OH2 5734   7.683   2.196   4.949
 1930TIP3    H1 5735   7.640   2.129   5.002
 1930TIP3    H2 5736   7.616   2.261   4.932
 1931TIP3   OH2 5737   3.918   0.186   5.136
 1931TIP3    H1 5738   3.901   0.160   5.046
 1931TIP3    H2 5739   3.916   0.282   5.135
 1932TIP3   OH2 5740   3.378   5.921   1.618
 1932TIP3    H1 5741   3.451   5.978   1.644
 1932TIP3    H2 5742   3.307   5.982   1.596
 1933TIP3   OH2 5743   7.222   3.262   1.644
 1933TIP3    H1 5744   7.212   3.222   1.558
 1933TIP3    H2 5745   7.181   3.199   1.704
 1934TIP3   OH2 5746   4.850   4.324   4.021
 1934TIP3    H1 5747   4.801   4.406   4.014
 1934TIP3    H2 5748   4.937   4.346   3.987
 1935TIP3   OH2 5749   3.869   7.051   0.317
 1935TIP3    H1 5750   3.870   7.043   0.413
 1935TIP3    H2 5751   3.943   6.998   0.288
 1936TIP3   OH2 5752   2.119   2.107   1.963
 1936TIP3    H1 5753   2.110   2.194   2.002
 1936TIP3    H2 5754   2.112   2.122   1.869
 1937TIP3   OH2 5755   7.464   3.360   1.110
 1937TIP3    H1 5756   7.384   3.307   1.112
 1937TIP3    H2 5757   7.532   3.298   1.084
 1938TIP3   OH2 5758   6.709   3.952   2.994
 1938TIP3    H1 5759   6.680   4.011   2.925
 1938TIP3    H2 5760   6.799   3.928   2.970
 1939TIP3   OH2 5761   6.108   2.402   5.765
 1939TIP3    H1 5762   6.026   2.432   5.727
 1939TIP3    H2 5763   6.145   2.342   5.699
 1940TIP3   OH2 5764   0.268   4.118   6.624
 1940TIP3    H1 5765   0.285   4.112   6.530
 1940TIP3    H2 5766   0.292   4.032   6.658
 1941TIP3   OH2 5767   2.477   0.402   0.551
 1941TIP3    H1 5768   2.476   0.456   0.631
 1941TIP3    H2 5769   2.426   0.325   0.574
 1942TIP3   OH2 5770   2.665   7.548   1.713
 1942TIP3    H1 5771   2.648   7.598   1.633
 1942TIP3    H2 5772   2.578   7.530   1.749
 1943TIP3   OH2 5773   2.753   3.559   5.631
 1943TIP3    H1 5774   2.759   3.537   5.724
 1943TIP3    H2 5775   2.844   3.558   5.600
 1944TIP3   OH2 5776   3.948   0.143   2.104
 1944TIP3    H1 5777   4.022   0.102   2.148
 1944TIP3    H2 5778   3.985   0.222   2.064
 1945TIP3   OH2 5779   3.494   2.524   5.736
 1945TIP3    H1 5780   3.493   2.586   5.662
 1945TIP3    H2 5781   3.528   2.443   5.698
 1946TIP3   OH2 5782   3.667   4.123   4.343
 1946TIP3    H1 5783   3.735   4.169   4.392
 1946TIP3    H2 5784   3.705   4.108   4.257
 1947TIP3   OH2 5785   2.179   4.971   1.233
 1947TIP3    H1 5786   2.260   5.021   1.233
 1947TIP3    H2 5787   2.121   5.019   1.292
 1948TIP3   OH2 5788   4.842   2.265   3.090
 1948TIP3    H1 5789   4.747   2.258   3.095
 1948TIP3    H2 5790   4.863   2.340   3.146
 1949TIP3   OH2 5791   7.935   6.809   6.086
 1949TIP3    H1 5792   7.953   6.772   6.172
 1949TIP3    H2 5793   8.000   6.770   6.028
 1950TIP3   OH2 5794   4.325   3.058   5.090
 1950TIP3    H1 5795   4.302   3.058   5.183
 1950TIP3    H2 5796   4.295   2.973   5.058
 1951TIP3   OH2 5797   4.764   6.176   6.157
 1951TIP3    H1 5798   4.699   6.243   6.136
 1951TIP3    H2 5799   4.745   6.104   6.097
 1952TIP3   OH2 5800   1.232   6.278   4.566
 1952TIP3    H1 5801   1.296   6.209   4.583
 1952TIP3    H2 5802   1.148   6.242   4.595
 1953TIP3   OH2 5803   6.204   1.126   6.585
 1953TIP3    H1 5804   6.227   1.140   6.676
 1953TIP3    H2 5805   6.225   1.208   6.541
 1954TIP3   OH2 5806   6.005   0.355   6.090
 1954TIP3    H1 5807   5.912   0.361   6.113
 1954TIP3    H2 5808   6.019   0.262   6.071
 1955TIP3   OH2 5809   2.948   2.685   4.735
 1955TIP3    H1 5810   2.898   2.630   4.795
 1955TIP3    H2 5811   3.026   2.710   4.783
 1956TIP3   OH2 5812   6.642   2.886   1.164
 1956TIP3    H1 5813   6.670   2.974   1.187
 1956TIP3    H2 5814   6.698   2.829   1.217
 1957TIP3   OH2 5815   6.493   2.698   5.859
 1957TIP3    H1 5816   6.425   2.766   5.866
 1957TIP3    H2 5817   6.462   2.628   5.917
 1958TIP3   OH2 5818   1.338   3.136   1.193
 1958TIP3    H1 5819   1.409   3.170   1.139
 1958TIP3    H2 5820   1.317   3.051   1.155
 1959TIP3   OH2 5821   5.716   2.966   1.991
 1959TIP3    H1 5822   5.772   2.901   1.948
 1959TIP3    H2 5823   5.742   3.050   1.952
 1960TIP3   OH2 5824   5.721   4.035   0.440
 1960TIP3    H1 5825   5.639   4.017   0.486
 1960TIP3    H2 5826   5.723   3.970   0.370
 1961TIP3   OH2 5827   5.748   2.918   1.003
 1961TIP3    H1 5828   5.751   2.982   0.932
 1961TIP3    H2 5829   5.801   2.956   1.073
 1962TIP3   OH2 5830   7.084   4.613   0.417
 1962TIP3    H1 5831   7.068   4.545   0.482
 1962TIP3    H2 5832   7.027   4.685   0.443
 1963TIP3   OH2 5833   7.508   5.590   0.922
 1963TIP3    H1 5834   7.563   5.540   0.862
 1963TIP3    H2 5835   7.421   5.551   0.912
 1964TIP3   OH2 5836   3.812   6.227   0.650
 1964TIP3    H1 5837   3.861   6.246   0.730
 1964TIP3    H2 5838   3.809   6.131   0.646
 1965TIP3   OH2 5839   3.776   4.985   5.533
 1965TIP3    H1 5840   3.725   5.037   5.471
 1965TIP3    H2 5841   3.851   4.954   5.482
 1966TIP3   OH2 5842   5.366   4.087   0.935
 1966TIP3    H1 5843   5.406   4.127   1.012
 1966TIP3    H2 5844   5.286   4.047   0.967
 1967TIP3   OH2 5845   1.627   5.234   5.535
 1967TIP3    H1 5846   1.660   5.145   5.525
 1967TIP3    H2 5847   1.692   5.277   5.591
 1968TIP3   OH2 5848   0.020   2.542   4.465
 1968TIP3    H1 5849   0.107   2.542   4.425
 1968TIP3    H2 5850  -0.036   2.584   4.400
 1969TIP3   OH2 5851   0.607   3.330   2.433
 1969TIP3    H1 5852   0.683   3.272   2.430
 1969TIP3    H2 5853   0.642   3.415   2.461
 1970TIP3   OH2 5854   3.924   6.890   1.717
 1970TIP3    H1 5855   3.855   6.917   1.778
 1970TIP3    H2 5856   3.876   6.858   1.640
 1971TIP3   OH2 5857   3.617   3.646   6.778
 1971TIP3    H1 5858   3.537   3.618   6.822
 1971TIP3    H2 5859   3.590   3.722   6.726
 1972TIP3   OH2 5860   0.981   7.271   6.195
 1972TIP3    H1 5861   0.947   7.337   6.255
 1972TIP3    H2 5862   0.941   7.293   6.111
 1973TIP3   OH2 5863   3.322   6.530   2.085
 1973TIP3    H1 5864   3.246   6.579   2.116
 1973TIP3    H2 5865   3.298   6.500   1.998
 1974TIP3   OH2 5866   7.630   7.834   6.320
 1974TIP3    H1 5867   7.723   7.809   6.326
 1974TIP3    H2 5868   7.590   7.797   6.398
 1975TIP3   OH2 5869   8.081   4.030   6.419
 1975TIP3    H1 5870   8.044   4.021   6.507
 1975TIP3    H2 5871   8.156   4.088   6.430
 1976TIP3   OH2 5872   6.237   3.944   4.049
 1976TIP3    H1 5873   6.252   4.032   4.083
 1976TIP3    H2 5874   6.192   3.957   3.966
 1977TIP3   OH2 5875   5.163   1.927   1.922
 1977TIP3    H1 5876   5.194   1.918   1.832
 1977TIP3    H2 5877   5.165   1.838   1.957
 1978TIP3   OH2 5878   0.220   1.168   0.708
 1978TIP3    H1 5879   0.293   1.109   0.690
 1978TIP3    H2 5880   0.244   1.250   0.663
 1979TIP3   OH2 5881   5.545   0.814   6.155
 1979TIP3    H1 5882   5.579   0.725   6.163
 1979TIP3    H2 5883   5.622   0.870   6.162
 1980TIP3   OH2 5884   2.349   3.745   5.672
 1980TIP3    H1 5885   2.399   3.687   5.614
 1980TIP3    H2 5886   2.282   3.784   5.616
 1981TIP3   OH2 5887   2.983   0.718   6.202
 1981TIP3    H1 5888   2.898   0.684   6.229
 1981TIP3    H2 5889   3.028   0.738   6.284
 1982TIP3   OH2 5890   3.032   6.653   4.575
 1982TIP3    H1 5891   3.055   6.598   4.649
 1982TIP3    H2 5892   3.001   6.592   4.508
 1983TIP3   OH2 5893   1.258   4.366   2.390
 1983TIP3    H1 5894   1.290   4.401   2.307
 1983TIP3    H2 5895   1.329   4.381   2.452
 1984TIP3   OH2 5896   6.436   0.865   5.270
 1984TIP3    H1 5897   6.524   0.891   5.246
 1984TIP3    H2 5898   6.418   0.788   5.217
 1985TIP3   OH2 5899   3.775   1.868   4.078
 1985TIP3    H1 5900   3.756   1.779   4.048
 1985TIP3    H2 5901   3.871   1.873   4.078
 1986TIP3   OH2 5902   2.655   7.124   5.051
 1986TIP3    H1 5903   2.648   7.054   4.986
 1986TIP3    H2 5904   2.565   7.154   5.064
 1987TIP3   OH2 5905   7.040   0.512   3.497
 1987TIP3    H1 5906   7.004   0.544   3.414
 1987TIP3    H2 5907   6.987   0.554   3.564
 1988TIP3   OH2 5908   2.552   0.430   6.126
 1988TIP3    H1 5909   2.466   0.396   6.103
 1988TIP3    H2 5910   2.606   0.413   6.049
 1989TIP3   OH2 5911   6.659   1.261   6.580
 1989TIP3    H1 5912   6.615   1.232   6.660
 1989TIP3    H2 5913   6.610   1.220   6.510
 1990TIP3   OH2 5914   3.796   3.322   4.402
 1990TIP3    H1 5915   3.818   3.342   4.493
 1990TIP3    H2 5916   3.799   3.227   4.397
 1991TIP3   OH2 5917   7.944   1.299   5.028
 1991TIP3    H1 5918   7.850   1.316   5.029
 1991TIP3    H2 5919   7.984   1.381   5.058
 1992TIP3   OH2 5920   5.128   0.490   2.380
 1992TIP3    H1 5921   5.220   0.513   2.371
 1992TIP3    H2 5922   5.115   0.478   2.474
 1993TIP3   OH2 5923   7.665   4.550   1.802
 1993TIP3    H1 5924   7.723   4.526   1.730
 1993TIP3    H2 5925   7.641   4.467   1.842
 1994TIP3   OH2 5926   1.178   5.454   1.375
 1994TIP3    H1 5927   1.222   5.424   1.296
 1994TIP3    H2 5928   1.213   5.541   1.391
 1995TIP3   OH2 5929   4.351   3.937   1.549
 1995TIP3    H1 5930   4.309   3.887   1.479
 1995TIP3    H2 5931   4.283   3.951   1.613
 1996TIP3   OH2 5932   6.193   7.288   3.484
 1996TIP3    H1 5933   6.214   7.229   3.412
 1996TIP3    H2 5934   6.239   7.369   3.463
 1997TIP3   OH2 5935   2.127   6.831   2.027
 1997TIP3    H1 5936   2.207   6.833   2.080
 1997TIP3    H2 5937   2.133   6.907   1.970
 1998TIP3   OH2 5938   0.825   5.308   1.552
 1998TIP3    H1 5939   0.832   5.296   1.457
 1998TIP3    H2 5940   0.871   5.232   1.589
 1999TIP3   OH2 5941   6.055   4.272   3.451
 1999TIP3    H1 5942   5.992   4.201   3.442
 1999TIP3    H2 5943   6.133   4.230   3.488
 2000TIP3   OH2 5944   8.029   7.319   0.770
 2000TIP3    H1 5945   8.091   7.264   0.721
 2000TIP3    H2 5946   7.946   7.272   0.764
 2001TIP3   OH2 5947   7.244   0.729   3.170
 2001TIP3    H1 5948   7.215   0.642   3.143
 2001TIP3    H2 5949   7.164   0.777   3.188
 2002TIP3   OH2 5950   2.029   6.325   0.503
 2002TIP3    H1 5951   1.970   6.250   0.500
 2002TIP3    H2 5952   2.080   6.312   0.583
 2003TIP3   OH2 5953   4.305   6.662   3.763
 2003TIP3    H1 5954   4.345   6.666   3.676
 2003TIP3    H2 5955   4.346   6.586   3.805
 2004TIP3   OH2 5956   6.617   5.076   0.412
 2004TIP3    H1 5957   6.574   5.144   0.465
 2004TIP3    H2 5958   6.598   4.995   0.459
 2005TIP3   OH2 5959   2.523   2.269   3.007
 2005TIP3    H1 5960   2.433   2.261   3.038
 2005TIP3    H2 5961   2.526   2.219   2.926
 2006TIP3   OH2 5962   4.162   3.965   1.749
 2006TIP3    H1 5963   4.110   3.886   1.763
 2006TIP3    H2 5964   4.098   4.036   1.749
 2007TIP3   OH2 5965   0.095   5.297   5.506
 2007TIP3    H1 5966   0.024   5.345   5.465
 2007TIP3    H2 5967   0.124   5.354   5.577
 2008TIP3   OH2 5968   1.405   7.655   0.225
 2008TIP3    H1 5969   1.425   7.584   0.286
 2008TIP3    H2 5970   1.399   7.733   0.279
 2009TIP3   OH2 5971   1.293   6.884   6.609
 2009TIP3    H1 5972   1.284   6.882   6.514
 2009TIP3    H2 5973   1.371   6.938   6.624
 2010TIP3   OH2 5974   0.943   7.267   5.261
 2010TIP3    H1 5975   0.883   7.234   5.327
 2010TIP3    H2 5976   0.942   7.362   5.273
 2011TIP3   OH2 5977   5.774   6.427   0.775
 2011TIP3    H1 5978   5.836   6.493   0.805
 2011TIP3    H2 5979   5.689   6.470   0.781
 2012TIP3   OH2 5980   5.374   3.538   5.322
 2012TIP3    H1 5981   5.469   3.550   5.318
 2012TIP3    H2 5982   5.361   3.469   5.387
 2013TIP3   OH2 5983   8.205   3.415   6.365
 2013TIP3    H1 5984   8.121   3.369   6.363
 2013TIP3    H2 5985   8.182   3.508   6.363
 2014TIP3   OH2 5986   4.297   1.707   4.070
 2014TIP3    H1 5987   4.320   1.754   4.150
 2014TIP3    H2 5988   4.371   1.649   4.055
 2015TIP3   OH2 5989   0.187   1.335   5.803
 2015TIP3    H1 5990   0.198   1.243   5.828
 2015TIP3    H2 5991   0.228   1.342   5.717
 2016TIP3   OH2 5992   2.319   4.986   0.725
 2016TIP3    H1 5993   2.225   5.001   0.738
 2016TIP3    H2 5994   2.335   5.012   0.634
 2017TIP3   OH2 5995   3.127   1.604   0.259
 2017TIP3    H1 5996   3.116   1.509   0.246
 2017TIP3    H2 5997   3.053   1.629   0.314
 2018TIP3   OH2 5998   4.975   6.149   2.188
 2018TIP3    H1 5999   4.945   6.072   2.236
 2018TIP3    H2 6000   4.975   6.122   2.096
 2019TIP3   OH2 6001   3.719   4.676   3.133
 2019TIP3    H1 6002   3.684   4.749   3.082
 2019TIP3    H2 6003   3.678   4.598   3.094
 2020TIP3   OH2 6004   1.552   3.785  -0.001
 2020TIP3    H1 6005   1.608   3.862  -0.009
 2020TIP3    H2 6006   1.611   3.711  -0.015
 2021TIP3   OH2 6007   1.697   6.553   3.052
 2021TIP3    H1 6008   1.625   6.490   3.046
 2021TIP3    H2 6009   1.772   6.502   3.083
 2022TIP3   OH2 6010   3.205   0.836   3.415
 2022TIP3    H1 6011   3.274   0.770   3.425
 2022TIP3    H2 6012   3.249   0.910   3.372
 2023TIP3   OH2 6013   1.447   6.610   2.230
 2023TIP3    H1 6014   1.496   6.587   2.309
 2023TIP3    H2 6015   1.402   6.691   2.253
 2024TIP3   OH2 6016   6.547   3.214   3.235
 2024TIP3    H1 6017   6.524   3.140   3.179
 2024TIP3    H2 6018   6.521   3.291   3.185
 2025TIP3   OH2 6019   6.311   1.679   2.366
 2025TIP3    H1 6020   6.302   1.636   2.451
 2025TIP3    H2 6021   6.229   1.728   2.355
 2026TIP3   OH2 6022   1.474   5.927   5.912
 2026TIP3    H1 6023   1.427   5.853   5.951
 2026TIP3    H2 6024   1.536   5.885   5.852
 2027TIP3   OH2 6025   5.158   0.317   4.519
 2027TIP3    H1 6026   5.108   0.302   4.439
 2027TIP3    H2 6027   5.092   0.317   4.588
 2028TIP3   OH2 6028   4.694   4.959   6.053
 2028TIP3    H1 6029   4.688   4.914   6.137
 2028TIP3    H2 6030   4.720   5.049   6.076
 2029TIP3   OH2 6031   2.740   6.561   2.275
 2029TIP3    H1 6032   2.666   6.599   2.228
 2029TIP3    H2 6033   2.706   6.480   2.313
 2030TIP3   OH2 6034   3.192   7.475   3.445
 2030TIP3    H1 6035   3.206   7.442   3.534
 2030TIP3    H2 6036   3.266   7.534   3.429
 2031TIP3   OH2 6037   7.238   2.079   3.620
 2031TIP3    H1 6038   7.281   2.101   3.703
 2031TIP3    H2 6039   7.236   1.984   3.619
 2032TIP3   OH2 6040   0.051   1.188   1.590
 2032TIP3    H1 6041   0.132   1.168   1.636
 2032TIP3    H2 6042   0.018   1.103   1.562
 2033TIP3   OH2 6043   0.656   2.115   6.589
 2033TIP3    H1 6044   0.594   2.045   6.608
 2033TIP3    H2 6045   0.617   2.193   6.629
 2034TIP3   OH2 6046   1.125   5.788   2.823
 2034TIP3    H1 6047   1.051   5.830   2.868
 2034TIP3    H2 6048   1.091   5.702   2.798
 2035TIP3   OH2 6049   0.632   4.154   3.004
 2035TIP3    H1 6050   0.571   4.202   3.061
 2035TIP3    H2 6051   0.657   4.077   3.055
 2036TIP3   OH2 6052   5.047   2.790   5.208
 2036TIP3    H1 6053   5.063   2.729   5.136
 2036TIP3    H2 6054   5.125   2.845   5.211
 2037TIP3   OH2 6055   0.200  -0.011   2.050
 2037TIP3    H1 6056   0.222   0.008   1.959
 2037TIP3    H2 6057   0.120  -0.063   2.045
 2038TIP3   OH2 6058   2.141   2.970   1.995
 2038TIP3    H1 6059   2.094   3.041   1.951
 2038TIP3    H2 6060   2.230   2.976   1.962
 2039TIP3   OH2 6061   4.946   0.961   3.218
 2039TIP3    H1 6062   5.021   0.949   3.277
 2039TIP3    H2 6063   4.970   1.035   3.163
 2040TIP3   OH2 6064   4.379   2.726   4.339
 2040TIP3    H1 6065   4.345   2.799   4.390
 2040TIP3    H2 6066   4.345   2.741   4.250
 2041TIP3   OH2 6067   7.365   2.406   0.996
 2041TIP3    H1 6068   7.286   2.360   0.968
 2041TIP3    H2 6069   7.332   2.485   1.039
 2042TIP3   OH2 6070   3.021   2.327   1.172
 2042TIP3    H1 6071   2.999   2.383   1.098
 2042TIP3    H2 6072   2.968   2.248   1.160
 2043TIP3   OH2 6073   1.251   2.642   4.671
 2043TIP3    H1 6074   1.236   2.667   4.580
 2043TIP3    H2 6075   1.346   2.639   4.681
 2044TIP3   OH2 6076   5.381   2.568   1.338
 2044TIP3    H1 6077   5.409   2.646   1.386
 2044TIP3    H2 6078   5.445   2.559   1.267
 2045TIP3   OH2 6079   1.038   2.498   0.715
 2045TIP3    H1 6080   1.019   2.561   0.645
 2045TIP3    H2 6081   1.100   2.545   0.772
 2046TIP3   OH2 6082   1.819   0.254   2.387
 2046TIP3    H1 6083   1.762   0.230   2.459
 2046TIP3    H2 6084   1.860   0.172   2.359
 2047TIP3   OH2 6085   8.068   6.677   5.828
 2047TIP3    H1 6086   8.065   6.691   5.733
 2047TIP3    H2 6087   8.128   6.744   5.860
 2048TIP3   OH2 6088   1.899   6.618   5.650
 2048TIP3    H1 6089   1.830   6.667   5.696
 2048TIP3    H2 6090   1.948   6.685   5.603
 2049TIP3   OH2 6091   3.050   1.195   5.433
 2049TIP3    H1 6092   3.091   1.202   5.347
 2049TIP3    H2 6093   3.081   1.272   5.481
 2050TIP3   OH2 6094   7.783   2.335   0.646
 2050TIP3    H1 6095   7.811   2.415   0.691
 2050TIP3    H2 6096   7.819   2.342   0.558
 2051TIP3   OH2 6097   6.446   2.046   3.401
 2051TIP3    H1 6098   6.532   2.056   3.362
 2051TIP3    H2 6099   6.446   1.959   3.440
 2052TIP3   OH2 6100   5.314   4.296   4.690
 2052TIP3    H1 6101   5.334   4.268   4.779
 2052TIP3    H2 6102   5.251   4.368   4.700
 2053TIP3   OH2 6103   2.195   1.620   5.285
 2053TIP3    H1 6104   2.228   1.580   5.366
 2053TIP3    H2 6105   2.260   1.598   5.219
 2054TIP3   OH2 6106   5.558   5.683   4.288
 2054TIP3    H1 6107   5.470   5.700   4.256
 2054TIP3    H2 6108   5.546   5.657   4.380
 2055TIP3   OH2 6109   6.277   3.751   2.846
 2055TIP3    H1 6110   6.319   3.665   2.835
 2055TIP3    H2 6111   6.330   3.794   2.913
 2056TIP3   OH2 6112   3.661   4.957   6.086
 2056TIP3    H1 6113   3.616   5.000   6.014
 2056TIP3    H2 6114   3.609   4.980   6.163
 2057TIP3   OH2 6115   3.128   6.457   4.757
 2057TIP3    H1 6116   3.204   6.419   4.802
 2057TIP3    H2 6117   3.055   6.401   4.782
 2058TIP3   OH2 6118   6.034   5.062   0.722
 2058TIP3    H1 6119   5.997   5.145   0.692
 2058TIP3    H2 6120   6.031   5.067   0.817
 2059TIP3   OH2 6121   7.251   6.314   3.562
 2059TIP3    H1 6122   7.166   6.324   3.605
 2059TIP3    H2 6123   7.231   6.317   3.469
 2060TIP3   OH2 6124   4.312   5.996   2.511
 2060TIP3    H1 6125   4.224   6.028   2.528
 2060TIP3    H2 6126   4.317   5.912   2.556
 2061TIP3   OH2 6127   8.332   1.212   4.674
 2061TIP3    H1 6128   8.360   1.276   4.609
 2061TIP3    H2 6129   8.236   1.208   4.665
 2062TIP3   OH2 6130   6.963   0.027   2.465
 2062TIP3    H1 6131   6.884  -0.023   2.445
 2062TIP3    H2 6132   6.933   0.100   2.519
 2063TIP3   OH2 6133   7.864   2.710   2.601
 2063TIP3    H1 6134   7.805   2.676   2.668
 2063TIP3    H2 6135   7.866   2.804   2.616
 2064TIP3   OH2 6136   3.747   4.283   1.538
 2064TIP3    H1 6137   3.822   4.308   1.592
 2064TIP3    H2 6138   3.782   4.282   1.449
 2065TIP3   OH2 6139   5.228   1.095   1.516
 2065TIP3    H1 6140   5.151   1.067   1.566
 2065TIP3    H2 6141   5.273   1.013   1.495
 2066TIP3   OH2 6142   4.920   1.502   5.339
 2066TIP3    H1 6143   4.842   1.488   5.286
 2066TIP3    H2 6144   4.930   1.597   5.343
 2067TIP3   OH2 6145   3.599   0.164   6.718
 2067TIP3    H1 6146   3.512   0.167   6.678
 2067TIP3    H2 6147   3.629   0.255   6.715
 2068TIP3   OH2 6148   3.853   6.258   2.953
 2068TIP3    H1 6149   3.863   6.337   2.900
 2068TIP3    H2 6150   3.938   6.248   2.996
 2069TIP3   OH2 6151   1.433   4.016   6.073
 2069TIP3    H1 6152   1.375   3.948   6.107
 2069TIP3    H2 6153   1.481   3.974   6.002
 2070TIP3   OH2 6154   1.059   1.755   5.731
 2070TIP3    H1 6155   1.126   1.818   5.759
 2070TIP3    H2 6156   1.099   1.669   5.748
 2071TIP3   OH2 6157   0.923   4.160   0.484
 2071TIP3    H1 6158   0.927   4.080   0.536
 2071TIP3    H2 6159   0.837   4.157   0.442
 2072TIP3   OH2 6160   1.819   0.914   3.241
 2072TIP3    H1 6161   1.744   0.939   3.295
 2072TIP3    H2 6162   1.780   0.872   3.164
 2073TIP3   OH2 6163   5.486   4.107   5.632
 2073TIP3    H1 6164   5.528   4.124   5.716
 2073TIP3    H2 6165   5.464   4.193   5.597
 2074TIP3   OH2 6166   1.800   3.979   4.471
 2074TIP3    H1 6167   1.742   4.045   4.509
 2074TIP3    H2 6168   1.882   3.989   4.520
 2075TIP3   OH2 6169   6.679   5.554   4.417
 2075TIP3    H1 6170   6.667   5.649   4.425
 2075TIP3    H2 6171   6.687   5.539   4.323
 2076TIP3   OH2 6172   3.962   2.189   1.590
 2076TIP3    H1 6173   3.898   2.173   1.520
 2076TIP3    H2 6174   4.046   2.167   1.551
 2077TIP3   OH2 6175   4.836   5.659   4.837
 2077TIP3    H1 6176   4.922   5.673   4.878
 2077TIP3    H2 6177   4.780   5.629   4.909
 2078TIP3   OH2 6178   0.440   1.316   0.026
 2078TIP3    H1 6179   0.449   1.409   0.005
 2078TIP3    H2 6180   0.351   1.293   0.000
 2079TIP3   OH2 6181   3.749   5.372   1.892
 2079TIP3    H1 6182   3.834   5.374   1.848
 2079TIP3    H2 6183   3.719   5.463   1.888
 2080TIP3   OH2 6184   5.754   5.231   5.363
 2080TIP3    H1 6185   5.832   5.184   5.334
 2080TIP3    H2 6186   5.788   5.308   5.408
 2081TIP3   OH2 6187   6.613   3.061   5.254
 2081TIP3    H1 6188   6.564   3.012   5.188
 2081TIP3    H2 6189   6.556   3.062   5.331
 2082TIP3   OH2 6190   7.737   2.746   2.017
 2082TIP3    H1 6191   7.734   2.808   1.944
 2082TIP3    H2 6192   7.827   2.713   2.017
 2083TIP3   OH2 6193   2.263   2.366   5.122
 2083TIP3    H1 6194   2.298   2.454   5.114
 2083TIP3    H2 6195   2.336   2.314   5.155
 2084TIP3   OH2 6196   6.090   4.764   1.970
 2084TIP3    H1 6197   6.025   4.799   2.032
 2084TIP3    H2 6198   6.140   4.840   1.942
 2085TIP3   OH2 6199   1.343   3.074   5.997
 2085TIP3    H1 6200   1.304   3.017   5.931
 2085TIP3    H2 6201   1.344   3.020   6.077
 2086TIP3   OH2 6202   4.154   3.266   1.390
 2086TIP3    H1 6203   4.108   3.196   1.345
 2086TIP3    H2 6204   4.196   3.223   1.465
 2087TIP3   OH2 6205   3.235   0.565   6.150
 2087TIP3    H1 6206   3.180   0.555   6.072
 2087TIP3    H2 6207   3.295   0.636   6.129
 2088TIP3   OH2 6208   6.740   3.842   5.174
 2088TIP3    H1 6209   6.737   3.750   5.197
 2088TIP3    H2 6210   6.689   3.849   5.093
 2089TIP3   OH2 6211   4.689   3.738   3.403
 2089TIP3    H1 6212   4.706   3.645   3.387
 2089TIP3    H2 6213   4.606   3.739   3.450
 2090TIP3   OH2 6214   0.663   5.240   6.161
 2090TIP3    H1 6215   0.687   5.293   6.085
 2090TIP3    H2 6216   0.733   5.175   6.168
 2091TIP3   OH2 6217   4.699   4.505   4.614
 2091TIP3    H1 6218   4.745   4.540   4.538
 2091TIP3    H2 6219   4.617   4.469   4.578
 2092TIP3   OH2 6220   3.556   6.342   2.144
 2092TIP3    H1 6221   3.603   6.381   2.218
 2092TIP3    H2 6222   3.483   6.403   2.128
 2093TIP3   OH2 6223   5.893   6.838   4.148
 2093TIP3    H1 6224   5.918   6.747   4.131
 2093TIP3    H2 6225   5.965   6.889   4.113
 2094TIP3   OH2 6226   1.053   4.609   4.425
 2094TIP3    H1 6227   1.032   4.517   4.441
 2094TIP3    H2 6228   1.045   4.620   4.330
 2095TIP3   OH2 6229   2.978   2.449   4.569
 2095TIP3    H1 6230   3.055   2.502   4.545
 2095TIP3    H2 6231   2.944   2.491   4.647
 2096TIP3   OH2 6232   4.233   1.028   6.741
 2096TIP3    H1 6233   4.224   0.951   6.684
 2096TIP3    H2 6234   4.321   1.020   6.778
 2097TIP3   OH2 6235   3.319   1.156   0.315
 2097TIP3    H1 6236   3.343   1.114   0.398
 2097TIP3    H2 6237   3.254   1.096   0.277
 2098TIP3   OH2 6238   8.054   4.969   5.175
 2098TIP3    H1 6239   8.009   4.886   5.186
 2098TIP3    H2 6240   8.017   5.006   5.095
 2099TIP3   OH2 6241   1.449   4.081   4.101
 2099TIP3    H1 6242   1.414   4.169   4.089
 2099TIP3    H2 6243   1.400   4.027   4.038
 2100TIP3   OH2 6244   4.014   1.957   0.998
 2100TIP3    H1 6245   4.052   1.958   1.086
 2100TIP3    H2 6246   3.920   1.963   1.013
 2101TIP3   OH2 6247   3.440   7.209   5.499
 2101TIP3    H1 6248   3.475   7.122   5.515
 2101TIP3    H2 6249   3.400   7.203   5.412
 2102TIP3   OH2 6250   6.761   7.468   1.900
 2102TIP3    H1 6251   6.724   7.426   1.977
 2102TIP3    H2 6252   6.837   7.516   1.932
 2103TIP3   OH2 6253   7.965   3.348   1.567
 2103TIP3    H1 6254   7.893   3.294   1.601
 2103TIP3    H2 6255   7.922   3.428   1.536
 2104TIP3   OH2 6256   6.228   0.995   2.835
 2104TIP3    H1 6257   6.175   1.000   2.914
 2104TIP3    H2 6258   6.165   1.004   2.763
 2105TIP3   OH2 6259   3.459   1.621   1.536
 2105TIP3    H1 6260   3.469   1.592   1.446
 2105TIP3    H2 6261   3.498   1.708   1.538
 2106TIP3   OH2 6262   2.879   5.488   5.764
 2106TIP3    H1 6263   2.850   5.448   5.846
 2106TIP3    H2 6264   2.798   5.517   5.722
 2107TIP3   OH2 6265   2.538   3.036   3.028
 2107TIP3    H1 6266   2.568   2.994   3.109
 2107TIP3    H2 6267   2.585   2.991   2.958
 2108TIP3   OH2 6268   7.225   2.979   2.042
 2108TIP3    H1 6269   7.245   2.923   2.116
 2108TIP3    H2 6270   7.248   3.067   2.071
 2109TIP3   OH2 6271   2.515   3.599   1.155
 2109TIP3    H1 6272   2.543   3.691   1.154
 2109TIP3    H2 6273   2.593   3.550   1.180
 2110TIP3   OH2 6274   3.110   4.375   5.654
 2110TIP3    H1 6275   3.068   4.298   5.617
 2110TIP3    H2 6276   3.066   4.387   5.739
 2111TIP3   OH2 6277   5.077   3.202   4.617
 2111TIP3    H1 6278   5.142   3.258   4.660
 2111TIP3    H2 6279   5.116   3.182   4.532
 2112TIP3   OH2 6280   3.539   5.856   5.329
 2112TIP3    H1 6281   3.461   5.800   5.327
 2112TIP3    H2 6282   3.506   5.943   5.352
 2113TIP3   OH2 6283   5.687   0.810   0.799
 2113TIP3    H1 6284   5.704   0.762   0.880
 2113TIP3    H2 6285   5.745   0.887   0.804
 2114TIP3   OH2 6286   0.538   6.360   5.867
 2114TIP3    H1 6287   0.576   6.356   5.955
 2114TIP3    H2 6288   0.444   6.372   5.883
 2115TIP3   OH2 6289   7.351   7.058   0.416
 2115TIP3    H1 6290   7.432   7.072   0.464
 2115TIP3    H2 6291   7.294   7.012   0.477
 2116TIP3   OH2 6292   7.204   5.737   4.061
 2116TIP3    H1 6293   7.170   5.826   4.073
 2116TIP3    H2 6294   7.172   5.710   3.976
 2117TIP3   OH2 6295   2.034   3.443   1.348
 2117TIP3    H1 6296   2.034   3.395   1.265
 2117TIP3    H2 6297   2.120   3.487   1.351
 2118TIP3   OH2 6298   5.796   1.205   1.803
 2118TIP3    H1 6299   5.743   1.137   1.760
 2118TIP3    H2 6300   5.877   1.208   1.752
 2119TIP3   OH2 6301   1.354   2.534   2.061
 2119TIP3    H1 6302   1.335   2.617   2.018
 2119TIP3    H2 6303   1.348   2.468   1.991
 2120TIP3   OH2 6304   4.030   5.897   1.409
 2120TIP3    H1 6305   4.021   5.921   1.501
 2120TIP3    H2 6306   3.953   5.936   1.367
 2121TIP3   OH2 6307   5.431   5.619   3.454
 2121TIP3    H1 6308   5.500   5.627   3.520
 2121TIP3    H2 6309   5.403   5.709   3.438
 2122TIP3   OH2 6310   4.047   0.800   4.982
 2122TIP3    H1 6311   4.034   0.819   5.074
 2122TIP3    H2 6312   3.965   0.760   4.954
 2123TIP3   OH2 6313   5.021   4.253   5.572
 2123TIP3    H1 6314   5.062   4.211   5.647
 2123TIP3    H2 6315   5.049   4.344   5.577
 2124TIP3   OH2 6316   5.658   1.070  -0.019
 2124TIP3    H1 6317   5.672   0.975  -0.014
 2124TIP3    H2 6318   5.721   1.107   0.043
 2125TIP3   OH2 6319   2.126   3.310   6.493
 2125TIP3    H1 6320   2.171   3.234   6.532
 2125TIP3    H2 6321   2.119   3.373   6.564
 2126TIP3   OH2 6322   5.646   6.475   2.857
 2126TIP3    H1 6323   5.674   6.398   2.808
 2126TIP3    H2 6324   5.552   6.482   2.837
 2127TIP3   OH2 6325   7.773   4.605   5.008
 2127TIP3    H1 6326   7.756   4.681   5.064
 2127TIP3    H2 6327   7.770   4.641   4.919
 2128TIP3   OH2 6328   4.439   2.830   4.974
 2128TIP3    H1 6329   4.480   2.744   4.981
 2128TIP3    H2 6330   4.403   2.832   4.885
 2129TIP3   OH2 6331   7.695   6.909   5.932
 2129TIP3    H1 6332   7.752   6.942   5.862
 2129TIP3    H2 6333   7.749   6.914   6.011
 2130TIP3   OH2 6334   7.138   5.561   1.997
 2130TIP3    H1 6335   7.233   5.576   1.989
 2130TIP3    H2 6336   7.099   5.646   1.978
 2131TIP3   OH2 6337   5.705   4.992   2.408
 2131TIP3    H1 6338   5.629   4.934   2.413
 2131TIP3    H2 6339   5.704   5.041   2.490
 2132TIP3   OH2 6340   6.212   3.964   3.761
 2132TIP3    H1 6341   6.161   4.044   3.773
 2132TIP3    H2 6342   6.289   3.991   3.712
 2133TIP3   OH2 6343   3.916   3.582   0.830
 2133TIP3    H1 6344   3.865   3.501   0.834
 2133TIP3    H2 6345   3.898   3.626   0.913
 2134TIP3   OH2 6346   1.928   5.173   4.350
 2134TIP3    H1 6347   1.922   5.208   4.439
 2134TIP3    H2 6348   2.021   5.177   4.329
 2135TIP3   OH2 6349   7.868   5.431   2.957
 2135TIP3    H1 6350   7.919   5.474   3.025
 2135TIP3    H2 6351   7.871   5.491   2.882
 2136TIP3   OH2 6352   6.806   4.402   2.176
 2136TIP3    H1 6353   6.854   4.399   2.259
 2136TIP3    H2 6354   6.864   4.451   2.117
 2137TIP3   OH2 6355   3.954   4.500   1.681
 2137TIP3    H1 6356   3.963   4.468   1.771
 2137TIP3    H2 6357   3.932   4.593   1.690
 2138TIP3   OH2 6358   0.279   0.341   3.103
 2138TIP3    H1 6359   0.276   0.246   3.092
 2138TIP3    H2 6360   0.190   0.365   3.131
 2139TIP3   OH2 6361   2.199   5.164   4.292
 2139TIP3    H1 6362   2.289   5.186   4.317
 2139TIP3    H2 6363   2.208   5.103   4.219
 2140TIP3   OH2 6364   1.791   2.972   6.522
 2140TIP3    H1 6365   1.745   2.949   6.603
 2140TIP3    H2 6366   1.760   3.060   6.501
 2141TIP3   OH2 6367   1.967   6.684   2.183
 2141TIP3    H1 6368   2.006   6.743   2.119
 2141TIP3    H2 6369   1.997   6.597   2.157
 2142TIP3   OH2 6370   6.283   3.710   5.414
 2142TIP3    H1 6371   6.342   3.785   5.405
 2142TIP3    H2 6372   6.341   3.634   5.421
 2143TIP3   OH2 6373   2.324   4.138   4.169
 2143TIP3    H1 6374   2.373   4.080   4.228
 2143TIP3    H2 6375   2.275   4.078   4.112
 2144TIP3   OH2 6376   6.977   0.691   3.293
 2144TIP3    H1 6377   6.957   0.691   3.199
 2144TIP3    H2 6378   6.971   0.784   3.318
 2145TIP3   OH2 6379   0.690   4.638   4.742
 2145TIP3    H1 6380   0.702   4.588   4.661
 2145TIP3    H2 6381   0.718   4.579   4.811
 2146TIP3   OH2 6382   6.327   7.670   4.830
 2146TIP3    H1 6383   6.343   7.668   4.736
 2146TIP3    H2 6384   6.324   7.577   4.856
 2147TIP3   OH2 6385   0.958   0.571   1.116
 2147TIP3    H1 6386   0.950   0.489   1.165
 2147TIP3    H2 6387   0.993   0.545   1.031
 2148TIP3   OH2 6388   3.506   2.717   5.542
 2148TIP3    H1 6389   3.430   2.776   5.550
 2148TIP3    H2 6390   3.582   2.774   5.552
 2149TIP3   OH2 6391   1.868   2.208   2.818
 2149TIP3    H1 6392   1.934   2.233   2.881
 2149TIP3    H2 6393   1.831   2.290   2.786
 2150TIP3   OH2 6394   4.951   7.644   0.652
 2150TIP3    H1 6395   4.890   7.680   0.716
 2150TIP3    H2 6396   5.026   7.703   0.654
 2151TIP3   OH2 6397   8.164   5.262   1.949
 2151TIP3    H1 6398   8.244   5.212   1.963
 2151TIP3    H2 6399   8.162   5.325   2.022
 2152TIP3   OH2 6400   3.912   4.714   1.988
 2152TIP3    H1 6401   3.844   4.727   2.054
 2152TIP3    H2 6402   3.982   4.668   2.035
 2153TIP3   OH2 6403   6.992   1.808   0.876
 2153TIP3    H1 6404   6.923   1.872   0.857
 2153TIP3    H2 6405   6.983   1.743   0.806
 2154TIP3   OH2 6406   0.728   4.086   5.625
 2154TIP3    H1 6407   0.799   4.101   5.687
 2154TIP3    H2 6408   0.713   4.171   5.584
 2155TIP3   OH2 6409   5.921   5.336   2.171
 2155TIP3    H1 6410   6.006   5.310   2.206
 2155TIP3    H2 6411   5.939   5.362   2.081
 2156TIP3   OH2 6412   7.246   2.676   1.002
 2156TIP3    H1 6413   7.178   2.658   0.937
 2156TIP3    H2 6414   7.285   2.759   0.974
 2157TIP3   OH2 6415   2.844   1.516   3.788
 2157TIP3    H1 6416   2.838   1.521   3.693
 2157TIP3    H2 6417   2.902   1.589   3.813
 2158TIP3   OH2 6418   1.610   1.021   1.214
 2158TIP3    H1 6419   1.564   1.021   1.298
 2158TIP3    H2 6420   1.548   0.979   1.153
 2159TIP3   OH2 6421   7.311   4.628   5.148
 2159TIP3    H1 6422   7.340   4.608   5.237
 2159TIP3    H2 6423   7.269   4.714   5.155
 2160TIP3   OH2 6424   6.488   7.822   4.990
 2160TIP3    H1 6425   6.428   7.781   4.929
 2160TIP3    H2 6426   6.513   7.752   5.050
 2161TIP3   OH2 6427   0.284   6.905   6.023
 2161TIP3    H1 6428   0.281   6.998   6.000
 2161TIP3    H2 6429   0.245   6.860   5.948
 2162TIP3   OH2 6430   3.973   1.760   3.191
 2162TIP3    H1 6431   3.896   1.713   3.224
 2162TIP3    H2 6432   4.034   1.691   3.165
 2163TIP3   OH2 6433   0.314   4.527   5.699
 2163TIP3    H1 6434   0.238   4.471   5.688
 2163TIP3    H2 6435   0.279   4.616   5.701
 2164TIP3   OH2 6436   2.992   1.101   2.519
 2164TIP3    H1 6437   3.040   1.019   2.506
 2164TIP3    H2 6438   2.900   1.076   2.515
 2165TIP3   OH2 6439   2.437   4.803   6.784
 2165TIP3    H1 6440   2.507   4.760   6.734
 2165TIP3    H2 6441   2.364   4.741   6.779
 2166TIP3   OH2 6442   3.843   5.017   4.293
 2166TIP3    H1 6443   3.754   5.044   4.274
 2166TIP3    H2 6444   3.847   5.013   4.389
 2167TIP3   OH2 6445   7.773   0.721   5.563
 2167TIP3    H1 6446   7.716   0.751   5.493
 2167TIP3    H2 6447   7.718   0.660   5.614
 2168TIP3   OH2 6448   0.521   4.096   0.017
 2168TIP3    H1 6449   0.443   4.105   0.070
 2168TIP3    H2 6450   0.501   4.025  -0.044
 2169TIP3   OH2 6451   1.268   5.186   0.662
 2169TIP3    H1 6452   1.330   5.115   0.647
 2169TIP3    H2 6453   1.227   5.200   0.577
 2170TIP3   OH2 6454   4.552   6.798   1.510
 2170TIP3    H1 6455   4.592   6.750   1.583
 2170TIP3    H2 6456   4.533   6.885   1.546
 2171TIP3   OH2 6457   2.510   2.226   5.254
 2171TIP3    H1 6458   2.580   2.168   5.283
 2171TIP3    H2 6459   2.482   2.189   5.170
 2172TIP3   OH2 6460   5.597   6.093   0.750
 2172TIP3    H1 6461   5.513   6.058   0.780
 2172TIP3    H2 6462   5.662   6.046   0.801
 2173TIP3   OH2 6463   4.846   6.876   4.457
 2173TIP3    H1 6464   4.776   6.826   4.499
 2173TIP3    H2 6465   4.879   6.818   4.389
 2174TIP3   OH2 6466   7.114   7.411   5.561
 2174TIP3    H1 6467   7.036   7.452   5.598
 2174TIP3    H2 6468   7.105   7.424   5.466
 2175TIP3   OH2 6469   4.583   5.431   6.169
 2175TIP3    H1 6470   4.488   5.445   6.175
 2175TIP3    H2 6471   4.606   5.463   6.082
 2176TIP3   OH2 6472   6.842   6.631   6.055
 2176TIP3    H1 6473   6.763   6.611   6.006
 2176TIP3    H2 6474   6.854   6.725   6.045
 2177TIP3   OH2 6475   4.558   4.577   3.718
 2177TIP3    H1 6476   4.481   4.628   3.744
 2177TIP3    H2 6477   4.530   4.486   3.721
 2178TIP3   OH2 6478   1.139   7.587   4.051
 2178TIP3    H1 6479   1.094   7.526   3.994
 2178TIP3    H2 6480   1.214   7.539   4.085
 2179TIP3   OH2 6481   5.247   1.454   4.438
 2179TIP3    H1 6482   5.242   1.448   4.533
 2179TIP3    H2 6483   5.157   1.438   4.408
 2180TIP3   OH2 6484   7.004   1.416   3.447
 2180TIP3    H1 6485   7.040   1.500   3.422
 2180TIP3    H2 6486   7.074   1.372   3.494
 2181TIP3   OH2 6487   3.900   0.460   2.218
 2181TIP3    H1 6488   3.811   0.437   2.245
 2181TIP3    H2 6489   3.895   0.470   2.123
 2182TIP3   OH2 6490   6.610   6.054   1.596
 2182TIP3    H1 6491   6.606   6.143   1.630
 2182TIP3    H2 6492   6.520   6.023   1.599
 2183TIP3   OH2 6493   5.685   7.164   5.693
 2183TIP3    H1 6494   5.740   7.166   5.615
 2183TIP3    H2 6495   5.603   7.124   5.665
 2184TIP3   OH2 6496   2.037   4.996   0.793
 2184TIP3    H1 6497   2.046   4.933   0.722
 2184TIP3    H2 6498   2.017   4.943   0.870
 2185TIP3   OH2 6499   4.281   4.556   3.767
 2185TIP3    H1 6500   4.264   4.478   3.714
 2185TIP3    H2 6501   4.312   4.522   3.851
 2186TIP3   OH2 6502   2.017   7.121   6.136
 2186TIP3    H1 6503   1.961   7.143   6.062
 2186TIP3    H2 6504   2.071   7.199   6.150
 2187TIP3   OH2 6505   2.032   1.288   4.423
 2187TIP3    H1 6506   1.972   1.359   4.403
 2187TIP3    H2 6507   2.102   1.329   4.473
 2188TIP3   OH2 6508   8.060   7.137   4.888
 2188TIP3    H1 6509   8.118   7.074   4.845
 2188TIP3    H2 6510   8.100   7.222   4.870
 2189TIP3   OH2 6511   6.257   0.071   5.311
 2189TIP3    H1 6512   6.335   0.108   5.353
 2189TIP3    H2 6513   6.239  -0.009   5.359
 2190TIP3   OH2 6514   5.145   2.052   0.170
 2190TIP3    H1 6515   5.233   2.085   0.157
 2190TIP3    H2 6516   5.119   2.017   0.085
 2191TIP3   OH2 6517   3.813   2.516   1.269
 2191TIP3    H1 6518   3.767   2.577   1.327
 2191TIP3    H2 6519   3.906   2.529   1.289
 2192TIP3   OH2 6520   0.106   0.253   5.995
 2192TIP3    H1 6521   0.155   0.334   6.008
 2192TIP3    H2 6522   0.135   0.196   6.066
 2193TIP3   OH2 6523   6.724   7.046   4.594
 2193TIP3    H1 6524   6.752   6.955   4.587
 2193TIP3    H2 6525   6.636   7.042   4.633
 2194TIP3   OH2 6526   4.669   5.224   5.839
 2194TIP3    H1 6527   4.732   5.235   5.909
 2194TIP3    H2 6528   4.718   5.242   5.759
 2195TIP3   OH2 6529   6.267   7.662   5.270
 2195TIP3    H1 6530   6.356   7.679   5.241
 2195TIP3    H2 6531   6.230   7.604   5.204
 2196TIP3   OH2 6532   4.170   1.281   3.326
 2196TIP3    H1 6533   4.081   1.279   3.362
 2196TIP3    H2 6534   4.159   1.266   3.232
 2197TIP3   OH2 6535   0.146   5.607   2.509
 2197TIP3    H1 6536   0.184   5.558   2.582
 2197TIP3    H2 6537   0.180   5.563   2.431
 2198TIP3   OH2 6538   7.082   5.932   5.784
 2198TIP3    H1 6539   7.101   5.970   5.698
 2198TIP3    H2 6540   6.987   5.925   5.786
 2199TIP3   OH2 6541   1.099   0.348   6.476
 2199TIP3    H1 6542   1.162   0.276   6.468
 2199TIP3    H2 6543   1.059   0.335   6.562
 2200TIP3   OH2 6544   1.481   4.840   4.381
 2200TIP3    H1 6545   1.571   4.866   4.402
 2200TIP3    H2 6546   1.490   4.757   4.335
 2201TIP3   OH2 6547   0.090   2.365   5.592
 2201TIP3    H1 6548   0.032   2.294   5.567
 2201TIP3    H2 6549   0.080   2.371   5.687
 2202TIP3   OH2 6550   5.251   2.745   6.284
 2202TIP3    H1 6551   5.251   2.652   6.260
 2202TIP3    H2 6552   5.316   2.784   6.225
 2203TIP3   OH2 6553   5.118   3.457   2.477
 2203TIP3    H1 6554   5.053   3.489   2.415
 2203TIP3    H2 6555   5.079   3.379   2.516
 2204TIP3   OH2 6556   1.645   1.186   5.045
 2204TIP3    H1 6557   1.739   1.171   5.054
 2204TIP3    H2 6558   1.636   1.281   5.032
 2205TIP3   OH2 6559   4.071   4.240   1.501
 2205TIP3    H1 6560   4.152   4.254   1.550
 2205TIP3    H2 6561   4.042   4.153   1.526
 2206TIP3   OH2 6562   6.242   1.127   0.524
 2206TIP3    H1 6563   6.312   1.083   0.573
 2206TIP3    H2 6564   6.199   1.183   0.589
 2207TIP3   OH2 6565   2.827   4.122   6.654
 2207TIP3    H1 6566   2.864   4.210   6.646
 2207TIP3    H2 6567   2.828   4.105   6.748
 2208TIP3   OH2 6568   2.237   5.552   4.853
 2208TIP3    H1 6569   2.163   5.608   4.878
 2208TIP3    H2 6570   2.300   5.612   4.814
 2209TIP3   OH2 6571   1.819   0.459   4.433
 2209TIP3    H1 6572   1.745   0.496   4.481
 2209TIP3    H2 6573   1.785   0.441   4.346
 2210TIP3   OH2 6574   8.159   4.869   6.114
 2210TIP3    H1 6575   8.251   4.851   6.096
 2210TIP3    H2 6576   8.118   4.783   6.123
 2211TIP3   OH2 6577   0.911   0.800   3.129
 2211TIP3    H1 6578   0.819   0.774   3.118
 2211TIP3    H2 6579   0.954   0.769   3.050
 2212TIP3   OH2 6580   2.627   0.711   3.452
 2212TIP3    H1 6581   2.672   0.726   3.535
 2212TIP3    H2 6582   2.582   0.627   3.464
 2213TIP3   OH2 6583   0.881   1.655   2.466
 2213TIP3    H1 6584   0.788   1.652   2.488
 2213TIP3    H2 6585   0.887   1.616   2.379
 2214TIP3   OH2 6586   0.048   4.643   1.479
 2214TIP3    H1 6587   0.014   4.590   1.407
 2214TIP3    H2 6588   0.134   4.607   1.497
 2215TIP3   OH2 6589   2.820   5.981   5.223
 2215TIP3    H1 6590   2.895   5.975   5.163
 2215TIP3    H2 6591   2.818   6.073   5.249
 2216TIP3   OH2 6592   5.384   4.681   3.388
 2216TIP3    H1 6593   5.300   4.636   3.375
 2216TIP3    H2 6594   5.410   4.708   3.299
 2217TIP3   OH2 6595   8.194   0.162   4.137
 2217TIP3    H1 6596   8.116   0.109   4.123
 2217TIP3    H2 6597   8.266   0.106   4.109
 2218TIP3   OH2 6598   7.621   1.322   3.727
 2218TIP3    H1 6599   7.666   1.402   3.701
 2218TIP3    H2 6600   7.687   1.273   3.776
 2219TIP3   OH2 6601   3.158   4.053   5.281
 2219TIP3    H1 6602   3.180   4.136   5.240
 2219TIP3    H2 6603   3.066   4.062   5.306
 2220TIP3   OH2 6604   2.995   1.074   1.925
 2220TIP3    H1 6605   2.956   1.005   1.979
 2220TIP3    H2 6606   2.922   1.134   1.907
 2221TIP3   OH2 6607   8.038   7.324   1.475
 2221TIP3    H1 6608   8.130   7.343   1.458
 2221TIP3    H2 6609   7.990   7.393   1.429
 2222TIP3   OH2 6610   2.251   1.966   0.448
 2222TIP3    H1 6611   2.245   1.981   0.542
 2222TIP3    H2 6612   2.274   2.051   0.411
 2223TIP3   OH2 6613   3.644   5.153   0.380
 2223TIP3    H1 6614   3.701   5.135   0.306
 2223TIP3    H2 6615   3.590   5.074   0.388
 2224TIP3   OH2 6616   4.212   7.315   0.039
 2224TIP3    H1 6617   4.246   7.325   0.128
 2224TIP3    H2 6618   4.125   7.277   0.050
 2225TIP3   OH2 6619   6.821   0.929   0.115
 2225TIP3    H1 6620   6.818   0.939   0.020
 2225TIP3    H2 6621   6.748   0.982   0.147
 2226TIP3   OH2 6622   6.775   2.411   3.418
 2226TIP3    H1 6623   6.710   2.481   3.426
 2226TIP3    H2 6624   6.853   2.446   3.462
 2227TIP3   OH2 6625   5.721   6.694   2.505
 2227TIP3    H1 6626   5.676   6.690   2.421
 2227TIP3    H2 6627   5.684   6.771   2.549
 2228TIP3   OH2 6628   5.765   7.475   0.811
 2228TIP3    H1 6629   5.795   7.474   0.902
 2228TIP3    H2 6630   5.704   7.402   0.805
 2229TIP3   OH2 6631   0.361   1.444   4.798
 2229TIP3    H1 6632   0.388   1.443   4.706
 2229TIP3    H2 6633   0.441   1.464   4.847
 2230TIP3   OH2 6634   4.233   2.455   1.560
 2230TIP3    H1 6635   4.236   2.361   1.579
 2230TIP3    H2 6636   4.296   2.494   1.620
 2231TIP3   OH2 6637   3.826   1.127   4.722
 2231TIP3    H1 6638   3.871   1.058   4.771
 2231TIP3    H2 6639   3.880   1.141   4.644
 2232TIP3   OH2 6640   8.197   7.530   5.339
 2232TIP3    H1 6641   8.175   7.607   5.391
 2232TIP3    H2 6642   8.245   7.565   5.264
 2233TIP3   OH2 6643   5.413   3.947  -0.008
 2233TIP3    H1 6644   5.333   3.989  -0.041
 2233TIP3    H2 6645   5.382   3.869   0.039
 2234TIP3   OH2 6646   2.847   0.068   6.585
 2234TIP3    H1 6647   2.789   0.067   6.509
 2234TIP3    H2 6648   2.788   0.078   6.660
 2235TIP3   OH2 6649   2.470   5.760   3.973
 2235TIP3    H1 6650   2.458   5.794   4.062
 2235TIP3    H2 6651   2.560   5.728   3.973
 2236TIP3   OH2 6652   7.541   2.163   3.658
 2236TIP3    H1 6653   7.545   2.087   3.600
 2236TIP3    H2 6654   7.629   2.201   3.655
 2237TIP3   OH2 6655   7.910   6.488   1.667
 2237TIP3    H1 6656   7.815   6.487   1.680
 2237TIP3    H2 6657   7.937   6.397   1.678
 2238TIP3   OH2 6658   3.902   5.773   0.258
 2238TIP3    H1 6659   3.937   5.836   0.322
 2238TIP3    H2 6660   3.891   5.824   0.178
 2239TIP3   OH2 6661   0.218   0.303   4.630
 2239TIP3    H1 6662   0.292   0.354   4.663
 2239TIP3    H2 6663   0.169   0.279   4.708
 2240TIP3   OH2 6664   4.485   0.222   3.265
 2240TIP3    H1 6665   4.531   0.291   3.218
 2240TIP3    H2 6666   4.532   0.214   3.348
 2241TIP3   OH2 6667   6.835   7.495   0.195
 2241TIP3    H1 6668   6.822   7.542   0.277
 2241TIP3    H2 6669   6.824   7.402   0.218
 2242TIP3   OH2 6670   0.203   6.700   4.892
 2242TIP3    H1 6671   0.220   6.637   4.962
 2242TIP3    H2 6672   0.157   6.772   4.934
 2243TIP3   OH2 6673   1.394   5.111   5.367
 2243TIP3    H1 6674   1.381   5.061   5.287
 2243TIP3    H2 6675   1.486   5.095   5.391
 2244TIP3   OH2 6676   7.806   7.428   2.298
 2244TIP3    H1 6677   7.749   7.460   2.228
 2244TIP3    H2 6678   7.781   7.478   2.375
 2245TIP3   OH2 6679   6.829   1.453   4.530
 2245TIP3    H1 6680   6.868   1.420   4.450
 2245TIP3    H2 6681   6.737   1.427   4.525
 2246TIP3   OH2 6682   7.333   0.809   1.205
 2246TIP3    H1 6683   7.258   0.783   1.259
 2246TIP3    H2 6684   7.407   0.763   1.244
 2247TIP3   OH2 6685   3.865   5.944   0.682
 2247TIP3    H1 6686   3.931   5.921   0.617
 2247TIP3    H2 6687   3.895   5.902   0.762
 2248TIP3   OH2 6688   7.384   2.892   3.290
 2248TIP3    H1 6689   7.293   2.863   3.284
 2248TIP3    H2 6690   7.414   2.899   3.200
 2249TIP3   OH2 6691   4.071   3.330   1.824
 2249TIP3    H1 6692   4.002   3.384   1.863
 2249TIP3    H2 6693   4.067   3.350   1.730
 2250TIP3   OH2 6694   5.364   5.956   6.568
 2250TIP3    H1 6695   5.443   5.919   6.608
 2250TIP3    H2 6696   5.353   5.904   6.488
 2251TIP3   OH2 6697   4.532   4.668   6.698
 2251TIP3    H1 6698   4.563   4.665   6.788
 2251TIP3    H2 6699   4.520   4.576   6.674
 2252TIP3   OH2 6700   7.199   1.270   1.482
 2252TIP3    H1 6701   7.224   1.233   1.397
 2252TIP3    H2 6702   7.105   1.253   1.489
 2253TIP3   OH2 6703   1.259   6.164   2.886
 2253TIP3    H1 6704   1.290   6.253   2.870
 2253TIP3    H2 6705   1.257   6.156   2.982
 2254TIP3   OH2 6706   7.240   2.340   1.341
 2254TIP3    H1 6707   7.329   2.319   1.312
 2254TIP3    H2 6708   7.228   2.431   1.315
 2255TIP3   OH2 6709   8.173   4.203   0.344
 2255TIP3    H1 6710   8.163   4.192   0.250
 2255TIP3    H2 6711   8.222   4.284   0.354
 2256TIP3   OH2 6712   5.578   7.086   0.292
 2256TIP3    H1 6713   5.524   7.126   0.224
 2256TIP3    H2 6714   5.664   7.125   0.281
 2257TIP3   OH2 6715   2.689   4.403   6.514
 2257TIP3    H1 6716   2.625   4.363   6.574
 2257TIP3    H2 6717   2.687   4.496   6.537
 2258TIP3   OH2 6718   0.950   7.424   2.546
 2258TIP3    H1 6719   0.963   7.514   2.517
 2258TIP3    H2 6720   1.020   7.374   2.504
 2259TIP3   OH2 6721   2.540   0.726   2.904
 2259TIP3    H1 6722   2.524   0.672   2.981
 2259TIP3    H2 6723   2.601   0.793   2.934
 2260TIP3   OH2 6724   4.060   5.623   1.633
 2260TIP3    H1 6725   4.080   5.621   1.540
 2260TIP3    H2 6726   4.099   5.704   1.665
 2261TIP3   OH2 6727   1.208   4.649   5.080
 2261TIP3    H1 6728   1.242   4.685   4.998
 2261TIP3    H2 6729   1.270   4.580   5.104
 2262TIP3   OH2 6730   5.188   0.063   6.091
 2262TIP3    H1 6731   5.117   0.065   6.027
 2262TIP3    H2 6732   5.213   0.154   6.102
 2263TIP3   OH2 6733   3.361   1.388   4.993
 2263TIP3    H1 6734   3.436   1.354   5.042
 2263TIP3    H2 6735   3.396   1.461   4.943
 2264TIP3   OH2 6736   5.154   3.911   1.082
 2264TIP3    H1 6737   5.059   3.922   1.087
 2264TIP3    H2 6738   5.171   3.826   1.122
 2265TIP3   OH2 6739   7.760   6.066   4.580
 2265TIP3    H1 6740   7.720   6.116   4.509
 2265TIP3    H2 6741   7.845   6.039   4.545
 2266TIP3   OH2 6742   1.350   2.894   6.206
 2266TIP3    H1 6743   1.390   2.911   6.292
 2266TIP3    H2 6744   1.346   2.798   6.202
 2267TIP3   OH2 6745   4.495   6.751   5.357
 2267TIP3    H1 6746   4.434   6.805   5.307
 2267TIP3    H2 6747   4.516   6.678   5.299
 2268TIP3   OH2 6748   5.996   1.985   0.694
 2268TIP3    H1 6749   5.959   1.897   0.696
 2268TIP3    H2 6750   6.030   2.000   0.782
 2269TIP3   OH2 6751   6.158   1.739   0.461
 2269TIP3    H1 6752   6.130   1.662   0.511
 2269TIP3    H2 6753   6.087   1.753   0.398
 2270TIP3   OH2 6754   3.880   4.374   3.047
 2270TIP3    H1 6755   3.921   4.317   3.112
 2270TIP3    H2 6756   3.788   4.350   3.049
 2271TIP3   OH2 6757   5.155   3.785   4.163
 2271TIP3    H1 6758   5.122   3.750   4.245
 2271TIP3    H2 6759   5.114   3.871   4.155
 2272TIP3   OH2 6760   6.257   3.810   6.121
 2272TIP3    H1 6761   6.210   3.730   6.147
 2272TIP3    H2 6762   6.260   3.863   6.201
 2273TIP3   OH2 6763   2.115   6.859   6.134
 2273TIP3    H1 6764   2.095   6.953   6.137
 2273TIP3    H2 6765   2.030   6.817   6.128
 2274TIP3   OH2 6766   6.389   1.004   5.843
 2274TIP3    H1 6767   6.466   1.038   5.887
 2274TIP3    H2 6768   6.317   1.020   5.905
 2275TIP3   OH2 6769   5.705   2.165   1.733
 2275TIP3    H1 6770   5.796   2.141   1.749
 2275TIP3    H2 6771   5.709   2.234   1.666
 2276TIP3   OH2 6772   3.899   5.878   4.244
 2276TIP3    H1 6773   3.893   5.804   4.304
 2276TIP3    H2 6774   3.854   5.849   4.165
 2277TIP3   OH2 6775   4.477   1.790   0.934
 2277TIP3    H1 6776   4.555   1.811   0.882
 2277TIP3    H2 6777   4.408   1.844   0.895
 2278TIP3   OH2 6778   4.231   4.598   3.115
 2278TIP3    H1 6779   4.233   4.504   3.135
 2278TIP3    H2 6780   4.143   4.613   3.082
 2279TIP3   OH2 6781   3.147   6.333   1.320
 2279TIP3    H1 6782   3.059   6.367   1.307
 2279TIP3    H2 6783   3.205   6.399   1.282
 2280TIP3   OH2 6784   3.358   3.107   0.335
 2280TIP3    H1 6785   3.265   3.124   0.319
 2280TIP3    H2 6786   3.380   3.161   0.410
 2281TIP3   OH2 6787   3.487   5.037   6.309
 2281TIP3    H1 6788   3.462   5.110   6.252
 2281TIP3    H2 6789   3.469   5.069   6.397
 2282TIP3   OH2 6790   4.866   6.382   2.263
 2282TIP3    H1 6791   4.918   6.388   2.343
 2282TIP3    H2 6792   4.918   6.326   2.205
 2283TIP3   OH2 6793   0.340   5.815   4.813
 2283TIP3    H1 6794   0.361   5.749   4.878
 2283TIP3    H2 6795   0.407   5.804   4.745
 2284TIP3   OH2 6796   8.041   0.069   1.373
 2284TIP3    H1 6797   7.956   0.034   1.400
 2284TIP3    H2 6798   8.026   0.103   1.284
 2285TIP3   OH2 6799   1.618   5.954   1.418
 2285TIP3    H1 6800   1.620   6.043   1.383
 2285TIP3    H2 6801   1.709   5.937   1.444
 2286TIP3   OH2 6802   5.378   6.763   4.936
 2286TIP3    H1 6803   5.438   6.705   4.982
 2286TIP3    H2 6804   5.334   6.813   5.005
 2287TIP3   OH2 6805   8.026   1.146   2.140
 2287TIP3    H1 6806   8.003   1.073   2.197
 2287TIP3    H2 6807   8.121   1.156   2.150
 2288TIP3   OH2 6808   3.445   7.610   5.530
 2288TIP3    H1 6809   3.504   7.586   5.458
 2288TIP3    H2 6810   3.433   7.529   5.579
 2289TIP3   OH2 6811   5.016   6.418   4.240
 2289TIP3    H1 6812   4.998   6.351   4.175
 2289TIP3    H2 6813   5.083   6.380   4.297
 2290TIP3   OH2 6814   4.517   3.115   5.709
 2290TIP3    H1 6815   4.523   3.031   5.664
 2290TIP3    H2 6816   4.564   3.102   5.791
 2291TIP3   OH2 6817   6.520   7.029   3.886
 2291TIP3    H1 6818   6.612   7.018   3.911
 2291TIP3    H2 6819   6.475   6.959   3.932
 2292TIP3   OH2 6820   6.634   3.980   3.877
 2292TIP3    H1 6821   6.630   4.035   3.956
 2292TIP3    H2 6822   6.727   3.973   3.857
 2293TIP3   OH2 6823   0.959   4.053   2.627
 2293TIP3    H1 6824   1.035   4.075   2.573
 2293TIP3    H2 6825   0.890   4.113   2.598
 2294TIP3   OH2 6826   3.819   3.273   4.143
 2294TIP3    H1 6827   3.840   3.183   4.166
 2294TIP3    H2 6828   3.769   3.306   4.218
 2295TIP3   OH2 6829   4.841   5.046   0.387
 2295TIP3    H1 6830   4.790   5.071   0.464
 2295TIP3    H2 6831   4.819   4.954   0.371
 2296TIP3   OH2 6832   7.755   7.832   4.412
 2296TIP3    H1 6833   7.709   7.916   4.409
 2296TIP3    H2 6834   7.721   7.788   4.490
 2297TIP3   OH2 6835   4.269   2.925   4.528
 2297TIP3    H1 6836   4.178   2.952   4.527
 2297TIP3    H2 6837   4.317   3.000   4.562
 2298TIP3   OH2 6838   4.313   0.901   0.311
 2298TIP3    H1 6839   4.236   0.957   0.293
 2298TIP3    H2 6840   4.388   0.954   0.283
 2299TIP3   OH2 6841   3.959   4.978   3.492
 2299TIP3    H1 6842   4.054   4.980   3.497
 2299TIP3    H2 6843   3.937   4.884   3.491
 2300TIP3   OH2 6844   0.206   4.792   1.799
 2300TIP3    H1 6845   0.213   4.814   1.892
 2300TIP3    H2 6846   0.253   4.862   1.754
 2301TIP3   OH2 6847   1.742   2.741   3.651
 2301TIP3    H1 6848   1.831   2.752   3.619
 2301TIP3    H2 6849   1.692   2.811   3.609
 2302TIP3   OH2 6850   0.133   1.386   4.481
 2302TIP3    H1 6851   0.208   1.430   4.522
 2302TIP3    H2 6852   0.110   1.444   4.407
 2303TIP3   OH2 6853   4.455   6.682   2.586
 2303TIP3    H1 6854   4.371   6.711   2.621
 2303TIP3    H2 6855   4.460   6.589   2.611
 2304TIP3   OH2 6856   0.666   6.013   3.516
 2304TIP3    H1 6857   0.612   6.009   3.595
 2304TIP3    H2 6858   0.754   5.993   3.546
 2305TIP3   OH2 6859   2.135   5.505   6.203
 2305TIP3    H1 6860   2.217   5.455   6.195
 2305TIP3    H2 6861   2.072   5.440   6.234
 2306TIP3   OH2 6862  -0.028   3.242   5.612
 2306TIP3    H1 6863  -0.074   3.177   5.664
 2306TIP3    H2 6864  -0.088   3.261   5.540
 2307TIP3   OH2 6865   3.065   2.727   0.275
 2307TIP3    H1 6866   2.983   2.687   0.244
 2307TIP3    H2 6867   3.064   2.815   0.239
 2308TIP3   OH2 6868   3.570   5.195   1.788
 2308TIP3    H1 6869   3.498   5.249   1.755
 2308TIP3    H2 6870   3.621   5.254   1.842
 2309TIP3   OH2 6871   3.792   5.218   3.109
 2309TIP3    H1 6872   3.773   5.126   3.125
 2309TIP3    H2 6873   3.859   5.240   3.174
 2310TIP3   OH2 6874   2.452   2.949   4.264
 2310TIP3    H1 6875   2.433   3.026   4.318
 2310TIP3    H2 6876   2.521   2.979   4.205
 2311TIP3   OH2 6877   3.047   0.724   5.490
 2311TIP3    H1 6878   3.027   0.650   5.547
 2311TIP3    H2 6879   3.030   0.801   5.544
 2312TIP3   OH2 6880   4.912   4.644   4.103
 2312TIP3    H1 6881   4.867   4.631   4.019
 2312TIP3    H2 6882   5.004   4.624   4.083
 2313TIP3   OH2 6883   4.601   6.776   2.361
 2313TIP3    H1 6884   4.621   6.703   2.303
 2313TIP3    H2 6885   4.543   6.740   2.428
 2314TIP3   OH2 6886   5.707   5.116   4.139
 2314TIP3    H1 6887   5.619   5.099   4.173
 2314TIP3    H2 6888   5.724   5.208   4.161
 2315TIP3   OH2 6889   7.346   0.641   0.215
 2315TIP3    H1 6890   7.254   0.615   0.214
 2315TIP3    H2 6891   7.395   0.558   0.215
 2316TIP3   OH2 6892   3.347   0.644   3.576
 2316TIP3    H1 6893   3.317   0.636   3.666
 2316TIP3    H2 6894   3.377   0.735   3.568
 2317TIP3   OH2 6895   2.661   1.996   0.139
 2317TIP3    H1 6896   2.584   1.973   0.086
 2317TIP3    H2 6897   2.677   2.088   0.118
 2318TIP3   OH2 6898   1.171   4.312   6.076
 2318TIP3    H1 6899   1.099   4.249   6.077
 2318TIP3    H2 6900   1.250   4.258   6.077
 2319TIP3   OH2 6901   3.260   6.245   1.032
 2319TIP3    H1 6902   3.270   6.218   1.123
 2319TIP3    H2 6903   3.179   6.296   1.031
 2320TIP3   OH2 6904   0.225   7.391   5.275
 2320TIP3    H1 6905   0.176   7.365   5.352
 2320TIP3    H2 6906   0.163   7.442   5.223
 2321TIP3   OH2 6907   5.550   7.512   0.495
 2321TIP3    H1 6908   5.527   7.604   0.500
 2321TIP3    H2 6909   5.566   7.496   0.402
 2322TIP3   OH2 6910   0.558   1.492   4.982
 2322TIP3    H1 6911   0.519   1.472   5.067
 2322TIP3    H2 6912   0.627   1.555   5.001
 2323TIP3   OH2 6913   6.763   0.192   2.128
 2323TIP3    H1 6914   6.769   0.231   2.216
 2323TIP3    H2 6915   6.669   0.182   2.112
 2324TIP3   OH2 6916   6.577   5.798   5.102
 2324TIP3    H1 6917   6.620   5.833   5.180
 2324TIP3    H2 6918   6.507   5.860   5.083
 2325TIP3   OH2 6919   0.549   6.225   0.148
 2325TIP3    H1 6920   0.522   6.277   0.072
 2325TIP3    H2 6921   0.629   6.268   0.179
 2326TIP3   OH2 6922   1.422   5.206   4.934
 2326TIP3    H1 6923   1.476   5.135   4.969
 2326TIP3    H2 6924   1.429   5.276   4.999
 2327TIP3   OH2 6925   4.640   1.668   5.476
 2327TIP3    H1 6926   4.702   1.669   5.548
 2327TIP3    H2 6927   4.624   1.575   5.459
 2328TIP3   OH2 6928   1.691   3.907   5.652
 2328TIP3    H1 6929   1.631   3.877   5.720
 2328TIP3    H2 6930   1.747   3.972   5.695
 2329TIP3   OH2 6931   2.270   7.187   5.947
 2329TIP3    H1 6932   2.344   7.248   5.944
 2329TIP3    H2 6933   2.193   7.240   5.928
 2330TIP3   OH2 6934   5.600   2.843   2.204
 2330TIP3    H1 6935   5.610   2.905   2.276
 2330TIP3    H2 6936   5.645   2.885   2.130
 2331TIP3   OH2 6937   6.544   0.094   3.323
 2331TIP3    H1 6938   6.624   0.049   3.299
 2331TIP3    H2 6939   6.574   0.175   3.364
 2332TIP3   OH2 6940   6.679   0.981   3.272
 2332TIP3    H1 6941   6.736   0.955   3.345
 2332TIP3    H2 6942   6.665   1.075   3.285
 2333TIP3   OH2 6943   0.135   4.853   4.909
 2333TIP3    H1 6944   0.211   4.810   4.948
 2333TIP3    H2 6945   0.117   4.926   4.968
 2334TIP3   OH2 6946   0.961   2.089   4.425
 2334TIP3    H1 6947   1.013   2.057   4.500
 2334TIP3    H2 6948   0.916   2.166   4.459
 2335TIP3   OH2 6949   1.866   4.620   5.020
 2335TIP3    H1 6950   1.810   4.544   5.036
 2335TIP3    H2 6951   1.828   4.661   4.942
 2336TIP3   OH2 6952   1.873   1.559   2.369
 2336TIP3    H1 6953   1.835   1.562   2.456
 2336TIP3    H2 6954   1.810   1.606   2.314
 2337TIP3   OH2 6955   0.698   7.549   5.920
 2337TIP3    H1 6956   0.677   7.642   5.920
 2337TIP3    H2 6957   0.668   7.517   5.834
 2338TIP3   OH2 6958   7.387   3.293   4.483
 2338TIP3    H1 6959   7.473   3.283   4.524
 2338TIP3    H2 6960   7.406   3.322   4.394
 2339TIP3   OH2 6961   4.772   4.182   5.982
 2339TIP3    H1 6962   4.716   4.218   6.051
 2339TIP3    H2 6963   4.711   4.147   5.918
 2340TIP3   OH2 6964   2.508   4.571   0.222
 2340TIP3    H1 6965   2.486   4.511   0.293
 2340TIP3    H2 6966   2.459   4.651   0.242
 2341TIP3   OH2 6967   4.048   1.876   4.109
 2341TIP3    H1 6968   4.070   1.931   4.184
 2341TIP3    H2 6969   4.098   1.796   4.121
 2342TIP3   OH2 6970   2.710   5.783   0.267
 2342TIP3    H1 6971   2.653   5.739   0.330
 2342TIP3    H2 6972   2.677   5.873   0.263
 2343TIP3   OH2 6973   2.998   0.661   6.517
 2343TIP3    H1 6974   2.915   0.702   6.492
 2343TIP3    H2 6975   2.991   0.648   6.611
 2344TIP3   OH2 6976   7.018   6.724   4.843
 2344TIP3    H1 6977   7.077   6.775   4.898
 2344TIP3    H2 6978   7.069   6.648   4.815
 2345TIP3   OH2 6979   5.463   2.372   0.317
 2345TIP3    H1 6980   5.553   2.381   0.287
 2345TIP3    H2 6981   5.419   2.452   0.286
 2346TIP3   OH2 6982   6.156   3.037   3.085
 2346TIP3    H1 6983   6.074   2.987   3.090
 2346TIP3    H2 6984   6.158   3.071   2.996
 2347TIP3   OH2 6985   1.357   1.682   6.016
 2347TIP3    H1 6986   1.402   1.661   6.097
 2347TIP3    H2 6987   1.320   1.769   6.030
 2348TIP3   OH2 6988   3.925   0.730   6.341
 2348TIP3    H1 6989   3.937   0.728   6.246
 2348TIP3    H2 6990   3.983   0.661   6.374
 2349TIP3   OH2 6991   5.161   4.873   5.024
 2349TIP3    H1 6992   5.178   4.864   4.930
 2349TIP3    H2 6993   5.248   4.887   5.062
 2350TIP3   OH2 6994   4.289   7.045   1.172
 2350TIP3    H1 6995   4.310   6.964   1.218
 2350TIP3    H2 6996   4.319   7.031   1.082
 2351TIP3   OH2 6997   0.905   0.320   2.057
 2351TIP3    H1 6998   0.822   0.341   2.100
 2351TIP3    H2 6999   0.880   0.303   1.966
 2352TIP3   OH2 7000   2.084   3.271   6.015
 2352TIP3    H1 7001   2.120   3.194   5.972
 2352TIP3    H2 7002   2.084   3.248   6.108
 2353TIP3   OH2 7003   2.569   0.870   5.954
 2353TIP3    H1 7004   2.599   0.901   6.040
 2353TIP3    H2 7005   2.602   0.935   5.892
 2354TIP3   OH2 7006   6.572   6.953   3.179
 2354TIP3    H1 7007   6.653   6.979   3.223
 2354TIP3    H2 7008   6.562   6.860   3.200
 2355TIP3   OH2 7009   4.804   0.166   0.549
 2355TIP3    H1 7010   4.760   0.165   0.464
 2355TIP3    H2 7011   4.874   0.230   0.540
 2356TIP3   OH2 7012   1.730   6.793   6.405
 2356TIP3    H1 7013   1.804   6.756   6.453
 2356TIP3    H2 7014   1.653   6.746   6.440
 2357TIP3   OH2 7015   1.482   7.294   0.920
 2357TIP3    H1 7016   1.406   7.348   0.944
 2357TIP3    H2 7017   1.463   7.209   0.960
 2358TIP3   OH2 7018   3.037   7.307   4.935
 2358TIP3    H1 7019   3.081   7.257   5.004
 2358TIP3    H2 7020   3.107   7.357   4.893
 2359TIP3   OH2 7021   0.824   4.854   2.327
 2359TIP3    H1 7022   0.844   4.940   2.365
 2359TIP3    H2 7023   0.910   4.816   2.309
 2360TIP3   OH2 7024   7.047   1.378   4.800
 2360TIP3    H1 7025   7.120   1.395   4.741
 2360TIP3    H2 7026   6.985   1.327   4.749
 2361TIP3   OH2 7027   1.741   1.080   2.200
 2361TIP3    H1 7028   1.746   1.172   2.223
 2361TIP3    H2 7029   1.792   1.035   2.268
 2362TIP3   OH2 7030   2.471   1.750   3.154
 2362TIP3    H1 7031   2.510   1.823   3.106
 2362TIP3    H2 7032   2.377   1.765   3.148
 2363TIP3   OH2 7033   1.921   6.492   1.445
 2363TIP3    H1 7034   1.833   6.525   1.462
 2363TIP3    H2 7035   1.977   6.569   1.450
 2364TIP3   OH2 7036   3.490   3.110   1.778
 2364TIP3    H1 7037   3.502   3.205   1.775
 2364TIP3    H2 7038   3.398   3.099   1.801
 2365TIP3   OH2 7039   4.898   0.724   3.376
 2365TIP3    H1 7040   4.874   0.809   3.338
 2365TIP3    H2 7041   4.993   0.728   3.386
 2366TIP3   OH2 7042   1.091   4.680   5.314
 2366TIP3    H1 7043   1.028   4.752   5.306
 2366TIP3    H2 7044   1.121   4.666   5.224
 2367TIP3   OH2 7045   7.929   6.119   5.952
 2367TIP3    H1 7046   7.900   6.144   5.865
 2367TIP3    H2 7047   7.872   6.169   6.011
 2368TIP3   OH2 7048   7.765   6.376   0.251
 2368TIP3    H1 7049   7.856   6.369   0.223
 2368TIP3    H2 7050   7.725   6.293   0.225
 2369TIP3   OH2 7051   2.749   1.197   4.412
 2369TIP3    H1 7052   2.683   1.262   4.387
 2369TIP3    H2 7053   2.832   1.243   4.405
 2370TIP3   OH2 7054   6.682   3.890   2.117
 2370TIP3    H1 7055   6.648   3.808   2.081
 2370TIP3    H2 7056   6.745   3.921   2.053
 2371TIP3   OH2 7057   4.624   0.678   1.415
 2371TIP3    H1 7058   4.624   0.609   1.349
 2371TIP3    H2 7059   4.660   0.754   1.369
 2372TIP3   OH2 7060   4.177   3.789   0.657
 2372TIP3    H1 7061   4.150   3.868   0.609
 2372TIP3    H2 7062   4.097   3.738   0.666
 2373TIP3   OH2 7063   7.923   4.389   3.323
 2373TIP3    H1 7064   7.955   4.470   3.283
 2373TIP3    H2 7065   7.850   4.416   3.378
 2374TIP3   OH2 7066   6.861   1.779   6.445
 2374TIP3    H1 7067   6.770   1.779   6.474
 2374TIP3    H2 7068   6.888   1.687   6.452
 2375TIP3   OH2 7069   3.713   2.027   4.929
 2375TIP3    H1 7070   3.636   2.065   4.886
 2375TIP3    H2 7071   3.743   2.094   4.990
 2376TIP3   OH2 7072   3.333   2.534   3.452
 2376TIP3    H1 7073   3.418   2.557   3.489
 2376TIP3    H2 7074   3.272   2.544   3.525
 2377TIP3   OH2 7075   4.652   5.959   2.802
 2377TIP3    H1 7076   4.736   5.990   2.835
 2377TIP3    H2 7077   4.662   5.864   2.799
 2378TIP3   OH2 7078   2.821   5.980   3.445
 2378TIP3    H1 7079   2.893   6.043   3.433
 2378TIP3    H2 7080   2.772   6.015   3.519
 2379TIP3   OH2 7081   0.232   4.911   0.887
 2379TIP3    H1 7082   0.241   4.887   0.979
 2379TIP3    H2 7083   0.142   4.942   0.879
 2380TIP3   OH2 7084   5.285   2.473   6.209
 2380TIP3    H1 7085   5.232   2.412   6.157
 2380TIP3    H2 7086   5.371   2.432   6.214
 2381TIP3   OH2 7087   2.028   4.695   1.833
 2381TIP3    H1 7088   2.059   4.786   1.833
 2381TIP3    H2 7089   1.933   4.702   1.825
 2382TIP3   OH2 7090   3.882   2.451   4.166
 2382TIP3    H1 7091   3.946   2.388   4.134
 2382TIP3    H2 7092   3.856   2.417   4.252
 2383TIP3   OH2 7093   3.953   3.723   0.484
 2383TIP3    H1 7094   3.994   3.645   0.445
 2383TIP3    H2 7095   3.897   3.758   0.414
 2384TIP3   OH2 7096   2.917   6.287   0.162
 2384TIP3    H1 7097   2.949   6.284   0.072
 2384TIP3    H2 7098   2.824   6.309   0.153
 2385TIP3   OH2 7099   6.935   1.371   4.297
 2385TIP3    H1 7100   6.928   1.338   4.207
 2385TIP3    H2 7101   6.969   1.460   4.287
 2386TIP3   OH2 7102   5.066   4.219   2.009
 2386TIP3    H1 7103   5.014   4.139   2.010
 2386TIP3    H2 7104   5.008   4.286   1.974
 2387TIP3   OH2 7105   2.631   7.129   2.964
 2387TIP3    H1 7106   2.647   7.075   3.041
 2387TIP3    H2 7107   2.713   7.178   2.952
 2388TIP3   OH2 7108   8.190   2.373   0.440
 2388TIP3    H1 7109   8.141   2.407   0.516
 2388TIP3    H2 7110   8.189   2.278   0.452
 2389TIP3   OH2 7111   5.204   4.710   5.393
 2389TIP3    H1 7112   5.245   4.780   5.342
 2389TIP3    H2 7113   5.219   4.735   5.485
 2390TIP3   OH2 7114   3.354   3.364   4.332
 2390TIP3    H1 7115   3.354   3.419   4.410
 2390TIP3    H2 7116   3.316   3.281   4.362
 2391TIP3   OH2 7117   4.053   3.232   5.402
 2391TIP3    H1 7118   4.122   3.216   5.466
 2391TIP3    H2 7119   3.977   3.183   5.435
 2392TIP3   OH2 7120   7.568   3.649   5.224
 2392TIP3    H1 7121   7.610   3.706   5.289
 2392TIP3    H2 7122   7.599   3.683   5.140
 2393TIP3   OH2 7123   0.981   4.311   4.840
 2393TIP3    H1 7124   1.063   4.264   4.856
 2393TIP3    H2 7125   0.927   4.249   4.790
 2394TIP3   OH2 7126   4.210   1.909   4.842
 2394TIP3    H1 7127   4.174   1.836   4.893
 2394TIP3    H2 7128   4.251   1.868   4.766
 2395TIP3   OH2 7129   5.844   0.142   4.004
 2395TIP3    H1 7130   5.917   0.141   4.066
 2395TIP3    H2 7131   5.772   0.180   4.054
 2396TIP3   OH2 7132   7.179   2.659   1.282
 2396TIP3    H1 7133   7.250   2.712   1.320
 2396TIP3    H2 7134   7.200   2.654   1.189
 2397TIP3   OH2 7135   5.556   2.986   5.623
 2397TIP3    H1 7136   5.477   2.971   5.571
 2397TIP3    H2 7137   5.524   3.019   5.707
 2398TIP3   OH2 7138   6.272   0.435   2.803
 2398TIP3    H1 7139   6.263   0.419   2.897
 2398TIP3    H2 7140   6.255   0.529   2.793
 2399TIP3   OH2 7141   4.642   1.896   5.854
 2399TIP3    H1 7142   4.715   1.954   5.872
 2399TIP3    H2 7143   4.658   1.863   5.766
 2400TIP3   OH2 7144   0.718   4.975   3.778
 2400TIP3    H1 7145   0.701   4.959   3.685
 2400TIP3    H2 7146   0.813   4.965   3.787
 2401TIP3   OH2 7147   3.367   7.473   4.340
 2401TIP3    H1 7148   3.384   7.457   4.247
 2401TIP3    H2 7149   3.338   7.564   4.343
 2402TIP3   OH2 7150   5.740   7.030   2.845
 2402TIP3    H1 7151   5.796   6.958   2.815
 2402TIP3    H2 7152   5.658   7.019   2.798
 2403TIP3   OH2 7153   6.389   0.297   1.813
 2403TIP3    H1 7154   6.435   0.222   1.850
 2403TIP3    H2 7155   6.310   0.260   1.774
 2404TIP3   OH2 7156   0.215   5.389   4.352
 2404TIP3    H1 7157   0.152   5.323   4.379
 2404TIP3    H2 7158   0.296   5.341   4.339
 2405TIP3   OH2 7159   5.415   0.557   0.762
 2405TIP3    H1 7160   5.404   0.651   0.778
 2405TIP3    H2 7161   5.420   0.518   0.849
 2406TIP3   OH2 7162   1.324   6.330   6.188
 2406TIP3    H1 7163   1.263   6.305   6.257
 2406TIP3    H2 7164   1.281   6.303   6.107
 2407TIP3   OH2 7165   0.804   1.202   1.295
 2407TIP3    H1 7166   0.743   1.132   1.316
 2407TIP3    H2 7167   0.864   1.204   1.370
 2408TIP3   OH2 7168   3.200   0.275   2.452
 2408TIP3    H1 7169   3.144   0.257   2.528
 2408TIP3    H2 7170   3.153   0.343   2.404
 2409TIP3   OH2 7171   1.045   4.892   5.813
 2409TIP3    H1 7172   1.081   4.925   5.896
 2409TIP3    H2 7173   1.068   4.959   5.749
 2410TIP3   OH2 7174   6.387   1.292   5.375
 2410TIP3    H1 7175   6.299   1.297   5.339
 2410TIP3    H2 7176   6.444   1.291   5.298
 2411TIP3   OH2 7177   3.888   6.262   1.786
 2411TIP3    H1 7178   3.819   6.221   1.735
 2411TIP3    H2 7179   3.854   6.349   1.807
 2412TIP3   OH2 7180   2.469   0.903   3.147
 2412TIP3    H1 7181   2.445   0.902   3.240
 2412TIP3    H2 7182   2.564   0.899   3.146
 2413TIP3   OH2 7183   7.684   4.853   5.090
 2413TIP3    H1 7184   7.657   4.852   4.998
 2413TIP3    H2 7185   7.723   4.940   5.103
 2414TIP3   OH2 7186   7.318   1.261   1.962
 2414TIP3    H1 7187   7.245   1.321   1.948
 2414TIP3    H2 7188   7.339   1.227   1.876
 2415TIP3   OH2 7189   4.101   1.425   2.308
 2415TIP3    H1 7190   4.161   1.350   2.315
 2415TIP3    H2 7191   4.017   1.391   2.338
 2416TIP3   OH2 7192   0.319   0.894   0.331
 2416TIP3    H1 7193   0.292   0.883   0.240
 2416TIP3    H2 7194   0.331   0.989   0.341
 2417TIP3   OH2 7195   7.207   1.339   6.536
 2417TIP3    H1 7196   7.226   1.370   6.447
 2417TIP3    H2 7197   7.197   1.419   6.587
 2418TIP3   OH2 7198   1.081   1.276   0.530
 2418TIP3    H1 7199   1.120   1.244   0.612
 2418TIP3    H2 7200   1.146   1.338   0.496
 2419TIP3   OH2 7201   3.863   6.755   5.651
 2419TIP3    H1 7202   3.779   6.753   5.605
 2419TIP3    H2 7203   3.859   6.681   5.712
 2420TIP3   OH2 7204   4.445   1.741   2.596
 2420TIP3    H1 7205   4.355   1.751   2.564
 2420TIP3    H2 7206   4.448   1.653   2.633
 2421TIP3   OH2 7207   2.805   4.458   5.878
 2421TIP3    H1 7208   2.798   4.528   5.812
 2421TIP3    H2 7209   2.728   4.403   5.862
 2422TIP3   OH2 7210   2.799   7.009   3.133
 2422TIP3    H1 7211   2.844   6.977   3.211
 2422TIP3    H2 7212   2.869   7.046   3.078
 2423TIP3   OH2 7213   1.646   7.446   6.276
 2423TIP3    H1 7214   1.702   7.368   6.267
 2423TIP3    H2 7215   1.576   7.418   6.335
 2424TIP3   OH2 7216   8.092   1.957   0.691
 2424TIP3    H1 7217   8.166   1.956   0.629
 2424TIP3    H2 7218   8.090   1.869   0.728
 2425TIP3   OH2 7219   5.102   2.980   6.128
 2425TIP3    H1 7220   5.115   2.889   6.103
 2425TIP3    H2 7221   5.007   2.992   6.127
 2426TIP3   OH2 7222   7.140   5.117   4.235
 2426TIP3    H1 7223   7.110   5.108   4.145
 2426TIP3    H2 7224   7.085   5.187   4.272
 2427TIP3   OH2 7225   4.191   0.563   6.063
 2427TIP3    H1 7226   4.104   0.543   6.029
 2427TIP3    H2 7227   4.219   0.482   6.106
 2428TIP3   OH2 7228   5.769   6.542   1.088
 2428TIP3    H1 7229   5.820   6.618   1.115
 2428TIP3    H2 7230   5.721   6.571   1.011
 2429TIP3   OH2 7231   6.564   7.695   0.275
 2429TIP3    H1 7232   6.541   7.675   0.184
 2429TIP3    H2 7233   6.503   7.642   0.327
 2430TIP3   OH2 7234   4.783   2.235   4.352
 2430TIP3    H1 7235   4.780   2.139   4.348
 2430TIP3    H2 7236   4.697   2.262   4.318
 2431TIP3   OH2 7237   0.144   0.605   4.078
 2431TIP3    H1 7238   0.081   0.650   4.134
 2431TIP3    H2 7239   0.228   0.616   4.121
 2432TIP3   OH2 7240   3.898   7.450   6.448
 2432TIP3    H1 7241   3.855   7.515   6.392
 2432TIP3    H2 7242   3.990   7.455   6.423
 2433TIP3   OH2 7243   5.723   2.468   0.284
 2433TIP3    H1 7244   5.794   2.478   0.347
 2433TIP3    H2 7245   5.756   2.505   0.203
 2434TIP3   OH2 7246   7.294   5.038   3.027
 2434TIP3    H1 7247   7.376   5.027   2.979
 2434TIP3    H2 7248   7.234   4.975   2.987
 2435TIP3   OH2 7249   2.266   5.226   0.921
 2435TIP3    H1 7250   2.270   5.308   0.871
 2435TIP3    H2 7251   2.175   5.222   0.952
 2436TIP3   OH2 7252   7.227   2.764   4.863
 2436TIP3    H1 7253   7.288   2.690   4.865
 2436TIP3    H2 7254   7.271   2.830   4.809
 2437TIP3   OH2 7255   6.974   7.719   4.167
 2437TIP3    H1 7256   7.046   7.782   4.168
 2437TIP3    H2 7257   6.898   7.771   4.140
 2438TIP3   OH2 7258   6.649   6.886   2.193
 2438TIP3    H1 7259   6.709   6.858   2.124
 2438TIP3    H2 7260   6.668   6.828   2.267
 2439TIP3   OH2 7261   8.017   2.983   6.432
 2439TIP3    H1 7262   8.050   2.946   6.350
 2439TIP3    H2 7263   8.041   3.076   6.428
 2440TIP3   OH2 7264   7.266   1.455   6.283
 2440TIP3    H1 7265   7.259   1.540   6.327
 2440TIP3    H2 7266   7.252   1.474   6.191
 2441TIP3   OH2 7267   3.458   0.887   3.610
 2441TIP3    H1 7268   3.479   0.928   3.694
 2441TIP3    H2 7269   3.538   0.842   3.584
 2442TIP3   OH2 7270   6.008   7.696   1.305
 2442TIP3    H1 7271   6.026   7.634   1.376
 2442TIP3    H2 7272   6.041   7.780   1.338
 2443TIP3   OH2 7273   2.719   3.616   4.550
 2443TIP3    H1 7274   2.636   3.570   4.560
 2443TIP3    H2 7275   2.729   3.665   4.631
 2444TIP3   OH2 7276   4.134   3.194   6.756
 2444TIP3    H1 7277   4.069   3.123   6.757
 2444TIP3    H2 7278   4.153   3.208   6.663
 2445TIP3   OH2 7279   1.013   5.528   2.747
 2445TIP3    H1 7280   1.016   5.443   2.702
 2445TIP3    H2 7281   0.943   5.576   2.703
 2446TIP3   OH2 7282   2.684   1.317   1.386
 2446TIP3    H1 7283   2.772   1.356   1.379
 2446TIP3    H2 7284   2.625   1.392   1.396
 2447TIP3   OH2 7285   8.099   4.048   5.480
 2447TIP3    H1 7286   8.108   4.033   5.386
 2447TIP3    H2 7287   8.177   4.009   5.518
 2448TIP3   OH2 7288   4.976   4.249   0.351
 2448TIP3    H1 7289   5.003   4.163   0.383
 2448TIP3    H2 7290   4.928   4.288   0.424
 2449TIP3   OH2 7291   4.231   6.818   1.866
 2449TIP3    H1 7292   4.174   6.895   1.857
 2449TIP3    H2 7293   4.173   6.743   1.852
 2450TIP3   OH2 7294   7.992   4.323   6.204
 2450TIP3    H1 7295   7.975   4.358   6.291
 2450TIP3    H2 7296   7.939   4.244   6.199
 2451TIP3   OH2 7297   5.909   4.292   2.727
 2451TIP3    H1 7298   5.837   4.273   2.788
 2451TIP3    H2 7299   5.869   4.285   2.640
 2452TIP3   OH2 7300   1.619   5.185   5.904
 2452TIP3    H1 7301   1.675   5.245   5.855
 2452TIP3    H2 7302   1.559   5.149   5.839
 2453TIP3   OH2 7303   7.489   4.649   1.058
 2453TIP3    H1 7304   7.539   4.652   1.139
 2453TIP3    H2 7305   7.475   4.741   1.035
 2454TIP3   OH2 7306   1.403   3.296   5.818
 2454TIP3    H1 7307   1.376   3.227   5.880
 2454TIP3    H2 7308   1.404   3.376   5.870
 2455TIP3   OH2 7309   1.753   1.091   2.920
 2455TIP3    H1 7310   1.761   1.126   2.832
 2455TIP3    H2 7311   1.831   1.037   2.932
 2456TIP3   OH2 7312   4.996   3.659   5.737
 2456TIP3    H1 7313   4.941   3.731   5.708
 2456TIP3    H2 7314   5.044   3.694   5.812
 2457TIP3   OH2 7315   5.354   1.360   3.526
 2457TIP3    H1 7316   5.434   1.307   3.528
 2457TIP3    H2 7317   5.330   1.364   3.433
 2458TIP3   OH2 7318   6.256   6.690   2.514
 2458TIP3    H1 7319   6.175   6.740   2.507
 2458TIP3    H2 7320   6.229   6.606   2.551
 2459TIP3   OH2 7321   8.164   6.298   3.505
 2459TIP3    H1 7322   8.254   6.331   3.498
 2459TIP3    H2 7323   8.137   6.284   3.414
 2460TIP3   OH2 7324   6.374   0.501   5.759
 2460TIP3    H1 7325   6.467   0.515   5.774
 2460TIP3    H2 7326   6.330   0.568   5.811
 2461TIP3   OH2 7327   4.211   2.641   2.293
 2461TIP3    H1 7328   4.253   2.664   2.376
 2461TIP3    H2 7329   4.275   2.667   2.226
 2462TIP3   OH2 7330   4.285   5.500   3.791
 2462TIP3    H1 7331   4.301   5.451   3.872
 2462TIP3    H2 7332   4.343   5.576   3.798
 2463TIP3   OH2 7333   2.025   2.466   1.144
 2463TIP3    H1 7334   2.093   2.425   1.090
 2463TIP3    H2 7335   2.070   2.538   1.189
 2464TIP3   OH2 7336   6.032   7.006   5.843
 2464TIP3    H1 7337   5.960   6.966   5.890
 2464TIP3    H2 7338   6.025   6.971   5.754
 2465TIP3   OH2 7339   1.048   0.053   1.875
 2465TIP3    H1 7340   1.089   0.039   1.961
 2465TIP3    H2 7341   1.044  -0.034   1.836
 2466TIP3   OH2 7342   4.391   7.598   4.841
 2466TIP3    H1 7343   4.347   7.515   4.861
 2466TIP3    H2 7344   4.438   7.582   4.759
 2467TIP3   OH2 7345   4.529   3.686   6.467
 2467TIP3    H1 7346   4.489   3.605   6.436
 2467TIP3    H2 7347   4.604   3.699   6.409
 2468TIP3   OH2 7348   7.296   7.569   1.402
 2468TIP3    H1 7349   7.270   7.654   1.436
 2468TIP3    H2 7350   7.260   7.505   1.464
 2469TIP3   OH2 7351   6.674   3.887   0.479
 2469TIP3    H1 7352   6.647   3.805   0.519
 2469TIP3    H2 7353   6.676   3.869   0.385
 2470TIP3   OH2 7354   2.640   3.970   4.442
 2470TIP3    H1 7355   2.681   3.884   4.430
 2470TIP3    H2 7356   2.707   4.032   4.413
 2471TIP3   OH2 7357   4.245   1.464   6.012
 2471TIP3    H1 7358   4.200   1.400   6.066
 2471TIP3    H2 7359   4.334   1.468   6.048
 2472TIP3   OH2 7360   0.130   3.040   0.398
 2472TIP3    H1 7361   0.208   3.094   0.410
 2472TIP3    H2 7362   0.140   3.003   0.310
 2473TIP3   OH2 7363   1.864   1.191   0.968
 2473TIP3    H1 7364   1.936   1.207   0.906
 2473TIP3    H2 7365   1.883   1.247   1.042
 2474TIP3   OH2 7366   3.908   3.391   2.530
 2474TIP3    H1 7367   3.954   3.458   2.581
 2474TIP3    H2 7368   3.962   3.380   2.452
 2475TIP3   OH2 7369   6.073   5.722   0.550
 2475TIP3    H1 7370   6.089   5.628   0.556
 2475TIP3    H2 7371   6.100   5.745   0.462
 2476TIP3   OH2 7372   3.518   7.063   5.041
 2476TIP3    H1 7373   3.480   6.979   5.017
 2476TIP3    H2 7374   3.603   7.064   4.998
 2477TIP3   OH2 7375   0.540   3.388   1.453
 2477TIP3    H1 7376   0.461   3.366   1.403
 2477TIP3    H2 7377   0.539   3.483   1.458
 2478TIP3   OH2 7378   2.187   5.187   1.884
 2478TIP3    H1 7379   2.217   5.275   1.861
 2478TIP3    H2 7380   2.132   5.200   1.961
 2479TIP3   OH2 7381   5.491   6.887   4.303
 2479TIP3    H1 7382   5.566   6.901   4.361
 2479TIP3    H2 7383   5.438   6.967   4.312
 2480TIP3   OH2 7384   0.326   0.766   3.915
 2480TIP3    H1 7385   0.333   0.674   3.940
 2480TIP3    H2 7386   0.258   0.800   3.973
 2481TIP3   OH2 7387   3.087   2.066   2.872
 2481TIP3    H1 7388   3.094   2.121   2.951
 2481TIP3    H2 7389   3.025   2.112   2.817
 2482TIP3   OH2 7390   1.358   6.464   1.863
 2482TIP3    H1 7391   1.335   6.427   1.949
 2482TIP3    H2 7392   1.275   6.494   1.826
 2483TIP3   OH2 7393   4.837   1.374   1.683
 2483TIP3    H1 7394   4.769   1.441   1.671
 2483TIP3    H2 7395   4.875   1.394   1.768
 2484TIP3   OH2 7396   2.593   1.252   6.094
 2484TIP3    H1 7397   2.608   1.220   6.005
 2484TIP3    H2 7398   2.615   1.345   6.090
 2485TIP3   OH2 7399   6.657   0.305   0.186
 2485TIP3    H1 7400   6.599   0.231   0.167
 2485TIP3    H2 7401   6.729   0.295   0.124
 2486TIP3   OH2 7402   0.031   6.660   6.138
 2486TIP3    H1 7403   0.059   6.748   6.166
 2486TIP3    H2 7404   0.028   6.665   6.043
 2487TIP3   OH2 7405   5.010   3.115   2.264
 2487TIP3    H1 7406   5.021   3.057   2.339
 2487TIP3    H2 7407   5.096   3.119   2.224
 2488TIP3   OH2 7408   7.810   7.277   4.857
 2488TIP3    H1 7409   7.881   7.225   4.895
 2488TIP3    H2 7410   7.849   7.363   4.842
 2489TIP3   OH2 7411   4.092   2.571   6.737
 2489TIP3    H1 7412   4.054   2.527   6.662
 2489TIP3    H2 7413   4.177   2.603   6.706
 2490TIP3   OH2 7414   4.846   6.144   2.910
 2490TIP3    H1 7415   4.877   6.174   2.995
 2490TIP3    H2 7416   4.793   6.216   2.876
 2491TIP3   OH2 7417   6.310   7.508   5.785
 2491TIP3    H1 7418   6.377   7.573   5.807
 2491TIP3    H2 7419   6.300   7.514   5.690
 2492TIP3   OH2 7420   2.690   5.635   5.618
 2492TIP3    H1 7421   2.674   5.687   5.539
 2492TIP3    H2 7422   2.603   5.619   5.654
 2493TIP3   OH2 7423   0.499   4.191   4.387
 2493TIP3    H1 7424   0.590   4.195   4.417
 2493TIP3    H2 7425   0.478   4.282   4.363
 2494TIP3   OH2 7426   3.184   3.292   5.134
 2494TIP3    H1 7427   3.198   3.206   5.093
 2494TIP3    H2 7428   3.092   3.292   5.159
 2495TIP3   OH2 7429   7.518   0.271   2.976
 2495TIP3    H1 7430   7.572   0.306   3.047
 2495TIP3    H2 7431   7.440   0.237   3.019
 2496TIP3   OH2 7432   3.348   3.884   2.651
 2496TIP3    H1 7433   3.392   3.799   2.662
 2496TIP3    H2 7434   3.412   3.939   2.607
 2497TIP3   OH2 7435   8.193   6.247   0.505
 2497TIP3    H1 7436   8.167   6.186   0.574
 2497TIP3    H2 7437   8.268   6.205   0.462
 2498TIP3   OH2 7438   6.789   7.576   4.499
 2498TIP3    H1 7439   6.814   7.535   4.415
 2498TIP3    H2 7440   6.820   7.515   4.565
 2499TIP3   OH2 7441   1.832   0.040   4.667
 2499TIP3    H1 7442   1.839  -0.054   4.687
 2499TIP3    H2 7443   1.873   0.083   4.742
 2500TIP3   OH2 7444   5.075   5.640   2.439
 2500TIP3    H1 7445   5.117   5.597   2.514
 2500TIP3    H2 7446   5.039   5.568   2.387
 2501TIP3   OH2 7447   6.647   6.392   5.308
 2501TIP3    H1 7448   6.675   6.482   5.323
 2501TIP3    H2 7449   6.559   6.400   5.272
 2502TIP3   OH2 7450   6.581   1.155   5.959
 2502TIP3    H1 7451   6.620   1.171   6.045
 2502TIP3    H2 7452   6.567   1.243   5.923
 2503TIP3   OH2 7453   7.392   3.144   3.888
 2503TIP3    H1 7454   7.476   3.169   3.927
 2503TIP3    H2 7455   7.329   3.157   3.958
 2504TIP3   OH2 7456   6.143   1.835   1.387
 2504TIP3    H1 7457   6.081   1.855   1.457
 2504TIP3    H2 7458   6.203   1.910   1.386
 2505TIP3   OH2 7459   2.243   0.009   5.862
 2505TIP3    H1 7460   2.324   0.060   5.870
 2505TIP3    H2 7461   2.174   0.070   5.889
 2506TIP3   OH2 7462   0.692   4.561   5.903
 2506TIP3    H1 7463   0.664   4.492   5.963
 2506TIP3    H2 7464   0.766   4.602   5.947
 2507TIP3   OH2 7465   3.111   2.508   2.584
 2507TIP3    H1 7466   3.115   2.586   2.528
 2507TIP3    H2 7467   3.198   2.501   2.623
 2508TIP3   OH2 7468   0.658   5.696   0.217
 2508TIP3    H1 7469   0.672   5.790   0.207
 2508TIP3    H2 7470   0.742   5.663   0.250
 2509TIP3   OH2 7471   3.818   1.782   4.787
 2509TIP3    H1 7472   3.768   1.843   4.843
 2509TIP3    H2 7473   3.799   1.811   4.698
 2510TIP3   OH2 7474   1.504   6.201   5.823
 2510TIP3    H1 7475   1.420   6.226   5.785
 2510TIP3    H2 7476   1.492   6.109   5.849
 2511TIP3   OH2 7477   2.931   3.743   5.999
 2511TIP3    H1 7478   2.874   3.811   6.034
 2511TIP3    H2 7479   2.965   3.697   6.076
 2512TIP3   OH2 7480   5.039   4.171   1.244
 2512TIP3    H1 7481   4.999   4.167   1.331
 2512TIP3    H2 7482   5.080   4.085   1.233
 2513TIP3   OH2 7483   7.020   2.570   3.472
 2513TIP3    H1 7484   7.084   2.499   3.475
 2513TIP3    H2 7485   6.982   2.572   3.560
 2514TIP3   OH2 7486   6.091   3.343   4.532
 2514TIP3    H1 7487   6.077   3.248   4.531
 2514TIP3    H2 7488   6.031   3.377   4.467
 2515TIP3   OH2 7489   6.027   2.424   4.627
 2515TIP3    H1 7490   5.938   2.460   4.626
 2515TIP3    H2 7491   6.016   2.334   4.656
 2516TIP3   OH2 7492   6.355   2.153   6.176
 2516TIP3    H1 7493   6.440   2.156   6.132
 2516TIP3    H2 7494   6.295   2.120   6.110
 2517TIP3   OH2 7495   4.530   5.282   1.319
 2517TIP3    H1 7496   4.517   5.335   1.241
 2517TIP3    H2 7497   4.614   5.238   1.305
 2518TIP3   OH2 7498   1.775   5.471   1.569
 2518TIP3    H1 7499   1.766   5.477   1.474
 2518TIP3    H2 7500   1.806   5.559   1.595
 2519TIP3   OH2 7501   7.966   4.978   4.905
 2519TIP3    H1 7502   7.949   4.910   4.841
 2519TIP3    H2 7503   7.929   5.057   4.867
 2520TIP3   OH2 7504   5.481   4.750   2.313
 2520TIP3    H1 7505   5.423   4.675   2.321
 2520TIP3    H2 7506   5.562   4.714   2.276
 2521TIP3   OH2 7507   1.133   7.717   5.194
 2521TIP3    H1 7508   1.086   7.727   5.276
 2521TIP3    H2 7509   1.137   7.806   5.158
 2522TIP3   OH2 7510   7.268   1.324   2.601
 2522TIP3    H1 7511   7.185   1.294   2.638
 2522TIP3    H2 7512   7.276   1.414   2.632
 2523TIP3   OH2 7513   7.882   7.639   6.043
 2523TIP3    H1 7514   7.868   7.573   5.975
 2523TIP3    H2 7515   7.836   7.716   6.011
 2524TIP3   OH2 7516   2.879   0.885   5.729
 2524TIP3    H1 7517   2.803   0.885   5.671
 2524TIP3    H2 7518   2.861   0.815   5.792
 2525TIP3   OH2 7519   3.638   6.867   1.864
 2525TIP3    H1 7520   3.688   6.785   1.872
 2525TIP3    H2 7521   3.551   6.844   1.895
 2526TIP3   OH2 7522   2.388   3.850   0.988
 2526TIP3    H1 7523   2.366   3.758   1.001
 2526TIP3    H2 7524   2.307   3.890   0.955
 2527TIP3   OH2 7525   6.614   3.324   2.623
 2527TIP3    H1 7526   6.569   3.395   2.669
 2527TIP3    H2 7527   6.706   3.335   2.647
 2528TIP3   OH2 7528   4.275   5.590   2.226
 2528TIP3    H1 7529   4.365   5.555   2.224
 2528TIP3    H2 7530   4.231   5.538   2.293
 2529TIP3   OH2 7531   3.571   0.841   0.592
 2529TIP3    H1 7532   3.623   0.781   0.646
 2529TIP3    H2 7533   3.564   0.796   0.507
 2530TIP3   OH2 7534   1.450   6.935   1.931
 2530TIP3    H1 7535   1.465   7.009   1.990
 2530TIP3    H2 7536   1.385   6.969   1.868
 2531TIP3   OH2 7537   0.251   4.689   6.328
 2531TIP3    H1 7538   0.257   4.599   6.294
 2531TIP3    H2 7539   0.338   4.725   6.313
 2532TIP3   OH2 7540   4.759   7.800   0.786
 2532TIP3    H1 7541   4.809   7.795   0.867
 2532TIP3    H2 7542   4.669   7.783   0.812
 2533TIP3   OH2 7543   3.249   5.414   1.035
 2533TIP3    H1 7544   3.312   5.353   1.075
 2533TIP3    H2 7545   3.266   5.408   0.941
 2534TIP3   OH2 7546   1.211   5.653   0.457
 2534TIP3    H1 7547   1.180   5.670   0.368
 2534TIP3    H2 7548   1.301   5.687   0.457
 2535TIP3   OH2 7549   0.622   5.801   0.550
 2535TIP3    H1 7550   0.618   5.760   0.636
 2535TIP3    H2 7551   0.712   5.787   0.520
 2536TIP3   OH2 7552   2.277   4.351   6.420
 2536TIP3    H1 7553   2.189   4.326   6.392
 2536TIP3    H2 7554   2.294   4.298   6.498
 2537TIP3   OH2 7555   7.001   4.527   3.328
 2537TIP3    H1 7556   7.029   4.618   3.341
 2537TIP3    H2 7557   7.072   4.487   3.278
 2538TIP3   OH2 7558   0.398   3.057   3.349
 2538TIP3    H1 7559   0.317   3.052   3.298
 2538TIP3    H2 7560   0.454   2.989   3.313
 2539TIP3   OH2 7561   1.999   5.891   1.766
 2539TIP3    H1 7562   1.914   5.883   1.808
 2539TIP3    H2 7563   2.061   5.857   1.830
 2540TIP3   OH2 7564   5.566   3.911   1.097
 2540TIP3    H1 7565   5.517   3.980   1.139
 2540TIP3    H2 7566   5.514   3.832   1.112
 2541TIP3   OH2 7567   1.363   6.769   1.333
 2541TIP3    H1 7568   1.350   6.679   1.363
 2541TIP3    H2 7569   1.312   6.774   1.252
 2542TIP3   OH2 7570   5.134   7.027   2.633
 2542TIP3    H1 7571   5.189   7.097   2.668
 2542TIP3    H2 7572   5.116   6.971   2.708
 2543TIP3   OH2 7573   4.543   0.710   2.510
 2543TIP3    H1 7574   4.477   0.754   2.457
 2543TIP3    H2 7575   4.505   0.624   2.529
 2544TIP3   OH2 7576   1.333   5.937   4.178
 2544TIP3    H1 7577   1.382   5.855   4.182
 2544TIP3    H2 7578   1.241   5.909   4.171
 2545TIP3   OH2 7579   4.797   0.684   1.942
 2545TIP3    H1 7580   4.845   0.686   1.860
 2545TIP3    H2 7581   4.864   0.691   2.010
 2546TIP3   OH2 7582   6.970   1.661   1.323
 2546TIP3    H1 7583   7.004   1.639   1.236
 2546TIP3    H2 7584   7.047   1.655   1.380
 2547TIP3   OH2 7585   1.378   0.593   6.282
 2547TIP3    H1 7586   1.383   0.514   6.227
 2547TIP3    H2 7587   1.394   0.665   6.221
 2548TIP3   OH2 7588   1.829   1.414   0.725
 2548TIP3    H1 7589   1.754   1.417   0.784
 2548TIP3    H2 7590   1.797   1.457   0.645
 2549TIP3   OH2 7591   4.136   4.479   2.515
 2549TIP3    H1 7592   4.118   4.385   2.513
 2549TIP3    H2 7593   4.087   4.512   2.590
 2550TIP3   OH2 7594   7.679   1.704   5.322
 2550TIP3    H1 7595   7.603   1.745   5.281
 2550TIP3    H2 7596   7.643   1.633   5.374
 2551TIP3   OH2 7597   4.528   5.068   2.950
 2551TIP3    H1 7598   4.487   5.125   2.885
 2551TIP3    H2 7599   4.462   5.004   2.972
 2552TIP3   OH2 7600   4.834   0.117   1.600
 2552TIP3    H1 7601   4.906   0.063   1.633
 2552TIP3    H2 7602   4.827   0.094   1.508
 2553TIP3   OH2 7603   6.467   1.205   3.954
 2553TIP3    H1 7604   6.489   1.227   3.864
 2553TIP3    H2 7605   6.374   1.224   3.962
 2554TIP3   OH2 7606   2.721   0.867   3.705
 2554TIP3    H1 7607   2.737   0.894   3.795
 2554TIP3    H2 7608   2.807   0.864   3.664
 2555TIP3   OH2 7609   1.468   6.800   4.034
 2555TIP3    H1 7610   1.379   6.794   4.069
 2555TIP3    H2 7611   1.471   6.734   3.965
 2556TIP3   OH2 7612   3.944   1.454   6.595
 2556TIP3    H1 7613   4.030   1.463   6.555
 2556TIP3    H2 7614   3.946   1.514   6.670
 2557TIP3   OH2 7615   0.710   7.426   1.174
 2557TIP3    H1 7616   0.799   7.409   1.205
 2557TIP3    H2 7617   0.657   7.360   1.218
 2558TIP3   OH2 7618   7.317   1.268   5.376
 2558TIP3    H1 7619   7.303   1.353   5.418
 2558TIP3    H2 7620   7.331   1.289   5.283
 2559TIP3   OH2 7621   6.214   2.917   4.597
 2559TIP3    H1 7622   6.145   2.850   4.593
 2559TIP3    H2 7623   6.279   2.889   4.533
 2560TIP3   OH2 7624   0.121   3.982   5.482
 2560TIP3    H1 7625   0.116   3.974   5.387
 2560TIP3    H2 7626   0.139   3.893   5.513
 2561TIP3   OH2 7627   4.240   5.104   5.419
 2561TIP3    H1 7628   4.329   5.073   5.403
 2561TIP3    H2 7629   4.242   5.196   5.394
 2562TIP3   OH2 7630   7.754   3.470   5.489
 2562TIP3    H1 7631   7.771   3.552   5.444
 2562TIP3    H2 7632   7.661   3.471   5.509
 2563TIP3   OH2 7633   0.376   2.900   4.120
 2563TIP3    H1 7634   0.460   2.946   4.118
 2563TIP3    H2 7635   0.356   2.889   4.213
 2564TIP3   OH2 7636   4.629   4.369   6.163
 2564TIP3    H1 7637   4.712   4.409   6.138
 2564TIP3    H2 7638   4.562   4.428   6.128
 2565TIP3   OH2 7639   2.344   5.529   0.312
 2565TIP3    H1 7640   2.347   5.452   0.370
 2565TIP3    H2 7641   2.401   5.593   0.354
 2566TIP3   OH2 7642   3.866   2.099   2.791
 2566TIP3    H1 7643   3.904   2.040   2.726
 2566TIP3    H2 7644   3.804   2.044   2.839
 2567TIP3   OH2 7645   7.311   7.133   1.483
 2567TIP3    H1 7646   7.358   7.148   1.401
 2567TIP3    H2 7647   7.340   7.205   1.540
 2568TIP3   OH2 7648   4.776   2.529   1.717
 2568TIP3    H1 7649   4.768   2.494   1.628
 2568TIP3    H2 7650   4.850   2.482   1.755
 2569TIP3   OH2 7651   6.639   3.853   0.870
 2569TIP3    H1 7652   6.655   3.782   0.808
 2569TIP3    H2 7653   6.712   3.849   0.931
 2570TIP3   OH2 7654   4.600   7.713   4.956
 2570TIP3    H1 7655   4.671   7.731   4.894
 2570TIP3    H2 7656   4.522   7.705   4.902
 2571TIP3   OH2 7657   7.903   4.998   4.116
 2571TIP3    H1 7658   7.872   5.083   4.147
 2571TIP3    H2 7659   7.843   4.935   4.157
 2572TIP3   OH2 7660   0.237   4.400   6.244
 2572TIP3    H1 7661   0.279   4.418   6.159
 2572TIP3    H2 7662   0.229   4.305   6.246
 2573TIP3   OH2 7663   1.191   4.449   1.875
 2573TIP3    H1 7664   1.147   4.375   1.833
 2573TIP3    H2 7665   1.123   4.490   1.929
 2574TIP3   OH2 7666   2.228   2.023   5.939
 2574TIP3    H1 7667   2.304   1.966   5.935
 2574TIP3    H2 7668   2.263   2.111   5.928
 2575TIP3   OH2 7669   1.246   6.284   5.934
 2575TIP3    H1 7670   1.224   6.349   5.867
 2575TIP3    H2 7671   1.206   6.203   5.904
 2576TIP3   OH2 7672   1.853   5.692   0.297
 2576TIP3    H1 7673   1.850   5.597   0.307
 2576TIP3    H2 7674   1.934   5.718   0.342
 2577TIP3   OH2 7675   1.210   3.992   3.263
 2577TIP3    H1 7676   1.256   3.929   3.318
 2577TIP3    H2 7677   1.128   4.009   3.309
 2578TIP3   OH2 7678   4.914   4.239   3.326
 2578TIP3    H1 7679   4.901   4.330   3.352
 2578TIP3    H2 7680   4.833   4.195   3.350
 2579TIP3   OH2 7681   7.312   3.163   1.407
 2579TIP3    H1 7682   7.275   3.157   1.319
 2579TIP3    H2 7683   7.406   3.168   1.394
 2580TIP3   OH2 7684   2.890   1.987   0.312
 2580TIP3    H1 7685   2.969   2.037   0.291
 2580TIP3    H2 7686   2.853   1.963   0.227
 2581TIP3   OH2 7687   6.738   3.546   4.270
 2581TIP3    H1 7688   6.704   3.597   4.196
 2581TIP3    H2 7689   6.709   3.594   4.348
 2582TIP3   OH2 7690   0.217   6.291   2.346
 2582TIP3    H1 7691   0.183   6.334   2.424
 2582TIP3    H2 7692   0.189   6.199   2.355
 2583TIP3   OH2 7693   4.406   4.617   0.542
 2583TIP3    H1 7694   4.424   4.542   0.485
 2583TIP3    H2 7695   4.390   4.690   0.481
 2584TIP3   OH2 7696   2.931   3.442   4.525
 2584TIP3    H1 7697   2.914   3.396   4.607
 2584TIP3    H2 7698   2.862   3.508   4.520
 2585TIP3   OH2 7699   2.667   5.179   1.904
 2585TIP3    H1 7700   2.609   5.108   1.932
 2585TIP3    H2 7701   2.717   5.141   1.832
 2586TIP3   OH2 7702   3.973   0.822   1.803
 2586TIP3    H1 7703   3.925   0.877   1.741
 2586TIP3    H2 7704   4.046   0.785   1.752
 2587TIP3   OH2 7705   6.744   3.654   1.488
 2587TIP3    H1 7706   6.754   3.569   1.447
 2587TIP3    H2 7707   6.666   3.646   1.542
 2588TIP3   OH2 7708   1.471   2.186   6.183
 2588TIP3    H1 7709   1.559   2.221   6.169
 2588TIP3    H2 7710   1.475   2.144   6.269
 2589TIP3   OH2 7711   0.363   6.890   6.298
 2589TIP3    H1 7712   0.315   6.857   6.222
 2589TIP3    H2 7713   0.432   6.945   6.261
 2590TIP3   OH2 7714   1.339   6.073   3.927
 2590TIP3    H1 7715   1.355   6.032   4.012
 2590TIP3    H2 7716   1.423   6.111   3.903
 2591TIP3   OH2 7717   2.713   3.713   0.806
 2591TIP3    H1 7718   2.808   3.703   0.805
 2591TIP3    H2 7719   2.699   3.807   0.817
 2592TIP3   OH2 7720   3.068   5.001   1.874
 2592TIP3    H1 7721   2.997   5.027   1.816
 2592TIP3    H2 7722   3.125   4.946   1.821
 2593TIP3   OH2 7723   3.387   3.213   4.015
 2593TIP3    H1 7724   3.463   3.159   3.993
 2593TIP3    H2 7725   3.384   3.213   4.110
 2594TIP3   OH2 7726   6.967   3.948   2.894
 2594TIP3    H1 7727   7.059   3.946   2.866
 2594TIP3    H2 7728   6.942   4.040   2.888
 2595TIP3   OH2 7729   0.362   6.392   6.267
 2595TIP3    H1 7730   0.274   6.420   6.242
 2595TIP3    H2 7731   0.390   6.332   6.198
 2596TIP3   OH2 7732   6.306   2.418   6.203
 2596TIP3    H1 7733   6.237   2.428   6.269
 2596TIP3    H2 7734   6.324   2.324   6.203
 2597TIP3   OH2 7735   5.401   6.887   0.353
 2597TIP3    H1 7736   5.461   6.961   0.359
 2597TIP3    H2 7737   5.451   6.820   0.307
 2598TIP3   OH2 7738   7.872   2.732   3.677
 2598TIP3    H1 7739   7.834   2.783   3.749
 2598TIP3    H2 7740   7.881   2.643   3.712
 2599TIP3   OH2 7741   5.571   6.010   4.374
 2599TIP3    H1 7742   5.535   5.921   4.366
 2599TIP3    H2 7743   5.508   6.065   4.329
 2600TIP3   OH2 7744   2.189   3.334   1.729
 2600TIP3    H1 7745   2.228   3.408   1.682
 2600TIP3    H2 7746   2.139   3.286   1.663
 2601TIP3   OH2 7747   4.197   1.175   5.832
 2601TIP3    H1 7748   4.109   1.188   5.868
 2601TIP3    H2 7749   4.205   1.244   5.766
 2602TIP3   OH2 7750   6.811   3.174   4.848
 2602TIP3    H1 7751   6.770   3.183   4.763
 2602TIP3    H2 7752   6.899   3.211   4.837
 2603TIP3   OH2 7753   4.572   4.437   3.245
 2603TIP3    H1 7754   4.507   4.467   3.309
 2603TIP3    H2 7755   4.596   4.349   3.275
 2604TIP3   OH2 7756   6.723   2.819   2.408
 2604TIP3    H1 7757   6.663   2.753   2.443
 2604TIP3    H2 7758   6.810   2.785   2.428
 2605TIP3   OH2 7759   7.410   5.152   4.166
 2605TIP3    H1 7760   7.434   5.245   4.172
 2605TIP3    H2 7761   7.321   5.148   4.199
 2606TIP3   OH2 7762   2.388   6.341   4.879
 2606TIP3    H1 7763   2.477   6.367   4.902
 2606TIP3    H2 7764   2.355   6.413   4.825
 2607TIP3   OH2 7765   7.368   3.007   2.927
 2607TIP3    H1 7766   7.313   3.037   2.854
 2607TIP3    H2 7767   7.345   2.915   2.938
 2608TIP3   OH2 7768   4.713   0.525   6.581
 2608TIP3    H1 7769   4.662   0.606   6.583
 2608TIP3    H2 7770   4.651   0.458   6.554
 2609TIP3   OH2 7771   5.431   7.215   0.097
 2609TIP3    H1 7772   5.403   7.163   0.022
 2609TIP3    H2 7773   5.360   7.276   0.113
 2610TIP3   OH2 7774   1.168   1.488   4.513
 2610TIP3    H1 7775   1.124   1.452   4.436
 2610TIP3    H2 7776   1.258   1.505   4.484
 2611TIP3   OH2 7777   1.919   7.591   0.056
 2611TIP3    H1 7778   1.948   7.650  -0.014
 2611TIP3    H2 7779   1.842   7.633   0.093
 2612TIP3   OH2 7780   2.724   2.524   4.013
 2612TIP3    H1 7781   2.651   2.577   4.043
 2612TIP3    H2 7782   2.695   2.487   3.930
 2613TIP3   OH2 7783   1.633   7.151   2.481
 2613TIP3    H1 7784   1.556   7.100   2.505
 2613TIP3    H2 7785   1.680   7.096   2.419
 2614TIP3   OH2 7786   5.948   1.056   4.017
 2614TIP3    H1 7787   5.961   1.042   4.111
 2614TIP3    H2 7788   5.931   0.969   3.982
 2615TIP3   OH2 7789   2.325   7.541   3.935
 2615TIP3    H1 7790   2.412   7.507   3.917
 2615TIP3    H2 7791   2.268   7.495   3.873
 2616TIP3   OH2 7792   7.984   0.105   0.105
 2616TIP3    H1 7793   7.890   0.115   0.118
 2616TIP3    H2 7794   7.991   0.050   0.026
 2617TIP3   OH2 7795   3.532   3.352   2.509
 2617TIP3    H1 7796   3.550   3.281   2.448
 2617TIP3    H2 7797   3.440   3.375   2.491
 2618TIP3   OH2 7798   7.370   0.334   1.887
 2618TIP3    H1 7799   7.327   0.255   1.921
 2618TIP3    H2 7800   7.298   0.391   1.861
 2619TIP3   OH2 7801   7.655   7.627   0.912
 2619TIP3    H1 7802   7.734   7.588   0.873
 2619TIP3    H2 7803   7.620   7.558   0.969
 2620TIP3   OH2 7804   3.758   2.280   6.825
 2620TIP3    H1 7805   3.766   2.242   6.913
 2620TIP3    H2 7806   3.848   2.282   6.792
 2621TIP3   OH2 7807   7.530   5.966   4.954
 2621TIP3    H1 7808   7.578   6.049   4.951
 2621TIP3    H2 7809   7.439   5.991   4.935
 2622TIP3   OH2 7810   1.646   5.098   1.799
 2622TIP3    H1 7811   1.707   5.071   1.731
 2622TIP3    H2 7812   1.631   5.020   1.852
 2623TIP3   OH2 7813   0.585   2.601   4.356
 2623TIP3    H1 7814   0.614   2.688   4.327
 2623TIP3    H2 7815   0.622   2.592   4.444
 2624TIP3   OH2 7816   0.464   3.516   6.738
 2624TIP3    H1 7817   0.384   3.560   6.767
 2624TIP3    H2 7818   0.509   3.494   6.820
 2625TIP3   OH2 7819   2.727   6.311   4.019
 2625TIP3    H1 7820   2.687   6.311   4.105
 2625TIP3    H2 7821   2.756   6.220   4.006
 2626TIP3   OH2 7822   7.574   3.635   4.245
 2626TIP3    H1 7823   7.521   3.576   4.192
 2626TIP3    H2 7824   7.621   3.689   4.182
 2627TIP3   OH2 7825   1.610   3.462   6.365
 2627TIP3    H1 7826   1.582   3.463   6.273
 2627TIP3    H2 7827   1.689   3.516   6.366
 2628TIP3   OH2 7828   7.199   4.332   3.582
 2628TIP3    H1 7829   7.162   4.271   3.518
 2628TIP3    H2 7830   7.162   4.304   3.666
 2629TIP3   OH2 7831   6.599   1.780   1.981
 2629TIP3    H1 7832   6.546   1.855   1.954
 2629TIP3    H2 7833   6.669   1.775   1.916
 2630TIP3   OH2 7834   3.663   5.765   4.970
 2630TIP3    H1 7835   3.756   5.752   4.988
 2630TIP3    H2 7836   3.618   5.717   5.039
 2631TIP3   OH2 7837   1.842   4.062   0.873
 2631TIP3    H1 7838   1.771   4.092   0.929
 2631TIP3    H2 7839   1.798   4.029   0.794
 2632TIP3   OH2 7840   2.059   7.710   0.344
 2632TIP3    H1 7841   2.098   7.713   0.257
 2632TIP3    H2 7842   1.978   7.761   0.336
 2633TIP3   OH2 7843   6.427   6.852   4.389
 2633TIP3    H1 7844   6.361   6.920   4.402
 2633TIP3    H2 7845   6.506   6.900   4.364
 2634TIP3   OH2 7846   5.970   4.551   4.209
 2634TIP3    H1 7847   5.991   4.544   4.303
 2634TIP3    H2 7848   5.990   4.464   4.174
 2635TIP3   OH2 7849   3.763   7.626   2.705
 2635TIP3    H1 7850   3.816   7.660   2.632
 2635TIP3    H2 7851   3.727   7.705   2.746
 2636TIP3   OH2 7852   7.628   6.820   5.376
 2636TIP3    H1 7853   7.649   6.853   5.463
 2636TIP3    H2 7854   7.541   6.781   5.385
 2637TIP3   OH2 7855   3.323   0.773   1.404
 2637TIP3    H1 7856   3.351   0.682   1.397
 2637TIP3    H2 7857   3.234   0.768   1.439
 2638TIP3   OH2 7858   0.772   7.544   4.200
 2638TIP3    H1 7859   0.755   7.514   4.111
 2638TIP3    H2 7860   0.825   7.623   4.188
 2639TIP3   OH2 7861   3.073   3.167   5.617
 2639TIP3    H1 7862   2.987   3.163   5.575
 2639TIP3    H2 7863   3.130   3.207   5.552
 2640TIP3   OH2 7864   3.520   0.835   1.576
 2640TIP3    H1 7865   3.591   0.880   1.529
 2640TIP3    H2 7866   3.459   0.808   1.507
 2641TIP3   OH2 7867   4.298   1.529   3.382
 2641TIP3    H1 7868   4.317   1.600   3.321
 2641TIP3    H2 7869   4.240   1.471   3.333
 2642TIP3   OH2 7870   7.372   5.210   1.198
 2642TIP3    H1 7871   7.338   5.199   1.109
 2642TIP3    H2 7872   7.446   5.271   1.189
 2643TIP3   OH2 7873   3.073   4.870   2.742
 2643TIP3    H1 7874   3.122   4.878   2.824
 2643TIP3    H2 7875   3.037   4.781   2.744
 2644TIP3   OH2 7876   2.034   7.739   6.124
 2644TIP3    H1 7877   2.003   7.650   6.141
 2644TIP3    H2 7878   2.078   7.734   6.039
 2645TIP3   OH2 7879   3.863   2.584   4.750
 2645TIP3    H1 7880   3.822   2.542   4.826
 2645TIP3    H2 7881   3.836   2.529   4.676
 2646TIP3   OH2 7882   3.235   3.690   2.361
 2646TIP3    H1 7883   3.254   3.610   2.313
 2646TIP3    H2 7884   3.140   3.691   2.370
 2647TIP3   OH2 7885   1.308   6.743   3.536
 2647TIP3    H1 7886   1.342   6.803   3.602
 2647TIP3    H2 7887   1.377   6.678   3.525
 2648TIP3   OH2 7888   0.218   4.946   5.536
 2648TIP3    H1 7889   0.135   4.899   5.526
 2648TIP3    H2 7890   0.207   4.999   5.614
 2649TIP3   OH2 7891   0.870   7.318   5.955
 2649TIP3    H1 7892   0.842   7.401   5.916
 2649TIP3    H2 7893   0.955   7.300   5.914
 2650TIP3   OH2 7894   4.158   7.200   4.194
 2650TIP3    H1 7895   4.131   7.187   4.285
 2650TIP3    H2 7896   4.198   7.117   4.168
 2651TIP3   OH2 7897   2.645   0.715   2.632
 2651TIP3    H1 7898   2.628   0.726   2.725
 2651TIP3    H2 7899   2.739   0.699   2.626
 2652TIP3   OH2 7900   2.180   7.707   5.895
 2652TIP3    H1 7901   2.176   7.794   5.855
 2652TIP3    H2 7902   2.157   7.647   5.824
 2653TIP3   OH2 7903   2.216   5.595   5.570
 2653TIP3    H1 7904   2.269   5.661   5.526
 2653TIP3    H2 7905   2.163   5.556   5.500
 2654TIP3   OH2 7906   4.833   1.722   5.995
 2654TIP3    H1 7907   4.757   1.753   6.045
 2654TIP3    H2 7908   4.808   1.736   5.904
 2655TIP3   OH2 7909   6.982   2.886   2.977
 2655TIP3    H1 7910   6.907   2.886   3.036
 2655TIP3    H2 7911   6.943   2.877   2.890
 2656TIP3   OH2 7912   7.256   7.740   5.325
 2656TIP3    H1 7913   7.196   7.720   5.253
 2656TIP3    H2 7914   7.210   7.712   5.404
 2657TIP3   OH2 7915   4.234   5.922   0.895
 2657TIP3    H1 7916   4.322   5.888   0.881
 2657TIP3    H2 7917   4.242   5.983   0.968
 2658TIP3   OH2 7918   3.556   0.056   4.493
 2658TIP3    H1 7919   3.492   0.106   4.442
 2658TIP3    H2 7920   3.629   0.042   4.433
 2659TIP3   OH2 7921   5.155   7.121   0.423
 2659TIP3    H1 7922   5.119   7.210   0.425
 2659TIP3    H2 7923   5.080   7.065   0.403
 2660TIP3   OH2 7924   8.014   6.708   1.791
 2660TIP3    H1 7925   7.981   6.630   1.746
 2660TIP3    H2 7926   8.106   6.712   1.768
 2661TIP3   OH2 7927   3.164   2.967   5.776
 2661TIP3    H1 7928   3.094   2.903   5.768
 2661TIP3    H2 7929   3.134   3.042   5.725
 2662TIP3   OH2 7930   3.182   2.900   3.387
 2662TIP3    H1 7931   3.196   2.815   3.346
 2662TIP3    H2 7932   3.130   2.949   3.323
 2663TIP3   OH2 7933   0.868   3.311   3.248
 2663TIP3    H1 7934   0.957   3.333   3.221
 2663TIP3    H2 7935   0.864   3.333   3.341
 2664TIP3   OH2 7936   7.190   1.938   4.498
 2664TIP3    H1 7937   7.101   1.908   4.481
 2664TIP3    H2 7938   7.246   1.871   4.459
 2665TIP3   OH2 7939   7.568   7.037   0.613
 2665TIP3    H1 7940   7.658   7.007   0.602
 2665TIP3    H2 7941   7.544   7.008   0.701
 2666TIP3   OH2 7942   5.281   3.079   2.579
 2666TIP3    H1 7943   5.336   3.113   2.509
 2666TIP3    H2 7944   5.307   2.987   2.588
 2667TIP3   OH2 7945   3.337   0.024   6.326
 2667TIP3    H1 7946   3.418   0.011   6.376
 2667TIP3    H2 7947   3.365   0.022   6.234
 2668TIP3   OH2 7948   4.480   2.803   4.683
 2668TIP3    H1 7949   4.534   2.880   4.665
 2668TIP3    H2 7950   4.395   2.824   4.645
 2669TIP3   OH2 7951   5.465   1.992   3.607
 2669TIP3    H1 7952   5.527   1.979   3.536
 2669TIP3    H2 7953   5.380   1.968   3.570
 2670TIP3   OH2 7954   0.193   0.494   0.704
 2670TIP3    H1 7955   0.272   0.471   0.656
 2670TIP3    H2 7956   0.136   0.534   0.639
 2671TIP3   OH2 7957   0.288   6.818   0.549
 2671TIP3    H1 7958   0.291   6.909   0.579
 2671TIP3    H2 7959   0.224   6.819   0.478
 2672TIP3   OH2 7960   5.900   2.442   2.395
 2672TIP3    H1 7961   5.945   2.496   2.460
 2672TIP3    H2 7962   5.833   2.499   2.359
 2673TIP3   OH2 7963   6.377   1.407   3.202
 2673TIP3    H1 7964   6.386   1.326   3.152
 2673TIP3    H2 7965   6.426   1.472   3.151
 2674TIP3   OH2 7966   2.970   1.376   2.540
 2674TIP3    H1 7967   2.981   1.281   2.533
 2674TIP3    H2 7968   2.876   1.389   2.532
 2675TIP3   OH2 7969   5.914   2.191   5.440
 2675TIP3    H1 7970   5.841   2.129   5.434
 2675TIP3    H2 7971   5.872   2.276   5.453
 2676TIP3   OH2 7972   7.789   0.025   0.895
 2676TIP3    H1 7973   7.843   0.099   0.921
 2676TIP3    H2 7974   7.802   0.018   0.800
 2677TIP3   OH2 7975   5.707   5.364   1.873
 2677TIP3    H1 7976   5.800   5.371   1.894
 2677TIP3    H2 7977   5.691   5.432   1.808
 2678TIP3   OH2 7978   4.362   2.721   0.111
 2678TIP3    H1 7979   4.309   2.763   0.044
 2678TIP3    H2 7980   4.360   2.782   0.185
 2679TIP3   OH2 7981   7.043   7.037   1.480
 2679TIP3    H1 7982   7.126   7.084   1.484
 2679TIP3    H2 7983   6.991   7.087   1.417
 2680TIP3   OH2 7984   7.836   4.400   0.204
 2680TIP3    H1 7985   7.758   4.421   0.256
 2680TIP3    H2 7986   7.877   4.485   0.187
 2681TIP3   OH2 7987   2.762   1.367   6.763
 2681TIP3    H1 7988   2.759   1.302   6.833
 2681TIP3    H2 7989   2.811   1.325   6.693
 2682TIP3   OH2 7990   0.548   0.783   6.703
 2682TIP3    H1 7991   0.560   0.726   6.628
 2682TIP3    H2 7992   0.627   0.837   6.706
 2683TIP3   OH2 7993   7.828   2.891   5.859
 2683TIP3    H1 7994   7.899   2.830   5.841
 2683TIP3    H2 7995   7.857   2.973   5.819
 2684TIP3   OH2 7996   8.076   3.615   4.348
 2684TIP3    H1 7997   8.083   3.555   4.274
 2684TIP3    H2 7998   8.099   3.701   4.312
 2685TIP3   OH2 7999   5.873   3.522   5.001
 2685TIP3    H1 8000   5.967   3.517   5.018
 2685TIP3    H2 8001   5.838   3.575   5.072
 2686TIP3   OH2 8002   2.820   7.276   1.768
 2686TIP3    H1 8003   2.820   7.368   1.739
 2686TIP3    H2 8004   2.741   7.268   1.820
 2687TIP3   OH2 8005   2.046   3.917   4.629
 2687TIP3    H1 8006   2.138   3.897   4.615
 2687TIP3    H2 8007   2.006   3.832   4.651
 2688TIP3   OH2 8008   1.360   5.183   3.639
 2688TIP3    H1 8009   1.298   5.253   3.617
 2688TIP3    H2 8010   1.429   5.190   3.573
 2689TIP3   OH2 8011   1.263   4.269   3.976
 2689TIP3    H1 8012   1.189   4.212   3.997
 2689TIP3    H2 8013   1.234   4.357   4.001
 2690TIP3   OH2 8014   6.699   0.615   0.095
 2690TIP3    H1 8015   6.788   0.647   0.079
 2690TIP3    H2 8016   6.645   0.664   0.033
 2691TIP3   OH2 8017   6.149   1.128   3.704
 2691TIP3    H1 8018   6.099   1.082   3.637
 2691TIP3    H2 8019   6.090   1.196   3.736
 2692TIP3   OH2 8020   1.384   7.286   5.031
 2692TIP3    H1 8021   1.322   7.238   5.086
 2692TIP3    H2 8022   1.409   7.361   5.085
 2693TIP3   OH2 8023   2.639   0.868   5.612
 2693TIP3    H1 8024   2.651   0.934   5.543
 2693TIP3    H2 8025   2.570   0.811   5.578
 2694TIP3   OH2 8026   1.143   1.857   1.490
 2694TIP3    H1 8027   1.174   1.893   1.407
 2694TIP3    H2 8028   1.093   1.779   1.465
 2695TIP3   OH2 8029   6.964   1.021   5.842
 2695TIP3    H1 8030   6.923   1.106   5.855
 2695TIP3    H2 8031   6.903   0.973   5.785
 2696TIP3   OH2 8032   4.831   1.678   2.978
 2696TIP3    H1 8033   4.860   1.759   3.021
 2696TIP3    H2 8034   4.840   1.696   2.885
 2697TIP3   OH2 8035   3.689   7.375   1.703
 2697TIP3    H1 8036   3.655   7.334   1.623
 2697TIP3    H2 8037   3.637   7.337   1.774
 2698TIP3   OH2 8038   2.062   0.902   5.998
 2698TIP3    H1 8039   2.008   0.828   6.025
 2698TIP3    H2 8040   2.126   0.912   6.069
 2699TIP3   OH2 8041   3.045   3.803   4.517
 2699TIP3    H1 8042   3.103   3.803   4.593
 2699TIP3    H2 8043   3.103   3.787   4.442
 2700TIP3   OH2 8044   3.836   4.048   0.386
 2700TIP3    H1 8045   3.790   4.121   0.428
 2700TIP3    H2 8046   3.850   4.077   0.295
 2701TIP3   OH2 8047   6.533   6.018   0.318
 2701TIP3    H1 8048   6.474   6.047   0.388
 2701TIP3    H2 8049   6.483   5.951   0.271
 2702TIP3   OH2 8050   0.381   1.461   5.195
 2702TIP3    H1 8051   0.344   1.392   5.250
 2702TIP3    H2 8052   0.308   1.520   5.177
 2703TIP3   OH2 8053   3.599   1.360   2.343
 2703TIP3    H1 8054   3.605   1.339   2.250
 2703TIP3    H2 8055   3.518   1.316   2.372
 2704TIP3   OH2 8056   2.898   0.232   3.307
 2704TIP3    H1 8057   2.845   0.162   3.270
 2704TIP3    H2 8058   2.955   0.188   3.371
 2705TIP3   OH2 8059   7.763   4.769   6.040
 2705TIP3    H1 8060   7.780   4.723   5.957
 2705TIP3    H2 8061   7.835   4.743   6.097
 2706TIP3   OH2 8062   7.291   2.870   4.563
 2706TIP3    H1 8063   7.337   2.794   4.527
 2706TIP3    H2 8064   7.202   2.862   4.528
 2707TIP3   OH2 8065   0.985   6.041   2.452
 2707TIP3    H1 8066   0.970   5.948   2.434
 2707TIP3    H2 8067   1.068   6.043   2.500
 2708TIP3   OH2 8068   6.436   0.278   3.561
 2708TIP3    H1 8069   6.517   0.310   3.520
 2708TIP3    H2 8070   6.448   0.183   3.567
 2709TIP3   OH2 8071   8.089   4.402   4.075
 2709TIP3    H1 8072   8.022   4.426   4.011
 2709TIP3    H2 8073   8.049   4.332   4.126
 2710TIP3   OH2 8074   0.068   2.799   5.231
 2710TIP3    H1 8075   0.147   2.765   5.189
 2710TIP3    H2 8076   0.049   2.736   5.301
 2711TIP3   OH2 8077   1.146   6.992   2.112
 2711TIP3    H1 8078   1.069   6.966   2.162
 2711TIP3    H2 8079   1.117   6.993   2.021
 2712TIP3   OH2 8080   3.785   2.732   5.821
 2712TIP3    H1 8081   3.765   2.640   5.842
 2712TIP3    H2 8082   3.708   2.781   5.848
 2713TIP3   OH2 8083   6.302   4.841   1.533
 2713TIP3    H1 8084   6.279   4.757   1.573
 2713TIP3    H2 8085   6.338   4.818   1.447
 2714TIP3   OH2 8086   1.714   3.567   4.117
 2714TIP3    H1 8087   1.729   3.608   4.203
 2714TIP3    H2 8088   1.667   3.486   4.137
 2715TIP3   OH2 8089   4.953   7.179   5.405
 2715TIP3    H1 8090   4.940   7.272   5.422
 2715TIP3    H2 8091   4.868   7.139   5.422
 2716TIP3   OH2 8092   0.974   7.088   2.662
 2716TIP3    H1 8093   0.994   7.015   2.721
 2716TIP3    H2 8094   0.908   7.140   2.708
 2717TIP3   OH2 8095   0.818   5.975   0.776
 2717TIP3    H1 8096   0.842   6.062   0.808
 2717TIP3    H2 8097   0.803   5.988   0.682
 2718TIP3   OH2 8098   8.076   0.647   2.385
 2718TIP3    H1 8099   8.072   0.666   2.291
 2718TIP3    H2 8100   7.998   0.595   2.403
 2719TIP3   OH2 8101   3.314   1.795   2.593
 2719TIP3    H1 8102   3.313   1.796   2.497
 2719TIP3    H2 8103   3.273   1.711   2.616
 2720TIP3   OH2 8104   0.457   7.393   3.304
 2720TIP3    H1 8105   0.442   7.305   3.271
 2720TIP3    H2 8106   0.490   7.443   3.229
 2721TIP3   OH2 8107   0.526   6.694   5.892
 2721TIP3    H1 8108   0.431   6.704   5.880
 2721TIP3    H2 8109   0.535   6.623   5.956
 2722TIP3   OH2 8110   1.806   1.871   0.763
 2722TIP3    H1 8111   1.715   1.842   0.749
 2722TIP3    H2 8112   1.841   1.882   0.674
 2723TIP3   OH2 8113   6.580   4.499   0.387
 2723TIP3    H1 8114   6.658   4.462   0.429
 2723TIP3    H2 8115   6.519   4.512   0.459
 2724TIP3   OH2 8116   6.889   4.822   0.496
 2724TIP3    H1 8117   6.822   4.849   0.558
 2724TIP3    H2 8118   6.845   4.823   0.411
 2725TIP3   OH2 8119   1.696   7.335   3.977
 2725TIP3    H1 8120   1.696   7.426   4.005
 2725TIP3    H2 8121   1.606   7.305   3.993
 2726TIP3   OH2 8122   4.818   4.074   2.309
 2726TIP3    H1 8123   4.787   4.131   2.380
 2726TIP3    H2 8124   4.827   3.988   2.349
 2727TIP3   OH2 8125   1.344   6.098   4.974
 2727TIP3    H1 8126   1.267   6.075   5.026
 2727TIP3    H2 8127   1.382   6.014   4.948
 2728TIP3   OH2 8128   2.218   2.866   1.517
 2728TIP3    H1 8129   2.189   2.784   1.557
 2728TIP3    H2 8130   2.301   2.886   1.561
 2729TIP3   OH2 8131   3.916   2.721   6.139
 2729TIP3    H1 8132   3.937   2.813   6.121
 2729TIP3    H2 8133   3.841   2.701   6.083
 2730TIP3   OH2 8134   6.035   4.114   2.386
 2730TIP3    H1 8135   6.007   4.192   2.339
 2730TIP3    H2 8136   5.954   4.078   2.423
 2731TIP3   OH2 8137   1.217   4.514   0.505
 2731TIP3    H1 8138   1.241   4.596   0.547
 2731TIP3    H2 8139   1.164   4.468   0.570
 2732TIP3   OH2 8140   2.805   2.887   5.616
 2732TIP3    H1 8141   2.739   2.824   5.588
 2732TIP3    H2 8142   2.888   2.849   5.589
 2733TIP3   OH2 8143   6.213  -0.049   4.274
 2733TIP3    H1 8144   6.235  -0.068   4.183
 2733TIP3    H2 8145   6.121  -0.077   4.283
 2734TIP3   OH2 8146   5.604   2.548   2.614
 2734TIP3    H1 8147   5.598   2.454   2.600
 2734TIP3    H2 8148   5.527   2.570   2.666
 2735TIP3   OH2 8149   5.483   1.187   1.473
 2735TIP3    H1 8150   5.394   1.163   1.496
 2735TIP3    H2 8151   5.475   1.235   1.391
 2736TIP3   OH2 8152   3.100   5.075   4.894
 2736TIP3    H1 8153   3.068   5.123   4.970
 2736TIP3    H2 8154   3.104   4.984   4.923
 2737TIP3   OH2 8155   3.242   5.703   4.978
 2737TIP3    H1 8156   3.153   5.712   4.943
 2737TIP3    H2 8157   3.296   5.680   4.903
 2738TIP3   OH2 8158   5.536   2.520   4.220
 2738TIP3    H1 8159   5.538   2.493   4.129
 2738TIP3    H2 8160   5.497   2.445   4.266
 2739TIP3   OH2 8161   1.934   5.271   4.615
 2739TIP3    H1 8162   1.972   5.349   4.574
 2739TIP3    H2 8163   1.874   5.305   4.681
 2740TIP3   OH2 8164   1.970   0.584   5.675
 2740TIP3    H1 8165   2.043   0.625   5.629
 2740TIP3    H2 8166   1.955   0.640   5.751
 2741TIP3   OH2 8167   0.261   5.751   6.846
 2741TIP3    H1 8168   0.277   5.694   6.770
 2741TIP3    H2 8169   0.220   5.829   6.810
 2742TIP3   OH2 8170   1.871   1.583   5.548
 2742TIP3    H1 8171   1.918   1.499   5.556
 2742TIP3    H2 8172   1.816   1.586   5.626
 2743TIP3   OH2 8173   0.079   4.196   4.287
 2743TIP3    H1 8174   0.149   4.139   4.317
 2743TIP3    H2 8175   0.056   4.248   4.364
 2744TIP3   OH2 8176   3.596   2.423   2.591
 2744TIP3    H1 8177   3.629   2.406   2.503
 2744TIP3    H2 8178   3.578   2.517   2.592
 2745TIP3   OH2 8179   4.214   0.067   3.515
 2745TIP3    H1 8180   4.219   0.161   3.499
 2745TIP3    H2 8181   4.247   0.027   3.435
 2746TIP3   OH2 8182   4.600   7.000   2.547
 2746TIP3    H1 8183   4.585   6.937   2.476
 2746TIP3    H2 8184   4.683   7.041   2.525
 2747TIP3   OH2 8185   7.813   2.383   0.364
 2747TIP3    H1 8186   7.825   2.393   0.269
 2747TIP3    H2 8187   7.723   2.352   0.373
 2748TIP3   OH2 8188   0.575   0.609   0.450
 2748TIP3    H1 8189   0.581   0.703   0.465
 2748TIP3    H2 8190   0.649   0.572   0.498
 2749TIP3   OH2 8191   2.408   6.061   1.797
 2749TIP3    H1 8192   2.466   6.127   1.759
 2749TIP3    H2 8193   2.329   6.109   1.820
 2750TIP3   OH2 8194   0.625   4.403   6.332
 2750TIP3    H1 8195   0.600   4.382   6.242
 2750TIP3    H2 8196   0.678   4.328   6.360
 2751TIP3   OH2 8197   0.477   0.979   0.588
 2751TIP3    H1 8198   0.562   0.954   0.551
 2751TIP3    H2 8199   0.413   0.956   0.520
 2752TIP3   OH2 8200   7.556   4.682   6.308
 2752TIP3    H1 8201   7.610   4.608   6.336
 2752TIP3    H2 8202   7.514   4.652   6.227
 2753TIP3   OH2 8203   1.672   1.825   2.515
 2753TIP3    H1 8204   1.756   1.835   2.559
 2753TIP3    H2 8205   1.642   1.738   2.542
 2754TIP3   OH2 8206   5.879   0.583   6.364
 2754TIP3    H1 8207   5.906   0.672   6.388
 2754TIP3    H2 8208   5.936   0.526   6.415
 2755TIP3   OH2 8209   8.298   0.349   5.715
 2755TIP3    H1 8210   8.277   0.428   5.765
 2755TIP3    H2 8211   8.330   0.287   5.781
 2756TIP3   OH2 8212   8.254   2.793   3.196
 2756TIP3    H1 8213   8.185   2.727   3.191
 2756TIP3    H2 8214   8.336   2.742   3.199
 2757TIP3   OH2 8215   0.153   5.682   0.477
 2757TIP3    H1 8216   0.222   5.730   0.433
 2757TIP3    H2 8217   0.190   5.657   0.562
 2758TIP3   OH2 8218   3.500   0.407   6.551
 2758TIP3    H1 8219   3.457   0.359   6.480
 2758TIP3    H2 8220   3.431   0.422   6.615
 2759TIP3   OH2 8221   3.417   4.778   4.654
 2759TIP3    H1 8222   3.421   4.853   4.713
 2759TIP3    H2 8223   3.345   4.798   4.595
 2760TIP3   OH2 8224   4.473   5.613   2.957
 2760TIP3    H1 8225   4.562   5.639   2.931
 2760TIP3    H2 8226   4.472   5.518   2.947
 2761TIP3   OH2 8227   3.012   5.782   3.821
 2761TIP3    H1 8228   3.020   5.867   3.777
 2761TIP3    H2 8229   3.094   5.772   3.869
 2762TIP3   OH2 8230   2.841   5.283   5.942
 2762TIP3    H1 8231   2.867   5.240   6.024
 2762TIP3    H2 8232   2.786   5.219   5.898
 2763TIP3   OH2 8233   6.497   2.461   0.325
 2763TIP3    H1 8234   6.460   2.532   0.273
 2763TIP3    H2 8235   6.427   2.396   0.330
 2764TIP3   OH2 8236   0.497   3.722   3.251
 2764TIP3    H1 8237   0.500   3.767   3.167
 2764TIP3    H2 8238   0.533   3.635   3.233
 2765TIP3   OH2 8239   8.010   3.375   5.584
 2765TIP3    H1 8240   8.027   3.361   5.491
 2765TIP3    H2 8241   7.932   3.431   5.586
 2766TIP3   OH2 8242   0.872   7.069   1.192
 2766TIP3    H1 8243   0.797   7.082   1.133
 2766TIP3    H2 8244   0.939   7.128   1.159
 2767TIP3   OH2 8245   4.606   2.981   0.215
 2767TIP3    H1 8246   4.526   2.995   0.163
 2767TIP3    H2 8247   4.666   3.048   0.183
 2768TIP3   OH2 8248   0.787   1.589   4.184
 2768TIP3    H1 8249   0.724   1.593   4.255
 2768TIP3    H2 8250   0.872   1.591   4.228
 2769TIP3   OH2 8251   2.833   0.025   4.379
 2769TIP3    H1 8252   2.897  -0.016   4.320
 2769TIP3    H2 8253   2.884   0.089   4.429
 2770TIP3   OH2 8254   5.545   5.818   0.453
 2770TIP3    H1 8255   5.614   5.764   0.415
 2770TIP3    H2 8256   5.573   5.835   0.543
 2771TIP3   OH2 8257   6.883   4.444   1.087
 2771TIP3    H1 8258   6.846   4.510   1.145
 2771TIP3    H2 8259   6.901   4.492   1.006
 2772TIP3   OH2 8260   3.149   0.272   5.966
 2772TIP3    H1 8261   3.148   0.181   5.997
 2772TIP3    H2 8262   3.236   0.283   5.927
 2773TIP3   OH2 8263   7.425   4.620   4.639
 2773TIP3    H1 8264   7.449   4.611   4.732
 2773TIP3    H2 8265   7.469   4.700   4.611
 2774TIP3   OH2 8266   2.292   6.805   5.191
 2774TIP3    H1 8267   2.340   6.725   5.211
 2774TIP3    H2 8268   2.333   6.872   5.245
 2775TIP3   OH2 8269   4.512   6.097   1.290
 2775TIP3    H1 8270   4.428   6.059   1.316
 2775TIP3    H2 8271   4.490   6.184   1.257
 2776TIP3   OH2 8272   2.376   5.222   6.029
 2776TIP3    H1 8273   2.451   5.276   6.005
 2776TIP3    H2 8274   2.358   5.245   6.120
 2777TIP3   OH2 8275   4.687   4.716   5.900
 2777TIP3    H1 8276   4.668   4.730   5.807
 2777TIP3    H2 8277   4.695   4.805   5.936
 2778TIP3   OH2 8278   3.278   7.438   5.197
 2778TIP3    H1 8279   3.305   7.421   5.107
 2778TIP3    H2 8280   3.354   7.481   5.237
 2779TIP3   OH2 8281   1.060   7.405   3.307
 2779TIP3    H1 8282   1.061   7.488   3.355
 2779TIP3    H2 8283   1.149   7.371   3.315
 2780TIP3   OH2 8284   8.148   1.862   2.497
 2780TIP3    H1 8285   8.127   1.795   2.432
 2780TIP3    H2 8286   8.241   1.850   2.515
 2781TIP3   OH2 8287   2.995   1.772   6.067
 2781TIP3    H1 8288   2.924   1.824   6.029
 2781TIP3    H2 8289   2.977   1.683   6.039
 2782TIP3   OH2 8290   3.175   3.128   4.630
 2782TIP3    H1 8291   3.177   3.153   4.538
 2782TIP3    H2 8292   3.235   3.188   4.673
 2783TIP3   OH2 8293   1.086   7.774   0.999
 2783TIP3    H1 8294   1.063   7.839   0.933
 2783TIP3    H2 8295   1.030   7.699   0.978
 2784TIP3   OH2 8296   3.751   2.007   1.030
 2784TIP3    H1 8297   3.673   1.965   1.065
 2784TIP3    H2 8298   3.720   2.091   0.996
 2785TIP3   OH2 8299   2.492   7.778   1.011
 2785TIP3    H1 8300   2.429   7.775   0.939
 2785TIP3    H2 8301   2.449   7.831   1.078
 2786TIP3   OH2 8302   5.813   0.855   6.772
 2786TIP3    H1 8303   5.731   0.873   6.725
 2786TIP3    H2 8304   5.880   0.856   6.704
 2787TIP3   OH2 8305   7.644   3.497   3.852
 2787TIP3    H1 8306   7.618   3.409   3.822
 2787TIP3    H2 8307   7.728   3.513   3.808
 2788TIP3   OH2 8308   0.719   2.864   5.479
 2788TIP3    H1 8309   0.788   2.910   5.430
 2788TIP3    H2 8310   0.639   2.885   5.432
 2789TIP3   OH2 8311   3.079   3.807   6.695
 2789TIP3    H1 8312   3.049   3.743   6.760
 2789TIP3    H2 8313   3.174   3.807   6.703
 2790TIP3   OH2 8314   7.607   0.075   0.010
 2790TIP3    H1 8315   7.607   0.125  -0.072
 2790TIP3    H2 8316   7.653   0.131   0.073
 2791TIP3   OH2 8317   4.110   3.063   4.277
 2791TIP3    H1 8318   4.201   3.077   4.305
 2791TIP3    H2 8319   4.118   3.039   4.184
 2792TIP3   OH2 8320   0.065   1.662   1.970
 2792TIP3    H1 8321  -0.010   1.657   2.029
 2792TIP3    H2 8322   0.116   1.583   1.990
 2793TIP3   OH2 8323   5.608   1.635   4.061
 2793TIP3    H1 8324   5.591   1.728   4.049
 2793TIP3    H2 8325   5.577   1.616   4.150
 2794TIP3   OH2 8326   7.042   0.457   2.295
 2794TIP3    H1 8327   6.962   0.448   2.348
 2794TIP3    H2 8328   7.103   0.394   2.333
 2795TIP3   OH2 8329   5.167   4.714   1.453
 2795TIP3    H1 8330   5.146   4.622   1.434
 2795TIP3    H2 8331   5.091   4.763   1.422
 2796TIP3   OH2 8332   2.563   7.238   0.783
 2796TIP3    H1 8333   2.572   7.168   0.718
 2796TIP3    H2 8334   2.470   7.258   0.785
 2797TIP3   OH2 8335   1.552   3.673   3.567
 2797TIP3    H1 8336   1.646   3.659   3.579
 2797TIP3    H2 8337   1.523   3.597   3.515
 2798TIP3   OH2 8338   4.382   7.264   0.674
 2798TIP3    H1 8339   4.362   7.202   0.604
 2798TIP3    H2 8340   4.298   7.283   0.715
 2799TIP3   OH2 8341   5.383   2.965   1.088
 2799TIP3    H1 8342   5.415   2.989   1.175
 2799TIP3    H2 8343   5.332   2.886   1.102
 2800TIP3   OH2 8344   6.911   5.701   4.262
 2800TIP3    H1 8345   6.888   5.692   4.169
 2800TIP3    H2 8346   6.835   5.744   4.301
 2801TIP3   OH2 8347   3.606   3.188   1.225
 2801TIP3    H1 8348   3.648   3.123   1.169
 2801TIP3    H2 8349   3.588   3.142   1.307
 2802TIP3   OH2 8350   2.474   2.388   3.285
 2802TIP3    H1 8351   2.542   2.323   3.267
 2802TIP3    H2 8352   2.516   2.452   3.343
 2803TIP3   OH2 8353   4.789   5.575   3.052
 2803TIP3    H1 8354   4.759   5.529   3.130
 2803TIP3    H2 8355   4.879   5.601   3.073
 2804TIP3   OH2 8356   5.829   3.972   5.585
 2804TIP3    H1 8357   5.850   4.065   5.583
 2804TIP3    H2 8358   5.828   3.949   5.678
 2805TIP3   OH2 8359   6.087   0.452   6.514
 2805TIP3    H1 8360   6.127   0.453   6.427
 2805TIP3    H2 8361   6.157   0.483   6.572
 2806TIP3   OH2 8362   0.139   2.717   4.654
 2806TIP3    H1 8363   0.116   2.672   4.572
 2806TIP3    H2 8364   0.058   2.759   4.682
 2807TIP3   OH2 8365   2.414   3.931   5.106
 2807TIP3    H1 8366   2.422   4.011   5.157
 2807TIP3    H2 8367   2.421   3.860   5.170
 2808TIP3   OH2 8368   7.726   2.423   6.046
 2808TIP3    H1 8369   7.737   2.346   5.990
 2808TIP3    H2 8370   7.696   2.491   5.987
 2809TIP3   OH2 8371   5.401   5.674   1.672
 2809TIP3    H1 8372   5.452   5.650   1.595
 2809TIP3    H2 8373   5.422   5.607   1.737
 2810TIP3   OH2 8374   7.249   6.349   0.042
 2810TIP3    H1 8375   7.303   6.272   0.025
 2810TIP3    H2 8376   7.285   6.388   0.121
 2811TIP3   OH2 8377   4.986   0.383   4.073
 2811TIP3    H1 8378   4.899   0.421   4.084
 2811TIP3    H2 8379   5.037   0.450   4.028
 2812TIP3   OH2 8380   1.007   2.176   2.991
 2812TIP3    H1 8381   1.079   2.218   2.945
 2812TIP3    H2 8382   1.049   2.115   3.051
 2813TIP3   OH2 8383   2.974   7.299   4.283
 2813TIP3    H1 8384   2.927   7.372   4.324
 2813TIP3    H2 8385   2.937   7.221   4.325
 2814TIP3   OH2 8386   1.041   7.419   3.847
 2814TIP3    H1 8387   1.001   7.481   3.786
 2814TIP3    H2 8388   1.114   7.381   3.798
 2815TIP3   OH2 8389   2.820   0.573   5.646
 2815TIP3    H1 8390   2.882   0.519   5.696
 2815TIP3    H2 8391   2.765   0.614   5.713
 2816TIP3   OH2 8392   2.586   0.595   4.346
 2816TIP3    H1 8393   2.613   0.676   4.388
 2816TIP3    H2 8394   2.531   0.624   4.273
 2817TIP3   OH2 8395   1.151   7.605   6.665
 2817TIP3    H1 8396   1.123   7.561   6.745
 2817TIP3    H2 8397   1.223   7.551   6.631
 2818TIP3   OH2 8398   3.811   2.965   2.087
 2818TIP3    H1 8399   3.831   2.873   2.072
 2818TIP3    H2 8400   3.806   2.973   2.182
 2819TIP3   OH2 8401   7.015   7.571   1.912
 2819TIP3    H1 8402   7.017   7.665   1.896
 2819TIP3    H2 8403   7.043   7.562   2.003
 2820TIP3   OH2 8404   0.242   0.233   1.008
 2820TIP3    H1 8405   0.167   0.185   0.971
 2820TIP3    H2 8406   0.231   0.223   1.103
 2821TIP3   OH2 8407   3.169   4.923   6.396
 2821TIP3    H1 8408   3.184   5.009   6.358
 2821TIP3    H2 8409   3.233   4.866   6.354
 2822TIP3   OH2 8410   3.232   4.161   6.615
 2822TIP3    H1 8411   3.259   4.111   6.538
 2822TIP3    H2 8412   3.257   4.106   6.690
 2823TIP3   OH2 8413   0.625   6.226   0.858
 2823TIP3    H1 8414   0.635   6.157   0.924
 2823TIP3    H2 8415   0.646   6.307   0.905
 2824TIP3   OH2 8416   3.424   5.391   1.667
 2824TIP3    H1 8417   3.379   5.474   1.685
 2824TIP3    H2 8418   3.373   5.351   1.596
 2825TIP3   OH2 8419   7.763   6.519   4.754
 2825TIP3    H1 8420   7.740   6.611   4.766
 2825TIP3    H2 8421   7.684   6.480   4.716
 2826TIP3   OH2 8422   2.344   2.458   6.750
 2826TIP3    H1 8423   2.257   2.445   6.712
 2826TIP3    H2 8424   2.328   2.502   6.833
 2827TIP3   OH2 8425   4.592   0.266   4.108
 2827TIP3    H1 8426   4.607   0.194   4.169
 2827TIP3    H2 8427   4.514   0.311   4.143
 2828TIP3   OH2 8428   7.288   6.814   6.368
 2828TIP3    H1 8429   7.361   6.783   6.422
 2828TIP3    H2 8430   7.286   6.908   6.383
 2829TIP3   OH2 8431   4.144   2.511   5.694
 2829TIP3    H1 8432   4.119   2.563   5.770
 2829TIP3    H2 8433   4.061   2.495   5.648
 2830TIP3   OH2 8434   1.946   1.927   3.545
 2830TIP3    H1 8435   2.040   1.909   3.538
 2830TIP3    H2 8436   1.915   1.867   3.613
 2831TIP3   OH2 8437   5.184   2.242   4.676
 2831TIP3    H1 8438   5.182   2.303   4.603
 2831TIP3    H2 8439   5.267   2.259   4.720
 2832TIP3   OH2 8440   4.588   2.912   6.236
 2832TIP3    H1 8441   4.677   2.922   6.203
 2832TIP3    H2 8442   4.587   2.826   6.278
 2833TIP3   OH2 8443   4.887   2.246   1.510
 2833TIP3    H1 8444   4.899   2.215   1.420
 2833TIP3    H2 8445   4.822   2.315   1.503
 2834TIP3   OH2 8446   2.107   0.267   5.429
 2834TIP3    H1 8447   2.168   0.332   5.393
 2834TIP3    H2 8448   2.062   0.232   5.352
 2835TIP3   OH2 8449   4.689   5.359   0.199
 2835TIP3    H1 8450   4.768   5.328   0.156
 2835TIP3    H2 8451   4.716   5.379   0.289
 2836TIP3   OH2 8452   7.001   4.021   1.338
 2836TIP3    H1 8453   6.918   3.975   1.351
 2836TIP3    H2 8454   6.976   4.106   1.302
 2837TIP3   OH2 8455   0.900   1.571   2.211
 2837TIP3    H1 8456   0.891   1.495   2.153
 2837TIP3    H2 8457   0.989   1.601   2.197
 2838TIP3   OH2 8458   3.031   3.543   2.619
 2838TIP3    H1 8459   3.038   3.635   2.595
 2838TIP3    H2 8460   2.985   3.502   2.545
 2839TIP3   OH2 8461   1.667   0.289   1.920
 2839TIP3    H1 8462   1.731   0.292   1.849
 2839TIP3    H2 8463   1.710   0.332   1.994
 2840TIP3   OH2 8464   7.243   2.461   4.551
 2840TIP3    H1 8465   7.309   2.525   4.522
 2840TIP3    H2 8466   7.159   2.505   4.536
 2841TIP3   OH2 8467   2.749   1.520   5.035
 2841TIP3    H1 8468   2.785   1.494   4.950
 2841TIP3    H2 8469   2.820   1.568   5.078
 2842TIP3   OH2 8470   0.982   5.008   4.245
 2842TIP3    H1 8471   0.973   5.094   4.284
 2842TIP3    H2 8472   1.074   4.985   4.259
 2843TIP3   OH2 8473   1.187   4.580   2.156
 2843TIP3    H1 8474   1.100   4.553   2.125
 2843TIP3    H2 8475   1.248   4.519   2.115
 2844TIP3   OH2 8476   3.088   5.441   5.584
 2844TIP3    H1 8477   3.010   5.437   5.640
 2844TIP3    H2 8478   3.054   5.467   5.498
 2845TIP3   OH2 8479   0.372   6.336   6.525
 2845TIP3    H1 8480   0.411   6.249   6.526
 2845TIP3    H2 8481   0.373   6.361   6.432
 2846TIP3   OH2 8482   3.697   7.167   2.514
 2846TIP3    H1 8483   3.718   7.182   2.422
 2846TIP3    H2 8484   3.756   7.227   2.561
 2847TIP3   OH2 8485   6.566   4.742   3.897
 2847TIP3    H1 8486   6.655   4.770   3.877
 2847TIP3    H2 8487   6.511   4.790   3.835
 2848TIP3   OH2 8488   4.648   2.627   2.590
 2848TIP3    H1 8489   4.566   2.580   2.604
 2848TIP3    H2 8490   4.689   2.582   2.515
 2849TIP3   OH2 8491   5.386   4.217   0.369
 2849TIP3    H1 8492   5.415   4.137   0.413
 2849TIP3    H2 8493   5.403   4.201   0.276
 2850TIP3   OH2 8494   1.564   4.445   1.055
 2850TIP3    H1 8495   1.473   4.472   1.044
 2850TIP3    H2 8496   1.585   4.464   1.147
 2851TIP3   OH2 8497   4.444   3.796   5.421
 2851TIP3    H1 8498   4.534   3.803   5.391
 2851TIP3    H2 8499   4.392   3.789   5.340
 2852TIP3   OH2 8500   7.007   2.675   5.058
 2852TIP3    H1 8501   6.948   2.670   5.134
 2852TIP3    H2 8502   7.095   2.671   5.096
 2853TIP3   OH2 8503   4.014   3.779   3.028
 2853TIP3    H1 8504   4.085   3.727   3.064
 2853TIP3    H2 8505   3.943   3.771   3.093
 2854TIP3   OH2 8506   7.207   3.623   4.179
 2854TIP3    H1 8507   7.289   3.598   4.136
 2854TIP3    H2 8508   7.160   3.540   4.190
 2855TIP3   OH2 8509   3.446   4.543   6.011
 2855TIP3    H1 8510   3.459   4.468   5.954
 2855TIP3    H2 8511   3.530   4.589   6.009
 2856TIP3   OH2 8512   2.829   0.281   0.847
 2856TIP3    H1 8513   2.878   0.204   0.877
 2856TIP3    H2 8514   2.743   0.247   0.823
 2857TIP3   OH2 8515   0.654   3.023   1.270
 2857TIP3    H1 8516   0.698   2.942   1.294
 2857TIP3    H2 8517   0.717   3.092   1.289
 2858TIP3   OH2 8518   1.127   1.528   5.884
 2858TIP3    H1 8519   1.179   1.450   5.898
 2858TIP3    H2 8520   1.175   1.598   5.929
 2859TIP3   OH2 8521   1.569   2.787   4.090
 2859TIP3    H1 8522   1.498   2.823   4.037
 2859TIP3    H2 8523   1.624   2.740   4.027
 2860TIP3   OH2 8524   5.908   1.859   5.181
 2860TIP3    H1 8525   5.844   1.929   5.192
 2860TIP3    H2 8526   5.993   1.905   5.180
 2861TIP3   OH2 8527   1.261   0.300   4.028
 2861TIP3    H1 8528   1.316   0.303   4.107
 2861TIP3    H2 8529   1.255   0.392   4.001
 2862TIP3   OH2 8530   8.194   4.809   0.589
 2862TIP3    H1 8531   8.153   4.765   0.663
 2862TIP3    H2 8532   8.133   4.879   0.566
 2863TIP3   OH2 8533   1.328   7.455   5.762
 2863TIP3    H1 8534   1.420   7.448   5.788
 2863TIP3    H2 8535   1.330   7.462   5.667
 2864TIP3   OH2 8536   2.658   3.949   4.759
 2864TIP3    H1 8537   2.735   3.991   4.798
 2864TIP3    H2 8538   2.654   3.983   4.670
 2865TIP3   OH2 8539   7.037   1.386   2.964
 2865TIP3    H1 8540   7.132   1.388   2.976
 2865TIP3    H2 8541   7.016   1.467   2.918
 2866TIP3   OH2 8542   1.599   1.669   6.714
 2866TIP3    H1 8543   1.665   1.738   6.711
 2866TIP3    H2 8544   1.517   1.716   6.730
 2867TIP3   OH2 8545   4.386   4.160   4.739
 2867TIP3    H1 8546   4.408   4.211   4.817
 2867TIP3    H2 8547   4.291   4.171   4.730
 2868TIP3   OH2 8548   0.981   6.418   3.930
 2868TIP3    H1 8549   0.999   6.383   4.017
 2868TIP3    H2 8550   1.008   6.509   3.933
 2869TIP3   OH2 8551   3.018   6.785   0.859
 2869TIP3    H1 8552   2.954   6.823   0.920
 2869TIP3    H2 8553   3.082   6.742   0.916
 2870TIP3   OH2 8554   3.717   1.356   4.355
 2870TIP3    H1 8555   3.686   1.327   4.269
 2870TIP3    H2 8556   3.696   1.449   4.358
 2871TIP3   OH2 8557   3.532   4.941   0.506
 2871TIP3    H1 8558   3.536   4.953   0.601
 2871TIP3    H2 8559   3.600   4.876   0.488
 2872TIP3   OH2 8560   3.143   4.073   6.235
 2872TIP3    H1 8561   3.063   4.108   6.274
 2872TIP3    H2 8562   3.122   4.062   6.142
 2873TIP3   OH2 8563   7.312   5.797   0.594
 2873TIP3    H1 8564   7.396   5.806   0.639
 2873TIP3    H2 8565   7.310   5.705   0.566
 2874TIP3   OH2 8566   0.724   7.449   4.659
 2874TIP3    H1 8567   0.656   7.383   4.650
 2874TIP3    H2 8568   0.778   7.440   4.581
 2875TIP3   OH2 8569   6.215   5.075   1.565
 2875TIP3    H1 8570   6.246   4.989   1.537
 2875TIP3    H2 8571   6.148   5.100   1.501
 2876TIP3   OH2 8572   7.494   5.724   1.300
 2876TIP3    H1 8573   7.465   5.795   1.242
 2876TIP3    H2 8574   7.564   5.764   1.352
 2877TIP3   OH2 8575   4.525   2.393   5.375
 2877TIP3    H1 8576   4.608   2.437   5.360
 2877TIP3    H2 8577   4.481   2.447   5.441
 2878TIP3   OH2 8578   1.095   0.345   6.067
 2878TIP3    H1 8579   1.048   0.369   6.147
 2878TIP3    H2 8580   1.187   0.362   6.088
 2879TIP3   OH2 8581   0.612   3.630   2.627
 2879TIP3    H1 8582   0.546   3.635   2.558
 2879TIP3    H2 8583   0.636   3.721   2.645
 2880TIP3   OH2 8584   2.095   0.358   4.311
 2880TIP3    H1 8585   2.016   0.401   4.279
 2880TIP3    H2 8586   2.077   0.339   4.403
 2881TIP3   OH2 8587   1.746   7.167   6.622
 2881TIP3    H1 8588   1.728   7.124   6.538
 2881TIP3    H2 8589   1.684   7.127   6.683
 2882TIP3   OH2 8590   0.987   3.968   2.871
 2882TIP3    H1 8591   0.967   4.008   2.786
 2882TIP3    H2 8592   0.994   4.042   2.932
 2883TIP3   OH2 8593   1.343   7.118   3.519
 2883TIP3    H1 8594   1.263   7.070   3.497
 2883TIP3    H2 8595   1.404   7.050   3.549
 2884TIP3   OH2 8596   4.033   3.121   3.641
 2884TIP3    H1 8597   3.953   3.112   3.588
 2884TIP3    H2 8598   4.005   3.173   3.717
 2885TIP3   OH2 8599   1.459   2.005   6.398
 2885TIP3    H1 8600   1.378   1.955   6.407
 2885TIP3    H2 8601   1.470   2.050   6.482
 2886TIP3   OH2 8602   2.090   4.813   3.134
 2886TIP3    H1 8603   2.137   4.897   3.135
 2886TIP3    H2 8604   2.047   4.810   3.049
 2887TIP3   OH2 8605   7.431   1.051   0.154
 2887TIP3    H1 8606   7.373   1.126   0.170
 2887TIP3    H2 8607   7.439   1.009   0.239
 2888TIP3   OH2 8608   8.104   1.656   2.309
 2888TIP3    H1 8609   8.148   1.572   2.310
 2888TIP3    H2 8610   8.080   1.670   2.217
 2889TIP3   OH2 8611   1.172   1.388   0.796
 2889TIP3    H1 8612   1.185   1.469   0.845
 2889TIP3    H2 8613   1.260   1.349   0.791
 2890TIP3   OH2 8614   8.108   3.647   0.363
 2890TIP3    H1 8615   8.147   3.598   0.290
 2890TIP3    H2 8616   8.136   3.737   0.349
 2891TIP3   OH2 8617   6.944   7.334   0.509
 2891TIP3    H1 8618   6.925   7.428   0.497
 2891TIP3    H2 8619   6.889   7.291   0.443
 2892TIP3   OH2 8620   5.055   0.804   1.244
 2892TIP3    H1 8621   5.059   0.892   1.205
 2892TIP3    H2 8622   5.103   0.748   1.184
 2893TIP3   OH2 8623   2.007   3.353   3.574
 2893TIP3    H1 8624   2.057   3.380   3.650
 2893TIP3    H2 8625   1.940   3.294   3.608
 2894TIP3   OH2 8626   2.990   5.731   0.281
 2894TIP3    H1 8627   2.897   5.731   0.257
 2894TIP3    H2 8628   3.021   5.645   0.253
 2895TIP3   OH2 8629   3.629   2.124   1.780
 2895TIP3    H1 8630   3.633   2.133   1.685
 2895TIP3    H2 8631   3.633   2.030   1.795
 2896TIP3   OH2 8632   7.998   7.709   4.709
 2896TIP3    H1 8633   8.051   7.765   4.767
 2896TIP3    H2 8634   7.985   7.762   4.630
 2897TIP3   OH2 8635   1.203   0.098   4.973
 2897TIP3    H1 8636   1.202   0.186   4.936
 2897TIP3    H2 8637   1.111   0.070   4.972
 2898TIP3   OH2 8638   5.779   1.481   0.782
 2898TIP3    H1 8639   5.819   1.470   0.868
 2898TIP3    H2 8640   5.716   1.409   0.775
 2899TIP3   OH2 8641   7.410   7.169   1.020
 2899TIP3    H1 8642   7.504   7.175   1.035
 2899TIP3    H2 8643   7.372   7.231   1.083
 2900TIP3   OH2 8644   4.537   7.624   5.434
 2900TIP3    H1 8645   4.545   7.689   5.363
 2900TIP3    H2 8646   4.493   7.671   5.505
 2901TIP3   OH2 8647   4.524   1.068   0.236
 2901TIP3    H1 8648   4.490   1.151   0.201
 2901TIP3    H2 8649   4.559   1.023   0.159
 2902TIP3   OH2 8650   2.322   7.318   0.901
 2902TIP3    H1 8651   2.270   7.246   0.867
 2902TIP3    H2 8652   2.261   7.368   0.956
 2903TIP3   OH2 8653   3.824   4.395   6.692
 2903TIP3    H1 8654   3.826   4.407   6.787
 2903TIP3    H2 8655   3.808   4.483   6.657
 2904TIP3   OH2 8656   3.472   0.456   3.288
 2904TIP3    H1 8657   3.405   0.487   3.350
 2904TIP3    H2 8658   3.519   0.388   3.336
 2905TIP3   OH2 8659   1.315   3.725   4.147
 2905TIP3    H1 8660   1.302   3.686   4.234
 2905TIP3    H2 8661   1.226   3.736   4.112
 2906TIP3   OH2 8662   4.934   5.960   1.334
 2906TIP3    H1 8663   4.994   5.960   1.260
 2906TIP3    H2 8664   4.978   5.908   1.401
 2907TIP3   OH2 8665   7.919   5.158   3.021
 2907TIP3    H1 8666   7.909   5.244   2.981
 2907TIP3    H2 8667   8.013   5.141   3.021
 2908TIP3   OH2 8668   4.953   3.833   3.494
 2908TIP3    H1 8669   4.933   3.864   3.406
 2908TIP3    H2 8670   4.906   3.749   3.501
 2909TIP3   OH2 8671   1.642   2.497   5.174
 2909TIP3    H1 8672   1.684   2.416   5.206
 2909TIP3    H2 8673   1.631   2.551   5.252
 2910TIP3   OH2 8674   3.447   3.554   5.909
 2910TIP3    H1 8675   3.479   3.637   5.873
 2910TIP3    H2 8676   3.526   3.506   5.932
 2911TIP3   OH2 8677   6.145   5.217   2.304
 2911TIP3    H1 8678   6.240   5.206   2.294
 2911TIP3    H2 8679   6.128   5.192   2.395
 2912TIP3   OH2 8680   1.663   6.485   5.114
 2912TIP3    H1 8681   1.673   6.512   5.023
 2912TIP3    H2 8682   1.569   6.493   5.132
 2913TIP3   OH2 8683   2.981   6.748   3.020
 2913TIP3    H1 8684   2.938   6.691   2.956
 2913TIP3    H2 8685   2.916   6.815   3.041
 2914TIP3   OH2 8686   2.088   1.183   2.973
 2914TIP3    H1 8687   2.027   1.256   2.962
 2914TIP3    H2 8688   2.154   1.197   2.904
 2915TIP3   OH2 8689   8.145   3.877   1.575
 2915TIP3    H1 8690   8.094   3.869   1.494
 2915TIP3    H2 8691   8.131   3.794   1.620
 2916TIP3   OH2 8692   8.311   6.585   1.774
 2916TIP3    H1 8693   8.307   6.624   1.862
 2916TIP3    H2 8694   8.314   6.491   1.790
 2917TIP3   OH2 8695   6.898   4.382   4.338
 2917TIP3    H1 8696   6.854   4.298   4.335
 2917TIP3    H2 8697   6.939   4.385   4.425
 2918TIP3   OH2 8698   1.718   4.544   5.424
 2918TIP3    H1 8699   1.661   4.525   5.499
 2918TIP3    H2 8700   1.661   4.585   5.360
 2919TIP3   OH2 8701   3.913   5.601   0.756
 2919TIP3    H1 8702   3.890   5.551   0.678
 2919TIP3    H2 8703   3.836   5.596   0.812
 2920TIP3   OH2 8704   7.132   2.316   2.909
 2920TIP3    H1 8705   7.129   2.301   3.003
 2920TIP3    H2 8706   7.040   2.313   2.881
 2921TIP3   OH2 8707   2.906   1.744   4.075
 2921TIP3    H1 8708   2.915   1.667   4.131
 2921TIP3    H2 8709   2.813   1.746   4.052
 2922TIP3   OH2 8710   5.694   0.451   1.863
 2922TIP3    H1 8711   5.696   0.450   1.958
 2922TIP3    H2 8712   5.782   0.426   1.836
 2923TIP3   OH2 8713   2.552   4.420   0.477
 2923TIP3    H1 8714   2.546   4.415   0.572
 2923TIP3    H2 8715   2.483   4.362   0.445
 2924TIP3   OH2 8716   5.394   0.020   0.160
 2924TIP3    H1 8717   5.479   0.063   0.154
 2924TIP3    H2 8718   5.415  -0.072   0.176
 2925TIP3   OH2 8719   4.095   6.200   5.623
 2925TIP3    H1 8720   4.025   6.140   5.598
 2925TIP3    H2 8721   4.162   6.188   5.555
 2926TIP3   OH2 8722   2.911   0.286   2.897
 2926TIP3    H1 8723   2.917   0.233   2.976
 2926TIP3    H2 8724   3.000   0.316   2.881
 2927TIP3   OH2 8725   5.724   0.006   2.810
 2927TIP3    H1 8726   5.809   0.025   2.849
 2927TIP3    H2 8727   5.737  -0.077   2.764
 2928TIP3   OH2 8728   6.777   0.212   5.492
 2928TIP3    H1 8729   6.764   0.307   5.489
 2928TIP3    H2 8730   6.806   0.188   5.404
 2929TIP3   OH2 8731   1.501   1.740   1.712
 2929TIP3    H1 8732   1.445   1.776   1.781
 2929TIP3    H2 8733   1.451   1.666   1.676
 2930TIP3   OH2 8734   4.367   1.991   0.419
 2930TIP3    H1 8735   4.335   2.069   0.373
 2930TIP3    H2 8736   4.331   1.917   0.371
 2931TIP3   OH2 8737   7.764   3.674   1.702
 2931TIP3    H1 8738   7.790   3.640   1.616
 2931TIP3    H2 8739   7.679   3.715   1.688
 2932TIP3   OH2 8740   6.607   3.248   1.862
 2932TIP3    H1 8741   6.648   3.275   1.944
 2932TIP3    H2 8742   6.670   3.188   1.823
 2933TIP3   OH2 8743   7.235   3.932   1.173
 2933TIP3    H1 8744   7.161   3.950   1.231
 2933TIP3    H2 8745   7.304   3.990   1.204
 2934TIP3   OH2 8746   6.093   5.662   2.775
 2934TIP3    H1 8747   6.026   5.724   2.746
 2934TIP3    H2 8748   6.049   5.577   2.776
 2935TIP3   OH2 8749   5.390   3.659   1.072
 2935TIP3    H1 8750   5.309   3.659   1.124
 2935TIP3    H2 8751   5.361   3.640   0.983
 2936TIP3   OH2 8752   5.502   7.773   4.907
 2936TIP3    H1 8753   5.469   7.825   4.981
 2936TIP3    H2 8754   5.476   7.683   4.928
 2937TIP3   OH2 8755   6.983   7.230   5.127
 2937TIP3    H1 8756   6.921   7.290   5.085
 2937TIP3    H2 8757   6.930   7.155   5.153
 2938TIP3   OH2 8758   1.694   3.689   4.367
 2938TIP3    H1 8759   1.724   3.756   4.428
 2938TIP3    H2 8760   1.618   3.727   4.324
 2939TIP3   OH2 8761   1.766   3.486   6.634
 2939TIP3    H1 8762   1.677   3.513   6.659
 2939TIP3    H2 8763   1.824   3.537   6.690
 2940TIP3   OH2 8764   1.967   2.162   6.495
 2940TIP3    H1 8765   1.891   2.217   6.512
 2940TIP3    H2 8766   1.940   2.074   6.522
 2941TIP3   OH2 8767   7.810   3.087   2.342
 2941TIP3    H1 8768   7.873   3.155   2.318
 2941TIP3    H2 8769   7.741   3.134   2.388
 2942TIP3   OH2 8770   7.062   5.887   1.981
 2942TIP3    H1 8771   7.092   5.864   1.893
 2942TIP3    H2 8772   7.081   5.980   1.990
 2943TIP3   OH2 8773   0.727   1.700   5.052
 2943TIP3    H1 8774   0.747   1.688   5.145
 2943TIP3    H2 8775   0.789   1.767   5.022
 2944TIP3   OH2 8776   2.702   6.108   5.953
 2944TIP3    H1 8777   2.725   6.201   5.957
 2944TIP3    H2 8778   2.771   6.068   5.901
 2945TIP3   OH2 8779   3.465   2.547   1.064
 2945TIP3    H1 8780   3.537   2.610   1.077
 2945TIP3    H2 8781   3.391   2.601   1.037
 2946TIP3   OH2 8782   2.661   2.758   5.257
 2946TIP3    H1 8783   2.753   2.783   5.262
 2946TIP3    H2 8784   2.613   2.839   5.278
 2947TIP3   OH2 8785   8.237   4.703   4.802
 2947TIP3    H1 8786   8.156   4.753   4.786
 2947TIP3    H2 8787   8.297   4.767   4.841
 2948TIP3   OH2 8788   6.718   2.942   3.120
 2948TIP3    H1 8789   6.643   2.996   3.096
 2948TIP3    H2 8790   6.770   2.998   3.178
 2949TIP3   OH2 8791   5.035   5.251   2.595
 2949TIP3    H1 8792   5.127   5.263   2.620
 2949TIP3    H2 8793   5.006   5.176   2.646
 2950TIP3   OH2 8794   3.978   5.187   3.303
 2950TIP3    H1 8795   3.946   5.137   3.379
 2950TIP3    H2 8796   4.061   5.146   3.280
 2951TIP3   OH2 8797   3.291   4.324   0.114
 2951TIP3    H1 8798   3.325   4.334   0.025
 2951TIP3    H2 8799   3.358   4.274   0.160
 2952TIP3   OH2 8800   4.234   7.720   5.465
 2952TIP3    H1 8801   4.263   7.629   5.459
 2952TIP3    H2 8802   4.166   7.719   5.532
 2953TIP3   OH2 8803   3.719   7.641   4.795
 2953TIP3    H1 8804   3.732   7.562   4.743
 2953TIP3    H2 8805   3.658   7.615   4.864
 2954TIP3   OH2 8806   2.965   2.623   5.341
 2954TIP3    H1 8807   2.946   2.666   5.258
 2954TIP3    H2 8808   2.970   2.530   5.319
 2955TIP3   OH2 8809   6.157   2.747   0.494
 2955TIP3    H1 8810   6.166   2.820   0.434
 2955TIP3    H2 8811   6.064   2.742   0.514
 2956TIP3   OH2 8812   7.002   2.187   3.943
 2956TIP3    H1 8813   6.921   2.157   3.986
 2956TIP3    H2 8814   6.988   2.280   3.928
 2957TIP3   OH2 8815   6.779   0.321   6.117
 2957TIP3    H1 8816   6.692   0.356   6.100
 2957TIP3    H2 8817   6.838   0.393   6.096
 2958TIP3   OH2 8818   7.974   2.914   1.418
 2958TIP3    H1 8819   8.039   2.972   1.456
 2958TIP3    H2 8820   7.979   2.931   1.324
 2959TIP3   OH2 8821   3.792   7.268   4.363
 2959TIP3    H1 8822   3.758   7.246   4.276
 2959TIP3    H2 8823   3.887   7.268   4.353
 2960TIP3   OH2 8824   3.647   5.239   1.337
 2960TIP3    H1 8825   3.610   5.250   1.424
 2960TIP3    H2 8826   3.664   5.145   1.329
 2961TIP3   OH2 8827   1.699   3.684   3.271
 2961TIP3    H1 8828   1.777   3.638   3.240
 2961TIP3    H2 8829   1.700   3.670   3.366
 2962TIP3   OH2 8830   6.304   4.182   2.062
 2962TIP3    H1 8831   6.304   4.088   2.049
 2962TIP3    H2 8832   6.396   4.208   2.057
 2963TIP3   OH2 8833   5.754   2.296   4.317
 2963TIP3    H1 8834   5.736   2.293   4.411
 2963TIP3    H2 8835   5.697   2.230   4.279
 2964TIP3   OH2 8836   4.019   5.742   3.870
 2964TIP3    H1 8837   4.102   5.780   3.898
 2964TIP3    H2 8838   3.979   5.809   3.815
 2965TIP3   OH2 8839   8.256   6.015   4.989
 2965TIP3    H1 8840   8.284   5.973   5.070
 2965TIP3    H2 8841   8.259   5.944   4.924
 2966TIP3   OH2 8842   1.671   3.102   5.795
 2966TIP3    H1 8843   1.755   3.111   5.840
 2966TIP3    H2 8844   1.626   3.032   5.843
 2967TIP3   OH2 8845   1.407   7.115   2.131
 2967TIP3    H1 8846   1.332   7.057   2.115
 2967TIP3    H2 8847   1.373   7.202   2.112
 2968TIP3   OH2 8848   3.721   2.911   0.697
 2968TIP3    H1 8849   3.794   2.914   0.759
 2968TIP3    H2 8850   3.743   2.976   0.631
 2969TIP3   OH2 8851   2.755   5.955   6.766
 2969TIP3    H1 8852   2.793   5.974   6.680
 2969TIP3    H2 8853   2.782   6.029   6.821
 2970TIP3   OH2 8854   4.729   4.204   6.636
 2970TIP3    H1 8855   4.750   4.111   6.639
 2970TIP3    H2 8856   4.765   4.235   6.553
 2971TIP3   OH2 8857   5.619   0.186   1.277
 2971TIP3    H1 8858   5.578   0.121   1.220
 2971TIP3    H2 8859   5.638   0.260   1.219
 2972TIP3   OH2 8860   8.144   4.332   2.911
 2972TIP3    H1 8861   8.074   4.272   2.939
 2972TIP3    H2 8862   8.212   4.275   2.875
 2973TIP3   OH2 8863   5.891   5.750   2.608
 2973TIP3    H1 8864   5.825   5.716   2.549
 2973TIP3    H2 8865   5.841   5.790   2.680
 2974TIP3   OH2 8866   5.802   1.974   1.099
 2974TIP3    H1 8867   5.806   2.019   1.014
 2974TIP3    H2 8868   5.736   1.906   1.086
 2975TIP3   OH2 8869   7.983   5.992   2.168
 2975TIP3    H1 8870   7.936   5.974   2.086
 2975TIP3    H2 8871   7.959   5.919   2.225
 2976TIP3   OH2 8872   5.913   6.736   5.927
 2976TIP3    H1 8873   5.854   6.792   5.977
 2976TIP3    H2 8874   5.856   6.672   5.885
 2977TIP3   OH2 8875   2.239   0.619   6.002
 2977TIP3    H1 8876   2.177   0.594   6.071
 2977TIP3    H2 8877   2.289   0.540   5.985
 2978TIP3   OH2 8878   7.482   7.305   4.078
 2978TIP3    H1 8879   7.553   7.241   4.073
 2978TIP3    H2 8880   7.460   7.309   4.171
 2979TIP3   OH2 8881   2.229   2.004   6.354
 2979TIP3    H1 8882   2.238   1.998   6.449
 2979TIP3    H2 8883   2.313   2.038   6.324
 2980TIP3   OH2 8884   7.531   4.250   4.801
 2980TIP3    H1 8885   7.548   4.285   4.713
 2980TIP3    H2 8886   7.436   4.248   4.808
 2981TIP3   OH2 8887   7.229   3.470   6.670
 2981TIP3    H1 8888   7.158   3.405   6.669
 2981TIP3    H2 8889   7.266   3.464   6.758
 2982TIP3   OH2 8890   0.124   3.680   6.783
 2982TIP3    H1 8891   0.198   3.717   6.832
 2982TIP3    H2 8892   0.143   3.586   6.779
 2983TIP3   OH2 8893   6.118   4.637   3.778
 2983TIP3    H1 8894   6.083   4.548   3.782
 2983TIP3    H2 8895   6.207   4.627   3.746
 2984TIP3   OH2 8896   7.913   6.372   5.388
 2984TIP3    H1 8897   7.975   6.365   5.460
 2984TIP3    H2 8898   7.878   6.462   5.394
 2985TIP3   OH2 8899   7.274   1.148   4.484
 2985TIP3    H1 8900   7.347   1.165   4.545
 2985TIP3    H2 8901   7.316   1.113   4.406
 2986TIP3   OH2 8902   7.521   6.507   4.619
 2986TIP3    H1 8903   7.503   6.462   4.536
 2986TIP3    H2 8904   7.488   6.596   4.606
 2987TIP3   OH2 8905   3.403   4.180   4.526
 2987TIP3    H1 8906   3.390   4.155   4.435
 2987TIP3    H2 8907   3.476   4.241   4.524
 2988TIP3   OH2 8908   2.540   0.293   6.398
 2988TIP3    H1 8909   2.472   0.322   6.460
 2988TIP3    H2 8910   2.528   0.349   6.322
 2989TIP3   OH2 8911   5.444   4.797   1.495
 2989TIP3    H1 8912   5.495   4.840   1.427
 2989TIP3    H2 8913   5.491   4.716   1.513
 2990TIP3   OH2 8914   5.795   2.616   1.290
 2990TIP3    H1 8915   5.704   2.644   1.303
 2990TIP3    H2 8916   5.809   2.622   1.196
 2991TIP3   OH2 8917   1.700   1.120   4.372
 2991TIP3    H1 8918   1.694   1.086   4.461
 2991TIP3    H2 8919   1.696   1.215   4.382
 2992TIP3   OH2 8920   1.851   2.386   3.219
 2992TIP3    H1 8921   1.871   2.477   3.241
 2992TIP3    H2 8922   1.909   2.365   3.147
 2993TIP3   OH2 8923   2.257   7.726   1.663
 2993TIP3    H1 8924   2.273   7.738   1.569
 2993TIP3    H2 8925   2.297   7.641   1.683
 2994TIP3   OH2 8926   4.423   3.682   6.725
 2994TIP3    H1 8927   4.443   3.710   6.636
 2994TIP3    H2 8928   4.458   3.593   6.731
 2995TIP3   OH2 8929   1.396   3.174   4.931
 2995TIP3    H1 8930   1.400   3.270   4.937
 2995TIP3    H2 8931   1.381   3.145   5.020
 2996TIP3   OH2 8932   5.966   5.078   5.290
 2996TIP3    H1 8933   6.059   5.098   5.297
 2996TIP3    H2 8934   5.961   5.010   5.224
 2997TIP3   OH2 8935   6.418   4.286   0.279
 2997TIP3    H1 8936   6.492   4.232   0.251
 2997TIP3    H2 8937   6.456   4.371   0.301
 2998TIP3   OH2 8938   0.270   2.646   4.394
 2998TIP3    H1 8939   0.274   2.742   4.394
 2998TIP3    H2 8940   0.344   2.619   4.448
 2999TIP3   OH2 8941   7.817   7.704   3.852
 2999TIP3    H1 8942   7.763   7.628   3.833
 2999TIP3    H2 8943   7.878   7.674   3.919
 3000TIP3   OH2 8944   1.257   2.829   2.019
 3000TIP3    H1 8945   1.164   2.837   2.043
 3000TIP3    H2 8946   1.265   2.880   1.938
 3001TIP3   OH2 8947   1.495   5.722   4.197
 3001TIP3    H1 8948   1.566   5.689   4.142
 3001TIP3    H2 8949   1.473   5.649   4.255
 3002TIP3   OH2 8950   7.618   2.061   5.936
 3002TIP3    H1 8951   7.705   2.096   5.917
 3002TIP3    H2 8952   7.633   1.995   6.004
 3003TIP3   OH2 8953   6.275   6.941   1.240
 3003TIP3    H1 8954   6.284   6.998   1.317
 3003TIP3    H2 8955   6.182   6.920   1.236
 3004TIP3   OH2 8956   7.697   0.949   0.991
 3004TIP3    H1 8957   7.723   0.968   0.901
 3004TIP3    H2 8958   7.729   1.024   1.042
 3005TIP3   OH2 8959   5.893   0.299   0.664
 3005TIP3    H1 8960   5.910   0.220   0.612
 3005TIP3    H2 8961   5.815   0.337   0.625
 3006TIP3   OH2 8962   5.840   7.071   2.521
 3006TIP3    H1 8963   5.928   7.042   2.547
 3006TIP3    H2 8964   5.835   7.162   2.551
 3007TIP3   OH2 8965   5.675   5.874   1.460
 3007TIP3    H1 8966   5.695   5.961   1.495
 3007TIP3    H2 8967   5.615   5.891   1.387
 3008TIP3   OH2 8968   2.638   1.454   0.704
 3008TIP3    H1 8969   2.720   1.491   0.737
 3008TIP3    H2 8970   2.570   1.509   0.743
 3009TIP3   OH2 8971   4.022   5.143   4.828
 3009TIP3    H1 8972   3.929   5.123   4.819
 3009TIP3    H2 8973   4.024   5.235   4.855
 3010TIP3   OH2 8974   7.044   1.904   3.921
 3010TIP3    H1 8975   7.091   1.910   4.005
 3010TIP3    H2 8976   7.094   1.958   3.861
 3011TIP3   OH2 8977   0.915   0.703   4.771
 3011TIP3    H1 8978   0.932   0.675   4.861
 3011TIP3    H2 8979   0.820   0.715   4.767
 3012TIP3   OH2 8980   6.055   5.646   3.171
 3012TIP3    H1 8981   6.096   5.732   3.178
 3012TIP3    H2 8982   5.963   5.664   3.151
 3013TIP3   OH2 8983   1.276   1.702   2.425
 3013TIP3    H1 8984   1.287   1.687   2.332
 3013TIP3    H2 8985   1.262   1.797   2.432
 3014TIP3   OH2 8986   0.940   1.257   2.741
 3014TIP3    H1 8987   0.871   1.318   2.714
 3014TIP3    H2 8988   1.021   1.296   2.705
 3015TIP3   OH2 8989   5.713   2.125   3.100
 3015TIP3    H1 8990   5.725   2.176   3.020
 3015TIP3    H2 8991   5.665   2.183   3.159
 3016TIP3   OH2 8992   7.739   5.143   0.237
 3016TIP3    H1 8993   7.774   5.171   0.152
 3016TIP3    H2 8994   7.670   5.081   0.215
 3017TIP3   OH2 8995   2.573   5.155   5.098
 3017TIP3    H1 8996   2.655   5.117   5.067
 3017TIP3    H2 8997   2.571   5.136   5.192
 3018TIP3   OH2 8998   6.084   4.638   0.458
 3018TIP3    H1 8999   6.015   4.602   0.401
 3018TIP3    H2 9000   6.046   4.719   0.493
 3019TIP3   OH2 9001   5.029  -0.035   4.891
 3019TIP3    H1 9002   5.007   0.053   4.862
 3019TIP3    H2 9003   5.125  -0.037   4.892
 3020TIP3   OH2 9004   3.189   2.010   3.196
 3020TIP3    H1 9005   3.202   1.929   3.147
 3020TIP3    H2 9006   3.278   2.041   3.215
 3021TIP3   OH2 9007   8.107   4.922   1.550
 3021TIP3    H1 9008   8.167   4.944   1.621
 3021TIP3    H2 9009   8.149   4.851   1.502
 3022TIP3   OH2 9010   7.315   6.934   2.215
 3022TIP3    H1 9011   7.335   7.020   2.251
 3022TIP3    H2 9012   7.400   6.891   2.206
 3023TIP3   OH2 9013   2.855   3.238   5.179
 3023TIP3    H1 9014   2.814   3.323   5.164
 3023TIP3    H2 9015   2.870   3.203   5.092
 3024TIP3   OH2 9016   2.347  -0.018   4.150
 3024TIP3    H1 9017   2.316  -0.025   4.240
 3024TIP3    H2 9018   2.423   0.040   4.155
 3025TIP3   OH2 9019   4.510   2.189   5.667
 3025TIP3    H1 9020   4.495   2.257   5.732
 3025TIP3    H2 9021   4.605   2.175   5.667
 3026TIP3   OH2 9022   5.974   5.016   2.117
 3026TIP3    H1 9023   6.043   5.071   2.154
 3026TIP3    H2 9024   5.904   5.077   2.096
 3027TIP3   OH2 9025   0.472   0.771   0.775
 3027TIP3    H1 9026   0.558   0.809   0.758
 3027TIP3    H2 9027   0.410   0.835   0.738
 3028TIP3   OH2 9028   3.944   4.584   5.944
 3028TIP3    H1 9029   3.917   4.495   5.919
 3028TIP3    H2 9030   3.862   4.631   5.957
 3029TIP3   OH2 9031   6.288   2.788   6.106
 3029TIP3    H1 9032   6.301   2.694   6.111
 3029TIP3    H2 9033   6.271   2.806   6.014
 3030TIP3   OH2 9034   4.580   2.967   2.228
 3030TIP3    H1 9035   4.664   2.997   2.191
 3030TIP3    H2 9036   4.600   2.946   2.319
 3031TIP3   OH2 9037   4.993   1.139   3.017
 3031TIP3    H1 9038   4.982   1.222   2.969
 3031TIP3    H2 9039   4.964   1.072   2.955
 3032TIP3   OH2 9040   0.461   5.367   5.420
 3032TIP3    H1 9041   0.413   5.294   5.382
 3032TIP3    H2 9042   0.522   5.327   5.481
 3033TIP3   OH2 9043   4.220   4.209   4.463
 3033TIP3    H1 9044   4.241   4.149   4.391
 3033TIP3    H2 9045   4.171   4.280   4.420
 3034TIP3   OH2 9046   2.025   7.500   4.327
 3034TIP3    H1 9047   2.068   7.474   4.245
 3034TIP3    H2 9048   1.968   7.427   4.349
 3035TIP3   OH2 9049   5.777   2.123   5.184
 3035TIP3    H1 9050   5.738   2.189   5.241
 3035TIP3    H2 9051   5.798   2.170   5.104
 3036TIP3   OH2 9052   4.148   0.050   2.298
 3036TIP3    H1 9053   4.141  -0.043   2.321
 3036TIP3    H2 9054   4.109   0.096   2.372
 3037TIP3   OH2 9055   1.865   5.824   6.659
 3037TIP3    H1 9056   1.846   5.770   6.582
 3037TIP3    H2 9057   1.829   5.910   6.638
 3038TIP3   OH2 9058   4.450   6.610   6.761
 3038TIP3    H1 9059   4.391   6.671   6.715
 3038TIP3    H2 9060   4.413   6.523   6.743
 3039TIP3   OH2 9061   2.028   0.917   2.948
 3039TIP3    H1 9062   2.074   1.001   2.951
 3039TIP3    H2 9063   2.095   0.852   2.966
 3040TIP3   OH2 9064   7.608   2.649   4.984
 3040TIP3    H1 9065   7.547   2.628   4.914
 3040TIP3    H2 9066   7.690   2.607   4.958
 3041TIP3   OH2 9067   4.451   4.148   1.074
 3041TIP3    H1 9068   4.449   4.186   0.986
 3041TIP3    H2 9069   4.366   4.105   1.083
 3042TIP3   OH2 9070   2.758   4.383   3.422
 3042TIP3    H1 9071   2.724   4.346   3.341
 3042TIP3    H2 9072   2.788   4.471   3.398
 3043TIP3   OH2 9073   6.081   4.897   3.125
 3043TIP3    H1 9074   6.137   4.968   3.158
 3043TIP3    H2 9075   6.136   4.819   3.130
 3044TIP3   OH2 9076   0.654   0.506   0.847
 3044TIP3    H1 9077   0.699   0.572   0.899
 3044TIP3    H2 9078   0.564   0.506   0.880
 3045TIP3   OH2 9079   0.939   5.705   1.586
 3045TIP3    H1 9080   0.991   5.659   1.652
 3045TIP3    H2 9081   0.986   5.688   1.504
 3046TIP3   OH2 9082   0.245   4.092   0.800
 3046TIP3    H1 9083   0.166   4.140   0.776
 3046TIP3    H2 9084   0.271   4.131   0.884
 3047TIP3   OH2 9085   6.263   3.453   2.700
 3047TIP3    H1 9086   6.346   3.490   2.727
 3047TIP3    H2 9087   6.214   3.441   2.781
 3048TIP3   OH2 9088   1.076   3.750   4.005
 3048TIP3    H1 9089   1.064   3.834   3.961
 3048TIP3    H2 9090   0.987   3.723   4.028
 3049TIP3   OH2 9091   3.564   1.364   4.617
 3049TIP3    H1 9092   3.606   1.423   4.680
 3049TIP3    H2 9093   3.636   1.334   4.561
 3050TIP3   OH2 9094   1.629   6.616   4.847
 3050TIP3    H1 9095   1.650   6.607   4.754
 3050TIP3    H2 9096   1.620   6.711   4.860
 3051TIP3   OH2 9097   2.613   4.844   3.488
 3051TIP3    H1 9098   2.539   4.879   3.439
 3051TIP3    H2 9099   2.690   4.883   3.448
 3052TIP3   OH2 9100   4.679   2.169   3.762
 3052TIP3    H1 9101   4.647   2.112   3.692
 3052TIP3    H2 9102   4.757   2.124   3.796
 3053TIP3   OH2 9103   2.518   1.183   6.373
 3053TIP3    H1 9104   2.535   1.192   6.279
 3053TIP3    H2 9105   2.525   1.272   6.407
 3054TIP3   OH2 9106   7.175   5.366   5.083
 3054TIP3    H1 9107   7.082   5.382   5.098
 3054TIP3    H2 9108   7.184   5.271   5.082
 3055TIP3   OH2 9109   3.162   2.307   4.884
 3055TIP3    H1 9110   3.174   2.355   4.803
 3055TIP3    H2 9111   3.135   2.219   4.857
 3056TIP3   OH2 9112   0.001   3.911   6.593
 3056TIP3    H1 9113   0.021   3.842   6.656
 3056TIP3    H2 9114   0.025   3.992   6.638
 3057TIP3   OH2 9115   5.306   4.767   4.175
 3057TIP3    H1 9116   5.336   4.809   4.094
 3057TIP3    H2 9117   5.270   4.683   4.146
 3058TIP3   OH2 9118   7.586   6.431   2.709
 3058TIP3    H1 9119   7.647   6.372   2.665
 3058TIP3    H2 9120   7.639   6.508   2.731
 3059TIP3   OH2 9121   4.070   3.328   6.308
 3059TIP3    H1 9122   4.120   3.266   6.362
 3059TIP3    H2 9123   4.041   3.395   6.370
 3060TIP3   OH2 9124   5.825   7.399   0.447
 3060TIP3    H1 9125   5.819   7.328   0.383
 3060TIP3    H2 9126   5.747   7.388   0.502
 3061TIP3   OH2 9127   4.054   5.735   0.525
 3061TIP3    H1 9128   4.098   5.690   0.453
 3061TIP3    H2 9129   3.978   5.681   0.544
 3062TIP3   OH2 9130   4.376   6.049   6.025
 3062TIP3    H1 9131   4.350   5.997   6.102
 3062TIP3    H2 9132   4.330   6.008   5.952
 3063TIP3   OH2 9133   7.185   2.727   5.367
 3063TIP3    H1 9134   7.218   2.663   5.304
 3063TIP3    H2 9135   7.181   2.809   5.318
 3064TIP3   OH2 9136   5.794   3.903   1.248
 3064TIP3    H1 9137   5.730   3.876   1.181
 3064TIP3    H2 9138   5.865   3.840   1.240
 3065TIP3   OH2 9139   8.255   1.310   1.089
 3065TIP3    H1 9140   8.269   1.348   1.176
 3065TIP3    H2 9141   8.202   1.376   1.043
 3066TIP3   OH2 9142   3.654   7.103   3.213
 3066TIP3    H1 9143   3.731   7.111   3.268
 3066TIP3    H2 9144   3.686   7.115   3.124
 3067TIP3   OH2 9145   4.781   3.632   1.313
 3067TIP3    H1 9146   4.859   3.633   1.258
 3067TIP3    H2 9147   4.734   3.712   1.292
 3068TIP3   OH2 9148   7.757   7.506   0.558
 3068TIP3    H1 9149   7.780   7.416   0.535
 3068TIP3    H2 9150   7.817   7.529   0.629
 3069TIP3   OH2 9151   5.642   2.077   1.384
 3069TIP3    H1 9152   5.732   2.098   1.408
 3069TIP3    H2 9153   5.649   2.003   1.324
 3070TIP3   OH2 9154   4.001   1.557   6.160
 3070TIP3    H1 9155   4.032   1.479   6.204
 3070TIP3    H2 9156   4.034   1.550   6.071
 3071TIP3   OH2 9157   1.304   1.323   2.076
 3071TIP3    H1 9158   1.314   1.368   2.160
 3071TIP3    H2 9159   1.263   1.239   2.098
 3072TIP3   OH2 9160   3.926   3.551   4.308
 3072TIP3    H1 9161   3.864   3.624   4.309
 3072TIP3    H2 9162   3.876   3.476   4.339
 3073TIP3   OH2 9163   7.199   1.966   1.529
 3073TIP3    H1 9164   7.231   2.034   1.588
 3073TIP3    H2 9165   7.140   2.011   1.469
 3074TIP3   OH2 9166   4.249   3.239   6.508
 3074TIP3    H1 9167   4.337   3.274   6.522
 3074TIP3    H2 9168   4.264   3.153   6.468
 3075TIP3   OH2 9169   2.114   5.812   6.774
 3075TIP3    H1 9170   2.035   5.782   6.729
 3075TIP3    H2 9171   2.152   5.876   6.715
 3076TIP3   OH2 9172   5.755   0.544   0.873
 3076TIP3    H1 9173   5.731   0.512   0.786
 3076TIP3    H2 9174   5.671   0.567   0.914
 3077TIP3   OH2 9175   6.791   0.582   0.998
 3077TIP3    H1 9176   6.798   0.593   0.903
 3077TIP3    H2 9177   6.697   0.566   1.013
 3078TIP3   OH2 9178   3.692   4.433   4.126
 3078TIP3    H1 9179   3.788   4.429   4.134
 3078TIP3    H2 9180   3.677   4.483   4.046
 3079TIP3   OH2 9181   4.924   6.886   2.791
 3079TIP3    H1 9182   4.925   6.944   2.867
 3079TIP3    H2 9183   4.831   6.876   2.771
 3080TIP3   OH2 9184   1.134   4.223   5.740
 3080TIP3    H1 9185   1.065   4.273   5.784
 3080TIP3    H2 9186   1.114   4.230   5.647
 3081TIP3   OH2 9187   2.239   3.096   0.776
 3081TIP3    H1 9188   2.181   3.046   0.719
 3081TIP3    H2 9189   2.262   3.174   0.725
 3082TIP3   OH2 9190   5.626   6.885   3.874
 3082TIP3    H1 9191   5.647   6.820   3.941
 3082TIP3    H2 9192   5.532   6.900   3.883
 3083TIP3   OH2 9193   5.950   0.340   1.859
 3083TIP3    H1 9194   5.980   0.254   1.889
 3083TIP3    H2 9195   5.960   0.338   1.764
 3084TIP3   OH2 9196   0.195   7.321   1.505
 3084TIP3    H1 9197   0.213   7.375   1.581
 3084TIP3    H2 9198   0.116   7.359   1.466
 3085TIP3   OH2 9199   6.575   2.523   3.054
 3085TIP3    H1 9200   6.568   2.431   3.080
 3085TIP3    H2 9201   6.496   2.539   3.003
 3086TIP3   OH2 9202   7.959   3.063   6.687
 3086TIP3    H1 9203   7.970   3.022   6.601
 3086TIP3    H2 9204   8.049   3.080   6.716
 3087TIP3   OH2 9205   2.991   5.864   4.680
 3087TIP3    H1 9206   3.064   5.863   4.619
 3087TIP3    H2 9207   2.928   5.925   4.641
 3088TIP3   OH2 9208   7.860   4.169   1.180
 3088TIP3    H1 9209   7.828   4.118   1.255
 3088TIP3    H2 9210   7.781   4.189   1.130
 3089TIP3   OH2 9211   7.208   7.471   0.736
 3089TIP3    H1 9212   7.223   7.433   0.649
 3089TIP3    H2 9213   7.143   7.414   0.776
 3090TIP3   OH2 9214   2.322   3.489   5.918
 3090TIP3    H1 9215   2.326   3.584   5.922
 3090TIP3    H2 9216   2.246   3.466   5.972
 3091TIP3   OH2 9217   1.279   5.480   6.384
 3091TIP3    H1 9218   1.205   5.490   6.444
 3091TIP3    H2 9219   1.286   5.385   6.370
 3092TIP3   OH2 9220   0.355   2.310   4.447
 3092TIP3    H1 9221   0.308   2.322   4.529
 3092TIP3    H2 9222   0.290   2.326   4.379
 3093TIP3   OH2 9223   6.947   1.053   1.020
 3093TIP3    H1 9224   6.989   1.131   1.056
 3093TIP3    H2 9225   6.943   1.069   0.926
 3094TIP3   OH2 9226   5.681   1.217   2.778
 3094TIP3    H1 9227   5.631   1.275   2.720
 3094TIP3    H2 9228   5.621   1.145   2.798
 3095TIP3   OH2 9229   2.643   7.110   4.280
 3095TIP3    H1 9230   2.618   7.181   4.339
 3095TIP3    H2 9231   2.735   7.094   4.300
 3096TIP3   OH2 9232   7.348   6.977   1.756
 3096TIP3    H1 9233   7.408   7.043   1.722
 3096TIP3    H2 9234   7.325   6.923   1.680
 3097TIP3   OH2 9235   0.578   2.758   4.924
 3097TIP3    H1 9236   0.629   2.825   4.878
 3097TIP3    H2 9237   0.565   2.689   4.859
 3098TIP3   OH2 9238   1.979   6.907   3.256
 3098TIP3    H1 9239   1.982   6.812   3.259
 3098TIP3    H2 9240   2.017   6.935   3.339
 3099TIP3   OH2 9241   6.575   1.595   5.287
 3099TIP3    H1 9242   6.599   1.508   5.254
 3099TIP3    H2 9243   6.584   1.652   5.210
 3100TIP3   OH2 9244   2.714   7.493   3.169
 3100TIP3    H1 9245   2.786   7.556   3.169
 3100TIP3    H2 9246   2.756   7.408   3.163
 3101TIP3   OH2 9247   7.778   7.459   6.694
 3101TIP3    H1 9248   7.715   7.493   6.630
 3101TIP3    H2 9249   7.752   7.500   6.777
 3102TIP3   OH2 9250   8.016   6.697   2.945
 3102TIP3    H1 9251   7.990   6.723   3.033
 3102TIP3    H2 9252   8.075   6.622   2.958
 3103TIP3   OH2 9253   7.165   4.916   1.723
 3103TIP3    H1 9254   7.256   4.919   1.752
 3103TIP3    H2 9255   7.170   4.925   1.628
 3104TIP3   OH2 9256   5.983   3.992   4.281
 3104TIP3    H1 9257   5.985   4.033   4.367
 3104TIP3    H2 9258   6.006   3.901   4.297
 3105TIP3   OH2 9259   0.296   5.161   5.370
 3105TIP3    H1 9260   0.233   5.221   5.410
 3105TIP3    H2 9261   0.267   5.074   5.398
 3106TIP3   OH2 9262   0.391   1.848   0.822
 3106TIP3    H1 9263   0.307   1.889   0.843
 3106TIP3    H2 9264   0.378   1.809   0.736
 3107TIP3   OH2 9265   7.448   1.288   0.946
 3107TIP3    H1 9266   7.415   1.199   0.956
 3107TIP3    H2 9267   7.536   1.277   0.908
 3108TIP3   OH2 9268   8.051   4.079   0.109
 3108TIP3    H1 9269   7.982   4.138   0.078
 3108TIP3    H2 9270   8.026   3.993   0.076
 3109TIP3   OH2 9271   6.053   7.385   2.190
 3109TIP3    H1 9272   5.971   7.431   2.210
 3109TIP3    H2 9273   6.121   7.441   2.227
 3110TIP3   OH2 9274   4.093   7.654   2.706
 3110TIP3    H1 9275   4.054   7.665   2.620
 3110TIP3    H2 9276   4.129   7.565   2.705
 3111TIP3   OH2 9277   4.408   1.102   2.931
 3111TIP3    H1 9278   4.398   1.062   3.017
 3111TIP3    H2 9279   4.496   1.140   2.932
 3112TIP3   OH2 9280   7.077   3.441   0.293
 3112TIP3    H1 9281   7.123   3.454   0.376
 3112TIP3    H2 9282   7.108   3.356   0.261
 3113TIP3   OH2 9283   3.617   4.467   2.999
 3113TIP3    H1 9284   3.529   4.454   2.963
 3113TIP3    H2 9285   3.675   4.458   2.924
 3114TIP3   OH2 9286   5.554   4.784   0.131
 3114TIP3    H1 9287   5.465   4.780   0.166
 3114TIP3    H2 9288   5.596   4.855   0.179
 3115TIP3   OH2 9289   0.448   3.898   0.291
 3115TIP3    H1 9290   0.361   3.868   0.267
 3115TIP3    H2 9291   0.505   3.865   0.221
 3116TIP3   OH2 9292   1.596   7.555   3.529
 3116TIP3    H1 9293   1.663   7.503   3.573
 3116TIP3    H2 9294   1.606   7.643   3.566
 3117TIP3   OH2 9295   4.541   6.283   0.291
 3117TIP3    H1 9296   4.459   6.332   0.288
 3117TIP3    H2 9297   4.584   6.315   0.371
 3118TIP3   OH2 9298   6.745   4.150   6.123
 3118TIP3    H1 9299   6.768   4.147   6.030
 3118TIP3    H2 9300   6.803   4.217   6.159
 3119TIP3   OH2 9301   5.566   7.368   3.719
 3119TIP3    H1 9302   5.633   7.375   3.652
 3119TIP3    H2 9303   5.591   7.431   3.786
 3120TIP3   OH2 9304   5.151   4.299   2.255
 3120TIP3    H1 9305   5.121   4.263   2.171
 3120TIP3    H2 9306   5.080   4.358   2.282
 3121TIP3   OH2 9307   5.678   2.966   4.376
 3121TIP3    H1 9308   5.708   3.049   4.340
 3121TIP3    H2 9309   5.674   2.981   4.470
 3122TIP3   OH2 9310   0.924   3.536   2.449
 3122TIP3    H1 9311   0.908   3.519   2.542
 3122TIP3    H2 9312   0.845   3.582   2.419
 3123TIP3   OH2 9313   1.525   6.868   0.380
 3123TIP3    H1 9314   1.513   6.912   0.295
 3123TIP3    H2 9315   1.480   6.784   0.370
 3124TIP3   OH2 9316   0.008   3.792   6.325
 3124TIP3    H1 9317   0.095   3.775   6.361
 3124TIP3    H2 9318  -0.026   3.865   6.377
 3125TIP3   OH2 9319   3.579   6.864   3.347
 3125TIP3    H1 9320   3.596   6.947   3.301
 3125TIP3    H2 9321   3.578   6.889   3.440
 3126TIP3   OH2 9322   2.574   0.585   0.188
 3126TIP3    H1 9323   2.487   0.549   0.170
 3126TIP3    H2 9324   2.615   0.521   0.247
 3127TIP3   OH2 9325   5.938   7.275   4.509
 3127TIP3    H1 9326   5.957   7.333   4.435
 3127TIP3    H2 9327   5.943   7.332   4.586
 3128TIP3   OH2 9328   5.292   6.681   4.363
 3128TIP3    H1 9329   5.320   6.598   4.324
 3128TIP3    H2 9330   5.357   6.744   4.334
 3129TIP3   OH2 9331   5.143   5.973   3.549
 3129TIP3    H1 9332   5.219   5.995   3.496
 3129TIP3    H2 9333   5.160   5.884   3.581
 3130TIP3   OH2 9334   7.415   5.379   1.655
 3130TIP3    H1 9335   7.405   5.366   1.749
 3130TIP3    H2 9336   7.489   5.323   1.631
 3131TIP3   OH2 9337   0.119   6.585   0.982
 3131TIP3    H1 9338   0.118   6.527   1.059
 3131TIP3    H2 9339   0.050   6.551   0.926
 3132TIP3   OH2 9340   7.636   3.710   5.677
 3132TIP3    H1 9341   7.582   3.723   5.754
 3132TIP3    H2 9342   7.582   3.657   5.618
 3133TIP3   OH2 9343   0.942   4.558   0.082
 3133TIP3    H1 9344   0.977   4.473   0.055
 3133TIP3    H2 9345   0.999   4.622   0.041
 3134TIP3   OH2 9346   4.114   7.091   2.777
 3134TIP3    H1 9347   4.204   7.061   2.794
 3134TIP3    H2 9348   4.059   7.027   2.822
 3135TIP3   OH2 9349   2.867   6.883   5.252
 3135TIP3    H1 9350   2.878   6.975   5.228
 3135TIP3    H2 9351   2.773   6.867   5.246
 3136TIP3   OH2 9352   6.189   2.015   2.152
 3136TIP3    H1 9353   6.127   2.080   2.187
 3136TIP3    H2 9354   6.142   1.932   2.155
 3137TIP3   OH2 9355   3.452   5.193   3.604
 3137TIP3    H1 9356   3.449   5.189   3.700
 3137TIP3    H2 9357   3.393   5.266   3.582
 3138TIP3   OH2 9358   2.554   0.695   1.878
 3138TIP3    H1 9359   2.458   0.688   1.881
 3138TIP3    H2 9360   2.573   0.779   1.921
 3139TIP3   OH2 9361   0.591   3.189   2.905
 3139TIP3    H1 9362   0.543   3.206   2.986
 3139TIP3    H2 9363   0.682   3.179   2.933
 3140TIP3   OH2 9364   2.714   1.138   1.677
 3140TIP3    H1 9365   2.783   1.195   1.643
 3140TIP3    H2 9366   2.636   1.193   1.679
 3141TIP3   OH2 9367   0.019   5.343   3.716
 3141TIP3    H1 9368  -0.062   5.333   3.765
 3141TIP3    H2 9369   0.059   5.256   3.717
 3142TIP3   OH2 9370   4.006   7.815   5.647
 3142TIP3    H1 9371   3.929   7.769   5.611
 3142TIP3    H2 9372   4.002   7.902   5.607
 3143TIP3   OH2 9373   1.961   0.301   0.809
 3143TIP3    H1 9374   1.989   0.365   0.744
 3143TIP3    H2 9375   2.026   0.231   0.803
 3144TIP3   OH2 9376   6.553   2.600   1.000
 3144TIP3    H1 9377   6.573   2.630   0.911
 3144TIP3    H2 9378   6.617   2.645   1.055
 3145TIP3   OH2 9379   5.004   3.095   1.315
 3145TIP3    H1 9380   5.041   3.007   1.306
 3145TIP3    H2 9381   5.015   3.134   1.229
 3146TIP3   OH2 9382   7.874   6.879   1.632
 3146TIP3    H1 9383   7.911   6.814   1.692
 3146TIP3    H2 9384   7.784   6.850   1.617
 3147TIP3   OH2 9385   2.121   4.868   4.545
 3147TIP3    H1 9386   2.210   4.898   4.559
 3147TIP3    H2 9387   2.126   4.812   4.468
 3148TIP3   OH2 9388   5.848   3.478   0.709
 3148TIP3    H1 9389   5.783   3.545   0.732
 3148TIP3    H2 9390   5.895   3.462   0.791
 3149TIP3   OH2 9391   1.116   6.582   2.187
 3149TIP3    H1 9392   1.162   6.599   2.269
 3149TIP3    H2 9393   1.175   6.524   2.138
 3150TIP3   OH2 9394   4.574   6.872   1.172
 3150TIP3    H1 9395   4.486   6.838   1.185
 3150TIP3    H2 9396   4.564   6.941   1.106
 3151TIP3   OH2 9397   6.048   6.174   0.915
 3151TIP3    H1 9398   6.122   6.216   0.959
 3151TIP3    H2 9399   5.981   6.167   0.984
 3152TIP3   OH2 9400   3.207   4.295   5.143
 3152TIP3    H1 9401   3.144   4.367   5.140
 3152TIP3    H2 9402   3.240   4.288   5.053
 3153TIP3   OH2 9403   6.812   6.209   5.665
 3153TIP3    H1 9404   6.744   6.248   5.719
 3153TIP3    H2 9405   6.890   6.208   5.720
 3154TIP3   OH2 9406   5.262   3.487   3.758
 3154TIP3    H1 9407   5.167   3.475   3.767
 3154TIP3    H2 9408   5.287   3.540   3.834
 3155TIP3   OH2 9409   0.166   5.965   6.711
 3155TIP3    H1 9410   0.161   5.956   6.615
 3155TIP3    H2 9411   0.109   6.040   6.731
 3156TIP3   OH2 9412   1.289   1.537   6.530
 3156TIP3    H1 9413   1.376   1.567   6.557
 3156TIP3    H2 9414   1.230   1.606   6.559
 3157TIP3   OH2 9415   7.268   2.167   3.960
 3157TIP3    H1 9416   7.174   2.170   3.947
 3157TIP3    H2 9417   7.284   2.228   4.033
 3158TIP3   OH2 9418   2.329   0.807   5.845
 3158TIP3    H1 9419   2.422   0.799   5.867
 3158TIP3    H2 9420   2.285   0.749   5.907
 3159TIP3   OH2 9421   1.714   6.681   3.453
 3159TIP3    H1 9422   1.727   6.586   3.450
 3159TIP3    H2 9423   1.797   6.715   3.488
 3160TIP3   OH2 9424   2.177   3.020   0.057
 3160TIP3    H1 9425   2.211   3.101   0.018
 3160TIP3    H2 9426   2.179   2.956  -0.015
 3161TIP3   OH2 9427   3.696   6.353   5.403
 3161TIP3    H1 9428   3.776   6.405   5.397
 3161TIP3    H2 9429   3.721   6.265   5.375
 3162TIP3   OH2 9430   2.208   2.372   1.419
 3162TIP3    H1 9431   2.224   2.345   1.329
 3162TIP3    H2 9432   2.290   2.356   1.465
 3163TIP3   OH2 9433   7.184   6.281   2.772
 3163TIP3    H1 9434   7.130   6.229   2.831
 3163TIP3    H2 9435   7.190   6.229   2.692
 3164TIP3   OH2 9436   2.485   5.877   1.055
 3164TIP3    H1 9437   2.574   5.847   1.035
 3164TIP3    H2 9438   2.474   5.859   1.148
 3165TIP3   OH2 9439   4.908   1.526   4.657
 3165TIP3    H1 9440   4.846   1.466   4.698
 3165TIP3    H2 9441   4.920   1.492   4.568
 3166TIP3   OH2 9442   5.492   2.803   1.448
 3166TIP3    H1 9443   5.578   2.845   1.444
 3166TIP3    H2 9444   5.433   2.867   1.408
 3167TIP3   OH2 9445   2.015   7.770   5.092
 3167TIP3    H1 9446   2.074   7.812   5.029
 3167TIP3    H2 9447   1.951   7.837   5.113
 3168TIP3   OH2 9448   3.484   5.903   2.440
 3168TIP3    H1 9449   3.412   5.845   2.467
 3168TIP3    H2 9450   3.443   5.967   2.382
 3169TIP3   OH2 9451   6.420   6.313   3.804
 3169TIP3    H1 9452   6.449   6.273   3.886
 3169TIP3    H2 9453   6.350   6.373   3.830
 3170TIP3   OH2 9454   2.454   1.345   0.956
 3170TIP3    H1 9455   2.507   1.297   0.892
 3170TIP3    H2 9456   2.466   1.298   1.038
 3171TIP3   OH2 9457   2.648   3.276   3.666
 3171TIP3    H1 9458   2.616   3.186   3.671
 3171TIP3    H2 9459   2.594   3.325   3.728
 3172TIP3   OH2 9460   8.108   5.757   6.047
 3172TIP3    H1 9461   8.023   5.753   6.002
 3172TIP3    H2 9462   8.151   5.675   6.023
 3173TIP3   OH2 9463   2.147   1.777   0.220
 3173TIP3    H1 9464   2.213   1.708   0.225
 3173TIP3    H2 9465   2.185   1.850   0.270
 3174TIP3   OH2 9466   0.900   6.505   5.783
 3174TIP3    H1 9467   0.879   6.413   5.803
 3174TIP3    H2 9468   0.946   6.536   5.862
 3175TIP3   OH2 9469   2.426   6.229   0.134
 3175TIP3    H1 9470   2.370   6.265   0.202
 3175TIP3    H2 9471   2.396   6.138   0.124
 3176TIP3   OH2 9472   1.642   2.645   3.022
 3176TIP3    H1 9473   1.710   2.707   3.048
 3176TIP3    H2 9474   1.591   2.631   3.102
 3177TIP3   OH2 9475   0.649   2.673   6.279
 3177TIP3    H1 9476   0.619   2.609   6.344
 3177TIP3    H2 9477   0.602   2.649   6.199
 3178TIP3   OH2 9478   3.119   5.901   2.304
 3178TIP3    H1 9479   3.177   5.843   2.253
 3178TIP3    H2 9480   3.142   5.883   2.395
 3179TIP3   OH2 9481   6.486   0.278   2.521
 3179TIP3    H1 9482   6.473   0.183   2.518
 3179TIP3    H2 9483   6.536   0.292   2.601
 3180TIP3   OH2 9484   8.006   5.697   4.340
 3180TIP3    H1 9485   8.080   5.733   4.390
 3180TIP3    H2 9486   7.934   5.758   4.356
 3181TIP3   OH2 9487   2.750   6.315   3.349
 3181TIP3    H1 9488   2.767   6.385   3.286
 3181TIP3    H2 9489   2.777   6.352   3.433
 3182TIP3   OH2 9490   8.015   7.248   6.709
 3182TIP3    H1 9491   8.001   7.333   6.749
 3182TIP3    H2 9492   7.930   7.205   6.714
 3183TIP3   OH2 9493   1.174   1.860   3.802
 3183TIP3    H1 9494   1.110   1.790   3.789
 3183TIP3    H2 9495   1.258   1.821   3.776
 3184TIP3   OH2 9496   2.481   3.783   2.780
 3184TIP3    H1 9497   2.542   3.712   2.798
 3184TIP3    H2 9498   2.464   3.777   2.686
 3185TIP3   OH2 9499   7.426   2.460   5.636
 3185TIP3    H1 9500   7.358   2.416   5.687
 3185TIP3    H2 9501   7.388   2.544   5.612
 3186TIP3   OH2 9502   0.742   6.808   0.592
 3186TIP3    H1 9503   0.814   6.776   0.538
 3186TIP3    H2 9504   0.664   6.793   0.540
 3187TIP3   OH2 9505   2.104   5.708   0.375
 3187TIP3    H1 9506   2.180   5.709   0.317
 3187TIP3    H2 9507   2.141   5.689   0.461
 3188TIP3   OH2 9508   4.410   0.400   0.057
 3188TIP3    H1 9509   4.395   0.306   0.047
 3188TIP3    H2 9510   4.322   0.438   0.059
 3189TIP3   OH2 9511   2.243   2.813   3.441
 3189TIP3    H1 9512   2.319   2.771   3.481
 3189TIP3    H2 9513   2.276   2.898   3.411
 3190TIP3   OH2 9514   6.681   5.148   2.579
 3190TIP3    H1 9515   6.626   5.152   2.657
 3190TIP3    H2 9516   6.757   5.202   2.601
 3191TIP3   OH2 9517   6.988   1.852   3.035
 3191TIP3    H1 9518   7.082   1.870   3.043
 3191TIP3    H2 9519   6.947   1.903   3.105
 3192TIP3   OH2 9520   2.056   2.267   3.021
 3192TIP3    H1 9521   2.123   2.200   3.035
 3192TIP3    H2 9522   2.098   2.349   3.048
 3193TIP3   OH2 9523   3.573   2.275   0.524
 3193TIP3    H1 9524   3.602   2.265   0.433
 3193TIP3    H2 9525   3.653   2.296   0.573
 3194TIP3   OH2 9526   2.400   3.615   4.268
 3194TIP3    H1 9527   2.481   3.629   4.220
 3194TIP3    H2 9528   2.361   3.537   4.228
 3195TIP3   OH2 9529   0.503   2.591   6.043
 3195TIP3    H1 9530   0.586   2.575   5.999
 3195TIP3    H2 9531   0.446   2.520   6.014
 3196TIP3   OH2 9532   7.445   5.373   2.115
 3196TIP3    H1 9533   7.537   5.346   2.121
 3196TIP3    H2 9534   7.413   5.329   2.036
 3197TIP3   OH2 9535   7.387   5.618   1.998
 3197TIP3    H1 9536   7.441   5.554   2.045
 3197TIP3    H2 9537   7.445   5.693   1.985
 3198TIP3   OH2 9538   7.594   5.178   1.587
 3198TIP3    H1 9539   7.641   5.111   1.636
 3198TIP3    H2 9540   7.661   5.221   1.534
 3199TIP3   OH2 9541   7.337   1.349   5.101
 3199TIP3    H1 9542   7.366   1.408   5.031
 3199TIP3    H2 9543   7.293   1.277   5.056
 3200TIP3   OH2 9544   1.183   4.977   3.644
 3200TIP3    H1 9545   1.136   4.994   3.562
 3200TIP3    H2 9546   1.240   5.053   3.655
 3201TIP3   OH2 9547   2.069   6.128   3.733
 3201TIP3    H1 9548   2.128   6.053   3.743
 3201TIP3    H2 9549   2.002   6.114   3.800
 3202TIP3   OH2 9550   3.987   7.023   2.483
 3202TIP3    H1 9551   4.025   7.108   2.460
 3202TIP3    H2 9552   3.959   7.033   2.574
 3203TIP3   OH2 9553   5.610   2.387   3.492
 3203TIP3    H1 9554   5.630   2.337   3.572
 3203TIP3    H2 9555   5.683   2.449   3.484
 3204TIP3   OH2 9556   0.895   4.708   2.718
 3204TIP3    H1 9557   0.945   4.787   2.738
 3204TIP3    H2 9558   0.824   4.738   2.661
 3205TIP3   OH2 9559   7.347   2.302   4.345
 3205TIP3    H1 9560   7.307   2.329   4.262
 3205TIP3    H2 9561   7.295   2.347   4.411
 3206TIP3   OH2 9562   0.566   5.319   0.851
 3206TIP3    H1 9563   0.588   5.335   0.943
 3206TIP3    H2 9564   0.500   5.249   0.854
 3207TIP3   OH2 9565   5.126   7.092   0.823
 3207TIP3    H1 9566   5.105   7.039   0.900
 3207TIP3    H2 9567   5.045   7.092   0.771
 3208TIP3   OH2 9568   2.820   2.108   3.015
 3208TIP3    H1 9569   2.798   2.135   2.926
 3208TIP3    H2 9570   2.904   2.149   3.033
 3209TIP3   OH2 9571   0.143   4.687   3.752
 3209TIP3    H1 9572   0.068   4.732   3.790
 3209TIP3    H2 9573   0.108   4.603   3.722
 3210TIP3   OH2 9574   2.266   6.532   5.626
 3210TIP3    H1 9575   2.343   6.558   5.575
 3210TIP3    H2 9576   2.192   6.571   5.580
 3211TIP3   OH2 9577   6.775   7.315   5.382
 3211TIP3    H1 9578   6.836   7.368   5.434
 3211TIP3    H2 9579   6.718   7.380   5.340
 3212TIP3   OH2 9580   3.818   0.864   3.627
 3212TIP3    H1 9581   3.768   0.841   3.549
 3212TIP3    H2 9582   3.904   0.890   3.593
 3213TIP3   OH2 9583   7.199   0.044   0.542
 3213TIP3    H1 9584   7.273  -0.006   0.507
 3213TIP3    H2 9585   7.201   0.026   0.636
 3214TIP3   OH2 9586   5.175   4.552   4.077
 3214TIP3    H1 9587   5.218   4.486   4.022
 3214TIP3    H2 9588   5.162   4.508   4.161
 3215TIP3   OH2 9589   5.229   6.861   0.638
 3215TIP3    H1 9590   5.193   6.939   0.680
 3215TIP3    H2 9591   5.319   6.884   0.616
 3216TIP3   OH2 9592   4.107   4.252   4.924
 3216TIP3    H1 9593   4.029   4.242   4.979
 3216TIP3    H2 9594   4.083   4.213   4.841
 3217TIP3   OH2 9595   5.844   4.443   0.953
 3217TIP3    H1 9596   5.756   4.411   0.932
 3217TIP3    H2 9597   5.829   4.517   1.012
 3218TIP3   OH2 9598   1.777   4.513   0.027
 3218TIP3    H1 9599   1.810   4.431  -0.010
 3218TIP3    H2 9600   1.853   4.571   0.029
 3219TIP3   OH2 9601   3.953   7.705   2.481
 3219TIP3    H1 9602   3.958   7.647   2.405
 3219TIP3    H2 9603   3.874   7.757   2.467
 3220TIP3   OH2 9604   4.762   7.475   4.814
 3220TIP3    H1 9605   4.723   7.535   4.751
 3220TIP3    H2 9606   4.833   7.524   4.855
 3221TIP3   OH2 9607   1.647   0.773   4.333
 3221TIP3    H1 9608   1.563   0.773   4.286
 3221TIP3    H2 9609   1.712   0.791   4.265
 3222TIP3   OH2 9610   0.341   6.486   4.672
 3222TIP3    H1 9611   0.285   6.418   4.709
 3222TIP3    H2 9612   0.415   6.491   4.732
 3223TIP3   OH2 9613   0.663   1.464   5.804
 3223TIP3    H1 9614   0.642   1.454   5.711
 3223TIP3    H2 9615   0.590   1.514   5.840
 3224TIP3   OH2 9616   1.746   1.708   3.985
 3224TIP3    H1 9617   1.810   1.701   4.056
 3224TIP3    H2 9618   1.780   1.650   3.917
 3225TIP3   OH2 9619   5.342   3.455   4.059
 3225TIP3    H1 9620   5.410   3.504   4.014
 3225TIP3    H2 9621   5.364   3.460   4.152
 3226TIP3   OH2 9622   3.114   4.373   2.986
 3226TIP3    H1 9623   3.072   4.295   2.949
 3226TIP3    H2 9624   3.043   4.421   3.029
 3227TIP3   OH2 9625   6.881   2.307   2.682
 3227TIP3    H1 9626   6.951   2.299   2.617
 3227TIP3    H2 9627   6.808   2.258   2.645
 3228TIP3   OH2 9628   0.295   4.516   1.008
 3228TIP3    H1 9629   0.245   4.521   0.926
 3228TIP3    H2 9630   0.264   4.591   1.059
 3229TIP3   OH2 9631   6.601   0.579   5.903
 3229TIP3    H1 9632   6.550   0.550   5.979
 3229TIP3    H2 9633   6.637   0.664   5.930
 3230TIP3   OH2 9634   7.327   0.643   2.522
 3230TIP3    H1 9635   7.314   0.601   2.607
 3230TIP3    H2 9636   7.358   0.574   2.465
 3231TIP3   OH2 9637   7.233   1.910   0.465
 3231TIP3    H1 9638   7.185   1.856   0.403
 3231TIP3    H2 9639   7.215   1.870   0.551
 3232TIP3   OH2 9640   7.350   3.154   6.550
 3232TIP3    H1 9641   7.276   3.165   6.610
 3232TIP3    H2 9642   7.427   3.172   6.604
 3233TIP3   OH2 9643   4.171   0.210   5.785
 3233TIP3    H1 9644   4.240   0.191   5.850
 3233TIP3    H2 9645   4.097   0.157   5.813
 3234TIP3   OH2 9646   7.838   3.631   1.142
 3234TIP3    H1 9647   7.904   3.648   1.075
 3234TIP3    H2 9648   7.827   3.536   1.141
 3235TIP3   OH2 9649   2.868   3.560   4.128
 3235TIP3    H1 9650   2.864   3.650   4.161
 3235TIP3    H2 9651   2.813   3.510   4.188
 3236TIP3   OH2 9652   1.089   2.382   2.404
 3236TIP3    H1 9653   1.094   2.376   2.308
 3236TIP3    H2 9654   1.179   2.366   2.433
 3237TIP3   OH2 9655   0.971   6.233   2.247
 3237TIP3    H1 9656   0.941   6.197   2.331
 3237TIP3    H2 9657   1.065   6.216   2.246
 3238TIP3   OH2 9658   4.871   6.975   3.188
 3238TIP3    H1 9659   4.861   6.880   3.192
 3238TIP3    H2 9660   4.869   6.995   3.095
 3239TIP3   OH2 9661   7.322   5.184   2.262
 3239TIP3    H1 9662   7.392   5.160   2.322
 3239TIP3    H2 9663   7.350   5.268   2.224
 3240TIP3   OH2 9664   3.912   5.479   3.843
 3240TIP3    H1 9665   3.948   5.567   3.839
 3240TIP3    H2 9666   3.885   5.460   3.753
 3241TIP3   OH2 9667   1.864   1.970   1.301
 3241TIP3    H1 9668   1.886   2.029   1.229
 3241TIP3    H2 9669   1.824   2.026   1.367
 3242TIP3   OH2 9670   2.996   2.895   2.223
 3242TIP3    H1 9671   2.965   2.905   2.133
 3242TIP3    H2 9672   3.001   2.984   2.257
 3243TIP3   OH2 9673   2.752   5.108   5.680
 3243TIP3    H1 9674   2.727   5.178   5.620
 3243TIP3    H2 9675   2.812   5.053   5.629
 3244TIP3   OH2 9676   3.127   0.854   2.320
 3244TIP3    H1 9677   3.096   0.829   2.232
 3244TIP3    H2 9678   3.181   0.931   2.305
 3245TIP3   OH2 9679   1.606   4.501   5.976
 3245TIP3    H1 9680   1.513   4.497   5.996
 3245TIP3    H2 9681   1.650   4.472   6.056
 3246TIP3   OH2 9682   0.237   1.324   2.878
 3246TIP3    H1 9683   0.212   1.416   2.888
 3246TIP3    H2 9684   0.286   1.304   2.958
 3247TIP3   OH2 9685   5.398   1.400   1.809
 3247TIP3    H1 9686   5.375   1.493   1.809
 3247TIP3    H2 9687   5.374   1.370   1.721
 3248TIP3   OH2 9688   0.697   6.464   2.532
 3248TIP3    H1 9689   0.774   6.422   2.494
 3248TIP3    H2 9690   0.627   6.399   2.525
 3249TIP3   OH2 9691   7.273   0.881   4.077
 3249TIP3    H1 9692   7.302   0.831   4.153
 3249TIP3    H2 9693   7.182   0.902   4.095
 3250TIP3   OH2 9694   5.790   0.019   3.256
 3250TIP3    H1 9695   5.834   0.092   3.212
 3250TIP3    H2 9696   5.753   0.057   3.336
 3251TIP3   OH2 9697   5.929   5.947   1.312
 3251TIP3    H1 9698   5.916   5.909   1.399
 3251TIP3    H2 9699   5.929   5.872   1.253
 3252TIP3   OH2 9700   4.523   2.176   1.033
 3252TIP3    H1 9701   4.513   2.166   1.128
 3252TIP3    H2 9702   4.520   2.271   1.018
 3253TIP3   OH2 9703   5.462   4.367   5.577
 3253TIP3    H1 9704   5.471   4.382   5.671
 3253TIP3    H2 9705   5.524   4.428   5.537
 3254TIP3   OH2 9706   5.231   3.563   3.381
 3254TIP3    H1 9707   5.216   3.635   3.320
 3254TIP3    H2 9708   5.311   3.588   3.428
 3255TIP3   OH2 9709   6.165   0.088   4.956
 3255TIP3    H1 9710   6.114   0.008   4.970
 3255TIP3    H2 9711   6.143   0.143   5.031
 3256TIP3   OH2 9712   5.568   7.709   2.433
 3256TIP3    H1 9713   5.507   7.781   2.418
 3256TIP3    H2 9714   5.654   7.747   2.416
 3257TIP3   OH2 9715   1.641   6.430   5.398
 3257TIP3    H1 9716   1.667   6.446   5.307
 3257TIP3    H2 9717   1.724   6.410   5.443
 3258TIP3   OH2 9718   4.262   4.726   5.960
 3258TIP3    H1 9719   4.273   4.754   6.051
 3258TIP3    H2 9720   4.167   4.729   5.945
 3259TIP3   OH2 9721   8.217   0.798   3.316
 3259TIP3    H1 9722   8.131   0.796   3.275
 3259TIP3    H2 9723   8.241   0.706   3.326
 3260TIP3   OH2 9724   2.007   1.489   1.781
 3260TIP3    H1 9725   1.952   1.556   1.741
 3260TIP3    H2 9726   1.966   1.406   1.756
 3261TIP3   OH2 9727   4.824   4.687   0.698
 3261TIP3    H1 9728   4.869   4.750   0.753
 3261TIP3    H2 9729   4.881   4.676   0.622
 3262TIP3   OH2 9730   1.556   4.393   5.605
 3262TIP3    H1 9731   1.522   4.359   5.688
 3262TIP3    H2 9732   1.515   4.338   5.539
 3263TIP3   OH2 9733   7.572   4.196   1.532
 3263TIP3    H1 9734   7.617   4.276   1.506
 3263TIP3    H2 9735   7.639   4.145   1.579
 3264TIP3   OH2 9736   4.332   3.937   1.963
 3264TIP3    H1 9737   4.363   3.849   1.989
 3264TIP3    H2 9738   4.285   3.922   1.881
 3265TIP3   OH2 9739   7.782   3.426   4.189
 3265TIP3    H1 9740   7.857   3.375   4.219
 3265TIP3    H2 9741   7.812   3.469   4.110
 3266TIP3   OH2 9742   8.136   4.890   2.400
 3266TIP3    H1 9743   8.138   4.944   2.480
 3266TIP3    H2 9744   8.073   4.821   2.420
 3267TIP3   OH2 9745   1.921   0.395   5.970
 3267TIP3    H1 9746   1.979   0.345   6.027
 3267TIP3    H2 9747   1.840   0.404   6.020
 3268TIP3   OH2 9748   4.859   2.762   5.400
 3268TIP3    H1 9749   4.922   2.763   5.328
 3268TIP3    H2 9750   4.773   2.773   5.358
 3269TIP3   OH2 9751   4.667   5.005   0.618
 3269TIP3    H1 9752   4.648   5.006   0.712
 3269TIP3    H2 9753   4.660   4.913   0.593
 3270TIP3   OH2 9754   4.169   5.841   3.493
 3270TIP3    H1 9755   4.111   5.777   3.452
 3270TIP3    H2 9756   4.250   5.794   3.509
 3271TIP3   OH2 9757   0.317   4.171   2.782
 3271TIP3    H1 9758   0.364   4.214   2.711
 3271TIP3    H2 9759   0.322   4.078   2.761
 3272TIP3   OH2 9760   1.555   3.870   5.890
 3272TIP3    H1 9761   1.472   3.837   5.857
 3272TIP3    H2 9762   1.607   3.792   5.906
 3273TIP3   OH2 9763   6.979   6.933   0.743
 3273TIP3    H1 9764   7.039   6.990   0.792
 3273TIP3    H2 9765   6.916   6.994   0.704
 3274TIP3   OH2 9766   7.522   1.323   6.314
 3274TIP3    H1 9767   7.553   1.355   6.399
 3274TIP3    H2 9768   7.437   1.365   6.302
 3275TIP3   OH2 9769   7.867   0.089   6.784
 3275TIP3    H1 9770   7.940   0.029   6.768
 3275TIP3    H2 9771   7.797   0.034   6.819
 3276TIP3   OH2 9772   3.399   3.947   5.006
 3276TIP3    H1 9773   3.313   3.918   4.973
 3276TIP3    H2 9774   3.427   4.015   4.945
 3277TIP3   OH2 9775   6.215   3.500   2.073
 3277TIP3    H1 9776   6.175   3.414   2.061
 3277TIP3    H2 9777   6.297   3.496   2.024
 3278TIP3   OH2 9778   3.275   7.159   5.778
 3278TIP3    H1 9779   3.293   7.170   5.871
 3278TIP3    H2 9780   3.349   7.106   5.746
 3279TIP3   OH2 9781   3.840   3.161   3.339
 3279TIP3    H1 9782   3.798   3.087   3.384
 3279TIP3    H2 9783   3.910   3.121   3.288
 3280TIP3   OH2 9784   1.692   7.178   3.732
 3280TIP3    H1 9785   1.668   7.224   3.812
 3280TIP3    H2 9786   1.707   7.247   3.668
 3281TIP3   OH2 9787   3.756   3.732   4.322
 3281TIP3    H1 9788   3.699   3.792   4.274
 3281TIP3    H2 9789   3.738   3.752   4.414
 3282TIP3   OH2 9790   1.714   6.680   0.999
 3282TIP3    H1 9791   1.777   6.752   1.000
 3282TIP3    H2 9792   1.665   6.693   0.917
 3283TIP3   OH2 9793   2.417   3.917   4.291
 3283TIP3    H1 9794   2.390   3.825   4.292
 3283TIP3    H2 9795   2.478   3.925   4.364
 3284TIP3   OH2 9796   8.136   0.365   1.166
 3284TIP3    H1 9797   8.183   0.382   1.084
 3284TIP3    H2 9798   8.113   0.273   1.162
 3285TIP3   OH2 9799   2.395   6.564   2.344
 3285TIP3    H1 9800   2.448   6.497   2.386
 3285TIP3    H2 9801   2.338   6.596   2.414
 3286TIP3   OH2 9802   3.235   5.846   5.933
 3286TIP3    H1 9803   3.173   5.792   5.883
 3286TIP3    H2 9804   3.320   5.803   5.921
 3287TIP3   OH2 9805   2.933   3.258   2.040
 3287TIP3    H1 9806   2.989   3.247   2.117
 3287TIP3    H2 9807   2.848   3.282   2.076
 3288TIP3   OH2 9808   4.399   4.275   5.797
 3288TIP3    H1 9809   4.387   4.352   5.741
 3288TIP3    H2 9810   4.341   4.289   5.871
 3289TIP3   OH2 9811   6.697   2.366   4.271
 3289TIP3    H1 9812   6.708   2.294   4.333
 3289TIP3    H2 9813   6.638   2.427   4.314
 3290TIP3   OH2 9814   2.259   5.537   2.955
 3290TIP3    H1 9815   2.332   5.576   2.906
 3290TIP3    H2 9816   2.291   5.531   3.045
 3291TIP3   OH2 9817   8.298   2.160   4.922
 3291TIP3    H1 9818   8.276   2.068   4.937
 3291TIP3    H2 9819   8.391   2.166   4.946
 3292TIP3   OH2 9820   5.092   3.118   1.636
 3292TIP3    H1 9821   5.030   3.102   1.565
 3292TIP3    H2 9822   5.077   3.046   1.698
 3293TIP3   OH2 9823   5.964   5.511   1.580
 3293TIP3    H1 9824   5.933   5.518   1.671
 3293TIP3    H2 9825   6.059   5.503   1.588
 3294TIP3   OH2 9826   6.905   0.375   3.238
 3294TIP3    H1 9827   6.891   0.337   3.151
 3294TIP3    H2 9828   6.829   0.431   3.251
 3295TIP3   OH2 9829   4.167   0.344   2.696
 3295TIP3    H1 9830   4.249   0.384   2.725
 3295TIP3    H2 9831   4.144   0.391   2.616
 3296TIP3   OH2 9832   4.797   6.826   6.096
 3296TIP3    H1 9833   4.719   6.876   6.070
 3296TIP3    H2 9834   4.834   6.795   6.013
 3297TIP3   OH2 9835   1.497   5.899   0.792
 3297TIP3    H1 9836   1.411   5.876   0.758
 3297TIP3    H2 9837   1.486   5.986   0.830
 3298TIP3   OH2 9838   4.607   0.901   5.744
 3298TIP3    H1 9839   4.550   0.978   5.743
 3298TIP3    H2 9840   4.692   0.934   5.711
 3299TIP3   OH2 9841   7.221   3.627   2.830
 3299TIP3    H1 9842   7.215   3.640   2.925
 3299TIP3    H2 9843   7.305   3.583   2.817
 3300TIP3   OH2 9844   1.059   1.640   1.971
 3300TIP3    H1 9845   0.979   1.606   1.930
 3300TIP3    H2 9846   1.057   1.734   1.953
 3301TIP3   OH2 9847   0.782   5.552   2.552
 3301TIP3    H1 9848   0.799   5.458   2.560
 3301TIP3    H2 9849   0.802   5.572   2.460
 3302TIP3   OH2 9850   0.214   3.029   6.086
 3302TIP3    H1 9851   0.218   3.074   6.002
 3302TIP3    H2 9852   0.290   2.972   6.087
 3303TIP3   OH2 9853   2.330   5.784   5.941
 3303TIP3    H1 9854   2.346   5.867   5.985
 3303TIP3    H2 9855   2.356   5.717   6.005
 3304TIP3   OH2 9856   6.385   2.061   3.731
 3304TIP3    H1 9857   6.351   2.127   3.671
 3304TIP3    H2 9858   6.479   2.078   3.734
 3305TIP3   OH2 9859   4.286   5.543   5.029
 3305TIP3    H1 9860   4.326   5.546   5.116
 3305TIP3    H2 9861   4.269   5.635   5.007
 3306TIP3   OH2 9862   5.533   2.748   1.723
 3306TIP3    H1 9863   5.502   2.751   1.633
 3306TIP3    H2 9864   5.532   2.655   1.745
 3307TIP3   OH2 9865   4.830   3.671   0.840
 3307TIP3    H1 9866   4.756   3.676   0.900
 3307TIP3    H2 9867   4.907   3.693   0.893
 3308TIP3   OH2 9868   7.739   2.017   1.600
 3308TIP3    H1 9869   7.659   2.031   1.550
 3308TIP3    H2 9870   7.776   1.936   1.565
 3309TIP3   OH2 9871   5.091   3.107   3.464
 3309TIP3    H1 9872   5.137   3.189   3.479
 3309TIP3    H2 9873   5.055   3.116   3.376
 3310TIP3   OH2 9874   1.817   4.669   0.511
 3310TIP3    H1 9875   1.893   4.691   0.564
 3310TIP3    H2 9876   1.851   4.611   0.443
 3311TIP3   OH2 9877   1.827   3.146   5.526
 3311TIP3    H1 9878   1.772   3.088   5.578
 3311TIP3    H2 9879   1.768   3.217   5.500
 3312TIP3   OH2 9880   1.284   3.851   0.027
 3312TIP3    H1 9881   1.356   3.792   0.007
 3312TIP3    H2 9882   1.320   3.938   0.016
 3313TIP3   OH2 9883   3.951   3.468   6.540
 3313TIP3    H1 9884   3.877   3.444   6.596
 3313TIP3    H2 9885   4.028   3.452   6.594
 3314TIP3   OH2 9886   1.073   2.281   1.065
 3314TIP3    H1 9887   0.983   2.297   1.034
 3314TIP3    H2 9888   1.117   2.241   0.991
 3315TIP3   OH2 9889   4.122   0.359   3.181
 3315TIP3    H1 9890   4.129   0.268   3.151
 3315TIP3    H2 9891   4.191   0.368   3.246
 3316TIP3   OH2 9892   0.387   2.608   2.891
 3316TIP3    H1 9893   0.445   2.671   2.934
 3316TIP3    H2 9894   0.306   2.657   2.874
 3317TIP3   OH2 9895   1.133   2.946   5.486
 3317TIP3    H1 9896   1.072   2.978   5.553
 3317TIP3    H2 9897   1.125   2.851   5.491
 3318TIP3   OH2 9898   5.186   7.442   3.306
 3318TIP3    H1 9899   5.235   7.412   3.383
 3318TIP3    H2 9900   5.192   7.368   3.245
 3319TIP3   OH2 9901   4.053   7.474   5.952
 3319TIP3    H1 9902   4.146   7.450   5.946
 3319TIP3    H2 9903   4.008   7.408   5.899
 3320TIP3   OH2 9904   1.366   0.358   6.126
 3320TIP3    H1 9905   1.361   0.418   6.051
 3320TIP3    H2 9906   1.406   0.279   6.091
 3321TIP3   OH2 9907   4.871   7.435   0.892
 3321TIP3    H1 9908   4.875   7.525   0.924
 3321TIP3    H2 9909   4.960   7.415   0.865
 3322TIP3   OH2 9910   6.134   0.568   1.250
 3322TIP3    H1 9911   6.090   0.647   1.284
 3322TIP3    H2 9912   6.154   0.589   1.159
 3323TIP3   OH2 9913   6.127   2.782   3.519
 3323TIP3    H1 9914   6.177   2.837   3.579
 3323TIP3    H2 9915   6.173   2.789   3.435
 3324TIP3   OH2 9916   2.007   5.153   1.383
 3324TIP3    H1 9917   2.053   5.227   1.424
 3324TIP3    H2 9918   1.952   5.194   1.317
 3325TIP3   OH2 9919   1.734   6.564   0.234
 3325TIP3    H1 9920   1.781   6.589   0.313
 3325TIP3    H2 9921   1.791   6.502   0.190
 3326TIP3   OH2 9922   3.394   2.143   1.290
 3326TIP3    H1 9923   3.454   2.208   1.326
 3326TIP3    H2 9924   3.350   2.189   1.218
 3327TIP3   OH2 9925   8.014   4.789   4.689
 3327TIP3    H1 9926   7.978   4.718   4.636
 3327TIP3    H2 9927   8.052   4.850   4.626
 3328TIP3   OH2 9928   2.415   5.490   0.885
 3328TIP3    H1 9929   2.473   5.475   0.810
 3328TIP3    H2 9930   2.473   5.486   0.961
 3329TIP3   OH2 9931   5.693   5.267   6.473
 3329TIP3    H1 9932   5.623   5.261   6.538
 3329TIP3    H2 9933   5.714   5.360   6.469
 3330TIP3   OH2 9934   0.056   4.380   4.095
 3330TIP3    H1 9935  -0.038   4.376   4.082
 3330TIP3    H2 9936   0.076   4.303   4.148
 3331TIP3   OH2 9937   4.678   4.663   3.416
 3331TIP3    H1 9938   4.653   4.735   3.358
 3331TIP3    H2 9939   4.597   4.636   3.458
 3332TIP3   OH2 9940   5.493   7.540   4.089
 3332TIP3    H1 9941   5.417   7.570   4.039
 3332TIP3    H2 9942   5.467   7.550   4.181
 3333TIP3   OH2 9943   1.963   4.021   1.515
 3333TIP3    H1 9944   2.033   4.011   1.451
 3333TIP3    H2 9945   2.002   3.993   1.598
 3334TIP3   OH2 9946   5.838   5.860   4.381
 3334TIP3    H1 9947   5.782   5.928   4.344
 3334TIP3    H2 9948   5.790   5.828   4.457
 3335TIP3   OH2 9949   1.733   7.146   0.399
 3335TIP3    H1 9950   1.637   7.148   0.396
 3335TIP3    H2 9951   1.755   7.053   0.395
 3336TIP3   OH2 9952   0.503   0.724   5.763
 3336TIP3    H1 9953   0.555   0.656   5.721
 3336TIP3    H2 9954   0.560   0.757   5.833
 3337TIP3   OH2 9955   6.137   2.182   5.948
 3337TIP3    H1 9956   6.185   2.241   5.890
 3337TIP3    H2 9957   6.045   2.206   5.938
 3338TIP3   OH2 9958   7.261   5.504   6.273
 3338TIP3    H1 9959   7.286   5.487   6.182
 3338TIP3    H2 9960   7.301   5.588   6.294
 3339TIP3   OH2 9961   6.313   0.485   6.700
 3339TIP3    H1 9962   6.363   0.414   6.740
 3339TIP3    H2 9963   6.315   0.555   6.765
 3340TIP3   OH2 9964   5.774   2.835   0.334
 3340TIP3    H1 9965   5.680   2.827   0.317
 3340TIP3    H2 9966   5.815   2.790   0.260
 3341TIP3   OH2 9967   2.496   3.596   5.503
 3341TIP3    H1 9968   2.505   3.603   5.408
 3341TIP3    H2 9969   2.580   3.561   5.533
 3342TIP3   OH2 9970   3.776   4.561   4.529
 3342TIP3    H1 9971   3.866   4.558   4.494
 3342TIP3    H2 9972   3.752   4.653   4.523
 3343TIP3   OH2 9973   3.183   3.022   2.556
 3343TIP3    H1 9974   3.261   3.068   2.586
 3343TIP3    H2 9975   3.138   3.084   2.499
 3344TIP3   OH2 9976   7.591   7.095   1.720
 3344TIP3    H1 9977   7.595   7.000   1.726
 3344TIP3    H2 9978   7.659   7.119   1.657
 3345TIP3   OH2 9979   0.907   7.195   6.649
 3345TIP3    H1 9980   0.882   7.106   6.626
 3345TIP3    H2 9981   1.003   7.195   6.643
 3346TIP3   OH2 9982   4.030   2.211   1.857
 3346TIP3    H1 9983   3.985   2.158   1.922
 3346TIP3    H2 9984   3.988   2.189   1.774
 3347TIP3   OH2 9985   7.241   6.546   6.376
 3347TIP3    H1 9986   7.264   6.553   6.468
 3347TIP3    H2 9987   7.226   6.636   6.347
 3348TIP3   OH2 9988   5.154   1.247   2.727
 3348TIP3    H1 9989   5.137   1.157   2.700
 3348TIP3    H2 9990   5.249   1.257   2.720
 3349TIP3   OH2 9991   2.212   5.057   6.281
 3349TIP3    H1 9992   2.241   4.997   6.350
 3349TIP3    H2 9993   2.183   4.999   6.210
 3350TIP3   OH2 9994   3.367   7.274   0.927
 3350TIP3    H1 9995   3.394   7.188   0.895
 3350TIP3    H2 9996   3.272   7.274   0.919
 3351TIP3   OH2 9997   2.474   5.088   2.528
 3351TIP3    H1 9998   2.513   5.144   2.596
 3351TIP3    H2 9999   2.544   5.028   2.503
 3352TIP3   OH210000   5.897   3.077   1.267
 3352TIP3    H110001   5.934   3.001   1.312
 3352TIP3    H210002   5.815   3.094   1.313
 3353TIP3   OH210003   6.831   7.315   4.560
 3353TIP3    H110004   6.804   7.224   4.575
 3353TIP3    H210005   6.915   7.308   4.515
 3354TIP3   OH210006   0.644   3.967   6.496
 3354TIP3    H110007   0.624   3.882   6.534
 3354TIP3    H210008   0.621   3.958   6.403
 3355TIP3   OH210009   0.565   6.119   5.704
 3355TIP3    H110010   0.548   6.201   5.750
 3355TIP3    H210011   0.523   6.052   5.758
 3356TIP3   OH210012   2.946   6.548   0.313
 3356TIP3    H110013   3.037   6.557   0.285
 3356TIP3    H210014   2.924   6.457   0.297
 3357TIP3   OH210015   4.210   3.434   1.197
 3357TIP3    H110016   4.123   3.441   1.159
 3357TIP3    H210017   4.199   3.374   1.270
 3358TIP3   OH210018   7.982   6.801   2.042
 3358TIP3    H110019   8.015   6.752   1.966
 3358TIP3    H210020   7.989   6.893   2.015
 3359TIP3   OH210021   7.759   2.692   1.479
 3359TIP3    H110022   7.759   2.787   1.476
 3359TIP3    H210023   7.823   2.670   1.546
 3360TIP3   OH210024   6.173   5.718   1.192
 3360TIP3    H110025   6.201   5.735   1.101
 3360TIP3    H210026   6.120   5.638   1.186
 3361TIP3   OH210027   0.641   0.127   1.582
 3361TIP3    H110028   0.593   0.137   1.500
 3361TIP3    H210029   0.584   0.167   1.648
 3362TIP3   OH210030   7.171   4.029   4.746
 3362TIP3    H110031   7.159   4.037   4.652
 3362TIP3    H210032   7.193   4.117   4.775
 3363TIP3   OH210033   2.959   4.091   1.893
 3363TIP3    H110034   3.000   4.004   1.892
 3363TIP3    H210035   2.889   4.085   1.828
 3364TIP3   OH210036   7.809   7.484   5.794
 3364TIP3    H110037   7.844   7.408   5.748
 3364TIP3    H210038   7.721   7.495   5.758
 3365TIP3   OH210039   2.953   4.792   2.305
 3365TIP3    H110040   3.014   4.860   2.336
 3365TIP3    H210041   2.987   4.767   2.219
 3366TIP3   OH210042   2.461   5.277   0.429
 3366TIP3    H110043   2.529   5.238   0.484
 3366TIP3    H210044   2.501   5.283   0.342
 3367TIP3   OH210045   0.286   5.315   0.616
 3367TIP3    H110046   0.300   5.230   0.658
 3367TIP3    H210047   0.290   5.296   0.522
 3368TIP3   OH210048   6.023   1.032   2.661
 3368TIP3    H110049   5.990   0.959   2.609
 3368TIP3    H210050   6.054   1.096   2.597
 3369TIP3   OH210051   7.110   6.770   3.039
 3369TIP3    H110052   7.144   6.690   3.000
 3369TIP3    H210053   7.061   6.812   2.968
 3370TIP3   OH210054   3.714   6.005   6.362
 3370TIP3    H110055   3.670   6.087   6.339
 3370TIP3    H210056   3.806   6.030   6.373
 3371TIP3   OH210057   3.954   2.674   3.865
 3371TIP3    H110058   4.027   2.736   3.861
 3371TIP3    H210059   3.996   2.588   3.856
 3372TIP3   OH210060   2.731   4.943   5.890
 3372TIP3    H110061   2.822   4.934   5.920
 3372TIP3    H210062   2.735   5.007   5.819
 3373TIP3   OH210063   4.932   5.159   1.342
 3373TIP3    H110064   4.893   5.132   1.425
 3373TIP3    H210065   5.022   5.184   1.364
 3374TIP3   OH210066   0.026   7.704   4.826
 3374TIP3    H110067  -0.027   7.784   4.826
 3374TIP3    H210068   0.041   7.685   4.733
 3375TIP3   OH210069   0.359   1.945   4.844
 3375TIP3    H110070   0.431   1.890   4.813
 3375TIP3    H210071   0.344   2.007   4.774
 3376TIP3   OH210072   3.360   2.021   0.977
 3376TIP3    H110073   3.433   2.010   0.916
 3376TIP3    H210074   3.383   2.101   1.025
 3377TIP3   OH210075   0.929   7.624   2.872
 3377TIP3    H110076   1.004   7.679   2.849
 3377TIP3    H210077   0.860   7.652   2.812
 3378TIP3   OH210078   1.585   2.853   6.007
 3378TIP3    H110079   1.641   2.821   5.935
 3378TIP3    H210080   1.526   2.780   6.025
 3379TIP3   OH210081   4.363   4.845   0.350
 3379TIP3    H110082   4.378   4.937   0.372
 3379TIP3    H210083   4.436   4.821   0.294
 3380TIP3   OH210084   7.364   0.388  -0.078
 3380TIP3    H110085   7.393   0.359   0.009
 3380TIP3    H210086   7.302   0.321  -0.106
 3381TIP3   OH210087   2.474   5.122   4.170
 3381TIP3    H110088   2.482   5.060   4.242
 3381TIP3    H210089   2.564   5.142   4.146
 3382TIP3   OH210090   3.671   7.038   4.227
 3382TIP3    H110091   3.593   6.987   4.206
 3382TIP3    H210092   3.722   7.038   4.146
 3383TIP3   OH210093   7.670   4.674   1.276
 3383TIP3    H110094   7.756   4.682   1.235
 3383TIP3    H210095   7.656   4.758   1.320
 3384TIP3   OH210096   5.222   0.689   2.068
 3384TIP3    H110097   5.218   0.599   2.037
 3384TIP3    H210098   5.142   0.700   2.120
 3385TIP3   OH210099   0.273   0.116   5.674
 3385TIP3    H110100   0.192   0.077   5.707
 3385TIP3    H210101   0.292   0.188   5.736
 3386TIP3   OH210102   0.284   6.708   5.766
 3386TIP3    H110103   0.193   6.699   5.791
 3386TIP3    H210104   0.285   6.692   5.672
 3387TIP3   OH210105   7.229   5.733   2.234
 3387TIP3    H110106   7.193   5.664   2.179
 3387TIP3    H210107   7.226   5.812   2.179
 3388TIP3   OH210108   4.661   2.618   4.588
 3388TIP3    H110109   4.613   2.537   4.574
 3388TIP3    H210110   4.599   2.677   4.630
 3389TIP3   OH210111   1.491   3.668   5.589
 3389TIP3    H110112   1.486   3.650   5.495
 3389TIP3    H210113   1.559   3.609   5.622
 3390TIP3   OH210114   0.828   5.276   3.211
 3390TIP3    H110115   0.889   5.291   3.283
 3390TIP3    H210116   0.830   5.356   3.160
 3391TIP3   OH210117   2.740   4.579   5.647
 3391TIP3    H110118   2.707   4.669   5.641
 3391TIP3    H210119   2.776   4.561   5.560
 3392TIP3   OH210120   4.372   0.516   2.776
 3392TIP3    H110121   4.414   0.597   2.805
 3392TIP3    H210122   4.281   0.542   2.760
 3393TIP3   OH210123   3.696   1.593   4.059
 3393TIP3    H110124   3.649   1.596   3.976
 3393TIP3    H210125   3.784   1.562   4.035
 3394TIP3   OH210126   4.949   7.435   1.800
 3394TIP3    H110127   5.029   7.391   1.828
 3394TIP3    H210128   4.887   7.363   1.782
 3395TIP3   OH210129   7.838   4.637   5.806
 3395TIP3    H110130   7.925   4.647   5.768
 3395TIP3    H210131   7.790   4.583   5.743
 3396TIP3   OH210132   3.588   3.190   0.640
 3396TIP3    H110133   3.528   3.118   0.623
 3396TIP3    H210134   3.570   3.253   0.571
 3397TIP3   OH210135   0.673   6.342   1.106
 3397TIP3    H110136   0.711   6.272   1.160
 3397TIP3    H210137   0.642   6.407   1.169
 3398TIP3   OH210138   2.963   7.694   5.622
 3398TIP3    H110139   3.010   7.621   5.661
 3398TIP3    H210140   2.872   7.680   5.646
 3399TIP3   OH210141   4.617   6.545   5.222
 3399TIP3    H110142   4.589   6.486   5.152
 3399TIP3    H210143   4.707   6.569   5.199
 3400TIP3   OH210144   6.276   5.013   4.362
 3400TIP3    H110145   6.283   5.058   4.446
 3400TIP3    H210146   6.360   5.029   4.319
 3401TIP3   OH210147   5.769   7.680   5.813
 3401TIP3    H110148   5.847   7.734   5.799
 3401TIP3    H210149   5.741   7.656   5.725
 3402TIP3   OH210150   3.795   1.021   4.372
 3402TIP3    H110151   3.888   1.023   4.396
 3402TIP3    H210152   3.764   1.110   4.390
 3403TIP3   OH210153   0.869   2.876   6.792
 3403TIP3    H110154   0.782   2.867   6.829
 3403TIP3    H210155   0.886   2.792   6.749
 3404TIP3   OH210156   7.242   0.798   0.657
 3404TIP3    H110157   7.316   0.815   0.717
 3404TIP3    H210158   7.276   0.821   0.571
 3405TIP3   OH210159   5.502   4.891   2.695
 3405TIP3    H110160   5.561   4.965   2.678
 3405TIP3    H210161   5.415   4.925   2.675
 3406TIP3   OH210162   2.336   2.389   0.648
 3406TIP3    H110163   2.267   2.327   0.670
 3406TIP3    H210164   2.393   2.342   0.588
 3407TIP3   OH210165   2.994   5.831   5.468
 3407TIP3    H110166   3.010   5.805   5.377
 3407TIP3    H210167   2.901   5.855   5.470
 3408TIP3   OH210168   4.526   5.226   1.919
 3408TIP3    H110169   4.571   5.309   1.906
 3408TIP3    H210170   4.437   5.251   1.943
 3409TIP3   OH210171   8.093   4.137   1.815
 3409TIP3    H110172   8.111   4.050   1.852
 3409TIP3    H210173   8.153   4.196   1.861
 3410TIP3   OH210174   2.452   2.360   3.598
 3410TIP3    H110175   2.409   2.308   3.666
 3410TIP3    H210176   2.417   2.324   3.516
 3411TIP3   OH210177   0.859   1.937   0.459
 3411TIP3    H110178   0.951   1.943   0.486
 3411TIP3    H210179   0.814   1.898   0.534
 3412TIP3   OH210180   8.114   3.325   0.749
 3412TIP3    H110181   8.113   3.319   0.653
 3412TIP3    H210182   8.107   3.419   0.767
 3413TIP3   OH210183   1.100   1.791   0.598
 3413TIP3    H110184   1.094   1.696   0.607
 3413TIP3    H210185   1.115   1.806   0.504
 3414TIP3   OH210186   6.364   7.533   3.443
 3414TIP3    H110187   6.359   7.491   3.357
 3414TIP3    H210188   6.375   7.626   3.424
 3415TIP3   OH210189   2.963   4.793   2.007
 3415TIP3    H110190   2.982   4.886   2.006
 3415TIP3    H210191   3.047   4.751   1.992
 3416TIP3   OH210192   2.695   0.237   2.191
 3416TIP3    H110193   2.609   0.253   2.230
 3416TIP3    H210194   2.705   0.306   2.125
 3417TIP3   OH210195   4.072   6.924   0.105
 3417TIP3    H110196   4.116   6.868   0.168
 3417TIP3    H210197   4.138   6.942   0.038
 3418TIP3   OH210198   2.133   1.693   4.254
 3418TIP3    H110199   2.142   1.734   4.340
 3418TIP3    H210200   2.039   1.687   4.240
 3419TIP3   OH210201   3.145   2.777   2.414
 3419TIP3    H110202   3.156   2.855   2.469
 3419TIP3    H210203   3.090   2.806   2.342
 3420TIP3   OH210204   4.831   5.735   0.975
 3420TIP3    H110205   4.829   5.640   0.985
 3420TIP3    H210206   4.900   5.764   1.035
 3421TIP3   OH210207   6.393   1.826   0.890
 3421TIP3    H110208   6.390   1.855   0.799
 3421TIP3    H210209   6.331   1.752   0.894
 3422TIP3   OH210210   7.026   2.590   4.447
 3422TIP3    H110211   7.025   2.646   4.369
 3422TIP3    H210212   6.982   2.510   4.420
 3423TIP3   OH210213   4.401   3.050   4.265
 3423TIP3    H110214   4.419   2.966   4.222
 3423TIP3    H210215   4.488   3.085   4.285
 3424TIP3   OH210216   6.238   6.211   0.036
 3424TIP3    H110217   6.332   6.226   0.025
 3424TIP3    H210218   6.232   6.124   0.076
 3425TIP3   OH210219  -0.012   3.160   2.348
 3425TIP3    H110220  -0.056   3.228   2.399
 3425TIP3    H210221   0.038   3.208   2.281
 3426TIP3   OH210222   2.979   6.646   3.451
 3426TIP3    H110223   3.027   6.640   3.368
 3426TIP3    H210224   2.901   6.696   3.430
 3427TIP3   OH210225   5.255   0.581   5.302
 3427TIP3    H110226   5.181   0.554   5.356
 3427TIP3    H210227   5.319   0.614   5.364
 3428TIP3   OH210228   6.152   0.362   0.652
 3428TIP3    H110229   6.058   0.356   0.637
 3428TIP3    H210230   6.183   0.271   0.649
 3429TIP3   OH210231   5.108   1.398   5.146
 3429TIP3    H110232   5.199   1.419   5.167
 3429TIP3    H210233   5.057   1.456   5.203
 3430TIP3   OH210234   5.581   4.418   2.373
 3430TIP3    H110235   5.530   4.415   2.292
 3430TIP3    H210236   5.574   4.330   2.409
 3431TIP3   OH210237   5.425   1.960   1.616
 3431TIP3    H110238   5.464   1.879   1.585
 3431TIP3    H210239   5.480   2.029   1.580
 3432TIP3   OH210240   4.236   4.018   5.586
 3432TIP3    H110241   4.143   4.021   5.568
 3432TIP3    H210242   4.278   4.045   5.504
 3433TIP3   OH210243   5.664   7.302   3.270
 3433TIP3    H110244   5.716   7.296   3.190
 3433TIP3    H210245   5.682   7.389   3.304
 3434TIP3   OH210246   8.208   5.109   2.982
 3434TIP3    H110247   8.234   5.049   3.052
 3434TIP3    H210248   8.252   5.191   3.004
 3435TIP3   OH210249   6.814   5.084   4.381
 3435TIP3    H110250   6.877   5.150   4.411
 3435TIP3    H210251   6.850   5.051   4.299
 3436TIP3   OH210252   7.222   7.079   5.107
 3436TIP3    H110253   7.134   7.115   5.100
 3436TIP3    H210254   7.238   7.074   5.202
 3437TIP3   OH210255   3.003   5.076   3.053
 3437TIP3    H110256   3.064   5.077   2.979
 3437TIP3    H210257   3.059   5.078   3.131
 3438TIP3   OH210258   0.750   5.080   5.200
 3438TIP3    H110259   0.675   5.091   5.257
 3438TIP3    H210260   0.774   4.987   5.208
 3439TIP3   OH210261   0.415   3.147   0.040
 3439TIP3    H110262   0.497   3.098   0.034
 3439TIP3    H210263   0.364   3.118  -0.036
 3440TIP3   OH210264   8.149   4.932   3.421
 3440TIP3    H110265   8.113   5.018   3.399
 3440TIP3    H210266   8.140   4.926   3.516
 3441TIP3   OH210267   4.456   5.040   2.308
 3441TIP3    H110268   4.498   5.116   2.349
 3441TIP3    H210269   4.524   4.974   2.304
 3442TIP3   OH210270   5.922   4.430   5.651
 3442TIP3    H110271   5.951   4.352   5.698
 3442TIP3    H210272   5.985   4.441   5.580
 3443TIP3   OH210273   2.319   0.462   0.144
 3443TIP3    H110274   2.291   0.390   0.200
 3443TIP3    H210275   2.330   0.422   0.057
 3444TIP3   OH210276   3.699   6.052   1.531
 3444TIP3    H110277   3.752   5.999   1.590
 3444TIP3    H210278   3.683   5.996   1.455
 3445TIP3   OH210279   7.643   6.194   4.083
 3445TIP3    H110280   7.665   6.287   4.072
 3445TIP3    H210281   7.728   6.150   4.086
 3446TIP3   OH210282   0.284   7.522   6.157
 3446TIP3    H110283   0.359   7.463   6.148
 3446TIP3    H210284   0.295   7.561   6.244
 3447TIP3   OH210285   3.274   5.183   1.225
 3447TIP3    H110286   3.336   5.122   1.265
 3447TIP3    H210287   3.192   5.134   1.221
 3448TIP3   OH210288   2.787   1.161   5.578
 3448TIP3    H110289   2.829   1.088   5.532
 3448TIP3    H210290   2.837   1.238   5.551
 3449TIP3   OH210291   7.903   0.242   1.006
 3449TIP3    H110292   7.924   0.328   0.970
 3449TIP3    H210293   7.870   0.260   1.094
 3450TIP3   OH210294   3.607   3.847   2.997
 3450TIP3    H110295   3.540   3.814   3.057
 3450TIP3    H210296   3.622   3.938   3.023
 3451TIP3   OH210297   4.992   0.395   6.035
 3451TIP3    H110298   5.058   0.438   6.089
 3451TIP3    H210299   4.915   0.451   6.043
 3452TIP3   OH210300   6.129   1.402   0.361
 3452TIP3    H110301   6.047   1.362   0.390
 3452TIP3    H210302   6.114   1.423   0.268
 3453TIP3   OH210303   8.001   0.985   6.623
 3453TIP3    H110304   7.961   0.970   6.537
 3453TIP3    H210305   8.029   0.899   6.652
 3454TIP3   OH210306   5.731   4.089   4.992
 3454TIP3    H110307   5.699   4.165   5.041
 3454TIP3    H210308   5.652   4.049   4.956
 3455TIP3   OH210309   5.155   6.501   1.638
 3455TIP3    H110310   5.108   6.582   1.654
 3455TIP3    H210311   5.244   6.518   1.665
 3456TIP3   OH210312   2.273   2.721   3.187
 3456TIP3    H110313   2.254   2.753   3.276
 3456TIP3    H210314   2.256   2.796   3.130
 3457TIP3   OH210315   0.364   7.760   2.599
 3457TIP3    H110316   0.414   7.787   2.522
 3457TIP3    H210317   0.370   7.835   2.659
 3458TIP3   OH210318   4.105   3.709   2.104
 3458TIP3    H110319   4.142   3.788   2.143
 3458TIP3    H210320   4.181   3.653   2.087
 3459TIP3   OH210321   5.029   5.381   6.107
 3459TIP3    H110322   5.105   5.323   6.113
 3459TIP3    H210323   5.021   5.419   6.194
 3460TIP3   OH210324   2.769   7.383   4.420
 3460TIP3    H110325   2.693   7.332   4.448
 3460TIP3    H210326   2.821   7.393   4.499
 3461TIP3   OH210327   7.995   5.896   1.259
 3461TIP3    H110328   8.005   5.829   1.326
 3461TIP3    H210329   7.913   5.875   1.215
 3462TIP3   OH210330   7.074   5.649   5.975
 3462TIP3    H110331   7.080   5.555   5.958
 3462TIP3    H210332   7.000   5.658   6.035
 3463TIP3   OH210333   0.193   5.448   1.962
 3463TIP3    H110334   0.251   5.379   1.928
 3463TIP3    H210335   0.149   5.407   2.036
 3464TIP3   OH210336   6.573   7.025   1.444
 3464TIP3    H110337   6.522   7.105   1.451
 3464TIP3    H210338   6.642   7.045   1.381
 3465TIP3   OH210339   7.495   5.616   6.120
 3465TIP3    H110340   7.525   5.545   6.177
 3465TIP3    H210341   7.557   5.616   6.047
 3466TIP3   OH210342   2.469   3.292   2.378
 3466TIP3    H110343   2.462   3.219   2.316
 3466TIP3    H210344   2.471   3.251   2.464
 3467TIP3   OH210345   6.955   1.064   0.522
 3467TIP3    H110346   7.019   1.115   0.472
 3467TIP3    H210347   6.870   1.098   0.494
 3468TIP3   OH210348   3.377   6.160   3.532
 3468TIP3    H110349   3.393   6.101   3.458
 3468TIP3    H210350   3.295   6.129   3.569
 3469TIP3   OH210351   0.309   0.552   2.441
 3469TIP3    H110352   0.245   0.557   2.512
 3469TIP3    H210353   0.324   0.643   2.416
 3470TIP3   OH210354   5.901   6.710   6.238
 3470TIP3    H110355   5.815   6.696   6.198
 3470TIP3    H210356   5.927   6.624   6.272
 3471TIP3   OH210357   0.642   2.681   0.188
 3471TIP3    H110358   0.676   2.598   0.223
 3471TIP3    H210359   0.719   2.737   0.180
 3472TIP3   OH210360   4.404   0.176   1.287
 3472TIP3    H110361   4.377   0.259   1.247
 3472TIP3    H210362   4.444   0.202   1.370
 3473TIP3   OH210363   0.554   4.347   6.077
 3473TIP3    H110364   0.600   4.264   6.065
 3473TIP3    H210365   0.475   4.338   6.024
 3474TIP3   OH210366   6.335   0.216   6.110
 3474TIP3    H110367   6.265   0.194   6.048
 3474TIP3    H210368   6.400   0.146   6.099
 3475TIP3   OH210369   0.687   7.401   3.452
 3475TIP3    H110370   0.727   7.358   3.376
 3475TIP3    H210371   0.598   7.420   3.424
 3476TIP3   OH210372   7.260   1.701   6.408
 3476TIP3    H110373   7.352   1.725   6.420
 3476TIP3    H210374   7.229   1.681   6.497
 3477TIP3   OH210375   4.402   2.823   2.784
 3477TIP3    H110376   4.474   2.832   2.847
 3477TIP3    H210377   4.323   2.829   2.838
 3478TIP3   OH210378   1.672   6.036   5.095
 3478TIP3    H110379   1.578   6.024   5.091
 3478TIP3    H210380   1.705   5.954   5.134
 3479TIP3   OH210381   2.147   5.333   1.565
 3479TIP3    H110382   2.231   5.287   1.564
 3479TIP3    H210383   2.168   5.419   1.601
 3480TIP3   OH210384   4.241   6.059   6.614
 3480TIP3    H110385   4.192   6.047   6.695
 3480TIP3    H210386   4.247   5.971   6.576
 3481TIP3   OH210387   6.946   2.928   2.235
 3481TIP3    H110388   6.964   3.021   2.222
 3481TIP3    H210389   7.030   2.885   2.215
 3482TIP3   OH210390   8.091   3.588   0.809
 3482TIP3    H110391   8.159   3.643   0.847
 3482TIP3    H210392   8.060   3.638   0.733
 3483TIP3   OH210393   0.488   4.658   1.386
 3483TIP3    H110394   0.552   4.587   1.377
 3483TIP3    H210395   0.536   4.737   1.362
 3484TIP3   OH210396   3.553   5.747   0.893
 3484TIP3    H110397   3.619   5.764   0.961
 3484TIP3    H210398   3.532   5.833   0.857
 3485TIP3   OH210399   5.987   1.616   2.650
 3485TIP3    H110400   5.917   1.673   2.681
 3485TIP3    H210401   5.974   1.612   2.556
 3486TIP3   OH210402   7.330   1.147   3.118
 3486TIP3    H110403   7.268   1.085   3.079
 3486TIP3    H210404   7.300   1.233   3.086
 3487TIP3   OH210405   3.302   2.021   5.150
 3487TIP3    H110406   3.350   1.944   5.121
 3487TIP3    H210407   3.229   2.027   5.088
 3488TIP3   OH210408   3.361   5.240   6.096
 3488TIP3    H110409   3.316   5.324   6.084
 3488TIP3    H210410   3.371   5.205   6.008
 3489TIP3   OH210411   2.620   5.798   5.398
 3489TIP3    H110412   2.528   5.806   5.422
 3489TIP3    H210413   2.654   5.887   5.401
 3490TIP3   OH210414   7.897   5.551   1.951
 3490TIP3    H110415   7.886   5.575   2.043
 3490TIP3    H210416   7.816   5.506   1.929
 3491TIP3   OH210417   7.888   3.693   5.368
 3491TIP3    H110418   7.978   3.705   5.397
 3491TIP3    H210419   7.895   3.651   5.282
 3492TIP3   OH210420   3.745   6.301   6.352
 3492TIP3    H110421   3.798   6.261   6.421
 3492TIP3    H210422   3.808   6.331   6.287
 3493TIP3   OH210423   3.324   5.522   6.011
 3493TIP3    H110424   3.297   5.586   6.077
 3493TIP3    H210425   3.410   5.554   5.981
 3494TIP3   OH210426   6.641   7.169   6.520
 3494TIP3    H110427   6.587   7.143   6.445
 3494TIP3    H210428   6.667   7.259   6.502
 3495TIP3   OH210429   7.495   5.252   3.787
 3495TIP3    H110430   7.485   5.172   3.839
 3495TIP3    H210431   7.478   5.323   3.848
 3496TIP3   OH210432   1.284   0.811   0.515
 3496TIP3    H110433   1.193   0.839   0.527
 3496TIP3    H210434   1.294   0.800   0.421
 3497TIP3   OH210435   6.056   4.530   3.310
 3497TIP3    H110436   6.047   4.473   3.386
 3497TIP3    H210437   6.070   4.470   3.237
 3498TIP3   OH210438   1.574   1.300   5.649
 3498TIP3    H110439   1.504   1.325   5.710
 3498TIP3    H210440   1.654   1.306   5.701
 3499TIP3   OH210441   5.890   2.486   1.770
 3499TIP3    H110442   5.798   2.461   1.781
 3499TIP3    H210443   5.890   2.545   1.695
 3500TIP3   OH210444   1.776   5.805   1.913
 3500TIP3    H110445   1.767   5.710   1.903
 3500TIP3    H210446   1.709   5.842   1.855
 3501TIP3   OH210447   4.903   1.925   3.071
 3501TIP3    H110448   4.927   1.982   2.998
 3501TIP3    H210449   4.899   1.983   3.147
 3502TIP3   OH210450   5.353   7.405   0.635
 3502TIP3    H110451   5.372   7.317   0.603
 3502TIP3    H210452   5.409   7.462   0.583
 3503TIP3   OH210453   4.425   1.893   3.811
 3503TIP3    H110454   4.332   1.874   3.801
 3503TIP3    H210455   4.434   1.985   3.787
 3504TIP3   OH210456   2.830   5.022   0.753
 3504TIP3    H110457   2.795   4.986   0.834
 3504TIP3    H210458   2.859   4.945   0.703
 3505TIP3   OH210459   5.825   4.772   4.131
 3505TIP3    H110460   5.738   4.753   4.094
 3505TIP3    H210461   5.868   4.686   4.136
 3506TIP3   OH210462   5.923   5.526   0.288
 3506TIP3    H110463   6.005   5.513   0.240
 3506TIP3    H210464   5.890   5.438   0.303
 3507TIP3   OH210465   5.428   0.056   5.131
 3507TIP3    H110466   5.459   0.131   5.181
 3507TIP3    H210467   5.484  -0.017   5.158
 3508TIP3   OH210468   4.218   1.229   3.986
 3508TIP3    H110469   4.258   1.278   4.058
 3508TIP3    H210470   4.244   1.139   4.002
 3509TIP3   OH210471   5.821   0.127   4.634
 3509TIP3    H110472   5.747   0.115   4.575
 3509TIP3    H210473   5.855   0.214   4.613
 3510TIP3   OH210474   5.131   1.915   1.258
 3510TIP3    H110475   5.175   1.967   1.191
 3510TIP3    H210476   5.072   1.857   1.209
 3511TIP3   OH210477   0.127   7.469   0.335
 3511TIP3    H110478   0.059   7.535   0.355
 3511TIP3    H210479   0.083   7.408   0.276
 3512TIP3   OH210480   8.100   6.369   5.070
 3512TIP3    H110481   8.095   6.297   5.007
 3512TIP3    H210482   8.029   6.428   5.045
 3513TIP3   OH210483   2.388   1.170   4.590
 3513TIP3    H110484   2.351   1.243   4.540
 3513TIP3    H210485   2.433   1.213   4.663
 3514TIP3   OH210486   1.147   0.337   2.684
 3514TIP3    H110487   1.240   0.342   2.707
 3514TIP3    H210488   1.102   0.350   2.767
 3515TIP3   OH210489   4.916   4.656   6.515
 3515TIP3    H110490   4.976   4.730   6.505
 3515TIP3    H210491   4.831   4.696   6.534
 3516TIP3   OH210492   2.768   4.514   1.112
 3516TIP3    H110493   2.798   4.427   1.137
 3516TIP3    H210494   2.716   4.544   1.187
 3517TIP3   OH210495   2.616   4.903   1.269
 3517TIP3    H110496   2.618   4.810   1.290
 3517TIP3    H210497   2.555   4.940   1.333
 3518TIP3   OH210498   4.530   0.586   3.473
 3518TIP3    H110499   4.541   0.628   3.388
 3518TIP3    H210500   4.559   0.496   3.460
 3519TIP3   OH210501   3.609   6.141   1.179
 3519TIP3    H110502   3.520   6.137   1.214
 3519TIP3    H210503   3.598   6.155   1.085
 3520TIP3   OH210504   7.303   0.539   3.840
 3520TIP3    H110505   7.378   0.505   3.791
 3520TIP3    H210506   7.330   0.627   3.867
 3521TIP3   OH210507   5.799   1.381   3.437
 3521TIP3    H110508   5.823   1.322   3.366
 3521TIP3    H210509   5.869   1.371   3.501
 3522TIP3   OH210510   0.534   2.164   6.104
 3522TIP3    H110511   0.570   2.250   6.125
 3522TIP3    H210512   0.494   2.175   6.018
 3523TIP3   OH210513   4.372   0.697   5.883
 3523TIP3    H110514   4.301   0.635   5.898
 3523TIP3    H210515   4.355   0.731   5.795
 3524TIP3   OH210516   5.163   3.444   3.114
 3524TIP3    H110517   5.154   3.350   3.097
 3524TIP3    H210518   5.221   3.448   3.191
 3525TIP3   OH210519   1.397   2.733   0.736
 3525TIP3    H110520   1.325   2.687   0.779
 3525TIP3    H210521   1.414   2.809   0.792
 3526TIP3   OH210522   1.958   7.662   3.262
 3526TIP3    H110523   2.038   7.613   3.246
 3526TIP3    H210524   1.923   7.681   3.175
 3527TIP3   OH210525   4.604   0.962   3.860
 3527TIP3    H110526   4.680   0.990   3.911
 3527TIP3    H210527   4.631   0.973   3.768
 3528TIP3   OH210528   2.323   1.044   2.723
 3528TIP3    H110529   2.307   1.138   2.710
 3528TIP3    H210530   2.318   1.032   2.818
 3529TIP3   OH210531   5.624   7.116   4.490
 3529TIP3    H110532   5.647   7.202   4.456
 3529TIP3    H210533   5.699   7.060   4.469
 3530TIP3   OH210534   3.617   5.335   5.823
 3530TIP3    H110535   3.623   5.239   5.826
 3530TIP3    H210536   3.523   5.353   5.822
 3531TIP3   OH210537   4.737   3.679   4.111
 3531TIP3    H110538   4.812   3.633   4.074
 3531TIP3    H210539   4.774   3.758   4.151
 3532TIP3   OH210540   4.519   1.531   1.034
 3532TIP3    H110541   4.510   1.456   0.976
 3532TIP3    H210542   4.482   1.604   0.985
 3533TIP3   OH210543   5.709   6.556   0.230
 3533TIP3    H110544   5.681   6.523   0.316
 3533TIP3    H210545   5.701   6.480   0.172
 3534TIP3   OH210546   3.319   2.676   0.141
 3534TIP3    H110547   3.232   2.707   0.166
 3534TIP3    H210548   3.339   2.608   0.206
 3535TIP3   OH210549   7.307   4.896   4.366
 3535TIP3    H110550   7.311   4.981   4.408
 3535TIP3    H210551   7.350   4.909   4.281
 3536TIP3   OH210552   3.652   1.994   2.913
 3536TIP3    H110553   3.566   1.953   2.927
 3536TIP3    H210554   3.676   2.030   2.999
 3537TIP3   OH210555   1.424   2.314   2.442
 3537TIP3    H110556   1.411   2.247   2.509
 3537TIP3    H210557   1.465   2.267   2.370
 3538TIP3   OH210558   2.609   6.029   5.599
 3538TIP3    H110559   2.579   6.105   5.649
 3538TIP3    H210560   2.675   5.988   5.655
 3539TIP3   OH210561   6.070   5.643   2.228
 3539TIP3    H110562   6.165   5.652   2.222
 3539TIP3    H210563   6.056   5.584   2.302
 3540TIP3   OH210564   4.267   5.504   3.499
 3540TIP3    H110565   4.272   5.514   3.594
 3540TIP3    H210566   4.175   5.486   3.481
 3541TIP3   OH210567   1.373   6.350   5.113
 3541TIP3    H110568   1.375   6.290   5.188
 3541TIP3    H210569   1.375   6.437   5.152
 3542TIP3   OH210570   1.549   4.925   2.002
 3542TIP3    H110571   1.556   4.842   1.955
 3542TIP3    H210572   1.613   4.917   2.073
 3543TIP3   OH210573   4.459   1.132   5.725
 3543TIP3    H110574   4.384   1.104   5.777
 3543TIP3    H210575   4.421   1.172   5.647
 3544TIP3   OH210576   8.282   4.176   2.707
 3544TIP3    H110577   8.270   4.213   2.619
 3544TIP3    H210578   8.359   4.120   2.699
 3545TIP3   OH210579   0.734   4.281   4.462
 3545TIP3    H110580   0.714   4.352   4.400
 3545TIP3    H210581   0.804   4.316   4.517
 3546TIP3   OH210582   4.629   7.134   0.688
 3546TIP3    H110583   4.557   7.196   0.693
 3546TIP3    H210584   4.618   7.091   0.603
 3547TIP3   OH210585   4.524   3.244   1.294
 3547TIP3    H110586   4.501   3.222   1.384
 3547TIP3    H210587   4.620   3.248   1.293
 3548TIP3   OH210588   0.419   1.222   3.108
 3548TIP3    H110589   0.443   1.169   3.032
 3548TIP3    H210590   0.431   1.163   3.183
 3549TIP3   OH210591   3.946   5.276   4.024
 3549TIP3    H110592   3.929   5.340   3.955
 3549TIP3    H210593   3.972   5.197   3.977
 3550TIP3   OH210594   1.467   2.041   0.789
 3550TIP3    H110595   1.467   1.954   0.749
 3550TIP3    H210596   1.556   2.054   0.820
 3551TIP3   OH210597   4.794   6.182   4.749
 3551TIP3    H110598   4.788   6.109   4.687
 3551TIP3    H210599   4.738   6.250   4.710
 3552TIP3   OH210600   5.099   0.799   0.744
 3552TIP3    H110601   5.116   0.792   0.650
 3552TIP3    H210602   5.186   0.807   0.784
 3553TIP3   OH210603   5.823   5.633   1.367
 3553TIP3    H110604   5.790   5.714   1.404
 3553TIP3    H210605   5.878   5.596   1.435
 3554TIP3   OH210606   6.507   5.844   6.732
 3554TIP3    H110607   6.445   5.893   6.678
 3554TIP3    H210608   6.493   5.877   6.821
 3555TIP3   OH210609   0.803   5.852   6.259
 3555TIP3    H110610   0.858   5.822   6.186
 3555TIP3    H210611   0.864   5.863   6.332
 3556TIP3   OH210612   0.084   0.756   2.403
 3556TIP3    H110613   0.100   0.672   2.445
 3556TIP3    H210614   0.034   0.806   2.467
 3557TIP3   OH210615   2.772   6.752   3.672
 3557TIP3    H110616   2.731   6.680   3.721
 3557TIP3    H210617   2.835   6.789   3.734
 3558TIP3   OH210618   1.673   7.699   5.630
 3558TIP3    H110619   1.730   7.749   5.571
 3558TIP3    H210620   1.584   7.727   5.607
 3559TIP3   OH210621   6.569   5.989   5.877
 3559TIP3    H110622   6.479   5.990   5.845
 3559TIP3    H210623   6.570   5.923   5.946
 3560TIP3   OH210624   1.645   0.128   4.256
 3560TIP3    H110625   1.593   0.187   4.311
 3560TIP3    H210626   1.710   0.185   4.215
 3561TIP3   OH210627   6.560   0.235   0.591
 3561TIP3    H110628   6.535   0.234   0.499
 3561TIP3    H210629   6.508   0.307   0.629
 3562TIP3   OH210630   5.756   1.862   0.335
 3562TIP3    H110631   5.779   1.846   0.243
 3562TIP3    H210632   5.783   1.952   0.352
 3563TIP3   OH210633   2.535   4.915   3.117
 3563TIP3    H110634   2.490   4.934   3.200
 3563TIP3    H210635   2.544   5.000   3.075
 3564TIP3   OH210636   4.992   4.936   1.171
 3564TIP3    H110637   4.981   5.031   1.168
 3564TIP3    H210638   4.960   4.911   1.257
 3565TIP3   OH210639   2.723   6.782   3.413
 3565TIP3    H110640   2.731   6.775   3.508
 3565TIP3    H210641   2.676   6.865   3.398
 3566TIP3   OH210642   1.281   4.538   1.431
 3566TIP3    H110643   1.220   4.610   1.419
 3566TIP3    H210644   1.368   4.579   1.424
 3567TIP3   OH210645   0.647   0.701   4.185
 3567TIP3    H110646   0.682   0.756   4.115
 3567TIP3    H210647   0.598   0.762   4.241
 3568TIP3   OH210648   0.041   6.775   1.177
 3568TIP3    H110649   0.052   6.710   1.108
 3568TIP3    H210650   0.116   6.834   1.166
 3569TIP3   OH210651   3.324   6.386   3.280
 3569TIP3    H110652   3.418   6.394   3.298
 3569TIP3    H210653   3.299   6.472   3.245
 3570TIP3   OH210654   0.389   1.935   4.399
 3570TIP3    H110655   0.428   1.959   4.315
 3570TIP3    H210656   0.464   1.932   4.460
 3571TIP3   OH210657   7.822   6.790   2.293
 3571TIP3    H110658   7.886   6.858   2.271
 3571TIP3    H210659   7.859   6.710   2.257
 3572TIP3   OH210660   5.230   3.186   6.719
 3572TIP3    H110661   5.178   3.225   6.649
 3572TIP3    H210662   5.298   3.251   6.737
 3573TIP3   OH210663   2.872   6.791   4.409
 3573TIP3    H110664   2.814   6.718   4.386
 3573TIP3    H210665   2.918   6.762   4.487
 3574TIP3   OH210666   1.958   2.657   3.272
 3574TIP3    H110667   1.899   2.732   3.262
 3574TIP3    H210668   2.002   2.671   3.356
 3575TIP3   OH210669   4.127   4.537   4.982
 3575TIP3    H110670   4.113   4.442   4.990
 3575TIP3    H210671   4.177   4.547   4.901
 3576TIP3   OH210672   7.497   0.117   0.305
 3576TIP3    H110673   7.438   0.173   0.355
 3576TIP3    H210674   7.490   0.032   0.348
 3577TIP3   OH210675   0.384   4.090   4.931
 3577TIP3    H110676   0.311   4.127   4.880
 3577TIP3    H210677   0.458   4.147   4.912
 3578TIP3   OH210678   3.874   0.293   2.750
 3578TIP3    H110679   3.918   0.332   2.826
 3578TIP3    H210680   3.789   0.336   2.748
 3579TIP3   OH210681   6.746   4.732   5.958
 3579TIP3    H110682   6.817   4.747   5.896
 3579TIP3    H210683   6.711   4.819   5.976
 3580TIP3   OH210684   6.373   0.736   2.036
 3580TIP3    H110685   6.381   0.645   2.008
 3580TIP3    H210686   6.322   0.731   2.117
 3581TIP3   OH210687   4.596   4.726   2.170
 3581TIP3    H110688   4.616   4.801   2.114
 3581TIP3    H210689   4.502   4.736   2.189
 3582TIP3   OH210690   7.992   2.237   3.944
 3582TIP3    H110691   7.941   2.195   3.875
 3582TIP3    H210692   7.929   2.292   3.990
 3583TIP3   OH210693   0.189   2.467   1.000
 3583TIP3    H110694   0.095   2.447   1.005
 3583TIP3    H210695   0.227   2.394   0.951
 3584TIP3   OH210696   2.684   6.922   5.652
 3584TIP3    H110697   2.709   6.848   5.707
 3584TIP3    H210698   2.593   6.939   5.673
 3585TIP3   OH210699   3.345   4.939   4.027
 3585TIP3    H110700   3.254   4.969   4.033
 3585TIP3    H210701   3.396   5.010   4.067
 3586TIP3   OH210702   0.869   0.817   1.544
 3586TIP3    H110703   0.936   0.781   1.486
 3586TIP3    H210704   0.915   0.835   1.626
 3587TIP3   OH210705   1.922   4.996   4.702
 3587TIP3    H110706   1.976   4.929   4.659
 3587TIP3    H210707   1.907   5.062   4.634
 3588TIP3   OH210708   4.869   3.178   4.888
 3588TIP3    H110709   4.868   3.107   4.952
 3588TIP3    H210710   4.881   3.257   4.941
 3589TIP3   OH210711   7.375   6.491   1.850
 3589TIP3    H110712   7.334   6.574   1.875
 3589TIP3    H210713   7.329   6.464   1.770
 3590TIP3   OH210714   4.466   0.464   4.250
 3590TIP3    H110715   4.540   0.516   4.282
 3590TIP3    H210716   4.407   0.457   4.325
 3591TIP3   OH210717   5.562   5.353   1.241
 3591TIP3    H110718   5.500   5.310   1.182
 3591TIP3    H210719   5.528   5.442   1.250
 3592TIP3   OH210720   5.197   3.434   4.842
 3592TIP3    H110721   5.223   3.397   4.927
 3592TIP3    H210722   5.152   3.515   4.865
 3593TIP3   OH210723   2.013   4.116   6.542
 3593TIP3    H110724   1.935   4.172   6.548
 3593TIP3    H210725   1.986   4.043   6.487
 3594TIP3   OH210726   6.676   7.553   3.224
 3594TIP3    H110727   6.709   7.528   3.137
 3594TIP3    H210728   6.650   7.470   3.265
 3595TIP3   OH210729   2.295   6.509   3.152
 3595TIP3    H110730   2.339   6.594   3.158
 3595TIP3    H210731   2.352   6.455   3.097
 3596TIP3   OH210732   0.804   3.859   0.216
 3596TIP3    H110733   0.749   3.828   0.144
 3596TIP3    H210734   0.889   3.818   0.201
 3597TIP3   OH210735   7.273   4.250  -0.021
 3597TIP3    H110736   7.310   4.180  -0.075
 3597TIP3    H210737   7.331   4.254   0.055
 3598TIP3   OH210738   4.648   5.993   4.211
 3598TIP3    H110739   4.651   5.977   4.117
 3598TIP3    H210740   4.590   5.925   4.245
 3599TIP3   OH210741   7.696   7.127   3.001
 3599TIP3    H110742   7.720   7.105   3.091
 3599TIP3    H210743   7.657   7.215   3.007
 3600TIP3   OH210744   6.318   2.162   6.655
 3600TIP3    H110745   6.318   2.115   6.738
 3600TIP3    H210746   6.355   2.099   6.592
 3601TIP3   OH210747   4.383   6.091   1.666
 3601TIP3    H110748   4.345   6.160   1.720
 3601TIP3    H210749   4.461   6.131   1.628
 3602TIP3   OH210750   3.912   6.366   6.561
 3602TIP3    H110751   3.977   6.337   6.625
 3602TIP3    H210752   3.960   6.423   6.502
 3603TIP3   OH210753   4.715   0.006   4.499
 3603TIP3    H110754   4.751   0.058   4.571
 3603TIP3    H210755   4.644   0.060   4.464
 3604TIP3   OH210756   2.264   7.789   4.052
 3604TIP3    H110757   2.313   7.772   4.132
 3604TIP3    H210758   2.292   7.720   3.992
 3605TIP3   OH210759   5.861   6.254   4.398
 3605TIP3    H110760   5.819   6.218   4.320
 3605TIP3    H210761   5.793   6.249   4.466
 3606TIP3   OH210762   6.737   5.004   5.985
 3606TIP3    H110763   6.770   5.048   5.907
 3606TIP3    H210764   6.643   5.025   5.986
 3607TIP3   OH210765   7.978   1.400   3.634
 3607TIP3    H110766   8.014   1.465   3.694
 3607TIP3    H210767   8.040   1.327   3.638
 3608TIP3   OH210768   0.443   2.143   0.425
 3608TIP3    H110769   0.358   2.186   0.422
 3608TIP3    H210770   0.455   2.119   0.517
 3609TIP3   OH210771   1.839   5.884   2.195
 3609TIP3    H110772   1.806   5.863   2.108
 3609TIP3    H210773   1.815   5.808   2.249
 3610TIP3   OH210774   7.337   7.126   0.132
 3610TIP3    H110775   7.409   7.095   0.077
 3610TIP3    H210776   7.365   7.103   0.221
 3611TIP3   OH210777   7.850   3.293   0.746
 3611TIP3    H110778   7.942   3.300   0.723
 3611TIP3    H210779   7.820   3.214   0.700
 3612TIP3   OH210780   5.431   4.094   5.204
 3612TIP3    H110781   5.368   4.084   5.276
 3612TIP3    H210782   5.449   4.004   5.177
 3613TIP3   OH210783   0.562   6.835   3.767
 3613TIP3    H110784   0.471   6.836   3.795
 3613TIP3    H210785   0.573   6.752   3.721
 3614TIP3   OH210786   2.164   0.319   1.936
 3614TIP3    H110787   2.091   0.258   1.930
 3614TIP3    H210788   2.198   0.307   2.025
 3615TIP3   OH210789   7.030   3.762   3.126
 3615TIP3    H110790   7.030   3.817   3.047
 3615TIP3    H210791   7.100   3.799   3.181
 3616TIP3   OH210792   2.792   6.350   5.159
 3616TIP3    H110793   2.805   6.333   5.252
 3616TIP3    H210794   2.697   6.346   5.147
 3617TIP3   OH210795   6.208   0.458   6.247
 3617TIP3    H110796   6.130   0.413   6.214
 3617TIP3    H210797   6.282   0.408   6.212
 3618TIP3   OH210798   5.286   3.197   3.963
 3618TIP3    H110799   5.250   3.203   3.874
 3618TIP3    H210800   5.290   3.288   3.993
 3619TIP3   OH210801   7.399   2.699   5.892
 3619TIP3    H110802   7.369   2.737   5.809
 3619TIP3    H210803   7.363   2.757   5.959
 3620TIP3   OH210804   3.816   4.349   1.047
 3620TIP3    H110805   3.894   4.340   1.101
 3620TIP3    H210806   3.830   4.429   0.997
 3621TIP3   OH210807   1.729   5.641   4.381
 3621TIP3    H110808   1.709   5.723   4.336
 3621TIP3    H210809   1.823   5.644   4.397
 3622TIP3   OH210810   7.450   4.885   6.468
 3622TIP3    H110811   7.499   4.824   6.413
 3622TIP3    H210812   7.364   4.844   6.479
 3623TIP3   OH210813   2.389   4.233   0.143
 3623TIP3    H110814   2.422   4.297   0.080
 3623TIP3    H210815   2.376   4.154   0.091
 3624TIP3   OH210816   3.274   3.779   4.769
 3624TIP3    H110817   3.319   3.695   4.770
 3624TIP3    H210818   3.323   3.832   4.706
 3625TIP3   OH210819   1.012   4.426   3.032
 3625TIP3    H110820   0.974   4.348   3.073
 3625TIP3    H210821   0.946   4.454   2.968
 3626TIP3   OH210822   0.549   5.556   6.117
 3626TIP3    H110823   0.623   5.515   6.073
 3626TIP3    H210824   0.473   5.531   6.064
 3627TIP3   OH210825   4.170   6.362   1.505
 3627TIP3    H110826   4.253   6.347   1.459
 3627TIP3    H210827   4.189   6.341   1.596
 3628TIP3   OH210828   6.027   3.946   2.149
 3628TIP3    H110829   6.097   3.894   2.110
 3628TIP3    H210830   6.068   3.988   2.225
 3629TIP3   OH210831   2.808   6.534   6.133
 3629TIP3    H110832   2.837   6.521   6.224
 3629TIP3    H210833   2.843   6.458   6.086
 3630TIP3   OH210834   4.955   1.937   0.827
 3630TIP3    H110835   5.013   2.012   0.813
 3630TIP3    H210836   4.985   1.872   0.764
 3631TIP3   OH210837   5.303   3.392   4.590
 3631TIP3    H110838   5.265   3.429   4.670
 3631TIP3    H210839   5.395   3.379   4.610
 3632TIP3   OH210840   4.846   5.437   0.866
 3632TIP3    H110841   4.818   5.349   0.844
 3632TIP3    H210842   4.807   5.493   0.798
 3633TIP3   OH210843   1.661   4.502   4.254
 3633TIP3    H110844   1.727   4.500   4.184
 3633TIP3    H210845   1.582   4.535   4.212
 3634TIP3   OH210846   4.162   5.200   1.946
 3634TIP3    H110847   4.170   5.106   1.932
 3634TIP3    H210848   4.208   5.216   2.028
 3635TIP3   OH210849   6.491   1.416   0.363
 3635TIP3    H110850   6.464   1.490   0.308
 3635TIP3    H210851   6.464   1.338   0.314
 3636TIP3   OH210852   1.371   0.313   4.708
 3636TIP3    H110853   1.352   0.395   4.662
 3636TIP3    H210854   1.296   0.256   4.688
 3637TIP3   OH210855   1.947   6.109   0.893
 3637TIP3    H110856   1.977   6.180   0.838
 3637TIP3    H210857   1.880   6.064   0.841
 3638TIP3   OH210858   5.617   1.213   4.126
 3638TIP3    H110859   5.659   1.265   4.057
 3638TIP3    H210860   5.622   1.269   4.204
 3639TIP3   OH210861   7.360   3.009   5.718
 3639TIP3    H110862   7.401   3.030   5.802
 3639TIP3    H210863   7.432   2.978   5.663
 3640TIP3   OH210864   7.781   4.011   4.480
 3640TIP3    H110865   7.822   4.043   4.399
 3640TIP3    H210866   7.688   4.004   4.457
 3641TIP3   OH210867   6.643   5.610   6.089
 3641TIP3    H110868   6.560   5.641   6.125
 3641TIP3    H210869   6.710   5.661   6.134
 3642TIP3   OH210870   0.352   7.761   1.148
 3642TIP3    H110871   0.327   7.704   1.075
 3642TIP3    H210872   0.438   7.728   1.176
 3643TIP3   OH210873   3.640   0.560   5.705
 3643TIP3    H110874   3.580   0.634   5.707
 3643TIP3    H210875   3.637   0.523   5.793
 3644TIP3   OH210876   2.056   3.179   4.093
 3644TIP3    H110877   2.139   3.132   4.085
 3644TIP3    H210878   1.989   3.111   4.086
 3645TIP3   OH210879   6.409   4.874   3.680
 3645TIP3    H110880   6.459   4.823   3.616
 3645TIP3    H210881   6.449   4.961   3.678
 3646TIP3   OH210882   6.493   7.311   5.679
 3646TIP3    H110883   6.488   7.360   5.762
 3646TIP3    H210884   6.437   7.360   5.619
 3647TIP3   OH210885   7.385   5.891   1.092
 3647TIP3    H110886   7.294   5.900   1.062
 3647TIP3    H210887   7.435   5.946   1.031
 3648TIP3   OH210888   5.572   6.570   3.869
 3648TIP3    H110889   5.548   6.614   3.951
 3648TIP3    H210890   5.512   6.495   3.865
 3649TIP3   OH210891   0.144   2.669   4.925
 3649TIP3    H110892   0.058   2.641   4.956
 3649TIP3    H210893   0.132   2.684   4.831
 3650TIP3   OH210894   3.345   0.723   0.752
 3650TIP3    H110895   3.421   0.746   0.698
 3650TIP3    H210896   3.322   0.804   0.797
 3651TIP3   OH210897   2.076   6.777   1.055
 3651TIP3    H110898   2.036   6.801   1.139
 3651TIP3    H210899   2.022   6.821   0.990
 3652TIP3   OH210900   4.886   6.754   6.608
 3652TIP3    H110901   4.834   6.778   6.532
 3652TIP3    H210902   4.824   6.714   6.668
 3653TIP3   OH210903   0.366   4.343   2.055
 3653TIP3    H110904   0.454   4.372   2.078
 3653TIP3    H210905   0.336   4.293   2.131
 3654TIP3   OH210906   3.988   5.668   6.222
 3654TIP3    H110907   3.925   5.689   6.153
 3654TIP3    H210908   3.959   5.719   6.298
 3655TIP3   OH210909   6.269   4.906   1.845
 3655TIP3    H110910   6.243   4.997   1.832
 3655TIP3    H210911   6.364   4.909   1.847
 3656TIP3   OH210912   8.107   0.405   0.556
 3656TIP3    H110913   8.094   0.316   0.523
 3656TIP3    H210914   8.192   0.432   0.521
 3657TIP3   OH210915   0.692   1.544   3.352
 3657TIP3    H110916   0.708   1.638   3.345
 3657TIP3    H210917   0.707   1.525   3.445
 3658TIP3   OH210918   0.682   3.142   0.615
 3658TIP3    H110919   0.696   3.218   0.671
 3658TIP3    H210920   0.617   3.089   0.662
 3659TIP3   OH210921   1.480   4.354   1.950
 3659TIP3    H110922   1.460   4.359   1.857
 3659TIP3    H210923   1.396   4.342   1.993
 3660TIP3   OH210924   1.730   4.716   3.049
 3660TIP3    H110925   1.660   4.740   2.988
 3660TIP3    H210926   1.710   4.766   3.128
 3661TIP3   OH210927   6.409   1.747   4.321
 3661TIP3    H110928   6.411   1.829   4.371
 3661TIP3    H210929   6.343   1.693   4.366
 3662TIP3   OH210930   3.752   0.386   1.638
 3662TIP3    H110931   3.720   0.460   1.689
 3662TIP3    H210932   3.713   0.309   1.679
 3663TIP3   OH210933   2.308   3.740   3.734
 3663TIP3    H110934   2.298   3.758   3.641
 3663TIP3    H210935   2.400   3.719   3.745
 3664TIP3   OH210936   4.843   3.140   4.082
 3664TIP3    H110937   4.840   3.059   4.134
 3664TIP3    H210938   4.753   3.174   4.086
 3665TIP3   OH210939   4.827   6.990   5.576
 3665TIP3    H110940   4.800   7.020   5.663
 3665TIP3    H210941   4.916   6.958   5.589
 3666TIP3   OH210942   5.922   7.289   6.078
 3666TIP3    H110943   6.003   7.240   6.090
 3666TIP3    H210944   5.897   7.272   5.987
 3667TIP3   OH210945   4.135   3.520   6.124
 3667TIP3    H110946   4.110   3.438   6.166
 3667TIP3    H210947   4.064   3.581   6.145
 3668TIP3   OH210948   7.910   7.747   1.246
 3668TIP3    H110949   7.847   7.778   1.312
 3668TIP3    H210950   7.925   7.656   1.269
 3669TIP3   OH210951   5.859   7.655   4.071
 3669TIP3    H110952   5.884   7.730   4.017
 3669TIP3    H210953   5.894   7.675   4.158
 3670TIP3   OH210954   2.607   7.855   3.169
 3670TIP3    H110955   2.678   7.819   3.115
 3670TIP3    H210956   2.630   7.828   3.258
 3671TIP3   OH210957   1.762   7.223   5.245
 3671TIP3    H110958   1.850   7.200   5.275
 3671TIP3    H210959   1.773   7.307   5.201
 3672TIP3   OH210960   8.124   7.624   2.438
 3672TIP3    H110961   8.216   7.624   2.410
 3672TIP3    H210962   8.077   7.587   2.363
 3673TIP3   OH210963   2.995   5.720   4.897
 3673TIP3    H110964   2.917   5.732   4.951
 3673TIP3    H210965   2.982   5.778   4.822
 3674TIP3   OH210966   4.630   6.223   3.254
 3674TIP3    H110967   4.584   6.150   3.213
 3674TIP3    H210968   4.682   6.262   3.184
 3675TIP3   OH210969   4.117   1.688   5.088
 3675TIP3    H110970   4.166   1.606   5.076
 3675TIP3    H210971   4.074   1.679   5.173
 3676TIP3   OH210972   2.448   5.575   5.768
 3676TIP3    H110973   2.404   5.635   5.828
 3676TIP3    H210974   2.377   5.529   5.723
 3677TIP3   OH210975   4.209   3.951   2.216
 3677TIP3    H110976   4.277   3.991   2.271
 3677TIP3    H210977   4.235   3.972   2.127
 3678TIP3   OH210978   4.436   4.869   1.828
 3678TIP3    H110979   4.384   4.914   1.761
 3678TIP3    H210980   4.371   4.829   1.885
 3679TIP3   OH210981   2.639   6.936   1.163
 3679TIP3    H110982   2.583   7.014   1.160
 3679TIP3    H210983   2.722   6.967   1.199
 3680TIP3   OH210984   7.490   1.590   3.395
 3680TIP3    H110985   7.455   1.677   3.415
 3680TIP3    H210986   7.471   1.538   3.473
 3681TIP3   OH210987   5.656   4.453   3.828
 3681TIP3    H110988   5.684   4.447   3.737
 3681TIP3    H210989   5.679   4.542   3.854
 3682TIP3   OH210990   6.535   2.577   6.147
 3682TIP3    H110991   6.565   2.584   6.238
 3682TIP3    H210992   6.458   2.521   6.152
 3683TIP3   OH210993   6.711   6.389   1.282
 3683TIP3    H110994   6.641   6.450   1.306
 3683TIP3    H210995   6.784   6.446   1.258
 3684TIP3   OH210996   8.179   1.468   4.946
 3684TIP3    H110997   8.177   1.464   5.042
 3684TIP3    H210998   8.129   1.547   4.924
 3685TIP3   OH210999   1.822   1.704   2.971
 3685TIP3    H111000   1.763   1.709   3.047
 3685TIP3    H211001   1.765   1.680   2.898
 3686TIP3   OH211002   6.700   0.074   2.760
 3686TIP3    H111003   6.757   0.136   2.715
 3686TIP3    H211004   6.744  -0.010   2.753
 3687TIP3   OH211005   1.791   6.850   1.889
 3687TIP3    H111006   1.793   6.928   1.944
 3687TIP3    H211007   1.751   6.783   1.945
 3688TIP3   OH211008   4.277   6.565   3.183
 3688TIP3    H111009   4.312   6.654   3.188
 3688TIP3    H211010   4.263   6.541   3.275
 3689TIP3   OH211011   6.122   6.671   3.814
 3689TIP3    H111012   6.189   6.726   3.856
 3689TIP3    H211013   6.045   6.727   3.809
 3690TIP3   OH211014   5.753   5.945   2.343
 3690TIP3    H111015   5.670   5.992   2.338
 3690TIP3    H211016   5.782   5.957   2.434
 3691TIP3   OH211017   2.059   0.816   2.221
 3691TIP3    H111018   1.971   0.825   2.257
 3691TIP3    H211019   2.067   0.889   2.159
 3692TIP3   OH211020   5.833   7.146   6.562
 3692TIP3    H111021   5.825   7.067   6.509
 3692TIP3    H211022   5.825   7.114   6.652
 3693TIP3   OH211023   6.477   7.556   5.119
 3693TIP3    H111024   6.479   7.519   5.031
 3693TIP3    H211025   6.568   7.550   5.149
 3694TIP3   OH211026   5.979   7.707   3.075
 3694TIP3    H111027   6.053   7.682   3.020
 3694TIP3    H211028   5.920   7.632   3.070
 3695TIP3   OH211029   3.087   3.661   4.960
 3695TIP3    H111030   3.118   3.652   5.050
 3695TIP3    H211031   3.160   3.701   4.913
 3696TIP3   OH211032   5.616   0.698   5.271
 3696TIP3    H111033   5.621   0.655   5.356
 3696TIP3    H211034   5.546   0.763   5.282
 3697TIP3   OH211035   1.274   6.525   1.470
 3697TIP3    H111036   1.227   6.447   1.498
 3697TIP3    H211037   1.357   6.492   1.435
 3698TIP3   OH211038   1.568   7.403   2.383
 3698TIP3    H111039   1.583   7.339   2.452
 3698TIP3    H211040   1.578   7.355   2.302
 3699TIP3   OH211041   6.769   3.125   3.972
 3699TIP3    H111042   6.678   3.102   3.956
 3699TIP3    H211043   6.768   3.219   3.987
 3700TIP3   OH211044   0.561   0.843   3.770
 3700TIP3    H111045   0.526   0.912   3.714
 3700TIP3    H211046   0.490   0.822   3.830
 3701TIP3   OH211047   6.335   4.316   6.254
 3701TIP3    H111048   6.323   4.254   6.182
 3701TIP3    H211049   6.409   4.281   6.304
 3702TIP3   OH211050   4.737   7.485   0.570
 3702TIP3    H111051   4.819   7.519   0.606
 3702TIP3    H211052   4.688   7.454   0.646
 3703TIP3   OH211053   0.111   1.210   3.883
 3703TIP3    H111054   0.198   1.193   3.920
 3703TIP3    H211055   0.085   1.127   3.843
 3704TIP3   OH211056   3.477   0.404   3.981
 3704TIP3    H111057   3.402   0.356   3.947
 3704TIP3    H211058   3.552   0.368   3.935
 3705TIP3   OH211059   4.736   5.067   3.148
 3705TIP3    H111060   4.733   4.972   3.157
 3705TIP3    H211061   4.648   5.091   3.120
 3706TIP3   OH211062   2.037   6.104   2.262
 3706TIP3    H111063   1.973   6.040   2.231
 3706TIP3    H211064   2.088   6.057   2.329
 3707TIP3   OH211065   7.791   3.219   5.373
 3707TIP3    H111066   7.764   3.240   5.284
 3707TIP3    H211067   7.789   3.302   5.419
 3708TIP3   OH211068   8.074   1.116   6.160
 3708TIP3    H111069   8.095   1.060   6.085
 3708TIP3    H211070   8.135   1.189   6.154
 3709TIP3   OH211071   5.055   3.274   6.506
 3709TIP3    H111072   4.974   3.287   6.556
 3709TIP3    H211073   5.054   3.343   6.440
 3710TIP3   OH211074   6.675   5.922   2.971
 3710TIP3    H111075   6.672   5.989   2.903
 3710TIP3    H211076   6.751   5.868   2.947
 3711TIP3   OH211077   1.500   2.048   3.318
 3711TIP3    H111078   1.509   2.036   3.413
 3711TIP3    H211079   1.588   2.031   3.284
 3712TIP3   OH211080   2.525   1.941   0.672
 3712TIP3    H111081   2.581   1.980   0.739
 3712TIP3    H211082   2.579   1.940   0.593
 3713TIP3   OH211083   3.404   1.677   5.944
 3713TIP3    H111084   3.499   1.670   5.948
 3713TIP3    H211085   3.374   1.652   6.032
 3714TIP3   OH211086   4.040   7.191   4.496
 3714TIP3    H111087   4.024   7.259   4.562
 3714TIP3    H211088   4.130   7.162   4.513
 3715TIP3   OH211089   8.048   0.741   1.085
 3715TIP3    H111090   8.003   0.729   1.169
 3715TIP3    H211091   8.086   0.828   1.091
 3716TIP3   OH211092   3.940   3.926   5.049
 3716TIP3    H111093   3.927   4.019   5.031
 3716TIP3    H211094   3.866   3.901   5.104
 3717TIP3   OH211095   8.056   7.451   2.203
 3717TIP3    H111096   7.964   7.428   2.206
 3717TIP3    H211097   8.069   7.489   2.116
 3718TIP3   OH211098   6.243   0.425   5.351
 3718TIP3    H111099   6.291   0.363   5.406
 3718TIP3    H211100   6.237   0.504   5.405
 3719TIP3   OH211101   5.001   2.954   4.324
 3719TIP3    H111102   5.052   2.943   4.244
 3719TIP3    H211103   4.982   2.865   4.352
 3720TIP3   OH211104   7.246   4.882   2.496
 3720TIP3    H111105   7.247   4.877   2.400
 3720TIP3    H211106   7.159   4.916   2.517
 3721TIP3   OH211107   2.682   0.041   6.142
 3721TIP3    H111108   2.694  -0.051   6.121
 3721TIP3    H211109   2.632   0.077   6.068
 3722TIP3   OH211110   7.697   6.978   6.240
 3722TIP3    H111111   7.703   6.894   6.285
 3722TIP3    H211112   7.743   7.039   6.298
 3723TIP3   OH211113   0.844   4.667   0.891
 3723TIP3    H111114   0.758   4.663   0.850
 3723TIP3    H211115   0.827   4.659   0.985
 3724TIP3   OH211116   2.366   2.811   0.252
 3724TIP3    H111117   2.461   2.820   0.237
 3724TIP3    H211118   2.341   2.892   0.296
 3725TIP3   OH211119   7.192   4.532   2.953
 3725TIP3    H111120   7.171   4.507   2.863
 3725TIP3    H211121   7.184   4.451   3.003
 3726TIP3   OH211122   7.445   6.643   3.242
 3726TIP3    H111123   7.393   6.576   3.198
 3726TIP3    H211124   7.467   6.605   3.326
 3727TIP3   OH211125   5.536   4.776   5.758
 3727TIP3    H111126   5.607   4.823   5.800
 3727TIP3    H211127   5.575   4.692   5.732
 3728TIP3   OH211128   5.541   7.098   2.127
 3728TIP3    H111129   5.505   7.181   2.156
 3728TIP3    H211130   5.594   7.067   2.201
 3729TIP3   OH211131   0.671   1.206   5.920
 3729TIP3    H111132   0.650   1.288   5.875
 3729TIP3    H211133   0.589   1.178   5.960
 3730TIP3   OH211134   1.729   0.053   5.872
 3730TIP3    H111135   1.729  -0.017   5.807
 3730TIP3    H211136   1.821   0.075   5.883
 3731TIP3   OH211137   5.862   1.726   1.576
 3731TIP3    H111138   5.781   1.746   1.529
 3731TIP3    H211139   5.867   1.793   1.644
 3732TIP3   OH211140   6.745   2.249   6.449
 3732TIP3    H111141   6.814   2.190   6.418
 3732TIP3    H211142   6.757   2.253   6.544
 3733TIP3   OH211143   7.069   0.136   2.186
 3733TIP3    H111144   7.022   0.158   2.105
 3733TIP3    H211145   7.001   0.106   2.246
 3734TIP3   OH211146   0.366   2.504   5.467
 3734TIP3    H111147   0.305   2.443   5.509
 3734TIP3    H211148   0.439   2.511   5.528
 3735TIP3   OH211149   0.365   0.893   1.575
 3735TIP3    H111150   0.407   0.846   1.503
 3735TIP3    H211151   0.301   0.831   1.609
 3736TIP3   OH211152   7.368   0.644   4.565
 3736TIP3    H111153   7.382   0.560   4.520
 3736TIP3    H211154   7.307   0.623   4.635
 3737TIP3   OH211155   5.894   1.927   4.915
 3737TIP3    H111156   5.970   1.963   4.961
 3737TIP3    H211157   5.918   1.836   4.898
 3738TIP3   OH211158   0.985   0.938   6.332
 3738TIP3    H111159   0.984   0.981   6.417
 3738TIP3    H211160   1.045   0.991   6.279
 3739TIP3   OH211161   4.246   2.805   5.641
 3739TIP3    H111162   4.201   2.759   5.712
 3739TIP3    H211163   4.204   2.891   5.638
 3740TIP3   OH211164   2.222   0.381   2.557
 3740TIP3    H111165   2.136   0.402   2.522
 3740TIP3    H211166   2.230   0.435   2.636
 3741TIP3   OH211167   8.024   6.327   2.035
 3741TIP3    H111168   8.075   6.321   2.116
 3741TIP3    H211169   8.069   6.393   1.983
 3742TIP3   OH211170   0.336   1.174   0.384
 3742TIP3    H111171   0.314   1.248   0.440
 3742TIP3    H211172   0.257   1.160   0.331
 3743TIP3   OH211173   7.805   3.530   0.846
 3743TIP3    H111174   7.887   3.580   0.845
 3743TIP3    H211175   7.832   3.441   0.824
 3744TIP3   OH211176   3.973   6.517   1.230
 3744TIP3    H111177   3.891   6.550   1.192
 3744TIP3    H211178   4.042   6.557   1.177
 3745TIP3   OH211179   0.564   7.294   1.691
 3745TIP3    H111180   0.540   7.366   1.632
 3745TIP3    H211181   0.658   7.305   1.704
 3746TIP3   OH211182   8.330   3.051   4.694
 3746TIP3    H111183   8.265   3.048   4.624
 3746TIP3    H211184   8.286   3.013   4.770
 3747TIP3   OH211185   3.647   1.278   6.118
 3747TIP3    H111186   3.663   1.350   6.180
 3747TIP3    H211187   3.564   1.240   6.147
 3748TIP3   OH211188   2.991   6.131   6.612
 3748TIP3    H111189   3.076   6.168   6.586
 3748TIP3    H211190   2.937   6.208   6.632
 3749TIP3   OH211191   1.964   4.755   3.364
 3749TIP3    H111192   1.991   4.789   3.278
 3749TIP3    H211193   1.978   4.828   3.424
 3750TIP3   OH211194   7.552   5.372   4.313
 3750TIP3    H111195   7.593   5.458   4.307
 3750TIP3    H211196   7.479   5.385   4.374
 3751TIP3   OH211197   6.052   1.453   6.085
 3751TIP3    H111198   5.961   1.467   6.109
 3751TIP3    H211199   6.084   1.540   6.059
 3752TIP3   OH211200   2.888   2.433   5.776
 3752TIP3    H111201   2.917   2.502   5.836
 3752TIP3    H211202   2.940   2.356   5.801
 3753TIP3   OH211203   2.736   5.492   0.485
 3753TIP3    H111204   2.820   5.538   0.495
 3753TIP3    H211205   2.759   5.406   0.452
 3754TIP3   OH211206   0.837   3.243   6.613
 3754TIP3    H111207   0.749   3.267   6.583
 3754TIP3    H211208   0.824   3.217   6.704
 3755TIP3   OH211209   4.684   0.788   0.275
 3755TIP3    H111210   4.608   0.820   0.226
 3755TIP3    H211211   4.697   0.698   0.243
 3756TIP3   OH211212   6.326   5.824   4.164
 3756TIP3    H111213   6.244   5.821   4.213
 3756TIP3    H211214   6.332   5.739   4.122
 3757TIP3   OH211215   7.050   0.703   5.769
 3757TIP3    H111216   7.008   0.713   5.684
 3757TIP3    H211217   7.142   0.727   5.754
 3758TIP3   OH211218   2.125   5.573   1.820
 3758TIP3    H111219   2.146   5.650   1.874
 3758TIP3    H211220   2.038   5.546   1.849
 3759TIP3   OH211221   4.477   2.192   3.958
 3759TIP3    H111222   4.430   2.179   3.875
 3759TIP3    H211223   4.569   2.187   3.934
 3760TIP3   OH211224   4.942   1.139   4.552
 3760TIP3    H111225   5.015   1.109   4.606
 3760TIP3    H211226   4.973   1.220   4.511
 3761TIP3   OH211227   1.969   2.759   2.063
 3761TIP3    H111228   2.021   2.837   2.047
 3761TIP3    H211229   1.950   2.724   1.976
 3762TIP3   OH211230   4.291   6.949   5.224
 3762TIP3    H111231   4.299   6.941   5.129
 3762TIP3    H211232   4.197   6.951   5.240
 3763TIP3   OH211233   1.289   2.908   3.053
 3763TIP3    H111234   1.363   2.883   2.999
 3763TIP3    H211235   1.218   2.850   3.025
 3764TIP3   OH211236   7.307   2.112   3.304
 3764TIP3    H111237   7.252   2.187   3.282
 3764TIP3    H211238   7.389   2.128   3.256
 3765TIP3   OH211239   5.140   2.245   1.615
 3765TIP3    H111240   5.072   2.248   1.548
 3765TIP3    H211241   5.157   2.152   1.628
 3766TIP3   OH211242   8.249   6.630   0.263
 3766TIP3    H111243   8.157   6.624   0.237
 3766TIP3    H211244   8.251   6.703   0.325
 3767TIP3   OH211245   5.679   5.190   0.518
 3767TIP3    H111246   5.629   5.136   0.579
 3767TIP3    H211247   5.639   5.277   0.526
 3768TIP3   OH211248   5.617   6.820   5.723
 3768TIP3    H111249   5.655   6.861   5.801
 3768TIP3    H211250   5.546   6.879   5.698
 3769TIP3   OH211251   6.375   0.614   5.144
 3769TIP3    H111252   6.313   0.547   5.175
 3769TIP3    H211253   6.327   0.662   5.076
 3770TIP3   OH211254   0.190   3.688   4.974
 3770TIP3    H111255   0.118   3.733   4.930
 3770TIP3    H211256   0.155   3.600   4.993
 3771TIP3   OH211257   0.714   3.405   2.730
 3771TIP3    H111258   0.680   3.494   2.718
 3771TIP3    H211259   0.641   3.357   2.767
 3772TIP3   OH211260   3.555   7.544   5.288
 3772TIP3    H111261   3.625   7.478   5.288
 3772TIP3    H211262   3.562   7.586   5.202
 3773TIP3   OH211263   3.465   6.337   0.559
 3773TIP3    H111264   3.425   6.420   0.533
 3773TIP3    H211265   3.392   6.285   0.594
 3774TIP3   OH211266   5.638   6.937   1.340
 3774TIP3    H111267   5.719   6.927   1.391
 3774TIP3    H211268   5.586   6.860   1.362
 3775TIP3   OH211269   3.963   4.326   0.197
 3775TIP3    H111270   3.946   4.407   0.148
 3775TIP3    H211271   3.885   4.314   0.252
 3776TIP3   OH211272   3.359   1.946   6.042
 3776TIP3    H111273   3.282   1.993   6.010
 3776TIP3    H211274   3.357   1.862   5.996
 3777TIP3   OH211275   0.848   2.666   2.166
 3777TIP3    H111276   0.841   2.598   2.099
 3777TIP3    H211277   0.774   2.650   2.224
 3778TIP3   OH211278   3.887   6.836   1.020
 3778TIP3    H111279   3.804   6.788   1.026
 3778TIP3    H211280   3.943   6.779   0.967
 3779TIP3   OH211281   1.625   7.044   6.349
 3779TIP3    H111282   1.654   6.954   6.358
 3779TIP3    H211283   1.700   7.090   6.309
 3780TIP3   OH211284   6.629   4.047   6.539
 3780TIP3    H111285   6.616   4.015   6.629
 3780TIP3    H211286   6.722   4.068   6.535
 3781TIP3   OH211287   2.108   1.521   3.150
 3781TIP3    H111288   2.183   1.463   3.158
 3781TIP3    H211289   2.122   1.569   3.069
 3782TIP3   OH211290   2.126   6.280   5.680
 3782TIP3    H111291   2.167   6.237   5.755
 3782TIP3    H211292   2.165   6.367   5.678
 3783TIP3   OH211293   3.793   2.516   5.994
 3783TIP3    H111294   3.742   2.485   6.068
 3783TIP3    H211295   3.873   2.463   5.995
 3784TIP3   OH211296   1.990   6.101   3.254
 3784TIP3    H111297   1.973   6.041   3.182
 3784TIP3    H211298   2.063   6.061   3.302
 3785TIP3   OH211299   6.791   4.999   6.503
 3785TIP3    H111300   6.758   4.990   6.413
 3785TIP3    H211301   6.850   4.924   6.514
 3786TIP3   OH211302   5.041   2.039   2.688
 3786TIP3    H111303   5.086   1.958   2.714
 3786TIP3    H211304   5.106   2.108   2.701
 3787TIP3   OH211305   1.452   2.040   2.544
 3787TIP3    H111306   1.542   2.012   2.554
 3787TIP3    H211307   1.418   1.986   2.471
 3788TIP3   OH211308   4.365   2.196   2.187
 3788TIP3    H111309   4.392   2.288   2.187
 3788TIP3    H211310   4.375   2.169   2.095
 3789TIP3   OH211311   1.311   2.313   0.736
 3789TIP3    H111312   1.359   2.237   0.704
 3789TIP3    H211313   1.251   2.279   0.802
 3790TIP3   OH211314   3.146   7.349   4.077
 3790TIP3    H111315   3.083   7.332   4.147
 3790TIP3    H211316   3.164   7.443   4.082
 3791TIP3   OH211317   1.979   6.792   0.653
 3791TIP3    H111318   1.989   6.731   0.727
 3791TIP3    H211319   1.917   6.748   0.595
 3792TIP3   OH211320   3.875   2.490   6.594
 3792TIP3    H111321   3.841   2.577   6.612
 3792TIP3    H211322   3.803   2.444   6.551
 3793TIP3   OH211323   1.715   6.508   6.202
 3793TIP3    H111324   1.712   6.584   6.144
 3793TIP3    H211325   1.646   6.450   6.169
 3794TIP3   OH211326   5.666   4.154   2.817
 3794TIP3    H111327   5.669   4.083   2.752
 3794TIP3    H211328   5.652   4.108   2.900
 3795TIP3   OH211329   8.184   5.347   6.658
 3795TIP3    H111330   8.236   5.289   6.601
 3795TIP3    H211331   8.096   5.310   6.657
 3796TIP3   OH211332   5.467   3.851   3.278
 3796TIP3    H111333   5.393   3.820   3.226
 3796TIP3    H211334   5.430   3.874   3.363
 3797TIP3   OH211335   7.955   0.599   0.247
 3797TIP3    H111336   7.907   0.633   0.172
 3797TIP3    H211337   7.965   0.675   0.305
 3798TIP3   OH211338   0.840   3.166   2.441
 3798TIP3    H111339   0.864   3.140   2.530
 3798TIP3    H211340   0.923   3.191   2.400
 3799TIP3   OH211341   7.959   2.464   6.471
 3799TIP3    H111342   7.869   2.459   6.501
 3799TIP3    H211343   7.953   2.485   6.378
 3800TIP3   OH211344   6.310   4.218   3.613
 3800TIP3    H111345   6.310   4.314   3.607
 3800TIP3    H211346   6.375   4.190   3.548
 3801TIP3   OH211347   2.356   6.472   3.603
 3801TIP3    H111348   2.423   6.424   3.651
 3801TIP3    H211349   2.335   6.416   3.529
 3802TIP3   OH211350   5.054   6.534   5.676
 3802TIP3    H111351   5.078   6.458   5.622
 3802TIP3    H211352   4.967   6.513   5.709
 3803TIP3   OH211353   0.752   3.453   4.237
 3803TIP3    H111354   0.667   3.481   4.271
 3803TIP3    H211355   0.782   3.525   4.183
 3804TIP3   OH211356   7.975   5.713   1.444
 3804TIP3    H111357   8.035   5.741   1.513
 3804TIP3    H211358   8.015   5.633   1.409
 3805TIP3   OH211359   3.475   0.283   2.464
 3805TIP3    H111360   3.479   0.206   2.407
 3805TIP3    H211361   3.383   0.309   2.462
 3806TIP3   OH211362   0.244   3.865   2.250
 3806TIP3    H111363   0.162   3.839   2.292
 3806TIP3    H211364   0.236   3.832   2.160
 3807TIP3   OH211365   6.952   0.172   1.946
 3807TIP3    H111366   6.925   0.212   1.863
 3807TIP3    H211367   6.873   0.177   2.001
 3808TIP3   OH211368   4.657   0.861   1.639
 3808TIP3    H111369   4.727   0.806   1.674
 3808TIP3    H211370   4.584   0.800   1.625
 3809TIP3   OH211371   6.910   1.977   0.390
 3809TIP3    H111372   6.886   2.024   0.470
 3809TIP3    H211373   6.941   2.045   0.331
 3810TIP3   OH211374   1.070   5.437   0.600
 3810TIP3    H111375   1.008   5.422   0.528
 3810TIP3    H211376   1.144   5.481   0.559
 3811TIP3   OH211377   3.184   0.486   6.416
 3811TIP3    H111378   3.218   0.510   6.330
 3811TIP3    H211379   3.121   0.554   6.438
 3812TIP3   OH211380   2.955   7.148   5.296
 3812TIP3    H111381   2.912   7.233   5.305
 3812TIP3    H211382   2.955   7.112   5.385
 3813TIP3   OH211383   3.684   4.251   3.712
 3813TIP3    H111384   3.654   4.196   3.785
 3813TIP3    H211385   3.631   4.330   3.718
 3814TIP3   OH211386   7.632   0.922   1.264
 3814TIP3    H111387   7.637   0.902   1.171
 3814TIP3    H211388   7.620   0.837   1.306
 3815TIP3   OH211389   3.976   2.277   2.181
 3815TIP3    H111390   4.002   2.343   2.246
 3815TIP3    H211391   4.032   2.202   2.199
 3816TIP3   OH211392   3.549   1.576   4.276
 3816TIP3    H111393   3.609   1.590   4.203
 3816TIP3    H211394   3.462   1.575   4.236
 3817TIP3   OH211395   8.227   5.779   2.479
 3817TIP3    H111396   8.265   5.693   2.494
 3817TIP3    H211397   8.302   5.836   2.460
 3818TIP3   OH211398   8.104   3.728   5.979
 3818TIP3    H111399   8.164   3.698   5.910
 3818TIP3    H211400   8.017   3.721   5.940
 3819TIP3   OH211401   3.743   2.917   0.039
 3819TIP3    H111402   3.734   3.011   0.026
 3819TIP3    H211403   3.654   2.886   0.055
 3820TIP3   OH211404   0.177   1.657   1.209
 3820TIP3    H111405   0.212   1.572   1.233
 3820TIP3    H211406   0.253   1.715   1.203
 3821TIP3   OH211407   2.021   3.018   0.988
 3821TIP3    H111408   2.099   3.044   0.939
 3821TIP3    H211409   2.011   2.925   0.969
 3822TIP3   OH211410   6.231   0.472   0.414
 3822TIP3    H111411   6.188   0.425   0.342
 3822TIP3    H211412   6.203   0.426   0.493
 3823TIP3   OH211413   5.689   6.741   6.081
 3823TIP3    H111414   5.643   6.666   6.042
 3823TIP3    H211415   5.621   6.791   6.125
 3824TIP3   OH211416   3.329   5.768   4.710
 3824TIP3    H111417   3.393   5.804   4.648
 3824TIP3    H211418   3.277   5.707   4.658
 3825TIP3   OH211419   5.706   2.155   4.716
 3825TIP3    H111420   5.701   2.248   4.692
 3825TIP3    H211421   5.670   2.109   4.640
 3826TIP3   OH211422   2.753   4.334   0.878
 3826TIP3    H111423   2.773   4.403   0.941
 3826TIP3    H211424   2.665   4.305   0.901
 3827TIP3   OH211425   3.531   4.707   6.386
 3827TIP3    H111426   3.594   4.644   6.352
 3827TIP3    H211427   3.576   4.792   6.380
 3828TIP3   OH211428   5.142   0.377   6.374
 3828TIP3    H111429   5.049   0.356   6.371
 3828TIP3    H211430   5.171   0.365   6.283
 3829TIP3   OH211431   6.330   3.913   2.021
 3829TIP3    H111432   6.324   3.844   1.955
 3829TIP3    H211433   6.355   3.867   2.101
 3830TIP3   OH211434   1.187   5.378   3.375
 3830TIP3    H111435   1.242   5.414   3.445
 3830TIP3    H211436   1.208   5.432   3.299
 3831TIP3   OH211437   8.262   5.922   0.513
 3831TIP3    H111438   8.311   5.961   0.585
 3831TIP3    H211439   8.291   5.831   0.510
 3832TIP3   OH211440   6.180   6.271   3.532
 3832TIP3    H111441   6.237   6.209   3.577
 3832TIP3    H211442   6.196   6.256   3.439
 3833TIP3   OH211443   8.229   0.085   5.634
 3833TIP3    H111444   8.152   0.058   5.685
 3833TIP3    H211445   8.245   0.175   5.661
 3834TIP3   OH211446   5.204   4.457   0.377
 3834TIP3    H111447   5.119   4.437   0.338
 3834TIP3    H211448   5.246   4.372   0.389
 3835TIP3   OH211449   3.144   3.235   6.211
 3835TIP3    H111450   3.052   3.221   6.189
 3835TIP3    H211451   3.145   3.249   6.306
 3836TIP3   OH211452   5.361   1.506   5.342
 3836TIP3    H111453   5.437   1.547   5.382
 3836TIP3    H211454   5.312   1.470   5.416
 3837TIP3   OH211455   7.674   2.262   5.548
 3837TIP3    H111456   7.716   2.277   5.464
 3837TIP3    H211457   7.631   2.345   5.569
 3838TIP3   OH211458   2.440   2.813   6.504
 3838TIP3    H111459   2.439   2.791   6.597
 3838TIP3    H211460   2.482   2.738   6.462
 3839TIP3   OH211461   0.309   4.521   0.135
 3839TIP3    H111462   0.386   4.483   0.093
 3839TIP3    H211463   0.301   4.608   0.095
 3840TIP3   OH211464   5.222  -0.002   1.935
 3840TIP3    H111465   5.158  -0.030   1.869
 3840TIP3    H211466   5.234   0.092   1.918
 3841TIP3   OH211467   7.720   7.315   0.852
 3841TIP3    H111468   7.681   7.266   0.925
 3841TIP3    H211469   7.646   7.363   0.814
 3842TIP3   OH211470   4.258   5.949   6.245
 3842TIP3    H111471   4.226   5.890   6.313
 3842TIP3    H211472   4.258   6.036   6.286
 3843TIP3   OH211473   7.074   3.152   1.869
 3843TIP3    H111474   7.098   3.075   1.921
 3843TIP3    H211475   6.983   3.135   1.844
 3844TIP3   OH211476   4.316   6.254   5.461
 3844TIP3    H111477   4.387   6.203   5.421
 3844TIP3    H211478   4.360   6.319   5.515
 3845TIP3   OH211479   6.228   4.492   6.069
 3845TIP3    H111480   6.253   4.583   6.085
 3845TIP3    H211481   6.268   4.443   6.141
 3846TIP3   OH211482   4.180   5.708   5.953
 3846TIP3    H111483   4.268   5.710   5.989
 3846TIP3    H211484   4.122   5.699   6.029
 3847TIP3   OH211485   3.956   3.625   4.745
 3847TIP3    H111486   4.012   3.683   4.796
 3847TIP3    H211487   4.009   3.601   4.669
 3848TIP3   OH211488   3.739   5.339   6.509
 3848TIP3    H111489   3.652   5.302   6.527
 3848TIP3    H211490   3.724   5.400   6.436
 3849TIP3   OH211491   5.424   6.109   3.985
 3849TIP3    H111492   5.515   6.081   3.986
 3849TIP3    H211493   5.376   6.033   3.952
 3850TIP3   OH211494   5.848   3.478   3.879
 3850TIP3    H111495   5.870   3.388   3.905
 3850TIP3    H211496   5.874   3.532   3.954
 3851TIP3   OH211497   0.203   6.584   0.359
 3851TIP3    H111498   0.107   6.583   0.349
 3851TIP3    H211499   0.218   6.547   0.446
 3852TIP3   OH211500   5.700   6.857   2.002
 3852TIP3    H111501   5.649   6.823   1.929
 3852TIP3    H211502   5.636   6.905   2.055
 3853TIP3   OH211503   4.548   0.144   3.880
 3853TIP3    H111504   4.563   0.214   3.943
 3853TIP3    H211505   4.636   0.113   3.858
 3854TIP3   OH211506   0.240   1.376   3.375
 3854TIP3    H111507   0.151   1.400   3.348
 3854TIP3    H211508   0.295   1.405   3.303
 3855TIP3   OH211509   4.175   1.097   0.952
 3855TIP3    H111510   4.266   1.083   0.979
 3855TIP3    H211511   4.135   1.011   0.958
 3856TIP3   OH211512   2.823   4.443   0.577
 3856TIP3    H111513   2.736   4.435   0.538
 3856TIP3    H211514   2.806   4.470   0.667
 3857TIP3   OH211515   1.955   7.708   2.619
 3857TIP3    H111516   1.933   7.764   2.694
 3857TIP3    H211517   1.887   7.727   2.555
 3858TIP3   OH211518   3.567   5.946   0.662
 3858TIP3    H111519   3.517   5.939   0.581
 3858TIP3    H211520   3.657   5.965   0.634
 3859TIP3   OH211521   6.756   4.336   5.490
 3859TIP3    H111522   6.683   4.377   5.537
 3859TIP3    H211523   6.749   4.368   5.401
 3860TIP3   OH211524   0.283   0.376   6.301
 3860TIP3    H111525   0.319   0.313   6.238
 3860TIP3    H211526   0.247   0.447   6.247
 3861TIP3   OH211527   3.626   5.396   3.343
 3861TIP3    H111528   3.668   5.314   3.317
 3861TIP3    H211529   3.553   5.406   3.282
 3862TIP3   OH211530   2.309   5.608   6.786
 3862TIP3    H111531   2.392   5.653   6.771
 3862TIP3    H211532   2.245   5.679   6.795
 3863TIP3   OH211533   7.318   7.027   3.559
 3863TIP3    H111534   7.244   6.967   3.573
 3863TIP3    H211535   7.375   7.011   3.634
 3864TIP3   OH211536   6.962   4.203   5.023
 3864TIP3    H111537   7.041   4.237   4.981
 3864TIP3    H211538   6.988   4.185   5.113
 3865TIP3   OH211539   2.183   5.099   3.116
 3865TIP3    H111540   2.148   5.182   3.149
 3865TIP3    H211541   2.215   5.120   3.028
 3866TIP3   OH211542   6.658   6.732   2.869
 3866TIP3    H111543   6.584   6.776   2.827
 3866TIP3    H211544   6.729   6.739   2.806
 3867TIP3   OH211545   2.661   4.651   1.367
 3867TIP3    H111546   2.743   4.615   1.399
 3867TIP3    H211547   2.595   4.585   1.392
 3868TIP3   OH211548   5.749   7.241   6.334
 3868TIP3    H111549   5.772   7.208   6.421
 3868TIP3    H211550   5.833   7.249   6.288
 3869TIP3   OH211551   4.856   6.804   4.105
 3869TIP3    H111552   4.859   6.756   4.023
 3869TIP3    H211553   4.808   6.746   4.165
 3870TIP3   OH211554   3.683   6.927   3.954
 3870TIP3    H111555   3.708   6.922   3.862
 3870TIP3    H211556   3.669   6.836   3.980
 3871TIP3   OH211557   0.569   2.489   2.703
 3871TIP3    H111558   0.505   2.554   2.733
 3871TIP3    H211559   0.546   2.473   2.612
 3872TIP3   OH211560   5.469   4.172   4.348
 3872TIP3    H111561   5.426   4.087   4.346
 3872TIP3    H211562   5.562   4.152   4.364
 3873TIP3   OH211563   0.069   7.326   1.845
 3873TIP3    H111564   0.126   7.301   1.918
 3873TIP3    H211565   0.128   7.370   1.783
 3874TIP3   OH211566   7.114   4.921   1.431
 3874TIP3    H111567   7.168   4.850   1.395
 3874TIP3    H211568   7.170   4.998   1.427
 3875TIP3   OH211569   0.810   0.539   2.745
 3875TIP3    H111570   0.901   0.511   2.750
 3875TIP3    H211571   0.806   0.595   2.668
 3876TIP3   OH211572   1.037   1.982   4.688
 3876TIP3    H111573   1.041   1.887   4.672
 3876TIP3    H211574   1.103   1.997   4.755
 3877TIP3   OH211575   5.087   0.180   3.907
 3877TIP3    H111576   5.069   0.096   3.948
 3877TIP3    H211577   5.063   0.245   3.974
 3878TIP3   OH211578   5.550   2.527   0.531
 3878TIP3    H111579   5.534   2.613   0.494
 3878TIP3    H211580   5.560   2.469   0.455
 3879TIP3   OH211581   2.049   2.305   0.641
 3879TIP3    H111582   1.980   2.365   0.668
 3879TIP3    H211583   2.007   2.248   0.576
 3880TIP3   OH211584   5.138   4.307   1.582
 3880TIP3    H111585   5.184   4.391   1.579
 3880TIP3    H211586   5.046   4.329   1.566
 3881TIP3   OH211587   3.005   3.381   3.106
 3881TIP3    H111588   3.047   3.379   3.020
 3881TIP3    H211589   2.985   3.473   3.121
 3882TIP3   OH211590   5.468   6.058   0.317
 3882TIP3    H111591   5.470   5.969   0.353
 3882TIP3    H211592   5.560   6.078   0.299
 3883TIP3   OH211593   6.931   0.685   5.519
 3883TIP3    H111594   6.865   0.716   5.458
 3883TIP3    H211595   6.897   0.603   5.553
 3884TIP3   OH211596   7.678   6.480   3.996
 3884TIP3    H111597   7.770   6.480   3.969
 3884TIP3    H211598   7.665   6.566   4.036
 3885TIP3   OH211599   5.603   0.202   0.058
 3885TIP3    H111600   5.656   0.233  -0.015
 3885TIP3    H211601   5.555   0.279   0.088
 3886TIP3   OH211602   6.892   2.529   6.103
 3886TIP3    H111603   6.909   2.438   6.081
 3886TIP3    H211604   6.832   2.526   6.178
 3887TIP3   OH211605   4.580   2.003   3.552
 3887TIP3    H111606   4.505   1.963   3.508
 3887TIP3    H211607   4.652   1.942   3.538
 3888TIP3   OH211608   2.602   5.836   6.217
 3888TIP3    H111609   2.683   5.793   6.189
 3888TIP3    H211610   2.537   5.809   6.152
 3889TIP3   OH211611   7.972   2.935   3.504
 3889TIP3    H111612   7.940   2.855   3.545
 3889TIP3    H211613   8.036   2.970   3.566
 3890TIP3   OH211614   6.323   2.987   6.485
 3890TIP3    H111615   6.360   2.998   6.573
 3890TIP3    H211616   6.282   2.900   6.488
 3891TIP3   OH211617   3.229   0.335   5.431
 3891TIP3    H111618   3.278   0.268   5.385
 3891TIP3    H211619   3.138   0.307   5.424
 3892TIP3   OH211620   5.417   5.925   1.261
 3892TIP3    H111621   5.487   5.922   1.196
 3892TIP3    H211622   5.337   5.929   1.209
 3893TIP3   OH211623   5.669   0.544   0.197
 3893TIP3    H111624   5.599   0.592   0.153
 3893TIP3    H211625   5.725   0.612   0.234
 3894TIP3   OH211626   2.614   2.391   4.572
 3894TIP3    H111627   2.601   2.331   4.498
 3894TIP3    H211628   2.554   2.358   4.640
 3895TIP3   OH211629   3.862   0.479   1.198
 3895TIP3    H111630   3.830   0.453   1.112
 3895TIP3    H211631   3.936   0.421   1.215
 3896TIP3   OH211632   3.164   3.443   1.496
 3896TIP3    H111633   3.092   3.407   1.549
 3896TIP3    H211634   3.223   3.369   1.482
 3897TIP3   OH211635   8.108   4.631   6.496
 3897TIP3    H111636   8.045   4.688   6.540
 3897TIP3    H211637   8.193   4.672   6.512
 3898TIP3   OH211638   6.217   5.432   1.044
 3898TIP3    H111639   6.199   5.342   1.018
 3898TIP3    H211640   6.131   5.469   1.066
 3899TIP3   OH211641   0.241   6.406   0.627
 3899TIP3    H111642   0.222   6.490   0.671
 3899TIP3    H211643   0.298   6.360   0.688
 3900TIP3   OH211644   4.130   5.374   0.346
 3900TIP3    H111645   4.128   5.466   0.371
 3900TIP3    H211646   4.215   5.362   0.305
 3901TIP3   OH211647   5.401   1.523   2.882
 3901TIP3    H111648   5.442   1.565   2.806
 3901TIP3    H211649   5.417   1.430   2.869
 3902TIP3   OH211650   6.469   7.398   6.129
 3902TIP3    H111651   6.394   7.391   6.070
 3902TIP3    H211652   6.460   7.484   6.169
 3903TIP3   OH211653   2.687   1.655   1.208
 3903TIP3    H111654   2.603   1.622   1.174
 3903TIP3    H211655   2.748   1.583   1.195
 3904TIP3   OH211656   4.357  -0.023   3.311
 3904TIP3    H111657   4.370  -0.065   3.226
 3904TIP3    H211658   4.405   0.059   3.306
 3905TIP3   OH211659   3.146   4.151   2.819
 3905TIP3    H111660   3.196   4.167   2.899
 3905TIP3    H211661   3.188   4.076   2.778
 3906TIP3   OH211662   1.665   7.695   0.143
 3906TIP3    H111663   1.572   7.674   0.142
 3906TIP3    H211664   1.669   7.790   0.136
 3907TIP3   OH211665   0.474   0.217   5.013
 3907TIP3    H111666   0.521   0.230   5.095
 3907TIP3    H211667   0.457   0.122   5.010
 3908TIP3   OH211668   8.080   6.034   0.267
 3908TIP3    H111669   8.102   5.948   0.232
 3908TIP3    H211670   8.120   6.036   0.354
 3909TIP3   OH211671   4.654   7.776   5.249
 3909TIP3    H111672   4.717   7.847   5.252
 3909TIP3    H211673   4.666   7.736   5.163
 3910TIP3   OH211674   2.837   5.335   3.908
 3910TIP3    H111675   2.843   5.400   3.979
 3910TIP3    H211676   2.808   5.255   3.951
 3911TIP3   OH211677   0.578   3.093   3.674
 3911TIP3    H111678   0.637   3.079   3.748
 3911TIP3    H211679   0.548   3.183   3.686
 3912TIP3   OH211680   3.240   4.828   3.024
 3912TIP3    H111681   3.309   4.778   3.069
 3912TIP3    H211682   3.159   4.784   3.049
 3913TIP3   OH211683   2.598   4.467   1.633
 3913TIP3    H111684   2.607   4.382   1.589
 3913TIP3    H211685   2.504   4.475   1.650
 3914TIP3   OH211686   7.114   6.786   3.504
 3914TIP3    H111687   7.174   6.717   3.532
 3914TIP3    H211688   7.140   6.804   3.413
 3915TIP3   OH211689   5.225   0.902   1.839
 3915TIP3    H111690   5.260   0.983   1.876
 3915TIP3    H211691   5.233   0.838   1.910
 3916TIP3   OH211692   2.598   6.686   6.565
 3916TIP3    H111693   2.590   6.778   6.539
 3916TIP3    H211694   2.679   6.682   6.615
 3917TIP3   OH211695   2.923   2.123   0.562
 3917TIP3    H111696   2.900   2.087   0.476
 3917TIP3    H211697   3.008   2.165   0.548
 3918TIP3   OH211698   4.082   1.604   3.710
 3918TIP3    H111699   4.070   1.567   3.797
 3918TIP3    H211700   4.162   1.562   3.677
 3919TIP3   OH211701   7.191   6.424   2.358
 3919TIP3    H111702   7.169   6.340   2.398
 3919TIP3    H211703   7.285   6.435   2.373
 3920TIP3   OH211704   2.783   1.516   6.506
 3920TIP3    H111705   2.751   1.524   6.597
 3920TIP3    H211706   2.809   1.425   6.498
 3921TIP3   OH211707   1.071   0.596   0.725
 3921TIP3    H111708   1.095   0.543   0.650
 3921TIP3    H211709   1.067   0.534   0.798
 3922TIP3   OH211710   8.142   4.365   4.944
 3922TIP3    H111711   8.236   4.376   4.955
 3922TIP3    H211712   8.126   4.382   4.852
 3923TIP3   OH211713   3.631   4.277   6.507
 3923TIP3    H111714   3.692   4.333   6.557
 3923TIP3    H211715   3.682   4.198   6.488
 3924TIP3   OH211716   1.874   7.745   3.005
 3924TIP3    H111717   1.782   7.741   3.035
 3924TIP3    H211718   1.869   7.786   2.919
 3925TIP3   OH211719   7.060   4.947   1.959
 3925TIP3    H111720   7.017   4.880   2.011
 3925TIP3    H211721   7.078   4.904   1.875
 3926TIP3   OH211722   8.103   3.719   2.146
 3926TIP3    H111723   8.046   3.755   2.214
 3926TIP3    H211724   8.058   3.639   2.118
 3927TIP3   OH211725   1.906   1.132   0.432
 3927TIP3    H111726   1.848   1.094   0.498
 3927TIP3    H211727   1.926   1.219   0.465
 3928TIP3   OH211728   7.429   1.665   5.853
 3928TIP3    H111729   7.467   1.736   5.803
 3928TIP3    H211730   7.447   1.586   5.802
 3929TIP3   OH211731   6.755   1.262   1.903
 3929TIP3    H111732   6.849   1.259   1.917
 3929TIP3    H211733   6.744   1.251   1.809
 3930TIP3   OH211734   2.782   3.996   0.818
 3930TIP3    H111735   2.744   4.079   0.791
 3930TIP3    H211736   2.873   4.000   0.788
 3931TIP3   OH211737   2.229   1.866   2.490
 3931TIP3    H111738   2.283   1.797   2.451
 3931TIP3    H211739   2.206   1.923   2.417
 3932TIP3   OH211740   2.837   2.013   3.582
 3932TIP3    H111741   2.887   2.023   3.501
 3932TIP3    H211742   2.747   2.001   3.554
 3933TIP3   OH211743   6.484   2.167   6.414
 3933TIP3    H111744   6.429   2.169   6.335
 3933TIP3    H211745   6.573   2.182   6.381
 3934TIP3   OH211746   3.936   4.387   3.686
 3934TIP3    H111747   3.964   4.380   3.778
 3934TIP3    H211748   3.868   4.320   3.677
 3935TIP3   OH211749   2.980   0.017   1.687
 3935TIP3    H111750   3.046   0.009   1.618
 3935TIP3    H211751   2.900   0.043   1.641
 3936TIP3   OH211752   7.638   6.699   0.028
 3936TIP3    H111753   7.717   6.738  -0.009
 3936TIP3    H211754   7.620   6.751   0.106
 3937TIP3   OH211755   0.904   5.906   1.309
 3937TIP3    H111756   0.992   5.938   1.290
 3937TIP3    H211757   0.918   5.818   1.344
 3938TIP3   OH211758   1.235   6.055   0.837
 3938TIP3    H111759   1.214   5.962   0.825
 3938TIP3    H211760   1.313   6.055   0.892
 3939TIP3   OH211761   5.420   0.710   5.505
 3939TIP3    H111762   5.459   0.644   5.562
 3939TIP3    H211763   5.417   0.789   5.558
 3940TIP3   OH211764   3.774   6.897   6.498
 3940TIP3    H111765   3.722   6.885   6.419
 3940TIP3    H211766   3.778   6.992   6.510
 3941TIP3   OH211767   6.732   0.643   2.316
 3941TIP3    H111768   6.762   0.720   2.268
 3941TIP3    H211769   6.647   0.668   2.351
 3942TIP3   OH211770   7.832   5.964   5.610
 3942TIP3    H111771   7.799   5.947   5.522
 3942TIP3    H211772   7.912   6.014   5.596
 3943TIP3   OH211773   6.968   7.784   6.028
 3943TIP3    H111774   6.952   7.692   6.051
 3943TIP3    H211775   6.886   7.829   6.047
 3944TIP3   OH211776   5.267   0.977   6.264
 3944TIP3    H111777   5.203   0.907   6.278
 3944TIP3    H211778   5.342   0.952   6.317
 3945TIP3   OH211779   0.458   5.589   1.415
 3945TIP3    H111780   0.425   5.652   1.479
 3945TIP3    H211781   0.531   5.546   1.460
 3946TIP3   OH211782   1.178   7.724   0.500
 3946TIP3    H111783   1.127   7.767   0.431
 3946TIP3    H211784   1.269   7.748   0.481
 3947TIP3   OH211785   6.409   1.986   1.968
 3947TIP3    H111786   6.417   2.034   1.885
 3947TIP3    H211787   6.321   2.006   1.998
 3948TIP3   OH211788   3.865   4.942   6.657
 3948TIP3    H111789   3.895   4.981   6.575
 3948TIP3    H211790   3.793   4.998   6.685
 3949TIP3   OH211791   6.126   1.308   4.280
 3949TIP3    H111792   6.087   1.394   4.266
 3949TIP3    H211793   6.177   1.318   4.361
 3950TIP3   OH211794   3.933   4.503   6.339
 3950TIP3    H111795   3.964   4.417   6.365
 3950TIP3    H211796   3.954   4.560   6.413
 3951TIP3   OH211797   7.235   4.765   4.039
 3951TIP3    H111798   7.231   4.849   3.995
 3951TIP3    H211799   7.191   4.779   4.123
 3952TIP3   OH211800   0.097   4.367   3.258
 3952TIP3    H111801   0.131   4.433   3.319
 3952TIP3    H211802   0.048   4.418   3.194
 3953TIP3   OH211803   2.594   1.563   5.277
 3953TIP3    H111804   2.632   1.651   5.283
 3953TIP3    H211805   2.661   1.506   5.315
 3954TIP3   OH211806   3.165   6.574   1.035
 3954TIP3    H111807   3.226   6.581   0.961
 3954TIP3    H211808   3.221   6.554   1.110
 3955TIP3   OH211809   7.372   3.464   5.119
 3955TIP3    H111810   7.452   3.482   5.170
 3955TIP3    H211811   7.323   3.546   5.124
 3956TIP3   OH211812   0.618   1.231   4.856
 3956TIP3    H111813   0.581   1.303   4.907
 3956TIP3    H211814   0.623   1.158   4.918
 3957TIP3   OH211815   2.804   0.812   2.067
 3957TIP3    H111816   2.761   0.818   2.153
 3957TIP3    H211817   2.759   0.877   2.014
 3958TIP3   OH211818   2.657   7.092   6.043
 3958TIP3    H111819   2.576   7.043   6.031
 3958TIP3    H211820   2.629   7.181   6.066
 3959TIP3   OH211821   7.458   4.589   4.906
 3959TIP3    H111822   7.538   4.542   4.926
 3959TIP3    H211823   7.416   4.602   4.991
 3960TIP3   OH211824   5.455   2.882   3.969
 3960TIP3    H111825   5.413   2.884   3.883
 3960TIP3    H211826   5.474   2.790   3.985
 3961TIP3   OH211827   4.788   6.448   1.399
 3961TIP3    H111828   4.798   6.378   1.463
 3961TIP3    H211829   4.841   6.419   1.324
 3962TIP3   OH211830   3.992   4.910   3.179
 3962TIP3    H111831   3.992   4.832   3.234
 3962TIP3    H211832   3.911   4.955   3.201
 3963TIP3   OH211833   6.341   1.280   1.083
 3963TIP3    H111834   6.335   1.323   0.998
 3963TIP3    H211835   6.269   1.316   1.134
 3964TIP3   OH211836   7.877   7.073   0.601
 3964TIP3    H111837   7.897   7.153   0.552
 3964TIP3    H211838   7.917   7.003   0.549
 3965TIP3   OH211839   5.785   3.256   0.176
 3965TIP3    H111840   5.728   3.236   0.250
 3965TIP3    H211841   5.873   3.252   0.212
 3966TIP3   OH211842   4.396   3.560   3.206
 3966TIP3    H111843   4.321   3.507   3.233
 3966TIP3    H211844   4.397   3.632   3.267
 3967TIP3   OH211845   6.146   6.751   2.797
 3967TIP3    H111846   6.128   6.661   2.770
 3967TIP3    H211847   6.134   6.803   2.717
 3968TIP3   OH211848   3.117   4.040   4.221
 3968TIP3    H111849   3.113   4.075   4.132
 3968TIP3    H211850   3.210   4.029   4.239
 3969TIP3   OH211851   2.768   3.516   5.132
 3969TIP3    H111852   2.846   3.550   5.177
 3969TIP3    H211853   2.748   3.583   5.067
 3970TIP3   OH211854   7.150   6.325   3.308
 3970TIP3    H111855   7.106   6.409   3.322
 3970TIP3    H211856   7.227   6.347   3.257
 3971TIP3   OH211857   0.973   6.185   1.919
 3971TIP3    H111858   0.894   6.235   1.896
 3971TIP3    H211859   0.985   6.200   2.013
 3972TIP3   OH211860   2.186   2.208   0.325
 3972TIP3    H111861   2.176   2.243   0.237
 3972TIP3    H211862   2.097   2.186   0.353
 3973TIP3   OH211863   0.055   7.104   2.823
 3973TIP3    H111864   0.129   7.150   2.863
 3973TIP3    H211865  -0.016   7.113   2.886
 3974TIP3   OH211866   4.062   2.439   2.389
 3974TIP3    H111867   4.107   2.516   2.356
 3974TIP3    H211868   4.069   2.446   2.484
 3975TIP3   OH211869   0.574   3.810   4.058
 3975TIP3    H111870   0.550   3.899   4.081
 3975TIP3    H211871   0.490   3.766   4.042
 3976TIP3   OH211872   2.320   4.506   5.228
 3976TIP3    H111873   2.367   4.559   5.292
 3976TIP3    H211874   2.253   4.565   5.192
 3977TIP3   OH211875   2.855   6.428   3.585
 3977TIP3    H111876   2.939   6.385   3.572
 3977TIP3    H211877   2.872   6.520   3.565
 3978TIP3   OH211878   7.858   7.148   6.386
 3978TIP3    H111879   7.882   7.229   6.341
 3978TIP3    H211880   7.923   7.085   6.355
 3979TIP3   OH211881   5.719   7.593   5.558
 3979TIP3    H111882   5.760   7.551   5.483
 3979TIP3    H211883   5.678   7.672   5.523
 3980TIP3   OH211884   7.466   3.052   5.261
 3980TIP3    H111885   7.535   2.986   5.263
 3980TIP3    H211886   7.462   3.080   5.170
 3981TIP3   OH211887   0.535   5.028   5.854
 3981TIP3    H111888   0.603   4.988   5.909
 3981TIP3    H211889   0.581   5.099   5.807
 3982TIP3   OH211890   3.614   1.318   3.274
 3982TIP3    H111891   3.602   1.268   3.354
 3982TIP3    H211892   3.624   1.251   3.206
 3983TIP3   OH211893   1.414   1.796   0.063
 3983TIP3    H111894   1.320   1.810   0.070
 3983TIP3    H211895   1.425   1.701   0.069
 3984TIP3   OH211896   0.949   3.910   5.006
 3984TIP3    H111897   0.980   3.948   5.088
 3984TIP3    H211898   0.864   3.952   4.991
 3985TIP3   OH211899   3.609   5.894   4.566
 3985TIP3    H111900   3.572   5.980   4.583
 3985TIP3    H211901   3.586   5.875   4.475
 3986TIP3   OH211902   7.855   3.608   4.796
 3986TIP3    H111903   7.858   3.686   4.740
 3986TIP3    H211904   7.773   3.565   4.773
 3987TIP3   OH211905   4.858   5.640   0.578
 3987TIP3    H111906   4.920   5.619   0.508
 3987TIP3    H211907   4.911   5.645   0.657
 3988TIP3   OH211908   1.694   5.181   5.228
 3988TIP3    H111909   1.651   5.106   5.187
 3988TIP3    H211910   1.776   5.146   5.263
 3989TIP3   OH211911   2.722   2.056   1.760
 3989TIP3    H111912   2.736   2.035   1.852
 3989TIP3    H211913   2.788   2.005   1.714
 3990TIP3   OH211914   6.303   0.169   1.587
 3990TIP3    H111915   6.280   0.235   1.521
 3990TIP3    H211916   6.398   0.164   1.584
 3991TIP3   OH211917   6.718   2.327   1.296
 3991TIP3    H111918   6.638   2.348   1.247
 3991TIP3    H211919   6.687   2.279   1.373
 3992TIP3   OH211920   5.417   7.332   2.205
 3992TIP3    H111921   5.458   7.392   2.267
 3992TIP3    H211922   5.415   7.380   2.122
 3993TIP3   OH211923   7.097   2.520   5.866
 3993TIP3    H111924   7.059   2.556   5.786
 3993TIP3    H211925   7.032   2.538   5.934
 3994TIP3   OH211926   0.636   3.696   4.760
 3994TIP3    H111927   0.596   3.652   4.835
 3994TIP3    H211928   0.599   3.652   4.684
 3995TIP3   OH211929   1.860   3.045   0.452
 3995TIP3    H111930   1.798   3.060   0.524
 3995TIP3    H211931   1.854   2.951   0.435
 3996TIP3   OH211932   6.840   2.224   1.701
 3996TIP3    H111933   6.893   2.234   1.622
 3996TIP3    H211934   6.886   2.157   1.752
 3997TIP3   OH211935   6.855   0.508   2.543
 3997TIP3    H111936   6.798   0.584   2.529
 3997TIP3    H211937   6.944   0.544   2.537
 3998TIP3   OH211938   0.305   4.104   1.529
 3998TIP3    H111939   0.212   4.091   1.546
 3998TIP3    H211940   0.345   4.110   1.615
 3999TIP3   OH211941   0.044   7.500   4.278
 3999TIP3    H111942  -0.014   7.482   4.204
 3999TIP3    H211943   0.002   7.458   4.353
 4000TIP3   OH211944   1.863   0.850   2.404
 4000TIP3    H111945   1.917   0.848   2.482
 4000TIP3    H211946   1.774   0.866   2.436
 4001TIP3   OH211947   3.559   7.583   6.045
 4001TIP3    H111948   3.622   7.647   6.012
 4001TIP3    H211949   3.491   7.579   5.978
 4002TIP3   OH211950   4.096   7.282   2.485
 4002TIP3    H111951   4.103   7.355   2.424
 4002TIP3    H211952   4.070   7.323   2.568
 4003TIP3   OH211953   3.999   3.694   1.838
 4003TIP3    H111954   3.909   3.665   1.851
 4003TIP3    H211955   4.035   3.702   1.926
 4004TIP3   OH211956   8.029   3.972   5.208
 4004TIP3    H111957   7.939   4.001   5.223
 4004TIP3    H211958   8.024   3.915   5.132
 4005TIP3   OH211959   1.336   2.241   1.574
 4005TIP3    H111960   1.275   2.174   1.606
 4005TIP3    H211961   1.399   2.192   1.521
 4006TIP3   OH211962   5.056   3.731   1.714
 4006TIP3    H111963   5.009   3.799   1.665
 4006TIP3    H211964   5.099   3.679   1.647
 4007TIP3   OH211965   1.427   7.044   1.019
 4007TIP3    H111966   1.353   7.020   0.963
 4007TIP3    H211967   1.452   6.963   1.063
 4008TIP3   OH211968   3.888   7.694   5.954
 4008TIP3    H111969   3.966   7.639   5.962
 4008TIP3    H211970   3.872   7.700   5.859
 4009TIP3   OH211971   7.211   7.276   2.548
 4009TIP3    H111972   7.270   7.292   2.622
 4009TIP3    H211973   7.191   7.363   2.515
 4010TIP3   OH211974   6.264   6.155   0.627
 4010TIP3    H111975   6.248   6.210   0.550
 4010TIP3    H211976   6.215   6.198   0.698
 4011TIP3   OH211977   2.988   1.950   5.729
 4011TIP3    H111978   3.068   1.903   5.706
 4011TIP3    H211979   3.019   2.029   5.773
 4012TIP3   OH211980   2.491   2.964   1.583
 4012TIP3    H111981   2.583   2.965   1.557
 4012TIP3    H211982   2.491   2.992   1.674
 4013TIP3   OH211983   0.787   6.150   2.617
 4013TIP3    H111984   0.850   6.207   2.662
 4013TIP3    H211985   0.840   6.099   2.556
 4014TIP3   OH211986   6.464   4.538   4.339
 4014TIP3    H111987   6.484   4.542   4.246
 4014TIP3    H211988   6.440   4.628   4.362
 4015TIP3   OH211989   7.362   7.300   5.677
 4015TIP3    H111990   7.287   7.335   5.630
 4015TIP3    H211991   7.430   7.367   5.669
 4016TIP3   OH211992   6.711   1.596   5.900
 4016TIP3    H111993   6.792   1.593   5.848
 4016TIP3    H211994   6.661   1.520   5.869
 4017TIP3   OH211995   7.350   7.078   3.089
 4017TIP3    H111996   7.400   7.014   3.037
 4017TIP3    H211997   7.392   7.077   3.175
 4018TIP3   OH211998   7.258   6.576   4.792
 4018TIP3    H111999   7.293   6.664   4.803
 4018TIP3    H212000   7.333   6.518   4.807
 4019TIP3   OH212001   0.085   4.395   0.037
 4019TIP3    H112002   0.043   4.447  -0.031
 4019TIP3    H212003   0.164   4.443   0.060
 4020TIP3   OH212004   4.520   4.188   0.111
 4020TIP3    H112005   4.480   4.270   0.142
 4020TIP3    H212006   4.608   4.188   0.149
 4021TIP3   OH212007   1.398   1.475   2.540
 4021TIP3    H112008   1.361   1.559   2.512
 4021TIP3    H212009   1.482   1.498   2.580
 4022TIP3   OH212010   0.009   1.554   4.271
 4022TIP3    H112011  -0.039   1.632   4.244
 4022TIP3    H212012   0.012   1.499   4.193
 4023TIP3   OH212013   0.015   6.755   1.985
 4023TIP3    H112014  -0.031   6.811   1.922
 4023TIP3    H212015   0.079   6.814   2.026
 4024TIP3   OH212016   3.335   0.722   2.883
 4024TIP3    H112017   3.417   0.714   2.931
 4024TIP3    H212018   3.267   0.714   2.949
 4025TIP3   OH212019   6.502   6.224   0.783
 4025TIP3    H112020   6.473   6.300   0.731
 4025TIP3    H212021   6.580   6.192   0.738
 4026TIP3   OH212022   7.152   6.881   0.549
 4026TIP3    H112023   7.073   6.891   0.603
 4026TIP3    H212024   7.120   6.841   0.468
 4027TIP3   OH212025   2.790   5.878   5.768
 4027TIP3    H112026   2.797   5.798   5.716
 4027TIP3    H212027   2.839   5.858   5.848
 4028TIP3   OH212028   2.392   6.270   2.782
 4028TIP3    H112029   2.317   6.261   2.841
 4028TIP3    H212030   2.463   6.302   2.838
 4029TIP3   OH212031   4.319   7.370   0.298
 4029TIP3    H112032   4.402   7.408   0.325
 4029TIP3    H212033   4.253   7.414   0.352
 4030TIP3   OH212034   0.260   2.202   3.830
 4030TIP3    H112035   0.219   2.233   3.749
 4030TIP3    H212036   0.321   2.135   3.802
 4031TIP3   OH212037   7.668   1.910   3.831
 4031TIP3    H112038   7.673   1.956   3.914
 4031TIP3    H212039   7.734   1.841   3.838
 4032TIP3   OH212040   0.054   3.635   5.831
 4032TIP3    H112041   0.125   3.623   5.768
 4032TIP3    H212042  -0.015   3.576   5.801
 4033TIP3   OH212043   0.888   5.040   6.183
 4033TIP3    H112044   0.973   5.006   6.152
 4033TIP3    H212045   0.890   5.025   6.277
 4034TIP3   OH212046   5.646   2.073   4.453
 4034TIP3    H112047   5.551   2.069   4.464
 4034TIP3    H212048   5.666   2.001   4.393
 4035TIP3   OH212049   7.128   1.132   2.277
 4035TIP3    H112050   7.196   1.065   2.288
 4035TIP3    H212051   7.176   1.214   2.267
 4036TIP3   OH212052   1.110   3.789   3.526
 4036TIP3    H112053   1.105   3.696   3.545
 4036TIP3    H212054   1.196   3.801   3.485
 4037TIP3   OH212055   1.837   4.590   4.036
 4037TIP3    H112056   1.904   4.550   3.980
 4037TIP3    H212057   1.790   4.651   3.978
 4038TIP3   OH212058   4.925   3.091   0.448
 4038TIP3    H112059   5.008   3.138   0.447
 4038TIP3    H212060   4.908   3.073   0.540
 4039TIP3   OH212061   5.100   5.575   1.704
 4039TIP3    H112062   5.118   5.640   1.635
 4039TIP3    H212063   5.186   5.553   1.739
 4040TIP3   OH212064   3.873   3.149   6.122
 4040TIP3    H112065   3.810   3.125   6.191
 4040TIP3    H212066   3.939   3.201   6.167
 4041TIP3   OH212067   4.743   7.133   2.269
 4041TIP3    H112068   4.833   7.121   2.301
 4041TIP3    H212069   4.742   7.086   2.185
 4042TIP3   OH212070   5.089   6.406   2.437
 4042TIP3    H112071   5.155   6.369   2.496
 4042TIP3    H212072   5.103   6.500   2.442
 4043TIP3   OH212073   5.868   3.660   4.071
 4043TIP3    H112074   5.833   3.710   3.998
 4043TIP3    H212075   5.945   3.709   4.100
 4044TIP3   OH212076   2.434   3.787   4.746
 4044TIP3    H112077   2.522   3.825   4.744
 4044TIP3    H212078   2.378   3.861   4.771
 4045TIP3   OH212079   2.652   4.273   3.199
 4045TIP3    H112080   2.577   4.291   3.142
 4045TIP3    H212081   2.667   4.179   3.190
 4046TIP3   OH212082   6.694   6.259   0.599
 4046TIP3    H112083   6.664   6.346   0.571
 4046TIP3    H212084   6.731   6.220   0.520
 4047TIP3   OH212085   0.360   3.718   4.418
 4047TIP3    H112086   0.388   3.807   4.435
 4047TIP3    H212087   0.275   3.710   4.461
 4048TIP3   OH212088   0.852   7.361   1.723
 4048TIP3    H112089   0.926   7.340   1.666
 4048TIP3    H212090   0.879   7.330   1.809
 4049TIP3   OH212091   6.526   0.677   4.600
 4049TIP3    H112092   6.556   0.586   4.602
 4049TIP3    H212093   6.559   0.712   4.517
 4050TIP3   OH212094   2.140   4.660   4.866
 4050TIP3    H112095   2.147   4.755   4.859
 4050TIP3    H212096   2.055   4.645   4.907
 4051TIP3   OH212097   6.590   4.632   1.947
 4051TIP3    H112098   6.500   4.601   1.937
 4051TIP3    H212099   6.580   4.721   1.982
 4052TIP3   OH212100   2.078   3.617   3.705
 4052TIP3    H112101   2.023   3.670   3.763
 4052TIP3    H212102   2.166   3.654   3.715
 4053TIP3   OH212103   6.147   4.415   0.923
 4053TIP3    H112104   6.145   4.346   0.857
 4053TIP3    H212105   6.055   4.442   0.932
 4054TIP3   OH212106   0.248   0.664   1.661
 4054TIP3    H112107   0.168   0.612   1.665
 4054TIP3    H212108   0.277   0.672   1.752
 4055TIP3   OH212109   3.828   5.521   1.373
 4055TIP3    H112110   3.812   5.430   1.399
 4055TIP3    H212111   3.909   5.545   1.418
 4056TIP3   OH212112   4.595   7.018   6.076
 4056TIP3    H112113   4.600   7.098   6.129
 4056TIP3    H212114   4.501   7.002   6.066
 4057TIP3   OH212115   4.682   1.845   0.755
 4057TIP3    H112116   4.776   1.864   0.763
 4057TIP3    H212117   4.657   1.878   0.669
 4058TIP3   OH212118   4.344   6.538   5.541
 4058TIP3    H112119   4.338   6.633   5.545
 4058TIP3    H212120   4.253   6.507   5.544
 4059TIP3   OH212121   3.290   1.240   2.766
 4059TIP3    H112122   3.241   1.159   2.751
 4059TIP3    H212123   3.262   1.299   2.696
 4060TIP3   OH212124   2.604   2.700   4.975
 4060TIP3    H112125   2.624   2.704   5.068
 4060TIP3    H212126   2.653   2.771   4.936
 4061TIP3   OH212127   3.467   2.758   6.614
 4061TIP3    H112128   3.413   2.803   6.550
 4061TIP3    H212129   3.405   2.715   6.672
 4062TIP3   OH212130   0.975   1.106   5.747
 4062TIP3    H112131   0.959   1.197   5.721
 4062TIP3    H212132   1.070   1.099   5.748
 4063TIP3   OH212133   2.590   6.587   1.564
 4063TIP3    H112134   2.590   6.525   1.491
 4063TIP3    H212135   2.611   6.533   1.641
 4064TIP3   OH212136   3.995   3.326   5.028
 4064TIP3    H112137   4.008   3.233   5.011
 4064TIP3    H212138   3.917   3.330   5.083
 4065TIP3   OH212139   5.951   2.284   3.686
 4065TIP3    H112140   5.856   2.279   3.696
 4065TIP3    H212141   5.971   2.378   3.695
 4066TIP3   OH212142   1.350   0.903   3.048
 4066TIP3    H112143   1.403   0.966   3.097
 4066TIP3    H212144   1.292   0.957   2.995
 4067TIP3   OH212145   6.186   0.381   3.894
 4067TIP3    H112146   6.146   0.302   3.930
 4067TIP3    H212147   6.168   0.449   3.958
 4068TIP3   OH212148   3.974   1.647   4.481
 4068TIP3    H112149   3.911   1.718   4.467
 4068TIP3    H212150   3.982   1.641   4.577
 4069TIP3   OH212151   3.037   5.397   3.707
 4069TIP3    H112152   2.965   5.387   3.770
 4069TIP3    H212153   3.108   5.436   3.758
 4070TIP3   OH212154   5.927   2.512   4.199
 4070TIP3    H112155   5.850   2.457   4.212
 4070TIP3    H212156   5.998   2.465   4.242
 4071TIP3   OH212157   7.945   0.819   0.409
 4071TIP3    H112158   8.027   0.812   0.458
 4071TIP3    H212159   7.949   0.906   0.368
 4072TIP3   OH212160   1.762   6.963   4.799
 4072TIP3    H112161   1.696   7.022   4.763
 4072TIP3    H212162   1.770   6.989   4.891
 4073TIP3   OH212163   5.592   3.282   4.535
 4073TIP3    H112164   5.630   3.321   4.457
 4073TIP3    H212165   5.596   3.351   4.601
 4074TIP3   OH212166   6.256   6.696   2.084
 4074TIP3    H112167   6.302   6.661   2.160
 4074TIP3    H212168   6.298   6.781   2.067
 4075TIP3   OH212169   6.906   2.739   5.558
 4075TIP3    H112170   6.872   2.795   5.627
 4075TIP3    H212171   6.890   2.788   5.477
 4076TIP3   OH212172   3.980   6.831   3.762
 4076TIP3    H112173   4.026   6.766   3.816
 4076TIP3    H212174   3.959   6.901   3.823
 4077TIP3   OH212175   2.158   5.409   4.486
 4077TIP3    H112176   2.183   5.377   4.572
 4077TIP3    H212177   2.241   5.417   4.439
 4078TIP3   OH212178   4.439   3.865   5.684
 4078TIP3    H112179   4.355   3.911   5.690
 4078TIP3    H212180   4.450   3.848   5.591
 4079TIP3   OH212181   0.582   6.765   5.278
 4079TIP3    H112182   0.663   6.763   5.226
 4079TIP3    H212183   0.605   6.816   5.356
 4080TIP3   OH212184   8.148   6.657   6.383
 4080TIP3    H112185   8.123   6.587   6.322
 4080TIP3    H212186   8.142   6.737   6.331
 4081TIP3   OH212187   3.838   4.932   5.798
 4081TIP3    H112188   3.822   4.930   5.703
 4081TIP3    H212189   3.906   4.999   5.809
 4082TIP3   OH212190   1.586   6.211   1.331
 4082TIP3    H112191   1.598   6.264   1.410
 4082TIP3    H212192   1.515   6.254   1.284
 4083TIP3   OH212193   7.694   1.434   4.316
 4083TIP3    H112194   7.745   1.433   4.397
 4083TIP3    H212195   7.699   1.344   4.283
 4084TIP3   OH212196   1.606   4.142   4.567
 4084TIP3    H112197   1.594   4.237   4.566
 4084TIP3    H212198   1.651   4.124   4.649
 4085TIP3   OH212199   3.607   0.626   1.019
 4085TIP3    H112200   3.609   0.673   1.102
 4085TIP3    H212201   3.630   0.536   1.041
 4086TIP3   OH212202   1.611   3.998   4.972
 4086TIP3    H112203   1.668   4.069   4.942
 4086TIP3    H212204   1.630   3.926   4.912
 4087TIP3   OH212205   6.885   0.461   1.232
 4087TIP3    H112206   6.835   0.457   1.314
 4087TIP3    H212207   6.828   0.510   1.172
 4088TIP3   OH212208   3.958   3.408   3.456
 4088TIP3    H112209   3.908   3.333   3.425
 4088TIP3    H212210   3.900   3.453   3.517
 4089TIP3   OH212211   3.089   2.678   6.406
 4089TIP3    H112212   3.043   2.663   6.489
 4089TIP3    H212213   3.041   2.750   6.365
 4090TIP3   OH212214   5.544   3.100   4.951
 4090TIP3    H112215   5.517   3.027   4.894
 4090TIP3    H212216   5.503   3.080   5.035
 4091TIP3   OH212217   7.938   5.780   0.699
 4091TIP3    H112218   8.023   5.793   0.656
 4091TIP3    H212219   7.952   5.806   0.789
 4092TIP3   OH212220   6.811   1.995   4.032
 4092TIP3    H112221   6.758   1.935   4.085
 4092TIP3    H212222   6.888   1.944   4.007
 4093TIP3   OH212223   6.772   6.958   3.375
 4093TIP3    H112224   6.749   7.004   3.456
 4093TIP3    H212225   6.813   6.877   3.403
 4094TIP3   OH212226   2.949   0.580   4.564
 4094TIP3    H112227   2.981   0.493   4.588
 4094TIP3    H212228   2.854   0.576   4.580
 4095TIP3   OH212229   2.060   2.752   4.976
 4095TIP3    H112230   2.112   2.831   4.990
 4095TIP3    H212231   2.026   2.730   5.062
 4096TIP3   OH212232   1.249   6.825   1.091
 4096TIP3    H112233   1.280   6.787   1.009
 4096TIP3    H212234   1.153   6.828   1.081
 4097TIP3   OH212235   4.921   4.847   1.427
 4097TIP3    H112236   4.828   4.825   1.430
 4097TIP3    H212237   4.933   4.907   1.500
 4098TIP3   OH212238   5.938   3.668   1.212
 4098TIP3    H112239   5.955   3.649   1.304
 4098TIP3    H212240   5.947   3.584   1.167
 4099TIP3   OH212241   5.953   3.966   5.123
 4099TIP3    H112242   5.879   3.983   5.064
 4099TIP3    H212243   5.955   3.871   5.132
 4100TIP3   OH212244   4.479   7.476   3.817
 4100TIP3    H112245   4.408   7.532   3.787
 4100TIP3    H212246   4.555   7.535   3.823
 4101TIP3   OH212247   6.805   3.702   0.704
 4101TIP3    H112248   6.834   3.659   0.623
 4101TIP3    H212249   6.813   3.634   0.771
 4102TIP3   OH212250   0.574   5.646   0.793
 4102TIP3    H112251   0.610   5.560   0.815
 4102TIP3    H212252   0.585   5.697   0.873
 4103TIP3   OH212253   2.855   0.037   1.115
 4103TIP3    H112254   2.836  -0.050   1.149
 4103TIP3    H212255   2.950   0.038   1.103
 4104TIP3   OH212256   7.767   4.107   5.119
 4104TIP3    H112257   7.798   4.196   5.102
 4104TIP3    H212258   7.795   4.056   5.043
 4105TIP3   OH212259   3.483   2.152   4.833
 4105TIP3    H112260   3.480   2.201   4.751
 4105TIP3    H212261   3.490   2.219   4.901
 4106TIP3   OH212262   7.920   6.372   4.444
 4106TIP3    H112263   7.996   6.331   4.402
 4106TIP3    H212264   7.941   6.369   4.537
 4107TIP3   OH212265   1.637   2.681   4.943
 4107TIP3    H112266   1.610   2.771   4.962
 4107TIP3    H212267   1.653   2.642   5.028
 4108TIP3   OH212268   3.234   6.570   3.938
 4108TIP3    H112269   3.292   6.551   3.864
 4108TIP3    H212270   3.293   6.584   4.012
 4109TIP3   OH212271   3.361   1.169   6.805
 4109TIP3    H112272   3.449   1.130   6.801
 4109TIP3    H212273   3.326   1.140   6.889
 4110TIP3   OH212274   2.896   6.964   5.992
 4110TIP3    H112275   2.917   6.975   5.900
 4110TIP3    H212276   2.812   7.008   6.003
 4111TIP3   OH212277   3.992   5.605   5.651
 4111TIP3    H112278   3.910   5.558   5.640
 4111TIP3    H212279   3.972   5.695   5.623
 4112TIP3   OH212280   6.776   2.024   3.538
 4112TIP3    H112281   6.747   1.982   3.619
 4112TIP3    H212282   6.840   1.964   3.500
 4113TIP3   OH212283   1.502   5.119   3.872
 4113TIP3    H112284   1.592   5.107   3.844
 4113TIP3    H212285   1.454   5.137   3.791
 4114TIP3   OH212286   7.457   2.303   5.358
 4114TIP3    H112287   7.402   2.359   5.413
 4114TIP3    H212288   7.491   2.361   5.291
 4115TIP3   OH212289   6.413   2.210   1.155
 4115TIP3    H112290   6.367   2.238   1.075
 4115TIP3    H212291   6.496   2.175   1.123
 4116TIP3   OH212292   7.953   0.273   3.819
 4116TIP3    H112293   8.001   0.320   3.887
 4116TIP3    H212294   7.937   0.338   3.751
 4117TIP3   OH212295   1.567   5.867   4.619
 4117TIP3    H112296   1.563   5.772   4.619
 4117TIP3    H212297   1.628   5.888   4.690
 4118TIP3   OH212298   1.420   3.499   0.163
 4118TIP3    H112299   1.461   3.454   0.089
 4118TIP3    H212300   1.343   3.541   0.125
 4119TIP3   OH212301   2.997   4.843   5.074
 4119TIP3    H112302   2.921   4.875   5.122
 4119TIP3    H212303   3.061   4.820   5.141
 4120TIP3   OH212304   5.541   2.403   5.076
 4120TIP3    H112305   5.595   2.474   5.111
 4120TIP3    H212306   5.475   2.387   5.144
 4121TIP3   OH212307   0.845   0.537   6.587
 4121TIP3    H112308   0.848   0.611   6.526
 4121TIP3    H212309   0.751   0.525   6.605
 4122TIP3   OH212310   4.761   7.540   3.745
 4122TIP3    H112311   4.731   7.582   3.664
 4122TIP3    H212312   4.843   7.584   3.766
 4123TIP3   OH212313   1.888   4.853   5.472
 4123TIP3    H112314   1.926   4.770   5.503
 4123TIP3    H212315   1.875   4.840   5.378
 4124TIP3   OH212316   4.392   1.050   2.532
 4124TIP3    H112317   4.340   0.984   2.577
 4124TIP3    H212318   4.481   1.014   2.529
 4125TIP3   OH212319   7.643   4.277   5.602
 4125TIP3    H112320   7.614   4.200   5.651
 4125TIP3    H212321   7.653   4.246   5.512
 4126TIP3   OH212322   0.026   6.313   1.761
 4126TIP3    H112323   0.053   6.234   1.808
 4126TIP3    H212324   0.060   6.300   1.673
 4127TIP3   OH212325   6.614   3.683   3.614
 4127TIP3    H112326   6.542   3.655   3.559
 4127TIP3    H212327   6.692   3.646   3.573
 4128TIP3   OH212328   2.181   4.595   2.619
 4128TIP3    H112329   2.215   4.681   2.645
 4128TIP3    H212330   2.086   4.604   2.625
 4129TIP3   OH212331   4.874   0.560   5.169
 4129TIP3    H112332   4.959   0.595   5.142
 4129TIP3    H212333   4.869   0.475   5.126
 4130TIP3   OH212334   1.438   0.390   2.719
 4130TIP3    H112335   1.525   0.357   2.696
 4130TIP3    H212336   1.418   0.348   2.803
 4131TIP3   OH212337   2.734   0.700   0.770
 4131TIP3    H112338   2.694   0.763   0.710
 4131TIP3    H212339   2.711   0.732   0.857
 4132TIP3   OH212340   3.207   3.259   6.781
 4132TIP3    H112341   3.301   3.242   6.775
 4132TIP3    H212342   3.181   3.281   6.692
 4133TIP3   OH212343   5.917   4.754   3.445
 4133TIP3    H112344   6.001   4.801   3.443
 4133TIP3    H212345   5.935   4.671   3.401
 4134TIP3   OH212346   4.224   6.905   0.857
 4134TIP3    H112347   4.165   6.830   0.868
 4134TIP3    H212348   4.294   6.872   0.801
 4135TIP3   OH212349   4.071   1.023   4.813
 4135TIP3    H112350   4.138   1.027   4.745
 4135TIP3    H212351   4.096   0.947   4.866
 4136TIP3   OH212352   3.600   3.275   3.524
 4136TIP3    H112353   3.524   3.224   3.496
 4136TIP3    H212354   3.668   3.210   3.539
 4137TIP3   OH212355   2.224   1.086   1.007
 4137TIP3    H112356   2.262   1.123   1.087
 4137TIP3    H212357   2.178   1.159   0.966
 4138TIP3   OH212358   1.263   6.619   6.121
 4138TIP3    H112359   1.294   6.533   6.150
 4138TIP3    H212360   1.326   6.646   6.055
 4139TIP3   OH212361   1.659   2.329   3.799
 4139TIP3    H112362   1.720   2.256   3.805
 4139TIP3    H212363   1.595   2.312   3.868
 4140TIP3   OH212364   5.219   5.017   1.877
 4140TIP3    H112365   5.165   5.077   1.826
 4140TIP3    H212366   5.158   4.949   1.906
 4141TIP3   OH212367   0.328   2.887   4.938
 4141TIP3    H112368   0.408   2.839   4.959
 4141TIP3    H212369   0.258   2.822   4.947
 4142TIP3   OH212370   0.233   1.241   4.906
 4142TIP3    H112371   0.302   1.297   4.871
 4142TIP3    H212372   0.261   1.223   4.996
 4143TIP3   OH212373   1.549   4.709   4.866
 4143TIP3    H112374   1.627   4.713   4.810
 4143TIP3    H212375   1.556   4.786   4.922
 4144TIP3   OH212376   5.178   0.051   5.244
 4144TIP3    H112377   5.260   0.059   5.196
 4144TIP3    H212378   5.133   0.133   5.229
 4145TIP3   OH212379   1.640   0.569   3.102
 4145TIP3    H112380   1.706   0.518   3.150
 4145TIP3    H212381   1.690   0.639   3.060
 4146TIP3   OH212382   3.587   3.578   2.735
 4146TIP3    H112383   3.616   3.541   2.818
 4146TIP3    H212384   3.571   3.502   2.679
 4147TIP3   OH212385   3.196   5.158   6.298
 4147TIP3    H112386   3.256   5.179   6.227
 4147TIP3    H212387   3.198   5.235   6.355
 4148TIP3   OH212388   6.238   0.175   3.033
 4148TIP3    H112389   6.221   0.264   3.063
 4148TIP3    H212390   6.326   0.179   2.994
 4149TIP3   OH212391   3.577   2.395   3.342
 4149TIP3    H112392   3.490   2.364   3.366
 4149TIP3    H212393   3.570   2.491   3.345
 4150TIP3   OH212394   7.353   3.471   1.941
 4150TIP3    H112395   7.362   3.541   1.876
 4150TIP3    H212396   7.300   3.511   2.011
 4151TIP3   OH212397   0.032   4.909   5.233
 4151TIP3    H112398   0.077   4.983   5.192
 4151TIP3    H212399  -0.061   4.924   5.215
 4152TIP3   OH212400   3.390   1.049   1.380
 4152TIP3    H112401   3.365   0.957   1.371
 4152TIP3    H212402   3.462   1.061   1.317
 4153TIP3   OH212403   0.702   4.907   6.001
 4153TIP3    H112404   0.753   4.840   5.956
 4153TIP3    H212405   0.767   4.960   6.047
 4154TIP3   OH212406   6.404   1.523   2.847
 4154TIP3    H112407   6.308   1.525   2.852
 4154TIP3    H212408   6.433   1.544   2.936
 4155TIP3   OH212409   1.037   2.884   2.503
 4155TIP3    H112410   1.018   2.793   2.529
 4155TIP3    H212411   0.997   2.937   2.572
 4156TIP3   OH212412   5.518   3.500   4.723
 4156TIP3    H112413   5.452   3.569   4.727
 4156TIP3    H212414   5.504   3.449   4.803
 4157TIP3   OH212415   1.046   2.561   1.134
 4157TIP3    H112416   1.068   2.481   1.088
 4157TIP3    H212417   0.986   2.534   1.204
 4158TIP3   OH212418   1.761   3.755   6.444
 4158TIP3    H112419   1.828   3.725   6.382
 4158TIP3    H212420   1.804   3.748   6.530
 4159TIP3   OH212421   2.811   6.209   4.306
 4159TIP3    H112422   2.725   6.252   4.308
 4159TIP3    H212423   2.858   6.247   4.379
 4160TIP3   OH212424   5.929   2.058   1.803
 4160TIP3    H112425   5.970   2.113   1.871
 4160TIP3    H212426   5.997   1.995   1.779
 4161TIP3   OH212427   6.836   2.184   2.040
 4161TIP3    H112428   6.866   2.113   1.983
 4161TIP3    H212429   6.752   2.153   2.074
 4162TIP3   OH212430   8.273   6.870   5.196
 4162TIP3    H112431   8.214   6.928   5.148
 4162TIP3    H212432   8.360   6.899   5.171
 4163TIP3   OH212433   7.453   6.440   4.343
 4163TIP3    H112434   7.362   6.440   4.373
 4163TIP3    H212435   7.448   6.477   4.254
 4164TIP3   OH212436   1.599   4.484   6.658
 4164TIP3    H112437   1.659   4.441   6.719
 4164TIP3    H212438   1.602   4.429   6.579
 4165TIP3   OH212439   1.424   2.303   3.546
 4165TIP3    H112440   1.373   2.320   3.625
 4165TIP3    H212441   1.486   2.376   3.541
 4166TIP3   OH212442   6.668   2.943   1.930
 4166TIP3    H112443   6.627   2.967   2.013
 4166TIP3    H212444   6.756   2.915   1.954
 4167TIP3   OH212445   3.981   7.204   2.019
 4167TIP3    H112446   3.893   7.208   1.981
 4167TIP3    H212447   3.989   7.115   2.052
 4168TIP3   OH212448   0.785   4.650   3.985
 4168TIP3    H112449   0.773   4.734   4.028
 4168TIP3    H212450   0.854   4.607   4.036
 4169TIP3   OH212451   5.202   3.361   5.534
 4169TIP3    H112452   5.131   3.413   5.497
 4169TIP3    H212453   5.165   3.273   5.544
 4170TIP3   OH212454   3.612   5.795   1.402
 4170TIP3    H112455   3.605   5.779   1.308
 4170TIP3    H212456   3.522   5.798   1.432
 4171TIP3   OH212457   6.618   4.618   5.719
 4171TIP3    H112458   6.617   4.525   5.740
 4171TIP3    H212459   6.686   4.655   5.776
 4172TIP3   OH212460   4.371   0.947   0.718
 4172TIP3    H112461   4.413   0.944   0.804
 4172TIP3    H212462   4.288   0.902   0.730
 4173TIP3   OH212463   1.459   6.105   4.536
 4173TIP3    H112464   1.546   6.140   4.555
 4173TIP3    H212465   1.463   6.014   4.566
 4174TIP3   OH212466   4.775   2.159   5.649
 4174TIP3    H112467   4.857   2.207   5.638
 4174TIP3    H212468   4.767   2.106   5.569
 4175TIP3   OH212469   1.100   6.727   6.331
 4175TIP3    H112470   1.032   6.763   6.274
 4175TIP3    H212471   1.173   6.707   6.272
 4176TIP3   OH212472   1.045   1.111   4.698
 4176TIP3    H112473   0.956   1.085   4.720
 4176TIP3    H212474   1.059   1.193   4.744
 4177TIP3   OH212475   6.915   2.777   5.884
 4177TIP3    H112476   7.000   2.820   5.887
 4177TIP3    H212477   6.861   2.835   5.831
 4178TIP3   OH212478   2.546   6.382   3.769
 4178TIP3    H112479   2.542   6.463   3.821
 4178TIP3    H212480   2.590   6.319   3.826
 4179TIP3   OH212481   7.136   4.171   3.808
 4179TIP3    H112482   7.086   4.161   3.889
 4179TIP3    H212483   7.085   4.123   3.742
 4180TIP3   OH212484   4.690   5.443   3.255
 4180TIP3    H112485   4.631   5.389   3.202
 4180TIP3    H212486   4.656   5.437   3.344
 4181TIP3   OH212487   3.349   3.877   1.517
 4181TIP3    H112488   3.389   3.789   1.517
 4181TIP3    H212489   3.422   3.936   1.500
 4182TIP3   OH212490   3.691   5.127   5.055
 4182TIP3    H112491   3.747   5.075   4.998
 4182TIP3    H212492   3.707   5.093   5.142
 4183TIP3   OH212493   1.207   5.699   3.368
 4183TIP3    H112494   1.273   5.677   3.302
 4183TIP3    H212495   1.233   5.649   3.445
 4184TIP3   OH212496   1.205   2.112   0.883
 4184TIP3    H112497   1.162   2.026   0.883
 4184TIP3    H212498   1.296   2.093   0.860
 4185TIP3   OH212499   0.080   2.186   1.906
 4185TIP3    H112500   0.030   2.175   1.987
 4185TIP3    H212501   0.110   2.098   1.883
 4186TIP3   OH212502   6.662   5.540   1.447
 4186TIP3    H112503   6.715   5.461   1.456
 4186TIP3    H212504   6.660   5.577   1.536
 4187TIP3   OH212505   0.050   2.694   2.013
 4187TIP3    H112506   0.087   2.631   1.951
 4187TIP3    H212507   0.119   2.759   2.025
 4188TIP3   OH212508   3.819   6.265   5.787
 4188TIP3    H112509   3.801   6.197   5.722
 4188TIP3    H212510   3.734   6.279   5.831
 4189TIP3   OH212511   6.035   6.104   4.066
 4189TIP3    H112512   6.060   6.098   3.974
 4189TIP3    H212513   5.964   6.168   4.068
 4190TIP3   OH212514   7.939   7.108   6.055
 4190TIP3    H112515   7.923   7.017   6.082
 4190TIP3    H212516   7.921   7.108   5.961
 4191TIP3   OH212517   1.978   3.323   2.187
 4191TIP3    H112518   1.932   3.335   2.103
 4191TIP3    H212519   2.060   3.371   2.177
 4192TIP3   OH212520   2.157   6.127   4.145
 4192TIP3    H112521   2.088   6.061   4.144
 4192TIP3    H212522   2.116   6.204   4.184
 4193TIP3   OH212523   7.003   2.883   1.497
 4193TIP3    H112524   7.093   2.875   1.464
 4193TIP3    H212525   7.000   2.824   1.572
 4194TIP3   OH212526   2.459   7.034   1.429
 4194TIP3    H112527   2.379   7.062   1.384
 4194TIP3    H212528   2.452   6.939   1.435
 4195TIP3   OH212529   2.185   6.201   1.898
 4195TIP3    H112530   2.093   6.223   1.916
 4195TIP3    H212531   2.223   6.189   1.985
 4196TIP3   OH212532   5.576   3.454   1.092
 4196TIP3    H112533   5.533   3.538   1.074
 4196TIP3    H212534   5.620   3.468   1.176
 4197TIP3   OH212535   6.276   4.085   4.668
 4197TIP3    H112536   6.220   4.103   4.743
 4197TIP3    H212537   6.360   4.123   4.691
 4198TIP3   OH212538   3.017   0.639   3.729
 4198TIP3    H112539   3.096   0.634   3.783
 4198TIP3    H212540   3.012   0.554   3.686
 4199TIP3   OH212541   5.823   3.269   2.773
 4199TIP3    H112542   5.854   3.190   2.730
 4199TIP3    H212543   5.786   3.322   2.703
 4200TIP3   OH212544   6.902   5.379   6.601
 4200TIP3    H112545   6.984   5.355   6.558
 4200TIP3    H212546   6.908   5.474   6.612
 4201TIP3   OH212547   8.221   7.079   0.335
 4201TIP3    H112548   8.131   7.065   0.305
 4201TIP3    H212549   8.273   7.082   0.254
 4202TIP3   OH212550   4.217   4.671   3.387
 4202TIP3    H112551   4.128   4.641   3.406
 4202TIP3    H212552   4.227   4.660   3.292
 4203TIP3   OH212553   2.120   2.422   5.869
 4203TIP3    H112554   2.035   2.454   5.900
 4203TIP3    H212555   2.099   2.350   5.810
 4204TIP3   OH212556   4.337   1.488   1.244
 4204TIP3    H112557   4.407   1.530   1.193
 4204TIP3    H212558   4.382   1.421   1.296
 4205TIP3   OH212559   1.747   4.904   3.951
 4205TIP3    H112560   1.819   4.906   4.014
 4205TIP3    H212561   1.669   4.897   4.005
 4206TIP3   OH212562   0.639   3.787   5.589
 4206TIP3    H112563   0.574   3.815   5.653
 4206TIP3    H212564   0.649   3.862   5.530
 4207TIP3   OH212565   7.397   7.175   2.366
 4207TIP3    H112566   7.319   7.176   2.421
 4207TIP3    H212567   7.470   7.190   2.426
 4208TIP3   OH212568   3.137   4.703   0.129
 4208TIP3    H112569   3.087   4.623   0.137
 4208TIP3    H212570   3.164   4.706   0.037
 4209TIP3   OH212571   3.263   2.166   1.743
 4209TIP3    H112572   3.170   2.186   1.738
 4209TIP3    H212573   3.278   2.105   1.671
 4210TIP3   OH212574   4.214   3.331   3.624
 4210TIP3    H112575   4.180   3.397   3.563
 4210TIP3    H212576   4.149   3.261   3.622
 4211TIP3   OH212577   3.900   5.031   2.762
 4211TIP3    H112578   3.841   4.959   2.742
 4211TIP3    H212579   3.988   4.992   2.759
 4212TIP3   OH212580   1.035   3.893   4.608
 4212TIP3    H112581   1.111   3.847   4.643
 4212TIP3    H212582   0.964   3.870   4.667
 4213TIP3   OH212583   3.125   2.614   0.702
 4213TIP3    H112584   3.132   2.555   0.777
 4213TIP3    H212585   3.128   2.702   0.740
 4214TIP3   OH212586   3.576   1.829   5.058
 4214TIP3    H112587   3.644   1.772   5.095
 4214TIP3    H212588   3.624   1.905   5.025
 4215TIP3   OH212589   7.461   5.184   4.983
 4215TIP3    H112590   7.380   5.137   4.965
 4215TIP3    H212591   7.488   5.154   5.070
 4216TIP3   OH212592   0.449   5.452   4.010
 4216TIP3    H112593   0.508   5.454   4.084
 4216TIP3    H212594   0.504   5.425   3.936
 4217TIP3   OH212595   5.315   7.478   0.104
 4217TIP3    H112596   5.340   7.537   0.175
 4217TIP3    H212597   5.239   7.431   0.138
 4218TIP3   OH212598   6.222   7.219   0.962
 4218TIP3    H112599   6.267   7.242   1.044
 4218TIP3    H212600   6.144   7.173   0.989
 4219TIP3   OH212601   1.795   3.719   5.480
 4219TIP3    H112602   1.840   3.656   5.537
 4219TIP3    H212603   1.755   3.782   5.541
 4220TIP3   OH212604   3.181   1.800   0.076
 4220TIP3    H112605   3.177   1.749   0.157
 4220TIP3    H212606   3.241   1.752   0.019
 4221TIP3   OH212607   2.993   2.227   1.748
 4221TIP3    H112608   2.947   2.180   1.818
 4221TIP3    H212609   2.927   2.284   1.710
 4222TIP3   OH212610   0.247   0.875   6.015
 4222TIP3    H112611   0.265   0.874   6.109
 4222TIP3    H212612   0.233   0.783   5.993
 4223TIP3   OH212613   1.624   3.007   0.623
 4223TIP3    H112614   1.561   3.079   0.632
 4223TIP3    H212615   1.577   2.930   0.656
 4224TIP3   OH212616   0.478   5.711   5.075
 4224TIP3    H112617   0.510   5.628   5.110
 4224TIP3    H212618   0.466   5.767   5.151
 4225TIP3   OH212619   0.693   6.036   1.925
 4225TIP3    H112620   0.723   6.078   2.005
 4225TIP3    H212621   0.770   5.991   1.891
 4226TIP3   OH212622   4.740   4.221   4.906
 4226TIP3    H112623   4.722   4.313   4.889
 4226TIP3    H212624   4.704   4.175   4.830
 4227TIP3   OH212625   3.378   0.545   2.666
 4227TIP3    H112626   3.363   0.613   2.733
 4227TIP3    H212627   3.342   0.583   2.586
 4228TIP3   OH212628   0.524   3.472   4.906
 4228TIP3    H112629   0.500   3.495   4.995
 4228TIP3    H212630   0.574   3.391   4.914
 4229TIP3   OH212631   0.233   7.030   1.143
 4229TIP3    H112632   0.252   7.047   1.051
 4229TIP3    H212633   0.304   7.073   1.191
 4230TIP3   OH212634   4.487   5.506   4.457
 4230TIP3    H112635   4.516   5.416   4.440
 4230TIP3    H212636   4.394   5.497   4.481
 4231TIP3   OH212637   7.255   1.696   4.073
 4231TIP3    H112638   7.324   1.680   4.008
 4231TIP3    H212639   7.241   1.790   4.070
 4232TIP3   OH212640   8.284   3.266   0.476
 4232TIP3    H112641   8.311   3.175   0.472
 4232TIP3    H212642   8.283   3.295   0.385
 4233TIP3   OH212643   0.983   4.742   4.908
 4233TIP3    H112644   0.932   4.806   4.859
 4233TIP3    H212645   1.042   4.795   4.962
 4234TIP3   OH212646   4.742   1.633   0.354
 4234TIP3    H112647   4.777   1.613   0.440
 4234TIP3    H212648   4.759   1.726   0.342
 4235TIP3   OH212649   7.855   0.136   2.576
 4235TIP3    H112650   7.792   0.154   2.645
 4235TIP3    H212651   7.923   0.202   2.589
 4236TIP3   OH212652   2.694   3.506   3.540
 4236TIP3    H112653   2.780   3.501   3.498
 4236TIP3    H212654   2.668   3.415   3.554
 4237TIP3   OH212655   4.549   4.996   5.812
 4237TIP3    H112656   4.563   4.978   5.905
 4237TIP3    H212657   4.564   5.090   5.804
 4238TIP3   OH212658   1.507   3.006   0.154
 4238TIP3    H112659   1.522   3.081   0.212
 4238TIP3    H212660   1.419   3.020   0.119
 4239TIP3   OH212661   1.384   1.667   3.711
 4239TIP3    H112662   1.379   1.589   3.766
 4239TIP3    H212663   1.477   1.676   3.691
 4240TIP3   OH212664   7.007   2.177   4.266
 4240TIP3    H112665   6.992   2.265   4.233
 4240TIP3    H212666   7.057   2.190   4.347
 4241TIP3   OH212667   1.183   6.005   2.671
 4241TIP3    H112668   1.222   6.060   2.739
 4241TIP3    H212669   1.165   5.922   2.715
 4242TIP3   OH212670   7.450   5.449   1.308
 4242TIP3    H112671   7.453   5.540   1.338
 4242TIP3    H212672   7.443   5.397   1.388
 4243TIP3   OH212673   1.151   3.410   0.046
 4243TIP3    H112674   1.077   3.469   0.031
 4243TIP3    H212675   1.129   3.364   0.127
 4244TIP3   OH212676   1.923   6.723   5.105
 4244TIP3    H112677   1.834   6.715   5.138
 4244TIP3    H212678   1.943   6.816   5.114
 4245TIP3   OH212679   2.345   1.573   0.139
 4245TIP3    H112680   2.441   1.581   0.140
 4245TIP3    H212681   2.317   1.621   0.061
 4246TIP3   OH212682   0.799   0.942   6.671
 4246TIP3    H112683   0.763   1.002   6.606
 4246TIP3    H212684   0.892   0.938   6.652
 4247TIP3   OH212685   1.680   6.450   1.866
 4247TIP3    H112686   1.636   6.525   1.906
 4247TIP3    H212687   1.639   6.373   1.906
 4248TIP3   OH212688   7.808   5.734   0.243
 4248TIP3    H112689   7.837   5.767   0.329
 4248TIP3    H212690   7.715   5.756   0.240
 4249TIP3   OH212691   3.088   1.314   6.283
 4249TIP3    H112692   3.124   1.362   6.208
 4249TIP3    H212693   3.159   1.315   6.348
 4250TIP3   OH212694   1.927   3.459   3.033
 4250TIP3    H112695   2.004   3.430   2.985
 4250TIP3    H212696   1.943   3.552   3.050
 4251TIP3   OH212697   5.999   3.649   1.479
 4251TIP3    H112698   6.007   3.560   1.514
 4251TIP3    H212699   6.007   3.705   1.556
 4252TIP3   OH212700   7.903   3.528   2.170
 4252TIP3    H112701   7.859   3.515   2.086
 4252TIP3    H212702   7.842   3.580   2.221
 4253TIP3   OH212703   3.380   4.208   1.965
 4253TIP3    H112704   3.318   4.138   1.949
 4253TIP3    H212705   3.381   4.259   1.883
 4254TIP3   OH212706   7.487   2.186   4.649
 4254TIP3    H112707   7.416   2.134   4.685
 4254TIP3    H212708   7.549   2.122   4.614
 4255TIP3   OH212709   4.744   2.621   0.942
 4255TIP3    H112710   4.727   2.693   1.003
 4255TIP3    H212711   4.769   2.664   0.861
 4256TIP3   OH212712   8.130   0.764   6.648
 4256TIP3    H112713   8.155   0.706   6.576
 4256TIP3    H212714   8.209   0.771   6.702
 4257TIP3   OH212715   4.479   5.225   4.531
 4257TIP3    H112716   4.511   5.158   4.470
 4257TIP3    H212717   4.390   5.242   4.503
 4258TIP3   OH212718   5.264   1.105   0.691
 4258TIP3    H112719   5.301   1.141   0.772
 4258TIP3    H212720   5.170   1.103   0.706
 4259TIP3   OH212721   3.404   7.325   4.949
 4259TIP3    H112722   3.411   7.238   4.989
 4259TIP3    H212723   3.400   7.307   4.855
 4260TIP3   OH212724   2.867   6.089   0.389
 4260TIP3    H112725   2.907   6.025   0.448
 4260TIP3    H212726   2.923   6.088   0.311
 4261TIP3   OH212727   8.338   0.960   3.769
 4261TIP3    H112728   8.344   0.869   3.741
 4261TIP3    H212729   8.290   0.958   3.851
 4262TIP3   OH212730   7.520   4.928   1.315
 4262TIP3    H112731   7.458   4.867   1.355
 4262TIP3    H212732   7.465   4.997   1.277
 4263TIP3   OH212733   0.621   2.300   4.371
 4263TIP3    H112734   0.617   2.375   4.312
 4263TIP3    H212735   0.533   2.293   4.407
 4264TIP3   OH212736   5.373   0.086   0.738
 4264TIP3    H112737   5.359   0.180   0.752
 4264TIP3    H212738   5.288   0.051   0.713
 4265TIP3   OH212739   4.659   1.752   0.067
 4265TIP3    H112740   4.734   1.781   0.118
 4265TIP3    H212741   4.684   1.666   0.034
 4266TIP3   OH212742   4.798   7.648   1.075
 4266TIP3    H112743   4.760   7.581   1.131
 4266TIP3    H212744   4.752   7.728   1.098
 4267TIP3   OH212745   6.374   6.915   2.202
 4267TIP3    H112746   6.355   6.944   2.291
 4267TIP3    H212747   6.469   6.927   2.192
 4268TIP3   OH212748   4.610   1.706   3.812
 4268TIP3    H112749   4.697   1.742   3.829
 4268TIP3    H212750   4.550   1.781   3.822
 4269TIP3   OH212751   2.099   5.488   5.343
 4269TIP3    H112752   2.156   5.519   5.273
 4269TIP3    H212753   2.014   5.529   5.325
 4270TIP3   OH212754   2.659   6.475   1.175
 4270TIP3    H112755   2.591   6.536   1.205
 4270TIP3    H212756   2.617   6.389   1.177
 4271TIP3   OH212757   2.924   1.415   3.179
 4271TIP3    H112758   2.985   1.419   3.106
 4271TIP3    H212759   2.841   1.445   3.142
 4272TIP3   OH212760   1.463   4.962   0.853
 4272TIP3    H112761   1.465   5.016   0.932
 4272TIP3    H212762   1.551   4.971   0.816
 4273TIP3   OH212763   6.994   5.064   5.331
 4273TIP3    H112764   6.960   4.980   5.363
 4273TIP3    H212765   6.922   5.103   5.282
 4274TIP3   OH212766   2.158   4.210   1.872
 4274TIP3    H112767   2.181   4.127   1.831
 4274TIP3    H212768   2.240   4.260   1.874
 4275TIP3   OH212769   5.387   3.241   3.150
 4275TIP3    H112770   5.433   3.221   3.232
 4275TIP3    H212771   5.455   3.273   3.091
 4276TIP3   OH212772   7.896   1.182   6.779
 4276TIP3    H112773   7.910   1.257   6.721
 4276TIP3    H212774   7.924   1.106   6.727
 4277TIP3   OH212775   0.076   7.205   6.218
 4277TIP3    H112776   0.069   7.290   6.261
 4277TIP3    H212777   0.024   7.213   6.139
 4278TIP3   OH212778   6.791   0.320   3.910
 4278TIP3    H112779   6.865   0.344   3.966
 4278TIP3    H212780   6.760   0.237   3.946
 4279TIP3   OH212781   3.489   6.802   4.225
 4279TIP3    H112782   3.517   6.813   4.316
 4279TIP3    H212783   3.408   6.852   4.219
 4280TIP3   OH212784   1.640   4.413   2.959
 4280TIP3    H112785   1.584   4.339   2.984
 4280TIP3    H212786   1.584   4.490   2.971
 4281TIP3   OH212787   5.386   3.260   1.165
 4281TIP3    H112788   5.451   3.327   1.142
 4281TIP3    H212789   5.372   3.211   1.084
 4282TIP3   OH212790   7.596   7.232   5.047
 4282TIP3    H112791   7.616   7.297   5.114
 4282TIP3    H212792   7.625   7.273   4.965
 4283TIP3   OH212793   5.633   1.963   4.994
 4283TIP3    H112794   5.716   1.958   4.947
 4283TIP3    H212795   5.655   2.001   5.079
 4284TIP3   OH212796   7.020   1.229   3.250
 4284TIP3    H112797   7.007   1.305   3.307
 4284TIP3    H212798   7.038   1.266   3.164
 4285TIP3   OH212799   3.048   2.350   5.390
 4285TIP3    H112800   2.971   2.331   5.442
 4285TIP3    H212801   3.116   2.291   5.423
 4286TIP3   OH212802   6.210   0.423   3.626
 4286TIP3    H112803   6.291   0.381   3.596
 4286TIP3    H212804   6.199   0.394   3.716
 4287TIP3   OH212805   5.883   7.106   0.768
 4287TIP3    H112806   5.927   7.177   0.720
 4287TIP3    H212807   5.800   7.145   0.797
 4288TIP3   OH212808   0.476   5.215   4.856
 4288TIP3    H112809   0.500   5.124   4.874
 4288TIP3    H212810   0.381   5.215   4.856
 4289TIP3   OH212811   1.208   2.059   2.056
 4289TIP3    H112812   1.137   2.010   2.013
 4289TIP3    H212813   1.185   2.151   2.042
 4290TIP3   OH212814   5.873   5.983   0.476
 4290TIP3    H112815   5.876   6.064   0.527
 4290TIP3    H212816   5.959   5.978   0.434
 4291TIP3   OH212817   4.161   3.228   0.918
 4291TIP3    H112818   4.243   3.194   0.884
 4291TIP3    H212819   4.168   3.323   0.906
 4292TIP3   OH212820   6.661   7.615   5.560
 4292TIP3    H112821   6.590   7.613   5.625
 4292TIP3    H212822   6.727   7.673   5.598
 4293TIP3   OH212823   7.894   0.384   2.111
 4293TIP3    H112824   7.878   0.328   2.035
 4293TIP3    H212825   7.871   0.330   2.186
 4294TIP3   OH212826   6.353   4.466   4.854
 4294TIP3    H112827   6.383   4.387   4.809
 4294TIP3    H212828   6.338   4.529   4.784
 4295TIP3   OH212829   7.706   3.108   3.656
 4295TIP3    H112830   7.613   3.088   3.645
 4295TIP3    H212831   7.750   3.025   3.636
 4296TIP3   OH212832   0.584   0.417   2.821
 4296TIP3    H112833   0.659   0.475   2.822
 4296TIP3    H212834   0.509   0.474   2.803
 4297TIP3   OH212835   4.854   3.845   1.524
 4297TIP3    H112836   4.831   3.778   1.459
 4297TIP3    H212837   4.770   3.874   1.559
 4298TIP3   OH212838   6.625   7.754   3.491
 4298TIP3    H112839   6.624   7.724   3.400
 4298TIP3    H212840   6.675   7.836   3.488
 4299TIP3   OH212841  -0.005   1.967   5.451
 4299TIP3    H112842  -0.072   2.031   5.429
 4299TIP3    H212843   0.076   2.019   5.459
 4300TIP3   OH212844   0.112   0.964   3.240
 4300TIP3    H112845   0.032   0.915   3.262
 4300TIP3    H212846   0.163   0.963   3.321
 4301TIP3   OH212847   6.118   1.618   2.904
 4301TIP3    H112848   6.061   1.587   2.834
 4301TIP3    H212849   6.057   1.648   2.972
 4302TIP3   OH212850   3.287   4.833   1.986
 4302TIP3    H112851   3.262   4.918   2.022
 4302TIP3    H212852   3.302   4.851   1.893
 4303TIP3   OH212853   7.031   3.830   6.635
 4303TIP3    H112854   7.019   3.891   6.562
 4303TIP3    H212855   7.112   3.783   6.613
 4304TIP3   OH212856   5.340   0.409   5.882
 4304TIP3    H112857   5.419   0.409   5.827
 4304TIP3    H212858   5.290   0.486   5.853
 4305TIP3   OH212859   2.779   5.437   4.616
 4305TIP3    H112860   2.769   5.355   4.664
 4305TIP3    H212861   2.718   5.429   4.543
 4306TIP3   OH212862   0.551   1.709   6.432
 4306TIP3    H112863   0.545   1.627   6.383
 4306TIP3    H212864   0.576   1.774   6.367
 4307TIP3   OH212865   2.556   5.229   2.780
 4307TIP3    H112866   2.558   5.325   2.784
 4307TIP3    H212867   2.597   5.202   2.862
 4308TIP3   OH212868   4.393   7.133   0.412
 4308TIP3    H112869   4.381   7.065   0.345
 4308TIP3    H212870   4.359   7.213   0.371
 4309TIP3   OH212871   5.950   5.859   4.827
 4309TIP3    H112872   5.935   5.813   4.909
 4309TIP3    H212873   5.963   5.950   4.853
 4310TIP3   OH212874   2.506   3.192   5.197
 4310TIP3    H112875   2.455   3.237   5.264
 4310TIP3    H212876   2.575   3.146   5.245
 4311TIP3   OH212877   3.607   2.197   6.552
 4311TIP3    H112878   3.673   2.148   6.503
 4311TIP3    H212879   3.651   2.222   6.634
 4312TIP3   OH212880   5.952   3.877   6.058
 4312TIP3    H112881   6.040   3.846   6.038
 4312TIP3    H212882   5.906   3.801   6.093
 4313TIP3   OH212883   6.498   2.183   0.040
 4313TIP3    H112884   6.555   2.251   0.002
 4313TIP3    H212885   6.421   2.231   0.070
 4314TIP3   OH212886   0.758   2.394   6.073
 4314TIP3    H112887   0.794   2.369   5.988
 4314TIP3    H212888   0.749   2.489   6.069
 4315TIP3   OH212889   5.152   4.019   6.042
 4315TIP3    H112890   5.124   3.939   6.087
 4315TIP3    H212891   5.234   3.995   5.998
 4316TIP3   OH212892   5.079   5.991   4.241
 4316TIP3    H112893   5.023   6.055   4.196
 4316TIP3    H212894   5.022   5.951   4.306
 4317TIP3   OH212895   6.385   1.126   3.578
 4317TIP3    H112896   6.439   1.192   3.621
 4317TIP3    H212897   6.302   1.129   3.625
 4318TIP3   OH212898   1.116   7.494   4.633
 4318TIP3    H112899   1.178   7.430   4.599
 4318TIP3    H212900   1.168   7.548   4.693
 4319TIP3   OH212901   7.712   0.464   2.755
 4319TIP3    H112902   7.640   0.416   2.796
 4319TIP3    H212903   7.669   0.537   2.709
 4320TIP3   OH212904   4.689   4.212   2.926
 4320TIP3    H112905   4.707   4.304   2.944
 4320TIP3    H212906   4.611   4.213   2.870
 4321TIP3   OH212907   1.371   0.167   5.492
 4321TIP3    H112908   1.445   0.164   5.431
 4321TIP3    H212909   1.296   0.141   5.438
 4322TIP3   OH212910   2.244   0.147   3.839
 4322TIP3    H112911   2.171   0.169   3.897
 4322TIP3    H212912   2.246   0.051   3.838
 4323TIP3   OH212913   3.257   4.829   1.725
 4323TIP3    H112914   3.313   4.868   1.658
 4323TIP3    H212915   3.229   4.746   1.689
 4324TIP3   OH212916   5.057   0.638   6.711
 4324TIP3    H112917   5.131   0.631   6.651
 4324TIP3    H212918   5.025   0.549   6.721
 4325TIP3   OH212919   0.055   0.660   5.389
 4325TIP3    H112920   0.002   0.587   5.420
 4325TIP3    H212921   0.018   0.738   5.431
 4326TIP3   OH212922   7.941   5.334   5.643
 4326TIP3    H112923   7.905   5.248   5.667
 4326TIP3    H212924   8.036   5.324   5.653
 4327TIP3   OH212925   0.701   4.381   0.817
 4327TIP3    H112926   0.624   4.332   0.787
 4327TIP3    H212927   0.734   4.330   0.891
 4328TIP3   OH212928   3.287   4.865   6.648
 4328TIP3    H112929   3.353   4.796   6.635
 4328TIP3    H212930   3.245   4.874   6.563
 4329TIP3   OH212931   2.494   5.271   3.650
 4329TIP3    H112932   2.456   5.336   3.709
 4329TIP3    H212933   2.586   5.294   3.644
 4330TIP3   OH212934   4.470   5.699   3.837
 4330TIP3    H112935   4.518   5.747   3.770
 4330TIP3    H212936   4.454   5.763   3.906
 4331TIP3   OH212937   6.179   5.448   0.469
 4331TIP3    H112938   6.152   5.357   0.485
 4331TIP3    H212939   6.137   5.471   0.386
 4332TIP3   OH212940   0.179   0.909   4.119
 4332TIP3    H112941   0.089   0.883   4.102
 4332TIP3    H212942   0.176   0.951   4.205
 4333TIP3   OH212943   3.338   4.978   4.383
 4333TIP3    H112944   3.263   4.981   4.324
 4333TIP3    H212945   3.409   5.019   4.334
 4334TIP3   OH212946   4.713   1.182   5.639
 4334TIP3    H112947   4.621   1.161   5.658
 4334TIP3    H212948   4.761   1.148   5.715
 4335TIP3   OH212949   4.518   7.522   6.714
 4335TIP3    H112950   4.543   7.464   6.643
 4335TIP3    H212951   4.600   7.541   6.760
 4336TIP3   OH212952   1.737   2.866   4.549
 4336TIP3    H112953   1.806   2.801   4.560
 4336TIP3    H212954   1.779   2.937   4.501
 4337TIP3   OH212955   7.327   5.173   0.943
 4337TIP3    H112956   7.403   5.218   0.907
 4337TIP3    H212957   7.265   5.167   0.870
 4338TIP3   OH212958   7.763   5.638   2.480
 4338TIP3    H112959   7.671   5.666   2.480
 4338TIP3    H212960   7.767   5.571   2.412
 4339TIP3   OH212961   3.556   2.781   1.596
 4339TIP3    H112962   3.601   2.700   1.620
 4339TIP3    H212963   3.508   2.806   1.675
 4340TIP3   OH212964   0.475   3.108   0.422
 4340TIP3    H112965   0.562   3.117   0.462
 4340TIP3    H212966   0.472   3.018   0.391
 4341TIP3   OH212967   3.968   2.575   5.055
 4341TIP3    H112968   4.062   2.566   5.043
 4341TIP3    H212969   3.958   2.614   5.142
 4342TIP3   OH212970   4.257   0.140   3.808
 4342TIP3    H112971   4.275   0.136   3.714
 4342TIP3    H212972   4.344   0.145   3.849
 4343TIP3   OH212973   2.387   6.325   2.511
 4343TIP3    H112974   2.391   6.334   2.606
 4343TIP3    H212975   2.316   6.261   2.496
 4344TIP3   OH212976   5.379   2.003   4.450
 4344TIP3    H112977   5.356   1.951   4.527
 4344TIP3    H212978   5.360   1.946   4.375
 4345TIP3   OH212979   8.065   2.869   2.845
 4345TIP3    H112980   8.098   2.912   2.924
 4345TIP3    H212981   8.036   2.782   2.875
 4346TIP3   OH212982   6.401   6.295   2.335
 4346TIP3    H112983   6.365   6.295   2.424
 4346TIP3    H212984   6.390   6.385   2.304
 4347TIP3   OH212985   4.224   5.849   0.153
 4347TIP3    H112986   4.190   5.781   0.094
 4347TIP3    H212987   4.172   5.926   0.133
 4348TIP3   OH212988   6.285   5.582   2.028
 4348TIP3    H112989   6.224   5.652   2.002
 4348TIP3    H212990   6.271   5.513   1.963
 4349TIP3   OH212991   4.093   2.958   6.082
 4349TIP3    H112992   4.025   3.008   6.038
 4349TIP3    H212993   4.170   3.015   6.081
 4350TIP3   OH212994   4.164   0.123   3.072
 4350TIP3    H112995   4.213   0.046   3.103
 4350TIP3    H212996   4.156   0.110   2.978
 4351TIP3   OH212997   5.473   1.606   4.335
 4351TIP3    H112998   5.420   1.556   4.397
 4351TIP3    H212999   5.408   1.644   4.275
 4352TIP3   OH213000   3.195   0.344   0.913
 4352TIP3    H113001   3.152   0.264   0.881
 4352TIP3    H213002   3.183   0.407   0.842
 4353TIP3   OH213003   7.522   6.056   6.037
 4353TIP3    H113004   7.529   5.964   6.061
 4353TIP3    H213005   7.570   6.062   5.954
 4354TIP3   OH213006   7.932   4.029   5.697
 4354TIP3    H113007   7.987   4.053   5.622
 4354TIP3    H213008   7.849   4.002   5.658
 4355TIP3   OH213009   2.475   4.317   0.977
 4355TIP3    H113010   2.399   4.293   0.923
 4355TIP3    H213011   2.454   4.405   1.009
 4356TIP3   OH213012   0.727   7.015   3.627
 4356TIP3    H113013   0.665   7.042   3.559
 4356TIP3    H213014   0.679   6.954   3.681
 4357TIP3   OH213015   3.113   7.028   1.371
 4357TIP3    H113016   3.195   7.077   1.372
 4357TIP3    H213017   3.111   6.984   1.456
 4358TIP3   OH213018   5.154   5.902   3.226
 4358TIP3    H113019   5.143   5.816   3.267
 4358TIP3    H213020   5.123   5.890   3.137
 4359TIP3   OH213021   0.975   2.298   6.249
 4359TIP3    H113022   1.015   2.374   6.292
 4359TIP3    H213023   0.896   2.333   6.208
 4360TIP3   OH213024   6.325   5.743   1.417
 4360TIP3    H113025   6.252   5.730   1.356
 4360TIP3    H213026   6.340   5.838   1.417
 4361TIP3   OH213027   2.204   7.722   5.320
 4361TIP3    H113028   2.143   7.713   5.247
 4361TIP3    H213029   2.270   7.784   5.288
 4362TIP3   OH213030   1.681   6.838   5.175
 4362TIP3    H113031   1.588   6.845   5.197
 4362TIP3    H213032   1.712   6.928   5.174
 4363TIP3   OH213033   2.797   2.413   1.666
 4363TIP3    H113034   2.808   2.386   1.575
 4363TIP3    H213035   2.808   2.508   1.664
 4364TIP3   OH213036   6.781   6.392   2.075
 4364TIP3    H113037   6.858   6.347   2.041
 4364TIP3    H213038   6.798   6.484   2.059
 4365TIP3   OH213039   7.024   3.239   6.661
 4365TIP3    H113040   7.056   3.260   6.749
 4365TIP3    H213041   6.933   3.211   6.675
 4366TIP3   OH213042   5.392   0.298   2.235
 4366TIP3    H113043   5.429   0.210   2.244
 4366TIP3    H213044   5.346   0.314   2.317
 4367TIP3   OH213045   6.914   6.587   1.254
 4367TIP3    H113046   6.941   6.663   1.306
 4367TIP3    H213047   6.961   6.597   1.171
 4368TIP3   OH213048   3.602   2.493   2.976
 4368TIP3    H113049   3.627   2.456   2.891
 4368TIP3    H213050   3.610   2.419   3.037
 4369TIP3   OH213051   1.834   1.030   5.175
 4369TIP3    H113052   1.792   1.053   5.258
 4369TIP3    H213053   1.906   1.092   5.167
 4370TIP3   OH213054   2.181   0.956   3.815
 4370TIP3    H113055   2.129   0.916   3.746
 4370TIP3    H213056   2.267   0.915   3.809
 4371TIP3   OH213057   7.980   2.093   5.100
 4371TIP3    H113058   7.896   2.071   5.060
 4371TIP3    H213059   8.031   2.012   5.095
 4372TIP3   OH213060   5.004   0.245   4.745
 4372TIP3    H113061   4.979   0.335   4.765
 4372TIP3    H213062   4.921   0.199   4.732
 4373TIP3   OH213063   7.492   5.824   4.677
 4373TIP3    H113064   7.456   5.906   4.710
 4373TIP3    H213065   7.415   5.771   4.654
 4374TIP3   OH213066   3.557   1.594   2.456
 4374TIP3    H113067   3.578   1.512   2.411
 4374TIP3    H213068   3.525   1.566   2.542
 4375TIP3   OH213069   6.121   3.231   0.205
 4375TIP3    H113070   6.214   3.236   0.185
 4375TIP3    H213071   6.097   3.318   0.236
 4376TIP3   OH213072   1.764   4.164   5.509
 4376TIP3    H113073   1.756   4.230   5.577
 4376TIP3    H213074   1.855   4.135   5.513
 4377TIP3   OH213075   6.037   4.813   2.339
 4377TIP3    H113076   6.000   4.736   2.295
 4377TIP3    H213077   5.992   4.887   2.299
 4378TIP3   OH213078   0.283   5.879   2.152
 4378TIP3    H113079   0.342   5.805   2.166
 4378TIP3    H213080   0.226   5.851   2.080
 4379TIP3   OH213081   5.397   5.754   0.741
 4379TIP3    H113082   5.493   5.745   0.741
 4379TIP3    H213083   5.368   5.700   0.815
 4380TIP3   OH213084   5.939   6.284   2.265
 4380TIP3    H113085   5.903   6.338   2.336
 4380TIP3    H213086   5.990   6.345   2.213
 4381TIP3   OH213087   1.310   6.389   3.888
 4381TIP3    H113088   1.252   6.455   3.853
 4381TIP3    H213089   1.253   6.316   3.910
 4382TIP3   OH213090   7.497   0.259   2.679
 4382TIP3    H113091   7.571   0.215   2.722
 4382TIP3    H213092   7.438   0.188   2.656
 4383TIP3   OH213093   2.373   6.777   3.192
 4383TIP3    H113094   2.387   6.841   3.262
 4383TIP3    H213095   2.317   6.823   3.129
 4384TIP3   OH213096   7.149   1.368   4.536
 4384TIP3    H113097   7.186   1.283   4.514
 4384TIP3    H213098   7.166   1.422   4.459
 4385TIP3   OH213099   0.972   4.914   0.175
 4385TIP3    H113100   1.039   4.851   0.148
 4385TIP3    H213101   0.990   4.992   0.123
 4386TIP3   OH213102   7.427   3.395   0.145
 4386TIP3    H113103   7.444   3.308   0.108
 4386TIP3    H213104   7.455   3.388   0.236
 4387TIP3   OH213105   4.788   6.139   2.456
 4387TIP3    H113106   4.796   6.201   2.383
 4387TIP3    H213107   4.847   6.068   2.433
 4388TIP3   OH213108   4.511   2.169   4.943
 4388TIP3    H113109   4.464   2.123   5.013
 4388TIP3    H213110   4.577   2.221   4.988
 4389TIP3   OH213111   5.691   1.760   4.407
 4389TIP3    H113112   5.757   1.715   4.353
 4389TIP3    H213113   5.611   1.711   4.392
 4390TIP3   OH213114   7.050   4.015   6.403
 4390TIP3    H113115   7.124   4.073   6.386
 4390TIP3    H213116   6.996   4.022   6.325
 4391TIP3   OH213117   6.637   2.169   6.143
 4391TIP3    H113118   6.697   2.241   6.127
 4391TIP3    H213119   6.692   2.091   6.140
 4392TIP3   OH213120   4.216   2.789   1.335
 4392TIP3    H113121   4.174   2.796   1.421
 4392TIP3    H213122   4.235   2.879   1.310
 4393TIP3   OH213123   5.171   1.643   2.929
 4393TIP3    H113124   5.197   1.698   3.002
 4393TIP3    H213125   5.247   1.589   2.910
 4394TIP3   OH213126   7.119   2.951   1.177
 4394TIP3    H113127   7.191   2.916   1.125
 4394TIP3    H213128   7.098   2.882   1.240
 4395TIP3   OH213129   6.824   0.074   0.331
 4395TIP3    H113130   6.734   0.061   0.304
 4395TIP3    H213131   6.828   0.040   0.420
 4396TIP3   OH213132   6.523   6.567   4.157
 4396TIP3    H113133   6.594   6.570   4.220
 4396TIP3    H213134   6.493   6.658   4.151
 4397TIP3   OH213135   0.733   7.073   6.016
 4397TIP3    H113136   0.681   7.054   5.938
 4397TIP3    H213137   0.782   7.152   5.993
 4398TIP3   OH213138   6.230   6.258   4.863
 4398TIP3    H113139   6.293   6.198   4.823
 4398TIP3    H213140   6.145   6.228   4.832
 4399TIP3   OH213141   1.486   3.731   4.642
 4399TIP3    H113142   1.404   3.773   4.666
 4399TIP3    H213143   1.460   3.657   4.588
 4400TIP3   OH213144   4.238   1.820   1.532
 4400TIP3    H113145   4.270   1.749   1.588
 4400TIP3    H213146   4.143   1.808   1.532
 4401TIP3   OH213147   3.710   4.343   4.857
 4401TIP3    H113148   3.675   4.277   4.797
 4401TIP3    H213149   3.739   4.414   4.800
 4402TIP3   OH213150   6.161   7.683   2.885
 4402TIP3    H113151   6.210   7.679   2.802
 4402TIP3    H213152   6.136   7.775   2.893
 4403TIP3   OH213153   0.957   3.038   0.801
 4403TIP3    H113154   0.909   2.955   0.804
 4403TIP3    H213155   1.048   3.013   0.785
 4404TIP3   OH213156   4.279   5.021   3.728
 4404TIP3    H113157   4.233   5.104   3.742
 4404TIP3    H213158   4.292   5.017   3.633
 4405TIP3   OH213159   6.166   2.601   1.579
 4405TIP3    H113160   6.252   2.613   1.538
 4405TIP3    H213161   6.103   2.628   1.512
 4406TIP3   OH213162   2.087   7.029   2.442
 4406TIP3    H113163   2.016   6.968   2.420
 4406TIP3    H213164   2.043   7.113   2.454
 4407TIP3   OH213165   4.051   2.706   4.601
 4407TIP3    H113166   4.100   2.752   4.670
 4407TIP3    H213167   3.987   2.654   4.649
 4408TIP3   OH213168   5.155   5.117   5.263
 4408TIP3    H113169   5.093   5.183   5.232
 4408TIP3    H213170   5.236   5.166   5.278
 4409TIP3   OH213171   7.014   7.358   1.370
 4409TIP3    H113172   6.961   7.315   1.303
 4409TIP3    H213173   6.957   7.426   1.406
 4410TIP3   OH213174   3.738   2.555   4.469
 4410TIP3    H113175   3.764   2.468   4.440
 4410TIP3    H213176   3.645   2.561   4.446
 4411TIP3   OH213177   4.694   2.923   4.208
 4411TIP3    H113178   4.631   2.922   4.136
 4411TIP3    H213179   4.713   2.830   4.224
 4412TIP3   OH213180   4.367   4.138   0.526
 4412TIP3    H113181   4.349   4.152   0.619
 4412TIP3    H213182   4.281   4.147   0.483
 4413TIP3   OH213183   7.229   6.996   5.366
 4413TIP3    H113184   7.196   7.067   5.422
 4413TIP3    H213185   7.263   6.931   5.427
 4414TIP3   OH213186   0.465   4.200   0.307
 4414TIP3    H113187   0.437   4.116   0.343
 4414TIP3    H213188   0.396   4.261   0.334
 4415TIP3   OH213189   4.279   4.604   1.836
 4415TIP3    H113190   4.245   4.675   1.781
 4415TIP3    H213191   4.261   4.632   1.925
 4416TIP3   OH213192   2.984   3.658   3.115
 4416TIP3    H113193   2.899   3.688   3.082
 4416TIP3    H213194   2.991   3.695   3.203
 4417TIP3   OH213195   4.811   0.898   4.219
 4417TIP3    H113196   4.769   0.917   4.303
 4417TIP3    H213197   4.902   0.927   4.231
 4418TIP3   OH213198   8.020   5.117   0.756
 4418TIP3    H113199   7.978   5.064   0.689
 4418TIP3    H213200   8.008   5.207   0.727
 4419TIP3   OH213201   4.611   0.817   4.768
 4419TIP3    H113202   4.554   0.889   4.740
 4419TIP3    H213203   4.600   0.813   4.863
 4420TIP3   OH213204   7.270   4.516   4.429
 4420TIP3    H113205   7.213   4.444   4.457
 4420TIP3    H213206   7.322   4.537   4.506
 4421TIP3   OH213207   4.055   3.673   3.685
 4421TIP3    H113208   3.976   3.634   3.648
 4421TIP3    H213209   4.056   3.641   3.776
 4422TIP3   OH213210   4.197   2.410   4.173
 4422TIP3    H113211   4.210   2.331   4.225
 4422TIP3    H213212   4.166   2.475   4.235
 4423TIP3   OH213213   0.250   5.480   5.117
 4423TIP3    H113214   0.253   5.523   5.202
 4423TIP3    H213215   0.342   5.467   5.094
 4424TIP3   OH213216   7.224   7.717   4.485
 4424TIP3    H113217   7.141   7.763   4.471
 4424TIP3    H213218   7.280   7.782   4.528
 4425TIP3   OH213219   0.908   1.301   2.144
 4425TIP3    H113220   0.906   1.224   2.087
 4425TIP3    H213221   0.963   1.275   2.218
 4426TIP3   OH213222   7.025   3.707   5.959
 4426TIP3    H113223   6.981   3.726   5.876
 4426TIP3    H213224   6.985   3.625   5.989
 4427TIP3   OH213225   4.201   0.055   0.363
 4427TIP3    H113226   4.176   0.118   0.295
 4427TIP3    H213227   4.252   0.106   0.426
 4428TIP3   OH213228   6.427   7.072   2.689
 4428TIP3    H113229   6.469   7.155   2.712
 4428TIP3    H213230   6.380   7.046   2.768
 4429TIP3   OH213231   2.277   6.142   1.063
 4429TIP3    H113232   2.370   6.139   1.084
 4429TIP3    H213233   2.260   6.233   1.040
 4430TIP3   OH213234   0.613   0.442   1.288
 4430TIP3    H113235   0.520   0.440   1.264
 4430TIP3    H213236   0.614   0.475   1.377
 4431TIP3   OH213237   1.386   1.913   1.905
 4431TIP3    H113238   1.343   1.963   1.974
 4431TIP3    H213239   1.473   1.953   1.898
 4432TIP3   OH213240   2.241   4.916   5.413
 4432TIP3    H113241   2.201   4.862   5.344
 4432TIP3    H213242   2.244   5.004   5.376
 4433TIP3   OH213243   0.831   4.331   5.731
 4433TIP3    H113244   0.748   4.375   5.748
 4433TIP3    H213245   0.853   4.354   5.641
 4434TIP3   OH213246   4.949   3.036   5.098
 4434TIP3    H113247   4.904   2.952   5.113
 4434TIP3    H213248   5.040   3.019   5.122
 4435TIP3   OH213249   6.574   3.013   6.425
 4435TIP3    H113250   6.600   3.103   6.444
 4435TIP3    H213251   6.479   3.014   6.429
 4436TIP3   OH213252   6.606   3.301   0.656
 4436TIP3    H113253   6.626   3.208   0.659
 4436TIP3    H213254   6.514   3.307   0.682
 4437TIP3   OH213255   7.155   0.538   4.269
 4437TIP3    H113256   7.085   0.538   4.334
 4437TIP3    H213257   7.109   0.534   4.185
 4438TIP3   OH213258   6.001   4.344   5.053
 4438TIP3    H113259   5.939   4.371   5.120
 4438TIP3    H213260   5.960   4.368   4.970
 4439TIP3   OH213261   3.417   7.711   1.949
 4439TIP3    H113262   3.389   7.649   1.881
 4439TIP3    H213263   3.511   7.693   1.961
 4440TIP3   OH213264   0.200   6.286   5.434
 4440TIP3    H113265   0.137   6.353   5.404
 4440TIP3    H213266   0.206   6.299   5.528
 4441TIP3   OH213267   6.792   4.512   2.892
 4441TIP3    H113268   6.826   4.573   2.957
 4441TIP3    H213269   6.821   4.548   2.808
 4442TIP3   OH213270   1.326   6.429   2.793
 4442TIP3    H113271   1.369   6.423   2.878
 4442TIP3    H213272   1.260   6.497   2.804
 4443TIP3   OH213273   5.978   0.861   3.834
 4443TIP3    H113274   5.978   0.775   3.875
 4443TIP3    H213275   6.065   0.897   3.855
 4444TIP3   OH213276   2.717   1.141   2.498
 4444TIP3    H113277   2.715   1.216   2.558
 4444TIP3    H213278   2.654   1.079   2.534
 4445TIP3   OH213279   4.568   6.010   4.808
 4445TIP3    H113280   4.625   6.081   4.836
 4445TIP3    H213281   4.626   5.948   4.765
 4446TIP3   OH213282   1.949   0.188   4.891
 4446TIP3    H113283   1.998   0.111   4.918
 4446TIP3    H213284   1.910   0.222   4.971
 4447TIP3   OH213285   3.749   6.766   1.473
 4447TIP3    H113286   3.670   6.750   1.525
 4447TIP3    H213287   3.787   6.679   1.460
 4448TIP3   OH213288   5.088   5.197   6.722
 4448TIP3    H113289   5.161   5.189   6.660
 4448TIP3    H213290   5.124   5.167   6.805
 4449TIP3   OH213291   2.290   4.489   1.611
 4449TIP3    H113292   2.240   4.540   1.547
 4449TIP3    H213293   2.272   4.398   1.588
 4450TIP3   OH213294   3.600   2.123   2.198
 4450TIP3    H113295   3.632   2.059   2.262
 4450TIP3    H213296   3.534   2.074   2.148
 4451TIP3   OH213297   8.129   4.499   4.640
 4451TIP3    H113298   8.143   4.514   4.546
 4451TIP3    H213299   8.152   4.582   4.681
 4452TIP3   OH213300   2.850   3.996   1.103
 4452TIP3    H113301   2.825   3.995   1.011
 4452TIP3    H213302   2.935   3.951   1.105
 4453TIP3   OH213303   0.603   7.610   2.568
 4453TIP3    H113304   0.667   7.671   2.532
 4453TIP3    H213305   0.555   7.576   2.492
 4454TIP3   OH213306   1.005   1.039   3.714
 4454TIP3    H113307   1.069   1.084   3.768
 4454TIP3    H213308   0.991   0.955   3.758
 4455TIP3   OH213309   0.586   0.835   4.571
 4455TIP3    H113310   0.661   0.869   4.620
 4455TIP3    H213311   0.510   0.854   4.626
 4456TIP3   OH213312   5.382   6.761   2.042
 4456TIP3    H113313   5.385   6.783   1.949
 4456TIP3    H213314   5.291   6.739   2.059
 4457TIP3   OH213315   6.402   5.866   0.147
 4457TIP3    H113316   6.350   5.883   0.068
 4457TIP3    H213317   6.444   5.782   0.131
 4458TIP3   OH213318   5.113   2.914   3.645
 4458TIP3    H113319   5.190   2.932   3.698
 4458TIP3    H213320   5.102   2.993   3.591
 4459TIP3   OH213321   7.002   5.955   5.249
 4459TIP3    H113322   7.033   6.045   5.241
 4459TIP3    H213323   6.907   5.964   5.261
 4460TIP3   OH213324   6.881   0.166   5.872
 4460TIP3    H113325   6.844   0.222   5.941
 4460TIP3    H213326   6.806   0.146   5.815
 4461TIP3   OH213327   6.321   2.879   1.569
 4461TIP3    H113328   6.416   2.888   1.560
 4461TIP3    H213329   6.301   2.795   1.530
 4462TIP3   OH213330   2.180   1.838   4.480
 4462TIP3    H113331   2.213   1.831   4.570
 4462TIP3    H213332   2.085   1.850   4.490
 4463TIP3   OH213333   3.319   1.022   3.220
 4463TIP3    H113334   3.294   1.107   3.257
 4463TIP3    H213335   3.254   1.006   3.151
 4464TIP3   OH213336   7.777   3.975   1.977
 4464TIP3    H113337   7.785   3.995   1.883
 4464TIP3    H213338   7.867   3.959   2.006
 4465TIP3   OH213339   6.263   0.980   3.914
 4465TIP3    H113340   6.332   0.927   3.874
 4465TIP3    H213341   6.223   1.027   3.841
 4466TIP3   OH213342   6.142   6.352   5.576
 4466TIP3    H113343   6.051   6.380   5.583
 4466TIP3    H213344   6.179   6.370   5.662
 4467TIP3   OH213345   3.088   0.437   4.810
 4467TIP3    H113346   3.149   0.366   4.788
 4467TIP3    H213347   3.143   0.511   4.832
 4468TIP3   OH213348   4.652   1.998   1.562
 4468TIP3    H113349   4.718   2.042   1.617
 4468TIP3    H213350   4.664   1.905   1.582
 4469TIP3   OH213351   5.190   4.631   1.980
 4469TIP3    H113352   5.237   4.569   2.036
 4469TIP3    H213353   5.111   4.653   2.030
 4470TIP3   OH213354   0.888   0.873   4.523
 4470TIP3    H113355   0.840   0.790   4.530
 4470TIP3    H213356   0.957   0.855   4.459
 4471TIP3   OH213357   4.235   1.370   1.712
 4471TIP3    H113358   4.281   1.427   1.774
 4471TIP3    H213359   4.173   1.322   1.767
 4472TIP3   OH213360   3.919   2.028   1.335
 4472TIP3    H113361   3.970   1.953   1.307
 4472TIP3    H213362   3.957   2.102   1.288
 4473TIP3   OH213363   7.058   1.302   0.141
 4473TIP3    H113364   7.092   1.273   0.226
 4473TIP3    H213365   7.096   1.389   0.129
 4474TIP3   OH213366   5.726   4.858   1.993
 4474TIP3    H113367   5.719   4.943   2.036
 4474TIP3    H213368   5.641   4.818   2.007
 4475TIP3   OH213369   1.035   6.710   1.395
 4475TIP3    H113370   0.961   6.649   1.405
 4475TIP3    H213371   1.111   6.660   1.426
 4476TIP3   OH213372   1.287   5.796   6.099
 4476TIP3    H113373   1.299   5.701   6.105
 4476TIP3    H213374   1.317   5.829   6.184
 4477TIP3   OH213375   4.103   2.825   1.634
 4477TIP3    H113376   4.016   2.824   1.672
 4477TIP3    H213377   4.158   2.781   1.699
 4478TIP3   OH213378   1.004   2.572   3.562
 4478TIP3    H113379   0.980   2.564   3.654
 4478TIP3    H213380   1.014   2.481   3.532
 4479TIP3   OH213381   6.318   2.424   0.094
 4479TIP3    H113382   6.262   2.488   0.137
 4479TIP3    H213383   6.353   2.470   0.017
 4480TIP3   OH213384   5.314   2.178   2.377
 4480TIP3    H113385   5.402   2.169   2.343
 4480TIP3    H213386   5.257   2.153   2.304
 4481TIP3   OH213387   8.151   5.128   0.422
 4481TIP3    H113388   8.207   5.198   0.456
 4481TIP3    H213389   8.064   5.165   0.418
 4482TIP3   OH213390   1.051   1.116   2.982
 4482TIP3    H113391   1.034   1.101   3.075
 4482TIP3    H213392   1.127   1.174   2.981
 4483TIP3   OH213393   6.792   7.728   3.891
 4483TIP3    H113394   6.846   7.652   3.871
 4483TIP3    H213395   6.829   7.799   3.839
 4484TIP3   OH213396   4.624   0.345   2.744
 4484TIP3    H113397   4.595   0.423   2.791
 4484TIP3    H213398   4.566   0.339   2.668
 4485TIP3   OH213399   3.958   5.374   2.166
 4485TIP3    H113400   3.998   5.423   2.094
 4485TIP3    H213401   3.948   5.285   2.133
 4486TIP3   OH213402   8.205   5.018   2.664
 4486TIP3    H113403   8.224   4.927   2.686
 4486TIP3    H213404   8.255   5.069   2.729
 4487TIP3   OH213405   2.915   0.376   6.311
 4487TIP3    H113406   2.833   0.425   6.307
 4487TIP3    H213407   2.983   0.444   6.306
 4488TIP3   OH213408   6.464   5.090   6.735
 4488TIP3    H113409   6.502   5.019   6.786
 4488TIP3    H213410   6.538   5.146   6.713
 4489TIP3   OH213411   5.604   4.825   6.577
 4489TIP3    H113412   5.574   4.881   6.648
 4489TIP3    H213413   5.545   4.749   6.580
 4490TIP3   OH213414   4.775   0.954   2.126
 4490TIP3    H113415   4.764   0.967   2.032
 4490TIP3    H213416   4.735   0.869   2.143
 4491TIP3   OH213417   3.688   3.079   6.844
 4491TIP3    H113418   3.710   3.171   6.857
 4491TIP3    H213419   3.768   3.031   6.869
 4492TIP3   OH213420   1.175   0.037   1.536
 4492TIP3    H113421   1.098   0.092   1.551
 4492TIP3    H213422   1.159  -0.042   1.588
 4493TIP3   OH213423   5.728   1.524   0.229
 4493TIP3    H113424   5.692   1.612   0.225
 4493TIP3    H213425   5.657   1.468   0.198
 4494TIP3   OH213426   4.356   6.324   3.089
 4494TIP3    H113427   4.277   6.311   3.037
 4494TIP3    H213428   4.335   6.395   3.149
 4495TIP3   OH213429   2.924   6.479   1.291
 4495TIP3    H113430   2.906   6.571   1.310
 4495TIP3    H213431   2.838   6.439   1.280
 4496TIP3   OH213432   2.364   3.286   3.507
 4496TIP3    H113433   2.429   3.281   3.437
 4496TIP3    H213434   2.303   3.354   3.479
 4497TIP3   OH213435   5.509   5.212   1.717
 4497TIP3    H113436   5.566   5.260   1.777
 4497TIP3    H213437   5.566   5.145   1.678
 4498TIP3   OH213438   4.029   2.643   3.068
 4498TIP3    H113439   3.945   2.678   3.096
 4498TIP3    H213440   4.013   2.609   2.980
 4499TIP3   OH213441   1.212   3.273   4.137
 4499TIP3    H113442   1.153   3.334   4.095
 4499TIP3    H213443   1.165   3.189   4.137
 4500TIP3   OH213444   5.307   7.200   2.730
 4500TIP3    H113445   5.303   7.270   2.664
 4500TIP3    H213446   5.340   7.243   2.808
 4501TIP3   OH213447   5.691   1.873   2.222
 4501TIP3    H113448   5.645   1.793   2.247
 4501TIP3    H213449   5.696   1.868   2.126
 4502TIP3   OH213450   3.885   5.615   1.107
 4502TIP3    H113451   3.942   5.563   1.050
 4502TIP3    H213452   3.874   5.561   1.186
 4503TIP3   OH213453   0.112   4.985   5.777
 4503TIP3    H113454   0.027   5.017   5.746
 4503TIP3    H213455   0.104   4.989   5.873
 4504TIP3   OH213456   1.100   3.364   5.947
 4504TIP3    H113457   1.115   3.427   6.017
 4504TIP3    H213458   1.107   3.415   5.866
 4505TIP3   OH213459   2.879   5.728   6.068
 4505TIP3    H113460   2.938   5.778   6.125
 4505TIP3    H213461   2.893   5.637   6.094
 4506TIP3   OH213462   3.798   7.247   4.071
 4506TIP3    H113463   3.879   7.297   4.061
 4506TIP3    H213464   3.730   7.305   4.038
 4507TIP3   OH213465   4.724   0.583   4.644
 4507TIP3    H113466   4.750   0.623   4.561
 4507TIP3    H213467   4.636   0.617   4.661
 4508TIP3   OH213468   0.443   0.255   6.515
 4508TIP3    H113469   0.394   0.200   6.576
 4508TIP3    H213470   0.396   0.246   6.432
 4509TIP3   OH213471   6.147   7.740   0.508
 4509TIP3    H113472   6.161   7.731   0.602
 4509TIP3    H213473   6.060   7.703   0.493
 4510TIP3   OH213474   3.629   0.310   3.477
 4510TIP3    H113475   3.618   0.239   3.540
 4510TIP3    H213476   3.720   0.304   3.448
 4511TIP3   OH213477   4.731   4.279   5.188
 4511TIP3    H113478   4.729   4.246   5.098
 4511TIP3    H213479   4.652   4.244   5.229
 4512TIP3   OH213480   4.510   5.477   5.685
 4512TIP3    H113481   4.514   5.394   5.637
 4512TIP3    H213482   4.418   5.486   5.709
 4513TIP3   OH213483   7.922   0.725   5.940
 4513TIP3    H113484   7.853   0.726   6.006
 4513TIP3    H213485   7.887   0.670   5.870
 4514TIP3   OH213486   6.777   6.811   4.944
 4514TIP3    H113487   6.866   6.781   4.924
 4514TIP3    H213488   6.724   6.732   4.942
 4515TIP3   OH213489   3.888   3.686   5.777
 4515TIP3    H113490   3.864   3.775   5.803
 4515TIP3    H213491   3.984   3.683   5.787
 4516TIP3   OH213492   2.890   7.477   0.757
 4516TIP3    H113493   2.844   7.445   0.679
 4516TIP3    H213494   2.847   7.432   0.830
 4517TIP3   OH213495   6.333   3.373   5.640
 4517TIP3    H113496   6.356   3.288   5.677
 4517TIP3    H213497   6.271   3.353   5.570
 4518TIP3   OH213498   1.505   5.173   1.026
 4518TIP3    H113499   1.460   5.160   1.109
 4518TIP3    H213500   1.455   5.242   0.982
 4519TIP3   OH213501   5.303   4.596   4.792
 4519TIP3    H113502   5.212   4.619   4.809
 4519TIP3    H213503   5.340   4.577   4.879
 4520TIP3   OH213504   6.519   3.799   4.034
 4520TIP3    H113505   6.439   3.782   3.984
 4520TIP3    H213506   6.547   3.886   4.006
 4521TIP3   OH213507   1.061   3.122   6.418
 4521TIP3    H113508   1.107   3.148   6.338
 4521TIP3    H213509   1.029   3.033   6.399
 4522TIP3   OH213510   2.647   4.014   3.127
 4522TIP3    H113511   2.590   3.936   3.128
 4522TIP3    H213512   2.733   3.980   3.105
 4523TIP3   OH213513   3.699   5.914   3.771
 4523TIP3    H113514   3.784   5.916   3.727
 4523TIP3    H213515   3.664   5.827   3.751
 4524TIP3   OH213516   4.618   6.137   2.027
 4524TIP3    H113517   4.628   6.232   2.020
 4524TIP3    H213518   4.702   6.102   1.999
 4525TIP3   OH213519   8.232   5.283   4.034
 4525TIP3    H113520   8.202   5.352   4.093
 4525TIP3    H213521   8.327   5.295   4.030
 4526TIP3   OH213522   6.026   0.151   3.631
 4526TIP3    H113523   6.062   0.191   3.552
 4526TIP3    H213524   6.102   0.111   3.674
 4527TIP3   OH213525   3.187   1.164   5.179
 4527TIP3    H113526   3.155   1.243   5.135
 4527TIP3    H213527   3.257   1.196   5.236
 4528TIP3   OH213528   1.324   4.292   5.156
 4528TIP3    H113529   1.349   4.207   5.120
 4528TIP3    H213530   1.364   4.355   5.097
 4529TIP3   OH213531   3.673   3.362   3.773
 4529TIP3    H113532   3.668   3.315   3.690
 4529TIP3    H213533   3.582   3.374   3.801
 4530TIP3   OH213534   7.694   1.658   5.040
 4530TIP3    H113535   7.611   1.629   5.001
 4530TIP3    H213536   7.681   1.649   5.134
 4531TIP3   OH213537   3.266   4.100   1.046
 4531TIP3    H113538   3.213   4.147   0.981
 4531TIP3    H213539   3.203   4.043   1.091
 4532TIP3   OH213540   4.687   1.960   1.870
 4532TIP3    H113541   4.756   2.019   1.841
 4532TIP3    H213542   4.707   1.943   1.962
 4533TIP3   OH213543   6.816   3.829   1.068
 4533TIP3    H113544   6.802   3.855   1.159
 4533TIP3    H213545   6.898   3.779   1.070
 4534TIP3   OH213546   5.089   3.263   2.878
 4534TIP3    H113547   5.134   3.178   2.884
 4534TIP3    H213548   5.159   3.326   2.859
 4535TIP3   OH213549   6.582   0.306   4.941
 4535TIP3    H113550   6.550   0.216   4.947
 4535TIP3    H213551   6.504   0.360   4.957
 4536TIP3   OH213552   3.322   2.597   4.995
 4536TIP3    H113553   3.286   2.556   5.073
 4536TIP3    H213554   3.308   2.532   4.925
 4537TIP3   OH213555   3.167   1.525   2.401
 4537TIP3    H113556   3.118   1.504   2.321
 4537TIP3    H213557   3.122   1.476   2.470
 4538TIP3   OH213558   7.450   5.973   1.846
 4538TIP3    H113559   7.510   5.900   1.828
 4538TIP3    H213560   7.369   5.949   1.802
 4539TIP3   OH213561   5.888   5.690   3.846
 4539TIP3    H113562   5.837   5.733   3.914
 4539TIP3    H213563   5.825   5.666   3.779
 4540TIP3   OH213564   3.427   4.492   4.728
 4540TIP3    H113565   3.497   4.452   4.678
 4540TIP3    H213566   3.404   4.571   4.678
 4541TIP3   OH213567   0.999   3.035   5.710
 4541TIP3    H113568   1.080   3.016   5.759
 4541TIP3    H213569   0.958   3.106   5.759
 4542TIP3   OH213570   6.766   3.032   5.973
 4542TIP3    H113571   6.854   3.012   6.006
 4542TIP3    H213572   6.710   2.965   6.013
 4543TIP3   OH213573   7.562   2.544   4.022
 4543TIP3    H113574   7.564   2.559   4.116
 4543TIP3    H213575   7.580   2.450   4.012
 4544TIP3   OH213576   5.690   2.949   5.885
 4544TIP3    H113577   5.639   2.873   5.912
 4544TIP3    H213578   5.768   2.947   5.940
 4545TIP3   OH213579   1.973   2.376   5.093
 4545TIP3    H113580   2.064   2.393   5.119
 4545TIP3    H213581   1.941   2.315   5.160
 4546TIP3   OH213582   6.855   1.490   5.616
 4546TIP3    H113583   6.865   1.395   5.614
 4546TIP3    H213584   6.879   1.520   5.528
 4547TIP3   OH213585   6.402   6.585   2.278
 4547TIP3    H113586   6.497   6.596   2.277
 4547TIP3    H213587   6.373   6.634   2.355
 4548TIP3   OH213588   1.979   3.007   6.710
 4548TIP3    H113589   1.934   3.011   6.626
 4548TIP3    H213590   2.012   3.096   6.724
 4549TIP3   OH213591   7.912   6.508   2.241
 4549TIP3    H113592   7.939   6.442   2.305
 4549TIP3    H213593   7.972   6.495   2.167
 4550TIP3   OH213594   0.920   2.109   3.306
 4550TIP3    H113595   0.840   2.115   3.253
 4550TIP3    H213596   0.917   2.186   3.363
 4551TIP3   OH213597   7.862   6.771   4.466
 4551TIP3    H113598   7.849   6.677   4.461
 4551TIP3    H213599   7.955   6.784   4.447
 4552TIP3   OH213600   4.249   1.513   5.439
 4552TIP3    H113601   4.292   1.487   5.358
 4552TIP3    H213602   4.265   1.607   5.446
 4553TIP3   OH213603   5.364   1.223   4.396
 4553TIP3    H113604   5.311   1.302   4.407
 4553TIP3    H213605   5.444   1.240   4.445
 4554TIP3   OH213606   5.574   3.672   6.360
 4554TIP3    H113607   5.479   3.673   6.342
 4554TIP3    H213608   5.581   3.650   6.452
 4555TIP3   OH213609   2.145   6.272   0.027
 4555TIP3    H113610   2.078   6.205   0.038
 4555TIP3    H213611   2.222   6.236   0.071
 4556TIP3   OH213612   0.351   6.485   2.532
 4556TIP3    H113613   0.388   6.403   2.498
 4556TIP3    H213614   0.321   6.532   2.454
 4557TIP3   OH213615   4.264   5.444   5.856
 4557TIP3    H113616   4.233   5.525   5.896
 4557TIP3    H213617   4.185   5.401   5.824
 4558TIP3   OH213618   2.343   3.492   3.286
 4558TIP3    H113619   2.388   3.428   3.231
 4558TIP3    H213620   2.287   3.541   3.225
 4559TIP3   OH213621   7.438   5.940   4.380
 4559TIP3    H113622   7.455   5.876   4.449
 4559TIP3    H213623   7.515   5.997   4.379
 4560TIP3   OH213624   4.963   2.095   3.275
 4560TIP3    H113625   5.015   2.168   3.309
 4560TIP3    H213626   4.896   2.136   3.222
 4561TIP3   OH213627   0.092   0.827   6.445
 4561TIP3    H113628   0.097   0.897   6.379
 4561TIP3    H213629   0.075   0.748   6.394
 4562TIP3   OH213630   1.425   3.736   1.437
 4562TIP3    H113631   1.390   3.653   1.469
 4562TIP3    H213632   1.516   3.736   1.466
 4563TIP3   OH213633   6.504   6.308   4.091
 4563TIP3    H113634   6.497   6.400   4.116
 4563TIP3    H213635   6.427   6.267   4.130
 4564TIP3   OH213636   4.432   3.616   2.675
 4564TIP3    H113637   4.504   3.574   2.628
 4564TIP3    H213638   4.353   3.584   2.633
 4565TIP3   OH213639   4.367   3.903   4.844
 4565TIP3    H113640   4.459   3.903   4.872
 4565TIP3    H213641   4.352   3.992   4.812
 4566TIP3   OH213642   0.968   5.725   3.218
 4566TIP3    H113643   0.945   5.818   3.217
 4566TIP3    H213644   1.048   5.720   3.270
 4567TIP3   OH213645   3.285   6.788   5.538
 4567TIP3    H113646   3.374   6.823   5.543
 4567TIP3    H213647   3.235   6.854   5.491
 4568TIP3   OH213648   2.084   4.542   2.064
 4568TIP3    H113649   2.048   4.468   2.015
 4568TIP3    H213650   2.043   4.619   2.025
 4569TIP3   OH213651   4.671   5.171   5.150
 4569TIP3    H113652   4.722   5.215   5.218
 4569TIP3    H213653   4.644   5.242   5.091
 4570TIP3   OH213654   4.073   1.046   0.350
 4570TIP3    H113655   4.004   1.083   0.295
 4570TIP3    H213656   4.121   1.123   0.382
 4571TIP3   OH213657   3.324   1.830   0.587
 4571TIP3    H113658   3.342   1.752   0.536
 4571TIP3    H213659   3.375   1.820   0.667
 4572TIP3   OH213660   3.133   4.632   0.509
 4572TIP3    H113661   3.213   4.668   0.469
 4572TIP3    H213662   3.121   4.684   0.588
 4573TIP3   OH213663   3.456   4.726   4.310
 4573TIP3    H113664   3.402   4.796   4.346
 4573TIP3    H213665   3.393   4.663   4.274
 4574TIP3   OH213666   5.946   4.159   1.975
 4574TIP3    H113667   5.976   4.091   2.034
 4574TIP3    H213668   5.933   4.115   1.891
 4575TIP3   OH213669   6.369   2.257   2.417
 4575TIP3    H113670   6.431   2.267   2.345
 4575TIP3    H213671   6.374   2.165   2.442
 4576TIP3   OH213672   4.232   5.379   4.061
 4576TIP3    H113673   4.208   5.314   4.126
 4576TIP3    H213674   4.186   5.459   4.088
 4577TIP3   OH213675   2.330   0.861   4.993
 4577TIP3    H113676   2.259   0.801   4.970
 4577TIP3    H213677   2.409   0.817   4.965
 4578TIP3   OH213678   0.323   7.409   1.065
 4578TIP3    H113679   0.336   7.362   1.148
 4578TIP3    H213680   0.279   7.346   1.008
 4579TIP3   OH213681   5.687   1.147   0.974
 4579TIP3    H113682   5.595   1.127   0.956
 4579TIP3    H213683   5.691   1.159   1.069
 4580TIP3   OH213684   4.285   3.360   5.882
 4580TIP3    H113685   4.291   3.362   5.786
 4580TIP3    H213686   4.207   3.410   5.902
 4581TIP3   OH213687   7.841   0.701   1.952
 4581TIP3    H113688   7.756   0.669   1.920
 4581TIP3    H213689   7.827   0.712   2.046
 4582TIP3   OH213690   8.182   1.299   1.789
 4582TIP3    H113691   8.161   1.393   1.787
 4582TIP3    H213692   8.256   1.290   1.729
 4583TIP3   OH213693   0.739   5.223   0.071
 4583TIP3    H113694   0.728   5.129   0.082
 4583TIP3    H213695   0.832   5.239   0.089
 4584TIP3   OH213696   8.309   1.532   0.517
 4584TIP3    H113697   8.311   1.604   0.580
 4584TIP3    H213698   8.267   1.460   0.564
 4585TIP3   OH213699   8.101   6.077   0.719
 4585TIP3    H113700   8.127   6.001   0.772
 4585TIP3    H213701   8.029   6.117   0.768
 4586TIP3   OH213702   2.930   7.560   5.911
 4586TIP3    H113703   2.945   7.647   5.949
 4586TIP3    H213704   2.998   7.505   5.949
 4587TIP3   OH213705   3.678   7.243   2.241
 4587TIP3    H113706   3.696   7.318   2.298
 4587TIP3    H213707   3.716   7.267   2.156
 4588TIP3   OH213708   0.734   4.642   5.294
 4588TIP3    H113709   0.780   4.721   5.321
 4588TIP3    H213710   0.672   4.625   5.365
 4589TIP3   OH213711   6.349   5.565   0.665
 4589TIP3    H113712   6.270   5.529   0.625
 4589TIP3    H213713   6.380   5.629   0.601
 4590TIP3   OH213714   5.920   3.916   0.576
 4590TIP3    H113715   5.881   3.985   0.523
 4590TIP3    H213716   5.887   3.932   0.664
 4591TIP3   OH213717   4.969   4.018   3.005
 4591TIP3    H113718   5.053   3.975   2.988
 4591TIP3    H213719   4.987   4.111   2.992
 4592TIP3   OH213720   0.953   4.574   1.662
 4592TIP3    H113721   0.995   4.498   1.701
 4592TIP3    H213722   0.972   4.646   1.723
 4593TIP3   OH213723   8.132   5.021   4.580
 4593TIP3    H113724   8.201   5.020   4.646
 4593TIP3    H213725   8.090   5.106   4.590
 4594TIP3   OH213726   2.776   3.130   2.362
 4594TIP3    H113727   2.739   3.218   2.365
 4594TIP3    H213728   2.870   3.145   2.346
 4595TIP3   OH213729   1.097   7.510   4.989
 4595TIP3    H113730   1.088   7.581   5.053
 4595TIP3    H213731   1.007   7.488   4.966
 4596TIP3   OH213732   1.978   4.501   0.942
 4596TIP3    H113733   2.038   4.538   0.878
 4596TIP3    H213734   1.921   4.444   0.890
 4597TIP3   OH213735   6.623   4.459   4.950
 4597TIP3    H113736   6.529   4.478   4.943
 4597TIP3    H213737   6.644   4.412   4.869
 4598TIP3   OH213738   5.390   0.279   0.450
 4598TIP3    H113739   5.428   0.196   0.422
 4598TIP3    H213740   5.341   0.258   0.529
 4599TIP3   OH213741   2.399   4.657   5.440
 4599TIP3    H113742   2.340   4.731   5.434
 4599TIP3    H213743   2.358   4.598   5.503
 4600TIP3   OH213744   0.552   2.894   0.984
 4600TIP3    H113745   0.489   2.874   1.053
 4600TIP3    H213746   0.633   2.916   1.030
 4601TIP3   OH213747   3.611   0.975   1.996
 4601TIP3    H113748   3.592   0.974   2.090
 4601TIP3    H213749   3.705   0.956   1.991
 4602TIP3   OH213750   5.530   0.420   1.640
 4602TIP3    H113751   5.555   0.498   1.591
 4602TIP3    H213752   5.580   0.425   1.721
 4603TIP3   OH213753   2.840   1.220   1.067
 4603TIP3    H113754   2.782   1.193   0.996
 4603TIP3    H213755   2.867   1.138   1.108
 4604TIP3   OH213756   7.119   2.305   0.883
 4604TIP3    H113757   7.143   2.248   0.810
 4604TIP3    H213758   7.040   2.350   0.854
 4605TIP3   OH213759   1.473   1.081   5.483
 4605TIP3    H113760   1.507   1.006   5.533
 4605TIP3    H213761   1.527   1.154   5.511
 4606TIP3   OH213762   6.234   5.134   0.407
 4606TIP3    H113763   6.268   5.164   0.323
 4606TIP3    H213764   6.194   5.049   0.389
 4607TIP3   OH213765   1.015   6.901   2.854
 4607TIP3    H113766   1.107   6.880   2.837
 4607TIP3    H213767   1.007   6.896   2.950
 4608TIP3   OH213768   5.709   3.713   1.662
 4608TIP3    H113769   5.677   3.639   1.612
 4608TIP3    H213770   5.748   3.675   1.741
 4609TIP3   OH213771   0.745   3.787   0.543
 4609TIP3    H113772   0.729   3.855   0.478
 4609TIP3    H213773   0.658   3.756   0.567
 4610TIP3   OH213774   2.884   2.333   0.910
 4610TIP3    H113775   2.972   2.351   0.877
 4610TIP3    H213776   2.885   2.240   0.934
 4611TIP3   OH213777   4.693   6.546   3.440
 4611TIP3    H113778   4.685   6.549   3.345
 4611TIP3    H213779   4.760   6.611   3.461
 4612TIP3   OH213780   2.040   1.090   3.250
 4612TIP3    H113781   1.961   1.035   3.241
 4612TIP3    H213782   2.053   1.127   3.163
 4613TIP3   OH213783   6.251   5.220   3.432
 4613TIP3    H113784   6.179   5.216   3.495
 4613TIP3    H213785   6.315   5.157   3.463
 4614TIP3   OH213786   1.200   5.553   2.548
 4614TIP3    H113787   1.169   5.539   2.638
 4614TIP3    H213788   1.193   5.467   2.507
 4615TIP3   OH213789   6.822   6.840   5.804
 4615TIP3    H113790   6.856   6.802   5.723
 4615TIP3    H213791   6.900   6.854   5.858
 4616TIP3   OH213792   3.523   3.478   1.265
 4616TIP3    H113793   3.534   3.383   1.253
 4616TIP3    H213794   3.610   3.509   1.288
 4617TIP3   OH213795   0.757   1.637   6.062
 4617TIP3    H113796   0.817   1.694   6.014
 4617TIP3    H213797   0.731   1.570   5.998
 4618TIP3   OH213798   4.266   2.730   0.381
 4618TIP3    H113799   4.219   2.675   0.317
 4618TIP3    H213800   4.249   2.687   0.465
 4619TIP3   OH213801   1.316   2.325   3.308
 4619TIP3    H113802   1.349   2.307   3.396
 4619TIP3    H213803   1.237   2.378   3.322
 4620TIP3   OH213804   4.997   3.660   0.167
 4620TIP3    H113805   5.039   3.745   0.182
 4620TIP3    H213806   4.903   3.678   0.167
 4621TIP3   OH213807   6.640   1.263   3.721
 4621TIP3    H113808   6.645   1.358   3.721
 4621TIP3    H213809   6.693   1.236   3.646
 4622TIP3   OH213810   0.317   6.709   0.840
 4622TIP3    H113811   0.272   6.710   0.755
 4622TIP3    H213812   0.256   6.666   0.899
 4623TIP3   OH213813   1.399   2.217   3.969
 4623TIP3    H113814   1.384   2.296   4.022
 4623TIP3    H213815   1.339   2.152   4.006
 4624TIP3   OH213816   3.399   1.531   6.694
 4624TIP3    H113817   3.487   1.494   6.683
 4624TIP3    H213818   3.364   1.538   6.606
 4625TIP3   OH213819   4.525   7.665   1.923
 4625TIP3    H113820   4.565   7.614   1.994
 4625TIP3    H213821   4.577   7.642   1.846
 4626TIP3   OH213822   2.112   5.398   2.754
 4626TIP3    H113823   2.158   5.433   2.678
 4626TIP3    H213824   2.146   5.449   2.828
 4627TIP3   OH213825   1.054   6.980   4.311
 4627TIP3    H113826   1.008   7.064   4.306
 4627TIP3    H213827   0.988   6.916   4.285
 4628TIP3   OH213828   0.288   7.748   6.353
 4628TIP3    H113829   0.221   7.804   6.311
 4628TIP3    H213830   0.367   7.802   6.353
 4629TIP3   OH213831   2.964   4.509   0.276
 4629TIP3    H113832   2.924   4.516   0.363
 4629TIP3    H213833   3.006   4.423   0.276
 4630TIP3   OH213834   8.141   7.240   5.221
 4630TIP3    H113835   8.235   7.255   5.210
 4630TIP3    H213836   8.101   7.280   5.145
 4631TIP3   OH213837   1.659   6.925   5.998
 4631TIP3    H113838   1.573   6.967   5.994
 4631TIP3    H213839   1.671   6.887   5.912
 4632TIP3   OH213840   4.703   4.175   4.424
 4632TIP3    H113841   4.625   4.142   4.379
 4632TIP3    H213842   4.683   4.167   4.517
 4633TIP3   OH213843   0.276   4.233   1.092
 4633TIP3    H113844   0.288   4.250   1.185
 4633TIP3    H213845   0.275   4.320   1.052
 4634TIP3   OH213846   2.455   4.710   3.876
 4634TIP3    H113847   2.533   4.712   3.820
 4634TIP3    H213848   2.402   4.638   3.842
 4635TIP3   OH213849   4.276   3.357   5.292
 4635TIP3    H113850   4.185   3.347   5.322
 4635TIP3    H213851   4.268   3.382   5.200
 4636TIP3   OH213852   7.500   7.831   2.397
 4636TIP3    H113853   7.552   7.864   2.471
 4636TIP3    H213854   7.503   7.736   2.406
 4637TIP3   OH213855   8.013   2.421   1.829
 4637TIP3    H113856   7.996   2.327   1.820
 4637TIP3    H213857   8.090   2.437   1.775
 4638TIP3   OH213858   7.188   4.889   5.654
 4638TIP3    H113859   7.239   4.923   5.580
 4638TIP3    H213860   7.255   4.854   5.713
 4639TIP3   OH213861   0.897   3.892   1.564
 4639TIP3    H113862   0.835   3.847   1.622
 4639TIP3    H213863   0.945   3.821   1.522
 4640TIP3   OH213864   0.729   6.692   5.697
 4640TIP3    H113865   0.661   6.699   5.763
 4640TIP3    H213866   0.788   6.624   5.730
 4641TIP3   OH213867   0.275   2.064   5.839
 4641TIP3    H113868   0.191   2.098   5.870
 4641TIP3    H213869   0.254   1.977   5.805
 4642TIP3   OH213870   7.862   6.093   3.499
 4642TIP3    H113871   7.769   6.102   3.522
 4642TIP3    H213872   7.905   6.070   3.582
 4643TIP3   OH213873   1.252   4.026   1.288
 4643TIP3    H113874   1.338   4.068   1.301
 4643TIP3    H213875   1.226   3.999   1.376
 4644TIP3   OH213876   1.613   1.293   6.083
 4644TIP3    H113877   1.658   1.273   6.166
 4644TIP3    H213878   1.598   1.207   6.043
 4645TIP3   OH213879   4.645   6.775   2.784
 4645TIP3    H113880   4.628   6.739   2.697
 4645TIP3    H213881   4.598   6.717   2.844
 4646TIP3   OH213882   7.176   6.993   6.112
 4646TIP3    H113883   7.194   6.996   6.206
 4646TIP3    H213884   7.260   7.013   6.071
 4647TIP3   OH213885   3.985   1.670   1.545
 4647TIP3    H113886   3.924   1.664   1.471
 4647TIP3    H213887   4.053   1.605   1.526
 4648TIP3   OH213888   7.575   4.494   6.602
 4648TIP3    H113889   7.603   4.423   6.544
 4648TIP3    H213890   7.626   4.570   6.573
 4649TIP3   OH213891   3.266   7.672   0.523
 4649TIP3    H113892   3.241   7.672   0.615
 4649TIP3    H213893   3.328   7.600   0.514
 4650TIP3   OH213894   8.270   4.816   1.068
 4650TIP3    H113895   8.192   4.868   1.049
 4650TIP3    H213896   8.241   4.725   1.064
 4651TIP3   OH213897   2.252   1.446   0.683
 4651TIP3    H113898   2.322   1.505   0.712
 4651TIP3    H213899   2.277   1.422   0.594
 4652TIP3   OH213900   0.426   5.648   2.222
 4652TIP3    H113901   0.458   5.673   2.309
 4652TIP3    H213902   0.500   5.665   2.164
 4653TIP3   OH213903   2.880   2.248   0.153
 4653TIP3    H113904   2.904   2.335   0.120
 4653TIP3    H213905   2.963   2.206   0.174
 4654TIP3   OH213906   6.484   2.647   2.492
 4654TIP3    H113907   6.494   2.599   2.574
 4654TIP3    H213908   6.424   2.718   2.514
 4655TIP3   OH213909   0.297   7.650   6.791
 4655TIP3    H113910   0.222   7.625   6.737
 4655TIP3    H213911   0.372   7.645   6.732
 4656TIP3   OH213912   1.062   2.450   4.489
 4656TIP3    H113913   1.127   2.421   4.554
 4656TIP3    H213914   0.988   2.391   4.501
 4657TIP3   OH213915   5.091   3.285   4.160
 4657TIP3    H113916   5.167   3.233   4.134
 4657TIP3    H213917   5.017   3.225   4.152
 4658TIP3   OH213918   5.216   6.875   6.197
 4658TIP3    H113919   5.183   6.796   6.240
 4658TIP3    H213920   5.153   6.944   6.223
 4659TIP3   OH213921   5.359   5.011   3.589
 4659TIP3    H113922   5.440   4.965   3.611
 4659TIP3    H213923   5.363   5.024   3.494
 4660TIP3   OH213924   6.347   4.398   5.391
 4660TIP3    H113925   6.304   4.394   5.305
 4660TIP3    H213926   6.401   4.476   5.387
 4661TIP3   OH213927   5.464   0.221   4.720
 4661TIP3    H113928   5.519   0.194   4.794
 4661TIP3    H213929   5.379   0.243   4.760
 4662TIP3   OH213930   4.300   5.544   3.210
 4662TIP3    H113931   4.300   5.518   3.302
 4662TIP3    H213932   4.378   5.503   3.173
 4663TIP3   OH213933   2.126   3.731   0.392
 4663TIP3    H113934   2.184   3.688   0.328
 4663TIP3    H213935   2.047   3.676   0.392
 4664TIP3   OH213936   0.617   1.580   4.410
 4664TIP3    H113937   0.683   1.511   4.418
 4664TIP3    H213938   0.653   1.653   4.461
 4665TIP3   OH213939   6.129   5.499   4.618
 4665TIP3    H113940   6.127   5.543   4.533
 4665TIP3    H213941   6.051   5.443   4.617
 4666TIP3   OH213942   3.484   6.383   4.718
 4666TIP3    H113943   3.576   6.406   4.703
 4666TIP3    H213944   3.452   6.451   4.778
 4667TIP3   OH213945   2.603   3.405   0.200
 4667TIP3    H113946   2.664   3.354   0.147
 4667TIP3    H213947   2.595   3.356   0.282
 4668TIP3   OH213948   8.066   0.313   2.574
 4668TIP3    H113949   8.107   0.241   2.526
 4668TIP3    H213950   8.127   0.386   2.564
 4669TIP3   OH213951   6.889   4.633   5.348
 4669TIP3    H113952   6.964   4.576   5.336
 4669TIP3    H213953   6.861   4.655   5.260
 4670TIP3   OH213954   3.617   2.818   1.323
 4670TIP3    H113955   3.600   2.768   1.403
 4670TIP3    H213956   3.530   2.843   1.291
 4671TIP3   OH213957   7.300   3.325   6.131
 4671TIP3    H113958   7.228   3.351   6.074
 4671TIP3    H213959   7.309   3.398   6.192
 4672TIP3   OH213960   7.003   2.936   4.834
 4672TIP3    H113961   6.937   3.003   4.847
 4672TIP3    H213962   7.053   2.965   4.757
 4673TIP3   OH213963   1.217   5.807   0.768
 4673TIP3    H113964   1.200   5.714   0.751
 4673TIP3    H213965   1.163   5.853   0.704
 4674TIP3   OH213966   6.943   0.639   1.890
 4674TIP3    H113967   6.910   0.592   1.967
 4674TIP3    H213968   6.959   0.728   1.922
 4675TIP3   OH213969   2.638   5.503   2.774
 4675TIP3    H113970   2.559   5.551   2.800
 4675TIP3    H213971   2.682   5.562   2.713
 4676TIP3   OH213972   1.824   0.575   2.707
 4676TIP3    H113973   1.868   0.531   2.634
 4676TIP3    H213974   1.763   0.509   2.741
 4677TIP3   OH213975   5.463   3.902   3.582
 4677TIP3    H113976   5.402   3.829   3.593
 4677TIP3    H213977   5.425   3.973   3.634
 4678TIP3   OH213978   8.072   1.828   5.068
 4678TIP3    H113979   8.047   1.759   5.006
 4678TIP3    H213980   8.132   1.785   5.129
 4679TIP3   OH213981   3.657   3.366   3.234
 4679TIP3    H113982   3.730   3.305   3.245
 4679TIP3    H213983   3.581   3.318   3.268
 4680TIP3   OH213984   7.287   0.150   5.096
 4680TIP3    H113985   7.195   0.168   5.115
 4680TIP3    H213986   7.307   0.072   5.148
 4681TIP3   OH213987   3.157   7.361   2.415
 4681TIP3    H113988   3.221   7.338   2.347
 4681TIP3    H213989   3.136   7.452   2.397
 4682TIP3   OH213990   2.155   4.523   3.090
 4682TIP3    H113991   2.068   4.485   3.077
 4682TIP3    H213992   2.139   4.618   3.095
 4683TIP3   OH213993   6.113   7.398   5.372
 4683TIP3    H113994   6.187   7.373   5.316
 4683TIP3    H213995   6.092   7.318   5.421
 4684TIP3   OH213996   1.555   0.103   5.018
 4684TIP3    H113997   1.509   0.087   4.935
 4684TIP3    H213998   1.623   0.035   5.021
 4685TIP3   OH213999   2.282   6.415   0.967
 4685TIP3    H114000   2.238   6.479   1.023
 4685TIP3    H214001   2.349   6.465   0.921
 4686TIP3   OH214002   4.544   1.055   4.699
 4686TIP3    H114003   4.579   1.119   4.760
 4686TIP3    H214004   4.458   1.089   4.674
 4687TIP3   OH214005   7.692   5.133   5.141
 4687TIP3    H114006   7.653   5.155   5.226
 4687TIP3    H214007   7.744   5.210   5.118
 4688TIP3   OH214008   6.324   5.734   0.897
 4688TIP3    H114009   6.359   5.696   0.817
 4688TIP3    H214010   6.340   5.828   0.888
 4689TIP3   OH214011   1.662   2.723   1.047
 4689TIP3    H114012   1.745   2.717   1.094
 4689TIP3    H214013   1.633   2.813   1.062
 4690TIP3   OH214014   3.323   6.575   4.254
 4690TIP3    H114015   3.275   6.657   4.268
 4690TIP3    H214016   3.402   6.584   4.307
 4691TIP3   OH214017   3.138   1.432   3.016
 4691TIP3    H114018   3.223   1.462   2.982
 4691TIP3    H214019   3.148   1.337   3.026
 4692TIP3   OH214020   3.046   5.727   5.749
 4692TIP3    H114021   3.009   5.639   5.748
 4692TIP3    H214022   3.042   5.756   5.658
 4693TIP3   OH214023   7.046   7.511   4.864
 4693TIP3    H114024   7.096   7.430   4.863
 4693TIP3    H214025   6.960   7.486   4.895
 4694TIP3   OH214026   5.557   4.427   0.504
 4694TIP3    H114027   5.477   4.374   0.502
 4694TIP3    H214028   5.620   4.378   0.452
 4695TIP3   OH214029   3.989   1.994   2.575
 4695TIP3    H114030   4.050   1.922   2.593
 4695TIP3    H214031   4.022   2.033   2.494
 4696TIP3   OH214032   7.621   2.295   3.886
 4696TIP3    H114033   7.632   2.211   3.930
 4696TIP3    H214034   7.549   2.280   3.824
 4697TIP3   OH214035   5.287   3.808   1.906
 4697TIP3    H114036   5.211   3.806   1.847
 4697TIP3    H214037   5.359   3.841   1.852
 4698TIP3   OH214038   2.451   3.642   2.069
 4698TIP3    H114039   2.410   3.727   2.087
 4698TIP3    H214040   2.486   3.614   2.154
 4699TIP3   OH214041   0.796   0.023   3.332
 4699TIP3    H114042   0.795   0.077   3.411
 4699TIP3    H214043   0.748   0.074   3.267
 4700TIP3   OH214044   7.283   7.623   5.740
 4700TIP3    H114045   7.210   7.641   5.681
 4700TIP3    H214046   7.274   7.530   5.762
 4701TIP3   OH214047   3.523   2.822   5.874
 4701TIP3    H114048   3.440   2.787   5.841
 4701TIP3    H214049   3.547   2.890   5.812
 4702TIP3   OH214050   0.915   4.850   1.561
 4702TIP3    H114051   0.849   4.875   1.626
 4702TIP3    H214052   0.990   4.820   1.612
 4703TIP3   OH214053   2.622   3.710   4.039
 4703TIP3    H114054   2.701   3.658   4.022
 4703TIP3    H214055   2.551   3.658   4.002
 4704TIP3   OH214056   4.958   3.470   3.407
 4704TIP3    H114057   4.881   3.469   3.350
 4704TIP3    H214058   5.029   3.500   3.350
 4705TIP3   OH214059   3.782   2.382   5.316
 4705TIP3    H114060   3.688   2.368   5.318
 4705TIP3    H214061   3.815   2.321   5.250
 4706TIP3   OH214062   6.539   4.555  -0.070
 4706TIP3    H114063   6.602   4.614  -0.030
 4706TIP3    H214064   6.466   4.611  -0.096
 4707TIP3   OH214065   3.234   1.768   3.039
 4707TIP3    H114066   3.223   1.685   3.084
 4707TIP3    H214067   3.146   1.794   3.014
 4708TIP3   OH214068   7.471   4.847   3.628
 4708TIP3    H114069   7.517   4.884   3.703
 4708TIP3    H214070   7.391   4.810   3.665
 4709TIP3   OH214071   8.201   1.091   0.462
 4709TIP3    H114072   8.132   1.075   0.397
 4709TIP3    H214073   8.277   1.042   0.430
 4710TIP3   OH214074   5.795   5.024   6.438
 4710TIP3    H114075   5.711   4.982   6.418
 4710TIP3    H214076   5.774   5.117   6.445
 4711TIP3   OH214077   4.694   2.836   1.120
 4711TIP3    H114078   4.657   2.910   1.072
 4711TIP3    H214079   4.651   2.839   1.205
 4712TIP3   OH214080   2.743   7.344   2.248
 4712TIP3    H114081   2.668   7.339   2.188
 4712TIP3    H214082   2.802   7.406   2.206
 4713TIP3   OH214083   5.942   5.645   1.826
 4713TIP3    H114084   5.977   5.707   1.890
 4713TIP3    H214085   5.879   5.696   1.776
 4714TIP3   OH214086   0.143   1.854   4.380
 4714TIP3    H114087   0.124   1.804   4.459
 4714TIP3    H214088   0.225   1.900   4.399
 4715TIP3   OH214089   2.538   0.302   5.348
 4715TIP3    H114090   2.497   0.287   5.433
 4715TIP3    H214091   2.621   0.346   5.369
 4716TIP3   OH214092   4.966   2.905   1.067
 4716TIP3    H114093   4.969   2.982   1.010
 4716TIP3    H214094   4.882   2.909   1.110
 4717TIP3   OH214095   3.041   5.438   4.930
 4717TIP3    H114096   3.080   5.409   4.847
 4717TIP3    H214097   3.028   5.532   4.919
 4718TIP3   OH214098   1.180   3.521   4.924
 4718TIP3    H114099   1.090   3.510   4.954
 4718TIP3    H214100   1.186   3.470   4.843
 4719TIP3   OH214101   0.146   1.588   4.884
 4719TIP3    H114102   0.205   1.541   4.824
 4719TIP3    H214103   0.063   1.542   4.877
 4720TIP3   OH214104   5.776   3.625   1.903
 4720TIP3    H114105   5.824   3.653   1.981
 4720TIP3    H214106   5.702   3.575   1.937
 4721TIP3   OH214107   1.410   7.437   3.044
 4721TIP3    H114108   1.404   7.361   3.101
 4721TIP3    H214109   1.351   7.501   3.084
 4722TIP3   OH214110   5.279   7.318   1.271
 4722TIP3    H114111   5.218   7.300   1.200
 4722TIP3    H214112   5.269   7.412   1.288
 4723TIP3   OH214113   2.899   3.568   2.106
 4723TIP3    H114114   2.967   3.508   2.076
 4723TIP3    H214115   2.819   3.536   2.064
 4724TIP3   OH214116   3.016   5.042   4.643
 4724TIP3    H114117   2.981   4.955   4.659
 4724TIP3    H214118   3.007   5.088   4.726
 4725TIP3   OH214119   7.957   4.379   3.798
 4725TIP3    H114120   8.013   4.316   3.753
 4725TIP3    H214121   7.993   4.465   3.774
 4726TIP3   OH214122   3.641   0.483   2.475
 4726TIP3    H114123   3.568   0.422   2.477
 4726TIP3    H214124   3.695   0.460   2.551
 4727TIP3   OH214125   7.225   1.951   0.788
 4727TIP3    H114126   7.270   1.885   0.735
 4727TIP3    H214127   7.153   1.904   0.829
 4728TIP3   OH214128   7.455   7.654   4.254
 4728TIP3    H114129   7.382   7.702   4.292
 4728TIP3    H214130   7.527   7.718   4.250
 4729TIP3   OH214131   0.200   7.045   1.597
 4729TIP3    H114132   0.208   7.136   1.569
 4729TIP3    H214133   0.213   6.994   1.516
 4730TIP3   OH214134   1.558   1.514   5.168
 4730TIP3    H114135   1.541   1.489   5.259
 4730TIP3    H214136   1.475   1.498   5.123
 4731TIP3   OH214137   1.464   2.943   0.899
 4731TIP3    H114138   1.442   2.920   0.989
 4731TIP3    H214139   1.554   2.975   0.903
 4732TIP3   OH214140   1.353   7.603   2.358
 4732TIP3    H114141   1.417   7.532   2.369
 4732TIP3    H214142   1.315   7.587   2.272
 4733TIP3   OH214143   1.730   4.511   1.519
 4733TIP3    H114144   1.742   4.434   1.464
 4733TIP3    H214145   1.775   4.489   1.601
 4734TIP3   OH214146   3.476   6.640   4.833
 4734TIP3    H114147   3.419   6.713   4.857
 4734TIP3    H214148   3.538   6.677   4.771
 4735TIP3   OH214149   3.734   5.369   2.363
 4735TIP3    H114150   3.805   5.381   2.299
 4735TIP3    H214151   3.723   5.456   2.402
 4736TIP3   OH214152   5.048   5.893   1.771
 4736TIP3    H114153   4.991   5.821   1.745
 4736TIP3    H214154   5.126   5.850   1.806
 4737TIP3   OH214155   4.536   4.546   0.069
 4737TIP3    H114156   4.527   4.515   0.159
 4737TIP3    H214157   4.449   4.534   0.030
 4738TIP3   OH214158   8.129   3.823   0.071
 4738TIP3    H114159   8.167   3.864  -0.007
 4738TIP3    H214160   8.175   3.739   0.077
 4739TIP3   OH214161   4.779   7.209   1.763
 4739TIP3    H114162   4.697   7.234   1.720
 4739TIP3    H214163   4.751   7.169   1.845
 4740TIP3   OH214164   8.158   5.461   2.647
 4740TIP3    H114165   8.107   5.528   2.693
 4740TIP3    H214166   8.217   5.426   2.714
 4741TIP3   OH214167   7.752   3.889   5.497
 4741TIP3    H114168   7.809   3.837   5.440
 4741TIP3    H214169   7.734   3.832   5.572
 4742TIP3   OH214170   4.609   3.103   1.074
 4742TIP3    H114171   4.572   3.125   1.160
 4742TIP3    H214172   4.667   3.177   1.053
 4743TIP3   OH214173   6.408   2.334   3.373
 4743TIP3    H114174   6.408   2.242   3.402
 4743TIP3    H214175   6.434   2.330   3.281
 4744TIP3   OH214176   0.027   7.218   3.718
 4744TIP3    H114177  -0.032   7.291   3.700
 4744TIP3    H214178  -0.008   7.178   3.798
 4745TIP3   OH214179   8.241   7.315   3.020
 4745TIP3    H114180   8.155   7.345   3.049
 4745TIP3    H214181   8.302   7.378   3.058
 4746TIP3   OH214182   0.170   2.101   3.425
 4746TIP3    H114183   0.078   2.125   3.430
 4746TIP3    H214184   0.173   2.026   3.365
 4747TIP3   OH214185   0.220   5.469   2.296
 4747TIP3    H114186   0.260   5.382   2.302
 4747TIP3    H214187   0.293   5.528   2.276
 4748TIP3   OH214188   5.656   7.519   6.367
 4748TIP3    H114189   5.669   7.427   6.345
 4748TIP3    H214190   5.710   7.566   6.303
 4749TIP3   OH214191   2.509   4.919   1.611
 4749TIP3    H114192   2.448   4.903   1.539
 4749TIP3    H214193   2.458   4.903   1.690
 4750TIP3   OH214194   0.996   1.851   6.065
 4750TIP3    H114195   0.998   1.911   6.139
 4750TIP3    H214196   0.972   1.906   5.990
 4751TIP3   OH214197   7.479   0.408   4.473
 4751TIP3    H114198   7.397   0.370   4.505
 4751TIP3    H214199   7.488   0.374   4.384
 4752TIP3   OH214200   1.086   5.088   3.989
 4752TIP3    H114201   1.057   5.011   3.940
 4752TIP3    H214202   1.044   5.078   4.075
 4753TIP3   OH214203   4.428   6.451   0.654
 4753TIP3    H114204   4.475   6.368   0.653
 4753TIP3    H214205   4.401   6.464   0.563
 4754TIP3   OH214206   2.797   2.315   5.537
 4754TIP3    H114207   2.791   2.342   5.628
 4754TIP3    H214208   2.733   2.370   5.491
 4755TIP3   OH214209   3.557   2.715   5.011
 4755TIP3    H114210   3.476   2.665   5.000
 4755TIP3    H214211   3.581   2.741   4.922
 4756TIP3   OH214212   6.283   5.590   5.814
 4756TIP3    H114213   6.369   5.627   5.797
 4756TIP3    H214214   6.251   5.637   5.891
 4757TIP3   OH214215   2.332   1.472   5.480
 4757TIP3    H114216   2.405   1.412   5.465
 4757TIP3    H214217   2.353   1.515   5.563
 4758TIP3   OH214218   3.392   7.666   3.416
 4758TIP3    H114219   3.436   7.726   3.356
 4758TIP3    H214220   3.445   7.671   3.496
 4759TIP3   OH214221   0.779   2.780   1.294
 4759TIP3    H114222   0.697   2.744   1.326
 4759TIP3    H214223   0.846   2.721   1.328
 4760TIP3   OH214224   6.568   5.322   4.519
 4760TIP3    H114225   6.508   5.372   4.574
 4760TIP3    H214226   6.588   5.380   4.446
 4761TIP3   OH214227   4.065   7.180   5.928
 4761TIP3    H114228   4.156   7.200   5.906
 4761TIP3    H214229   4.027   7.147   5.846
 4762TIP3   OH214230   3.286   0.678   6.678
 4762TIP3    H114231   3.268   0.588   6.704
 4762TIP3    H214232   3.230   0.691   6.600
 4763TIP3   OH214233   3.468   1.386   0.246
 4763TIP3    H114234   3.417   1.305   0.249
 4763TIP3    H214235   3.542   1.370   0.304
 4764TIP3   OH214236   5.713   3.865   4.606
 4764TIP3    H114237   5.683   3.954   4.625
 4764TIP3    H214238   5.691   3.815   4.685
 4765TIP3   OH214239   6.760   5.779   5.555
 4765TIP3    H114240   6.853   5.761   5.543
 4765TIP3    H214241   6.719   5.692   5.558
 4766TIP3   OH214242   1.190   4.275   1.566
 4766TIP3    H114243   1.198   4.330   1.488
 4766TIP3    H214244   1.103   4.236   1.559
 4767TIP3   OH214245   7.675   2.604   5.640
 4767TIP3    H114246   7.732   2.612   5.716
 4767TIP3    H214247   7.599   2.555   5.673
 4768TIP3   OH214248   0.006   1.150   6.854
 4768TIP3    H114249   0.022   1.066   6.810
 4768TIP3    H214250   0.044   1.215   6.796
 4769TIP3   OH214251   4.142   0.536   4.901
 4769TIP3    H114252   4.079   0.598   4.938
 4769TIP3    H214253   4.136   0.550   4.806
 4770TIP3   OH214254   3.328   2.377   2.703
 4770TIP3    H114255   3.419   2.405   2.694
 4770TIP3    H214256   3.323   2.292   2.659
 4771TIP3   OH214257   4.208   6.776   0.299
 4771TIP3    H114258   4.142   6.777   0.368
 4771TIP3    H214259   4.240   6.685   0.297
 4772TIP3   OH214260   3.211   7.068   1.694
 4772TIP3    H114261   3.287   7.027   1.653
 4772TIP3    H214262   3.202   7.152   1.650
 4773TIP3   OH214263   3.943   4.228   5.332
 4773TIP3    H114264   3.854   4.242   5.365
 4773TIP3    H214265   3.955   4.133   5.337
 4774TIP3   OH214266   7.184   2.061   5.697
 4774TIP3    H114267   7.236   2.098   5.768
 4774TIP3    H214268   7.183   2.129   5.630
 4775TIP3   OH214269   2.540   6.015   2.858
 4775TIP3    H114270   2.562   6.106   2.836
 4775TIP3    H214271   2.547   5.969   2.774
 4776TIP3   OH214272   3.149   7.093   5.081
 4776TIP3    H114273   3.083   7.058   5.022
 4776TIP3    H214274   3.104   7.100   5.166
 4777TIP3   OH214275   3.445   5.373   2.249
 4777TIP3    H114276   3.381   5.342   2.185
 4777TIP3    H214277   3.528   5.339   2.218
 4778TIP3   OH214278   7.671   0.645   6.062
 4778TIP3    H114279   7.686   0.551   6.071
 4778TIP3    H214280   7.594   0.652   6.005
 4779TIP3   OH214281   1.029   5.782   2.366
 4779TIP3    H114282   1.117   5.795   2.329
 4779TIP3    H214283   1.036   5.701   2.417
 4780TIP3   OH214284   1.311   0.498   6.696
 4780TIP3    H114285   1.279   0.415   6.663
 4780TIP3    H214286   1.234   0.556   6.696
 4781TIP3   OH214287   1.399   6.904   3.721
 4781TIP3    H114288   1.445   6.879   3.801
 4781TIP3    H214289   1.316   6.941   3.751
 4782TIP3   OH214290   3.576   7.673   1.718
 4782TIP3    H114291   3.612   7.662   1.630
 4782TIP3    H214292   3.504   7.610   1.722
 4783TIP3   OH214293   0.538   2.489   5.041
 4783TIP3    H114294   0.553   2.580   5.018
 4783TIP3    H214295   0.587   2.477   5.123
 4784TIP3   OH214296   1.942   3.272   0.815
 4784TIP3    H114297   1.923   3.365   0.824
 4784TIP3    H214298   1.995   3.250   0.892
 4785TIP3   OH214299   0.056   3.642   3.833
 4785TIP3    H114300   0.079   3.550   3.819
 4785TIP3    H214301   0.128   3.691   3.792
 4786TIP3   OH214302   2.123   5.260   0.690
 4786TIP3    H114303   2.083   5.240   0.606
 4786TIP3    H214304   2.096   5.188   0.747
 4787TIP3   OH214305   2.887   2.141   2.002
 4787TIP3    H114306   2.951   2.092   2.053
 4787TIP3    H214307   2.809   2.143   2.058
 4788TIP3   OH214308   0.282   5.164   6.483
 4788TIP3    H114309   0.251   5.233   6.425
 4788TIP3    H214310   0.203   5.113   6.504
 4789TIP3   OH214311   5.984   4.520   1.865
 4789TIP3    H114312   5.993   4.612   1.887
 4789TIP3    H214313   6.051   4.476   1.918
 4790TIP3   OH214314   6.312   6.390   3.275
 4790TIP3    H114315   6.260   6.441   3.212
 4790TIP3    H214316   6.351   6.320   3.223
 4791TIP3   OH214317   4.652   2.360   6.506
 4791TIP3    H114318   4.732   2.312   6.483
 4791TIP3    H214319   4.677   2.414   6.581
 4792TIP3   OH214320   3.702   2.116   4.642
 4792TIP3    H114321   3.769   2.183   4.657
 4792TIP3    H214322   3.625   2.164   4.614
 4793TIP3   OH214323   3.897   4.336   2.269
 4793TIP3    H114324   3.869   4.262   2.216
 4793TIP3    H214325   3.843   4.409   2.239
 4794TIP3   OH214326   7.508   0.808   0.044
 4794TIP3    H114327   7.462   0.892   0.050
 4794TIP3    H214328   7.482   0.760   0.122
 4795TIP3   OH214329   3.363   7.876   1.335
 4795TIP3    H114330   3.358   7.842   1.424
 4795TIP3    H214331   3.291   7.939   1.329
 4796TIP3   OH214332   4.130   3.786   4.907
 4796TIP3    H114333   4.068   3.856   4.927
 4796TIP3    H214334   4.212   3.832   4.890
 4797TIP3   OH214335   8.227   5.886   2.117
 4797TIP3    H114336   8.139   5.915   2.138
 4797TIP3    H214337   8.285   5.945   2.166
 4798TIP3   OH214338   2.631   2.510   5.788
 4798TIP3    H114339   2.649   2.560   5.709
 4798TIP3    H214340   2.713   2.466   5.808
 4799TIP3   OH214341   3.558   5.035   1.044
 4799TIP3    H114342   3.614   4.958   1.038
 4799TIP3    H214343   3.497   5.015   1.115
 4800TIP3   OH214344   1.348   7.310   0.661
 4800TIP3    H114345   1.381   7.337   0.747
 4800TIP3    H214346   1.255   7.291   0.676
 4801TIP3   OH214347   4.549   6.634   0.798
 4801TIP3    H114348   4.573   6.593   0.882
 4801TIP3    H214349   4.487   6.573   0.759
 4802TIP3   OH214350   5.501   7.582   5.241
 4802TIP3    H114351   5.533   7.497   5.271
 4802TIP3    H214352   5.535   7.591   5.153
 4803TIP3   OH214353   0.937   4.964   0.981
 4803TIP3    H114354   0.907   5.044   0.936
 4803TIP3    H214355   1.024   4.947   0.945
 4804TIP3   OH214356   5.429   5.787   5.296
 4804TIP3    H114357   5.342   5.772   5.333
 4804TIP3    H214358   5.445   5.880   5.308
 4805TIP3   OH214359   5.797   5.442   5.537
 4805TIP3    H114360   5.851   5.501   5.484
 4805TIP3    H214361   5.729   5.499   5.574
 4806TIP3   OH214362   0.595   2.851   3.331
 4806TIP3    H114363   0.651   2.888   3.263
 4806TIP3    H214364   0.655   2.823   3.400
 4807TIP3   OH214365   0.527   7.100   6.707
 4807TIP3    H114366   0.471   7.022   6.714
 4807TIP3    H214367   0.534   7.133   6.796
 4808TIP3   OH214368   6.117   3.727   4.165
 4808TIP3    H114369   6.150   3.807   4.125
 4808TIP3    H214370   6.136   3.658   4.102
 4809TIP3   OH214371   5.674   6.169   5.976
 4809TIP3    H114372   5.632   6.088   6.004
 4809TIP3    H214373   5.607   6.215   5.926
 4810TIP3   OH214374   5.709   0.840   6.455
 4810TIP3    H114375   5.772   0.832   6.384
 4810TIP3    H214376   5.625   0.853   6.412
 4811TIP3   OH214377   5.132   1.595   1.451
 4811TIP3    H114378   5.070   1.592   1.378
 4811TIP3    H214379   5.091   1.654   1.514
 4812TIP3   OH214380   5.310   7.545   4.932
 4812TIP3    H114381   5.243   7.610   4.912
 4812TIP3    H214382   5.261   7.467   4.959
 4813TIP3   OH214383   5.188   1.627   6.434
 4813TIP3    H114384   5.236   1.651   6.514
 4813TIP3    H214385   5.099   1.610   6.464
 4814TIP3   OH214386   1.563   2.937   3.529
 4814TIP3    H114387   1.510   2.925   3.608
 4814TIP3    H214388   1.502   2.919   3.457
 4815TIP3   OH214389   0.686   0.011   6.129
 4815TIP3    H114390   0.627  -0.063   6.112
 4815TIP3    H214391   0.687   0.061   6.048
 4816TIP3   OH214392   1.794   0.062   0.390
 4816TIP3    H114393   1.752   0.071   0.304
 4816TIP3    H214394   1.777  -0.029   0.415
 4817TIP3   OH214395   2.778   2.897   4.286
 4817TIP3    H114396   2.754   2.874   4.375
 4817TIP3    H214397   2.714   2.850   4.231
 4818TIP3   OH214398   4.009   7.611   5.316
 4818TIP3    H114399   4.002   7.631   5.222
 4818TIP3    H214400   4.073   7.540   5.320
 4819TIP3   OH214401   5.437   7.455   0.896
 4819TIP3    H114402   5.388   7.533   0.922
 4819TIP3    H214403   5.400   7.431   0.811
 4820TIP3   OH214404   7.364   3.849   4.276
 4820TIP3    H114405   7.324   3.797   4.206
 4820TIP3    H214406   7.317   3.824   4.355
 4821TIP3   OH214407   5.188   4.520   6.285
 4821TIP3    H114408   5.153   4.527   6.374
 4821TIP3    H214409   5.223   4.431   6.280
 4822TIP3   OH214410   0.282   3.582   0.224
 4822TIP3    H114411   0.240   3.642   0.285
 4822TIP3    H214412   0.340   3.529   0.279
 4823TIP3   OH214413   5.273   1.621   5.029
 4823TIP3    H114414   5.187   1.581   5.019
 4823TIP3    H214415   5.276   1.690   4.963
 4824TIP3   OH214416   4.216   5.023   1.150
 4824TIP3    H114417   4.274   4.950   1.128
 4824TIP3    H214418   4.130   4.995   1.118
 4825TIP3   OH214419   3.088   2.455   0.078
 4825TIP3    H114420   3.055   2.479  -0.009
 4825TIP3    H214421   3.038   2.509   0.138
 4826TIP3   OH214422   7.423   0.397   2.446
 4826TIP3    H114423   7.459   0.395   2.535
 4826TIP3    H214424   7.490   0.442   2.395
 4827TIP3   OH214425   3.418   6.612   2.368
 4827TIP3    H114426   3.375   6.690   2.403
 4827TIP3    H214427   3.398   6.613   2.274
 4828TIP3   OH214428   5.150   1.723   5.657
 4828TIP3    H114429   5.196   1.805   5.678
 4828TIP3    H214430   5.128   1.731   5.565
 4829TIP3   OH214431   8.165   2.749   1.767
 4829TIP3    H114432   8.184   2.795   1.849
 4829TIP3    H214433   8.228   2.676   1.766
 4830TIP3   OH214434   4.311   0.827   4.901
 4830TIP3    H114435   4.223   0.803   4.930
 4830TIP3    H214436   4.333   0.904   4.953
 4831TIP3   OH214437   3.539   3.010   4.468
 4831TIP3    H114438   3.486   3.011   4.387
 4831TIP3    H214439   3.622   2.971   4.441
 4832TIP3   OH214440   5.798   4.005   2.414
 4832TIP3    H114441   5.794   3.921   2.461
 4832TIP3    H214442   5.755   3.987   2.330
 4833TIP3   OH214443   1.855   1.694   4.263
 4833TIP3    H114444   1.853   1.790   4.267
 4833TIP3    H214445   1.820   1.666   4.348
 4834TIP3   OH214446   0.302   7.366   2.412
 4834TIP3    H114447   0.288   7.306   2.338
 4834TIP3    H214448   0.227   7.351   2.469
 4835TIP3   OH214449   3.060   6.924   0.576
 4835TIP3    H114450   2.983   6.937   0.520
 4835TIP3    H214451   3.024   6.899   0.661
 4836TIP3   OH214452   1.535   1.524   4.023
 4836TIP3    H114453   1.491   1.475   3.954
 4836TIP3    H214454   1.602   1.575   3.978
 4837TIP3   OH214455   5.075   3.466   6.310
 4837TIP3    H114456   5.100   3.465   6.218
 4837TIP3    H214457   5.052   3.557   6.328
 4838TIP3   OH214458   5.586   1.475   5.866
 4838TIP3    H114459   5.566   1.568   5.855
 4838TIP3    H214460   5.572   1.459   5.959
 4839TIP3   OH214461   0.600   6.010   2.995
 4839TIP3    H114462   0.636   6.098   2.982
 4839TIP3    H214463   0.617   5.992   3.088
 4840TIP3   OH214464   0.839   6.065   5.190
 4840TIP3    H114465   0.783   6.130   5.231
 4840TIP3    H214466   0.785   6.027   5.121
 4841TIP3   OH214467   0.288   2.421   5.980
 4841TIP3    H114468   0.208   2.390   5.938
 4841TIP3    H214469   0.270   2.417   6.074
 4842TIP3   OH214470   6.325   2.671   2.192
 4842TIP3    H114471   6.344   2.691   2.100
 4842TIP3    H214472   6.371   2.738   2.242
 4843TIP3   OH214473   6.824   7.275   1.168
 4843TIP3    H114474   6.815   7.334   1.094
 4843TIP3    H214475   6.742   7.285   1.217
 4844TIP3   OH214476   8.272   4.825   5.502
 4844TIP3    H114477   8.297   4.830   5.409
 4844TIP3    H214478   8.249   4.734   5.516
 4845TIP3   OH214479   7.208   1.637   4.700
 4845TIP3    H114480   7.165   1.678   4.776
 4845TIP3    H214481   7.137   1.592   4.654
 4846TIP3   OH214482   7.330   2.165   2.138
 4846TIP3    H114483   7.376   2.249   2.146
 4846TIP3    H214484   7.347   2.121   2.222
 4847TIP3   OH214485   3.264   3.395   2.529
 4847TIP3    H114486   3.199   3.444   2.579
 4847TIP3    H214487   3.220   3.376   2.445
 4848TIP3   OH214488   3.648   2.257   6.215
 4848TIP3    H114489   3.738   2.225   6.227
 4848TIP3    H214490   3.651   2.348   6.244
 4849TIP3   OH214491   2.939   4.103   5.638
 4849TIP3    H114492   2.984   4.042   5.697
 4849TIP3    H214493   2.849   4.071   5.634
 4850TIP3   OH214494   5.658   0.645   1.527
 4850TIP3    H114495   5.741   0.612   1.563
 4850TIP3    H214496   5.627   0.707   1.593
 4851TIP3   OH214497   2.260   5.611   1.082
 4851TIP3    H114498   2.321   5.578   1.015
 4851TIP3    H214499   2.317   5.637   1.154
 4852TIP3   OH214500   3.422   3.548  -0.003
 4852TIP3    H114501   3.384   3.602   0.066
 4852TIP3    H214502   3.348   3.525  -0.059
 4853TIP3   OH214503   2.998   5.886   0.531
 4853TIP3    H114504   3.029   5.827   0.463
 4853TIP3    H214505   3.078   5.916   0.575
 4854TIP3   OH214506   4.710   0.778   3.647
 4854TIP3    H114507   4.772   0.845   3.619
 4854TIP3    H214508   4.681   0.736   3.566
 4855TIP3   OH214509   2.881   3.395   6.733
 4855TIP3    H114510   2.826   3.335   6.782
 4855TIP3    H214511   2.954   3.341   6.701
 4856TIP3   OH214512   7.105   3.208   3.684
 4856TIP3    H114513   7.158   3.170   3.614
 4856TIP3    H214514   7.023   3.231   3.642
 4857TIP3   OH214515   1.278   2.362   5.970
 4857TIP3    H114516   1.200   2.307   5.970
 4857TIP3    H214517   1.333   2.325   6.039
 4858TIP3   OH214518   2.725   4.854   4.599
 4858TIP3    H114519   2.802   4.856   4.655
 4858TIP3    H214520   2.758   4.862   4.510
 4859TIP3   OH214521   3.894   1.716   0.925
 4859TIP3    H114522   3.934   1.631   0.940
 4859TIP3    H214523   3.965   1.779   0.942
 4860TIP3   OH214524   1.047   3.053   3.310
 4860TIP3    H114525   0.992   3.132   3.307
 4860TIP3    H214526   1.133   3.084   3.338
 4861TIP3   OH214527   2.060   4.126   4.823
 4861TIP3    H114528   2.071   4.045   4.774
 4861TIP3    H214529   2.096   4.194   4.766
 4862TIP3   OH214530   5.714   2.424   5.370
 4862TIP3    H114531   5.632   2.418   5.418
 4862TIP3    H214532   5.712   2.511   5.330
 4863TIP3   OH214533   4.517   4.316   4.200
 4863TIP3    H114534   4.568   4.242   4.166
 4863TIP3    H214535   4.568   4.347   4.275
 4864TIP3   OH214536   4.347   2.455   3.390
 4864TIP3    H114537   4.405   2.414   3.454
 4864TIP3    H214538   4.396   2.450   3.307
 4865TIP3   OH214539   4.418   2.431   5.080
 4865TIP3    H114540   4.345   2.493   5.079
 4865TIP3    H214541   4.409   2.385   5.164
 4866TIP3   OH214542   7.978   7.366   3.087
 4866TIP3    H114543   7.937   7.347   3.171
 4866TIP3    H214544   7.905   7.387   3.029
 4867TIP3   OH214545   5.189   3.035   4.855
 4867TIP3    H114546   5.236   3.098   4.801
 4867TIP3    H214547   5.102   3.073   4.867
 4868TIP3   OH214548   1.500   6.723   2.915
 4868TIP3    H114549   1.575   6.691   2.965
 4868TIP3    H214550   1.432   6.737   2.981
 4869TIP3   OH214551   3.454   2.279   5.087
 4869TIP3    H114552   3.408   2.360   5.110
 4869TIP3    H214553   3.389   2.210   5.099
 4870TIP3   OH214554   5.421   0.577   2.897
 4870TIP3    H114555   5.484   0.648   2.894
 4870TIP3    H214556   5.370   0.587   2.817
 4871TIP3   OH214557   6.590   1.412   4.369
 4871TIP3    H114558   6.536   1.475   4.416
 4871TIP3    H214559   6.646   1.465   4.312
 4872TIP3   OH214560   3.167   5.072   0.952
 4872TIP3    H114561   3.263   5.070   0.955
 4872TIP3    H214562   3.145   5.026   0.871
 4873TIP3   OH214563   3.507   3.408   0.482
 4873TIP3    H114564   3.543   3.486   0.524
 4873TIP3    H214565   3.534   3.415   0.390
 4874TIP3   OH214566   6.151   4.616   6.593
 4874TIP3    H114567   6.068   4.634   6.548
 4874TIP3    H214568   6.135   4.536   6.643
 4875TIP3   OH214569   4.512   3.541   4.007
 4875TIP3    H114570   4.584   3.594   4.039
 4875TIP3    H214571   4.475   3.591   3.934
 4876TIP3   OH214572   7.639   6.596   5.985
 4876TIP3    H114573   7.565   6.654   5.999
 4876TIP3    H214574   7.710   6.653   5.955
 4877TIP3   OH214575   0.153   3.103   4.024
 4877TIP3    H114576   0.100   3.040   3.975
 4877TIP3    H214577   0.242   3.069   4.018
 4878TIP3   OH214578   0.431   6.066   6.602
 4878TIP3    H114579   0.455   5.997   6.664
 4878TIP3    H214580   0.337   6.055   6.589
 4879TIP3   OH214581   1.349   0.142   2.126
 4879TIP3    H114582   1.340   0.237   2.116
 4879TIP3    H214583   1.414   0.116   2.061
 4880TIP3   OH214584   5.874   6.846   0.047
 4880TIP3    H114585   5.786   6.843   0.084
 4880TIP3    H214586   5.873   6.923  -0.009
 4881TIP3   OH214587   1.780   7.803   2.020
 4881TIP3    H114588   1.875   7.795   2.018
 4881TIP3    H214589   1.763   7.897   2.015
 4882TIP3   OH214590   0.903   0.331   0.271
 4882TIP3    H114591   0.831   0.382   0.235
 4882TIP3    H214592   0.973   0.395   0.285
 4883TIP3   OH214593   1.360   3.178   1.517
 4883TIP3    H114594   1.265   3.162   1.522
 4883TIP3    H214595   1.378   3.186   1.424
 4884TIP3   OH214596   0.261   2.258   0.803
 4884TIP3    H114597   0.260   2.322   0.732
 4884TIP3    H214598   0.331   2.198   0.780
 4885TIP3   OH214599   7.495   4.033   0.378
 4885TIP3    H114600   7.446   4.060   0.455
 4885TIP3    H214601   7.579   4.078   0.385
 4886TIP3   OH214602   0.089   1.901   0.654
 4886TIP3    H114603   0.117   1.810   0.656
 4886TIP3    H214604   0.066   1.921   0.745
 4887TIP3   OH214605   6.227   4.411   2.674
 4887TIP3    H114606   6.246   4.416   2.580
 4887TIP3    H214607   6.293   4.467   2.715
 4888TIP3   OH214608   5.455   1.770   1.915
 4888TIP3    H114609   5.434   1.726   1.833
 4888TIP3    H214610   5.479   1.859   1.888
 4889TIP3   OH214611   6.600   0.865   5.731
 4889TIP3    H114612   6.516   0.899   5.762
 4889TIP3    H214613   6.647   0.843   5.811
 4890TIP3   OH214614   4.719   4.571   2.388
 4890TIP3    H114615   4.670   4.629   2.329
 4890TIP3    H214616   4.656   4.546   2.455
 4891TIP3   OH214617   3.021   4.346   6.582
 4891TIP3    H114618   2.971   4.313   6.508
 4891TIP3    H214619   3.091   4.282   6.595
 4892TIP3   OH214620   5.282   6.483   2.200
 4892TIP3    H114621   5.272   6.401   2.248
 4892TIP3    H214622   5.230   6.547   2.248
 4893TIP3   OH214623   1.875   1.258   3.456
 4893TIP3    H114624   1.934   1.333   3.455
 4893TIP3    H214625   1.933   1.182   3.459
 4894TIP3   OH214626   1.250   7.103   0.229
 4894TIP3    H114627   1.214   7.040   0.292
 4894TIP3    H214628   1.304   7.161   0.281
 4895TIP3   OH214629   7.773   0.085   4.429
 4895TIP3    H114630   7.785  -0.007   4.407
 4895TIP3    H214631   7.748   0.126   4.347
 4896TIP3   OH214632   2.368   5.813   5.053
 4896TIP3    H114633   2.410   5.753   4.991
 4896TIP3    H214634   2.432   5.884   5.064
 4897TIP3   OH214635   3.824  -0.008   3.151
 4897TIP3    H114636   3.848   0.018   3.062
 4897TIP3    H214637   3.843   0.069   3.205
 4898TIP3   OH214638   8.079   2.269   5.730
 4898TIP3    H114639   8.121   2.229   5.806
 4898TIP3    H214640   8.051   2.195   5.676
 4899TIP3   OH214641   1.081   6.357   5.307
 4899TIP3    H114642   1.153   6.417   5.294
 4899TIP3    H214643   1.070   6.351   5.402
 4900TIP3   OH214644   1.587   1.490   3.339
 4900TIP3    H114645   1.628   1.577   3.346
 4900TIP3    H214646   1.646   1.440   3.283
 4901TIP3   OH214647   5.528   3.994   3.949
 4901TIP3    H114648   5.511   3.928   4.017
 4901TIP3    H214649   5.485   4.073   3.981
 4902TIP3   OH214650   4.105   4.778   5.622
 4902TIP3    H114651   4.111   4.726   5.702
 4902TIP3    H214652   4.161   4.854   5.638
 4903TIP3   OH214653   7.235   3.439   4.701
 4903TIP3    H114654   7.266   3.394   4.623
 4903TIP3    H214655   7.315   3.462   4.748
 4904TIP3   OH214656   3.202   2.596   6.044
 4904TIP3    H114657   3.250   2.579   6.125
 4904TIP3    H214658   3.212   2.691   6.030
 4905TIP3   OH214659   5.309   7.662   3.418
 4905TIP3    H114660   5.399   7.642   3.392
 4905TIP3    H214661   5.255   7.609   3.360
 4906TIP3   OH214662   6.237   6.421   0.495
 4906TIP3    H114663   6.316   6.406   0.443
 4906TIP3    H214664   6.171   6.447   0.430
 4907TIP3   OH214665   8.003   5.934   2.588
 4907TIP3    H114666   8.043   6.021   2.590
 4907TIP3    H214667   8.077   5.874   2.574
 4908TIP3   OH214668   4.125   1.546   3.100
 4908TIP3    H114669   4.198   1.598   3.069
 4908TIP3    H214670   4.155   1.455   3.092
 4909TIP3   OH214671   5.326   5.258   3.338
 4909TIP3    H114672   5.405   5.312   3.331
 4909TIP3    H214673   5.357   5.168   3.325
 4910TIP3   OH214674   4.716   2.926   0.685
 4910TIP3    H114675   4.734   2.833   0.699
 4910TIP3    H214676   4.662   2.929   0.606
 4911TIP3   OH214677   6.482   0.877   0.481
 4911TIP3    H114678   6.490   0.827   0.562
 4911TIP3    H214679   6.565   0.860   0.435
 4912TIP3   OH214680   4.187   1.789   5.488
 4912TIP3    H114681   4.244   1.813   5.560
 4912TIP3    H214682   4.174   1.870   5.439
 4913TIP3   OH214683   0.600   2.148   5.122
 4913TIP3    H114684   0.551   2.204   5.183
 4913TIP3    H214685   0.627   2.074   5.176
 4914TIP3   OH214686   1.764   6.828   0.118
 4914TIP3    H114687   1.673   6.831   0.090
 4914TIP3    H214688   1.782   6.735   0.133
 4915TIP3   OH214689   3.564   5.686   3.730
 4915TIP3    H114690   3.500   5.707   3.663
 4915TIP3    H214691   3.627   5.628   3.686
 4916TIP3   OH214692   3.586   4.414   1.749
 4916TIP3    H114693   3.635   4.405   1.668
 4916TIP3    H214694   3.584   4.508   1.767
 4917TIP3   OH214695   2.346   5.095   4.645
 4917TIP3    H114696   2.421   5.155   4.648
 4917TIP3    H214697   2.269   5.152   4.652
 4918TIP3   OH214698   3.695   3.807   3.880
 4918TIP3    H114699   3.645   3.792   3.799
 4918TIP3    H214700   3.697   3.722   3.923
 4919TIP3   OH214701   7.441  -0.026   6.573
 4919TIP3    H114702   7.376  -0.041   6.641
 4919TIP3    H214703   7.447  -0.110   6.527
 4920TIP3   OH214704   3.626   0.882   5.434
 4920TIP3    H114705   3.681   0.820   5.386
 4920TIP3    H214706   3.539   0.843   5.433
 4921TIP3   OH214707   5.015   3.358   1.751
 4921TIP3    H114708   4.997   3.405   1.669
 4921TIP3    H214709   5.037   3.269   1.724
 4922TIP3   OH214710  -0.026   6.329   3.953
 4922TIP3    H114711  -0.048   6.419   3.977
 4922TIP3    H214712   0.031   6.299   4.025
 4923TIP3   OH214713   3.916   4.583   0.083
 4923TIP3    H114714   3.985   4.605   0.145
 4923TIP3    H214715   3.836   4.617   0.123
 4924TIP3   OH214716   1.056   6.657   5.151
 4924TIP3    H114717   1.005   6.592   5.103
 4924TIP3    H214718   0.993   6.700   5.208
 4925TIP3   OH214719   4.090   2.082   3.867
 4925TIP3    H114720   4.058   2.074   3.957
 4925TIP3    H214721   4.120   1.994   3.844
 4926TIP3   OH214722   0.857   3.023   5.232
 4926TIP3    H114723   0.909   2.951   5.270
 4926TIP3    H214724   0.777   2.981   5.202
 4927TIP3   OH214725   2.215   0.381   5.684
 4927TIP3    H114726   2.122   0.361   5.694
 4927TIP3    H214727   2.224   0.413   5.594
 4928TIP3   OH214728   1.136   5.954   1.910
 4928TIP3    H114729   1.084   6.031   1.886
 4928TIP3    H214730   1.204   5.988   1.968
 4929TIP3   OH214731   1.602   7.165   4.660
 4929TIP3    H114732   1.530   7.101   4.658
 4929TIP3    H214733   1.570   7.236   4.715
 4930TIP3   OH214734   2.215   2.904   2.314
 4930TIP3    H114735   2.149   2.957   2.358
 4930TIP3    H214736   2.248   2.959   2.243
 4931TIP3   OH214737   2.396   4.539   5.776
 4931TIP3    H114738   2.443   4.622   5.789
 4931TIP3    H214739   2.304   4.566   5.767
 4932TIP3   OH214740   1.540   3.595   0.650
 4932TIP3    H114741   1.503   3.561   0.732
 4932TIP3    H214742   1.487   3.672   0.630
 4933TIP3   OH214743   7.821   1.449   5.710
 4933TIP3    H114744   7.906   1.487   5.731
 4933TIP3    H214745   7.832   1.356   5.725
 4934TIP3   OH214746   0.924   1.599   5.260
 4934TIP3    H114747   0.958   1.587   5.172
 4934TIP3    H214748   0.971   1.534   5.312
 4935TIP3   OH214749   2.101   1.087   2.099
 4935TIP3    H114750   2.188   1.116   2.069
 4935TIP3    H214751   2.062   1.166   2.136
 4936TIP3   OH214752   1.408   5.553   0.003
 4936TIP3    H114753   1.427   5.556   0.096
 4936TIP3    H214754   1.363   5.470  -0.010
 4937TIP3   OH214755   1.074   3.248   2.850
 4937TIP3    H114756   1.158   3.256   2.895
 4937TIP3    H214757   1.056   3.336   2.818
 4938TIP3   OH214758   6.894   2.990   6.254
 4938TIP3    H114759   6.840   2.914   6.233
 4938TIP3    H214760   6.882   3.002   6.349
 4939TIP3   OH214761   3.893   4.842   4.099
 4939TIP3    H114762   3.814   4.790   4.093
 4939TIP3    H214763   3.877   4.903   4.171
 4940TIP3   OH214764   8.372  -0.027   5.423
 4940TIP3    H114765   8.313   0.007   5.490
 4940TIP3    H214766   8.319  -0.092   5.375
 4941TIP3   OH214767   5.448   2.035   0.601
 4941TIP3    H114768   5.477   2.124   0.624
 4941TIP3    H214769   5.474   2.025   0.509
 4942TIP3   OH214770   4.862   6.436   0.893
 4942TIP3    H114771   4.921   6.375   0.938
 4942TIP3    H214772   4.782   6.434   0.945
 4943TIP3   OH214773   7.938   6.280   4.088
 4943TIP3    H114774   7.943   6.356   4.030
 4943TIP3    H214775   8.029   6.263   4.111
 4944TIP3   OH214776   7.024   6.398   1.472
 4944TIP3    H114777   6.970   6.459   1.523
 4944TIP3    H214778   6.989   6.404   1.383
 4945TIP3   OH214779   4.095   0.843   0.074
 4945TIP3    H114780   4.115   0.756   0.108
 4945TIP3    H214781   4.173   0.894   0.091
 4946TIP3   OH214782   0.202   0.938   3.498
 4946TIP3    H114783   0.197   0.864   3.558
 4946TIP3    H214784   0.286   0.980   3.518
 4947TIP3   OH214785   6.339   1.950   4.765
 4947TIP3    H114786   6.301   2.028   4.725
 4947TIP3    H214787   6.357   1.975   4.856
 4948TIP3   OH214788   4.244   6.145   1.115
 4948TIP3    H114789   4.155   6.174   1.093
 4948TIP3    H214790   4.239   6.117   1.206
 4949TIP3   OH214791   3.994   6.008   5.159
 4949TIP3    H114792   3.966   5.942   5.095
 4949TIP3    H214793   4.048   5.960   5.221
 4950TIP3   OH214794   1.157   7.027   3.789
 4950TIP3    H114795   1.088   7.071   3.839
 4950TIP3    H214796   1.113   6.994   3.711
 4951TIP3   OH214797   5.470   3.631   2.694
 4951TIP3    H114798   5.546   3.669   2.736
 4951TIP3    H214799   5.496   3.621   2.602
 4952TIP3   OH214800   2.996   6.148   2.299
 4952TIP3    H114801   3.071   6.087   2.303
 4952TIP3    H214802   3.021   6.220   2.357
 4953TIP3   OH214803   1.942   2.680  -0.011
 4953TIP3    H114804   1.858   2.720  -0.036
 4953TIP3    H214805   1.922   2.630   0.068
 4954TIP3   OH214806   1.874   2.319   4.174
 4954TIP3    H114807   1.828   2.350   4.252
 4954TIP3    H214808   1.921   2.396   4.141
 4955TIP3   OH214809   4.412   0.741   1.679
 4955TIP3    H114810   4.342   0.681   1.655
 4955TIP3    H214811   4.368   0.825   1.693
 4956TIP3   OH214812   2.930   1.575   0.849
 4956TIP3    H114813   3.000   1.515   0.824
 4956TIP3    H214814   2.951   1.656   0.803
 4957TIP3   OH214815   4.726   5.723   2.096
 4957TIP3    H114816   4.725   5.669   2.175
 4957TIP3    H214817   4.774   5.672   2.032
 4958TIP3   OH214818   5.850   1.341   0.413
 4958TIP3    H114819   5.770   1.293   0.434
 4958TIP3    H214820   5.820   1.417   0.363
 4959TIP3   OH214821   7.505   0.835   6.508
 4959TIP3    H114822   7.544   0.863   6.590
 4959TIP3    H214823   7.445   0.906   6.484
 4960TIP3   OH214824   7.212   5.359   5.622
 4960TIP3    H114825   7.229   5.361   5.716
 4960TIP3    H214826   7.287   5.404   5.583
 4961TIP3   OH214827   8.017   6.455   6.235
 4961TIP3    H114828   7.928   6.486   6.252
 4961TIP3    H214829   8.021   6.446   6.140
 4962TIP3   OH214830   4.520   4.387   6.615
 4962TIP3    H114831   4.492   4.359   6.527
 4962TIP3    H214832   4.577   4.316   6.645
 4963TIP3   OH214833   6.669   4.378   5.216
 4963TIP3    H114834   6.664   4.399   5.123
 4963TIP3    H214835   6.589   4.414   5.253
 4964TIP3   OH214836   4.972   0.368   0.523
 4964TIP3    H114837   4.948   0.433   0.457
 4964TIP3    H214838   5.066   0.355   0.509
 4965TIP3   OH214839   4.688   2.455   3.809
 4965TIP3    H114840   4.687   2.361   3.823
 4965TIP3    H214841   4.613   2.472   3.752
 4966TIP3   OH214842   5.443   2.143   2.745
 4966TIP3    H114843   5.491   2.076   2.794
 4966TIP3    H214844   5.439   2.218   2.804
 4967TIP3   OH214845   2.235   6.841   4.190
 4967TIP3    H114846   2.183   6.921   4.181
 4967TIP3    H214847   2.326   6.871   4.191
 4968TIP3   OH214848   2.523   3.031   3.629
 4968TIP3    H114849   2.518   2.993   3.541
 4968TIP3    H214850   2.441   3.004   3.672
 4969TIP3   OH214851   1.664   0.821   4.050
 4969TIP3    H114852   1.745   0.856   4.013
 4969TIP3    H214853   1.657   0.733   4.013
 4970TIP3   OH214854   1.059   0.978   0.467
 4970TIP3    H114855   1.052   1.058   0.415
 4970TIP3    H214856   1.056   0.907   0.403
 4971TIP3   OH214857   7.282   6.194   5.984
 4971TIP3    H114858   7.257   6.162   6.071
 4971TIP3    H214859   7.370   6.159   5.970
 4972TIP3   OH214860   3.515   6.219   3.052
 4972TIP3    H114861   3.602   6.197   3.085
 4972TIP3    H214862   3.528   6.239   2.959
 4973TIP3   OH214863   1.661   7.696   0.440
 4973TIP3    H114864   1.612   7.615   0.423
 4973TIP3    H214865   1.709   7.712   0.359
 4974TIP3   OH214866   4.702   7.012   5.299
 4974TIP3    H114867   4.607   7.022   5.304
 4974TIP3    H214868   4.720   6.932   5.348
 4975TIP3   OH214869   3.172   4.579   6.740
 4975TIP3    H114870   3.231   4.526   6.685
 4975TIP3    H214871   3.203   4.669   6.728
 4976TIP3   OH214872   4.886   3.519   3.122
 4976TIP3    H114873   4.833   3.460   3.067
 4976TIP3    H214874   4.975   3.485   3.115
 4977TIP3   OH214875   1.399   5.440   5.696
 4977TIP3    H114876   1.486   5.472   5.673
 4977TIP3    H214877   1.415   5.352   5.732
 4978TIP3   OH214878   7.385   4.311   3.925
 4978TIP3    H114879   7.364   4.297   4.018
 4978TIP3    H214880   7.350   4.234   3.881
 4979TIP3   OH214881   7.809   5.472   0.102
 4979TIP3    H114882   7.776   5.559   0.126
 4979TIP3    H214883   7.732   5.415   0.107
 4980TIP3   OH214884   4.681   7.744   0.504
 4980TIP3    H114885   4.711   7.794   0.581
 4980TIP3    H214886   4.699   7.653   0.526
 4981TIP3   OH214887   5.507   6.006   5.716
 4981TIP3    H114888   5.487   5.916   5.742
 4981TIP3    H214889   5.430   6.056   5.742
 4982TIP3   OH214890   4.950   0.295   5.658
 4982TIP3    H114891   4.893   0.218   5.651
 4982TIP3    H214892   4.951   0.315   5.751
 4983TIP3   OH214893   7.867   4.617   4.513
 4983TIP3    H114894   7.929   4.601   4.441
 4983TIP3    H214895   7.821   4.534   4.524
 4984TIP3   OH214896   1.287   6.806   0.819
 4984TIP3    H114897   1.258   6.777   0.732
 4984TIP3    H214898   1.230   6.880   0.840
 4985TIP3   OH214899   8.148   7.007   5.685
 4985TIP3    H114900   8.193   7.088   5.660
 4985TIP3    H214901   8.162   6.948   5.612
 4986TIP3   OH214902   0.493   7.061   4.998
 4986TIP3    H114903   0.472   7.005   4.924
 4986TIP3    H214904   0.584   7.040   5.020
 4987TIP3   OH214905   6.110   0.256   5.158
 4987TIP3    H114906   6.161   0.335   5.174
 4987TIP3    H214907   6.141   0.193   5.223
 4988TIP3   OH214908   1.810   7.121   5.881
 4988TIP3    H114909   1.872   7.066   5.834
 4988TIP3    H214910   1.765   7.060   5.940
 4989TIP3   OH214911   8.310   3.457   2.899
 4989TIP3    H114912   8.241   3.522   2.904
 4989TIP3    H214913   8.267   3.374   2.922
 4990TIP3   OH214914   1.935   2.821   5.611
 4990TIP3    H114915   1.967   2.738   5.575
 4990TIP3    H214916   1.990   2.888   5.570
 4991TIP3   OH214917   6.962   6.964   5.209
 4991TIP3    H114918   6.961   6.977   5.304
 4991TIP3    H214919   7.036   6.905   5.194
 4992TIP3   OH214920   6.068   6.495   2.140
 4992TIP3    H114921   6.125   6.566   2.111
 4992TIP3    H214922   5.980   6.532   2.137
 4993TIP3   OH214923   5.730   3.221   5.784
 4993TIP3    H114924   5.818   3.215   5.747
 4993TIP3    H214925   5.715   3.136   5.825
 4994TIP3   OH214926   1.051   1.096   6.538
 4994TIP3    H114927   1.107   1.173   6.531
 4994TIP3    H214928   1.099   1.036   6.595
 4995TIP3   OH214929   0.255   1.807   3.869
 4995TIP3    H114930   0.328   1.869   3.866
 4995TIP3    H214931   0.207   1.823   3.787
 4996TIP3   OH214932   4.100   2.416   3.876
 4996TIP3    H114933   4.053   2.333   3.867
 4996TIP3    H214934   4.144   2.410   3.961
 4997TIP3   OH214935   0.624   7.612   4.421
 4997TIP3    H114936   0.685   7.575   4.358
 4997TIP3    H214937   0.678   7.668   4.477
 4998TIP3   OH214938   2.830   3.095   1.855
 4998TIP3    H114939   2.874   3.158   1.912
 4998TIP3    H214940   2.885   3.017   1.860
 4999TIP3   OH214941   4.696   5.200   4.314
 4999TIP3    H114942   4.731   5.287   4.293
 4999TIP3    H214943   4.624   5.188   4.252
 5000TIP3   OH214944   5.377   1.143   6.615
 5000TIP3    H114945   5.361   1.216   6.675
 5000TIP3    H214946   5.402   1.185   6.532
 5001TIP3   OH214947   7.219   0.534   0.700
 5001TIP3    H114948   7.199   0.626   0.680
 5001TIP3    H214949   7.178   0.485   0.629
 5002TIP3   OH214950   1.676   0.073   1.143
 5002TIP3    H114951   1.630   0.157   1.156
 5002TIP3    H214952   1.765   0.099   1.119
 5003TIP3   OH214953   6.640   0.766   3.129
 5003TIP3    H114954   6.663   0.845   3.179
 5003TIP3    H214955   6.646   0.793   3.037
 5004TIP3   OH214956   3.362   5.313   5.266
 5004TIP3    H114957   3.410   5.337   5.344
 5004TIP3    H214958   3.295   5.251   5.297
 5005TIP3   OH214959   3.804   2.923   5.022
 5005TIP3    H114960   3.762   2.913   5.108
 5005TIP3    H214961   3.884   2.972   5.040
 5006TIP3   OH214962   1.412   1.255   0.762
 5006TIP3    H114963   1.363   1.175   0.742
 5006TIP3    H214964   1.503   1.228   0.763
 5007TIP3   OH214965   0.857   5.036   5.608
 5007TIP3    H114966   0.856   4.973   5.680
 5007TIP3    H214967   0.769   5.075   5.609
 5008TIP3   OH214968   6.092   0.472   5.842
 5008TIP3    H114969   6.184   0.482   5.865
 5008TIP3    H214970   6.054   0.425   5.917
 5009TIP3   OH214971   4.191   3.511   0.866
 5009TIP3    H114972   4.245   3.582   0.901
 5009TIP3    H214973   4.101   3.539   0.882
 5010TIP3   OH214974   1.899   4.732   6.087
 5010TIP3    H114975   1.858   4.647   6.075
 5010TIP3    H214976   1.826   4.794   6.086
 5011TIP3   OH214977   3.963   2.243   6.173
 5011TIP3    H114978   3.982   2.260   6.080
 5011TIP3    H214979   4.010   2.312   6.220
 5012TIP3   OH214980   6.433   0.418   0.723
 5012TIP3    H114981   6.338   0.409   0.721
 5012TIP3    H214982   6.459   0.384   0.808
 5013TIP3   OH214983   5.160   1.773   3.178
 5013TIP3    H114984   5.166   1.764   3.273
 5013TIP3    H214985   5.073   1.807   3.162
 5014TIP3   OH214986   1.713   6.425   3.897
 5014TIP3    H114987   1.803   6.433   3.863
 5014TIP3    H214988   1.724   6.406   3.990
 5015TIP3   OH214989   2.767   5.782   5.038
 5015TIP3    H114990   2.760   5.810   5.129
 5015TIP3    H214991   2.700   5.715   5.029
 5016TIP3   OH214992   1.793   0.779   5.075
 5016TIP3    H114993   1.820   0.836   5.147
 5016TIP3    H214994   1.873   0.763   5.025
 5017TIP3   OH214995   4.997   5.605   1.991
 5017TIP3    H114996   5.003   5.632   1.899
 5017TIP3    H214997   4.984   5.510   1.987
 5018TIP3   OH214998   0.137   3.612   4.540
 5018TIP3    H114999   0.058   3.663   4.557
 5018TIP3    H215000   0.162   3.577   4.625
 5019TIP3   OH215001   7.097   1.429   1.979
 5019TIP3    H115002   7.103   1.509   2.032
 5019TIP3    H215003   7.042   1.453   1.905
 5020TIP3   OH215004   1.772   5.159   0.978
 5020TIP3    H115005   1.678   5.152   0.995
 5020TIP3    H215006   1.789   5.095   0.909
 5021TIP3   OH215007   7.049   3.318   0.913
 5021TIP3    H115008   7.106   3.244   0.931
 5021TIP3    H215009   7.080   3.387   0.972
 5022TIP3   OH215010   0.410   5.233   1.556
 5022TIP3    H115011   0.319   5.206   1.567
 5022TIP3    H215012   0.427   5.224   1.462
 5023TIP3   OH215013   2.303   3.283   5.385
 5023TIP3    H115014   2.320   3.318   5.473
 5023TIP3    H215015   2.265   3.357   5.337
 5024TIP3   OH215016   7.022   3.630   4.471
 5024TIP3    H115017   7.031   3.558   4.409
 5024TIP3    H215018   7.110   3.665   4.482
 5025TIP3   OH215019   2.248   0.598   1.879
 5025TIP3    H115020   2.236   0.586   1.785
 5025TIP3    H215021   2.204   0.523   1.919
 5026TIP3   OH215022   6.422   3.418   3.888
 5026TIP3    H115023   6.445   3.396   3.798
 5026TIP3    H215024   6.453   3.508   3.899
 5027TIP3   OH215025   2.054   4.716   4.303
 5027TIP3    H115026   2.072   4.651   4.235
 5027TIP3    H215027   1.998   4.671   4.366
 5028TIP3   OH215028   1.887   6.932   6.721
 5028TIP3    H115029   1.897   7.004   6.658
 5028TIP3    H215030   1.925   6.857   6.677
 5029TIP3   OH215031   1.024   6.255   1.299
 5029TIP3    H115032   1.041   6.305   1.378
 5029TIP3    H215033   1.064   6.170   1.314
 5030TIP3   OH215034   0.888   0.261   4.701
 5030TIP3    H115035   0.917   0.172   4.683
 5030TIP3    H215036   0.794   0.253   4.720
 5031TIP3   OH215037   5.417   2.634   4.483
 5031TIP3    H115038   5.386   2.676   4.402
 5031TIP3    H215039   5.512   2.630   4.472
 5032TIP3   OH215040   6.372   1.921   5.298
 5032TIP3    H115041   6.438   1.889   5.359
 5032TIP3    H215042   6.306   1.964   5.353
 5033TIP3   OH215043   3.568   6.988   2.193
 5033TIP3    H115044   3.524   6.969   2.111
 5033TIP3    H215045   3.593   7.080   2.187
 5034TIP3   OH215046   7.372   7.631   2.884
 5034TIP3    H115047   7.378   7.726   2.880
 5034TIP3    H215048   7.370   7.611   2.977
 5035TIP3   OH215049   7.822   7.063   3.277
 5035TIP3    H115050   7.916   7.059   3.259
 5035TIP3    H215051   7.815   7.047   3.371
 5036TIP3   OH215052   7.658   0.339   3.186
 5036TIP3    H115053   7.637   0.316   3.277
 5036TIP3    H215054   7.741   0.386   3.191
 5037TIP3   OH215055   5.921   5.434   2.696
 5037TIP3    H115056   5.891   5.358   2.647
 5037TIP3    H215057   5.843   5.463   2.744
 5038TIP3   OH215058   6.037   2.258   0.180
 5038TIP3    H115059   6.050   2.194   0.110
 5038TIP3    H215060   6.124   2.295   0.195
 5039TIP3   OH215061   3.188   3.865   1.918
 5039TIP3    H115062   3.139   3.783   1.920
 5039TIP3    H215063   3.228   3.871   2.005
 5040TIP3   OH215064   0.460   4.077   5.855
 5040TIP3    H115065   0.477   4.156   5.804
 5040TIP3    H215066   0.369   4.053   5.833
 5041TIP3   OH215067   7.796   0.654   2.199
 5041TIP3    H115068   7.864   0.703   2.244
 5041TIP3    H215069   7.813   0.562   2.220
 5042TIP3   OH215070   5.066   1.225   5.340
 5042TIP3    H115071   5.016   1.307   5.342
 5042TIP3    H215072   5.087   1.208   5.432
 5043TIP3   OH215073   4.801   6.750   1.059
 5043TIP3    H115074   4.720   6.787   1.095
 5043TIP3    H215075   4.808   6.664   1.100
 5044TIP3   OH215076   1.442   3.045   6.454
 5044TIP3    H115077   1.523   3.096   6.445
 5044TIP3    H215078   1.443   3.014   6.545
 5045TIP3   OH215079   6.696   6.681   5.277
 5045TIP3    H115080   6.790   6.693   5.290
 5045TIP3    H215081   6.655   6.743   5.338
 5046TIP3   OH215082   5.188   3.888   6.621
 5046TIP3    H115083   5.167   3.936   6.701
 5046TIP3    H215084   5.139   3.806   6.628
 5047TIP3   OH215085   7.026   0.954   5.071
 5047TIP3    H115086   6.991   0.902   4.999
 5047TIP3    H215087   7.050   0.890   5.137
 5048TIP3   OH215088   1.931   4.855   2.446
 5048TIP3    H115089   1.911   4.948   2.443
 5048TIP3    H215090   2.027   4.851   2.438
 5049TIP3   OH215091   4.524   1.403   5.854
 5049TIP3    H115092   4.468   1.325   5.850
 5049TIP3    H215093   4.471   1.473   5.815
 5050TIP3   OH215094   3.654   4.389   5.155
 5050TIP3    H115095   3.593   4.349   5.217
 5050TIP3    H215096   3.624   4.360   5.069
 5051TIP3   OH215097   4.400   5.087   3.302
 5051TIP3    H115098   4.430   5.149   3.368
 5051TIP3    H215099   4.352   5.140   3.239
 5052TIP3   OH215100   7.502   3.778   6.272
 5052TIP3    H115101   7.525   3.762   6.363
 5052TIP3    H215102   7.439   3.709   6.251
 5053TIP3   OH215103   1.678   4.893   6.058
 5053TIP3    H115104   1.637   4.881   5.972
 5053TIP3    H215105   1.683   4.988   6.069
 5054TIP3   OH215106   3.290   6.558   0.558
 5054TIP3    H115107   3.316   6.636   0.607
 5054TIP3    H215108   3.196   6.549   0.573
 5055TIP3   OH215109   7.325   3.787   1.827
 5055TIP3    H115110   7.235   3.762   1.848
 5055TIP3    H215111   7.319   3.875   1.792
 5056TIP3   OH215112   6.579   2.893   1.656
 5056TIP3    H115113   6.606   2.803   1.638
 5056TIP3    H215114   6.615   2.912   1.743
 5057TIP3   OH215115   3.341   4.551   0.275
 5057TIP3    H115116   3.292   4.620   0.230
 5057TIP3    H215117   3.305   4.470   0.240
 5058TIP3   OH215118   6.237   2.041   3.972
 5058TIP3    H115119   6.161   1.985   3.954
 5058TIP3    H215120   6.282   2.047   3.888
 5059TIP3   OH215121   2.733   0.393   5.900
 5059TIP3    H115122   2.682   0.313   5.884
 5059TIP3    H215123   2.818   0.375   5.859
 5060TIP3   OH215124   6.893   0.324   3.617
 5060TIP3    H115125   6.866   0.387   3.683
 5060TIP3    H215126   6.970   0.363   3.576
 5061TIP3   OH215127   3.032   0.350   0.630
 5061TIP3    H115128   2.966   0.290   0.666
 5061TIP3    H215129   3.109   0.296   0.616
 5062TIP3   OH215130   4.476   6.066   6.433
 5062TIP3    H115131   4.548   6.026   6.481
 5062TIP3    H215132   4.425   6.113   6.499
 5063TIP3   OH215133   0.398   0.433   2.182
 5063TIP3    H115134   0.333   0.367   2.156
 5063TIP3    H215135   0.355   0.483   2.251
 5064TIP3   OH215136   0.622   1.575   6.661
 5064TIP3    H115137   0.590   1.606   6.576
 5064TIP3    H215138   0.700   1.524   6.640
 5065TIP3   OH215139   3.242   6.574   0.225
 5065TIP3    H115140   3.296   6.495   0.220
 5065TIP3    H215141   3.277   6.631   0.156
 5066TIP3   OH215142   7.620   5.866   3.011
 5066TIP3    H115143   7.675   5.941   2.987
 5066TIP3    H215144   7.641   5.849   3.103
 5067TIP3   OH215145   4.840   6.737   0.282
 5067TIP3    H115146   4.764   6.710   0.333
 5067TIP3    H215147   4.873   6.815   0.327
 5068TIP3   OH215148   6.439   7.140   5.041
 5068TIP3    H115149   6.352   7.148   5.081
 5068TIP3    H215150   6.493   7.098   5.107
 5069TIP3   OH215151   7.915   1.028   6.362
 5069TIP3    H115152   7.944   1.093   6.299
 5069TIP3    H215153   7.885   0.954   6.309
 5070TIP3   OH215154   6.854   5.290   1.807
 5070TIP3    H115155   6.814   5.299   1.893
 5070TIP3    H215156   6.783   5.258   1.751
 5071TIP3   OH215157   6.922   1.796   5.258
 5071TIP3    H115158   6.940   1.842   5.340
 5071TIP3    H215159   6.902   1.706   5.284
 5072TIP3   OH215160   1.896   0.691   6.247
 5072TIP3    H115161   1.866   0.781   6.259
 5072TIP3    H215162   1.917   0.661   6.336
 5073TIP3   OH215163   2.870   3.797   1.857
 5073TIP3    H115164   2.900   3.735   1.923
 5073TIP3    H215165   2.830   3.744   1.789
 5074TIP3   OH215166   2.364   2.437   2.188
 5074TIP3    H115167   2.403   2.353   2.213
 5074TIP3    H215168   2.382   2.495   2.262
 5075TIP3   OH215169   4.173   5.620   4.512
 5075TIP3    H115170   4.113   5.550   4.487
 5075TIP3    H215171   4.204   5.596   4.599
 5076TIP3   OH215172   1.074   0.852   6.667
 5076TIP3    H115173   1.043   0.817   6.751
 5076TIP3    H215174   1.104   0.775   6.619
 5077TIP3   OH215175   3.819   0.898   0.785
 5077TIP3    H115176   3.792   0.806   0.787
 5077TIP3    H215177   3.859   0.910   0.699
 5078TIP3   OH215178   3.493   0.826   4.750
 5078TIP3    H115179   3.563   0.792   4.695
 5078TIP3    H215180   3.486   0.919   4.726
 5079TIP3   OH215181   2.670   0.858   2.307
 5079TIP3    H115182   2.598   0.877   2.367
 5079TIP3    H215183   2.748   0.861   2.362
 5080TIP3   OH215184   7.054   3.602   0.029
 5080TIP3    H115185   7.094   3.570   0.109
 5080TIP3    H215186   7.108   3.677   0.003
 5081TIP3   OH215187   6.121   6.520   6.651
 5081TIP3    H115188   6.044   6.473   6.619
 5081TIP3    H215189   6.092   6.560   6.733
 5082TIP3   OH215190   5.375   0.074   5.767
 5082TIP3    H115191   5.373   0.170   5.765
 5082TIP3    H215192   5.315   0.047   5.697
 5083TIP3   OH215193   5.730   5.769   4.630
 5083TIP3    H115194   5.697   5.695   4.682
 5083TIP3    H215195   5.804   5.802   4.681
 5084TIP3   OH215196   5.952   3.907   3.949
 5084TIP3    H115197   5.929   3.930   4.039
 5084TIP3    H215198   5.950   3.991   3.901
 5085TIP3   OH215199   0.243   6.852   0.212
 5085TIP3    H115200   0.189   6.856   0.133
 5085TIP3    H215201   0.220   6.769   0.253
 5086TIP3   OH215202   2.075   2.933   0.606
 5086TIP3    H115203   2.114   2.847   0.620
 5086TIP3    H215204   2.003   2.918   0.545
 5087TIP3   OH215205   7.034   6.487   5.771
 5087TIP3    H115206   7.029   6.509   5.864
 5087TIP3    H215207   7.016   6.393   5.769
 5088TIP3   OH215208   3.891   0.753   2.206
 5088TIP3    H115209   3.798   0.772   2.210
 5088TIP3    H215210   3.897   0.662   2.177
 5089TIP3   OH215211   5.063   6.746   1.675
 5089TIP3    H115212   5.049   6.763   1.768
 5089TIP3    H215213   5.131   6.808   1.649
 5090TIP3   OH215214   6.100   5.995   0.348
 5090TIP3    H115215   6.138   5.907   0.346
 5090TIP3    H215216   6.093   6.020   0.255
 5091TIP3   OH215217   4.744   0.300   1.362
 5091TIP3    H115218   4.694   0.317   1.282
 5091TIP3    H215219   4.831   0.276   1.332
 5092TIP3   OH215220   4.534   2.460   0.999
 5092TIP3    H115221   4.603   2.523   0.982
 5092TIP3    H215222   4.484   2.499   1.072
 5093TIP3   OH215223   0.302   3.335   1.678
 5093TIP3    H115224   0.268   3.391   1.607
 5093TIP3    H215225   0.307   3.248   1.639
 5094TIP3   OH215226   1.092   3.276   0.971
 5094TIP3    H115227   1.007   3.264   0.929
 5094TIP3    H215228   1.146   3.205   0.936
 5095TIP3   OH215229   5.395   1.074   0.039
 5095TIP3    H115230   5.485   1.077   0.007
 5095TIP3    H215231   5.402   1.090   0.133
 5096TIP3   OH215232   2.045   0.110   1.552
 5096TIP3    H115233   2.048   0.125   1.458
 5096TIP3    H215234   2.029   0.197   1.590
 5097TIP3   OH215235   1.788   6.130   5.762
 5097TIP3    H115236   1.837   6.187   5.703
 5097TIP3    H215237   1.704   6.173   5.773
 5098TIP3   OH215238   4.002   5.951   5.541
 5098TIP3    H115239   4.033   5.908   5.461
 5098TIP3    H215240   3.906   5.947   5.534
 5099TIP3   OH215241   7.971   2.092   2.580
 5099TIP3    H115242   7.972   2.098   2.676
 5099TIP3    H215243   8.045   2.035   2.559
 5100TIP3   OH215244   0.211   2.668   0.423
 5100TIP3    H115245   0.201   2.616   0.502
 5100TIP3    H215246   0.162   2.621   0.356
 5101TIP3   OH215247   2.771   6.018   3.953
 5101TIP3    H115248   2.782   6.014   4.048
 5101TIP3    H215249   2.825   5.946   3.920
 5102TIP3   OH215250   2.202   3.516   4.659
 5102TIP3    H115251   2.191   3.553   4.747
 5102TIP3    H215252   2.121   3.537   4.614
 5103TIP3   OH215253   5.629   2.519   5.856
 5103TIP3    H115254   5.685   2.573   5.800
 5103TIP3    H215255   5.690   2.470   5.911
 5104TIP3   OH215256   6.417   5.766   6.126
 5104TIP3    H115257   6.334   5.761   6.079
 5104TIP3    H215258   6.393   5.761   6.219
 5105TIP3   OH215259   5.293   5.290   1.098
 5105TIP3    H115260   5.332   5.208   1.066
 5105TIP3    H215261   5.205   5.291   1.060
 5106TIP3   OH215262   2.295   4.829   1.449
 5106TIP3    H115263   2.246   4.748   1.435
 5106TIP3    H215264   2.269   4.885   1.375
 5107TIP3   OH215265   7.645   4.096   0.762
 5107TIP3    H115266   7.713   4.040   0.726
 5107TIP3    H215267   7.606   4.140   0.686
 5108TIP3   OH215268   3.041   5.332   1.678
 5108TIP3    H115269   3.012   5.336   1.587
 5108TIP3    H215270   3.008   5.412   1.718
 5109TIP3   OH215271   3.591   5.074   5.830
 5109TIP3    H115272   3.648   5.008   5.792
 5109TIP3    H215273   3.509   5.068   5.781
 5110TIP3   OH215274   5.757   3.499   2.664
 5110TIP3    H115275   5.845   3.471   2.638
 5110TIP3    H215276   5.771   3.545   2.747
 5111TIP3   OH215277   1.887   7.238   2.474
 5111TIP3    H115278   1.804   7.191   2.478
 5111TIP3    H215279   1.878   7.298   2.400
 5112TIP3   OH215280   7.402   1.104   6.506
 5112TIP3    H115281   7.469   1.103   6.438
 5112TIP3    H215282   7.350   1.182   6.487
 5113TIP3   OH215283   7.443   2.740   2.393
 5113TIP3    H115284   7.503   2.672   2.424
 5113TIP3    H215285   7.399   2.771   2.472
 5114TIP3   OH215286   1.496   0.659   0.866
 5114TIP3    H115287   1.576   0.700   0.898
 5114TIP3    H215288   1.522   0.570   0.843
 5115TIP3   OH215289   0.675   2.022   3.063
 5115TIP3    H115290   0.731   1.958   3.019
 5115TIP3    H215291   0.645   2.080   2.993
 5116TIP3   OH215292   2.586   1.684   4.742
 5116TIP3    H115293   2.544   1.637   4.815
 5116TIP3    H215294   2.669   1.640   4.730
 5117TIP3   OH215295   8.269   1.352   1.375
 5117TIP3    H115296   8.226   1.422   1.424
 5117TIP3    H215297   8.301   1.292   1.443
 5118TIP3   OH215298   7.846   3.892   0.226
 5118TIP3    H115299   7.804   3.945   0.158
 5118TIP3    H215300   7.867   3.954   0.296
 5119TIP3   OH215301   2.219   4.320   4.691
 5119TIP3    H115302   2.270   4.348   4.767
 5119TIP3    H215303   2.183   4.401   4.656
 5120TIP3   OH215304   1.107   0.679   6.186
 5120TIP3    H115305   1.155   0.606   6.146
 5120TIP3    H215306   1.173   0.746   6.202
 5121TIP3   OH215307   4.868   6.816   2.428
 5121TIP3    H115308   4.785   6.795   2.385
 5121TIP3    H215309   4.863   6.909   2.446
 5122TIP3   OH215310   5.520   6.089   2.572
 5122TIP3    H115311   5.510   6.073   2.478
 5122TIP3    H215312   5.508   6.003   2.612
 5123TIP3   OH215313   5.446   7.533   4.363
 5123TIP3    H115314   5.489   7.592   4.425
 5123TIP3    H215315   5.384   7.484   4.417
 5124TIP3   OH215316   6.282   3.188   2.581
 5124TIP3    H115317   6.262   3.277   2.609
 5124TIP3    H215318   6.378   3.184   2.582
 5125TIP3   OH215319   4.543   2.563   0.592
 5125TIP3    H115320   4.566   2.585   0.502
 5125TIP3    H215321   4.523   2.470   0.590
 5126TIP3   OH215322   4.747   0.305   2.150
 5126TIP3    H115323   4.717   0.374   2.090
 5126TIP3    H215324   4.843   0.311   2.147
 5127TIP3   OH215325   6.147   4.948   6.738
 5127TIP3    H115326   6.227   4.896   6.733
 5127TIP3    H215327   6.175   5.038   6.720
 5128TIP3   OH215328   1.690   0.315   4.734
 5128TIP3    H115329   1.599   0.310   4.762
 5128TIP3    H215330   1.708   0.230   4.694
 5129TIP3   OH215331   4.965   1.362   4.410
 5129TIP3    H115332   5.001   1.334   4.325
 5129TIP3    H215333   4.872   1.373   4.394
 5130TIP3   OH215334   0.814   6.556   4.955
 5130TIP3    H115335   0.817   6.557   5.051
 5130TIP3    H215336   0.723   6.535   4.934
 5131TIP3   OH215337   5.950   0.793   4.810
 5131TIP3    H115338   5.966   0.753   4.725
 5131TIP3    H215339   6.014   0.865   4.815
 5132TIP3   OH215340   7.954   6.312   6.467
 5132TIP3    H115341   8.010   6.353   6.401
 5132TIP3    H215342   7.880   6.276   6.418
 5133TIP3   OH215343   5.585   4.446   6.069
 5133TIP3    H115344   5.660   4.430   6.126
 5133TIP3    H215345   5.574   4.541   6.069
 5134TIP3   OH215346   3.316   6.896   3.251
 5134TIP3    H115347   3.403   6.887   3.288
 5134TIP3    H215348   3.323   6.971   3.192
 5135TIP3   OH215349   6.016   3.649   4.736
 5135TIP3    H115350   6.097   3.606   4.764
 5135TIP3    H215351   5.952   3.625   4.803
 5136TIP3   OH215352   1.027   6.935   6.501
 5136TIP3    H115353   1.107   6.953   6.551
 5136TIP3    H215354   1.059   6.910   6.414
 5137TIP3   OH215355   4.916   4.637   2.724
 5137TIP3    H115356   4.863   4.682   2.790
 5137TIP3    H215357   4.897   4.685   2.643
 5138TIP3   OH215358   5.672   3.636   3.710
 5138TIP3    H115359   5.680   3.732   3.716
 5138TIP3    H215360   5.747   3.603   3.760
 5139TIP3   OH215361   7.632   1.468   3.186
 5139TIP3    H115362   7.653   1.385   3.227
 5139TIP3    H215363   7.565   1.507   3.242
 5140TIP3   OH215364   3.180   5.897   4.448
 5140TIP3    H115365   3.200   5.806   4.425
 5140TIP3    H215366   3.165   5.940   4.364
 5141TIP3   OH215367   6.776   1.995   5.615
 5141TIP3    H115368   6.699   1.939   5.601
 5141TIP3    H215369   6.790   2.036   5.530
 5142TIP3   OH215370   0.296   5.613   6.596
 5142TIP3    H115371   0.203   5.589   6.600
 5142TIP3    H215372   0.312   5.627   6.502
 5143TIP3   OH215373   7.762   3.576   2.748
 5143TIP3    H115374   7.821   3.622   2.689
 5143TIP3    H215375   7.701   3.643   2.779
 5144TIP3   OH215376   3.624   7.071   2.910
 5144TIP3    H115377   3.583   7.128   2.844
 5144TIP3    H215378   3.553   7.048   2.970
 5145TIP3   OH215379   8.320   5.124   0.795
 5145TIP3    H115380   8.370   5.177   0.733
 5145TIP3    H215381   8.273   5.061   0.741
 5146TIP3   OH215382   1.989   6.552   0.863
 5146TIP3    H115383   2.014   6.460   0.854
 5146TIP3    H215384   2.009   6.574   0.955
 5147TIP3   OH215385   2.577   2.683   4.587
 5147TIP3    H115386   2.673   2.680   4.585
 5147TIP3    H215387   2.552   2.593   4.608
 5148TIP3   OH215388   1.048   3.706   1.447
 5148TIP3    H115389   1.132   3.661   1.439
 5148TIP3    H215390   1.006   3.693   1.362
 5149TIP3   OH215391   3.852   7.601   0.268
 5149TIP3    H115392   3.773   7.631   0.313
 5149TIP3    H215393   3.898   7.548   0.333
 5150TIP3   OH215394   2.520   0.227   3.027
 5150TIP3    H115395   2.579   0.263   3.092
 5150TIP3    H215396   2.434   0.263   3.049
 5151TIP3   OH215397   8.229   2.917   2.588
 5151TIP3    H115398   8.241   2.891   2.679
 5151TIP3    H215399   8.134   2.926   2.578
 5152TIP3   OH215400   5.256   2.638   3.086
 5152TIP3    H115401   5.315   2.696   3.039
 5152TIP3    H215402   5.225   2.576   3.019
 5153TIP3   OH215403   1.085   5.806   4.072
 5153TIP3    H115404   1.012   5.809   4.010
 5153TIP3    H215405   1.124   5.719   4.059
 5154TIP3   OH215406   3.336   2.932   3.853
 5154TIP3    H115407   3.243   2.917   3.842
 5154TIP3    H215408   3.342   2.985   3.932
 5155TIP3   OH215409   4.694   1.817   3.304
 5155TIP3    H115410   4.766   1.795   3.245
 5155TIP3    H215411   4.702   1.755   3.376
 5156TIP3   OH215412   6.075   5.171   2.575
 5156TIP3    H115413   6.106   5.202   2.660
 5156TIP3    H215414   6.049   5.080   2.591
 5157TIP3   OH215415   6.030   7.763   5.799
 5157TIP3    H115416   6.066   7.753   5.711
 5157TIP3    H215417   6.075   7.840   5.834
 5158TIP3   OH215418   2.811   7.058   6.423
 5158TIP3    H115419   2.739   7.025   6.477
 5158TIP3    H215420   2.777   7.138   6.382
 5159TIP3   OH215421   2.438   4.311   2.680
 5159TIP3    H115422   2.478   4.312   2.593
 5159TIP3    H215423   2.503   4.350   2.737
 5160TIP3   OH215424   5.787   7.537   3.474
 5160TIP3    H115425   5.854   7.589   3.430
 5160TIP3    H215426   5.822   7.448   3.473
 5161TIP3   OH215427   1.460   6.256   1.699
 5161TIP3    H115428   1.500   6.203   1.768
 5161TIP3    H215429   1.412   6.324   1.746
 5162TIP3   OH215430   1.076   3.785   0.172
 5162TIP3    H115431   1.111   3.782   0.260
 5162TIP3    H215432   1.151   3.806   0.116
 5163TIP3   OH215433   1.106   5.536   1.809
 5163TIP3    H115434   1.022   5.490   1.814
 5163TIP3    H215435   1.159   5.481   1.751
 5164TIP3   OH215436   6.063   0.685   6.106
 5164TIP3    H115437   6.090   0.600   6.072
 5164TIP3    H215438   6.144   0.725   6.137
 5165TIP3   OH215439   7.902   1.507   5.305
 5165TIP3    H115440   7.815   1.546   5.302
 5165TIP3    H215441   7.913   1.479   5.396
 5166TIP3   OH215442   5.728   3.222   5.192
 5166TIP3    H115443   5.800   3.219   5.129
 5166TIP3    H215444   5.770   3.223   5.277
 5167TIP3   OH215445   0.164   0.123   4.381
 5167TIP3    H115446   0.204   0.161   4.302
 5167TIP3    H215447   0.185   0.185   4.451
 5168TIP3   OH215448   1.048   5.315   4.744
 5168TIP3    H115449   1.100   5.238   4.768
 5168TIP3    H215450   0.962   5.280   4.722
 5169TIP3   OH215451   7.125   5.132   2.818
 5169TIP3    H115452   7.138   5.136   2.913
 5169TIP3    H215453   7.211   5.154   2.781
 5170TIP3   OH215454   1.876   2.176   4.667
 5170TIP3    H115455   1.954   2.228   4.649
 5170TIP3    H215456   1.805   2.239   4.669
 5171TIP3   OH215457   1.632   5.644   5.934
 5171TIP3    H115458   1.700   5.651   6.001
 5171TIP3    H215459   1.593   5.558   5.949
 5172TIP3   OH215460   5.713   5.115   2.657
 5172TIP3    H115461   5.656   5.192   2.656
 5172TIP3    H215462   5.764   5.125   2.738
 5173TIP3   OH215463   3.831   5.108   6.379
 5173TIP3    H115464   3.843   5.151   6.295
 5173TIP3    H215465   3.794   5.176   6.436
 5174TIP3   OH215466   2.021   1.412   0.443
 5174TIP3    H115467   2.019   1.444   0.353
 5174TIP3    H215468   2.114   1.409   0.466
 5175TIP3   OH215469   7.041   6.687   4.395
 5175TIP3    H115470   7.033   6.629   4.470
 5175TIP3    H215471   7.088   6.763   4.429
 5176TIP3   OH215472   3.435   4.970   1.284
 5176TIP3    H115473   3.367   4.907   1.263
 5176TIP3    H215474   3.483   4.931   1.357
 5177TIP3   OH215475   6.859   6.461   4.940
 5177TIP3    H115476   6.929   6.445   4.877
 5177TIP3    H215477   6.780   6.429   4.897
 5178TIP3   OH215478   0.150   1.334   6.640
 5178TIP3    H115479   0.150   1.429   6.650
 5178TIP3    H215480   0.084   1.318   6.573
 5179TIP3   OH215481   2.382   3.155   4.419
 5179TIP3    H115482   2.302   3.108   4.396
 5179TIP3    H215483   2.371   3.179   4.511
 5180TIP3   OH215484   6.914   6.435   3.025
 5180TIP3    H115485   6.920   6.339   3.032
 5180TIP3    H215486   6.983   6.459   2.964
 5181TIP3   OH215487   1.017   3.600   2.199
 5181TIP3    H115488   0.956   3.576   2.269
 5181TIP3    H215489   1.103   3.579   2.233
 5182TIP3   OH215490   7.834   2.744   6.513
 5182TIP3    H115491   7.927   2.751   6.490
 5182TIP3    H215492   7.817   2.650   6.516
 5183TIP3   OH215493   7.033   5.984   0.188
 5183TIP3    H115494   6.989   6.069   0.178
 5183TIP3    H215495   7.077   5.970   0.104
 5184TIP3   OH215496   7.117   7.537   0.209
 5184TIP3    H115497   7.058   7.463   0.195
 5184TIP3    H215498   7.151   7.557   0.122
 5185TIP3   OH215499   2.200   0.334   2.218
 5185TIP3    H115500   2.243   0.417   2.238
 5185TIP3    H215501   2.246   0.269   2.271
 5186TIP3   OH215502   2.431   5.653   1.327
 5186TIP3    H115503   2.449   5.605   1.407
 5186TIP3    H215504   2.507   5.710   1.315
 5187TIP3   OH215505   3.700   7.567   1.987
 5187TIP3    H115506   3.746   7.546   1.905
 5187TIP3    H215507   3.627   7.506   1.989
 5188TIP3   OH215508   6.735   3.428   4.600
 5188TIP3    H115509   6.805   3.415   4.535
 5188TIP3    H215510   6.663   3.372   4.569
 5189TIP3   OH215511   5.650   0.074   0.741
 5189TIP3    H115512   5.555   0.061   0.735
 5189TIP3    H215513   5.660   0.148   0.801
 5190TIP3   OH215514   0.167   1.399   2.015
 5190TIP3    H115515   0.148   1.307   2.030
 5190TIP3    H215516   0.254   1.400   1.976
 5191TIP3   OH215517   2.779   6.146   2.109
 5191TIP3    H115518   2.759   6.209   2.039
 5191TIP3    H215519   2.846   6.189   2.162
 5192TIP3   OH215520   6.241   1.877   2.889
 5192TIP3    H115521   6.239   1.872   2.985
 5192TIP3    H215522   6.201   1.795   2.860
 5193TIP3   OH215523   4.202   4.162   3.859
 5193TIP3    H115524   4.291   4.137   3.883
 5193TIP3    H215525   4.167   4.084   3.815
 5194TIP3   OH215526   1.874   4.012   5.930
 5194TIP3    H115527   1.797   4.064   5.909
 5194TIP3    H215528   1.871   4.002   6.025
 5195TIP3   OH215529   6.479   4.363   1.796
 5195TIP3    H115530   6.543   4.304   1.756
 5195TIP3    H215531   6.502   4.364   1.889
 5196TIP3   OH215532   4.263   2.706   4.100
 5196TIP3    H115533   4.264   2.612   4.116
 5196TIP3    H215534   4.177   2.735   4.129
 5197TIP3   OH215535   6.980   1.343   6.259
 5197TIP3    H115536   7.034   1.276   6.217
 5197TIP3    H215537   7.012   1.426   6.222
 5198TIP3   OH215538   1.813   2.507   4.632
 5198TIP3    H115539   1.781   2.489   4.720
 5198TIP3    H215540   1.897   2.463   4.627
 5199TIP3   OH215541   4.205   5.265   4.465
 5199TIP3    H115542   4.158   5.264   4.382
 5199TIP3    H215543   4.148   5.314   4.524
 5200TIP3   OH215544   4.462   5.884   5.322
 5200TIP3    H115545   4.524   5.952   5.349
 5200TIP3    H215546   4.490   5.860   5.233
 5201TIP3   OH215547   7.040   6.992   3.792
 5201TIP3    H115548   7.113   6.938   3.823
 5201TIP3    H215549   7.051   6.995   3.697
 5202TIP3   OH215550   6.577   2.967   2.208
 5202TIP3    H115551   6.641   2.920   2.262
 5202TIP3    H215552   6.555   3.045   2.259
 5203TIP3   OH215553   1.456   0.600   2.572
 5203TIP3    H115554   1.469   0.547   2.494
 5203TIP3    H215555   1.465   0.538   2.645
 5204TIP3   OH215556   2.299   2.364   2.805
 5204TIP3    H115557   2.360   2.365   2.732
 5204TIP3    H215558   2.235   2.432   2.785
 5205TIP3   OH215559   5.644   1.692   1.186
 5205TIP3    H115560   5.632   1.606   1.147
 5205TIP3    H215561   5.684   1.674   1.271
 5206TIP3   OH215562   7.889   7.178   3.583
 5206TIP3    H115563   7.969   7.194   3.533
 5206TIP3    H215564   7.878   7.083   3.581
 5207TIP3   OH215565   7.917   1.167   5.739
 5207TIP3    H115566   7.956   1.199   5.657
 5207TIP3    H215567   7.985   1.113   5.779
 5208TIP3   OH215568   7.718   0.505   1.201
 5208TIP3    H115569   7.688   0.426   1.157
 5208TIP3    H215570   7.808   0.486   1.227
 5209TIP3   OH215571   4.719   5.696   2.828
 5209TIP3    H115572   4.801   5.705   2.780
 5209TIP3    H215573   4.743   5.652   2.910
 5210TIP3   OH215574   6.609   5.286   5.798
 5210TIP3    H115575   6.588   5.207   5.847
 5210TIP3    H215576   6.527   5.308   5.752
 5211TIP3   OH215577   6.701   7.143   3.561
 5211TIP3    H115578   6.671   7.221   3.515
 5211TIP3    H215579   6.729   7.175   3.647
 5212TIP3   OH215580   2.456   4.855   0.178
 5212TIP3    H115581   2.464   4.907   0.098
 5212TIP3    H215582   2.536   4.874   0.227
 5213TIP3   OH215583   4.900   5.233   3.673
 5213TIP3    H115584   4.908   5.281   3.755
 5213TIP3    H215585   4.973   5.172   3.673
 5214TIP3   OH215586   0.385   1.644   5.639
 5214TIP3    H115587   0.375   1.641   5.734
 5214TIP3    H215588   0.296   1.654   5.606
 5215TIP3   OH215589   8.177   7.601   6.365
 5215TIP3    H115590   8.191   7.694   6.382
 5215TIP3    H215591   8.237   7.581   6.293
 5216TIP3   OH215592   6.986   5.696   0.521
 5216TIP3    H115593   6.929   5.771   0.507
 5216TIP3    H215594   7.054   5.704   0.454
 5217TIP3   OH215595   1.363   6.049   0.340
 5217TIP3    H115596   1.428   6.115   0.319
 5217TIP3    H215597   1.404   5.966   0.316
 5218TIP3   OH215598   0.260   4.012   4.366
 5218TIP3    H115599   0.348   4.042   4.391
 5218TIP3    H215600   0.215   3.998   4.449
 5219TIP3   OH215601   6.308   1.351   1.474
 5219TIP3    H115602   6.282   1.443   1.467
 5219TIP3    H215603   6.228   1.305   1.500
 5220TIP3   OH215604   3.303   3.247   0.604
 5220TIP3    H115605   3.244   3.298   0.659
 5220TIP3    H215606   3.385   3.296   0.604
 5221TIP3   OH215607   2.361   7.095   6.343
 5221TIP3    H115608   2.378   7.075   6.251
 5221TIP3    H215609   2.399   7.182   6.356
 5222TIP3   OH215610   6.499   0.826   2.359
 5222TIP3    H115611   6.409   0.802   2.338
 5222TIP3    H215612   6.524   0.888   2.290
 5223TIP3   OH215613   1.875   5.874   5.423
 5223TIP3    H115614   1.954   5.854   5.473
 5223TIP3    H215615   1.903   5.941   5.361
 5224TIP3   OH215616   7.706   6.979   1.298
 5224TIP3    H115617   7.713   7.074   1.295
 5224TIP3    H215618   7.784   6.951   1.346
 5225TIP3   OH215619   7.496   6.910   2.906
 5225TIP3    H115620   7.556   6.838   2.928
 5225TIP3    H215621   7.553   6.985   2.891
 5226TIP3   OH215622   1.892   1.987   2.645
 5226TIP3    H115623   1.881   2.070   2.691
 5226TIP3    H215624   1.955   1.938   2.698
 5227TIP3   OH215625   6.025   6.537   4.778
 5227TIP3    H115626   5.930   6.548   4.786
 5227TIP3    H215627   6.058   6.543   4.868
 5228TIP3   OH215628   2.901   5.474   0.847
 5228TIP3    H115629   2.914   5.519   0.931
 5228TIP3    H215630   2.945   5.530   0.783
 5229TIP3   OH215631   3.103   7.757   3.828
 5229TIP3    H115632   3.081   7.833   3.881
 5229TIP3    H215633   3.083   7.784   3.738
 5230TIP3   OH215634   2.618   7.062   1.664
 5230TIP3    H115635   2.584   7.053   1.575
 5230TIP3    H215636   2.703   7.103   1.653
 5231TIP3   OH215637   5.606   1.939   2.904
 5231TIP3    H115638   5.664   2.004   2.943
 5231TIP3    H215639   5.590   1.875   2.973
 5232TIP3   OH215640   6.807   0.420   4.796
 5232TIP3    H115641   6.734   0.380   4.843
 5232TIP3    H215642   6.767   0.457   4.717
 5233TIP3   OH215643   6.363   3.255   1.324
 5233TIP3    H115644   6.305   3.324   1.293
 5233TIP3    H215645   6.356   3.259   1.420
 5234TIP3   OH215646   2.429   3.902   6.418
 5234TIP3    H115647   2.488   3.888   6.492
 5234TIP3    H215648   2.476   3.965   6.362
 5235TIP3   OH215649   1.375   0.693   4.255
 5235TIP3    H115650   1.297   0.680   4.308
 5235TIP3    H215651   1.350   0.757   4.189
 5236TIP3   OH215652   3.408   1.521   6.408
 5236TIP3    H115653   3.343   1.552   6.345
 5236TIP3    H215654   3.487   1.570   6.387
 5237TIP3   OH215655   0.131   1.118   6.257
 5237TIP3    H115656   0.115   1.144   6.166
 5237TIP3    H215657   0.203   1.055   6.252
 5238TIP3   OH215658   2.360   2.614   5.090
 5238TIP3    H115659   2.431   2.649   5.037
 5238TIP3    H215660   2.326   2.690   5.138
 5239TIP3   OH215661   7.994   5.125   6.165
 5239TIP3    H115662   8.054   5.176   6.110
 5239TIP3    H215663   8.006   5.035   6.137
 5240TIP3   OH215664   5.383   0.751   2.505
 5240TIP3    H115665   5.417   0.697   2.434
 5240TIP3    H215666   5.342   0.688   2.565
 5241TIP3   OH215667   3.353   5.250   3.288
 5241TIP3    H115668   3.307   5.169   3.266
 5241TIP3    H215669   3.346   5.257   3.383
 5242TIP3   OH215670   7.708   3.412   5.812
 5242TIP3    H115671   7.760   3.427   5.891
 5242TIP3    H215672   7.681   3.499   5.785
 5243TIP3   OH215673   3.346   1.551   0.553
 5243TIP3    H115674   3.339   1.536   0.458
 5243TIP3    H215675   3.336   1.465   0.592
 5244TIP3   OH215676   7.580   2.762   3.855
 5244TIP3    H115677   7.573   2.823   3.928
 5244TIP3    H215678   7.568   2.676   3.894
 5245TIP3   OH215679   3.934   7.470   1.777
 5245TIP3    H115680   3.852   7.423   1.760
 5245TIP3    H215681   3.996   7.431   1.715
 5246TIP3   OH215682   2.881   3.913   3.494
 5246TIP3    H115683   2.899   3.995   3.448
 5246TIP3    H215684   2.793   3.925   3.531
 5247TIP3   OH215685   0.543   5.466   6.642
 5247TIP3    H115686   0.470   5.523   6.620
 5247TIP3    H215687   0.554   5.410   6.566
 5248TIP3   OH215688   1.531   0.314   4.453
 5248TIP3    H115689   1.450   0.281   4.492
 5248TIP3    H215690   1.559   0.385   4.510
 5249TIP3   OH215691   5.978   5.521   1.176
 5249TIP3    H115692   5.919   5.471   1.119
 5249TIP3    H215693   5.922   5.554   1.246
 5250TIP3   OH215694   3.351   1.736   5.177
 5250TIP3    H115695   3.430   1.783   5.152
 5250TIP3    H215696   3.381   1.665   5.233
 5251TIP3   OH215697   4.448   4.923   4.694
 5251TIP3    H115698   4.471   4.914   4.601
 5251TIP3    H215699   4.381   4.991   4.695
 5252TIP3   OH215700   0.105   5.756   3.465
 5252TIP3    H115701   0.163   5.782   3.536
 5252TIP3    H215702   0.084   5.664   3.485
 5253TIP3   OH215703   8.140   2.138   2.131
 5253TIP3    H115704   8.217   2.085   2.149
 5253TIP3    H215705   8.167   2.227   2.150
 5254TIP3   OH215706   1.276   7.188   4.286
 5254TIP3    H115707   1.259   7.216   4.196
 5254TIP3    H215708   1.213   7.118   4.302
 5255TIP3   OH215709   6.732   3.621   3.900
 5255TIP3    H115710   6.729   3.704   3.948
 5255TIP3    H215711   6.677   3.636   3.823
 5256TIP3   OH215712   1.803   4.350   1.277
 5256TIP3    H115713   1.884   4.311   1.244
 5256TIP3    H215714   1.802   4.438   1.238
 5257TIP3   OH215715   6.879   1.416   0.857
 5257TIP3    H115716   6.905   1.483   0.794
 5257TIP3    H215717   6.914   1.447   0.941
 5258TIP3   OH215718   5.426   3.473   4.311
 5258TIP3    H115719   5.514   3.489   4.346
 5258TIP3    H215720   5.379   3.430   4.383
 5259TIP3   OH215721   7.260   3.276   2.108
 5259TIP3    H115722   7.309   3.321   2.040
 5259TIP3    H215723   7.291   3.315   2.190
 5260TIP3   OH215724   5.131   3.720   4.900
 5260TIP3    H115725   5.136   3.771   4.980
 5260TIP3    H215726   5.119   3.786   4.831
 5261TIP3   OH215727   4.945   6.423   1.192
 5261TIP3    H115728   4.969   6.338   1.156
 5261TIP3    H215729   5.007   6.484   1.153
 5262TIP3   OH215730   5.314   5.427   6.288
 5262TIP3    H115731   5.371   5.369   6.239
 5262TIP3    H215732   5.260   5.470   6.222
 5263TIP3   OH215733   2.760   5.728   0.972
 5263TIP3    H115734   2.724   5.644   0.945
 5263TIP3    H215735   2.739   5.735   1.065
 5264TIP3   OH215736   0.271   7.521   5.537
 5264TIP3    H115737   0.281   7.496   5.629
 5264TIP3    H215738   0.348   7.483   5.494
 5265TIP3   OH215739   2.628   2.847   0.239
 5265TIP3    H115740   2.664   2.918   0.187
 5265TIP3    H215741   2.667   2.858   0.325
 5266TIP3   OH215742   1.513   5.852   0.135
 5266TIP3    H115743   1.521   5.917   0.065
 5266TIP3    H215744   1.526   5.768   0.090
 5267TIP3   OH215745   5.363   7.262   5.184
 5267TIP3    H115746   5.434   7.315   5.220
 5267TIP3    H215747   5.307   7.244   5.259
 5268TIP3   OH215748   7.625   4.395   5.316
 5268TIP3    H115749   7.651   4.304   5.330
 5268TIP3    H215750   7.622   4.404   5.221
 5269TIP3   OH215751   6.009   7.620   0.803
 5269TIP3    H115752   6.002   7.708   0.841
 5269TIP3    H215753   5.925   7.579   0.823
 5270TIP3   OH215754   0.770   0.542   0.621
 5270TIP3    H115755   0.830   0.607   0.657
 5270TIP3    H215756   0.711   0.521   0.693
 5271TIP3   OH215757   6.651   2.720   3.246
 5271TIP3    H115758   6.619   2.661   3.178
 5271TIP3    H215759   6.699   2.788   3.199
 5272TIP3   OH215760   7.497   2.771   3.076
 5272TIP3    H115761   7.547   2.774   2.994
 5272TIP3    H215762   7.410   2.743   3.050
 5273TIP3   OH215763   0.253   7.200   0.123
 5273TIP3    H115764   0.258   7.234   0.034
 5273TIP3    H215765   0.163   7.219   0.151
 5274TIP3   OH215766   7.021   5.566   0.936
 5274TIP3    H115767   7.102   5.572   0.884
 5274TIP3    H215768   7.033   5.631   1.005
 5275TIP3   OH215769   8.048   5.369   3.843
 5275TIP3    H115770   8.083   5.299   3.897
 5275TIP3    H215771   8.083   5.449   3.881
 5276TIP3   OH215772   2.987   5.253   1.052
 5276TIP3    H115773   3.053   5.195   1.012
 5276TIP3    H215774   3.025   5.340   1.046
 5277TIP3   OH215775   5.337   0.058   6.402
 5277TIP3    H115776   5.298   0.118   6.465
 5277TIP3    H215777   5.392   0.000   6.455
 5278TIP3   OH215778   3.917   0.546   3.239
 5278TIP3    H115779   3.911   0.569   3.332
 5278TIP3    H215780   3.992   0.487   3.234
 5279TIP3   OH215781   0.663   6.881   5.514
 5279TIP3    H115782   0.645   6.830   5.593
 5279TIP3    H215783   0.728   6.946   5.542
 5280TIP3   OH215784   7.212   6.510   0.772
 5280TIP3    H115785   7.273   6.579   0.747
 5280TIP3    H215786   7.264   6.429   0.767
 5281TIP3   OH215787   6.019   3.788   0.273
 5281TIP3    H115788   5.971   3.831   0.202
 5281TIP3    H215789   6.093   3.846   0.291
 5282TIP3   OH215790   0.469   3.789   5.835
 5282TIP3    H115791   0.485   3.884   5.834
 5282TIP3    H215792   0.461   3.767   5.928
 5283TIP3   OH215793   1.816   2.111   1.999
 5283TIP3    H115794   1.905   2.110   1.965
 5283TIP3    H215795   1.770   2.175   1.945
 5284TIP3   OH215796   0.398   6.117   4.264
 5284TIP3    H115797   0.465   6.114   4.332
 5284TIP3    H215798   0.321   6.156   4.306
 5285TIP3   OH215799   6.780   6.174   0.339
 5285TIP3    H115800   6.798   6.242   0.274
 5285TIP3    H215801   6.710   6.121   0.301
 5286TIP3   OH215802   0.851   0.220   5.943
 5286TIP3    H115803   0.906   0.191   5.871
 5286TIP3    H215804   0.908   0.222   6.019
 5287TIP3   OH215805   5.150   0.101   2.970
 5287TIP3    H115806   5.183   0.059   3.050
 5287TIP3    H215807   5.080   0.159   3.001
 5288TIP3   OH215808   3.989   7.597   4.318
 5288TIP3    H115809   4.052   7.557   4.257
 5288TIP3    H215810   4.038   7.607   4.400
 5289TIP3   OH215811   6.639   0.897   2.849
 5289TIP3    H115812   6.637   0.975   2.794
 5289TIP3    H215813   6.565   0.843   2.817
 5290TIP3   OH215814   3.248   2.777   2.845
 5290TIP3    H115815   3.264   2.697   2.896
 5290TIP3    H215816   3.250   2.847   2.910
 5291TIP3   OH215817   1.077   2.482   3.275
 5291TIP3    H115818   1.058   2.531   3.355
 5291TIP3    H215819   0.991   2.462   3.238
 5292TIP3   OH215820   8.012   1.138   0.952
 5292TIP3    H115821   8.012   1.134   0.856
 5292TIP3    H215822   8.082   1.200   0.973
 5293TIP3   OH215823   4.791   3.909   6.312
 5293TIP3    H115824   4.704   3.948   6.315
 5293TIP3    H215825   4.835   3.942   6.391
 5294TIP3   OH215826   0.422   4.650   2.002
 5294TIP3    H115827   0.492   4.597   2.039
 5294TIP3    H215828   0.451   4.669   1.913
 5295TIP3   OH215829   2.510   6.608   5.522
 5295TIP3    H115830   2.576   6.668   5.488
 5295TIP3    H215831   2.547   6.577   5.605
 5296TIP3   OH215832   3.383   0.303   5.693
 5296TIP3    H115833   3.358   0.244   5.622
 5296TIP3    H215834   3.475   0.282   5.710
 5297TIP3   OH215835   4.802   6.835   3.521
 5297TIP3    H115836   4.851   6.904   3.566
 5297TIP3    H215837   4.723   6.879   3.488
 5298TIP3   OH215838   2.056   1.171   0.222
 5298TIP3    H115839   1.968   1.172   0.258
 5298TIP3    H215840   2.073   1.262   0.197
 5299TIP3   OH215841   4.616   3.613   2.312
 5299TIP3    H115842   4.525   3.630   2.335
 5299TIP3    H215843   4.666   3.648   2.386
 5300TIP3   OH215844   3.880   3.238   0.297
 5300TIP3    H115845   3.947   3.185   0.340
 5300TIP3    H215846   3.797   3.197   0.322
 5301TIP3   OH215847   6.264   2.191   4.689
 5301TIP3    H115848   6.274   2.222   4.599
 5301TIP3    H215849   6.169   2.182   4.700
 5302TIP3   OH215850   4.788   3.663   5.015
 5302TIP3    H115851   4.695   3.687   5.017
 5302TIP3    H215852   4.816   3.670   5.106
 5303TIP3   OH215853   6.546   5.939   1.075
 5303TIP3    H115854   6.593   5.859   1.101
 5303TIP3    H215855   6.534   5.929   0.980
 5304TIP3   OH215856   1.655   2.615   0.751
 5304TIP3    H115857   1.652   2.646   0.842
 5304TIP3    H215858   1.578   2.653   0.710
 5305TIP3   OH215859   2.630   0.344   3.244
 5305TIP3    H115860   2.700   0.326   3.306
 5305TIP3    H215861   2.557   0.374   3.298
 5306TIP3   OH215862   4.449   7.661   4.078
 5306TIP3    H115863   4.502   7.581   4.076
 5306TIP3    H215864   4.485   7.715   4.007
 5307TIP3   OH215865   0.536   3.211   5.841
 5307TIP3    H115866   0.566   3.215   5.932
 5307TIP3    H215867   0.583   3.136   5.803
 5308TIP3   OH215868   1.324   0.871   6.185
 5308TIP3    H115869   1.349   0.955   6.224
 5308TIP3    H215870   1.334   0.883   6.091
 5309TIP3   OH215871   5.741   1.185   1.242
 5309TIP3    H115872   5.732   1.106   1.294
 5309TIP3    H215873   5.770   1.252   1.304
 5310TIP3   OH215874   3.076   5.751   5.225
 5310TIP3    H115875   3.102   5.669   5.183
 5310TIP3    H215876   3.100   5.819   5.161
 5311TIP3   OH215877   0.447   1.372   6.160
 5311TIP3    H115878   0.453   1.277   6.151
 5311TIP3    H215879   0.532   1.398   6.197
 5312TIP3   OH215880   2.708   0.458   4.654
 5312TIP3    H115881   2.655   0.537   4.652
 5312TIP3    H215882   2.719   0.439   4.747
 5313TIP3   OH215883   4.119   1.872   3.390
 5313TIP3    H115884   4.048   1.909   3.443
 5313TIP3    H215885   4.078   1.800   3.342
 5314TIP3   OH215886   1.015   6.703   3.983
 5314TIP3    H115887   1.086   6.716   4.046
 5314TIP3    H215888   0.969   6.787   3.982
 5315TIP3   OH215889   3.094   3.451   0.245
 5315TIP3    H115890   3.140   3.455   0.329
 5315TIP3    H215891   3.101   3.540   0.209
 5316TIP3   OH215892   5.212   6.174   6.327
 5316TIP3    H115893   5.166   6.234   6.385
 5316TIP3    H215894   5.143   6.116   6.293
 5317TIP3   OH215895   7.077   4.117   3.313
 5317TIP3    H115896   7.124   4.046   3.270
 5317TIP3    H215897   6.985   4.096   3.299
 5318TIP3   OH215898   5.321   5.475   0.801
 5318TIP3    H115899   5.326   5.382   0.779
 5318TIP3    H215900   5.261   5.479   0.876
 5319TIP3   OH215901   3.514   0.837   6.699
 5319TIP3    H115902   3.494   0.898   6.628
 5319TIP3    H215903   3.444   0.771   6.694
 5320TIP3   OH215904   6.704   5.346   2.041
 5320TIP3    H115905   6.636   5.281   2.054
 5320TIP3    H215906   6.734   5.369   2.129
 5321TIP3   OH215907   6.093   1.993   0.964
 5321TIP3    H115908   6.057   2.061   1.020
 5321TIP3    H215909   6.151   1.943   1.021
 5322TIP3   OH215910   0.331   5.505   5.943
 5322TIP3    H115911   0.314   5.421   5.900
 5322TIP3    H215912   0.374   5.558   5.876
 5323TIP3   OH215913   3.992   6.768   0.464
 5323TIP3    H115914   3.918   6.727   0.420
 5323TIP3    H215915   3.958   6.852   0.495
 5324TIP3   OH215916   2.674   4.700   3.712
 5324TIP3    H115917   2.694   4.762   3.642
 5324TIP3    H215918   2.743   4.633   3.705
 5325TIP3   OH215919   0.816   6.467   5.231
 5325TIP3    H115920   0.897   6.422   5.257
 5325TIP3    H215921   0.746   6.411   5.263
 5326TIP3   OH215922   0.778   1.125   4.526
 5326TIP3    H115923   0.821   1.039   4.528
 5326TIP3    H215924   0.686   1.106   4.542
 5327TIP3   OH215925   5.235   1.436   6.689
 5327TIP3    H115926   5.191   1.428   6.773
 5327TIP3    H215927   5.304   1.501   6.704
 5328TIP3   OH215928   2.862   2.561   0.193
 5328TIP3    H115929   2.808   2.545   0.115
 5328TIP3    H215930   2.798   2.574   0.264
 5329TIP3   OH215931   5.789   5.663   0.471
 5329TIP3    H115932   5.840   5.744   0.472
 5329TIP3    H215933   5.820   5.615   0.395
 5330TIP3   OH215934   6.966   2.637   4.722
 5330TIP3    H115935   6.987   2.642   4.629
 5330TIP3    H215936   6.973   2.544   4.743
 5331TIP3   OH215937   1.353   4.045   5.078
 5331TIP3    H115938   1.438   4.024   5.038
 5331TIP3    H215939   1.326   3.963   5.119
 5332TIP3   OH215940   0.484   1.876   0.067
 5332TIP3    H115941   0.439   1.955   0.037
 5332TIP3    H215942   0.563   1.872   0.012
 5333TIP3   OH215943   7.119   3.613   0.775
 5333TIP3    H115944   7.096   3.527   0.739
 5333TIP3    H215945   7.154   3.662   0.700
 5334TIP3   OH215946   0.875   1.490   3.159
 5334TIP3    H115947   0.815   1.495   3.233
 5334TIP3    H215948   0.903   1.398   3.156
 5335TIP3   OH215949   8.272   5.761   1.128
 5335TIP3    H115950   8.251   5.743   1.219
 5335TIP3    H215951   8.351   5.709   1.110
 5336TIP3   OH215952   4.220   1.488   6.514
 5336TIP3    H115953   4.280   1.510   6.442
 5336TIP3    H215954   4.185   1.572   6.542
 5337TIP3   OH215955   5.292   7.073   4.371
 5337TIP3    H115956   5.351   7.120   4.430
 5337TIP3    H215957   5.208   7.072   4.417
 5338TIP3   OH215958   5.498   6.644   5.187
 5338TIP3    H115959   5.447   6.689   5.253
 5338TIP3    H215960   5.589   6.653   5.215
 5339TIP3   OH215961   3.760   6.116   2.207
 5339TIP3    H115962   3.680   6.169   2.209
 5339TIP3    H215963   3.825   6.172   2.166
 5340TIP3   OH215964   6.143   3.529   5.127
 5340TIP3    H115965   6.091   3.546   5.206
 5340TIP3    H215966   6.231   3.513   5.160
 5341TIP3   OH215967   3.430   6.391   5.451
 5341TIP3    H115968   3.380   6.450   5.395
 5341TIP3    H215969   3.522   6.412   5.433
 5342TIP3   OH215970   4.350   4.258   2.533
 5342TIP3    H115971   4.256   4.278   2.530
 5342TIP3    H215972   4.365   4.202   2.457
 5343TIP3   OH215973   5.978   6.176   4.759
 5343TIP3    H115974   5.922   6.192   4.836
 5343TIP3    H215975   5.921   6.192   4.684
 5344TIP3   OH215976   2.116   5.862   4.544
 5344TIP3    H115977   2.139   5.945   4.503
 5344TIP3    H215978   2.118   5.881   4.638
 5345TIP3   OH215979   1.818   1.613   4.524
 5345TIP3    H115980   1.906   1.597   4.559
 5345TIP3    H215981   1.765   1.636   4.600
 5346TIP3   OH215982   2.371   6.455   1.439
 5346TIP3    H115983   2.330   6.417   1.517
 5346TIP3    H215984   2.380   6.382   1.378
 5347TIP3   OH215985   0.713   6.274   5.399
 5347TIP3    H115986   0.791   6.238   5.441
 5347TIP3    H215987   0.666   6.318   5.469
 5348TIP3   OH215988   1.152   4.840   2.010
 5348TIP3    H115989   1.148   4.910   2.075
 5348TIP3    H215990   1.151   4.759   2.061
 5349TIP3   OH215991   6.766   6.247   2.341
 5349TIP3    H115992   6.768   6.333   2.299
 5349TIP3    H215993   6.721   6.190   2.278
 5350TIP3   OH215994   0.712   4.085   0.305
 5350TIP3    H115995   0.626   4.075   0.263
 5350TIP3    H215996   0.755   4.001   0.289
 5351TIP3   OH215997   0.045   3.876   5.215
 5351TIP3    H115998   0.045   3.794   5.263
 5351TIP3    H215999   0.023   3.851   5.125
 5352TIP3   OH216000   6.062   2.705   4.525
 5352TIP3    H116001   6.048   2.750   4.441
 5352TIP3    H216002   6.120   2.632   4.504
 5353TIP3   OH216003   1.402   0.869   6.708
 5353TIP3    H116004   1.307   0.867   6.717
 5353TIP3    H216005   1.431   0.781   6.732
 5354TIP3   OH216006   8.281   5.046   4.172
 5354TIP3    H116007   8.326   4.998   4.103
 5354TIP3    H216008   8.236   5.118   4.127
 5355TIP3   OH216009   4.456   6.314   2.231
 5355TIP3    H116010   4.443   6.226   2.267
 5355TIP3    H216011   4.369   6.354   2.232
 5356TIP3   OH216012   1.627   1.055   5.898
 5356TIP3    H116013   1.554   0.993   5.902
 5356TIP3    H216014   1.624   1.090   5.809
 5357TIP3   OH216015   3.625   1.871   3.674
 5357TIP3    H116016   3.650   1.796   3.727
 5357TIP3    H216017   3.660   1.947   3.721
 5358TIP3   OH216018   4.715   2.740   0.092
 5358TIP3    H116019   4.645   2.804   0.080
 5358TIP3    H216020   4.744   2.720   0.003
 5359TIP3   OH216021   4.739   0.978   4.495
 5359TIP3    H116022   4.820   1.014   4.531
 5359TIP3    H216023   4.674   0.992   4.563
 5360TIP3   OH216024   3.537   1.968   0.216
 5360TIP3    H116025   3.495   1.908   0.154
 5360TIP3    H216026   3.465   2.004   0.268
 5361TIP3   OH216027   0.021   1.175   4.186
 5361TIP3    H116028   0.060   1.253   4.146
 5361TIP3    H216029   0.093   1.131   4.229
 5362TIP3   OH216030   7.525   2.181   3.172
 5362TIP3    H116031   7.535   2.199   3.079
 5362TIP3    H216032   7.601   2.221   3.213
 5363TIP3   OH216033   8.133   5.246   5.928
 5363TIP3    H116034   8.171   5.200   5.853
 5363TIP3    H216035   8.207   5.289   5.970
 5364TIP3   OH216036   7.135   0.327   0.573
 5364TIP3    H116037   7.175   0.241   0.557
 5364TIP3    H216038   7.045   0.307   0.598
 5365TIP3   OH216039   2.668   2.853   2.260
 5365TIP3    H116040   2.684   2.946   2.276
 5365TIP3    H216041   2.754   2.812   2.271
 5366TIP3   OH216042   1.687   5.920   0.370
 5366TIP3    H116043   1.729   5.836   0.352
 5366TIP3    H216044   1.658   5.951   0.284
 5367TIP3   OH216045   5.950   6.113   6.028
 5367TIP3    H116046   5.961   6.057   6.105
 5367TIP3    H216047   5.856   6.133   6.027
 5368TIP3   OH216048   5.797   3.416   6.043
 5368TIP3    H116049   5.789   3.330   6.002
 5368TIP3    H216050   5.769   3.401   6.134
 5369TIP3   OH216051   4.321   5.323   0.651
 5369TIP3    H116052   4.402   5.295   0.609
 5369TIP3    H216053   4.287   5.393   0.595
 5370TIP3   OH216054   0.777   5.026   6.692
 5370TIP3    H116055   0.685   5.037   6.667
 5370TIP3    H216056   0.778   4.943   6.740
 5371TIP3   OH216057   4.349   3.066   6.312
 5371TIP3    H116058   4.419   3.002   6.298
 5371TIP3    H216059   4.335   3.105   6.226
 5372TIP3   OH216060   7.222   7.058   5.821
 5372TIP3    H116061   7.209   7.122   5.752
 5372TIP3    H216062   7.139   7.058   5.869
 5373TIP3   OH216063   1.084   0.556   0.248
 5373TIP3    H116064   1.059   0.646   0.228
 5373TIP3    H216065   1.148   0.564   0.318
 5374TIP3   OH216066   2.285   1.062   1.711
 5374TIP3    H116067   2.281   0.997   1.641
 5374TIP3    H216068   2.214   1.038   1.770
 5375TIP3   OH216069   2.095   3.999   3.727
 5375TIP3    H116070   2.009   3.956   3.718
 5375TIP3    H216071   2.101   4.021   3.820
 5376TIP3   OH216072   8.095   2.496   5.420
 5376TIP3    H116073   8.100   2.408   5.458
 5376TIP3    H216074   8.002   2.511   5.406
 5377TIP3   OH216075   2.607   4.061   0.499
 5377TIP3    H116076   2.669   4.093   0.433
 5377TIP3    H216077   2.620   3.966   0.498
 5378TIP3   OH216078   0.465   3.728   0.500
 5378TIP3    H116079   0.473   3.780   0.420
 5378TIP3    H216080   0.433   3.643   0.471
 5379TIP3   OH216081   1.428   1.050   4.723
 5379TIP3    H116082   1.510   1.014   4.756
 5379TIP3    H216083   1.426   1.026   4.631
 5380TIP3   OH216084   7.219   3.851   6.077
 5380TIP3    H116085   7.147   3.890   6.126
 5380TIP3    H216086   7.176   3.798   6.010
 5381TIP3   OH216087   3.778   0.303   3.154
 5381TIP3    H116088   3.823   0.387   3.157
 5381TIP3    H216089   3.733   0.302   3.070
 5382TIP3   OH216090   7.071   3.918   4.966
 5382TIP3    H116091   7.084   3.965   4.884
 5382TIP3    H216092   7.002   3.968   5.011
 5383TIP3   OH216093   4.309   4.568   4.789
 5383TIP3    H116094   4.284   4.623   4.715
 5383TIP3    H216095   4.367   4.624   4.841
 5384TIP3   OH216096   6.537   5.531   0.333
 5384TIP3    H116097   6.632   5.519   0.325
 5384TIP3    H216098   6.527   5.608   0.389
 5385TIP3   OH216099   3.619   1.026   0.284
 5385TIP3    H116100   3.569   1.105   0.303
 5385TIP3    H216101   3.562   0.954   0.314
 5386TIP3   OH216102   7.344   2.116   0.303
 5386TIP3    H116103   7.294   2.071   0.235
 5386TIP3    H216104   7.323   2.068   0.383
 5387TIP3   OH216105   3.023   3.000   3.160
 5387TIP3    H116106   3.093   2.984   3.097
 5387TIP3    H216107   2.945   3.012   3.105
 5388TIP3   OH216108   3.056   0.533   5.927
 5388TIP3    H116109   2.970   0.566   5.951
 5388TIP3    H216110   3.057   0.443   5.960
 5389TIP3   OH216111   2.175   7.723   5.596
 5389TIP3    H116112   2.090   7.766   5.607
 5389TIP3    H216113   2.180   7.704   5.502
 5390TIP3   OH216114   8.256   3.481   0.181
 5390TIP3    H116115   8.323   3.415   0.168
 5390TIP3    H216116   8.282   3.553   0.124
 5391TIP3   OH216117   4.716   0.519   4.097
 5391TIP3    H116118   4.680   0.569   4.024
 5391TIP3    H216119   4.669   0.436   4.094
 5392TIP3   OH216120   2.415   7.375   2.672
 5392TIP3    H116121   2.403   7.338   2.760
 5392TIP3    H216122   2.331   7.414   2.650
 5393TIP3   OH216123   6.796   7.793   2.384
 5393TIP3    H116124   6.820   7.855   2.315
 5393TIP3    H216125   6.730   7.839   2.435
 5394TIP3   OH216126   4.588   5.934   0.564
 5394TIP3    H116127   4.584   5.841   0.582
 5394TIP3    H216128   4.501   5.967   0.586
 5395TIP3   OH216129   6.062   6.172   3.280
 5395TIP3    H116130   6.000   6.171   3.207
 5395TIP3    H216131   6.033   6.244   3.336
 5396TIP3   OH216132   1.561   6.099   6.364
 5396TIP3    H116133   1.605   6.176   6.328
 5396TIP3    H216134   1.589   6.095   6.455
 5397TIP3   OH216135   5.725   6.100   0.257
 5397TIP3    H116136   5.750   6.039   0.326
 5397TIP3    H216137   5.773   6.180   0.277
 5398TIP3   OH216138   4.148   2.588   3.520
 5398TIP3    H116139   4.169   2.590   3.613
 5398TIP3    H216140   4.221   2.539   3.481
 5399TIP3   OH216141   2.453   1.712   6.415
 5399TIP3    H116142   2.425   1.759   6.336
 5399TIP3    H216143   2.509   1.774   6.462
 5400TIP3   OH216144   2.362   1.202   1.213
 5400TIP3    H116145   2.356   1.249   1.295
 5400TIP3    H216146   2.449   1.162   1.214
 5401TIP3   OH216147   7.571   4.416   2.419
 5401TIP3    H116148   7.582   4.491   2.360
 5401TIP3    H216149   7.563   4.341   2.360
 5402TIP3   OH216150   6.889   0.539   6.718
 5402TIP3    H116151   6.896   0.529   6.813
 5402TIP3    H216152   6.868   0.631   6.704
 5403TIP3   OH216153   1.545   1.257   3.008
 5403TIP3    H116154   1.582   1.342   2.986
 5403TIP3    H216155   1.617   1.196   2.996
 5404TIP3   OH216156   7.838   3.547   1.443
 5404TIP3    H116157   7.805   3.486   1.377
 5404TIP3    H216158   7.864   3.625   1.393
 5405TIP3   OH216159   0.529   0.161   0.460
 5405TIP3    H116160   0.586   0.206   0.522
 5405TIP3    H216161   0.546   0.068   0.474
 5406TIP3   OH216162   5.048   1.814   5.364
 5406TIP3    H116163   5.126   1.819   5.309
 5406TIP3    H216164   4.975   1.821   5.303
 5407TIP3   OH216165   1.346   6.965   6.363
 5407TIP3    H116166   1.438   6.990   6.363
 5407TIP3    H216167   1.303   7.035   6.314
 5408TIP3   OH216168   3.857   5.043   2.023
 5408TIP3    H116169   3.812   4.958   2.026
 5408TIP3    H216170   3.900   5.044   1.938
 5409TIP3   OH216171   0.710   5.905   2.743
 5409TIP3    H116172   0.720   5.988   2.695
 5409TIP3    H216173   0.636   5.920   2.801
 5410TIP3   OH216174   5.980   2.383   6.233
 5410TIP3    H116175   5.934   2.391   6.150
 5410TIP3    H216176   5.987   2.472   6.266
 5411TIP3   OH216177   4.681   0.685   2.209
 5411TIP3    H116178   4.637   0.739   2.275
 5411TIP3    H216179   4.625   0.693   2.131
 5412TIP3   OH216180   5.730   2.200   2.821
 5412TIP3    H116181   5.742   2.295   2.812
 5412TIP3    H216182   5.663   2.178   2.756
 5413TIP3   OH216183   1.757   1.944   4.302
 5413TIP3    H116184   1.781   1.998   4.227
 5413TIP3    H216185   1.663   1.932   4.294
 5414TIP3   OH216186   3.138   5.472   5.171
 5414TIP3    H116187   3.097   5.449   5.087
 5414TIP3    H216188   3.219   5.421   5.173
 5415TIP3   OH216189   2.126   3.004   3.195
 5415TIP3    H116190   2.053   3.035   3.141
 5415TIP3    H216191   2.135   3.069   3.264
 5416TIP3   OH216192   0.590   5.442   3.303
 5416TIP3    H116193   0.594   5.347   3.312
 5416TIP3    H216194   0.680   5.472   3.317
 5417TIP3   OH216195   3.005   3.283   5.870
 5417TIP3    H116196   3.015   3.254   5.780
 5417TIP3    H216197   2.941   3.354   5.866
 5418TIP3   OH216198   6.672   0.267   6.501
 5418TIP3    H116199   6.622   0.198   6.458
 5418TIP3    H216200   6.764   0.241   6.488
 5419TIP3   OH216201   5.076   4.401   3.799
 5419TIP3    H116202   5.048   4.489   3.826
 5419TIP3    H216203   5.153   4.416   3.744
 5420TIP3   OH216204   3.015   2.453   2.815
 5420TIP3    H116205   3.048   2.456   2.725
 5420TIP3    H216206   2.984   2.542   2.832
 5421TIP3   OH216207   6.409   6.728   4.629
 5421TIP3    H116208   6.353   6.650   4.623
 5421TIP3    H216209   6.397   6.773   4.546
 5422TIP3   OH216210   0.592   6.524   6.095
 5422TIP3    H116211   0.648   6.581   6.148
 5422TIP3    H216212   0.606   6.436   6.132
 5423TIP3   OH216213   0.280   7.381   4.922
 5423TIP3    H116214   0.343   7.377   4.994
 5423TIP3    H216215   0.300   7.463   4.877
 5424TIP3   OH216216   7.526   3.671   0.515
 5424TIP3    H116217   7.609   3.712   0.490
 5424TIP3    H216218   7.548   3.578   0.525
 5425TIP3   OH216219   5.066   4.662   4.520
 5425TIP3    H116220   5.100   4.577   4.548
 5425TIP3    H216221   5.092   4.669   4.428
 5426TIP3   OH216222   3.476   5.276   5.550
 5426TIP3    H116223   3.502   5.366   5.570
 5426TIP3    H216224   3.418   5.251   5.622
 5427TIP3   OH216225   5.120   7.565   5.821
 5427TIP3    H116226   5.157   7.477   5.817
 5427TIP3    H216227   5.195   7.622   5.836
 5428TIP3   OH216228   3.754   7.110   1.940
 5428TIP3    H116229   3.687   7.178   1.937
 5428TIP3    H216230   3.712   7.034   1.899
 5429TIP3   OH216231   6.869   0.763   4.879
 5429TIP3    H116232   6.895   0.725   4.795
 5429TIP3    H216233   6.916   0.711   4.944
 5430TIP3   OH216234   1.439   1.780   1.360
 5430TIP3    H116235   1.352   1.806   1.390
 5430TIP3    H216236   1.443   1.685   1.375
 5431TIP3   OH216237   1.197   5.111   2.443
 5431TIP3    H116238   1.247   5.059   2.506
 5431TIP3    H216239   1.248   5.191   2.432
 5432TIP3   OH216240   2.756   0.475   5.410
 5432TIP3    H116241   2.753   0.551   5.352
 5432TIP3    H216242   2.776   0.512   5.496
 5433TIP3   OH216243   1.050   1.443   3.538
 5433TIP3    H116244   0.973   1.403   3.497
 5433TIP3    H216245   1.106   1.370   3.561
 5434TIP3   OH216246   0.140   2.839   6.408
 5434TIP3    H116247   0.187   2.828   6.325
 5434TIP3    H216248   0.198   2.800   6.474
 5435TIP3   OH216249   3.192   6.209   5.802
 5435TIP3    H116250   3.288   6.204   5.802
 5435TIP3    H216251   3.174   6.303   5.792
 5436TIP3   OH216252   2.456   1.907   1.789
 5436TIP3    H116253   2.487   1.965   1.720
 5436TIP3    H216254   2.475   1.819   1.757
 5437TIP3   OH216255   7.619   1.082   5.009
 5437TIP3    H116256   7.546   1.056   5.066
 5437TIP3    H216257   7.678   1.007   5.009
 5438TIP3   OH216258   0.161   5.889   2.549
 5438TIP3    H116259   0.099   5.916   2.617
 5438TIP3    H216260   0.168   5.794   2.559
 5439TIP3   OH216261   7.932   1.633   4.901
 5439TIP3    H116262   7.845   1.638   4.940
 5439TIP3    H216263   7.918   1.661   4.810
 5440TIP3   OH216264   1.067   3.494   4.376
 5440TIP3    H116265   0.995   3.531   4.427
 5440TIP3    H216266   1.024   3.437   4.312
 5441TIP3   OH216267   5.108   6.769   5.956
 5441TIP3    H116268   5.126   6.797   6.046
 5441TIP3    H216269   5.193   6.746   5.920
 5442TIP3   OH216270   0.226   7.701   4.197
 5442TIP3    H116271   0.204   7.705   4.104
 5442TIP3    H216272   0.188   7.619   4.228
 5443TIP3   OH216273   5.731   7.000   5.936
 5443TIP3    H116274   5.654   7.027   5.987
 5443TIP3    H216275   5.726   7.053   5.856
 5444TIP3   OH216276   0.052   7.211   5.776
 5444TIP3    H116277   0.041   7.290   5.722
 5444TIP3    H216278   0.000   7.227   5.854
 5445TIP3   OH216279   6.789   3.883   0.220
 5445TIP3    H116280   6.782   3.788   0.211
 5445TIP3    H216281   6.882   3.901   0.205
 5446TIP3   OH216282   6.050   4.326  -0.015
 5446TIP3    H116283   6.079   4.290   0.069
 5446TIP3    H216284   5.957   4.304  -0.019
 5447TIP3   OH216285   5.525   5.315   6.735
 5447TIP3    H116286   5.540   5.317   6.829
 5447TIP3    H216287   5.566   5.395   6.702
 5448TIP3   OH216288   7.289   4.090   5.833
 5448TIP3    H116289   7.199   4.121   5.844
 5448TIP3    H216290   7.282   4.012   5.779
 5449TIP3   OH216291   1.231   1.054   2.091
 5449TIP3    H116292   1.273   1.016   2.014
 5449TIP3    H216293   1.273   1.010   2.166
 5450TIP3   OH216294   6.208   1.320   4.793
 5450TIP3    H116295   6.257   1.252   4.840
 5450TIP3    H216296   6.271   1.390   4.779
 5451TIP3   OH216297   7.484   6.234   1.690
 5451TIP3    H116298   7.501   6.156   1.743
 5451TIP3    H216299   7.561   6.242   1.634
 5452TIP3   OH216300   7.009   5.644   2.665
 5452TIP3    H116301   6.954   5.572   2.633
 5452TIP3    H216302   6.999   5.713   2.600
 5453TIP3   OH216303   0.592   7.721   1.345
 5453TIP3    H116304   0.663   7.764   1.392
 5453TIP3    H216305   0.629   7.700   1.259
 5454TIP3   OH216306   0.173   1.832   6.585
 5454TIP3    H116307   0.081   1.846   6.563
 5454TIP3    H216308   0.215   1.810   6.501
 5455TIP3   OH216309   2.594   6.884   3.988
 5455TIP3    H116310   2.576   6.909   4.079
 5455TIP3    H216311   2.686   6.906   3.976
 5456TIP3   OH216312   7.055   2.553   6.432
 5456TIP3    H116313   6.961   2.567   6.419
 5456TIP3    H216314   7.064   2.540   6.526
 5457TIP3   OH216315   1.725   2.305   1.822
 5457TIP3    H116316   1.758   2.393   1.839
 5457TIP3    H216317   1.735   2.294   1.727
 5458TIP3   OH216318   8.167   5.807   2.990
 5458TIP3    H116319   8.166   5.835   3.082
 5458TIP3    H216320   8.161   5.711   2.994
 5459TIP3   OH216321   3.841   1.056   2.294
 5459TIP3    H116322   3.893   1.079   2.371
 5459TIP3    H216323   3.767   1.007   2.328
 5460TIP3   OH216324   6.579   3.173   5.821
 5460TIP3    H116325   6.576   3.257   5.868
 5460TIP3    H216326   6.644   3.121   5.869
 5461TIP3   OH216327   3.539   1.794   3.095
 5461TIP3    H116328   3.530   1.699   3.094
 5461TIP3    H216329   3.451   1.826   3.117
 5462TIP3   OH216330   5.259   5.352   0.399
 5462TIP3    H116331   5.291   5.423   0.455
 5462TIP3    H216332   5.241   5.393   0.315
 5463TIP3   OH216333   4.519   1.344   3.339
 5463TIP3    H116334   4.451   1.411   3.334
 5463TIP3    H216335   4.546   1.343   3.431
 5464TIP3   OH216336   2.235   6.202   5.922
 5464TIP3    H116337   2.151   6.161   5.942
 5464TIP3    H216338   2.294   6.170   5.990
 5465TIP3   OH216339   6.711   2.531   3.914
 5465TIP3    H116340   6.655   2.463   3.951
 5465TIP3    H216341   6.692   2.528   3.820
 5466TIP3   OH216342   0.698   6.984   6.536
 5466TIP3    H116343   0.663   7.041   6.605
 5466TIP3    H216344   0.632   6.987   6.467
 5467TIP3   OH216345   1.910   5.976   2.539
 5467TIP3    H116346   1.931   5.906   2.477
 5467TIP3    H216347   1.817   5.992   2.527
 5468TIP3   OH216348   6.001   0.741   5.356
 5468TIP3    H116349   6.047   0.818   5.323
 5468TIP3    H216350   6.038   0.727   5.443
 5469TIP3   OH216351   0.564   6.475   4.066
 5469TIP3    H116352   0.604   6.453   4.151
 5469TIP3    H216353   0.485   6.423   4.062
 5470TIP3   OH216354   6.155   3.304   2.906
 5470TIP3    H116355   6.164   3.219   2.864
 5470TIP3    H216356   6.063   3.308   2.932
 5471TIP3   OH216357   4.230   4.206   4.144
 5471TIP3    H116358   4.312   4.231   4.186
 5471TIP3    H216359   4.237   4.240   4.055
 5472TIP3   OH216360   7.976   5.751   2.317
 5472TIP3    H116361   8.055   5.750   2.371
 5472TIP3    H216362   7.904   5.738   2.379
 5473TIP3   OH216363   4.961   6.487   5.327
 5473TIP3    H116364   5.046   6.487   5.282
 5473TIP3    H216365   4.969   6.556   5.392
 5474TIP3   OH216366   6.793   2.210   6.711
 5474TIP3    H116367   6.885   2.187   6.724
 5474TIP3    H216368   6.781   2.291   6.760
 5475TIP3   OH216369   3.458   1.810   0.819
 5475TIP3    H116370   3.395   1.828   0.888
 5475TIP3    H216371   3.475   1.716   0.825
 5476TIP3   OH216372   4.854   5.036   6.728
 5476TIP3    H116373   4.917   5.108   6.719
 5476TIP3    H216374   4.835   5.032   6.821
 5477TIP3   OH216375   2.006   3.553   0.828
 5477TIP3    H116376   2.095   3.546   0.794
 5477TIP3    H216377   1.964   3.620   0.774
 5478TIP3   OH216378   7.389   5.173   0.439
 5478TIP3    H116379   7.317   5.223   0.401
 5478TIP3    H216380   7.383   5.087   0.397
 5479TIP3   OH216381   4.118   4.677   4.112
 5479TIP3    H116382   4.114   4.612   4.042
 5479TIP3    H216383   4.052   4.742   4.088
 5480TIP3   OH216384   1.740   1.521   0.490
 5480TIP3    H116385   1.755   1.440   0.442
 5480TIP3    H216386   1.674   1.568   0.439
 5481TIP3   OH216387   3.058   3.829   3.933
 5481TIP3    H116388   3.006   3.878   3.868
 5481TIP3    H216389   3.001   3.823   4.009
 5482TIP3   OH216390   3.895   4.655   3.705
 5482TIP3    H116391   3.911   4.561   3.699
 5482TIP3    H216392   3.981   4.693   3.722
 5483TIP3   OH216393   4.408   4.507   3.434
 5483TIP3    H116394   4.338   4.572   3.426
 5483TIP3    H216395   4.381   4.451   3.507
 5484TIP3   OH216396   5.692   1.063   4.352
 5484TIP3    H116397   5.786   1.077   4.343
 5484TIP3    H216398   5.656   1.083   4.266
 5485TIP3   OH216399   4.549   4.260   2.002
 5485TIP3    H116400   4.592   4.345   2.016
 5485TIP3    H216401   4.569   4.210   2.081
 5486TIP3   OH216402   3.971   4.899   1.040
 5486TIP3    H116403   3.957   4.932   0.951
 5486TIP3    H216404   3.967   4.804   1.031
 5487TIP3   OH216405   0.246   4.109   6.356
 5487TIP3    H116406   0.261   4.090   6.264
 5487TIP3    H216407   0.152   4.123   6.364
 5488TIP3   OH216408   6.056   7.295   1.265
 5488TIP3    H116409   6.056   7.210   1.222
 5488TIP3    H216410   6.137   7.298   1.315
 5489TIP3   OH216411   2.620   5.953   1.904
 5489TIP3    H116412   2.542   5.969   1.851
 5489TIP3    H216413   2.693   5.982   1.850
 5490TIP3   OH216414   4.446   4.951   2.685
 5490TIP3    H116415   4.404   4.954   2.771
 5490TIP3    H216416   4.400   5.018   2.633
 5491TIP3   OH216417   6.506   5.072   3.436
 5491TIP3    H116418   6.576   5.108   3.491
 5491TIP3    H216419   6.516   5.116   3.352
 5492TIP3   OH216420   4.031   0.646   5.752
 5492TIP3    H116421   4.084   0.721   5.780
 5492TIP3    H216422   3.982   0.679   5.676
 5493TIP3   OH216423   2.425   7.182   3.770
 5493TIP3    H116424   2.495   7.243   3.795
 5493TIP3    H216425   2.352   7.238   3.745
 5494TIP3   OH216426   0.355   3.472   0.462
 5494TIP3    H116427   0.285   3.437   0.517
 5494TIP3    H216428   0.360   3.410   0.388
 5495TIP3   OH216429   7.531   6.360   3.801
 5495TIP3    H116430   7.495   6.281   3.843
 5495TIP3    H216431   7.563   6.413   3.874
 5496TIP3   OH216432   7.563   6.502   5.308
 5496TIP3    H116433   7.635   6.562   5.326
 5496TIP3    H216434   7.519   6.492   5.393
 5497TIP3   OH216435   0.490   2.112   0.725
 5497TIP3    H116436   0.581   2.130   0.746
 5497TIP3    H216437   0.475   2.023   0.758
 5498TIP3   OH216438   5.026   1.904   6.056
 5498TIP3    H116439   4.972   1.963   6.003
 5498TIP3    H216440   4.984   1.819   6.048
 5499TIP3   OH216441   0.226   2.490   3.850
 5499TIP3    H116442   0.206   2.474   3.757
 5499TIP3    H216443   0.204   2.407   3.893
 5500TIP3   OH216444   0.133   6.614   4.242
 5500TIP3    H116445   0.161   6.623   4.151
 5500TIP3    H216446   0.148   6.701   4.280
 5501TIP3   OH216447   7.251   4.073   0.866
 5501TIP3    H116448   7.156   4.072   0.873
 5501TIP3    H216449   7.277   3.983   0.887
 5502TIP3   OH216450   4.811   1.419   4.922
 5502TIP3    H116451   4.767   1.412   5.007
 5502TIP3    H216452   4.846   1.508   4.920
 5503TIP3   OH216453   1.053   4.088  -0.028
 5503TIP3    H116454   0.968   4.118   0.002
 5503TIP3    H216455   1.038   3.997  -0.054
 5504TIP3   OH216456   4.919   4.936   4.144
 5504TIP3    H116457   4.830   4.945   4.110
 5504TIP3    H216458   4.927   4.843   4.165
 5505TIP3   OH216459   5.638   2.650   5.203
 5505TIP3    H116460   5.601   2.700   5.275
 5505TIP3    H216461   5.706   2.707   5.165
 5506TIP3   OH216462   5.295   6.451   0.820
 5506TIP3    H116463   5.366   6.425   0.761
 5506TIP3    H216464   5.299   6.388   0.892
 5507TIP3   OH216465   6.737   0.342   5.208
 5507TIP3    H116466   6.808   0.351   5.145
 5507TIP3    H216467   6.675   0.283   5.165
 5508TIP3   OH216468   7.815   4.103   5.921
 5508TIP3    H116469   7.836   4.196   5.925
 5508TIP3    H216470   7.874   4.068   5.854
 5509TIP3   OH216471   1.514   4.573   3.717
 5509TIP3    H116472   1.452   4.501   3.726
 5509TIP3    H216473   1.467   4.650   3.750
 5510TIP3   OH216474   4.705   2.302   6.050
 5510TIP3    H116475   4.766   2.353   6.102
 5510TIP3    H216476   4.629   2.289   6.107
 5511TIP3   OH216477   1.854   1.786   5.299
 5511TIP3    H116478   1.929   1.798   5.357
 5511TIP3    H216479   1.885   1.726   5.231
 5512TIP3   OH216480   2.408   5.293   6.294
 5512TIP3    H116481   2.358   5.308   6.375
 5512TIP3    H216482   2.461   5.372   6.285
 5513TIP3   OH216483   4.128   1.868   1.291
 5513TIP3    H116484   4.116   1.774   1.277
 5513TIP3    H216485   4.193   1.873   1.362
 5514TIP3   OH216486   0.136   0.543   4.769
 5514TIP3    H116487   0.123   0.457   4.808
 5514TIP3    H216488   0.069   0.598   4.811
 5515TIP3   OH216489   6.258   1.638   1.967
 5515TIP3    H116490   6.312   1.640   1.888
 5515TIP3    H216491   6.318   1.608   2.036
 5516TIP3   OH216492   3.905   4.840   6.124
 5516TIP3    H116493   3.835   4.895   6.090
 5516TIP3    H216494   3.986   4.881   6.092
 5517TIP3   OH216495   6.817   5.351   2.294
 5517TIP3    H116496   6.891   5.372   2.238
 5517TIP3    H216497   6.831   5.261   2.321
 5518TIP3   OH216498   0.907   4.732   5.979
 5518TIP3    H116499   0.980   4.695   6.029
 5518TIP3    H216500   0.949   4.786   5.912
 5519TIP3   OH216501   6.436   1.688   5.821
 5519TIP3    H116502   6.498   1.659   5.753
 5519TIP3    H216503   6.491   1.705   5.897
 5520TIP3   OH216504   6.619   6.160   4.423
 5520TIP3    H116505   6.550   6.096   4.408
 5520TIP3    H216506   6.585   6.215   4.494
 5521TIP3   OH216507   5.745   2.476   4.596
 5521TIP3    H116508   5.725   2.547   4.535
 5521TIP3    H216509   5.747   2.519   4.682
 5522TIP3   OH216510   6.711   3.439   2.327
 5522TIP3    H116511   6.773   3.484   2.384
 5522TIP3    H216512   6.625   3.471   2.355
 5523TIP3   OH216513   3.998   7.554   0.005
 5523TIP3    H116514   3.940   7.548   0.081
 5523TIP3    H216515   4.030   7.465  -0.007
 5524TIP3   OH216516   0.701   2.026   2.371
 5524TIP3    H116517   0.641   1.951   2.363
 5524TIP3    H216518   0.787   1.991   2.347
 5525TIP3   OH216519   0.997   4.739   1.143
 5525TIP3    H116520   0.960   4.800   1.079
 5525TIP3    H216521   1.091   4.756   1.140
 5526TIP3   OH216522   5.209   6.268   6.063
 5526TIP3    H116523   5.296   6.307   6.050
 5526TIP3    H216524   5.206   6.246   6.156
 5527TIP3   OH216525   0.711   1.516   3.635
 5527TIP3    H116526   0.731   1.423   3.643
 5527TIP3    H216527   0.628   1.527   3.681
 5528TIP3   OH216528   1.720   4.505   0.836
 5528TIP3    H116529   1.671   4.501   0.918
 5528TIP3    H216530   1.654   4.500   0.768
 5529TIP3   OH216531   5.965   3.855   3.648
 5529TIP3    H116532   5.883   3.886   3.686
 5529TIP3    H216533   6.032   3.878   3.712
 5530TIP3   OH216534   5.544   3.135   3.774
 5530TIP3    H116535   5.498   3.163   3.854
 5530TIP3    H216536   5.482   3.153   3.703
 5531TIP3   OH216537   0.195   0.188   6.686
 5531TIP3    H116538   0.156   0.269   6.653
 5531TIP3    H216539   0.121   0.129   6.697
 5532TIP3   OH216540   3.054   4.272   0.884
 5532TIP3    H116541   2.961   4.284   0.906
 5532TIP3    H216542   3.053   4.233   0.796
 5533TIP3   OH216543   8.017   4.230   3.530
 5533TIP3    H116544   7.955   4.165   3.561
 5533TIP3    H216545   7.973   4.271   3.455
 5534TIP3   OH216546   5.925   5.338   4.698
 5534TIP3    H116547   5.977   5.257   4.700
 5534TIP3    H216548   5.928   5.371   4.788
 5535TIP3   OH216549   4.765   7.771   4.181
 5535TIP3    H116550   4.739   7.804   4.267
 5535TIP3    H216551   4.763   7.849   4.124
 5536TIP3   OH216552   3.547  -0.013   2.412
 5536TIP3    H116553   3.484   0.021   2.348
 5536TIP3    H216554   3.624  -0.036   2.360
 5537TIP3   OH216555   0.684   7.061   2.379
 5537TIP3    H116556   0.675   7.061   2.283
 5537TIP3    H216557   0.672   7.152   2.404
 5538TIP3   OH216558   1.873   0.122   3.387
 5538TIP3    H116559   1.878   0.100   3.480
 5538TIP3    H216560   1.953   0.172   3.370
 5539TIP3   OH216561   1.112   5.728   4.596
 5539TIP3    H116562   1.190   5.679   4.621
 5539TIP3    H216563   1.145   5.816   4.575
 5540TIP3   OH216564   0.228   1.960   4.111
 5540TIP3    H116565   0.183   1.919   4.186
 5540TIP3    H216566   0.234   1.890   4.046
 5541TIP3   OH216567   6.954   0.236   4.241
 5541TIP3    H116568   7.009   0.232   4.162
 5541TIP3    H216569   6.989   0.168   4.298
 5542TIP3   OH216570   0.105   2.430   2.641
 5542TIP3    H116571   0.161   2.352   2.631
 5542TIP3    H216572   0.019   2.401   2.609
 5543TIP3   OH216573   0.577   1.163   6.805
 5543TIP3    H116574   0.492   1.167   6.761
 5543TIP3    H216575   0.640   1.154   6.734
 5544TIP3   OH216576   3.411   6.824   1.233
 5544TIP3    H116577   3.376   6.766   1.301
 5544TIP3    H216578   3.458   6.765   1.174
 5545TIP3   OH216579   0.564   4.913   1.302
 5545TIP3    H116580   0.578   4.984   1.364
 5545TIP3    H216581   0.630   4.928   1.233
 5546TIP3   OH216582   2.034   7.588   4.651
 5546TIP3    H116583   2.081   7.511   4.683
 5546TIP3    H216584   1.983   7.618   4.727
 5547TIP3   OH216585   1.244   5.700   5.495
 5547TIP3    H116586   1.332   5.667   5.475
 5547TIP3    H216587   1.185   5.633   5.459
 5548TIP3   OH216588   7.961   0.589   3.456
 5548TIP3    H116589   8.050   0.555   3.455
 5548TIP3    H216590   7.946   0.621   3.367
 5549TIP3   OH216591   1.414   2.465   4.937
 5549TIP3    H116592   1.475   2.536   4.956
 5549TIP3    H216593   1.383   2.437   5.023
 5550TIP3   OH216594   6.518   4.597   1.599
 5550TIP3    H116595   6.452   4.575   1.533
 5550TIP3    H216596   6.494   4.545   1.675
 5551TIP3   OH216597   3.403   6.239   3.975
 5551TIP3    H116598   3.358   6.287   4.045
 5551TIP3    H216599   3.492   6.276   3.974
 5552TIP3   OH216600   1.376   2.658   3.709
 5552TIP3    H116601   1.343   2.693   3.627
 5552TIP3    H216602   1.424   2.578   3.683
 5553TIP3   OH216603   2.140   6.383   6.386
 5553TIP3    H116604   2.222   6.429   6.369
 5553TIP3    H216605   2.074   6.436   6.342
 5554TIP3   OH216606   8.087   1.548   5.709
 5554TIP3    H116607   8.137   1.484   5.658
 5554TIP3    H216608   8.063   1.616   5.645
 5555TIP3   OH216609   3.356   7.801   2.548
 5555TIP3    H116610   3.278   7.748   2.530
 5555TIP3    H216611   3.324   7.891   2.554
 5556TIP3   OH216612   1.243   2.022   0.550
 5556TIP3    H116613   1.248   1.952   0.614
 5556TIP3    H216614   1.195   1.984   0.476
 5557TIP3   OH216615   7.202   3.218   0.196
 5557TIP3    H116616   7.248   3.139   0.167
 5557TIP3    H216617   7.265   3.263   0.252
 5558TIP3   OH216618   3.850   2.786   1.684
 5558TIP3    H116619   3.841   2.713   1.622
 5558TIP3    H216620   3.857   2.744   1.770
 5559TIP3   OH216621   7.507   7.490   1.250
 5559TIP3    H116622   7.415   7.517   1.254
 5559TIP3    H216623   7.531   7.474   1.341
 5560TIP3   OH216624   3.707   1.526   4.785
 5560TIP3    H116625   3.757   1.605   4.763
 5560TIP3    H216626   3.638   1.558   4.844
 5561TIP3   OH216627   3.803   5.795   2.101
 5561TIP3    H116628   3.745   5.793   2.177
 5561TIP3    H216629   3.889   5.815   2.137
 5562TIP3   OH216630   7.655   7.197   1.083
 5562TIP3    H116631   7.745   7.167   1.095
 5562TIP3    H216632   7.641   7.258   1.154
 5563TIP3   OH216633   8.230   3.393   3.519
 5563TIP3    H116634   8.141   3.415   3.544
 5563TIP3    H216635   8.265   3.345   3.595
 5564TIP3   OH216636   5.231   6.887   5.118
 5564TIP3    H116637   5.154   6.865   5.064
 5564TIP3    H216638   5.196   6.899   5.206
 5565TIP3   OH216639   2.050   0.020   0.483
 5565TIP3    H116640   2.055  -0.017   0.572
 5565TIP3    H216641   1.958   0.044   0.472
 5566TIP3   OH216642   2.912   3.914   6.512
 5566TIP3    H116643   2.883   3.995   6.554
 5566TIP3    H216644   2.963   3.869   6.579
 5567TIP3   OH216645   2.768   3.939   3.870
 5567TIP3    H116646   2.726   4.009   3.919
 5567TIP3    H216647   2.755   3.860   3.923
 5568TIP3   OH216648   2.767   2.630   1.928
 5568TIP3    H116649   2.820   2.550   1.932
 5568TIP3    H216650   2.677   2.600   1.930
 5569TIP3   OH216651   3.003   0.121   4.758
 5569TIP3    H116652   2.976   0.106   4.849
 5569TIP3    H216653   2.921   0.128   4.709
 5570TIP3   OH216654   0.611   4.972   4.978
 5570TIP3    H116655   0.650   5.022   5.050
 5570TIP3    H216656   0.626   4.880   5.002
 5571TIP3   OH216657   4.789   4.765   4.798
 5571TIP3    H116658   4.792   4.861   4.804
 5571TIP3    H216659   4.707   4.741   4.841
 5572TIP3   OH216660   3.594   1.048   3.160
 5572TIP3    H116661   3.502   1.060   3.182
 5572TIP3    H216662   3.598   1.058   3.065
 5573TIP3   OH216663   7.933   1.459   0.712
 5573TIP3    H116664   8.012   1.414   0.682
 5573TIP3    H216665   7.868   1.442   0.644
 5574TIP3   OH216666   6.089   1.422   2.257
 5574TIP3    H116667   6.136   1.398   2.178
 5574TIP3    H216668   5.997   1.429   2.230
 5575TIP3   OH216669   4.381   0.618   4.696
 5575TIP3    H116670   4.372   0.538   4.749
 5575TIP3    H216671   4.348   0.688   4.753
 5576TIP3   OH216672   0.697   0.857   0.498
 5576TIP3    H116673   0.773   0.815   0.538
 5576TIP3    H216674   0.732   0.906   0.424
 5577TIP3   OH216675   2.300   1.264   3.207
 5577TIP3    H116676   2.355   1.338   3.231
 5577TIP3    H216677   2.271   1.228   3.291
 5578TIP3   OH216678   3.886   4.428   0.719
 5578TIP3    H116679   3.899   4.501   0.779
 5578TIP3    H216680   3.948   4.361   0.748
 5579TIP3   OH216681   7.450   4.714   0.000
 5579TIP3    H116682   7.526   4.681   0.049
 5579TIP3    H216683   7.375   4.694   0.056
 5580TIP3   OH216684   4.713   4.742   6.253
 5580TIP3    H116685   4.756   4.679   6.196
 5580TIP3    H216686   4.780   4.809   6.270
 5581TIP3   OH216687   2.730   0.738   0.029
 5581TIP3    H116688   2.672   0.668   0.058
 5581TIP3    H216689   2.746   0.790   0.108
 5582TIP3   OH216690   7.972   5.465   6.008
 5582TIP3    H116691   7.876   5.456   6.007
 5582TIP3    H216692   8.004   5.377   5.985
 5583TIP3   OH216693   4.789   1.822   1.088
 5583TIP3    H116694   4.769   1.732   1.064
 5583TIP3    H216695   4.846   1.853   1.018
 5584TIP3   OH216696   7.678   1.625   0.845
 5584TIP3    H116697   7.721   1.544   0.873
 5584TIP3    H216698   7.697   1.688   0.914
 5585TIP3   OH216699   0.192   5.948   0.056
 5585TIP3    H116700   0.282   5.960   0.027
 5585TIP3    H216701   0.186   5.856   0.080
 5586TIP3   OH216702   2.746   7.244   3.434
 5586TIP3    H116703   2.720   7.196   3.513
 5586TIP3    H216704   2.700   7.327   3.440
 5587TIP3   OH216705   3.451   7.469   4.688
 5587TIP3    H116706   3.545   7.453   4.688
 5587TIP3    H216707   3.441   7.552   4.643
 5588TIP3   OH216708   1.336   4.574   2.769
 5588TIP3    H116709   1.312   4.613   2.685
 5588TIP3    H216710   1.382   4.493   2.744
 5589TIP3   OH216711   8.226   2.381   1.078
 5589TIP3    H116712   8.204   2.460   1.128
 5589TIP3    H216713   8.167   2.384   1.002
 5590TIP3   OH216714   2.453   7.192   3.489
 5590TIP3    H116715   2.509   7.133   3.440
 5590TIP3    H216716   2.459   7.162   3.580
 5591TIP3   OH216717   7.655   4.371   6.061
 5591TIP3    H116718   7.662   4.385   5.966
 5591TIP3    H216719   7.579   4.313   6.071
 5592TIP3   OH216720   3.858   1.227   0.314
 5592TIP3    H116721   3.854   1.287   0.239
 5592TIP3    H216722   3.797   1.157   0.291
 5593TIP3   OH216723   2.795   2.282   3.835
 5593TIP3    H116724   2.839   2.203   3.803
 5593TIP3    H216725   2.710   2.250   3.867
 5594TIP3   OH216726   5.720   3.318   2.335
 5594TIP3    H116727   5.717   3.370   2.415
 5594TIP3    H216728   5.806   3.337   2.297
 5595TIP3   OH216729   5.957   4.445   6.019
 5595TIP3    H116730   5.929   4.515   5.961
 5595TIP3    H216731   6.053   4.452   6.020
 5596TIP3   OH216732   1.853   7.441   3.604
 5596TIP3    H116733   1.938   7.414   3.568
 5596TIP3    H216734   1.874   7.482   3.688
 5597TIP3   OH216735   6.487   7.467   2.962
 5597TIP3    H116736   6.446   7.525   2.898
 5597TIP3    H216737   6.499   7.384   2.916
 5598TIP3   OH216738   5.388   0.445   4.280
 5598TIP3    H116739   5.370   0.431   4.187
 5598TIP3    H216740   5.363   0.363   4.323
 5599TIP3   OH216741   7.722   6.014   5.318
 5599TIP3    H116742   7.711   5.926   5.281
 5599TIP3    H216743   7.694   6.073   5.248
 5600TIP3   OH216744   1.950   7.578   4.914
 5600TIP3    H116745   1.954   7.649   4.978
 5600TIP3    H216746   1.859   7.580   4.883
 5601TIP3   OH216747   3.958   7.242   0.102
 5601TIP3    H116748   3.932   7.187   0.029
 5601TIP3    H216749   3.926   7.196   0.180
 5602TIP3   OH216750   1.929   6.053   2.834
 5602TIP3    H116751   1.886   5.992   2.894
 5602TIP3    H216752   1.943   6.003   2.754
 5603TIP3   OH216753   6.470   6.852   0.686
 5603TIP3    H116754   6.386   6.808   0.699
 5603TIP3    H216755   6.457   6.940   0.722
 5604TIP3   OH216756   1.486   6.345   4.831
 5604TIP3    H116757   1.484   6.437   4.807
 5604TIP3    H216758   1.578   6.327   4.850
 5605TIP3   OH216759   6.947   6.761   0.198
 5605TIP3    H116760   6.907   6.824   0.257
 5605TIP3    H216761   6.874   6.724   0.149
 5606TIP3   OH216762   7.964   6.214   0.109
 5606TIP3    H116763   8.036   6.167   0.151
 5606TIP3    H216764   8.003   6.294   0.075
 5607TIP3   OH216765   1.998   7.331   0.908
 5607TIP3    H116766   1.906   7.317   0.930
 5607TIP3    H216767   2.002   7.319   0.813
 5608TIP3   OH216768   4.637   0.377   5.422
 5608TIP3    H116769   4.711   0.422   5.462
 5608TIP3    H216770   4.561   0.409   5.471
 5609TIP3   OH216771   1.475   1.950   4.234
 5609TIP3    H116772   1.421   1.976   4.160
 5609TIP3    H216773   1.510   2.032   4.269
 5610TIP3   OH216774   0.097   3.416   5.019
 5610TIP3    H116775   0.166   3.349   5.021
 5610TIP3    H216776   0.016   3.367   5.029
 5611TIP3   OH216777   2.162   4.337   2.664
 5611TIP3    H116778   2.252   4.306   2.671
 5611TIP3    H216779   2.170   4.427   2.634
 5612TIP3   OH216780   6.949   0.403   5.024
 5612TIP3    H116781   6.889   0.408   4.950
 5612TIP3    H216782   7.022   0.460   4.999
 5613TIP3   OH216783   6.567   1.028   0.157
 5613TIP3    H116784   6.527   1.104   0.114
 5613TIP3    H216785   6.501   0.998   0.219
 5614TIP3   OH216786   3.024   0.833   0.015
 5614TIP3    H116787   3.004   0.910  -0.037
 5614TIP3    H216788   3.037   0.763  -0.050
 5615TIP3   OH216789   0.641   1.516   2.109
 5615TIP3    H116790   0.712   1.459   2.138
 5615TIP3    H216791   0.562   1.479   2.149
 5616TIP3   OH216792   7.991   0.397   2.835
 5616TIP3    H116793   7.901   0.430   2.833
 5616TIP3    H216794   8.015   0.387   2.743
 5617TIP3   OH216795   5.762   5.077   0.103
 5617TIP3    H116796   5.831   5.027   0.147
 5617TIP3    H216797   5.697   5.094   0.171
 5618TIP3   OH216798   0.208   5.856   5.925
 5618TIP3    H116799   0.160   5.799   5.864
 5618TIP3    H216800   0.168   5.837   6.010
 5619TIP3   OH216801   0.275   5.659   5.328
 5619TIP3    H116802   0.184   5.679   5.349
 5619TIP3    H216803   0.308   5.738   5.285
 5620TIP3   OH216804   5.873   6.755   3.481
 5620TIP3    H116805   5.904   6.838   3.518
 5620TIP3    H216806   5.953   6.703   3.469
 5621TIP3   OH216807   1.879   2.524   0.232
 5621TIP3    H116808   1.887   2.429   0.228
 5621TIP3    H216809   1.969   2.557   0.234
 5622TIP3   OH216810   5.220   1.727   4.380
 5622TIP3    H116811   5.163   1.800   4.403
 5622TIP3    H216812   5.201   1.661   4.447
 5623TIP3   OH216813   1.049   5.984   0.582
 5623TIP3    H116814   1.048   6.030   0.498
 5623TIP3    H216815   1.045   6.053   0.648
 5624TIP3   OH216816   4.099   2.781   4.895
 5624TIP3    H116817   4.035   2.710   4.894
 5624TIP3    H216818   4.054   2.855   4.855
 5625TIP3   OH216819   3.348   6.782  -0.035
 5625TIP3    H116820   3.257   6.798  -0.061
 5625TIP3    H216821   3.400   6.838  -0.092
 5626TIP3   OH216822   5.303   3.551   1.981
 5626TIP3    H116823   5.294   3.641   1.951
 5626TIP3    H216824   5.214   3.517   1.981
 5627TIP3   OH216825   3.777   4.118   3.450
 5627TIP3    H116826   3.695   4.166   3.442
 5627TIP3    H216827   3.795   4.116   3.544
 5628TIP3   OH216828   1.706   0.503   6.136
 5628TIP3    H116829   1.646   0.560   6.088
 5628TIP3    H216830   1.764   0.563   6.183
 5629TIP3   OH216831   0.726   1.148   2.555
 5629TIP3    H116832   0.711   1.240   2.577
 5629TIP3    H216833   0.722   1.146   2.459
 5630TIP3   OH216834   0.323   7.542   2.149
 5630TIP3    H116835   0.331   7.609   2.218
 5630TIP3    H216836   0.332   7.590   2.067
 5631TIP3   OH216837   1.260   3.819   6.222
 5631TIP3    H116838   1.293   3.749   6.166
 5631TIP3    H216839   1.283   3.793   6.311
 5632TIP3   OH216840   6.595   4.779   5.073
 5632TIP3    H116841   6.592   4.731   4.991
 5632TIP3    H216842   6.516   4.752   5.120
 5633TIP3   OH216843   3.207   6.252   6.147
 5633TIP3    H116844   3.266   6.202   6.204
 5633TIP3    H216845   3.262   6.274   6.071
 5634TIP3   OH216846   5.239   5.894   4.921
 5634TIP3    H116847   5.298   5.941   4.979
 5634TIP3    H216848   5.202   5.962   4.864
 5635TIP3   OH216849   4.749   7.199   0.945
 5635TIP3    H116850   4.799   7.274   0.910
 5635TIP3    H216851   4.692   7.173   0.873
 5636TIP3   OH216852   6.314   3.727   3.845
 5636TIP3    H116853   6.278   3.809   3.811
 5636TIP3    H216854   6.297   3.663   3.777
 5637TIP3   OH216855   0.518   3.265   4.159
 5637TIP3    H116856   0.581   3.337   4.164
 5637TIP3    H216857   0.438   3.304   4.126
 5638TIP3   OH216858   6.976   0.096   4.892
 5638TIP3    H116859   6.881   0.083   4.889
 5638TIP3    H216860   7.013   0.012   4.865
 5639TIP3   OH216861   3.070   6.148   1.933
 5639TIP3    H116862   3.024   6.213   1.987
 5639TIP3    H216863   3.006   6.120   1.868
 5640TIP3   OH216864   6.346   6.697   2.974
 5640TIP3    H116865   6.286   6.710   2.901
 5640TIP3    H216866   6.390   6.614   2.955
 5641TIP3   OH216867   1.747   7.648   5.907
 5641TIP3    H116868   1.804   7.580   5.873
 5641TIP3    H216869   1.701   7.682   5.830
 5642TIP3   OH216870   0.459   0.118   5.470
 5642TIP3    H116871   0.406   0.105   5.548
 5642TIP3    H216872   0.514   0.040   5.464
 5643TIP3   OH216873   3.501   4.663   2.096
 5643TIP3    H116874   3.436   4.705   2.039
 5643TIP3    H216875   3.452   4.594   2.141
 5644TIP3   OH216876   6.183   0.339   1.398
 5644TIP3    H116877   6.188   0.429   1.366
 5644TIP3    H216878   6.197   0.286   1.320
 5645TIP3   OH216879   3.653   7.701   3.499
 5645TIP3    H116880   3.696   7.617   3.484
 5645TIP3    H216881   3.646   7.740   3.412
 5646TIP3   OH216882   2.890   7.630   3.566
 5646TIP3    H116883   2.912   7.601   3.477
 5646TIP3    H216884   2.935   7.713   3.575
 5647TIP3   OH216885   5.951   1.056   4.300
 5647TIP3    H116886   5.973   0.978   4.350
 5647TIP3    H216887   6.014   1.122   4.330
 5648TIP3   OH216888   2.847   2.297   4.199
 5648TIP3    H116889   2.930   2.262   4.166
 5648TIP3    H216890   2.810   2.345   4.125
 5649TIP3   OH216891   3.300   2.157   5.817
 5649TIP3    H116892   3.353   2.233   5.843
 5649TIP3    H216893   3.351   2.116   5.747
 5650TIP3   OH216894   5.722   0.621   3.297
 5650TIP3    H116895   5.724   0.567   3.376
 5650TIP3    H216896   5.772   0.699   3.321
 5651TIP3   OH216897   7.064   0.719   2.578
 5651TIP3    H116898   7.109   0.701   2.495
 5651TIP3    H216899   7.038   0.811   2.571
 5652TIP3   OH216900   5.588   0.181   2.660
 5652TIP3    H116901   5.601   0.263   2.708
 5652TIP3    H216902   5.645   0.119   2.704
 5653TIP3   OH216903   6.773   2.644   5.213
 5653TIP3    H116904   6.806   2.567   5.259
 5653TIP3    H216905   6.777   2.714   5.278
 5654TIP3   OH216906   3.259   3.761   4.354
 5654TIP3    H116907   3.339   3.785   4.307
 5654TIP3    H216908   3.286   3.695   4.417
 5655TIP3   OH216909   3.648   1.709   1.035
 5655TIP3    H116910   3.733   1.735   0.999
 5655TIP3    H216911   3.607   1.658   0.965
 5656TIP3   OH216912   7.386   3.944   3.423
 5656TIP3    H116913   7.408   4.023   3.474
 5656TIP3    H216914   7.461   3.886   3.437
 5657TIP3   OH216915   5.990   5.011   0.312
 5657TIP3    H116916   5.934   4.971   0.378
 5657TIP3    H216917   6.013   4.940   0.252
 5658TIP3   OH216918   0.346   3.407   4.477
 5658TIP3    H116919   0.345   3.463   4.399
 5658TIP3    H216920   0.309   3.462   4.546
 5659TIP3   OH216921   6.812   2.749   1.337
 5659TIP3    H116922   6.849   2.663   1.321
 5659TIP3    H216923   6.878   2.795   1.389
 5660TIP3   OH216924   0.407   7.088   4.410
 5660TIP3    H116925   0.464   7.148   4.362
 5660TIP3    H216926   0.464   7.046   4.474
 5661TIP3   OH216927   1.990   2.983   3.519
 5661TIP3    H116928   1.928   3.003   3.449
 5661TIP3    H216929   2.065   2.944   3.475
 5662TIP3   OH216930   5.449   7.108   1.064
 5662TIP3    H116931   5.421   7.020   1.091
 5662TIP3    H216932   5.423   7.115   0.972
 5663TIP3   OH216933   5.031   5.686   1.166
 5663TIP3    H116934   5.094   5.625   1.204
 5663TIP3    H216935   5.072   5.772   1.176
 5664TIP3   OH216936   0.626   7.381   5.278
 5664TIP3    H116937   0.714   7.417   5.284
 5664TIP3    H216938   0.569   7.454   5.301
 5665TIP3   OH216939   4.006   7.667   1.284
 5665TIP3    H116940   3.970   7.583   1.311
 5665TIP3    H216941   4.078   7.645   1.225
 5666TIP3   OH216942   6.924   7.097   2.063
 5666TIP3    H116943   6.935   7.002   2.055
 5666TIP3    H216944   6.954   7.132   1.979
 5667TIP3   OH216945   1.605   1.565   0.902
 5667TIP3    H116946   1.555   1.517   0.836
 5667TIP3    H216947   1.541   1.624   0.943
 5668TIP3   OH216948   6.119   5.386   6.193
 5668TIP3    H116949   6.080   5.302   6.168
 5668TIP3    H216950   6.159   5.369   6.278
 5669TIP3   OH216951   7.753   4.112   2.592
 5669TIP3    H116952   7.685   4.175   2.613
 5669TIP3    H216953   7.824   4.165   2.554
 5670TIP3   OH216954   2.910   4.500   1.378
 5670TIP3    H116955   2.957   4.443   1.316
 5670TIP3    H216956   2.948   4.479   1.463
 5671TIP3   OH216957   0.971   5.774   6.034
 5671TIP3    H116958   1.066   5.771   6.045
 5671TIP3    H216959   0.952   5.707   5.969
 5672TIP3   OH216960   2.879   2.002   1.396
 5672TIP3    H116961   2.791   1.976   1.421
 5672TIP3    H216962   2.867   2.063   1.324
 5673TIP3   OH216963   0.844   4.510   3.363
 5673TIP3    H116964   0.766   4.493   3.311
 5673TIP3    H216965   0.832   4.458   3.442
 5674TIP3   OH216966   6.494   0.026   1.867
 5674TIP3    H116967   6.433  -0.041   1.836
 5674TIP3    H216968   6.580  -0.015   1.861
 5675TIP3   OH216969   4.598   7.233   1.993
 5675TIP3    H116970   4.563   7.187   2.069
 5675TIP3    H216971   4.522   7.251   1.939
 5676TIP3   OH216972   7.157   7.557   1.115
 5676TIP3    H116973   7.161   7.462   1.103
 5676TIP3    H216974   7.216   7.575   1.188
 5677TIP3   OH216975   6.292   1.602   2.616
 5677TIP3    H116976   6.208   1.626   2.653
 5677TIP3    H216977   6.350   1.591   2.692
 5678TIP3   OH216978   5.250   1.089   3.076
 5678TIP3    H116979   5.157   1.099   3.054
 5678TIP3    H216980   5.266   0.995   3.071
 5679TIP3   OH216981   5.487   2.414   2.026
 5679TIP3    H116982   5.511   2.373   2.110
 5679TIP3    H216983   5.479   2.507   2.047
 5680TIP3   OH216984   6.087   4.218   1.496
 5680TIP3    H116985   6.031   4.296   1.495
 5680TIP3    H216986   6.145   4.231   1.571
 5681TIP3   OH216987   1.606   7.424   1.447
 5681TIP3    H116988   1.692   7.383   1.443
 5681TIP3    H216989   1.619   7.512   1.412
 5682TIP3   OH216990   6.326   6.269   0.996
 5682TIP3    H116991   6.373   6.266   0.913
 5682TIP3    H216992   6.393   6.250   1.062
 5683TIP3   OH216993   4.040   4.278   2.760
 5683TIP3    H116994   4.048   4.232   2.676
 5683TIP3    H216995   4.064   4.213   2.826
 5684TIP3   OH216996   7.464   1.551   2.322
 5684TIP3    H116997   7.469   1.633   2.273
 5684TIP3    H216998   7.539   1.500   2.291
 5685TIP3   OH216999   1.485   0.541   1.574
 5685TIP3    H117000   1.570   0.576   1.547
 5685TIP3    H217001   1.431   0.618   1.591
 5686TIP3   OH217002   3.628   1.161   6.663
 5686TIP3    H117003   3.650   1.202   6.580
 5686TIP3    H217004   3.695   1.094   6.676
 5687TIP3   OH217005   7.026   0.278   0.261
 5687TIP3    H117006   6.972   0.256   0.337
 5687TIP3    H217007   6.976   0.245   0.186
 5688TIP3   OH217008   3.338   1.824   6.699
 5688TIP3    H117009   3.342   1.729   6.690
 5688TIP3    H217010   3.417   1.855   6.654
 5689TIP3   OH217011   0.664   4.312   2.780
 5689TIP3    H117012   0.708   4.377   2.834
 5689TIP3    H217013   0.631   4.247   2.843
 5690TIP3   OH217014   6.219   2.699   4.247
 5690TIP3    H117015   6.140   2.752   4.260
 5690TIP3    H217016   6.201   2.618   4.296
 5691TIP3   OH217017   1.760   4.942   0.471
 5691TIP3    H117018   1.776   4.848   0.476
 5691TIP3    H217019   1.778   4.964   0.379
 5692TIP3   OH217020   1.307   5.062   1.863
 5692TIP3    H117021   1.245   5.029   1.928
 5692TIP3    H217022   1.392   5.027   1.891
 5693TIP3   OH217023   7.576   7.424   5.536
 5693TIP3    H117024   7.667   7.398   5.524
 5693TIP3    H217025   7.566   7.502   5.482
 5694TIP3   OH217026   5.788   0.431   3.483
 5694TIP3    H117027   5.832   0.428   3.568
 5694TIP3    H217028   5.852   0.396   3.421
 5695TIP3   OH217029   0.175   7.224   4.379
 5695TIP3    H117030   0.151   7.250   4.290
 5695TIP3    H217031   0.265   7.193   4.372
 5696TIP3   OH217032   6.023   5.995   3.527
 5696TIP3    H117033   6.075   5.915   3.526
 5696TIP3    H217034   6.063   6.051   3.460
 5697TIP3   OH217035   6.934   3.250   6.396
 5697TIP3    H117036   6.986   3.187   6.346
 5697TIP3    H217037   6.964   3.240   6.487
 5698TIP3   OH217038   0.116   7.609   2.880
 5698TIP3    H117039   0.194   7.589   2.829
 5698TIP3    H217040   0.130   7.566   2.965
 5699TIP3   OH217041   1.752   5.121   3.336
 5699TIP3    H117042   1.744   5.027   3.320
 5699TIP3    H217043   1.825   5.128   3.398
 5700TIP3   OH217044   7.382   4.755   1.470
 5700TIP3    H117045   7.366   4.680   1.412
 5700TIP3    H217046   7.415   4.715   1.551
 5701TIP3   OH217047   1.848   3.160   5.180
 5701TIP3    H117048   1.767   3.196   5.216
 5701TIP3    H217049   1.871   3.089   5.239
 5702TIP3   OH217050   3.502   5.543   5.527
 5702TIP3    H117051   3.413   5.563   5.498
 5702TIP3    H217052   3.536   5.626   5.561
 5703TIP3   OH217053   6.606   5.293   0.731
 5703TIP3    H117054   6.647   5.370   0.693
 5703TIP3    H217055   6.541   5.265   0.667
 5704TIP3   OH217056   4.554   3.926   2.538
 5704TIP3    H117057   4.627   3.864   2.540
 5704TIP3    H217058   4.595   4.011   2.559
 5705TIP3   OH217059   4.161   0.833   3.908
 5705TIP3    H117060   4.230   0.773   3.936
 5705TIP3    H217061   4.201   0.920   3.913
 5706TIP3   OH217062   4.967   2.676   4.342
 5706TIP3    H117063   4.924   2.634   4.268
 5706TIP3    H217064   5.053   2.634   4.346
 5707TIP3   OH217065   3.877   2.781   0.263
 5707TIP3    H117066   3.832   2.697   0.260
 5707TIP3    H217067   3.843   2.829   0.187
 5708TIP3   OH217068   2.521   4.594   3.264
 5708TIP3    H117069   2.531   4.560   3.353
 5708TIP3    H217070   2.522   4.689   3.275
 5709TIP3   OH217071   3.671   3.826   0.934
 5709TIP3    H117072   3.762   3.813   0.961
 5709TIP3    H217073   3.626   3.747   0.962
 5710TIP3   OH217074   0.878   2.985   2.074
 5710TIP3    H117075   0.798   2.938   2.049
 5710TIP3    H217076   0.919   2.929   2.140
 5711TIP3   OH217077   5.308   3.136   5.679
 5711TIP3    H117078   5.347   3.168   5.760
 5711TIP3    H217079   5.233   3.085   5.707
 5712TIP3   OH217080   3.726   7.455   6.664
 5712TIP3    H117081   3.648   7.487   6.619
 5712TIP3    H217082   3.793   7.450   6.595
 5713TIP3   OH217083   2.086   1.442   0.146
 5713TIP3    H117084   2.151   1.512   0.150
 5713TIP3    H217085   2.053   1.445   0.056
 5714TIP3   OH217086   0.481   1.063   0.836
 5714TIP3    H117087   0.500   1.041   0.745
 5714TIP3    H217088   0.533   1.141   0.853
 5715TIP3   OH217089   4.708   0.488   4.930
 5715TIP3    H117090   4.657   0.550   4.982
 5715TIP3    H217091   4.709   0.525   4.842
 5716TIP3   OH217092   5.815   5.338   2.431
 5716TIP3    H117093   5.837   5.355   2.339
 5716TIP3    H217094   5.815   5.242   2.438
 5717TIP3   OH217095   2.533   6.025   5.112
 5717TIP3    H117096   2.535   6.076   5.193
 5717TIP3    H217097   2.620   6.038   5.073
 5718TIP3   OH217098   7.547   2.519   1.508
 5718TIP3    H117099   7.596   2.438   1.519
 5718TIP3    H217100   7.612   2.588   1.520
 5719TIP3   OH217101   2.940   0.516   3.386
 5719TIP3    H117102   2.932   0.426   3.353
 5719TIP3    H217103   2.888   0.516   3.467
 5720TIP3   OH217104   4.654   7.330   1.478
 5720TIP3    H117105   4.661   7.235   1.469
 5720TIP3    H217106   4.700   7.365   1.402
 5721TIP3   OH217107   5.939   5.949   5.513
 5721TIP3    H117108   5.929   6.010   5.440
 5721TIP3    H217109   5.884   5.986   5.583
 5722TIP3   OH217110   5.078   4.191   6.681
 5722TIP3    H117111   5.032   4.201   6.598
 5722TIP3    H217112   5.166   4.162   6.656
 5723TIP3   OH217113   5.978   3.173   5.648
 5723TIP3    H117114   6.019   3.182   5.734
 5723TIP3    H217115   6.030   3.228   5.590
 5724TIP3   OH217116   4.217   0.306   6.180
 5724TIP3    H117117   4.145   0.277   6.236
 5724TIP3    H217118   4.252   0.226   6.142
 5725TIP3   OH217119   4.609   1.639   1.396
 5725TIP3    H117120   4.619   1.675   1.484
 5725TIP3    H217121   4.613   1.715   1.338
 5726TIP3   OH217122   6.171   5.597   4.341
 5726TIP3    H117123   6.146   5.686   4.316
 5726TIP3    H217124   6.097   5.543   4.311
 5727TIP3   OH217125   5.499   6.861   6.256
 5727TIP3    H117126   5.512   6.899   6.343
 5727TIP3    H217127   5.405   6.868   6.240
 5728TIP3   OH217128   5.108   3.301   1.993
 5728TIP3    H117129   5.070   3.350   1.921
 5728TIP3    H217130   5.038   3.297   2.059
 5729TIP3   OH217131   3.807   1.000   2.936
 5729TIP3    H117132   3.831   0.907   2.934
 5729TIP3    H217133   3.768   1.016   2.850
 5730TIP3   OH217134   7.599   5.016   4.833
 5730TIP3    H117135   7.551   5.079   4.888
 5730TIP3    H217136   7.687   5.052   4.827
 5731TIP3   OH217137   3.205   3.540   4.069
 5731TIP3    H117138   3.179   3.461   4.117
 5731TIP3    H217139   3.165   3.612   4.118
 5732TIP3   OH217140   3.721   1.431   6.762
 5732TIP3    H117141   3.787   1.463   6.701
 5732TIP3    H217142   3.730   1.336   6.760
 5733TIP3   OH217143   5.107   0.713   5.129
 5733TIP3    H117144   5.111   0.809   5.131
 5733TIP3    H217145   5.176   0.685   5.189
 5734TIP3   OH217146   5.158   2.492   2.874
 5734TIP3    H117147   5.185   2.485   2.782
 5734TIP3    H217148   5.079   2.546   2.872
 5735TIP3   OH217149   8.055   1.382   2.471
 5735TIP3    H117150   8.130   1.335   2.509
 5735TIP3    H217151   7.979   1.328   2.495
 5736TIP3   OH217152   3.407   2.699   2.371
 5736TIP3    H117153   3.328   2.752   2.383
 5736TIP3    H217154   3.390   2.651   2.290
 5737TIP3   OH217155   0.959   1.020   2.020
 5737TIP3    H117156   1.048   1.051   2.037
 5737TIP3    H217157   0.951   0.939   2.070
 5738TIP3   OH217158   0.267   2.185   5.043
 5738TIP3    H117159   0.330   2.140   4.987
 5738TIP3    H217160   0.303   2.274   5.052
 5739TIP3   OH217161   4.197   7.789   1.612
 5739TIP3    H117162   4.227   7.737   1.537
 5739TIP3    H217163   4.228   7.741   1.689
 5740TIP3   OH217164   0.369   5.178   1.864
 5740TIP3    H117165   0.430   5.134   1.924
 5740TIP3    H217166   0.413   5.175   1.779
 5741TIP3   OH217167   0.921   0.207   3.056
 5741TIP3    H117168   0.952   0.116   3.057
 5741TIP3    H217169   0.843   0.205   3.001
 5742TIP3   OH217170   4.930   4.292   4.309
 5742TIP3    H117171   4.910   4.249   4.226
 5742TIP3    H217172   4.864   4.258   4.370
 5743TIP3   OH217173   1.361   7.067   1.698
 5743TIP3    H117174   1.359   7.122   1.619
 5743TIP3    H217175   1.419   6.995   1.675
 5744TIP3   OH217176   7.626   1.399   4.689
 5744TIP3    H117177   7.629   1.494   4.700
 5744TIP3    H217178   7.706   1.379   4.641
 5745TIP3   OH217179   2.575   4.668   1.989
 5745TIP3    H117180   2.495   4.662   1.936
 5745TIP3    H217181   2.644   4.688   1.927
 5746TIP3   OH217182   6.499   5.194   5.553
 5746TIP3    H117183   6.507   5.171   5.461
 5746TIP3    H217184   6.548   5.125   5.599
 5747TIP3   OH217185   0.361   7.241   1.305
 5747TIP3    H117186   0.314   7.270   1.383
 5747TIP3    H217187   0.438   7.195   1.340
 5748TIP3   OH217188   4.784   2.492   5.341
 5748TIP3    H117189   4.833   2.485   5.260
 5748TIP3    H217190   4.810   2.576   5.379
 5749TIP3   OH217191   7.654   1.733   1.694
 5749TIP3    H117192   7.581   1.752   1.636
 5749TIP3    H217193   7.638   1.788   1.771
 5750TIP3   OH217194   6.463   1.145   1.517
 5750TIP3    H117195   6.547   1.150   1.472
 5750TIP3    H217196   6.412   1.218   1.480
 5751TIP3   OH217197   3.844   3.323   4.661
 5751TIP3    H117198   3.842   3.409   4.704
 5751TIP3    H217199   3.929   3.286   4.686
 5752TIP3   OH217200   7.041   3.441   6.227
 5752TIP3    H117201   6.993   3.404   6.301
 5752TIP3    H217202   6.973   3.472   6.167
 5753TIP3   OH217203   8.232   3.165   6.741
 5753TIP3    H117204   8.273   3.246   6.771
 5753TIP3    H217205   8.271   3.149   6.655
 5754TIP3   OH217206   2.673   1.363   2.001
 5754TIP3    H117207   2.689   1.352   2.095
 5754TIP3    H217208   2.760   1.376   1.963
 5755TIP3   OH217209   2.934   0.576   0.914
 5755TIP3    H117210   2.852   0.602   0.871
 5755TIP3    H217211   2.951   0.487   0.881
 5756TIP3   OH217212   7.722   6.668   1.277
 5756TIP3    H117213   7.650   6.611   1.304
 5756TIP3    H217214   7.682   6.754   1.264
 5757TIP3   OH217215   7.524   6.047   0.922
 5757TIP3    H117216   7.544   5.974   0.863
 5757TIP3    H217217   7.507   6.121   0.863
 5758TIP3   OH217218   5.996   5.825   1.577
 5758TIP3    H117219   5.999   5.866   1.664
 5758TIP3    H217220   6.059   5.753   1.583
 5759TIP3   OH217221   6.889   0.939   3.937
 5759TIP3    H117222   6.924   0.982   4.015
 5759TIP3    H217223   6.963   0.889   3.902
 5760TIP3   OH217224   3.227   2.765   0.481
 5760TIP3    H117225   3.156   2.756   0.418
 5760TIP3    H217226   3.199   2.714   0.557
 5761TIP3   OH217227   5.035   0.261   0.787
 5761TIP3    H117228   4.978   0.194   0.826
 5761TIP3    H217229   5.001   0.272   0.698
 5762TIP3   OH217230   2.256   3.611   0.739
 5762TIP3    H117231   2.304   3.599   0.821
 5762TIP3    H217232   2.317   3.658   0.682
 5763TIP3   OH217233   2.291   1.265   5.217
 5763TIP3    H117234   2.362   1.230   5.271
 5763TIP3    H217235   2.327   1.346   5.179
 5764TIP3   OH217236   0.504   1.133   4.613
 5764TIP3    H117237   0.415   1.114   4.644
 5764TIP3    H217238   0.541   1.191   4.679
 5765TIP3   OH217239   8.080   3.877   1.917
 5765TIP3    H117240   8.122   3.822   1.984
 5765TIP3    H217241   8.068   3.818   1.843
 5766TIP3   OH217242   5.776   2.650   5.671
 5766TIP3    H117243   5.855   2.614   5.630
 5766TIP3    H217244   5.770   2.739   5.637
 5767TIP3   OH217245   6.896   0.927   0.738
 5767TIP3    H117246   6.939   0.951   0.656
 5767TIP3    H217247   6.842   1.002   0.761
 5768TIP3   OH217248   7.803   1.519   6.026
 5768TIP3    H117249   7.802   1.433   6.068
 5768TIP3    H217250   7.774   1.503   5.936
 5769TIP3   OH217251   6.952   0.683   0.073
 5769TIP3    H117252   6.930   0.774   0.057
 5769TIP3    H217253   6.987   0.651  -0.010
 5770TIP3   OH217254   3.634   3.103   0.294
 5770TIP3    H117255   3.660   3.065   0.210
 5770TIP3    H217256   3.543   3.078   0.305
 5771TIP3   OH217257   8.223   1.090   5.683
 5771TIP3    H117258   8.304   1.046   5.709
 5771TIP3    H217259   8.166   1.018   5.655
 5772TIP3   OH217260   5.758   3.131   5.481
 5772TIP3    H117261   5.839   3.176   5.508
 5772TIP3    H217262   5.712   3.113   5.562
 5773TIP3   OH217263   2.906   1.457   3.492
 5773TIP3    H117264   2.833   1.502   3.448
 5773TIP3    H217265   2.906   1.369   3.454
 5774TIP3   OH217266   0.347   6.239   0.819
 5774TIP3    H117267   0.344   6.144   0.820
 5774TIP3    H217268   0.427   6.262   0.867
 5775TIP3   OH217269   6.043   3.754   2.690
 5775TIP3    H117270   6.126   3.773   2.733
 5775TIP3    H217271   5.989   3.712   2.757
 5776TIP3   OH217272   1.454   7.205   3.953
 5776TIP3    H117273   1.425   7.122   3.914
 5776TIP3    H217274   1.373   7.253   3.969
 5777TIP3   OH217275   0.327   3.836   0.707
 5777TIP3    H117276   0.293   3.925   0.701
 5777TIP3    H217277   0.373   3.822   0.624
 5778TIP3   OH217278   7.202   3.562   5.567
 5778TIP3    H117279   7.243   3.527   5.646
 5778TIP3    H217280   7.193   3.486   5.510
 5779TIP3   OH217281   1.222   2.204   5.033
 5779TIP3    H117282   1.218   2.147   4.956
 5779TIP3    H217283   1.171   2.281   5.009
 5780TIP3   OH217284   1.128   2.241   0.220
 5780TIP3    H117285   1.188   2.256   0.293
 5780TIP3    H217286   1.090   2.327   0.202
 5781TIP3   OH217287   4.847   0.237   2.677
 5781TIP3    H117288   4.761   0.277   2.695
 5781TIP3    H217289   4.837   0.198   2.590
 5782TIP3   OH217290   7.683   1.033   3.491
 5782TIP3    H117291   7.624   1.051   3.564
 5782TIP3    H217292   7.710   0.942   3.502
 5783TIP3   OH217293   0.353   1.727   3.223
 5783TIP3    H117294   0.357   1.781   3.144
 5783TIP3    H217295   0.353   1.637   3.190
 5784TIP3   OH217296   4.702   4.819   5.625
 5784TIP3    H117297   4.656   4.892   5.668
 5784TIP3    H217298   4.634   4.773   5.577
 5785TIP3   OH217299   5.054   0.949   4.352
 5785TIP3    H117300   5.147   0.932   4.343
 5785TIP3    H217301   5.040   0.958   4.446
 5786TIP3   OH217302   7.057   3.930   0.164
 5786TIP3    H117303   7.092   3.928   0.253
 5786TIP3    H217304   7.134   3.943   0.108
 5787TIP3   OH217305   4.359   6.998   2.755
 5787TIP3    H117306   4.305   6.920   2.746
 5787TIP3    H217307   4.439   6.977   2.707
 5788TIP3   OH217308   6.974   2.363   4.842
 5788TIP3    H117309   7.036   2.369   4.914
 5788TIP3    H217310   7.004   2.288   4.790
 5789TIP3   OH217311   4.176   3.976   0.212
 5789TIP3    H117312   4.222   3.942   0.135
 5789TIP3    H217313   4.211   3.925   0.285
 5790TIP3   OH217314   6.818   6.569   4.092
 5790TIP3    H117315   6.909   6.597   4.086
 5790TIP3    H217316   6.800   6.564   4.186
 5791TIP3   OH217317   1.104   3.951   5.546
 5791TIP3    H117318   1.070   4.031   5.507
 5791TIP3    H217319   1.141   3.902   5.472
 5792TIP3   OH217320   2.834   3.495   5.888
 5792TIP3    H117321   2.852   3.579   5.930
 5792TIP3    H217322   2.743   3.476   5.910
 5793TIP3   OH217323   7.358   7.527   3.146
 5793TIP3    H117324   7.270   7.506   3.115
 5793TIP3    H217325   7.344   7.590   3.217
 5794TIP3   OH217326   7.122   3.294   2.882
 5794TIP3    H117327   7.127   3.235   2.958
 5794TIP3    H217328   7.101   3.379   2.920
 5795TIP3   OH217329   5.179   1.048   0.418
 5795TIP3    H117330   5.187   1.080   0.508
 5795TIP3    H217331   5.156   1.126   0.367
 5796TIP3   OH217332   3.716   1.216   1.170
 5796TIP3    H117333   3.714   1.179   1.082
 5796TIP3    H217334   3.809   1.231   1.188
 5797TIP3   OH217335   3.709   6.585   6.076
 5797TIP3    H117336   3.730   6.567   5.985
 5797TIP3    H217337   3.788   6.563   6.124
 5798TIP3   OH217338   5.058   2.021   6.469
 5798TIP3    H117339   5.138   2.018   6.521
 5798TIP3    H217340   4.995   1.970   6.520
 5799TIP3   OH217341   2.689   4.757   2.221
 5799TIP3    H117342   2.677   4.711   2.139
 5799TIP3    H217343   2.784   4.762   2.233
 5800TIP3   OH217344   6.074   4.872   4.467
 5800TIP3    H117345   5.995   4.914   4.434
 5800TIP3    H217346   6.146   4.920   4.425
 5801TIP3   OH217347   0.842   6.909   3.961
 5801TIP3    H117348   0.884   6.984   3.919
 5801TIP3    H217349   0.783   6.875   3.894
 5802TIP3   OH217350   5.165   5.037   2.373
 5802TIP3    H117351   5.103   5.077   2.311
 5802TIP3    H217352   5.248   5.036   2.326
 5803TIP3   OH217353   7.130   2.205   4.510
 5803TIP3    H117354   7.168   2.118   4.505
 5803TIP3    H217355   7.205   2.263   4.522
 5804TIP3   OH217356   0.392   0.569   0.227
 5804TIP3    H117357   0.451   0.582   0.301
 5804TIP3    H217358   0.419   0.634   0.162
 5805TIP3   OH217359   5.302   7.280   4.152
 5805TIP3    H117360   5.333   7.201   4.196
 5805TIP3    H217361   5.381   7.331   4.136
 5806TIP3   OH217362   1.080   2.389   1.601
 5806TIP3    H117363   1.119   2.305   1.576
 5806TIP3    H217364   1.150   2.453   1.585
 5807TIP3   OH217365   5.742   0.214   1.562
 5807TIP3    H117366   5.683   0.255   1.625
 5807TIP3    H217367   5.687   0.199   1.485
 5808TIP3   OH217368   6.294   0.881   6.167
 5808TIP3    H117369   6.344   0.805   6.136
 5808TIP3    H217370   6.337   0.906   6.249
 5809TIP3   OH217371   6.876   3.019   4.329
 5809TIP3    H117372   6.787   3.022   4.295
 5809TIP3    H217373   6.927   3.071   4.267
 5810TIP3   OH217374   1.527   7.392   4.306
 5810TIP3    H117375   1.483   7.307   4.307
 5810TIP3    H217376   1.469   7.449   4.355
 5811TIP3   OH217377   2.093   2.211   5.684
 5811TIP3    H117378   2.009   2.167   5.692
 5811TIP3    H217379   2.157   2.140   5.679
 5812TIP3   OH217380   5.553   2.218   3.295
 5812TIP3    H117381   5.573   2.272   3.372
 5812TIP3    H217382   5.460   2.231   3.279
 5813TIP3   OH217383   1.837   2.490   4.882
 5813TIP3    H117384   1.839   2.579   4.918
 5813TIP3    H217385   1.887   2.438   4.945
 5814TIP3   OH217386   1.232   3.759   6.515
 5814TIP3    H117387   1.231   3.676   6.562
 5814TIP3    H217388   1.325   3.774   6.496
 5815TIP3   OH217389   3.005   7.029   6.609
 5815TIP3    H117390   2.931   7.039   6.549
 5815TIP3    H217391   3.081   7.058   6.559
 5816TIP3   OH217392   1.860   5.070   6.435
 5816TIP3    H117393   1.896   5.021   6.509
 5816TIP3    H217394   1.927   5.136   6.416
 5817TIP3   OH217395   6.862   2.875   5.313
 5817TIP3    H117396   6.892   2.944   5.373
 5817TIP3    H217397   6.859   2.918   5.227
 5818TIP3   OH217398   4.555   0.726   2.835
 5818TIP3    H117399   4.604   0.798   2.874
 5818TIP3    H217400   4.553   0.746   2.741
 5819TIP3   OH217401   6.401   5.985   0.833
 5819TIP3    H117402   6.440   6.071   0.849
 5819TIP3    H217403   6.343   5.999   0.758
 5820TIP3   OH217404   2.917   0.878   5.082
 5820TIP3    H117405   2.905   0.801   5.026
 5820TIP3    H217406   3.012   0.890   5.087
 5821TIP3   OH217407   2.438   2.233   0.432
 5821TIP3    H117408   2.507   2.240   0.366
 5821TIP3    H217409   2.357   2.245   0.383
 5822TIP3   OH217410   7.308   4.802   6.182
 5822TIP3    H117411   7.382   4.851   6.145
 5822TIP3    H217412   7.231   4.844   6.144
 5823TIP3   OH217413   4.329   3.869   0.456
 5823TIP3    H117414   4.366   3.941   0.507
 5823TIP3    H217415   4.286   3.813   0.521
 5824TIP3   OH217416   2.407   0.743   5.605
 5824TIP3    H117417   2.449   0.662   5.636
 5824TIP3    H217418   2.367   0.780   5.684
 5825TIP3   OH217419   6.667   3.715   5.579
 5825TIP3    H117420   6.598   3.776   5.553
 5825TIP3    H217421   6.746   3.750   5.537
 5826TIP3   OH217422   4.882   5.954   4.978
 5826TIP3    H117423   4.914   6.002   4.901
 5826TIP3    H217424   4.929   5.871   4.976
 5827TIP3   OH217425   0.520   0.477   1.919
 5827TIP3    H117426   0.505   0.471   2.013
 5827TIP3    H217427   0.610   0.509   1.911
 5828TIP3   OH217428   0.291   4.567   1.570
 5828TIP3    H117429   0.308   4.581   1.663
 5828TIP3    H217430   0.374   4.589   1.527
 5829TIP3   OH217431   3.128   3.358   6.470
 5829TIP3    H117432   3.061   3.426   6.465
 5829TIP3    H217433   3.210   3.406   6.473
 5830TIP3   OH217434   1.898   1.405   2.965
 5830TIP3    H117435   1.817   1.405   2.913
 5830TIP3    H217436   1.944   1.484   2.936
 5831TIP3   OH217437   4.442   5.602   5.271
 5831TIP3    H117438   4.417   5.680   5.322
 5831TIP3    H217439   4.536   5.613   5.255
 5832TIP3   OH217440   6.351   7.116   0.739
 5832TIP3    H117441   6.328   7.173   0.813
 5832TIP3    H217442   6.276   7.122   0.680
 5833TIP3   OH217443   2.436   4.468   1.328
 5833TIP3    H117444   2.429   4.522   1.249
 5833TIP3    H217445   2.346   4.461   1.360
 5834TIP3   OH217446   1.676   3.401   2.985
 5834TIP3    H117447   1.764   3.438   2.985
 5834TIP3    H217448   1.642   3.421   2.898
 5835TIP3   OH217449   0.919   1.369   6.266
 5835TIP3    H117450   0.921   1.295   6.206
 5835TIP3    H217451   1.002   1.414   6.251
 5836TIP3   OH217452   3.560   7.118   6.368
 5836TIP3    H117453   3.523   7.182   6.308
 5836TIP3    H217454   3.514   7.037   6.348
 5837TIP3   OH217455   6.071   2.839   6.556
 5837TIP3    H117456   6.031   2.787   6.625
 5837TIP3    H217457   6.013   2.914   6.544
 5838TIP3   OH217458   5.359   3.324   0.196
 5838TIP3    H117459   5.414   3.246   0.205
 5838TIP3    H217460   5.354   3.340   0.102
 5839TIP3   OH217461   1.714   0.697   2.209
 5839TIP3    H117462   1.771   0.727   2.280
 5839TIP3    H217463   1.688   0.777   2.164
 5840TIP3   OH217464   7.124   6.180   5.217
 5840TIP3    H117465   7.181   6.191   5.141
 5840TIP3    H217466   7.087   6.267   5.232
 5841TIP3   OH217467   2.206   3.661   3.086
 5841TIP3    H117468   2.232   3.746   3.048
 5841TIP3    H217469   2.178   3.609   3.011
 5842TIP3   OH217470   7.037   6.962   4.451
 5842TIP3    H117471   7.074   7.051   4.445
 5842TIP3    H217472   6.978   6.967   4.526
 5843TIP3   OH217473   5.862   1.041   0.767
 5843TIP3    H117474   5.918   1.117   0.747
 5843TIP3    H217475   5.806   1.071   0.838
 5844TIP3   OH217476   7.811   3.057   4.940
 5844TIP3    H117477   7.740   3.060   4.877
 5844TIP3    H217478   7.820   3.148   4.969
 5845TIP3   OH217479   0.232   4.499   2.993
 5845TIP3    H117480   0.232   4.546   2.910
 5845TIP3    H217481   0.141   4.505   3.024
 5846TIP3   OH217482   4.115   3.931   3.264
 5846TIP3    H117483   4.192   3.955   3.316
 5846TIP3    H217484   4.103   3.837   3.282
 5847TIP3   OH217485   0.345   6.217   3.168
 5847TIP3    H117486   0.311   6.139   3.125
 5847TIP3    H217487   0.394   6.263   3.100
 5848TIP3   OH217488   7.361   5.283   6.723
 5848TIP3    H117489   7.423   5.352   6.746
 5848TIP3    H217490   7.414   5.203   6.718
 5849TIP3   OH217491   3.358   6.850   4.959
 5849TIP3    H117492   3.329   6.903   4.885
 5849TIP3    H217493   3.281   6.800   4.985
 5850TIP3   OH217494   1.224   5.547   4.073
 5850TIP3    H117495   1.254   5.545   4.163
 5850TIP3    H217496   1.223   5.456   4.045
 5851TIP3   OH217497   5.430   5.573   2.923
 5851TIP3    H117498   5.465   5.594   3.009
 5851TIP3    H217499   5.381   5.491   2.936
 5852TIP3   OH217500   0.443   6.379   5.338
 5852TIP3    H117501   0.492   6.408   5.415
 5852TIP3    H217502   0.363   6.340   5.374
 5853TIP3   OH217503   6.136   6.548   3.082
 5853TIP3    H117504   6.070   6.616   3.066
 5853TIP3    H217505   6.220   6.592   3.069
 5854TIP3   OH217506   6.688   6.957   5.158
 5854TIP3    H117507   6.688   6.887   5.092
 5854TIP3    H217508   6.777   6.957   5.192
 5855TIP3   OH217509   0.216   4.861   2.068
 5855TIP3    H117510   0.139   4.850   2.125
 5855TIP3    H217511   0.290   4.838   2.124
 5856TIP3   OH217512   0.595   5.419   3.765
 5856TIP3    H117513   0.568   5.366   3.690
 5856TIP3    H217514   0.590   5.509   3.734
 5857TIP3   OH217515   2.158   7.110   4.371
 5857TIP3    H117516   2.182   7.202   4.376
 5857TIP3    H217517   2.144   7.094   4.277
 5858TIP3   OH217518   4.718   3.012   1.861
 5858TIP3    H117519   4.724   3.069   1.938
 5858TIP3    H217520   4.798   2.959   1.865
 5859TIP3   OH217521   3.176   3.403   0.796
 5859TIP3    H117522   3.228   3.484   0.793
 5859TIP3    H217523   3.211   3.355   0.871
 5860TIP3   OH217524   8.278   3.387   4.267
 5860TIP3    H117525   8.230   3.430   4.196
 5860TIP3    H217526   8.214   3.379   4.337
 5861TIP3   OH217527   2.839   6.325   0.826
 5861TIP3    H117528   2.845   6.420   0.833
 5861TIP3    H217529   2.894   6.303   0.751
 5862TIP3   OH217530   1.356   0.229   3.511
 5862TIP3    H117531   1.377   0.321   3.495
 5862TIP3    H217532   1.266   0.219   3.480
 5863TIP3   OH217533   0.777   4.770   2.091
 5863TIP3    H117534   0.715   4.697   2.092
 5863TIP3    H217535   0.775   4.803   2.181
 5864TIP3   OH217536   4.611   6.396   4.731
 5864TIP3    H117537   4.533   6.431   4.687
 5864TIP3    H217538   4.646   6.470   4.779
 5865TIP3   OH217539   0.889   6.429   6.612
 5865TIP3    H117540   0.933   6.513   6.603
 5865TIP3    H217541   0.810   6.438   6.559
 5866TIP3   OH217542   5.349   3.065   5.989
 5866TIP3    H117543   5.341   2.970   5.980
 5866TIP3    H217544   5.258   3.096   5.996
 5867TIP3   OH217545   6.957   1.125   1.476
 5867TIP3    H117546   6.908   1.196   1.518
 5867TIP3    H217547   6.890   1.060   1.453
 5868TIP3   OH217548   7.414   2.376   4.843
 5868TIP3    H117549   7.458   2.330   4.772
 5868TIP3    H217550   7.409   2.467   4.813
 5869TIP3   OH217551   0.557   6.834   0.398
 5869TIP3    H117552   0.569   6.925   0.373
 5869TIP3    H217553   0.469   6.831   0.436
 5870TIP3   OH217554   6.868   2.741   3.988
 5870TIP3    H117555   6.828   2.655   3.980
 5870TIP3    H217556   6.891   2.766   3.899
 5871TIP3   OH217557   1.980   6.238   1.510
 5871TIP3    H117558   1.915   6.228   1.579
 5871TIP3    H217559   1.966   6.325   1.474
 5872TIP3   OH217560   2.494   6.370   3.015
 5872TIP3    H117561   2.570   6.429   3.016
 5872TIP3    H217562   2.521   6.296   3.069
 5873TIP3   OH217563   2.812   3.918   5.311
 5873TIP3    H117564   2.782   3.887   5.396
 5873TIP3    H217565   2.845   4.006   5.328
 5874TIP3   OH217566   7.845   1.664   1.314
 5874TIP3    H117567   7.893   1.621   1.385
 5874TIP3    H217568   7.786   1.725   1.359
 5875TIP3   OH217569   1.797   6.138   6.176
 5875TIP3    H117570   1.729   6.184   6.126
 5875TIP3    H217571   1.874   6.139   6.119
 5876TIP3   OH217572   3.616   4.932   1.918
 5876TIP3    H117573   3.567   4.975   1.988
 5876TIP3    H217574   3.638   5.002   1.857
 5877TIP3   OH217575   6.509   0.636   5.529
 5877TIP3    H117576   6.414   0.631   5.534
 5877TIP3    H217577   6.532   0.712   5.583
 5878TIP3   OH217578   2.292   7.452   1.391
 5878TIP3    H117579   2.376   7.458   1.347
 5878TIP3    H217580   2.257   7.541   1.388
 5879TIP3   OH217581   0.521   7.400   6.086
 5879TIP3    H117582   0.551   7.376   6.174
 5879TIP3    H217583   0.594   7.447   6.047
 5880TIP3   OH217584   1.178   7.694   0.042
 5880TIP3    H117585   1.106   7.699   0.104
 5880TIP3    H217586   1.257   7.708   0.096
 5881TIP3   OH217587   6.503   7.760   3.141
 5881TIP3    H117588   6.472   7.794   3.225
 5881TIP3    H217589   6.540   7.674   3.162
 5882TIP3   OH217590   2.794   6.385   6.568
 5882TIP3    H117591   2.845   6.416   6.642
 5882TIP3    H217592   2.712   6.436   6.572
 5883TIP3   OH217593   4.359   7.231   2.188
 5883TIP3    H117594   4.346   7.192   2.274
 5883TIP3    H217595   4.307   7.311   2.189
 5884TIP3   OH217596   6.023   4.242   4.133
 5884TIP3    H117597   5.981   4.169   4.178
 5884TIP3    H217598   6.101   4.260   4.186
 5885TIP3   OH217599  -0.049   2.833   4.111
 5885TIP3    H117600   0.032   2.784   4.095
 5885TIP3    H217601  -0.103   2.774   4.164
 5886TIP3   OH217602   5.673   6.311   1.189
 5886TIP3    H117603   5.696   6.395   1.148
 5886TIP3    H217604   5.725   6.246   1.143
 5887TIP3   OH217605   1.904   3.102   3.044
 5887TIP3    H117606   1.918   3.190   3.078
 5887TIP3    H217607   1.885   3.115   2.951
 5888TIP3   OH217608   1.076   0.873   1.736
 5888TIP3    H117609   1.025   0.835   1.807
 5888TIP3    H217610   1.105   0.958   1.770
 5889TIP3   OH217611   0.530   3.228   4.680
 5889TIP3    H117612   0.453   3.187   4.718
 5889TIP3    H217613   0.520   3.218   4.586
 5890TIP3   OH217614   1.016   3.974   1.929
 5890TIP3    H117615   1.063   3.928   1.860
 5890TIP3    H217616   1.009   4.065   1.898
 5891TIP3   OH217617   7.280   4.605   3.635
 5891TIP3    H117618   7.282   4.627   3.728
 5891TIP3    H217619   7.267   4.510   3.634
 5892TIP3   OH217620   1.455   2.130   2.231
 5892TIP3    H117621   1.375   2.082   2.206
 5892TIP3    H217622   1.501   2.145   2.149
 5893TIP3   OH217623   1.633   4.950   6.538
 5893TIP3    H117624   1.709   5.002   6.515
 5893TIP3    H217625   1.568   5.013   6.569
 5894TIP3   OH217626   5.096   5.949   0.340
 5894TIP3    H117627   5.138   5.996   0.412
 5894TIP3    H217628   5.018   5.909   0.379
 5895TIP3   OH217629   8.197   5.589   0.649
 5895TIP3    H117630   8.239   5.639   0.718
 5895TIP3    H217631   8.106   5.578   0.678
 5896TIP3   OH217632   5.673   5.841   5.975
 5896TIP3    H117633   5.748   5.857   5.918
 5896TIP3    H217634   5.695   5.759   6.020
 5897TIP3   OH217635   1.608   2.756   1.961
 5897TIP3    H117636   1.544   2.742   2.031
 5897TIP3    H217637   1.678   2.807   2.001
 5898TIP3   OH217638   7.482   0.820   2.792
 5898TIP3    H117639   7.434   0.814   2.875
 5898TIP3    H217640   7.488   0.914   2.774
 5899TIP3   OH217641   6.348   3.637   2.311
 5899TIP3    H117642   6.321   3.625   2.220
 5899TIP3    H217643   6.268   3.663   2.356
 5900TIP3   OH217644   6.243   6.250   4.177
 5900TIP3    H117645   6.200   6.174   4.137
 5900TIP3    H217646   6.211   6.325   4.129
 5901TIP3   OH217647   6.655   3.642   4.829
 5901TIP3    H117648   6.654   3.734   4.857
 5901TIP3    H217649   6.747   3.625   4.808
 5902TIP3   OH217650   7.766   2.310   3.252
 5902TIP3    H117651   7.807   2.224   3.241
 5902TIP3    H217652   7.840   2.370   3.268
 5903TIP3   OH217653   0.888   7.233   0.699
 5903TIP3    H117654   0.887   7.321   0.663
 5903TIP3    H217655   0.839   7.240   0.781
 5904TIP3   OH217656   6.232   0.953   1.439
 5904TIP3    H117657   6.315   0.991   1.469
 5904TIP3    H217658   6.176   1.029   1.421
 5905TIP3   OH217659   0.119   1.881   3.242
 5905TIP3    H117660   0.058   1.810   3.222
 5905TIP3    H217661   0.204   1.837   3.250
 5906TIP3   OH217662   5.006   1.253   0.584
 5906TIP3    H117663   4.993   1.341   0.619
 5906TIP3    H217664   4.944   1.198   0.631
 5907TIP3   OH217665   6.628   7.515   3.975
 5907TIP3    H117666   6.656   7.606   3.985
 5907TIP3    H217667   6.666   7.470   4.052
 5908TIP3   OH217668   3.270   0.556   3.827
 5908TIP3    H117669   3.298   0.565   3.918
 5908TIP3    H217670   3.230   0.469   3.824
 5909TIP3   OH217671   6.454   4.611   2.251
 5909TIP3    H117672   6.421   4.605   2.161
 5909TIP3    H217673   6.434   4.701   2.278
 5910TIP3   OH217674   4.984   5.001   5.645
 5910TIP3    H117675   5.011   5.019   5.735
 5910TIP3    H217676   4.986   4.906   5.638
 5911TIP3   OH217677   0.523   5.471   5.173
 5911TIP3    H117678   0.506   5.443   5.263
 5911TIP3    H217679   0.595   5.415   5.144
 5912TIP3   OH217680   4.441   7.728   1.399
 5912TIP3    H117681   4.429   7.822   1.389
 5912TIP3    H217682   4.536   7.717   1.403
 5913TIP3   OH217683   5.155   5.557   2.705
 5913TIP3    H117684   5.193   5.520   2.785
 5913TIP3    H217685   5.179   5.496   2.636
 5914TIP3   OH217686   5.175   3.986   0.361
 5914TIP3    H117687   5.244   4.051   0.376
 5914TIP3    H217688   5.118   3.994   0.437
 5915TIP3   OH217689   5.988   0.217   5.510
 5915TIP3    H117690   6.069   0.194   5.465
 5915TIP3    H217691   5.926   0.148   5.487
 5916TIP3   OH217692   5.189   4.096   5.360
 5916TIP3    H117693   5.222   4.023   5.413
 5916TIP3    H217694   5.138   4.149   5.421
 5917TIP3   OH217695   4.332   0.773   2.329
 5917TIP3    H117696   4.300   0.787   2.240
 5917TIP3    H217697   4.339   0.678   2.338
 5918TIP3   OH217698   4.271   5.626   0.697
 5918TIP3    H117699   4.346   5.676   0.665
 5918TIP3    H217700   4.195   5.667   0.655
 5919TIP3   OH217701   1.300   1.183   5.819
 5919TIP3    H117702   1.304   1.214   5.910
 5919TIP3    H217703   1.296   1.088   5.826
 5920TIP3   OH217704   1.702   2.178   0.317
 5920TIP3    H117705   1.672   2.087   0.327
 5920TIP3    H217706   1.638   2.230   0.366
 5921TIP3   OH217707   0.436   0.880   2.617
 5921TIP3    H117708   0.417   0.845   2.530
 5921TIP3    H217709   0.385   0.960   2.623
 5922TIP3   OH217710   0.057   6.267   6.481
 5922TIP3    H117711   0.083   6.359   6.494
 5922TIP3    H217712   0.128   6.216   6.521
 5923TIP3   OH217713   4.446   6.926   4.359
 5923TIP3    H117714   4.381   6.941   4.427
 5923TIP3    H217715   4.528   6.958   4.397
 5924TIP3   OH217716   7.601   3.072   3.361
 5924TIP3    H117717   7.577   2.992   3.408
 5924TIP3    H217718   7.526   3.089   3.304
 5925TIP3   OH217719   4.264   1.070   3.491
 5925TIP3    H117720   4.239   1.151   3.447
 5925TIP3    H217721   4.360   1.069   3.488
 5926TIP3   OH217722   5.786   6.659   5.582
 5926TIP3    H117723   5.728   6.729   5.612
 5926TIP3    H217724   5.750   6.580   5.622
 5927TIP3   OH217725   4.398   2.423   2.486
 5927TIP3    H117726   4.375   2.339   2.524
 5927TIP3    H217727   4.325   2.444   2.428
 5928TIP3   OH217728   1.942   5.280   1.744
 5928TIP3    H117729   2.025   5.292   1.697
 5928TIP3    H217730   1.875   5.292   1.677
 5929TIP3   OH217731   5.417   2.700   3.506
 5929TIP3    H117732   5.512   2.698   3.501
 5929TIP3    H217733   5.392   2.609   3.524
 5930TIP3   OH217734   6.552   0.189   4.620
 5930TIP3    H117735   6.474   0.169   4.568
 5930TIP3    H217736   6.524   0.179   4.711
 5931TIP3   OH217737   5.545   5.163   4.635
 5931TIP3    H117738   5.520   5.072   4.653
 5931TIP3    H217739   5.465   5.205   4.607
 5932TIP3   OH217740   4.297   3.285   3.267
 5932TIP3    H117741   4.277   3.294   3.174
 5932TIP3    H217742   4.224   3.234   3.303
 5933TIP3   OH217743   7.306   2.866   6.122
 5933TIP3    H117744   7.259   2.938   6.162
 5933TIP3    H217745   7.269   2.787   6.162
 5934TIP3   OH217746   4.115   5.192   4.229
 5934TIP3    H117747   4.121   5.096   4.229
 5934TIP3    H217748   4.038   5.211   4.176
 5935TIP3   OH217749   4.749   3.581   0.415
 5935TIP3    H117750   4.764   3.493   0.451
 5935TIP3    H217751   4.748   3.638   0.491
 5936TIP3   OH217752   7.882   5.777   5.813
 5936TIP3    H117753   7.903   5.712   5.747
 5936TIP3    H217754   7.870   5.859   5.764
 5937TIP3   OH217755   1.639   7.344   5.914
 5937TIP3    H117756   1.631   7.373   5.823
 5937TIP3    H217757   1.709   7.278   5.912
 5938TIP3   OH217758   0.794   5.103   1.794
 5938TIP3    H117759   0.884   5.071   1.788
 5938TIP3    H217760   0.796   5.167   1.866
 5939TIP3   OH217761   5.707   6.053   4.004
 5939TIP3    H117762   5.732   6.049   3.912
 5939TIP3    H217763   5.746   5.975   4.043
 5940TIP3   OH217764   4.405   3.808   4.573
 5940TIP3    H117765   4.380   3.842   4.659
 5940TIP3    H217766   4.454   3.728   4.592
 5941TIP3   OH217767   8.216   6.624   4.011
 5941TIP3    H117768   8.207   6.611   4.105
 5941TIP3    H217769   8.277   6.697   4.002
 5942TIP3   OH217770   4.314   6.345   4.121
 5942TIP3    H117771   4.315   6.259   4.164
 5942TIP3    H217772   4.226   6.352   4.084
 5943TIP3   OH217773   2.769   1.549   4.460
 5943TIP3    H117774   2.816   1.519   4.382
 5943TIP3    H217775   2.725   1.629   4.431
 5944TIP3   OH217776   5.698   4.934   5.082
 5944TIP3    H117777   5.748   4.960   5.005
 5944TIP3    H217778   5.694   4.839   5.078
 5945TIP3   OH217779   0.903   6.604   2.008
 5945TIP3    H117780   0.841   6.538   2.040
 5945TIP3    H217781   0.975   6.602   2.071
 5946TIP3   OH217782   4.452   7.795   0.827
 5946TIP3    H117783   4.431   7.730   0.893
 5946TIP3    H217784   4.405   7.874   0.855
 5947TIP3   OH217785   4.863   1.701   4.360
 5947TIP3    H117786   4.936   1.758   4.383
 5947TIP3    H217787   4.801   1.711   4.432
 5948TIP3   OH217788   2.299   4.123   6.601
 5948TIP3    H117789   2.353   4.057   6.557
 5948TIP3    H217790   2.211   4.109   6.565
 5949TIP3   OH217791   5.425   0.725   1.380
 5949TIP3    H117792   5.478   0.672   1.440
 5949TIP3    H217793   5.398   0.801   1.432
 5950TIP3   OH217794   7.300   1.007   0.986
 5950TIP3    H117795   7.314   0.953   1.065
 5950TIP3    H217796   7.350   0.962   0.918
 5951TIP3   OH217797   3.789   7.160   6.562
 5951TIP3    H117798   3.717   7.185   6.504
 5951TIP3    H217799   3.791   7.228   6.629
 5952TIP3   OH217800   2.272   6.654   6.246
 5952TIP3    H117801   2.274   6.595   6.171
 5952TIP3    H217802   2.205   6.719   6.224
 5953TIP3   OH217803   5.675   2.105   4.139
 5953TIP3    H117804   5.766   2.102   4.169
 5953TIP3    H217805   5.671   2.038   4.070
 5954TIP3   OH217806   4.722   4.569   3.937
 5954TIP3    H117807   4.660   4.609   3.998
 5954TIP3    H217808   4.668   4.536   3.865
 5955TIP3   OH217809   5.319   5.442   1.844
 5955TIP3    H117810   5.341   5.349   1.844
 5955TIP3    H217811   5.375   5.480   1.912
 5956TIP3   OH217812   7.381   3.278   0.433
 5956TIP3    H117813   7.458   3.227   0.457
 5956TIP3    H217814   7.312   3.247   0.492
 5957TIP3   OH217815   5.544   0.890   3.896
 5957TIP3    H117816   5.507   0.910   3.810
 5957TIP3    H217817   5.586   0.805   3.886
 5958TIP3   OH217818   6.739   4.567   3.319
 5958TIP3    H117819   6.828   4.543   3.345
 5958TIP3    H217820   6.749   4.611   3.235
 5959TIP3   OH217821   2.116   2.505   3.887
 5959TIP3    H117822   2.103   2.501   3.982
 5959TIP3    H217823   2.211   2.510   3.876
 5960TIP3   OH217824   3.416   4.070   3.358
 5960TIP3    H117825   3.334   4.081   3.406
 5960TIP3    H217826   3.462   4.153   3.370
 5961TIP3   OH217827   4.039   4.382   3.937
 5961TIP3    H117828   3.990   4.376   4.019
 5961TIP3    H217829   4.069   4.293   3.921
 5962TIP3   OH217830   6.368   0.994   0.995
 5962TIP3    H117831   6.334   1.077   1.027
 5962TIP3    H217832   6.458   1.014   0.968
 5963TIP3   OH217833   7.841   2.780   4.260
 5963TIP3    H117834   7.888   2.741   4.186
 5963TIP3    H217835   7.904   2.777   4.332
 5964TIP3   OH217836   4.031   6.669   0.868
 5964TIP3    H117837   4.101   6.669   0.802
 5964TIP3    H217838   4.006   6.577   0.876
 5965TIP3   OH217839   8.126   6.202   2.268
 5965TIP3    H117840   8.145   6.139   2.338
 5965TIP3    H217841   8.060   6.159   2.214
 5966TIP3   OH217842   8.184   1.193   4.938
 5966TIP3    H117843   8.170   1.288   4.935
 5966TIP3    H217844   8.096   1.156   4.932
 5967TIP3   OH217845   4.781   4.567   5.537
 5967TIP3    H117846   4.777   4.651   5.584
 5967TIP3    H217847   4.784   4.501   5.606
 5968TIP3   OH217848   3.604   2.987   0.990
 5968TIP3    H117849   3.664   3.031   0.931
 5968TIP3    H217850   3.517   3.015   0.962
 5969TIP3   OH217851   3.957   7.546   2.965
 5969TIP3    H117852   4.022   7.603   2.926
 5969TIP3    H217853   3.876   7.597   2.964
 5970TIP3   OH217854   0.566   2.936   1.961
 5970TIP3    H117855   0.584   3.007   1.899
 5970TIP3    H217856   0.492   2.889   1.924
 5971TIP3   OH217857   7.138   0.822   3.577
 5971TIP3    H117858   7.143   0.726   3.569
 5971TIP3    H217859   7.185   0.855   3.500
 5972TIP3   OH217860   5.621   3.636   0.680
 5972TIP3    H117861   5.534   3.616   0.714
 5972TIP3    H217862   5.605   3.682   0.598
 5973TIP3   OH217863   4.549   4.020   6.368
 5973TIP3    H117864   4.520   4.106   6.397
 5973TIP3    H217865   4.469   3.976   6.339
 5974TIP3   OH217866   1.433   4.194   2.835
 5974TIP3    H117867   1.348   4.180   2.877
 5974TIP3    H217868   1.474   4.107   2.835
 5975TIP3   OH217869   0.137   4.836   3.501
 5975TIP3    H117870   0.153   4.827   3.595
 5975TIP3    H217871   0.046   4.865   3.495
 5976TIP3   OH217872   4.891   0.620   0.399
 5976TIP3    H117873   4.825   0.683   0.427
 5976TIP3    H217874   4.860   0.590   0.313
 5977TIP3   OH217875   8.056   1.209   3.356
 5977TIP3    H117876   8.101   1.210   3.440
 5977TIP3    H217877   8.121   1.174   3.294
 5978TIP3   OH217878   7.526   1.426   2.012
 5978TIP3    H117879   7.594   1.372   2.053
 5978TIP3    H217880   7.454   1.365   1.997
 5979TIP3   OH217881   3.479   4.448   3.730
 5979TIP3    H117882   3.438   4.514   3.674
 5979TIP3    H217883   3.521   4.498   3.799
 5980TIP3   OH217884   5.427   5.635   1.381
 5980TIP3    H117885   5.444   5.705   1.318
 5980TIP3    H217886   5.351   5.588   1.345
 5981TIP3   OH217887   2.350   7.464   3.584
 5981TIP3    H117888   2.340   7.552   3.549
 5981TIP3    H217889   2.431   7.432   3.546
 5982TIP3   OH217890   4.342   5.323   5.277
 5982TIP3    H117891   4.412   5.301   5.215
 5982TIP3    H217892   4.357   5.416   5.298
 5983TIP3   OH217893   0.556   2.673   1.399
 5983TIP3    H117894   0.470   2.702   1.370
 5983TIP3    H217895   0.538   2.604   1.462
 5984TIP3   OH217896   6.013   3.001   4.856
 5984TIP3    H117897   5.982   2.986   4.767
 5984TIP3    H217898   6.092   2.948   4.863
 5985TIP3   OH217899   0.928   2.677   4.759
 5985TIP3    H117900   1.012   2.642   4.730
 5985TIP3    H217901   0.946   2.712   4.847
 5986TIP3   OH217902   1.138   0.419   0.944
 5986TIP3    H117903   1.218   0.407   0.995
 5986TIP3    H217904   1.108   0.331   0.924
 5987TIP3   OH217905   5.513   6.078   2.287
 5987TIP3    H117906   5.522   6.171   2.265
 5987TIP3    H217907   5.502   6.034   2.202
 5988TIP3   OH217908   5.670   1.427   6.577
 5988TIP3    H117909   5.676   1.398   6.667
 5988TIP3    H217910   5.704   1.516   6.578
 5989TIP3   OH217911   4.140   2.188   5.123
 5989TIP3    H117912   4.211   2.125   5.115
 5989TIP3    H217913   4.159   2.254   5.056
 5990TIP3   OH217914   4.814   2.182   2.251
 5990TIP3    H117915   4.726   2.162   2.283
 5990TIP3    H217916   4.867   2.193   2.330
 5991TIP3   OH217917   4.782   6.476   3.687
 5991TIP3    H117918   4.860   6.447   3.639
 5991TIP3    H217919   4.714   6.480   3.619
 5992TIP3   OH217920   7.264  -0.068   3.838
 5992TIP3    H117921   7.185  -0.042   3.791
 5992TIP3    H217922   7.334  -0.016   3.798
 5993TIP3   OH217923   2.354   4.952   3.951
 5993TIP3    H117924   2.397   4.966   4.035
 5993TIP3    H217925   2.365   4.858   3.934
 5994TIP3   OH217926   0.654   3.637   1.430
 5994TIP3    H117927   0.735   3.675   1.396
 5994TIP3    H217928   0.627   3.699   1.499
 5995TIP3   OH217929   3.739   0.107   3.666
 5995TIP3    H117930   3.677   0.042   3.699
 5995TIP3    H217931   3.818   0.057   3.646
 5996TIP3   OH217932   0.022   3.186   0.865
 5996TIP3    H117933   0.087   3.238   0.913
 5996TIP3    H217934  -0.031   3.251   0.819
 5997TIP3   OH217935   4.772   4.773   3.668
 5997TIP3    H117936   4.728   4.826   3.601
 5997TIP3    H217937   4.709   4.705   3.690
 5998TIP3   OH217938   6.283   0.454   2.025
 5998TIP3    H117939   6.367   0.462   2.070
 5998TIP3    H217940   6.302   0.396   1.951
 5999TIP3   OH217941   4.235   1.204   6.471
 5999TIP3    H117942   4.214   1.291   6.504
 5999TIP3    H217943   4.193   1.144   6.533
 6000TIP3   OH217944   7.808   6.821   6.464
 6000TIP3    H117945   7.775   6.762   6.395
 6000TIP3    H217946   7.730   6.847   6.513
 6001TIP3   OH217947   5.711   3.668   4.818
 6001TIP3    H117948   5.747   3.631   4.899
 6001TIP3    H217949   5.687   3.592   4.765
 6002TIP3   OH217950   6.760   3.392   1.399
 6002TIP3    H117951   6.769   3.322   1.463
 6002TIP3    H217952   6.749   3.347   1.315
 6003TIP3   OH217953   3.244   5.423   2.076
 6003TIP3    H117954   3.208   5.367   2.007
 6003TIP3    H217955   3.312   5.475   2.032
 6004TIP3   OH217956   5.146   4.694   3.558
 6004TIP3    H117957   5.222   4.752   3.551
 6004TIP3    H217958   5.074   4.745   3.522
 6005TIP3   OH217959   7.066   3.719   1.046
 6005TIP3    H117960   7.094   3.691   0.958
 6005TIP3    H217961   7.139   3.772   1.078
 6006TIP3   OH217962   2.069   2.267   3.714
 6006TIP3    H117963   2.047   2.332   3.781
 6006TIP3    H217964   2.092   2.319   3.637
 6007TIP3   OH217965   3.860   1.020   2.034
 6007TIP3    H117966   3.833   1.075   2.107
 6007TIP3    H217967   3.908   0.948   2.074
 6008TIP3   OH217968   4.833   1.040   4.000
 6008TIP3    H117969   4.850   0.987   4.078
 6008TIP3    H217970   4.919   1.063   3.967
 6009TIP3   OH217971   1.153   5.113   5.645
 6009TIP3    H117972   1.109   5.094   5.563
 6009TIP3    H217973   1.094   5.173   5.691
 6010TIP3   OH217974   4.502   5.966   5.750
 6010TIP3    H117975   4.526   5.916   5.672
 6010TIP3    H217976   4.407   5.958   5.755
 6011TIP3   OH217977   0.418   7.421   0.258
 6011TIP3    H117978   0.413   7.358   0.186
 6011TIP3    H217979   0.329   7.454   0.267
 6012TIP3   OH217980   0.474   0.279   1.739
 6012TIP3    H117981   0.496   0.345   1.804
 6012TIP3    H217982   0.381   0.262   1.752
 6013TIP3   OH217983   5.118   6.774   3.008
 6013TIP3    H117984   5.048   6.708   3.013
 6013TIP3    H217985   5.072   6.858   3.009
 6014TIP3   OH217986   2.447   1.733   0.493
 6014TIP3    H117987   2.408   1.820   0.502
 6014TIP3    H217988   2.539   1.750   0.475
 6015TIP3   OH217989   2.059   2.693   0.964
 6015TIP3    H117990   2.036   2.676   0.873
 6015TIP3    H217991   2.029   2.616   1.012
 6016TIP3   OH217992   6.585   3.380   4.946
 6016TIP3    H117993   6.671   3.337   4.952
 6016TIP3    H217994   6.601   3.459   4.894
 6017TIP3   OH217995   8.057   6.588   3.393
 6017TIP3    H117996   8.013   6.647   3.332
 6017TIP3    H217997   8.139   6.565   3.349
 6018TIP3   OH217998   4.328   5.454   1.511
 6018TIP3    H117999   4.339   5.416   1.424
 6018TIP3    H218000   4.295   5.542   1.495
 6019TIP3   OH218001   4.297   0.308   3.457
 6019TIP3    H118002   4.372   0.309   3.397
 6019TIP3    H218003   4.325   0.361   3.531
 6020TIP3   OH218004   7.939   2.615   2.918
 6020TIP3    H118005   7.850   2.634   2.887
 6020TIP3    H218006   7.965   2.537   2.869
 6021TIP3   OH218007   6.648   0.610   5.190
 6021TIP3    H118008   6.553   0.610   5.178
 6021TIP3    H218009   6.672   0.517   5.189
 6022TIP3   OH218010   7.375   7.818   3.625
 6022TIP3    H118011   7.283   7.810   3.652
 6022TIP3    H218012   7.425   7.793   3.702
 6023TIP3   OH218013   7.571   6.107   2.063
 6023TIP3    H118014   7.504   6.071   2.005
 6023TIP3    H218015   7.581   6.198   2.035
 6024TIP3   OH218016   6.269   6.679   5.649
 6024TIP3    H118017   6.336   6.624   5.607
 6024TIP3    H218018   6.318   6.733   5.711
 6025TIP3   OH218019   5.134   6.893   0.190
 6025TIP3    H118020   5.080   6.895   0.270
 6025TIP3    H218021   5.223   6.910   0.222
 6026TIP3   OH218022   6.704   4.049   5.357
 6026TIP3    H118023   6.700   4.006   5.272
 6026TIP3    H218024   6.666   4.136   5.342
 6027TIP3   OH218025   0.107   0.210   2.669
 6027TIP3    H118026   0.116   0.296   2.710
 6027TIP3    H218027   0.120   0.226   2.576
 6028TIP3   OH218028   4.564   1.808   6.757
 6028TIP3    H118029   4.603   1.840   6.838
 6028TIP3    H218030   4.623   1.738   6.728
 6029TIP3   OH218031   0.610   4.633   0.783
 6029TIP3    H118032   0.639   4.550   0.746
 6029TIP3    H218033   0.559   4.608   0.861
 6030TIP3   OH218034   4.844   0.015   4.225
 6030TIP3    H118035   4.890   0.002   4.142
 6030TIP3    H218036   4.895   0.082   4.271
 6031TIP3   OH218037   8.034   1.674   6.109
 6031TIP3    H118038   8.098   1.606   6.087
 6031TIP3    H218039   7.977   1.679   6.033
 6032TIP3   OH218040   6.773   5.657   3.548
 6032TIP3    H118041   6.794   5.675   3.640
 6032TIP3    H218042   6.807   5.569   3.532
 6033TIP3   OH218043   4.923   5.198   3.303
 6033TIP3    H118044   4.880   5.135   3.245
 6033TIP3    H218045   4.885   5.282   3.280
 6034TIP3   OH218046   5.425   2.652   2.142
 6034TIP3    H118047   5.495   2.710   2.173
 6034TIP3    H218048   5.374   2.707   2.082
 6035TIP3   OH218049   4.813   2.810   4.991
 6035TIP3    H118050   4.871   2.775   4.923
 6035TIP3    H218051   4.744   2.744   5.000
 6036TIP3   OH218052   0.941   6.720   0.196
 6036TIP3    H118053   0.989   6.661   0.138
 6036TIP3    H218054   0.849   6.703   0.176
 6037TIP3   OH218055   3.380   7.787   3.785
 6037TIP3    H118056   3.294   7.756   3.812
 6037TIP3    H218057   3.434   7.708   3.783
 6038TIP3   OH218058   6.198   7.409   4.551
 6038TIP3    H118059   6.257   7.334   4.551
 6038TIP3    H218060   6.155   7.407   4.636
 6039TIP3   OH218061   7.845   3.742   4.533
 6039TIP3    H118062   7.826   3.831   4.505
 6039TIP3    H218063   7.918   3.715   4.478
 6040TIP3   OH218064   5.662   7.392   1.745
 6040TIP3    H118065   5.729   7.425   1.805
 6040TIP3    H218066   5.675   7.442   1.664
 6041TIP3   OH218067   5.058   4.780   2.375
 6041TIP3    H118068   5.087   4.871   2.378
 6041TIP3    H218069   4.979   4.778   2.430
 6042TIP3   OH218070   8.236   3.294   1.682
 6042TIP3    H118071   8.152   3.336   1.663
 6042TIP3    H218072   8.241   3.221   1.620
 6043TIP3   OH218073   4.734   3.845   4.555
 6043TIP3    H118074   4.686   3.770   4.520
 6043TIP3    H218075   4.760   3.818   4.643
 6044TIP3   OH218076   2.342   4.028   4.843
 6044TIP3    H118077   2.379   4.114   4.822
 6044TIP3    H218078   2.371   4.011   4.933
 6045TIP3   OH218079   2.129   4.704   5.210
 6045TIP3    H118080   2.110   4.785   5.164
 6045TIP3    H218081   2.044   4.675   5.245
 6046TIP3   OH218082   1.723   4.985   0.743
 6046TIP3    H118083   1.761   4.905   0.779
 6046TIP3    H218084   1.735   4.977   0.649
 6047TIP3   OH218085   5.649   1.711   3.102
 6047TIP3    H118086   5.568   1.755   3.129
 6047TIP3    H218087   5.630   1.617   3.112
 6048TIP3   OH218088   2.949   1.699   3.325
 6048TIP3    H118089   2.985   1.611   3.316
 6048TIP3    H218090   2.857   1.685   3.345
 6049TIP3   OH218091   2.433   0.079   5.285
 6049TIP3    H118092   2.478   0.031   5.354
 6049TIP3    H218093   2.455   0.170   5.300
 6050TIP3   OH218094   1.655   3.062   1.857
 6050TIP3    H118095   1.713   3.132   1.827
 6050TIP3    H218096   1.615   3.096   1.937
 6051TIP3   OH218097   5.632   2.268   2.556
 6051TIP3    H118098   5.704   2.208   2.533
 6051TIP3    H218099   5.554   2.212   2.555
 6052TIP3   OH218100   4.166   1.829   3.838
 6052TIP3    H118101   4.189   1.802   3.927
 6052TIP3    H218102   4.152   1.747   3.790
 6053TIP3   OH218103   0.374   3.323   3.097
 6053TIP3    H118104   0.321   3.243   3.104
 6053TIP3    H218105   0.311   3.393   3.080
 6054TIP3   OH218106   3.834   6.981  -0.053
 6054TIP3    H118107   3.910   6.936  -0.017
 6054TIP3    H218108   3.762   6.918  -0.046
 6055TIP3   OH218109   3.360   1.208   1.584
 6055TIP3    H118110   3.446   1.208   1.625
 6055TIP3    H218111   3.368   1.146   1.511
 6056TIP3   OH218112   3.287   6.061   3.248
 6056TIP3    H118113   3.222   6.020   3.191
 6056TIP3    H218114   3.298   6.149   3.211
 6057TIP3   OH218115   2.023   0.874   2.657
 6057TIP3    H118116   1.994   0.865   2.748
 6057TIP3    H218117   2.111   0.910   2.663
 6058TIP3   OH218118   1.616   1.543   6.467
 6058TIP3    H118119   1.643   1.456   6.496
 6058TIP3    H218120   1.629   1.599   6.544
 6059TIP3   OH218121   0.183   5.488   1.542
 6059TIP3    H118122   0.096   5.449   1.547
 6059TIP3    H218123   0.219   5.457   1.459
 6060TIP3   OH218124   4.911   7.679   1.977
 6060TIP3    H118125   4.889   7.597   1.932
 6060TIP3    H218126   4.918   7.655   2.069
 6061TIP3   OH218127   3.926   4.182   1.785
 6061TIP3    H118128   3.982   4.231   1.845
 6061TIP3    H218129   3.839   4.186   1.825
 6062TIP3   OH218130   3.803   3.134   5.668
 6062TIP3    H118131   3.735   3.196   5.642
 6062TIP3    H218132   3.802   3.066   5.600
 6063TIP3   OH218133   1.205   6.733   5.790
 6063TIP3    H118134   1.285   6.783   5.778
 6063TIP3    H218135   1.199   6.677   5.712
 6064TIP3   OH218136   0.351   0.343   5.838
 6064TIP3    H118137   0.292   0.403   5.883
 6064TIP3    H218138   0.407   0.401   5.785
 6065TIP3   OH218139   1.182   4.697   0.210
 6065TIP3    H118140   1.222   4.612   0.230
 6065TIP3    H218141   1.173   4.697   0.114
 6066TIP3   OH218142   7.642   6.075   5.781
 6066TIP3    H118143   7.701   6.010   5.742
 6066TIP3    H218144   7.605   6.122   5.707
 6067TIP3   OH218145   8.123   2.369   3.578
 6067TIP3    H118146   8.107   2.418   3.498
 6067TIP3    H218147   8.097   2.279   3.557
 6068TIP3   OH218148   7.187   4.765   4.620
 6068TIP3    H118149   7.173   4.792   4.529
 6068TIP3    H218150   7.269   4.716   4.618
 6069TIP3   OH218151   5.587   1.793   6.410
 6069TIP3    H118152   5.636   1.806   6.491
 6069TIP3    H218153   5.617   1.709   6.377
 6070TIP3   OH218154   6.858   2.545   1.006
 6070TIP3    H118155   6.881   2.627   0.962
 6070TIP3    H218156   6.877   2.562   1.099
 6071TIP3   OH218157   3.001   6.048   3.695
 6071TIP3    H118158   3.022   6.099   3.773
 6071TIP3    H218159   2.923   6.090   3.659
 6072TIP3   OH218160   6.958   2.438   3.868
 6072TIP3    H118161   6.864   2.427   3.885
 6072TIP3    H218162   6.961   2.506   3.800
 6073TIP3   OH218163   2.069   7.841   0.786
 6073TIP3    H118164   1.999   7.781   0.810
 6073TIP3    H218165   2.054   7.860   0.693
 6074TIP3   OH218166   2.749   0.476   3.620
 6074TIP3    H118167   2.739   0.552   3.677
 6074TIP3    H218168   2.810   0.419   3.666
 6075TIP3   OH218169   1.344   5.526   6.125
 6075TIP3    H118170   1.295   5.521   6.207
 6075TIP3    H218171   1.407   5.454   6.131
 6076TIP3   OH218172   4.238   0.479   0.453
 6076TIP3    H118173   4.243   0.522   0.539
 6076TIP3    H218174   4.221   0.551   0.392
 6077TIP3   OH218175   7.136   6.757   5.130
 6077TIP3    H118176   7.159   6.665   5.140
 6077TIP3    H218177   7.219   6.804   5.137
 6078TIP3   OH218178   5.644   3.924   6.649
 6078TIP3    H118179   5.568   3.889   6.695
 6078TIP3    H218180   5.644   4.017   6.668
 6079TIP3   OH218181   2.484   6.900   4.226
 6079TIP3    H118182   2.533   6.976   4.257
 6079TIP3    H218183   2.466   6.849   4.306
 6080TIP3   OH218184   2.711   5.994   4.865
 6080TIP3    H118185   2.731   5.962   4.777
 6080TIP3    H218186   2.742   5.925   4.923
 6081TIP3   OH218187   7.825   3.713   5.870
 6081TIP3    H118188   7.756   3.674   5.924
 6081TIP3    H218189   7.787   3.718   5.783
 6082TIP3   OH218190   1.272   2.031   4.808
 6082TIP3    H118191   1.313   2.109   4.770
 6082TIP3    H218192   1.344   1.970   4.819
 6083TIP3   OH218193   2.542   0.477   2.303
 6083TIP3    H118194   2.625   0.480   2.256
 6083TIP3    H218195   2.476   0.494   2.236
 6084TIP3   OH218196   3.738   6.724   0.767
 6084TIP3    H118197   3.695   6.639   0.766
 6084TIP3    H218198   3.832   6.704   0.765
 6085TIP3   OH218199  -0.005   6.246   2.913
 6085TIP3    H118200   0.048   6.173   2.948
 6085TIP3    H218201   0.044   6.277   2.837
 6086TIP3   OH218202   1.706   5.851   2.734
 6086TIP3    H118203   1.678   5.930   2.687
 6086TIP3    H218204   1.708   5.878   2.826
 6087TIP3   OH218205   1.778   5.704   0.041
 6087TIP3    H118206   1.853   5.761   0.022
 6087TIP3    H218207   1.792   5.674   0.131
 6088TIP3   OH218208   1.610   4.402   0.280
 6088TIP3    H118209   1.664   4.393   0.358
 6088TIP3    H218210   1.662   4.458   0.221
 6089TIP3   OH218211   2.163   6.231   4.785
 6089TIP3    H118212   2.114   6.279   4.851
 6089TIP3    H218213   2.249   6.216   4.824
 6090TIP3   OH218214   4.838   5.867   0.001
 6090TIP3    H118215   4.819   5.951   0.044
 6090TIP3    H218216   4.905   5.888  -0.064
 6091TIP3   OH218217   4.349   1.222   5.509
 6091TIP3    H118218   4.317   1.140   5.471
 6091TIP3    H218219   4.286   1.288   5.480
 6092TIP3   OH218220   2.472   1.929   3.776
 6092TIP3    H118221   2.402   1.867   3.794
 6092TIP3    H218222   2.430   2.015   3.777
 6093TIP3   OH218223   3.744   4.226   0.572
 6093TIP3    H118224   3.796   4.283   0.629
 6093TIP3    H218225   3.710   4.158   0.630
 6094TIP3   OH218226   4.785   0.585   5.573
 6094TIP3    H118227   4.872   0.606   5.608
 6094TIP3    H218228   4.725   0.602   5.646
 6095TIP3   OH218229   7.203   2.415   4.114
 6095TIP3    H118230   7.227   2.502   4.081
 6095TIP3    H218231   7.114   2.426   4.147
 6096TIP3   OH218232   5.521   2.024   5.961
 6096TIP3    H118233   5.459   1.959   5.995
 6096TIP3    H218234   5.607   1.986   5.977
 6097TIP3   OH218235   4.724   7.816   1.461
 6097TIP3    H118236   4.780   7.793   1.387
 6097TIP3    H218237   4.698   7.906   1.445
 6098TIP3   OH218238   2.164   7.051   1.873
 6098TIP3    H118239   2.078   7.038   1.832
 6098TIP3    H218240   2.224   7.065   1.800
 6099TIP3   OH218241   7.026   2.870   4.506
 6099TIP3    H118242   6.945   2.838   4.547
 6099TIP3    H218243   6.996   2.939   4.446
 6100TIP3   OH218244   0.369   7.135   2.244
 6100TIP3    H118245   0.361   7.044   2.273
 6100TIP3    H218246   0.438   7.134   2.178
 6101TIP3   OH218247   0.369   6.686   3.182
 6101TIP3    H118248   0.280   6.709   3.156
 6101TIP3    H218249   0.424   6.745   3.130
 6102TIP3   OH218250   6.117   6.986   2.968
 6102TIP3    H118251   6.209   7.006   2.947
 6102TIP3    H218252   6.112   6.891   2.965
 6103TIP3   OH218253   0.338   3.841   6.664
 6103TIP3    H118254   0.387   3.833   6.583
 6103TIP3    H218255   0.256   3.795   6.648
 6104TIP3   OH218256   5.439   0.439   3.693
 6104TIP3    H118257   5.509   0.485   3.739
 6104TIP3    H218258   5.437   0.478   3.606
 6105TIP3   OH218259   5.478   4.940   1.755
 6105TIP3    H118260   5.423   4.864   1.777
 6105TIP3    H218261   5.442   5.011   1.808
 6106TIP3   OH218262   1.865   7.444   2.274
 6106TIP3    H118263   1.815   7.517   2.311
 6106TIP3    H218264   1.844   7.445   2.181
 6107TIP3   OH218265   6.623   0.649   2.582
 6107TIP3    H118266   6.573   0.706   2.525
 6107TIP3    H218267   6.594   0.672   2.671
 6108TIP3   OH218268   2.277  -0.034   1.501
 6108TIP3    H118269   2.205   0.018   1.537
 6108TIP3    H218270   2.356   0.012   1.530
 6109TIP3   OH218271   8.004   4.847   0.015
 6109TIP3    H118272   8.003   4.850  -0.081
 6109TIP3    H218273   8.053   4.926   0.040
 6110TIP3   OH218274   4.036   0.270   3.924
 6110TIP3    H118275   4.054   0.363   3.907
 6110TIP3    H218276   4.105   0.224   3.876
 6111TIP3   OH218277   1.958   4.483   1.694
 6111TIP3    H118278   2.023   4.414   1.684
 6111TIP3    H218279   2.004   4.551   1.745
 6112TIP3   OH218280   5.641   2.846   5.386
 6112TIP3    H118281   5.622   2.890   5.469
 6112TIP3    H218282   5.735   2.853   5.376
 6113TIP3   OH218283   6.292   1.473   0.568
 6113TIP3    H118284   6.369   1.501   0.519
 6113TIP3    H218285   6.228   1.450   0.501
 6114TIP3   OH218286   3.564   3.788   5.820
 6114TIP3    H118287   3.589   3.852   5.887
 6114TIP3    H218288   3.631   3.797   5.752
 6115TIP3   OH218289   7.974   0.659   4.891
 6115TIP3    H118290   7.950   0.585   4.946
 6115TIP3    H218291   7.952   0.632   4.802
 6116TIP3   OH218292   4.401   5.754   4.162
 6116TIP3    H118293   4.326   5.746   4.221
 6116TIP3    H218294   4.431   5.663   4.148
 6117TIP3   OH218295   8.055   2.755   6.827
 6117TIP3    H118296   8.077   2.670   6.866
 6117TIP3    H218297   8.092   2.751   6.739
 6118TIP3   OH218298   4.564   3.976   3.643
 6118TIP3    H118299   4.606   3.893   3.666
 6118TIP3    H218300   4.627   4.021   3.588
 6119TIP3   OH218301   5.120   3.343   1.162
 6119TIP3    H118302   5.208   3.311   1.181
 6119TIP3    H218303   5.112   3.425   1.210
 6120TIP3   OH218304   7.782   5.375   1.423
 6120TIP3    H118305   7.774   5.397   1.330
 6120TIP3    H218306   7.873   5.347   1.433
 6121TIP3   OH218307   0.767   2.626   5.955
 6121TIP3    H118308   0.851   2.585   5.931
 6121TIP3    H218309   0.764   2.706   5.902
 6122TIP3   OH218310   2.287   3.066   1.325
 6122TIP3    H118311   2.214   3.093   1.269
 6122TIP3    H218312   2.251   2.996   1.379
 6123TIP3   OH218313   0.857   2.433   1.945
 6123TIP3    H118314   0.765   2.425   1.971
 6123TIP3    H218315   0.862   2.386   1.862
 6124TIP3   OH218316   6.528   6.951   4.838
 6124TIP3    H118317   6.604   6.903   4.871
 6124TIP3    H218318   6.517   7.024   4.899
 6125TIP3   OH218319   4.374   6.509   4.895
 6125TIP3    H118320   4.351   6.497   4.988
 6125TIP3    H218321   4.333   6.434   4.851
 6126TIP3   OH218322   2.507   5.137   5.356
 6126TIP3    H118323   2.518   5.047   5.387
 6126TIP3    H218324   2.454   5.179   5.424
 6127TIP3   OH218325   2.837   5.455   3.023
 6127TIP3    H118326   2.807   5.489   2.939
 6127TIP3    H218327   2.918   5.409   3.003
 6128TIP3   OH218328   5.498   5.814   2.597
 6128TIP3    H118329   5.441   5.776   2.664
 6128TIP3    H218330   5.540   5.738   2.556
 6129TIP3   OH218331   0.143   4.895   1.461
 6129TIP3    H118332   0.110   4.808   1.484
 6129TIP3    H218333   0.234   4.894   1.492
 6130TIP3   OH218334   5.893   6.084   6.369
 6130TIP3    H118335   5.839   6.138   6.312
 6130TIP3    H218336   5.845   6.080   6.451
 6131TIP3   OH218337   7.706   0.804   5.032
 6131TIP3    H118338   7.615   0.803   5.003
 6131TIP3    H218339   7.746   0.730   4.986
 6132TIP3   OH218340   5.803   7.512   2.980
 6132TIP3    H118341   5.787   7.428   3.021
 6132TIP3    H218342   5.828   7.490   2.890
 6133TIP3   OH218343   0.262   5.416   1.305
 6133TIP3    H118344   0.305   5.330   1.302
 6133TIP3    H218345   0.331   5.477   1.330
 6134TIP3   OH218346   7.774   6.314   6.678
 6134TIP3    H118347   7.836   6.337   6.609
 6134TIP3    H218348   7.826   6.313   6.758
 6135TIP3   OH218349   6.985   5.727   5.096
 6135TIP3    H118350   6.996   5.797   5.160
 6135TIP3    H218351   7.062   5.672   5.108
 6136TIP3   OH218352   7.832   5.415   2.308
 6136TIP3    H118353   7.769   5.345   2.291
 6136TIP3    H218354   7.915   5.380   2.276
 6137TIP3   OH218355   5.883   3.078   0.618
 6137TIP3    H118356   5.806   3.071   0.561
 6137TIP3    H218357   5.924   2.992   0.613
 6138TIP3   OH218358   1.514   5.568   4.999
 6138TIP3    H118359   1.430   5.589   4.958
 6138TIP3    H218360   1.494   5.495   5.058
 6139TIP3   OH218361   5.353   2.563   4.751
 6139TIP3    H118362   5.379   2.572   4.659
 6139TIP3    H218363   5.270   2.609   4.757
 6140TIP3   OH218364   2.372   4.182   3.386
 6140TIP3    H118365   2.287   4.226   3.385
 6140TIP3    H218366   2.436   4.252   3.372
 6141TIP3   OH218367   4.566   4.488   1.473
 6141TIP3    H118368   4.538   4.411   1.522
 6141TIP3    H218369   4.540   4.469   1.383
 6142TIP3   OH218370   4.994   3.555   4.038
 6142TIP3    H118371   5.032   3.642   4.048
 6142TIP3    H218372   5.058   3.496   4.079
 6143TIP3   OH218373   4.098   4.009   0.524
 6143TIP3    H118374   4.045   3.993   0.446
 6143TIP3    H218375   4.043   4.066   0.579
 6144TIP3   OH218376   3.111   1.579   6.569
 6144TIP3    H118377   3.116   1.495   6.614
 6144TIP3    H218378   3.017   1.590   6.550
 6145TIP3   OH218379   5.100   2.480   1.124
 6145TIP3    H118380   5.189   2.446   1.117
 6145TIP3    H218381   5.111   2.575   1.132
 6146TIP3   OH218382   7.522   3.409   0.680
 6146TIP3    H118383   7.517   3.493   0.724
 6146TIP3    H218384   7.603   3.413   0.628
 6147TIP3   OH218385   2.282   3.178   4.694
 6147TIP3    H118386   2.261   3.270   4.708
 6147TIP3    H218387   2.220   3.130   4.750
 6148TIP3   OH218388   6.023   2.216   0.539
 6148TIP3    H118389   6.030   2.129   0.500
 6148TIP3    H218390   5.998   2.200   0.630
 6149TIP3   OH218391   5.244   2.630   1.758
 6149TIP3    H118392   5.189   2.552   1.763
 6149TIP3    H218393   5.327   2.599   1.722
 6150TIP3   OH218394   7.748   2.902   6.756
 6150TIP3    H118395   7.768   2.843   6.683
 6150TIP3    H218396   7.827   2.955   6.766
 6151TIP3   OH218397   4.847   6.716   1.366
 6151TIP3    H118398   4.808   6.718   1.453
 6151TIP3    H218399   4.833   6.626   1.336
 6152TIP3   OH218400   5.690   4.929   0.939
 6152TIP3    H118401   5.721   4.898   1.024
 6152TIP3    H218402   5.681   4.850   0.886
 6153TIP3   OH218403   3.870   6.132   4.648
 6153TIP3    H118404   3.823   6.190   4.708
 6153TIP3    H218405   3.957   6.122   4.687
 6154TIP3   OH218406   0.886   6.533   6.200
 6154TIP3    H118407   0.933   6.550   6.118
 6154TIP3    H218408   0.898   6.439   6.214
 6155TIP3   OH218409   7.953   3.787   5.013
 6155TIP3    H118410   7.994   3.703   5.034
 6155TIP3    H218411   7.860   3.767   5.004
 6156TIP3   OH218412   6.771   7.331   1.652
 6156TIP3    H118413   6.756   7.361   1.742
 6156TIP3    H218414   6.767   7.411   1.599
 6157TIP3   OH218415   1.135   6.896   0.379
 6157TIP3    H118416   1.190   6.840   0.434
 6157TIP3    H218417   1.102   6.838   0.311
 6158TIP3   OH218418   3.501   4.358   2.180
 6158TIP3    H118419   3.436   4.340   2.248
 6158TIP3    H218420   3.476   4.298   2.109
 6159TIP3   OH218421   3.040   0.700   2.083
 6159TIP3    H118422   2.954   0.742   2.078
 6159TIP3    H218423   3.051   0.659   1.997
 6160TIP3   OH218424   3.043   6.012   0.185
 6160TIP3    H118425   3.048   5.919   0.208
 6160TIP3    H218426   3.108   6.054   0.242
 6161TIP3   OH218427   0.923   2.845   3.767
 6161TIP3    H118428   0.936   2.843   3.861
 6161TIP3    H218429   0.873   2.766   3.747
 6162TIP3   OH218430   0.437   0.706   3.401
 6162TIP3    H118431   0.524   0.675   3.426
 6162TIP3    H218432   0.397   0.734   3.483
 6163TIP3   OH218433   2.258   2.096   3.080
 6163TIP3    H118434   2.237   2.028   3.144
 6163TIP3    H218435   2.310   2.051   3.013
 6164TIP3   OH218436   6.978   6.283   0.113
 6164TIP3    H118437   7.063   6.283   0.070
 6164TIP3    H218438   6.927   6.350   0.066
 6165TIP3   OH218439   7.310   3.813   0.608
 6165TIP3    H118440   7.394   3.791   0.568
 6165TIP3    H218441   7.323   3.800   0.701
 6166TIP3   OH218442   4.567   7.192   0.164
 6166TIP3    H118443   4.528   7.146   0.237
 6166TIP3    H218444   4.566   7.284   0.190
 6167TIP3   OH218445   7.481   3.954   6.058
 6167TIP3    H118446   7.518   3.912   6.136
 6167TIP3    H218447   7.390   3.926   6.056
 6168TIP3   OH218448   0.398   0.684   4.762
 6168TIP3    H118449   0.343   0.630   4.818
 6168TIP3    H218450   0.338   0.747   4.722
 6169TIP3   OH218451   6.883   0.017   1.023
 6169TIP3    H118452   6.813   0.077   1.048
 6169TIP3    H218453   6.961   0.073   1.016
 6170TIP3   OH218454   1.923   3.774   6.675
 6170TIP3    H118455   1.960   3.843   6.730
 6170TIP3    H218456   1.990   3.707   6.671
 6171TIP3   OH218457   0.388   7.416   3.005
 6171TIP3    H118458   0.414   7.372   2.924
 6171TIP3    H218459   0.453   7.486   3.016
 6172TIP3   OH218460   2.861   5.515   4.107
 6172TIP3    H118461   2.780   5.559   4.131
 6172TIP3    H218462   2.929   5.560   4.157
 6173TIP3   OH218463   7.324   5.586   2.650
 6173TIP3    H118464   7.249   5.607   2.594
 6173TIP3    H218465   7.331   5.491   2.646
 6174TIP3   OH218466   4.456   1.402   2.262
 6174TIP3    H118467   4.505   1.484   2.260
 6174TIP3    H218468   4.383   1.416   2.201
 6175TIP3   OH218469   0.395   4.401   4.652
 6175TIP3    H118470   0.486   4.382   4.672
 6175TIP3    H218471   0.388   4.393   4.557
 6176TIP3   OH218472   2.992   0.754   2.551
 6176TIP3    H118473   2.976   0.664   2.524
 6176TIP3    H218474   3.024   0.798   2.473
 6177TIP3   OH218475   3.406   2.977   3.520
 6177TIP3    H118476   3.453   2.905   3.560
 6177TIP3    H218477   3.330   2.936   3.478
 6178TIP3   OH218478   1.153   7.025   0.859
 6178TIP3    H118479   1.158   7.039   0.765
 6178TIP3    H218480   1.103   7.099   0.893
 6179TIP3   OH218481   3.176   0.745   4.503
 6179TIP3    H118482   3.175   0.804   4.579
 6179TIP3    H218483   3.090   0.702   4.506
 6180TIP3   OH218484   0.046   6.209   2.132
 6180TIP3    H118485   0.076   6.163   2.211
 6180TIP3    H218486  -0.036   6.251   2.159
 6181TIP3   OH218487   4.240   6.477   1.139
 6181TIP3    H118488   4.247   6.423   1.061
 6181TIP3    H218489   4.288   6.429   1.206
 6182TIP3   OH218490   0.742   3.869   6.211
 6182TIP3    H118491   0.807   3.840   6.275
 6182TIP3    H218492   0.794   3.895   6.135
 6183TIP3   OH218493   5.325   1.222   4.049
 6183TIP3    H118494   5.387   1.246   4.119
 6183TIP3    H218495   5.376   1.230   3.969
 6184TIP3   OH218496   6.719   4.787   1.643
 6184TIP3    H118497   6.652   4.727   1.607
 6184TIP3    H218498   6.740   4.751   1.729
 6185TIP3   OH218499   4.185   4.034   6.228
 6185TIP3    H118500   4.173   4.023   6.134
 6185TIP3    H218501   4.223   3.951   6.257
 6186TIP3   OH218502   0.903   3.644   6.060
 6186TIP3    H118503   0.982   3.688   6.028
 6186TIP3    H218504   0.848   3.634   5.982
 6187TIP3   OH218505   4.964   4.889   0.901
 6187TIP3    H118506   4.870   4.904   0.913
 6187TIP3    H218507   5.002   4.906   0.987
 6188TIP3   OH218508   4.193   5.819   4.346
 6188TIP3    H118509   4.186   5.751   4.414
 6188TIP3    H218510   4.102   5.839   4.322
 6189TIP3   OH218511   1.871   2.776   0.398
 6189TIP3    H118512   1.785   2.769   0.358
 6189TIP3    H218513   1.915   2.694   0.374
 6190TIP3   OH218514   5.896   2.736   6.729
 6190TIP3    H118515   5.926   2.737   6.820
 6190TIP3    H218516   5.915   2.647   6.699
 6191TIP3   OH218517   7.479   0.873   3.106
 6191TIP3    H118518   7.400   0.853   3.156
 6191TIP3    H218519   7.485   0.969   3.109
 6192TIP3   OH218520   1.911   6.624   4.390
 6192TIP3    H118521   1.858   6.621   4.470
 6192TIP3    H218522   1.979   6.689   4.408
 6193TIP3   OH218523   4.371   0.404   4.510
 6193TIP3    H118524   4.279   0.428   4.497
 6193TIP3    H218525   4.395   0.444   4.594
 6194TIP3   OH218526   5.819   6.700   2.782
 6194TIP3    H118527   5.833   6.675   2.691
 6194TIP3    H218528   5.757   6.636   2.816
 6195TIP3   OH218529   6.319   3.054   6.191
 6195TIP3    H118530   6.375   3.056   6.269
 6195TIP3    H218531   6.311   2.961   6.170
 6196TIP3   OH218532   7.533   4.056   4.373
 6196TIP3    H118533   7.496   4.133   4.330
 6196TIP3    H218534   7.489   3.982   4.331
 6197TIP3   OH218535   8.178   7.532   1.964
 6197TIP3    H118536   8.235   7.457   1.945
 6197TIP3    H218537   8.237   7.608   1.961
 6198TIP3   OH218538   4.856   5.646   3.385
 6198TIP3    H118539   4.807   5.574   3.424
 6198TIP3    H218540   4.791   5.693   3.332
 6199TIP3   OH218541   1.285   0.594   5.996
 6199TIP3    H118542   1.346   0.665   5.977
 6199TIP3    H218543   1.237   0.582   5.914
 6200TIP3   OH218544   6.818   5.247   3.514
 6200TIP3    H118545   6.847   5.169   3.467
 6200TIP3    H218546   6.850   5.320   3.461
 6201TIP3   OH218547   2.025   1.692   5.093
 6201TIP3    H118548   2.028   1.610   5.043
 6201TIP3    H218549   2.087   1.678   5.164
 6202TIP3   OH218550   6.538   3.613   1.684
 6202TIP3    H118551   6.487   3.582   1.759
 6202TIP3    H218552   6.471   3.646   1.623
 6203TIP3   OH218553   2.626   2.276   0.242
 6203TIP3    H118554   2.717   2.274   0.213
 6203TIP3    H218555   2.577   2.303   0.165
 6204TIP3   OH218556   1.760   6.066   6.632
 6204TIP3    H118557   1.783   6.088   6.722
 6204TIP3    H218558   1.829   6.106   6.579
 6205TIP3   OH218559   7.890   6.692   3.203
 6205TIP3    H118560   7.863   6.601   3.197
 6205TIP3    H218561   7.812   6.738   3.236
 6206TIP3   OH218562   3.047   6.263   4.109
 6206TIP3    H118563   3.117   6.266   4.174
 6206TIP3    H218564   2.969   6.240   4.160
 6207TIP3   OH218565   0.363   4.952   1.606
 6207TIP3    H118566   0.453   4.938   1.635
 6207TIP3    H218567   0.367   5.030   1.550
 6208TIP3   OH218568   6.479  -0.009   2.479
 6208TIP3    H118569   6.406   0.021   2.425
 6208TIP3    H218570   6.447  -0.002   2.569
 6209TIP3   OH218571   2.048   3.285   5.718
 6209TIP3    H118572   1.999   3.349   5.666
 6209TIP3    H218573   2.023   3.303   5.808
 6210TIP3   OH218574   4.143  -0.036   5.004
 6210TIP3    H118575   4.130  -0.004   5.093
 6210TIP3    H218576   4.195   0.033   4.961
 6211TIP3   OH218577   5.966   6.084   1.773
 6211TIP3    H118578   6.045   6.138   1.764
 6211TIP3    H218579   5.973   6.046   1.860
 6212TIP3   OH218580   2.686   1.582   3.096
 6212TIP3    H118581   2.638   1.659   3.125
 6212TIP3    H218582   2.703   1.597   3.003
 6213TIP3   OH218583   1.724   0.303   2.741
 6213TIP3    H118584   1.680   0.230   2.784
 6213TIP3    H218585   1.816   0.292   2.761
 6214TIP3   OH218586   0.322   1.323   1.403
 6214TIP3    H118587   0.349   1.250   1.347
 6214TIP3    H218588   0.248   1.289   1.452
 6215TIP3   OH218589   0.602   4.729   3.490
 6215TIP3    H118590   0.610   4.671   3.415
 6215TIP3    H218591   0.665   4.696   3.554
 6216TIP3   OH218592   2.167   0.757   4.387
 6216TIP3    H118593   2.196   0.803   4.307
 6216TIP3    H218594   2.226   0.789   4.455
 6217TIP3   OH218595   1.412   7.209   1.424
 6217TIP3    H118596   1.483   7.272   1.436
 6217TIP3    H218597   1.455   7.126   1.403
 6218TIP3   OH218598   8.043   0.265   1.770
 6218TIP3    H118599   7.981   0.224   1.831
 6218TIP3    H218600   8.027   0.359   1.779
 6219TIP3   OH218601   0.970   4.698   0.663
 6219TIP3    H118602   0.938   4.693   0.754
 6219TIP3    H218603   0.982   4.607   0.637
 6220TIP3   OH218604   4.899   7.258   2.768
 6220TIP3    H118605   4.828   7.215   2.719
 6220TIP3    H218606   4.880   7.351   2.761
 6221TIP3   OH218607   2.582   2.758   4.007
 6221TIP3    H118608   2.600   2.852   4.005
 6221TIP3    H218609   2.558   2.740   4.098
 6222TIP3   OH218610   3.766   3.044   3.601
 6222TIP3    H118611   3.815   2.962   3.590
 6222TIP3    H218612   3.706   3.027   3.674
 6223TIP3   OH218613   6.637   4.540   4.578
 6223TIP3    H118614   6.585   4.460   4.592
 6223TIP3    H218615   6.577   4.602   4.538
 6224TIP3   OH218616   7.512   4.252   0.132
 6224TIP3    H118617   7.473   4.189   0.193
 6224TIP3    H218618   7.601   4.219   0.117
 6225TIP3   OH218619   4.277   1.979   6.250
 6225TIP3    H118620   4.292   2.047   6.184
 6225TIP3    H218621   4.201   2.009   6.299
 6226TIP3   OH218622   7.837   2.070   1.160
 6226TIP3    H118623   7.866   2.047   1.072
 6226TIP3    H218624   7.758   2.122   1.147
 6227TIP3   OH218625   6.347   3.891   2.594
 6227TIP3    H118626   6.316   3.816   2.645
 6227TIP3    H218627   6.332   3.967   2.650
 6228TIP3   OH218628   8.123   4.303   1.152
 6228TIP3    H118629   8.053   4.240   1.170
 6228TIP3    H218630   8.086   4.363   1.087
 6229TIP3   OH218631   7.242   6.702   5.648
 6229TIP3    H118632   7.268   6.767   5.713
 6229TIP3    H218633   7.212   6.627   5.700
 6230TIP3   OH218634   2.448   6.031   6.029
 6230TIP3    H118635   2.540   6.052   6.049
 6230TIP3    H218636   2.406   6.029   6.115
 6231TIP3   OH218637   2.789   7.863   2.178
 6231TIP3    H118638   2.774   7.895   2.089
 6231TIP3    H218639   2.874   7.899   2.204
 6232TIP3   OH218640   8.020   0.792   2.824
 6232TIP3    H118641   7.981   0.865   2.775
 6232TIP3    H218642   7.947   0.756   2.875
 6233TIP3   OH218643   3.124   7.395   0.483
 6233TIP3    H118644   3.082   7.374   0.566
 6233TIP3    H218645   3.103   7.487   0.468
 6234TIP3   OH218646   1.745   4.844   2.174
 6234TIP3    H118647   1.774   4.764   2.217
 6234TIP3    H218648   1.750   4.912   2.241
 6235TIP3   OH218649   3.572   4.005   2.537
 6235TIP3    H118650   3.570   4.082   2.594
 6235TIP3    H218651   3.603   3.934   2.593
 6236TIP3   OH218652   7.438   3.792   3.054
 6236TIP3    H118653   7.481   3.732   3.115
 6236TIP3    H218654   7.478   3.773   2.969
 6237TIP3   OH218655   3.839   0.966   3.229
 6237TIP3    H118656   3.756   0.987   3.185
 6237TIP3    H218657   3.897   0.938   3.158
 6238TIP3   OH218658   1.840   3.063   4.396
 6238TIP3    H118659   1.884   3.111   4.466
 6238TIP3    H218660   1.767   3.120   4.369
 6239TIP3   OH218661   2.716   5.015   2.393
 6239TIP3    H118662   2.762   4.981   2.315
 6239TIP3    H218663   2.758   4.970   2.466
 6240TIP3   OH218664   6.279   0.753   4.641
 6240TIP3    H118665   6.362   0.711   4.622
 6240TIP3    H218666   6.214   0.684   4.631
 6241TIP3   OH218667   7.572   1.890   1.903
 6241TIP3    H118668   7.603   1.980   1.891
 6241TIP3    H218669   7.527   1.892   1.987
 6242TIP3   OH218670   6.613   1.750   2.468
 6242TIP3    H118671   6.573   1.664   2.454
 6242TIP3    H218672   6.688   1.751   2.409
 6243TIP3   OH218673   4.378   2.040   5.146
 6243TIP3    H118674   4.394   1.946   5.158
 6243TIP3    H218675   4.387   2.077   5.234
 6244TIP3   OH218676   0.915   3.075   2.687
 6244TIP3    H118677   0.977   3.121   2.744
 6244TIP3    H218678   0.829   3.109   2.713
 6245TIP3   OH218679   0.537   1.374   0.817
 6245TIP3    H118680   0.564   1.346   0.904
 6245TIP3    H218681   0.462   1.432   0.833
 6246TIP3   OH218682   2.979   0.692   1.159
 6246TIP3    H118683   2.987   0.646   1.076
 6246TIP3    H218684   3.031   0.639   1.221
 6247TIP3   OH218685   4.711   1.970   0.521
 6247TIP3    H118686   4.695   2.045   0.464
 6247TIP3    H218687   4.805   1.954   0.513
 6248TIP3   OH218688   4.091   3.097   1.169
 6248TIP3    H118689   4.123   3.140   1.089
 6248TIP3    H218690   4.002   3.069   1.147
 6249TIP3   OH218691   7.658   2.896   5.139
 6249TIP3    H118692   7.706   2.814   5.130
 6249TIP3    H218693   7.717   2.963   5.103
 6250TIP3   OH218694   2.583   7.037   2.096
 6250TIP3    H118695   2.495   7.006   2.118
 6250TIP3    H218696   2.635   6.957   2.090
 6251TIP3   OH218697   6.276   6.740   6.499
 6251TIP3    H118698   6.242   6.659   6.537
 6251TIP3    H218699   6.361   6.715   6.462
 6252TIP3   OH218700   1.350   7.703   1.398
 6252TIP3    H118701   1.436   7.698   1.438
 6252TIP3    H218702   1.296   7.750   1.462
 6253TIP3   OH218703   1.440   3.324   5.532
 6253TIP3    H118704   1.451   3.236   5.497
 6253TIP3    H218705   1.441   3.313   5.627
 6254TIP3   OH218706   6.698   1.100   2.139
 6254TIP3    H118707   6.737   1.170   2.086
 6254TIP3    H218708   6.616   1.079   2.096
 6255TIP3   OH218709   7.407   0.054   5.893
 6255TIP3    H118710   7.460   0.129   5.867
 6255TIP3    H218711   7.470  -0.013   5.919
 6256TIP3   OH218712   4.438   3.247   2.245
 6256TIP3    H118713   4.376   3.232   2.316
 6256TIP3    H218714   4.405   3.195   2.172
 6257TIP3   OH218715   3.408   1.267   5.303
 6257TIP3    H118716   3.474   1.228   5.246
 6257TIP3    H218717   3.412   1.215   5.383
 6258TIP3   OH218718   3.078   3.002   5.094
 6258TIP3    H118719   3.075   3.031   5.003
 6258TIP3    H218720   3.165   2.962   5.103
 6259TIP3   OH218721   5.035   2.705   0.413
 6259TIP3    H118722   5.076   2.767   0.472
 6259TIP3    H218723   5.018   2.754   0.333
 6260TIP3   OH218724   6.884   4.130   5.603
 6260TIP3    H118725   6.976   4.154   5.600
 6260TIP3    H218726   6.839   4.201   5.556
 6261TIP3   OH218727   3.662   2.794   5.245
 6261TIP3    H118728   3.606   2.866   5.271
 6261TIP3    H218729   3.620   2.758   5.166
 6262TIP3   OH218730   8.000   2.100   0.047
 6262TIP3    H118731   7.971   2.071   0.134
 6262TIP3    H218732   8.086   2.059   0.037
 6263TIP3   OH218733   0.132   7.287   2.620
 6263TIP3    H118734   0.108   7.220   2.685
 6263TIP3    H218735   0.051   7.305   2.573
 6264TIP3   OH218736   5.260   7.680   5.341
 6264TIP3    H118737   5.326   7.631   5.292
 6264TIP3    H218738   5.228   7.619   5.407
 6265TIP3   OH218739   7.836   2.269   3.531
 6265TIP3    H118740   7.873   2.243   3.447
 6265TIP3    H218741   7.830   2.365   3.526
 6266TIP3   OH218742   3.732   4.810   2.182
 6266TIP3    H118743   3.643   4.789   2.155
 6266TIP3    H218744   3.750   4.749   2.253
 6267TIP3   OH218745   8.242   7.576   6.096
 6267TIP3    H118746   8.167   7.532   6.057
 6267TIP3    H218747   8.282   7.624   6.024
 6268TIP3   OH218748   4.881   1.769   3.973
 6268TIP3    H118749   4.849   1.858   3.990
 6268TIP3    H218750   4.929   1.775   3.891
 6269TIP3   OH218751   3.237   0.485   1.521
 6269TIP3    H118752   3.160   0.477   1.465
 6269TIP3    H218753   3.309   0.501   1.460
 6270TIP3   OH218754   2.156   7.330   4.681
 6270TIP3    H118755   2.085   7.271   4.707
 6270TIP3    H218756   2.223   7.319   4.748
 6271TIP3   OH218757   7.652   1.669   4.671
 6271TIP3    H118758   7.743   1.662   4.641
 6271TIP3    H218759   7.643   1.759   4.702
 6272TIP3   OH218760   4.690   0.956   2.633
 6272TIP3    H118761   4.713   1.049   2.635
 6272TIP3    H218762   4.690   0.933   2.540
 6273TIP3   OH218763   7.257   1.143   6.731
 6273TIP3    H118764   7.214   1.227   6.749
 6273TIP3    H218765   7.308   1.158   6.652
 6274TIP3   OH218766   2.681   4.382   4.163
 6274TIP3    H118767   2.647   4.441   4.230
 6274TIP3    H218768   2.624   4.395   4.087
 6275TIP3   OH218769   2.242   6.975   4.594
 6275TIP3    H118770   2.170   6.999   4.652
 6275TIP3    H218771   2.233   7.032   4.518
 6276TIP3   OH218772   6.236   0.966   4.224
 6276TIP3    H118773   6.277   1.035   4.171
 6276TIP3    H218774   6.191   0.911   4.160
 6277TIP3   OH218775   7.606   3.439   2.345
 6277TIP3    H118776   7.681   3.419   2.401
 6277TIP3    H218777   7.624   3.527   2.311
 6278TIP3   OH218778   6.687   4.144   4.984
 6278TIP3    H118779   6.778   4.165   5.002
 6278TIP3    H218780   6.672   4.173   4.895
 6279TIP3   OH218781   6.839   6.801   4.643
 6279TIP3    H118782   6.903   6.820   4.711
 6279TIP3    H218783   6.773   6.747   4.686
 6280TIP3   OH218784   3.818   0.657   4.923
 6280TIP3    H118785   3.740   0.703   4.955
 6280TIP3    H218786   3.797   0.633   4.833
 6281TIP3   OH218787   4.056   2.714   5.859
 6281TIP3    H118788   3.962   2.709   5.842
 6281TIP3    H218789   4.062   2.734   5.953
 6282TIP3   OH218790   0.075   6.736   1.549
 6282TIP3    H118791   0.056   6.675   1.620
 6282TIP3    H218792   0.006   6.720   1.485
 6283TIP3   OH218793   7.442   1.626   3.055
 6283TIP3    H118794   7.527   1.588   3.075
 6283TIP3    H218795   7.439   1.708   3.104
 6284TIP3   OH218796   4.162   2.969   2.348
 6284TIP3    H118797   4.224   2.898   2.367
 6284TIP3    H218798   4.080   2.939   2.386
 6285TIP3   OH218799   6.049   6.169   3.797
 6285TIP3    H118800   6.054   6.137   3.707
 6285TIP3    H218801   6.068   6.262   3.791
 6286TIP3   OH218802   0.279   1.122   1.013
 6286TIP3    H118803   0.341   1.082   0.951
 6286TIP3    H218804   0.196   1.123   0.966
 6287TIP3   OH218805   0.142   4.659   5.164
 6287TIP3    H118806   0.227   4.687   5.129
 6287TIP3    H218807   0.089   4.739   5.164
 6288TIP3   OH218808   1.143   0.281   1.739
 6288TIP3    H118809   1.238   0.288   1.732
 6288TIP3    H218810   1.128   0.201   1.790
 6289TIP3   OH218811   4.119   1.417   5.048
 6289TIP3    H118812   4.207   1.418   5.086
 6289TIP3    H218813   4.123   1.350   4.980
 6290TIP3   OH218814   2.722   4.849   1.797
 6290TIP3    H118815   2.764   4.929   1.829
 6290TIP3    H218816   2.670   4.878   1.722
 6291TIP3   OH218817   2.784   2.074   6.103
 6291TIP3    H118818   2.712   2.133   6.126
 6291TIP3    H218819   2.863   2.125   6.122
 6292TIP3   OH218820   0.115   2.945   1.242
 6292TIP3    H118821   0.192   3.002   1.248
 6292TIP3    H218822   0.134   2.887   1.168
 6293TIP3   OH218823   4.474   2.510   1.722
 6293TIP3    H118824   4.460   2.459   1.802
 6293TIP3    H218825   4.566   2.497   1.701
 6294TIP3   OH218826   2.550   7.770   4.889
 6294TIP3    H118827   2.543   7.687   4.936
 6294TIP3    H218828   2.546   7.837   4.957
 6295TIP3   OH218829   4.094   1.268   3.727
 6295TIP3    H118830   4.107   1.183   3.684
 6295TIP3    H218831   4.105   1.250   3.820
 6296TIP3   OH218832   4.876   3.724   2.746
 6296TIP3    H118833   4.966   3.705   2.723
 6296TIP3    H218834   4.856   3.662   2.817
 6297TIP3   OH218835   1.699   3.258   1.187
 6297TIP3    H118836   1.754   3.188   1.221
 6297TIP3    H218837   1.729   3.337   1.234
 6298TIP3   OH218838   7.264   0.756   1.937
 6298TIP3    H118839   7.207   0.752   2.014
 6298TIP3    H218840   7.236   0.681   1.884
 6299TIP3   OH218841   1.292   3.285   3.594
 6299TIP3    H118842   1.312   3.222   3.524
 6299TIP3    H218843   1.377   3.319   3.620
 6300TIP3   OH218844   2.867   5.354   2.536
 6300TIP3    H118845   2.828   5.316   2.457
 6300TIP3    H218846   2.895   5.278   2.587
 6301TIP3   OH218847   1.188   3.247   1.929
 6301TIP3    H118848   1.109   3.292   1.959
 6301TIP3    H218849   1.256   3.276   1.989
 6302TIP3   OH218850   5.366   2.736   5.066
 6302TIP3    H118851   5.452   2.693   5.067
 6302TIP3    H218852   5.383   2.823   5.103
 6303TIP3   OH218853   4.773   2.271   4.711
 6303TIP3    H118854   4.794   2.360   4.684
 6303TIP3    H218855   4.744   2.280   4.802
 6304TIP3   OH218856   5.335   0.687   3.893
 6304TIP3    H118857   5.282   0.751   3.941
 6304TIP3    H218858   5.413   0.675   3.946
 6305TIP3   OH218859   4.570   1.114   1.580
 6305TIP3    H118860   4.653   1.160   1.582
 6305TIP3    H218861   4.594   1.021   1.581
 6306TIP3   OH218862   0.983   0.933   2.445
 6306TIP3    H118863   1.034   0.870   2.394
 6306TIP3    H218864   1.003   1.018   2.405
 6307TIP3   OH218865   6.320   5.057   6.254
 6307TIP3    H118866   6.390   5.118   6.278
 6307TIP3    H218867   6.248   5.078   6.313
 6308TIP3   OH218868   0.521   6.564   0.682
 6308TIP3    H118869   0.451   6.628   0.692
 6308TIP3    H218870   0.543   6.567   0.589
 6309TIP3   OH218871   6.541   4.817   2.559
 6309TIP3    H118872   6.451   4.810   2.526
 6309TIP3    H218873   6.591   4.853   2.486
 6310TIP3   OH218874   2.576   0.603   3.158
 6310TIP3    H118875   2.618   0.518   3.148
 6310TIP3    H218876   2.623   0.644   3.230
 6311TIP3   OH218877   6.971   5.258   3.068
 6311TIP3    H118878   6.935   5.319   3.133
 6311TIP3    H218879   6.900   5.244   3.006
 6312TIP3   OH218880   6.112   2.261   3.039
 6312TIP3    H118881   6.108   2.278   2.945
 6312TIP3    H218882   6.068   2.176   3.049
 6313TIP3   OH218883   1.186   2.835   4.868
 6313TIP3    H118884   1.257   2.772   4.880
 6313TIP3    H218885   1.185   2.852   4.774
 6314TIP3   OH218886   0.975   6.353   1.055
 6314TIP3    H118887   0.880   6.347   1.066
 6314TIP3    H218888   1.010   6.346   1.143
 6315TIP3   OH218889   8.186   6.861   2.248
 6315TIP3    H118890   8.131   6.842   2.171
 6315TIP3    H218891   8.211   6.953   2.237
 6316TIP3   OH218892   0.482   6.061   4.679
 6316TIP3    H118893   0.504   5.973   4.711
 6316TIP3    H218894   0.395   6.079   4.715
 6317TIP3   OH218895   3.746   3.410   0.992
 6317TIP3    H118896   3.739   3.324   0.952
 6317TIP3    H218897   3.801   3.397   1.069
 6318TIP3   OH218898   4.897   6.057   6.696
 6318TIP3    H118899   4.923   6.069   6.605
 6318TIP3    H218900   4.977   6.027   6.740
 6319TIP3   OH218901   5.551   2.308   6.050
 6319TIP3    H118902   5.530   2.217   6.029
 6319TIP3    H218903   5.562   2.308   6.145
 6320TIP3   OH218904   8.253   4.000   5.904
 6320TIP3    H118905   8.201   3.988   5.983
 6320TIP3    H218906   8.196   3.971   5.833
 6321TIP3   OH218907   1.122   6.440   0.592
 6321TIP3    H118908   1.174   6.363   0.569
 6321TIP3    H218909   1.133   6.449   0.687
 6322TIP3   OH218910   4.636   1.563   0.651
 6322TIP3    H118911   4.654   1.653   0.678
 6322TIP3    H218912   4.546   1.565   0.618
 6323TIP3   OH218913   7.017   4.987   2.570
 6323TIP3    H118914   7.055   5.009   2.655
 6323TIP3    H218915   6.973   5.067   2.542
 6324TIP3   OH218916   0.813   6.659   3.094
 6324TIP3    H118917   0.770   6.590   3.144
 6324TIP3    H218918   0.830   6.620   3.008
 6325TIP3   OH218919   1.752   4.690   1.927
 6325TIP3    H118920   1.750   4.605   1.972
 6325TIP3    H218921   1.755   4.754   1.998
 6326TIP3   OH218922   3.581   0.169   1.047
 6326TIP3    H118923   3.585   0.130   1.134
 6326TIP3    H218924   3.532   0.105   0.995
 6327TIP3   OH218925   0.612   0.537   2.435
 6327TIP3    H118926   0.517   0.537   2.446
 6327TIP3    H218927   0.642   0.612   2.487
 6328TIP3   OH218928   3.006   5.617   2.454
 6328TIP3    H118929   3.017   5.636   2.361
 6328TIP3    H218930   2.930   5.559   2.458
 6329TIP3   OH218931   0.340   2.091   0.067
 6329TIP3    H118932   0.281   2.123  -0.001
 6329TIP3    H218933   0.401   2.163   0.082
 6330TIP3   OH218934   6.874   7.168   6.131
 6330TIP3    H118935   6.910   7.095   6.181
 6330TIP3    H218936   6.779   7.154   6.131
 6331TIP3   OH218937   6.905   5.291   2.654
 6331TIP3    H118938   6.981   5.284   2.596
 6331TIP3    H218939   6.930   5.243   2.733
 6332TIP3   OH218940   8.145   1.706   1.235
 6332TIP3    H118941   8.094   1.786   1.251
 6332TIP3    H218942   8.150   1.664   1.320
 6333TIP3   OH218943   0.417   6.088   2.028
 6333TIP3    H118944   0.363   6.166   2.043
 6333TIP3    H218945   0.369   6.017   2.071
 6334TIP3   OH218946   3.195   3.938   0.342
 6334TIP3    H118947   3.218   3.994   0.415
 6334TIP3    H218948   3.166   3.998   0.273
 6335TIP3   OH218949   3.385   6.874   6.382
 6335TIP3    H118950   3.315   6.814   6.409
 6335TIP3    H218951   3.446   6.819   6.332
 6336TIP3   OH218952   0.794   0.006   5.588
 6336TIP3    H118953   0.723  -0.050   5.556
 6336TIP3    H218954   0.839   0.035   5.508
 6337TIP3   OH218955   0.786   0.213   3.553
 6337TIP3    H118956   0.805   0.188   3.643
 6337TIP3    H218957   0.730   0.290   3.561
 6338TIP3   OH218958   7.345   1.315   0.220
 6338TIP3    H118959   7.343   1.404   0.256
 6338TIP3    H218960   7.429   1.309   0.174
 6339TIP3   OH218961   4.017   7.011   6.732
 6339TIP3    H118962   4.041   6.973   6.647
 6339TIP3    H218963   4.035   7.104   6.722
 6340TIP3   OH218964   4.259   6.787   6.656
 6340TIP3    H118965   4.176   6.787   6.607
 6340TIP3    H218966   4.307   6.861   6.620
 6341TIP3   OH218967   7.124   4.932   6.021
 6341TIP3    H118968   7.170   4.997   5.969
 6341TIP3    H218969   7.038   4.923   5.978
 6342TIP3   OH218970   1.596   0.024   1.412
 6342TIP3    H118971   1.659   0.057   1.347
 6342TIP3    H218972   1.515   0.070   1.391
 6343TIP3   OH218973   5.708   5.796   5.311
 6343TIP3    H118974   5.739   5.859   5.246
 6343TIP3    H218975   5.613   5.794   5.299
 6344TIP3   OH218976   0.105   0.886   5.549
 6344TIP3    H118977   0.016   0.865   5.577
 6344TIP3    H218978   0.161   0.826   5.598
 6345TIP3   OH218979   3.679   3.535   3.006
 6345TIP3    H118980   3.667   3.505   3.096
 6345TIP3    H218981   3.771   3.518   2.987
 6346TIP3   OH218982   1.473   1.146   6.710
 6346TIP3    H118983   1.455   1.178   6.799
 6346TIP3    H218984   1.461   1.051   6.716
 6347TIP3   OH218985   1.915   4.473   0.362
 6347TIP3    H118986   1.975   4.431   0.300
 6347TIP3    H218987   1.918   4.418   0.440
 6348TIP3   OH218988   1.562   1.270   1.976
 6348TIP3    H118989   1.491   1.316   2.021
 6348TIP3    H218990   1.620   1.339   1.946
 6349TIP3   OH218991   7.260   1.709   2.853
 6349TIP3    H118992   7.299   1.667   2.930
 6349TIP3    H218993   7.171   1.675   2.849
 6350TIP3   OH218994   2.984   7.144   3.536
 6350TIP3    H118995   2.905   7.184   3.498
 6350TIP3    H218996   3.056   7.186   3.490
 6351TIP3   OH218997   4.565   5.268   0.571
 6351TIP3    H118998   4.609   5.187   0.597
 6351TIP3    H218999   4.635   5.326   0.543
 6352TIP3   OH219000   2.502   3.353   6.525
 6352TIP3    H119001   2.462   3.310   6.448
 6352TIP3    H219002   2.458   3.312   6.600
 6353TIP3   OH219003   6.685   0.972   3.754
 6353TIP3    H119004   6.646   1.059   3.764
 6353TIP3    H219005   6.750   0.967   3.825
 6354TIP3   OH219006   5.205   5.488   1.249
 6354TIP3    H119007   5.248   5.423   1.193
 6354TIP3    H219008   5.183   5.440   1.329
 6355TIP3   OH219009   6.251   1.436   0.880
 6355TIP3    H119010   6.245   1.439   0.785
 6355TIP3    H219011   6.223   1.522   0.909
 6356TIP3   OH219012   7.148   5.481   3.601
 6356TIP3    H119013   7.227   5.454   3.554
 6356TIP3    H219014   7.095   5.526   3.536
 6357TIP3   OH219015   2.793   0.931   3.336
 6357TIP3    H119016   2.729   0.860   3.345
 6357TIP3    H219017   2.871   0.898   3.380
 6358TIP3   OH219018   4.319   2.325  -0.084
 6358TIP3    H119019   4.393   2.368  -0.041
 6358TIP3    H219020   4.331   2.232  -0.065
 6359TIP3   OH219021   2.829   7.638   4.800
 6359TIP3    H119022   2.774   7.716   4.805
 6359TIP3    H219023   2.786   7.574   4.857
 6360TIP3   OH219024   7.929   4.787   3.749
 6360TIP3    H119025   7.940   4.703   3.706
 6360TIP3    H219026   7.885   4.767   3.832
 6361TIP3   OH219027   2.423   7.404   6.319
 6361TIP3    H119028   2.459   7.418   6.407
 6361TIP3    H219029   2.464   7.473   6.266
 6362TIP3   OH219030   3.428   0.228   4.298
 6362TIP3    H119031   3.360   0.180   4.250
 6362TIP3    H219032   3.450   0.301   4.241
 6363TIP3   OH219033   7.691   6.851   5.634
 6363TIP3    H119034   7.613   6.847   5.689
 6363TIP3    H219035   7.710   6.944   5.626
 6364TIP3   OH219036   7.095   7.101   3.175
 6364TIP3    H119037   7.081   7.013   3.210
 6364TIP3    H219038   7.178   7.095   3.128
 6365TIP3   OH219039   0.670   2.325   1.447
 6365TIP3    H119040   0.703   2.242   1.481
 6365TIP3    H219041   0.618   2.362   1.519
 6366TIP3   OH219042   6.625   3.921   3.264
 6366TIP3    H119043   6.670   3.939   3.181
 6366TIP3    H219044   6.660   3.837   3.292
 6367TIP3   OH219045   0.228   0.979   2.992
 6367TIP3    H119046   0.192   0.989   3.080
 6367TIP3    H219047   0.163   1.021   2.935
 6368TIP3   OH219048   0.337   1.601   5.894
 6368TIP3    H119049   0.287   1.540   5.948
 6368TIP3    H219050   0.360   1.672   5.953
 6369TIP3   OH219051   2.148   4.663   4.035
 6369TIP3    H119052   2.176   4.593   3.975
 6369TIP3    H219053   2.112   4.731   3.977
 6370TIP3   OH219054   0.527   5.806   4.591
 6370TIP3    H119055   0.603   5.749   4.584
 6370TIP3    H219056   0.535   5.866   4.517
 6371TIP3   OH219057   2.128   4.537   6.161
 6371TIP3    H119058   2.135   4.621   6.114
 6371TIP3    H219059   2.129   4.561   6.253
 6372TIP3   OH219060   5.996   2.141   4.676
 6372TIP3    H119061   6.011   2.052   4.646
 6372TIP3    H219062   5.904   2.143   4.701
 6373TIP3   OH219063   7.838   2.780   2.294
 6373TIP3    H119064   7.804   2.780   2.204
 6373TIP3    H219065   7.855   2.872   2.313
 6374TIP3   OH219066   4.097   3.376   4.172
 6374TIP3    H119067   4.037   3.304   4.152
 6374TIP3    H219068   4.040   3.444   4.210
 6375TIP3   OH219069   8.206   4.965   1.822
 6375TIP3    H119070   8.286   5.005   1.855
 6375TIP3    H219071   8.182   4.900   1.887
 6376TIP3   OH219072   7.297   5.524   0.527
 6376TIP3    H119073   7.380   5.523   0.480
 6376TIP3    H219074   7.246   5.453   0.488
 6377TIP3   OH219075   7.405   1.055   5.169
 6377TIP3    H119076   7.343   1.080   5.100
 6377TIP3    H219077   7.350   1.021   5.240
 6378TIP3   OH219078   2.516   2.219   5.762
 6378TIP3    H119079   2.585   2.158   5.787
 6378TIP3    H219080   2.531   2.236   5.669
 6379TIP3   OH219081   4.016   5.344   1.758
 6379TIP3    H119082   4.052   5.420   1.804
 6379TIP3    H219083   4.049   5.268   1.806
 6380TIP3   OH219084   1.306   7.408   1.806
 6380TIP3    H119085   1.256   7.354   1.745
 6380TIP3    H219086   1.397   7.394   1.782
 6381TIP3   OH219087   3.874   6.439   4.490
 6381TIP3    H119088   3.805   6.489   4.446
 6381TIP3    H219089   3.840   6.349   4.493
 6382TIP3   OH219090   5.211   1.414   4.732
 6382TIP3    H119091   5.159   1.385   4.807
 6382TIP3    H219092   5.299   1.380   4.748
 6383TIP3   OH219093   1.990   5.599   1.465
 6383TIP3    H119094   2.079   5.593   1.501
 6383TIP3    H219095   2.001   5.575   1.373
 6384TIP3   OH219096   2.543   5.400   2.040
 6384TIP3    H119097   2.554   5.376   2.132
 6384TIP3    H219098   2.612   5.351   1.994
 6385TIP3   OH219099   0.866   5.126   0.780
 6385TIP3    H119100   0.786   5.145   0.730
 6385TIP3    H219101   0.916   5.067   0.724
 6386TIP3   OH219102   7.205   4.565   2.238
 6386TIP3    H119103   7.145   4.506   2.283
 6386TIP3    H219104   7.247   4.615   2.308
 6387TIP3   OH219105   0.171   5.905   4.589
 6387TIP3    H119106   0.177   5.813   4.564
 6387TIP3    H219107   0.192   5.907   4.682
 6388TIP3   OH219108   1.602   6.515   4.565
 6388TIP3    H119109   1.509   6.494   4.563
 6388TIP3    H219110   1.624   6.535   4.474
 6389TIP3   OH219111   1.433   7.231   0.391
 6389TIP3    H119112   1.414   7.325   0.386
 6389TIP3    H219113   1.428   7.211   0.485
 6390TIP3   OH219114   2.112   3.795   4.294
 6390TIP3    H119115   2.170   3.793   4.370
 6390TIP3    H219116   2.058   3.716   4.302
 6391TIP3   OH219117   8.221   7.757   1.349
 6391TIP3    H119118   8.127   7.766   1.339
 6391TIP3    H219119   8.251   7.843   1.381
 6392TIP3   OH219120   3.765   3.978   0.720
 6392TIP3    H119121   3.780   3.918   0.647
 6392TIP3    H219122   3.720   3.925   0.785
 6393TIP3   OH219123   4.966   7.342   5.111
 6393TIP3    H119124   5.051   7.353   5.068
 6393TIP3    H219125   4.942   7.251   5.094
 6394TIP3   OH219126   3.051   4.743   6.114
 6394TIP3    H119127   3.124   4.773   6.169
 6394TIP3    H219128   3.057   4.648   6.117
 6395TIP3   OH219129   3.272   4.131   0.556
 6395TIP3    H119130   3.322   4.120   0.637
 6395TIP3    H219131   3.221   4.210   0.569
 6396TIP3   OH219132   4.008   4.774   1.420
 6396TIP3    H119133   4.049   4.728   1.346
 6396TIP3    H219134   4.034   4.865   1.408
 6397TIP3   OH219135   2.164   2.403   6.191
 6397TIP3    H119136   2.125   2.451   6.119
 6397TIP3    H219137   2.099   2.337   6.214
 6398TIP3   OH219138   0.898   5.529   5.102
 6398TIP3    H119139   0.878   5.575   5.020
 6398TIP3    H219140   0.841   5.452   5.100
 6399TIP3   OH219141   1.100   5.431   2.977
 6399TIP3    H119142   1.034   5.465   2.916
 6399TIP3    H219143   1.182   5.473   2.950
 6400TIP3   OH219144   1.947   3.097   4.672
 6400TIP3    H119145   1.956   3.118   4.765
 6400TIP3    H219146   2.037   3.087   4.641
 6401TIP3   OH219147   0.198   6.718   3.723
 6401TIP3    H119148   0.161   6.804   3.739
 6401TIP3    H219149   0.127   6.668   3.682
 6402TIP3   OH219150   4.646   2.706   3.337
 6402TIP3    H119151   4.671   2.750   3.257
 6402TIP3    H219152   4.570   2.754   3.369
 6403TIP3   OH219153   1.228   6.420   2.518
 6403TIP3    H119154   1.197   6.509   2.533
 6403TIP3    H219155   1.267   6.394   2.602
 6404TIP3   OH219156   6.773   5.609   1.946
 6404TIP3    H119157   6.773   5.513   1.951
 6404TIP3    H219158   6.822   5.637   2.023
 6405TIP3   OH219159   4.151   7.342   0.849
 6405TIP3    H119160   4.106   7.385   0.922
 6405TIP3    H219161   4.087   7.281   0.814
 6406TIP3   OH219162   0.200   5.290   4.075
 6406TIP3    H119163   0.272   5.227   4.070
 6406TIP3    H219164   0.244   5.374   4.089
 6407TIP3   OH219165   5.465   5.302   2.318
 6407TIP3    H119166   5.454   5.209   2.301
 6407TIP3    H219167   5.511   5.335   2.241
 6408TIP3   OH219168   2.929   1.989   5.334
 6408TIP3    H119169   2.943   2.021   5.245
 6408TIP3    H219170   2.996   2.034   5.387
 6409TIP3   OH219171   0.084   0.258   4.864
 6409TIP3    H119172   0.097   0.165   4.882
 6409TIP3    H219173   0.088   0.300   4.951
 6410TIP3   OH219174   5.597   5.933   3.280
 6410TIP3    H119175   5.581   6.011   3.227
 6410TIP3    H219176   5.683   5.902   3.251
 6411TIP3   OH219177   1.315   0.063   2.867
 6411TIP3    H119178   1.325   0.148   2.910
 6411TIP3    H219179   1.398   0.048   2.823
 6412TIP3   OH219180   2.779   3.852   2.704
 6412TIP3    H119181   2.788   3.895   2.620
 6412TIP3    H219182   2.693   3.880   2.736
 6413TIP3   OH219183   3.301   7.101   0.420
 6413TIP3    H119184   3.366   7.058   0.364
 6413TIP3    H219185   3.221   7.049   0.408
 6414TIP3   OH219186   6.391   4.158   5.750
 6414TIP3    H119187   6.332   4.147   5.676
 6414TIP3    H219188   6.376   4.080   5.805
 6415TIP3   OH219189   4.362   2.445   6.481
 6415TIP3    H119190   4.333   2.519   6.534
 6415TIP3    H219191   4.453   2.431   6.506
 6416TIP3   OH219192   0.997   5.480   2.120
 6416TIP3    H119193   1.065   5.525   2.170
 6416TIP3    H219194   1.010   5.510   2.030
 6417TIP3   OH219195   7.753   3.210   1.693
 6417TIP3    H119196   7.816   3.153   1.736
 6417TIP3    H219197   7.671   3.196   1.741
 6418TIP3   OH219198   1.876   3.841   3.055
 6418TIP3    H119199   1.875   3.911   3.120
 6418TIP3    H219200   1.786   3.808   3.053
 6419TIP3   OH219201   3.686   1.535   6.286
 6419TIP3    H119202   3.658   1.614   6.333
 6419TIP3    H219203   3.723   1.478   6.354
 6420TIP3   OH219204   3.788   2.359   1.959
 6420TIP3    H119205   3.864   2.338   2.013
 6420TIP3    H219206   3.756   2.275   1.927
 6421TIP3   OH219207   3.834   1.418   5.011
 6421TIP3    H119208   3.926   1.417   5.038
 6421TIP3    H219209   3.837   1.432   4.916
 6422TIP3   OH219210   1.402   7.531   4.505
 6422TIP3    H119211   1.360   7.449   4.533
 6422TIP3    H219212   1.487   7.530   4.549
 6423TIP3   OH219213   6.928   4.568   5.618
 6423TIP3    H119214   6.894   4.490   5.573
 6423TIP3    H219215   6.907   4.640   5.558
 6424TIP3   OH219216   3.312   5.082   5.797
 6424TIP3    H119217   3.329   5.009   5.857
 6424TIP3    H219218   3.256   5.141   5.847
 6425TIP3   OH219219   2.725   6.359   1.952
 6425TIP3    H119220   2.630   6.374   1.948
 6425TIP3    H219221   2.761   6.411   1.880
 6426TIP3   OH219222   0.774   3.112   0.250
 6426TIP3    H119223   0.794   3.064   0.170
 6426TIP3    H219224   0.823   3.066   0.319
 6427TIP3   OH219225   7.231   7.362   5.898
 6427TIP3    H119226   7.298   7.301   5.869
 6427TIP3    H219227   7.152   7.309   5.905
 6428TIP3   OH219228   3.329   5.712   2.771
 6428TIP3    H119229   3.298   5.677   2.855
 6428TIP3    H219230   3.362   5.800   2.793
 6429TIP3   OH219231   6.589   4.228   1.155
 6429TIP3    H119232   6.590   4.290   1.227
 6429TIP3    H219233   6.556   4.278   1.080
 6430TIP3   OH219234   8.254   0.930   1.572
 6430TIP3    H119235   8.309   0.897   1.501
 6430TIP3    H219236   8.164   0.910   1.545
 6431TIP3   OH219237   1.513   6.631   3.810
 6431TIP3    H119238   1.586   6.571   3.794
 6431TIP3    H219239   1.437   6.586   3.773
 6432TIP3   OH219240   7.482   4.179   2.285
 6432TIP3    H119241   7.388   4.170   2.300
 6432TIP3    H219242   7.495   4.146   2.196
 6433TIP3   OH219243   5.567   0.771   1.743
 6433TIP3    H119244   5.639   0.820   1.782
 6433TIP3    H219245   5.530   0.721   1.816
 6434TIP3   OH219246   1.765   1.032   0.142
 6434TIP3    H119247   1.822   0.973   0.192
 6434TIP3    H219248   1.691   0.978   0.116
 6435TIP3   OH219249   1.106   3.545   5.724
 6435TIP3    H119250   1.137   3.635   5.728
 6435TIP3    H219251   1.011   3.553   5.712
 6436TIP3   OH219252   5.373   1.841   2.530
 6436TIP3    H119253   5.336   1.846   2.442
 6436TIP3    H219254   5.299   1.862   2.588
 6437TIP3   OH219255   1.356   2.875   5.363
 6437TIP3    H119256   1.359   2.786   5.398
 6437TIP3    H219257   1.289   2.919   5.416
 6438TIP3   OH219258   4.029   2.368   5.930
 6438TIP3    H119259   4.114   2.406   5.909
 6438TIP3    H219260   3.986   2.356   5.845
 6439TIP3   OH219261   4.439   4.544   6.042
 6439TIP3    H119262   4.360   4.495   6.066
 6439TIP3    H219263   4.405   4.626   6.005
 6440TIP3   OH219264   2.160   6.604   0.142
 6440TIP3    H119265   2.218   6.661   0.091
 6440TIP3    H219266   2.083   6.658   0.158
 6441TIP3   OH219267   1.580   0.055   2.769
 6441TIP3    H119268   1.569   0.034   2.676
 6441TIP3    H219269   1.661   0.010   2.794
 6442TIP3   OH219270   6.909   3.560   3.566
 6442TIP3    H119271   6.893   3.478   3.614
 6442TIP3    H219272   6.963   3.612   3.625
 6443TIP3   OH219273   4.372   5.658   4.757
 6443TIP3    H119274   4.400   5.579   4.805
 6443TIP3    H219275   4.413   5.730   4.805
 6444TIP3   OH219276   7.661   6.579   0.919
 6444TIP3    H119277   7.695   6.500   0.962
 6444TIP3    H219278   7.705   6.581   0.834
 6445TIP3   OH219279   2.298   1.793   0.974
 6445TIP3    H119280   2.328   1.869   1.024
 6445TIP3    H219281   2.205   1.807   0.962
 6446TIP3   OH219282   6.094   7.305   1.872
 6446TIP3    H119283   6.161   7.338   1.932
 6446TIP3    H219284   6.018   7.361   1.889
 6447TIP3   OH219285   1.300   0.505   5.008
 6447TIP3    H119286   1.254   0.445   4.949
 6447TIP3    H219287   1.230   0.553   5.053
 6448TIP3   OH219288   7.552   4.346   1.941
 6448TIP3    H119289   7.544   4.250   1.945
 6448TIP3    H219290   7.470   4.378   1.979
 6449TIP3   OH219291   6.736   6.266   0.939
 6449TIP3    H119292   6.706   6.353   0.966
 6449TIP3    H219293   6.666   6.232   0.883
 6450TIP3   OH219294   2.640   0.713   5.007
 6450TIP3    H119295   2.583   0.636   5.006
 6450TIP3    H219296   2.719   0.685   4.962
 6451TIP3   OH219297   5.673   2.902   2.548
 6451TIP3    H119298   5.665   2.938   2.636
 6451TIP3    H219299   5.592   2.855   2.534
 6452TIP3   OH219300   5.905   0.942   1.935
 6452TIP3    H119301   5.940   1.007   1.995
 6452TIP3    H219302   5.957   0.953   1.855
 6453TIP3   OH219303   1.688   2.010   2.903
 6453TIP3    H119304   1.732   2.057   2.833
 6453TIP3    H219305   1.611   1.971   2.862
 6454TIP3   OH219306   6.528   3.278   6.367
 6454TIP3    H119307   6.467   3.333   6.416
 6454TIP3    H219308   6.589   3.340   6.327
 6455TIP3   OH219309   1.605   2.586   5.666
 6455TIP3    H119310   1.545   2.513   5.651
 6455TIP3    H219311   1.675   2.549   5.720
 6456TIP3   OH219312   4.624   0.103   6.616
 6456TIP3    H119313   4.606   0.073   6.705
 6456TIP3    H219314   4.613   0.025   6.562
 6457TIP3   OH219315   6.707   3.511   5.800
 6457TIP3    H119316   6.699   3.590   5.745
 6457TIP3    H219317   6.740   3.444   5.740
 6458TIP3   OH219318   4.518   1.998   4.313
 6458TIP3    H119319   4.547   2.021   4.401
 6458TIP3    H219320   4.469   1.916   4.324
 6459TIP3   OH219321   4.802   6.389   6.562
 6459TIP3    H119322   4.739   6.415   6.630
 6459TIP3    H219323   4.760   6.414   6.480
 6460TIP3   OH219324   1.458   3.693   4.932
 6460TIP3    H119325   1.470   3.598   4.927
 6460TIP3    H219326   1.537   3.730   4.894
 6461TIP3   OH219327   7.495   5.526   0.357
 6461TIP3    H119328   7.524   5.463   0.291
 6461TIP3    H219329   7.476   5.606   0.307
 6462TIP3   OH219330   1.954   0.141   1.992
 6462TIP3    H119331   1.926   0.219   2.039
 6462TIP3    H219332   1.886   0.076   2.010
 6463TIP3   OH219333   1.058   2.243   1.334
 6463TIP3    H119334   1.066   2.278   1.245
 6463TIP3    H219335   1.132   2.183   1.343
 6464TIP3   OH219336   7.139   4.966   0.426
 6464TIP3    H119337   7.078   4.896   0.403
 6464TIP3    H219338   7.226   4.930   0.407
 6465TIP3   OH219339   1.332   6.419   0.352
 6465TIP3    H119340   1.402   6.353   0.353
 6465TIP3    H219341   1.340   6.464   0.436
 6466TIP3   OH219342   5.124   6.706  -0.006
 6466TIP3    H119343   5.108   6.635   0.057
 6466TIP3    H219344   5.139   6.783   0.048
 6467TIP3   OH219345   2.750   6.727   5.945
 6467TIP3    H119346   2.766   6.664   6.016
 6467TIP3    H219347   2.714   6.804   5.989
 6468TIP3   OH219348   4.852   5.545   5.114
 6468TIP3    H119349   4.931   5.596   5.093
 6468TIP3    H219350   4.884   5.472   5.167
 6469TIP3   OH219351   6.434   5.853   3.053
 6469TIP3    H119352   6.516   5.899   3.032
 6469TIP3    H219353   6.462   5.763   3.074
 6470TIP3   OH219354   1.724   2.211   5.461
 6470TIP3    H119355   1.706   2.305   5.469
 6470TIP3    H219356   1.802   2.205   5.406
 6471TIP3   OH219357   2.084   2.409   3.455
 6471TIP3    H119358   2.156   2.448   3.406
 6471TIP3    H219359   2.053   2.337   3.401
 6472TIP3   OH219360   1.499   1.457   5.431
 6472TIP3    H119361   1.413   1.469   5.472
 6472TIP3    H219362   1.551   1.412   5.497
 6473TIP3   OH219363   7.984   6.150   2.857
 6473TIP3    H119364   7.965   6.225   2.802
 6473TIP3    H219365   8.073   6.166   2.890
 6474TIP3   OH219366   4.375   4.336   4.938
 6474TIP3    H119367   4.281   4.318   4.942
 6474TIP3    H219368   4.382   4.410   4.877
 6475TIP3   OH219369   3.900   3.589   2.246
 6475TIP3    H119370   3.848   3.641   2.308
 6475TIP3    H219371   3.928   3.652   2.180
 6476TIP3   OH219372   5.231   5.114   0.085
 6476TIP3    H119373   5.199   5.204   0.078
 6476TIP3    H219374   5.286   5.103   0.008
 6477TIP3   OH219375   0.130   4.559   0.776
 6477TIP3    H119376   0.143   4.545   0.682
 6477TIP3    H219377   0.102   4.651   0.783
 6478TIP3   OH219378   7.012   5.882   3.472
 6478TIP3    H119379   7.001   5.906   3.564
 6478TIP3    H219380   7.031   5.965   3.428
 6479TIP3   OH219381   3.066   6.442   6.334
 6479TIP3    H119382   3.077   6.406   6.422
 6479TIP3    H219383   3.108   6.379   6.277
 6480TIP3   OH219384   3.323   2.307   1.089
 6480TIP3    H119385   3.379   2.382   1.069
 6480TIP3    H219386   3.234   2.342   1.086
 6481TIP3   OH219387   6.588   6.516   6.654
 6481TIP3    H119388   6.514   6.522   6.714
 6481TIP3    H219389   6.656   6.570   6.694
 6482TIP3   OH219390   2.364   6.987   2.478
 6482TIP3    H119391   2.270   7.001   2.494
 6482TIP3    H219392   2.404   6.990   2.564
 6483TIP3   OH219393   1.495   4.206   1.271
 6483TIP3    H119394   1.540   4.195   1.187
 6483TIP3    H219395   1.562   4.192   1.337
 6484TIP3   OH219396   2.017   2.671   3.533
 6484TIP3    H119397   2.038   2.595   3.588
 6484TIP3    H219398   2.101   2.713   3.515
 6485TIP3   OH219399   6.241   5.225   3.142
 6485TIP3    H119400   6.163   5.278   3.125
 6485TIP3    H219401   6.242   5.213   3.237
 6486TIP3   OH219402   4.343   4.776   1.093
 6486TIP3    H119403   4.406   4.704   1.091
 6486TIP3    H219404   4.302   4.774   1.006
 6487TIP3   OH219405   7.845   7.275   5.617
 6487TIP3    H119406   7.806   7.203   5.568
 6487TIP3    H219407   7.886   7.330   5.550
 6488TIP3   OH219408   6.038   7.326   0.639
 6488TIP3    H119409   5.979   7.364   0.574
 6488TIP3    H219410   6.104   7.393   0.654
 6489TIP3   OH219411   5.527   6.349   0.654
 6489TIP3    H119412   5.455   6.300   0.614
 6489TIP3    H219413   5.574   6.284   0.707
 6490TIP3   OH219414   4.641   4.331   5.480
 6490TIP3    H119415   4.685   4.364   5.558
 6490TIP3    H219416   4.617   4.410   5.431
 6491TIP3   OH219417   5.737   7.833   0.272
 6491TIP3    H119418   5.698   7.900   0.329
 6491TIP3    H219419   5.678   7.828   0.197
 6492TIP3   OH219420   3.972   6.138   1.017
 6492TIP3    H119421   3.982   6.054   0.972
 6492TIP3    H219422   3.920   6.117   1.095
 6493TIP3   OH219423   0.840   2.908   0.079
 6493TIP3    H119424   0.799   2.962   0.012
 6493TIP3    H219425   0.879   2.835   0.031
 6494TIP3   OH219426   7.217   4.130   2.328
 6494TIP3    H119427   7.232   4.215   2.370
 6494TIP3    H219428   7.169   4.079   2.393
 6495TIP3   OH219429   2.803   2.411   3.077
 6495TIP3    H119430   2.733   2.348   3.058
 6495TIP3    H219431   2.856   2.368   3.145
 6496TIP3   OH219432   3.747   5.677   1.607
 6496TIP3    H119433   3.773   5.586   1.594
 6496TIP3    H219434   3.705   5.702   1.524
 6497TIP3   OH219435   5.830   6.464   5.845
 6497TIP3    H119436   5.911   6.418   5.865
 6497TIP3    H219437   5.768   6.433   5.911
 6498TIP3   OH219438   4.747   2.740   3.886
 6498TIP3    H119439   4.680   2.808   3.879
 6498TIP3    H219440   4.736   2.687   3.807
 6499TIP3   OH219441   7.377   4.247   4.565
 6499TIP3    H119442   7.331   4.294   4.495
 6499TIP3    H219443   7.434   4.186   4.519
 6500TIP3   OH219444   6.895   6.136   3.018
 6500TIP3    H119445   6.871   6.117   3.108
 6500TIP3    H219446   6.900   6.051   2.975
 6501TIP3   OH219447   4.089   5.597   4.121
 6501TIP3    H119448   4.038   5.640   4.190
 6501TIP3    H219449   4.062   5.640   4.040
 6502TIP3   OH219450   6.551   7.893   5.761
 6502TIP3    H119451   6.537   7.830   5.831
 6502TIP3    H219452   6.481   7.876   5.698
 6503TIP3   OH219453   7.274   2.686   0.151
 6503TIP3    H119454   7.257   2.630   0.227
 6503TIP3    H219455   7.317   2.629   0.088
 6504TIP3   OH219456   4.468   4.399   4.527
 6504TIP3    H119457   4.415   4.473   4.558
 6504TIP3    H219458   4.404   4.335   4.496
 6505TIP3   OH219459   3.918   3.746   1.040
 6505TIP3    H119460   3.970   3.815   1.081
 6505TIP3    H219461   3.891   3.690   1.112
 6506TIP3   OH219462   6.522   7.812   3.825
 6506TIP3    H119463   6.461   7.739   3.814
 6506TIP3    H219464   6.608   7.774   3.811
 6507TIP3   OH219465   8.130   1.755  -0.010
 6507TIP3    H119466   8.145   1.789   0.078
 6507TIP3    H219467   8.186   1.808  -0.067
 6508TIP3   OH219468   2.083   5.664   3.694
 6508TIP3    H119469   2.153   5.696   3.750
 6508TIP3    H219470   2.008   5.654   3.753
 6509TIP3   OH219471   4.858   0.928   5.537
 6509TIP3    H119472   4.943   0.899   5.504
 6509TIP3    H219473   4.878   0.978   5.617
 6510TIP3   OH219474   5.088   1.032   5.137
 6510TIP3    H119475   5.054   1.114   5.174
 6510TIP3    H219476   5.177   1.053   5.109
 6511TIP3   OH219477   1.736   7.749   3.726
 6511TIP3    H119478   1.738   7.831   3.775
 6511TIP3    H219479   1.824   7.712   3.735
 6512TIP3   OH219480   5.462   4.742   3.639
 6512TIP3    H119481   5.424   4.702   3.561
 6512TIP3    H219482   5.552   4.764   3.613
 6513TIP3   OH219483   4.117   4.064   3.020
 6513TIP3    H119484   4.090   4.020   2.939
 6513TIP3    H219485   4.104   3.998   3.088
 6514TIP3   OH219486   1.965   1.536   3.387
 6514TIP3    H119487   2.002   1.512   3.302
 6514TIP3    H219488   1.936   1.626   3.377
 6515TIP3   OH219489   8.224   2.106   1.090
 6515TIP3    H119490   8.228   2.201   1.095
 6515TIP3    H219491   8.148   2.088   1.035
 6516TIP3   OH219492   3.985   1.226   1.121
 6516TIP3    H119493   4.012   1.139   1.093
 6516TIP3    H219494   4.059   1.259   1.172
 6517TIP3   OH219495   0.768   0.194   4.367
 6517TIP3    H119496   0.801   0.263   4.425
 6517TIP3    H219497   0.683   0.171   4.404
 6518TIP3   OH219498   4.211   1.155   1.279
 6518TIP3    H119499   4.291   1.159   1.227
 6518TIP3    H219500   4.238   1.114   1.361
 6519TIP3   OH219501   6.927   6.342   2.669
 6519TIP3    H119502   7.009   6.347   2.718
 6519TIP3    H219503   6.859   6.330   2.735
 6520TIP3   OH219504   7.847   0.473   5.807
 6520TIP3    H119505   7.866   0.396   5.754
 6520TIP3    H219506   7.875   0.448   5.896
 6521TIP3   OH219507   6.788   2.749   2.114
 6521TIP3    H119508   6.796   2.816   2.182
 6521TIP3    H219509   6.870   2.757   2.064
 6522TIP3   OH219510   5.615   7.789   1.000
 6522TIP3    H119511   5.634   7.756   0.912
 6522TIP3    H219512   5.673   7.739   1.057
 6523TIP3   OH219513   5.118   7.068   6.671
 6523TIP3    H119514   5.129   7.011   6.594
 6523TIP3    H219515   5.120   7.157   6.635
 6524TIP3   OH219516   8.080   2.690   1.510
 6524TIP3    H119517   8.039   2.766   1.469
 6524TIP3    H219518   8.096   2.717   1.600
 6525TIP3   OH219519   6.044   4.197   5.775
 6525TIP3    H119520   6.102   4.201   5.699
 6525TIP3    H219521   6.102   4.197   5.851
 6526TIP3   OH219522   1.722   3.850   0.404
 6526TIP3    H119523   1.798   3.884   0.357
 6526TIP3    H219524   1.722   3.757   0.385
 6527TIP3   OH219525   6.609   2.193   3.048
 6527TIP3    H119526   6.595   2.112   2.999
 6527TIP3    H219527   6.620   2.165   3.138
 6528TIP3   OH219528   6.899   4.666   4.079
 6528TIP3    H119529   6.973   4.659   4.138
 6528TIP3    H219530   6.932   4.637   3.994
 6529TIP3   OH219531   4.260   2.077   1.922
 6529TIP3    H119532   4.200   2.151   1.916
 6529TIP3    H219533   4.299   2.071   1.835
 6530TIP3   OH219534   7.761   4.024   4.812
 6530TIP3    H119535   7.703   3.977   4.752
 6530TIP3    H219536   7.784   4.104   4.764
 6531TIP3   OH219537   5.066   3.522   0.434
 6531TIP3    H119538   4.981   3.496   0.468
 6531TIP3    H219539   5.047   3.589   0.368
 6532TIP3   OH219540   7.543   7.794   1.784
 6532TIP3    H119541   7.503   7.847   1.852
 6532TIP3    H219542   7.533   7.846   1.704
 6533TIP3   OH219543   6.491   4.900   6.503
 6533TIP3    H119544   6.470   4.975   6.558
 6533TIP3    H219545   6.499   4.937   6.415
 6534TIP3   OH219546   6.893   2.862   2.723
 6534TIP3    H119547   6.838   2.924   2.675
 6534TIP3    H219548   6.909   2.791   2.661
 6535TIP3   OH219549   1.275   1.655   3.452
 6535TIP3    H119550   1.183   1.658   3.480
 6535TIP3    H219551   1.324   1.687   3.528
 6536TIP3   OH219552   4.909   1.682   6.541
 6536TIP3    H119553   4.845   1.626   6.585
 6536TIP3    H219554   4.911   1.762   6.592
 6537TIP3   OH219555   3.279   1.877   1.827
 6537TIP3    H119556   3.258   1.827   1.748
 6537TIP3    H219557   3.349   1.936   1.799
 6538TIP3   OH219558   7.802   2.248   5.827
 6538TIP3    H119559   7.755   2.247   5.743
 6538TIP3    H219560   7.894   2.248   5.802
 6539TIP3   OH219561   2.617   3.704   3.285
 6539TIP3    H119562   2.640   3.677   3.374
 6539TIP3    H219563   2.526   3.677   3.274
 6540TIP3   OH219564   0.792   5.955   6.603
 6540TIP3    H119565   0.752   5.884   6.653
 6540TIP3    H219566   0.847   6.002   6.666
 6541TIP3   OH219567   5.079   5.661   0.761
 6541TIP3    H119568   5.075   5.612   0.843
 6541TIP3    H219569   5.171   5.658   0.735
 6542TIP3   OH219570   0.643   0.037   1.948
 6542TIP3    H119571   0.605   0.044   2.035
 6542TIP3    H219572   0.680   0.124   1.931
 6543TIP3   OH219573   0.487   1.588   0.072
 6543TIP3    H119574   0.544   1.564   0.145
 6543TIP3    H219575   0.499   1.683   0.063
 6544TIP3   OH219576   6.027   4.555   4.512
 6544TIP3    H119577   6.102   4.527   4.563
 6544TIP3    H219578   6.031   4.651   4.513
 6545TIP3   OH219579   1.865   5.638   5.253
 6545TIP3    H119580   1.814   5.558   5.267
 6545TIP3    H219581   1.827   5.702   5.314
 6546TIP3   OH219582   7.031   7.527   3.874
 6546TIP3    H119583   6.969   7.454   3.883
 6546TIP3    H219584   7.116   7.488   3.894
 6547TIP3   OH219585   3.254   2.503   4.722
 6547TIP3    H119586   3.215   2.532   4.640
 6547TIP3    H219587   3.348   2.504   4.706
 6548TIP3   OH219588   4.709   0.130   5.632
 6548TIP3    H119589   4.671   0.208   5.671
 6548TIP3    H219590   4.651   0.110   5.558
 6549TIP3   OH219591   0.817   2.678   0.838
 6549TIP3    H119592   0.872   2.600   0.830
 6549TIP3    H219593   0.728   2.643   0.849
 6550TIP3   OH219594   1.768   4.972   2.796
 6550TIP3    H119595   1.863   4.970   2.787
 6550TIP3    H219596   1.748   5.058   2.833
 6551TIP3   OH219597   3.957   1.497   5.306
 6551TIP3    H119598   4.020   1.513   5.376
 6551TIP3    H219599   4.000   1.434   5.249
 6552TIP3   OH219600   5.567   3.642   0.388
 6552TIP3    H119601   5.658   3.616   0.399
 6552TIP3    H219602   5.517   3.579   0.440
 6553TIP3   OH219603   1.316   2.398  -0.017
 6553TIP3    H119604   1.346   2.309  -0.001
 6553TIP3    H219605   1.327   2.443   0.067
 6554TIP3   OH219606   2.959   3.071   6.014
 6554TIP3    H119607   2.959   3.000   5.950
 6554TIP3    H219608   2.981   3.149   5.963
 6555TIP3   OH219609   0.711   6.453   3.824
 6555TIP3    H119610   0.653   6.478   3.895
 6555TIP3    H219611   0.769   6.386   3.862
 6556TIP3   OH219612   1.625   1.971   5.874
 6556TIP3    H119613   1.605   2.053   5.828
 6556TIP3    H219614   1.715   1.982   5.904
 6557TIP3   OH219615  -0.004   1.042   0.702
 6557TIP3    H119616   0.083   1.081   0.706
 6557TIP3    H219617  -0.040   1.071   0.618
 6558TIP3   OH219618   6.412   2.871   4.376
 6558TIP3    H119619   6.464   2.935   4.327
 6558TIP3    H219620   6.369   2.818   4.309
 6559TIP3   OH219621   7.034   5.435   4.706
 6559TIP3    H119622   7.048   5.514   4.758
 6559TIP3    H219623   7.057   5.363   4.765
 6560TIP3   OH219624   5.914   0.093   0.494
 6560TIP3    H119625   5.929   0.154   0.422
 6560TIP3    H219626   5.962   0.014   0.469
 6561TIP3   OH219627   6.698   2.148   3.313
 6561TIP3    H119628   6.721   2.237   3.337
 6561TIP3    H219629   6.736   2.093   3.382
 6562TIP3   OH219630   4.058   7.491   3.277
 6562TIP3    H119631   4.097   7.413   3.316
 6562TIP3    H219632   3.991   7.457   3.217
 6563TIP3   OH219633   8.005   1.112   5.234
 6563TIP3    H119634   7.964   1.140   5.152
 6563TIP3    H219635   7.969   1.025   5.250
 6564TIP3   OH219636   5.364   0.058   3.470
 6564TIP3    H119637   5.326   0.131   3.518
 6564TIP3    H219638   5.458   0.072   3.474
 6565TIP3   OH219639   3.451   1.033   2.511
 6565TIP3    H119640   3.398   1.023   2.590
 6565TIP3    H219641   3.432   1.121   2.479
 6566TIP3   OH219642   8.125   5.587   5.799
 6566TIP3    H119643   8.063   5.587   5.725
 6566TIP3    H219644   8.073   5.559   5.874
 6567TIP3   OH219645   1.815   3.622   3.534
 6567TIP3    H119646   1.885   3.682   3.513
 6567TIP3    H219647   1.857   3.536   3.538
 6568TIP3   OH219648   5.735   0.930   1.340
 6568TIP3    H119649   5.664   0.893   1.289
 6568TIP3    H219650   5.808   0.870   1.327
 6569TIP3   OH219651   1.448   6.471   3.551
 6569TIP3    H119652   1.413   6.388   3.583
 6569TIP3    H219653   1.497   6.447   3.472
 6570TIP3   OH219654   5.151   1.973   1.646
 6570TIP3    H119655   5.235   1.948   1.606
 6570TIP3    H219656   5.091   1.903   1.621
 6571TIP3   OH219657   5.675   0.374   2.125
 6571TIP3    H119658   5.594   0.352   2.170
 6571TIP3    H219659   5.743   0.328   2.173
 6572TIP3   OH219660   5.559   2.679   1.121
 6572TIP3    H119661   5.519   2.645   1.041
 6572TIP3    H219662   5.601   2.761   1.095
 6573TIP3   OH219663   7.982   6.918   1.353
 6573TIP3    H119664   7.969   6.825   1.337
 6573TIP3    H219665   8.034   6.922   1.433
 6574TIP3   OH219666   2.410   6.105   0.779
 6574TIP3    H119667   2.370   6.018   0.789
 6574TIP3    H219668   2.499   6.094   0.812
 6575TIP3   OH219669   8.200   6.026   6.004
 6575TIP3    H119670   8.187   5.939   6.041
 6575TIP3    H219671   8.112   6.057   5.985
 6576TIP3   OH219672   1.969   3.162   4.949
 6576TIP3    H119673   1.899   3.167   5.014
 6576TIP3    H219674   2.028   3.094   4.982
 6577TIP3   OH219675   4.820   5.368   0.472
 6577TIP3    H119676   4.899   5.317   0.487
 6577TIP3    H219677   4.829   5.444   0.529
 6578TIP3   OH219678   3.116   4.502   3.456
 6578TIP3    H119679   3.054   4.464   3.518
 6578TIP3    H219680   3.173   4.558   3.510
 6579TIP3   OH219681   7.684   1.061   6.007
 6579TIP3    H119682   7.728   1.017   5.935
 6579TIP3    H219683   7.593   1.070   5.977
 6580TIP3   OH219684   4.404   2.319   0.512
 6580TIP3    H119685   4.429   2.254   0.577
 6580TIP3    H219686   4.399   2.270   0.430
 6581TIP3   OH219687   0.478   5.656   1.129
 6581TIP3    H119688   0.387   5.640   1.104
 6581TIP3    H219689   0.479   5.640   1.224
 6582TIP3   OH219690   8.341   6.732   6.762
 6582TIP3    H119691   8.259   6.692   6.732
 6582TIP3    H219692   8.365   6.793   6.691
 6583TIP3   OH219693   1.844   6.887   0.371
 6583TIP3    H119694   1.836   6.860   0.279
 6583TIP3    H219695   1.939   6.891   0.386
 6584TIP3   OH219696  -0.022   7.421   5.592
 6584TIP3    H119697   0.054   7.443   5.538
 6584TIP3    H219698  -0.098   7.448   5.541
 6585TIP3   OH219699   4.360   4.042   6.723
 6585TIP3    H119700   4.356   4.075   6.633
 6585TIP3    H219701   4.329   4.116   6.777
 6586TIP3   OH219702   5.446   1.854   3.186
 6586TIP3    H119703   5.370   1.802   3.212
 6586TIP3    H219704   5.410   1.941   3.168
 6587TIP3   OH219705   6.280   5.316   1.910
 6587TIP3    H119706   6.233   5.286   1.832
 6587TIP3    H219707   6.350   5.372   1.875
 6588TIP3   OH219708   2.999   3.674   0.789
 6588TIP3    H119709   3.002   3.709   0.700
 6588TIP3    H219710   3.051   3.735   0.841
 6589TIP3   OH219711   2.716   3.126   4.543
 6589TIP3    H119712   2.651   3.093   4.605
 6589TIP3    H219713   2.796   3.076   4.562
 6590TIP3   OH219714   1.648   4.149   5.892
 6590TIP3    H119715   1.613   4.059   5.888
 6590TIP3    H219716   1.571   4.204   5.902
 6591TIP3   OH219717   2.593   7.374   5.322
 6591TIP3    H119718   2.552   7.426   5.391
 6591TIP3    H219719   2.641   7.306   5.369
 6592TIP3   OH219720   0.430   6.885   2.709
 6592TIP3    H119721   0.350   6.833   2.702
 6592TIP3    H219722   0.408   6.968   2.665
 6593TIP3   OH219723   4.348   3.491   4.485
 6593TIP3    H119724   4.342   3.523   4.395
 6593TIP3    H219725   4.441   3.501   4.508
 6594TIP3   OH219726   1.128   0.534   3.139
 6594TIP3    H119727   1.095   0.539   3.228
 6594TIP3    H219728   1.199   0.598   3.136
 6595TIP3   OH219729   4.533   0.267   2.480
 6595TIP3    H119730   4.466   0.204   2.457
 6595TIP3    H219731   4.615   0.227   2.452
 6596TIP3   OH219732   6.457   1.986   2.389
 6596TIP3    H119733   6.376   1.964   2.341
 6596TIP3    H219734   6.512   1.908   2.380
 6597TIP3   OH219735   4.872   0.309   6.303
 6597TIP3    H119736   4.842   0.368   6.234
 6597TIP3    H219737   4.827   0.226   6.283
 6598TIP3   OH219738   6.936   0.709   3.025
 6598TIP3    H119739   6.854   0.696   2.976
 6598TIP3    H219740   6.999   0.736   2.958
 6599TIP3   OH219741   1.677   5.122   6.211
 6599TIP3    H119742   1.742   5.090   6.273
 6599TIP3    H219743   1.634   5.195   6.256
 6600TIP3   OH219744   1.686   2.230   0.050
 6600TIP3    H119745   1.677   2.249   0.144
 6600TIP3    H219746   1.659   2.139   0.042
 6601TIP3   OH219747   5.117   4.092   3.492
 6601TIP3    H119748   5.051   4.130   3.434
 6601TIP3    H219749   5.093   4.000   3.499
 6602TIP3   OH219750   0.123   4.874   6.150
 6602TIP3    H119751   0.210   4.899   6.116
 6602TIP3    H219752   0.142   4.815   6.223
 6603TIP3   OH219753   1.654   0.426   0.872
 6603TIP3    H119754   1.660   0.332   0.856
 6603TIP3    H219755   1.677   0.436   0.964
 6604TIP3   OH219756   5.974   2.114   4.161
 6604TIP3    H119757   5.965   2.209   4.162
 6604TIP3    H219758   5.962   2.090   4.069
 6605TIP3   OH219759   6.224   1.985   1.640
 6605TIP3    H119760   6.307   2.028   1.662
 6605TIP3    H219761   6.188   2.039   1.570
 6606TIP3   OH219762   0.128   6.380   3.469
 6606TIP3    H119763   0.194   6.447   3.452
 6606TIP3    H219764   0.165   6.300   3.430
 6607TIP3   OH219765   0.971   2.295   3.532
 6607TIP3    H119766   1.042   2.239   3.563
 6607TIP3    H219767   0.900   2.280   3.594
 6608TIP3   OH219768   3.234   0.264   2.104
 6608TIP3    H119769   3.191   0.337   2.149
 6608TIP3    H219770   3.165   0.224   2.051
 6609TIP3   OH219771   6.763   4.988   3.678
 6609TIP3    H119772   6.827   5.059   3.671
 6609TIP3    H219773   6.686   5.029   3.717
 6610TIP3   OH219774   2.694   2.115   0.802
 6610TIP3    H119775   2.772   2.097   0.854
 6610TIP3    H219776   2.686   2.210   0.803
 6611TIP3   OH219777   1.983   6.444   6.172
 6611TIP3    H119778   2.009   6.466   6.082
 6611TIP3    H219779   1.887   6.453   6.171
 6612TIP3   OH219780   7.881   3.645   3.711
 6612TIP3    H119781   7.977   3.650   3.710
 6612TIP3    H219782   7.853   3.732   3.740
 6613TIP3   OH219783   7.784   4.769   0.311
 6613TIP3    H119784   7.812   4.765   0.220
 6613TIP3    H219785   7.723   4.696   0.321
 6614TIP3   OH219786   2.120   7.455   2.353
 6614TIP3    H119787   2.128   7.484   2.444
 6614TIP3    H219788   2.026   7.456   2.336
 6615TIP3   OH219789   6.708   4.788   0.029
 6615TIP3    H119790   6.712   4.779   0.124
 6615TIP3    H219791   6.798   4.773   0.000
 6616TIP3   OH219792   7.446   0.791   4.950
 6616TIP3    H119793   7.422   0.707   4.989
 6616TIP3    H219794   7.377   0.808   4.885
 6617TIP3   OH219795   3.600   2.262   1.018
 6617TIP3    H119796   3.506   2.277   1.005
 6617TIP3    H219797   3.642   2.338   0.979
 6618TIP3   OH219798   6.516   2.515   5.415
 6618TIP3    H119799   6.562   2.454   5.472
 6618TIP3    H219800   6.533   2.482   5.326
 6619TIP3   OH219801   1.099   4.291   3.560
 6619TIP3    H119802   1.004   4.307   3.559
 6619TIP3    H219803   1.109   4.204   3.521
 6620TIP3   OH219804   4.097   5.241   0.830
 6620TIP3    H119805   4.087   5.146   0.834
 6620TIP3    H219806   4.158   5.256   0.758
 6621TIP3   OH219807   4.684   6.346   0.504
 6621TIP3    H119808   4.730   6.262   0.499
 6621TIP3    H219809   4.751   6.410   0.526
 6622TIP3   OH219810   0.780   6.927   4.925
 6622TIP3    H119811   0.721   6.871   4.873
 6622TIP3    H219812   0.859   6.935   4.871
 6623TIP3   OH219813   8.234   4.242   6.320
 6623TIP3    H119814   8.271   4.295   6.391
 6623TIP3    H219815   8.156   4.290   6.293
 6624TIP3   OH219816   6.931   2.001   2.275
 6624TIP3    H119817   6.960   1.976   2.362
 6624TIP3    H219818   7.005   2.050   2.238
 6625TIP3   OH219819   7.601   3.170   0.138
 6625TIP3    H119820   7.603   3.108   0.065
 6625TIP3    H219821   7.692   3.179   0.165
 6626TIP3   OH219822   4.439   1.866   1.938
 6626TIP3    H119823   4.521   1.895   1.898
 6626TIP3    H219824   4.383   1.944   1.938
 6627TIP3   OH219825   5.257   7.288   1.549
 6627TIP3    H119826   5.295   7.261   1.465
 6627TIP3    H219827   5.166   7.259   1.543
 6628TIP3   OH219828   6.955   2.551   1.400
 6628TIP3    H119829   6.972   2.460   1.422
 6628TIP3    H219830   7.040   2.585   1.370
 6629TIP3   OH219831   5.147   4.483   5.573
 6629TIP3    H119832   5.187   4.492   5.487
 6629TIP3    H219833   5.177   4.560   5.622
 6630TIP3   OH219834   3.412   7.640   1.146
 6630TIP3    H119835   3.359   7.706   1.191
 6630TIP3    H219836   3.496   7.683   1.131
 6631TIP3   OH219837   6.995   4.426   0.651
 6631TIP3    H119838   7.018   4.367   0.723
 6631TIP3    H219839   6.939   4.492   0.691
 6632TIP3   OH219840   2.223   0.851   2.454
 6632TIP3    H119841   2.304   0.800   2.446
 6632TIP3    H219842   2.164   0.812   2.390
 6633TIP3   OH219843   4.465   5.185   6.780
 6633TIP3    H119844   4.370   5.187   6.767
 6633TIP3    H219845   4.481   5.103   6.826
 6634TIP3   OH219846   1.499   0.605   2.039
 6634TIP3    H119847   1.582   0.620   2.082
 6634TIP3    H219848   1.477   0.688   1.998
 6635TIP3   OH219849   6.355   6.763   3.916
 6635TIP3    H119850   6.341   6.751   4.010
 6635TIP3    H219851   6.395   6.681   3.887
 6636TIP3   OH219852   1.155   7.522   6.141
 6636TIP3    H119853   1.065   7.519   6.172
 6636TIP3    H219854   1.198   7.586   6.197
 6637TIP3   OH219855   2.370   4.655   1.819
 6637TIP3    H119856   2.304   4.723   1.833
 6637TIP3    H219857   2.342   4.611   1.738
 6638TIP3   OH219858   7.418   1.542   0.385
 6638TIP3    H119859   7.511   1.547   0.365
 6638TIP3    H219860   7.413   1.484   0.461
 6639TIP3   OH219861   3.116   2.388   1.420
 6639TIP3    H119862   3.089   2.363   1.332
 6639TIP3    H219863   3.195   2.441   1.406
 6640TIP3   OH219864   2.437   7.572   0.087
 6640TIP3    H119865   2.410   7.490   0.048
 6640TIP3    H219866   2.493   7.614   0.022
 6641TIP3   OH219867   0.293   2.654   5.236
 6641TIP3    H119868   0.246   2.581   5.196
 6641TIP3    H219869   0.345   2.614   5.306
 6642TIP3   OH219870   4.803   1.552   1.036
 6642TIP3    H119871   4.711   1.535   1.058
 6642TIP3    H219872   4.836   1.467   1.008
 6643TIP3   OH219873   7.153   7.055   0.876
 6643TIP3    H119874   7.181   7.028   0.963
 6643TIP3    H219875   7.154   7.151   0.880
 6644TIP3   OH219876   3.849   1.854   5.444
 6644TIP3    H119877   3.929   1.870   5.394
 6644TIP3    H219878   3.873   1.784   5.505
 6645TIP3   OH219879   1.002   4.327   1.361
 6645TIP3    H119880   1.002   4.423   1.364
 6645TIP3    H219881   1.048   4.306   1.280
 6646TIP3   OH219882   5.022   5.972   6.189
 6646TIP3    H119883   4.958   6.036   6.157
 6646TIP3    H219884   5.008   5.895   6.135
 6647TIP3   OH219885   4.952   2.353   4.910
 6647TIP3    H119886   5.008   2.366   4.833
 6647TIP3    H219887   5.004   2.298   4.969
 6648TIP3   OH219888   0.975   1.980   4.161
 6648TIP3    H119889   0.901   1.920   4.173
 6648TIP3    H219890   0.977   2.033   4.241
 6649TIP3   OH219891   0.157   2.720   5.906
 6649TIP3    H119892   0.161   2.697   5.813
 6649TIP3    H219893   0.243   2.757   5.926
 6650TIP3   OH219894   0.036   6.571   5.799
 6650TIP3    H119895   0.008   6.550   5.710
 6650TIP3    H219896  -0.044   6.565   5.851
 6651TIP3   OH219897   2.050   7.382   1.604
 6651TIP3    H119898   2.144   7.389   1.621
 6651TIP3    H219899   2.009   7.441   1.667
 6652TIP3   OH219900   0.480   4.285   6.656
 6652TIP3    H119901   0.556   4.238   6.690
 6652TIP3    H219902   0.414   4.217   6.641
 6653TIP3   OH219903   7.475   4.217   2.760
 6653TIP3    H119904   7.505   4.304   2.787
 6653TIP3    H219905   7.389   4.233   2.722
 6654TIP3   OH219906   6.260   6.733   4.186
 6654TIP3    H119907   6.299   6.707   4.269
 6654TIP3    H219908   6.170   6.702   4.191
 6655TIP3   OH219909   3.489   4.968   1.604
 6655TIP3    H119910   3.518   5.037   1.663
 6655TIP3    H219911   3.567   4.946   1.553
 6656TIP3   OH219912   1.473   5.373   5.170
 6656TIP3    H119913   1.419   5.388   5.247
 6656TIP3    H219914   1.552   5.332   5.204
 6657TIP3   OH219915   1.990   4.320   3.659
 6657TIP3    H119916   1.984   4.402   3.611
 6657TIP3    H219917   2.022   4.257   3.595
 6658TIP3   OH219918  -0.019   5.359   0.532
 6658TIP3    H119919   0.064   5.364   0.579
 6658TIP3    H219920  -0.067   5.437   0.560
 6659TIP3   OH219921   1.423   2.379   5.628
 6659TIP3    H119922   1.347   2.327   5.601
 6659TIP3    H219923   1.480   2.317   5.673
 6660TIP3   OH219924   1.916   6.425   0.120
 6660TIP3    H119925   1.869   6.357   0.073
 6660TIP3    H219926   2.007   6.415   0.092
 6661TIP3   OH219927   4.548   2.632   2.972
 6661TIP3    H119928   4.528   2.617   2.880
 6661TIP3    H219929   4.521   2.552   3.016
 6662TIP3   OH219930   4.495   4.828   3.300
 6662TIP3    H119931   4.468   4.917   3.323
 6662TIP3    H219932   4.453   4.812   3.215
 6663TIP3   OH219933   2.728   2.599   0.523
 6663TIP3    H119934   2.664   2.627   0.587
 6663TIP3    H219935   2.716   2.504   0.517
 6664TIP3   OH219936   7.234   2.359   1.815
 6664TIP3    H119937   7.297   2.375   1.885
 6664TIP3    H219938   7.232   2.263   1.806
 6665TIP3   OH219939   6.856   6.396   3.862
 6665TIP3    H119940   6.778   6.366   3.814
 6665TIP3    H219941   6.822   6.464   3.922
 6666TIP3   OH219942   1.587   4.272   6.468
 6666TIP3    H119943   1.602   4.261   6.374
 6666TIP3    H219944   1.630   4.196   6.509
 6667TIP3   OH219945   2.044   0.740   3.685
 6667TIP3    H119946   2.132   0.715   3.654
 6667TIP3    H219947   1.988   0.729   3.609
 6668TIP3   OH219948   2.182   6.099   5.475
 6668TIP3    H119949   2.140   6.019   5.507
 6668TIP3    H219950   2.168   6.163   5.545
 6669TIP3   OH219951   3.249   6.110   0.329
 6669TIP3    H119952   3.281   6.136   0.415
 6669TIP3    H219953   3.294   6.168   0.268
 6670TIP3   OH219954   1.600   5.598   4.614
 6670TIP3    H119955   1.650   5.533   4.662
 6670TIP3    H219956   1.646   5.606   4.530
 6671TIP3   OH219957   5.614   1.976   2.491
 6671TIP3    H119958   5.653   1.953   2.406
 6671TIP3    H219959   5.526   1.938   2.489
 6672TIP3   OH219960   0.419   1.767   3.528
 6672TIP3    H119961   0.386   1.718   3.453
 6672TIP3    H219962   0.462   1.844   3.490
 6673TIP3   OH219963   8.091   3.714   6.599
 6673TIP3    H119964   8.140   3.776   6.545
 6673TIP3    H219965   8.154   3.644   6.618
 6674TIP3   OH219966   2.216   7.179   1.403
 6674TIP3    H119967   2.227   7.274   1.399
 6674TIP3    H219968   2.169   7.157   1.322
 6675TIP3   OH219969   1.436   6.902   4.587
 6675TIP3    H119970   1.359   6.958   4.580
 6675TIP3    H219971   1.419   6.830   4.527
 6676TIP3   OH219972   1.768   7.351   1.147
 6676TIP3    H119973   1.800   7.439   1.126
 6676TIP3    H219974   1.793   7.338   1.238
 6677TIP3   OH219975   3.815   2.432   1.003
 6677TIP3    H119976   3.904   2.408   0.979
 6677TIP3    H219977   3.822   2.467   1.091
 6678TIP3   OH219978   0.456   0.452   4.626
 6678TIP3    H119979   0.436   0.538   4.662
 6678TIP3    H219980   0.551   0.443   4.635
 6679TIP3   OH219981   7.194   2.777   2.232
 6679TIP3    H119982   7.193   2.685   2.203
 6679TIP3    H219983   7.279   2.787   2.275
 6680TIP3   OH219984   4.668   3.457   5.804
 6680TIP3    H119985   4.615   3.476   5.726
 6680TIP3    H219986   4.758   3.454   5.771
 6681TIP3   OH219987   5.048   3.924   4.705
 6681TIP3    H119988   4.969   3.872   4.693
 6681TIP3    H219989   5.018   4.006   4.742
 6682TIP3   OH219990   5.018   2.723   3.273
 6682TIP3    H119991   4.959   2.760   3.208
 6682TIP3    H219992   5.106   2.742   3.239
 6683TIP3   OH219993   1.257   1.488   2.964
 6683TIP3    H119994   1.250   1.395   2.943
 6683TIP3    H219995   1.281   1.490   3.056
 6684TIP3   OH219996   4.153   6.371   4.804
 6684TIP3    H119997   4.084   6.393   4.867
 6684TIP3    H219998   4.140   6.278   4.785
 6685TIP3   OH219999   2.152   1.691   1.326
 6685TIP3    H120000   2.115   1.744   1.396
 6685TIP3    H220001   2.085   1.692   1.257
 6686TIP3   OH220002   4.302   0.188   5.509
 6686TIP3    H120003   4.253   0.175   5.590
 6686TIP3    H220004   4.319   0.282   5.507
 6687TIP3   OH220005   7.367   0.144   2.212
 6687TIP3    H120006   7.354   0.238   2.211
 6687TIP3    H220007   7.279   0.107   2.210
 6688TIP3   OH220008   4.794   2.140   1.003
 6688TIP3    H120009   4.813   2.121   0.911
 6688TIP3    H220010   4.699   2.146   1.007
 6689TIP3   OH220011   6.956   1.890   4.385
 6689TIP3    H120012   6.966   1.953   4.314
 6689TIP3    H220013   6.865   1.901   4.414
 6690TIP3   OH220014   1.495   7.786   1.953
 6690TIP3    H120015   1.576   7.764   1.999
 6690TIP3    H220016   1.426   7.750   2.007
 6691TIP3   OH220017   6.236   0.577   3.359
 6691TIP3    H120018   6.287   0.507   3.401
 6691TIP3    H220019   6.297   0.650   3.352
 6692TIP3   OH220020   1.559   6.574   1.212
 6692TIP3    H120021   1.543   6.652   1.266
 6692TIP3    H220022   1.598   6.609   1.132
 6693TIP3   OH220023   5.360   6.397   3.937
 6693TIP3    H120024   5.277   6.406   3.889
 6693TIP3    H220025   5.370   6.302   3.947
 6694TIP3   OH220026   2.320   2.755   0.959
 6694TIP3    H120027   2.225   2.762   0.948
 6694TIP3    H220028   2.338   2.661   0.955
 6695TIP3   OH220029   6.159   6.977   4.956
 6695TIP3    H120030   6.101   6.947   5.026
 6695TIP3    H220031   6.184   6.898   4.909
 6696TIP3   OH220032   3.093   6.501   5.849
 6696TIP3    H120033   3.095   6.589   5.885
 6696TIP3    H220034   3.176   6.491   5.803
 6697TIP3   OH220035   7.030   7.638   1.570
 6697TIP3    H120036   6.958   7.654   1.631
 6697TIP3    H220037   7.056   7.725   1.541
 6698TIP3   OH220038   7.234   6.563   1.469
 6698TIP3    H120039   7.171   6.634   1.484
 6698TIP3    H220040   7.190   6.485   1.501
 6699TIP3   OH220041   2.877   5.254   6.420
 6699TIP3    H120042   2.952   5.239   6.477
 6699TIP3    H220043   2.820   5.313   6.470
 6700TIP3   OH220044   7.844   6.261   0.515
 6700TIP3    H120045   7.825   6.279   0.423
 6700TIP3    H220046   7.933   6.226   0.515
 6701TIP3   OH220047   0.296   5.679   3.693
 6701TIP3    H120048   0.363   5.627   3.648
 6701TIP3    H220049   0.280   5.631   3.775
 6702TIP3   OH220050   0.485   7.481   0.788
 6702TIP3    H120051   0.482   7.569   0.751
 6702TIP3    H220052   0.403   7.440   0.759
 6703TIP3   OH220053   0.304   0.087   0.619
 6703TIP3    H120054   0.382   0.101   0.566
 6703TIP3    H220055   0.231   0.105   0.561
 6704TIP3   OH220056   1.831   4.591   1.160
 6704TIP3    H120057   1.885   4.569   1.085
 6704TIP3    H220058   1.863   4.677   1.189
 6705TIP3   OH220059   6.834   7.441   6.151
 6705TIP3    H120060   6.780   7.482   6.083
 6705TIP3    H220061   6.844   7.351   6.122
 6706TIP3   OH220062   8.073   4.509   2.398
 6706TIP3    H120063   8.167   4.519   2.415
 6706TIP3    H220064   8.032   4.515   2.484
 6707TIP3   OH220065   5.141   1.631   1.901
 6707TIP3    H120066   5.114   1.632   1.993
 6707TIP3    H220067   5.097   1.555   1.864
 6708TIP3   OH220068   6.650   6.559   5.875
 6708TIP3    H120069   6.619   6.566   5.785
 6708TIP3    H220070   6.638   6.467   5.899
 6709TIP3   OH220071   2.381   1.821   6.171
 6709TIP3    H120072   2.323   1.818   6.095
 6709TIP3    H220073   2.392   1.914   6.189
 6710TIP3   OH220074   0.386   5.093   0.746
 6710TIP3    H120075   0.446   5.032   0.703
 6710TIP3    H220076   0.325   5.037   0.794
 6711TIP3   OH220077   4.380   1.522   2.775
 6711TIP3    H120078   4.390   1.457   2.844
 6711TIP3    H220079   4.371   1.471   2.694
 6712TIP3   OH220080   5.224   0.722   0.162
 6712TIP3    H120081   5.160   0.786   0.193
 6712TIP3    H220082   5.218   0.649   0.224
 6713TIP3   OH220083   2.767   7.337   0.952
 6713TIP3    H120084   2.722   7.422   0.955
 6713TIP3    H220085   2.708   7.281   0.902
 6714TIP3   OH220086   8.154   1.678   4.481
 6714TIP3    H120087   8.141   1.705   4.390
 6714TIP3    H220088   8.214   1.604   4.475
 6715TIP3   OH220089   5.661   7.706   0.740
 6715TIP3    H120090   5.691   7.615   0.745
 6715TIP3    H220091   5.734   7.752   0.698
 6716TIP3   OH220092   6.239   0.413   2.519
 6716TIP3    H120093   6.257   0.408   2.613
 6716TIP3    H220094   6.320   0.383   2.478
 6717TIP3   OH220095   5.457   0.564   3.407
 6717TIP3    H120096   5.527   0.612   3.363
 6717TIP3    H220097   5.446   0.484   3.356
 6718TIP3   OH220098   0.505   0.906   4.325
 6718TIP3    H120099   0.538   0.862   4.404
 6718TIP3    H220100   0.412   0.922   4.343
 6719TIP3   OH220101   6.022   6.265   2.592
 6719TIP3    H120102   5.944   6.305   2.554
 6719TIP3    H220103   6.038   6.188   2.539
 6720TIP3   OH220104   0.584   3.512   5.392
 6720TIP3    H120105   0.667   3.551   5.419
 6720TIP3    H220106   0.593   3.419   5.413
 6721TIP3   OH220107   2.205   0.469   3.843
 6721TIP3    H120108   2.122   0.490   3.885
 6721TIP3    H220109   2.216   0.537   3.776
 6722TIP3   OH220110   4.995   7.301   4.334
 6722TIP3    H120111   5.069   7.341   4.289
 6722TIP3    H220112   4.923   7.363   4.323
 6723TIP3   OH220113   3.123   5.803   3.288
 6723TIP3    H120114   3.051   5.844   3.336
 6723TIP3    H220115   3.081   5.758   3.215
 6724TIP3   OH220116   5.707   6.221   6.588
 6724TIP3    H120117   5.656   6.291   6.548
 6724TIP3    H220118   5.645   6.177   6.646
 6725TIP3   OH220119   0.710   6.492   2.845
 6725TIP3    H120120   0.699   6.587   2.847
 6725TIP3    H220121   0.736   6.473   2.755
 6726TIP3   OH220122   5.185   1.331   6.440
 6726TIP3    H120123   5.174   1.361   6.531
 6726TIP3    H220124   5.267   1.371   6.412
 6727TIP3   OH220125   6.767   2.392   5.010
 6727TIP3    H120126   6.844   2.412   4.956
 6727TIP3    H220127   6.729   2.477   5.029
 6728TIP3   OH220128   0.590   0.711   6.439
 6728TIP3    H120129   0.559   0.709   6.348
 6728TIP3    H220130   0.682   0.733   6.432
 6729TIP3   OH220131   8.074   7.745   2.148
 6729TIP3    H120132   8.033   7.696   2.077
 6729TIP3    H220133   8.167   7.724   2.141
 6730TIP3   OH220134   4.114   2.917   0.624
 6730TIP3    H120135   4.206   2.922   0.650
 6730TIP3    H220136   4.104   2.829   0.587
 6731TIP3   OH220137   7.078   6.601   0.516
 6731TIP3    H120138   7.100   6.533   0.452
 6731TIP3    H220139   7.117   6.570   0.598
 6732TIP3   OH220140   6.131   2.797   5.577
 6732TIP3    H120141   6.125   2.759   5.665
 6732TIP3    H220142   6.191   2.739   5.530
 6733TIP3   OH220143   2.957   1.764   0.430
 6733TIP3    H120144   3.004   1.774   0.513
 6733TIP3    H220145   2.960   1.851   0.389
 6734TIP3   OH220146   3.731   7.316   5.873
 6734TIP3    H120147   3.738   7.351   5.961
 6734TIP3    H220148   3.661   7.367   5.832
 6735TIP3   OH220149   0.909   2.333   5.248
 6735TIP3    H120150   0.933   2.319   5.157
 6735TIP3    H220151   0.822   2.373   5.244
 6736TIP3   OH220152   0.128   6.998   6.754
 6736TIP3    H120153   0.186   7.049   6.811
 6736TIP3    H220154   0.148   7.029   6.666
 6737TIP3   OH220155   1.108   4.607   3.796
 6737TIP3    H120156   1.105   4.606   3.701
 6737TIP3    H220157   1.067   4.525   3.822
 6738TIP3   OH220158   0.947   0.059   6.317
 6738TIP3    H120159   0.921   0.141   6.276
 6738TIP3    H220160   0.906   0.061   6.404
 6739TIP3   OH220161   1.645   2.485   2.141
 6739TIP3    H120162   1.648   2.475   2.046
 6739TIP3    H220163   1.551   2.488   2.162
 6740TIP3   OH220164   3.308   1.149   4.906
 6740TIP3    H120165   3.302   1.223   4.967
 6740TIP3    H220166   3.395   1.158   4.867
 6741TIP3   OH220167   1.306   3.074   2.167
 6741TIP3    H120168   1.308   2.990   2.121
 6741TIP3    H220169   1.393   3.110   2.155
 6742TIP3   OH220170   5.154   2.219   4.088
 6742TIP3    H120171   5.242   2.213   4.125
 6742TIP3    H220172   5.104   2.267   4.154
 6743TIP3   OH220173   2.612   4.713   0.564
 6743TIP3    H120174   2.593   4.621   0.546
 6743TIP3    H220175   2.569   4.731   0.647
 6744TIP3   OH220176   6.055   6.503   0.328
 6744TIP3    H120177   5.960   6.509   0.338
 6744TIP3    H220178   6.077   6.567   0.260
 6745TIP3   OH220179   2.419   4.116   5.833
 6745TIP3    H120180   2.335   4.074   5.853
 6745TIP3    H220181   2.411   4.142   5.741
 6746TIP3   OH220182   3.962   5.572   2.686
 6746TIP3    H120183   3.920   5.500   2.734
 6746TIP3    H220184   3.896   5.598   2.622
 6747TIP3   OH220185   7.480   7.042   6.059
 6747TIP3    H120186   7.566   7.000   6.064
 6747TIP3    H220187   7.491   7.124   6.107
 6748TIP3   OH220188   8.024   3.192   6.017
 6748TIP3    H120189   8.112   3.209   5.982
 6748TIP3    H220190   8.035   3.116   6.074
 6749TIP3   OH220191   4.339   2.027   2.770
 6749TIP3    H120192   4.321   2.097   2.833
 6749TIP3    H220193   4.431   2.006   2.783
 6750TIP3   OH220194   5.237   1.968   5.687
 6750TIP3    H120195   5.281   1.997   5.607
 6750TIP3    H220196   5.247   2.041   5.748
 6751TIP3   OH220197   3.231   3.786   0.906
 6751TIP3    H120198   3.280   3.869   0.907
 6751TIP3    H220199   3.281   3.730   0.846
 6752TIP3   OH220200   4.313   4.915   6.482
 6752TIP3    H120201   4.260   4.990   6.509
 6752TIP3    H220202   4.377   4.951   6.420
 6753TIP3   OH220203   5.426   5.093   4.184
 6753TIP3    H120204   5.354   5.094   4.121
 6753TIP3    H220205   5.383   5.080   4.269
 6754TIP3   OH220206   4.662   0.294   0.115
 6754TIP3    H120207   4.571   0.323   0.121
 6754TIP3    H220208   4.682   0.296   0.022
 6755TIP3   OH220209   6.785   4.556   1.787
 6755TIP3    H120210   6.863   4.543   1.841
 6755TIP3    H220211   6.715   4.570   1.851
 6756TIP3   OH220212   5.565   2.716   3.157
 6756TIP3    H120213   5.509   2.744   3.084
 6756TIP3    H220214   5.601   2.632   3.129
 6757TIP3   OH220215   3.707   3.845   3.453
 6757TIP3    H120216   3.695   3.939   3.446
 6757TIP3    H220217   3.660   3.821   3.533
 6758TIP3   OH220218   3.895   0.156   4.343
 6758TIP3    H120219   3.977   0.135   4.298
 6758TIP3    H220220   3.881   0.084   4.403
 6759TIP3   OH220221   1.915   7.065   1.338
 6759TIP3    H120222   1.998   7.058   1.384
 6759TIP3    H220223   1.936   7.110   1.256
 6760TIP3   OH220224   6.194   3.623   3.625
 6760TIP3    H120225   6.156   3.683   3.560
 6760TIP3    H220226   6.122   3.563   3.646
 6761TIP3   OH220227   3.563   3.737   5.410
 6761TIP3    H120228   3.473   3.729   5.443
 6761TIP3    H220229   3.583   3.651   5.374
 6762TIP3   OH220230   3.685   2.983   6.307
 6762TIP3    H120231   3.611   3.032   6.271
 6762TIP3    H220232   3.699   2.911   6.246
 6763TIP3   OH220233   0.324   6.675   1.710
 6763TIP3    H120234   0.393   6.738   1.688
 6763TIP3    H220235   0.242   6.719   1.687
 6764TIP3   OH220236   0.411   6.596   5.172
 6764TIP3    H120237   0.461   6.663   5.219
 6764TIP3    H220238   0.428   6.516   5.220
 6765TIP3   OH220239   7.314   2.963   0.207
 6765TIP3    H120240   7.294   2.869   0.206
 6765TIP3    H220241   7.373   2.976   0.132
 6766TIP3   OH220242   6.850   6.227   5.392
 6766TIP3    H120243   6.852   6.227   5.487
 6766TIP3    H220244   6.774   6.280   5.370
 6767TIP3   OH220245   0.294   5.140   2.602
 6767TIP3    H120246   0.264   5.087   2.676
 6767TIP3    H220247   0.288   5.081   2.527
 6768TIP3   OH220248   3.604   4.116   2.262
 6768TIP3    H120249   3.574   4.079   2.345
 6768TIP3    H220250   3.568   4.205   2.261
 6769TIP3   OH220251   2.853   2.465   6.254
 6769TIP3    H120252   2.928   2.407   6.271
 6769TIP3    H220253   2.830   2.500   6.340
 6770TIP3   OH220254   2.230   2.451   3.193
 6770TIP3    H120255   2.236   2.546   3.197
 6770TIP3    H220256   2.320   2.420   3.203
 6771TIP3   OH220257   3.134   3.525   0.541
 6771TIP3    H120258   3.163   3.498   0.628
 6771TIP3    H220259   3.038   3.528   0.548
 6772TIP3   OH220260   4.539   1.855   1.203
 6772TIP3    H120261   4.477   1.825   1.136
 6772TIP3    H220262   4.625   1.825   1.171
 6773TIP3   OH220263   5.522   1.733   2.727
 6773TIP3    H120264   5.458   1.759   2.661
 6773TIP3    H220265   5.541   1.813   2.775
 6774TIP3   OH220266   3.032   4.092   3.166
 6774TIP3    H120267   3.009   4.041   3.088
 6774TIP3    H220268   3.126   4.108   3.157
 6775TIP3   OH220269   4.296   5.223   2.172
 6775TIP3    H120270   4.341   5.158   2.227
 6775TIP3    H220271   4.330   5.307   2.201
 6776TIP3   OH220272   4.619   2.604   0.325
 6776TIP3    H120273   4.667   2.654   0.259
 6776TIP3    H220274   4.556   2.552   0.275
 6777TIP3   OH220275   2.230   6.917   3.015
 6777TIP3    H120276   2.143   6.898   2.979
 6777TIP3    H220277   2.217   6.997   3.066
 6778TIP3   OH220278   5.495   6.861   1.793
 6778TIP3    H120279   5.506   6.956   1.793
 6778TIP3    H220280   5.507   6.835   1.702
 6779TIP3   OH220281   1.697   5.434   5.352
 6779TIP3    H120282   1.727   5.351   5.314
 6779TIP3    H220283   1.623   5.410   5.407
 6780TIP3   OH220284   0.348   2.277   3.321
 6780TIP3    H120285   0.311   2.195   3.353
 6780TIP3    H220286   0.366   2.261   3.229
 6781TIP3   OH220287   4.393   7.031   3.251
 6781TIP3    H120288   4.398   7.074   3.165
 6781TIP3    H220289   4.340   7.089   3.305
 6782TIP3   OH220290   2.747   1.928   6.735
 6782TIP3    H120291   2.762   2.022   6.727
 6782TIP3    H220292   2.811   1.898   6.799
 6783TIP3   OH220293   5.274   1.812   5.222
 6783TIP3    H120294   5.292   1.743   5.158
 6783TIP3    H220295   5.354   1.818   5.274
 6784TIP3   OH220296   5.629   5.460   1.573
 6784TIP3    H120297   5.676   5.444   1.491
 6784TIP3    H220298   5.666   5.541   1.607
 6785TIP3   OH220299   8.108   3.598   5.112
 6785TIP3    H120300   8.158   3.539   5.056
 6785TIP3    H220301   8.130   3.571   5.202
 6786TIP3   OH220302   8.139   0.062   4.673
 6786TIP3    H120303   8.082  -0.009   4.643
 6786TIP3    H220304   8.190   0.023   4.744
 6787TIP3   OH220305   6.402   1.132   4.906
 6787TIP3    H120306   6.469   1.138   4.839
 6787TIP3    H220307   6.440   1.077   4.974
 6788TIP3   OH220308   4.412   0.136   5.898
 6788TIP3    H120309   4.466   0.151   5.975
 6788TIP3    H220310   4.450   0.193   5.831
 6789TIP3   OH220311   1.927   7.380   1.925
 6789TIP3    H120312   1.937   7.470   1.894
 6789TIP3    H220313   2.008   7.361   1.972
 6790TIP3   OH220314   8.042   4.277   2.174
 6790TIP3    H120315   8.097   4.354   2.188
 6790TIP3    H220316   7.988   4.299   2.098
 6791TIP3   OH220317   6.273   0.147   6.403
 6791TIP3    H120318   6.321   0.227   6.420
 6791TIP3    H220319   6.251   0.151   6.310
 6792TIP3   OH220320   3.378   4.646   1.435
 6792TIP3    H120321   3.372   4.553   1.456
 6792TIP3    H220322   3.460   4.655   1.386
 6793TIP3   OH220323   1.520   2.695   4.706
 6793TIP3    H120324   1.608   2.683   4.668
 6793TIP3    H220325   1.534   2.688   4.801
 6794TIP3   OH220326   4.629   1.298   3.981
 6794TIP3    H120327   4.589   1.263   3.901
 6794TIP3    H220328   4.723   1.292   3.966
 6795TIP3   OH220329   2.875   3.730   0.071
 6795TIP3    H120330   2.887   3.661   0.006
 6795TIP3    H220331   2.791   3.709   0.112
 6796TIP3   OH220332   0.252   3.555   1.532
 6796TIP3    H120333   0.275   3.595   1.449
 6796TIP3    H220334   0.255   3.626   1.596
 6797TIP3   OH220335   6.196   7.731   0.239
 6797TIP3    H120336   6.212   7.812   0.191
 6797TIP3    H220337   6.192   7.758   0.331
 6798TIP3   OH220338   1.472   0.476   3.524
 6798TIP3    H120339   1.406   0.522   3.576
 6798TIP3    H220340   1.459   0.509   3.435
 6799TIP3   OH220341   5.614   0.486   6.440
 6799TIP3    H120342   5.697   0.519   6.407
 6799TIP3    H220343   5.581   0.556   6.496
 6800TIP3   OH220344   0.385   3.196   2.552
 6800TIP3    H120345   0.351   3.254   2.620
 6800TIP3    H220346   0.465   3.239   2.521
 6801TIP3   OH220347   4.693   6.988   2.947
 6801TIP3    H120348   4.656   6.938   2.874
 6801TIP3    H220349   4.647   7.071   2.945
 6802TIP3   OH220350   1.696   5.404   6.438
 6802TIP3    H120351   1.737   5.384   6.522
 6802TIP3    H220352   1.615   5.354   6.438
 6803TIP3   OH220353   6.314   3.094   5.730
 6803TIP3    H120354   6.384   3.056   5.783
 6803TIP3    H220355   6.262   3.145   5.792
 6804TIP3   OH220356   5.504   7.031   5.088
 6804TIP3    H120357   5.467   7.111   5.124
 6804TIP3    H220358   5.429   6.974   5.074
 6805TIP3   OH220359   4.384   1.201   1.934
 6805TIP3    H120360   4.323   1.274   1.943
 6805TIP3    H220361   4.471   1.241   1.943
 6806TIP3   OH220362   2.010   1.128   5.435
 6806TIP3    H120363   2.104   1.109   5.442
 6806TIP3    H220364   2.001   1.168   5.348
 6807TIP3   OH220365   7.962   6.935   4.056
 6807TIP3    H120366   8.025   6.992   4.012
 6807TIP3    H220367   7.935   6.985   4.134
 6808TIP3   OH220368   4.994   3.715   6.348
 6808TIP3    H120369   4.919   3.774   6.338
 6808TIP3    H220370   5.045   3.728   6.268
 6809TIP3   OH220371   2.964   7.024   1.756
 6809TIP3    H120372   3.057   7.035   1.736
 6809TIP3    H220373   2.930   7.114   1.760
 6810TIP3   OH220374   4.508   2.398   4.529
 6810TIP3    H120375   4.509   2.376   4.435
 6810TIP3    H220376   4.519   2.313   4.573
 6811TIP3   OH220377   0.945   5.835   0.985
 6811TIP3    H120378   0.861   5.840   1.031
 6811TIP3    H220379   0.937   5.897   0.913
 6812TIP3   OH220380   8.126   0.035   3.030
 6812TIP3    H120381   8.155   0.106   3.088
 6812TIP3    H220382   8.033   0.051   3.018
 6813TIP3   OH220383   2.772   0.940   1.467
 6813TIP3    H120384   2.747   1.019   1.514
 6813TIP3    H220385   2.759   0.869   1.530
 6814TIP3   OH220386   8.150   6.954   4.707
 6814TIP3    H120387   8.230   7.003   4.688
 6814TIP3    H220388   8.174   6.863   4.693
 6815TIP3   OH220389   2.485   2.186   2.259
 6815TIP3    H120390   2.538   2.114   2.226
 6815TIP3    H220391   2.520   2.205   2.346
 6816TIP3   OH220392   2.976   6.357   1.565
 6816TIP3    H120393   3.020   6.275   1.589
 6816TIP3    H220394   2.979   6.358   1.469
 6817TIP3   OH220395   3.731   5.756   4.049
 6817TIP3    H120396   3.739   5.817   3.976
 6817TIP3    H220397   3.698   5.675   4.010
 6818TIP3   OH220398   5.831   3.196   3.964
 6818TIP3    H120399   5.752   3.142   3.968
 6818TIP3    H220400   5.891   3.146   3.909
 6819TIP3   OH220401   4.732   4.162   2.572
 6819TIP3    H120402   4.738   4.253   2.602
 6819TIP3    H220403   4.755   4.110   2.649
 6820TIP3   OH220404   7.167   5.441   3.076
 6820TIP3    H120405   7.116   5.362   3.058
 6820TIP3    H220406   7.254   5.408   3.101
 6821TIP3   OH220407   0.066   4.371   6.511
 6821TIP3    H120408   0.131   4.439   6.529
 6821TIP3    H220409   0.070   4.313   6.587
 6822TIP3   OH220410   4.892   3.257   3.554
 6822TIP3    H120411   4.906   3.335   3.501
 6822TIP3    H220412   4.957   3.194   3.522
 6823TIP3   OH220413   2.510   4.191   1.752
 6823TIP3    H120414   2.461   4.157   1.678
 6823TIP3    H220415   2.594   4.145   1.748
 6824TIP3   OH220416   8.243   7.677   0.383
 6824TIP3    H120417   8.193   7.660   0.303
 6824TIP3    H220418   8.177   7.702   0.447
 6825TIP3   OH220419   2.265   4.331   0.711
 6825TIP3    H120420   2.305   4.330   0.624
 6825TIP3    H220421   2.186   4.278   0.701
 6826TIP3   OH220422   7.741   1.302   1.520
 6826TIP3    H120423   7.782   1.260   1.596
 6826TIP3    H220424   7.684   1.234   1.483
 6827TIP3   OH220425   5.130   5.366   3.189
 6827TIP3    H120426   5.113   5.448   3.235
 6827TIP3    H220427   5.196   5.321   3.243
 6828TIP3   OH220428   5.002   4.129   5.837
 6828TIP3    H120429   5.040   4.096   5.918
 6828TIP3    H220430   4.916   4.163   5.861
 6829TIP3   OH220431   3.977   5.409   6.628
 6829TIP3    H120432   3.902   5.387   6.572
 6829TIP3    H220433   4.043   5.443   6.568
 6830TIP3   OH220434   2.250   0.449   2.818
 6830TIP3    H120435   2.295   0.529   2.793
 6830TIP3    H220436   2.295   0.419   2.897
 6831TIP3   OH220437   4.200   3.840   3.973
 6831TIP3    H120438   4.154   3.919   4.002
 6831TIP3    H220439   4.130   3.780   3.947
 6832TIP3   OH220440   0.449   0.040   3.944
 6832TIP3    H120441   0.534   0.006   3.974
 6832TIP3    H220442   0.461   0.055   3.851
 6833TIP3   OH220443   3.412   2.307   0.734
 6833TIP3    H120444   3.421   2.219   0.771
 6833TIP3    H220445   3.479   2.312   0.667
 6834TIP3   OH220446   3.572   0.861   4.297
 6834TIP3    H120447   3.654   0.911   4.301
 6834TIP3    H220448   3.557   0.848   4.204
 6835TIP3   OH220449   6.021   0.744   4.187
 6835TIP3    H120450   5.983   0.781   4.267
 6835TIP3    H220451   6.062   0.663   4.216
 6836TIP3   OH220452   3.881   0.085   0.281
 6836TIP3    H120453   3.795   0.066   0.244
 6836TIP3    H220454   3.866   0.158   0.341
 6837TIP3   OH220455   3.662   5.310   0.649
 6837TIP3    H120456   3.663   5.405   0.666
 6837TIP3    H220457   3.596   5.299   0.581
 6838TIP3   OH220458   5.594   4.659   4.022
 6838TIP3    H120459   5.521   4.698   3.973
 6838TIP3    H220460   5.553   4.617   4.097
 6839TIP3   OH220461   1.705   1.768   2.229
 6839TIP3    H120462   1.746   1.854   2.228
 6839TIP3    H220463   1.664   1.762   2.316
 6840TIP3   OH220464   4.719   1.756   1.659
 6840TIP3    H120465   4.725   1.806   1.741
 6840TIP3    H220466   4.708   1.666   1.688
 6841TIP3   OH220467   1.741   4.919   4.471
 6841TIP3    H120468   1.818   4.944   4.420
 6841TIP3    H220469   1.688   4.998   4.477
 6842TIP3   OH220470   2.658   1.231   3.069
 6842TIP3    H120471   2.702   1.166   3.014
 6842TIP3    H220472   2.573   1.243   3.027
 6843TIP3   OH220473   2.845   4.455   3.067
 6843TIP3    H120474   2.795   4.400   3.127
 6843TIP3    H220475   2.826   4.545   3.096
 6844TIP3   OH220476   6.886   2.495   0.470
 6844TIP3    H120477   6.978   2.473   0.453
 6844TIP3    H220478   6.876   2.584   0.439
 6845TIP3   OH220479   3.085   7.758   1.071
 6845TIP3    H120480   3.087   7.724   0.982
 6845TIP3    H220481   3.095   7.681   1.127
 6846TIP3   OH220482   2.330   4.250   0.414
 6846TIP3    H120483   2.364   4.229   0.328
 6846TIP3    H220484   2.314   4.166   0.456
 6847TIP3   OH220485   1.898   6.789   4.000
 6847TIP3    H120486   1.918   6.706   4.044
 6847TIP3    H220487   1.850   6.839   4.066
 6848TIP3   OH220488   8.016   7.482   1.062
 6848TIP3    H120489   8.063   7.399   1.062
 6848TIP3    H220490   8.048   7.528   0.984
 6849TIP3   OH220491   2.217   7.575   0.508
 6849TIP3    H120492   2.144   7.626   0.474
 6849TIP3    H220493   2.294   7.608   0.461
 6850TIP3   OH220494   2.539   0.504   5.686
 6850TIP3    H120495   2.628   0.495   5.652
 6850TIP3    H220496   2.544   0.477   5.777
 6851TIP3   OH220497   6.383   6.342   2.653
 6851TIP3    H120498   6.474   6.333   2.626
 6851TIP3    H220499   6.383   6.317   2.746
 6852TIP3   OH220500   5.344   3.435   6.432
 6852TIP3    H120501   5.252   3.462   6.436
 6852TIP3    H220502   5.346   3.367   6.365
 6853TIP3   OH220503   0.872   5.393   3.933
 6853TIP3    H120504   0.841   5.424   4.018
 6853TIP3    H220505   0.792   5.369   3.886
 6854TIP3   OH220506   7.345   7.382   5.171
 6854TIP3    H120507   7.390   7.463   5.196
 6854TIP3    H220508   7.414   7.325   5.138
 6855TIP3   OH220509   2.705   2.943   0.736
 6855TIP3    H120510   2.639   2.980   0.676
 6855TIP3    H220511   2.660   2.937   0.820
 6856TIP3   OH220512   4.367   0.060   4.702
 6856TIP3    H120513   4.299   0.107   4.750
 6856TIP3    H220514   4.416   0.013   4.770
 6857TIP3   OH220515   2.948   7.132   2.947
 6857TIP3    H120516   2.962   7.226   2.936
 6857TIP3    H220517   3.035   7.093   2.940
 6858TIP3   OH220518   6.187   7.414   6.015
 6858TIP3    H120519   6.229   7.458   5.941
 6858TIP3    H220520   6.179   7.323   5.987
 6859TIP3   OH220521   2.229   2.008   2.255
 6859TIP3    H120522   2.275   1.973   2.179
 6859TIP3    H220523   2.269   2.093   2.270
 6860TIP3   OH220524   7.746   1.475   3.532
 6860TIP3    H120525   7.827   1.432   3.559
 6860TIP3    H220526   7.701   1.410   3.478
 6861TIP3   OH220527   3.459   6.929   6.661
 6861TIP3    H120528   3.394   6.991   6.628
 6861TIP3    H220529   3.488   6.881   6.583
 6862TIP3   OH220530   2.111   4.291   3.398
 6862TIP3    H120531   2.043   4.358   3.407
 6862TIP3    H220532   2.096   4.253   3.312
 6863TIP3   OH220533   6.333   3.595   5.811
 6863TIP3    H120534   6.265   3.644   5.765
 6863TIP3    H220535   6.320   3.505   5.783
 6864TIP3   OH220536   7.274   1.814   3.702
 6864TIP3    H120537   7.305   1.849   3.785
 6864TIP3    H220538   7.241   1.727   3.724
 6865TIP3   OH220539   8.012   2.642   3.176
 6865TIP3    H120540   7.938   2.671   3.230
 6865TIP3    H220541   7.978   2.643   3.087
 6866TIP3   OH220542   6.840   5.973   6.304
 6866TIP3    H120543   6.747   5.981   6.287
 6866TIP3    H220544   6.855   6.022   6.384
 6867TIP3   OH220545   4.087   5.051   2.961
 6867TIP3    H120546   4.048   4.991   3.025
 6867TIP3    H220547   4.015   5.073   2.901
 6868TIP3   OH220548   8.334   0.713   3.643
 6868TIP3    H120549   8.307   0.742   3.556
 6868TIP3    H220550   8.269   0.647   3.667
 6869TIP3   OH220551   5.598   2.474   1.772
 6869TIP3    H120552   5.569   2.442   1.858
 6869TIP3    H220553   5.539   2.432   1.710
 6870TIP3   OH220554   6.924   2.374   3.179
 6870TIP3    H120555   6.866   2.387   3.255
 6870TIP3    H220556   6.864   2.358   3.106
 6871TIP3   OH220557   5.456   2.386   2.860
 6871TIP3    H120558   5.503   2.404   2.941
 6871TIP3    H220559   5.376   2.438   2.866
 6872TIP3   OH220560   7.663   2.649   5.904
 6872TIP3    H120561   7.572   2.679   5.902
 6872TIP3    H220562   7.715   2.729   5.897
 6873TIP3   OH220563   2.937   6.845   4.152
 6873TIP3    H120564   2.903   6.830   4.240
 6873TIP3    H220565   2.939   6.758   4.111
 6874TIP3   OH220566   6.772   7.456   2.711
 6874TIP3    H120567   6.726   7.484   2.632
 6874TIP3    H220568   6.834   7.389   2.682
 6875TIP3   OH220569   1.261   0.094   5.229
 6875TIP3    H120570   1.260   0.111   5.135
 6875TIP3    H220571   1.348   0.123   5.258
 6876TIP3   OH220572   2.465   4.282   4.931
 6876TIP3    H120573   2.406   4.357   4.923
 6876TIP3    H220574   2.550   4.315   4.900
 6877TIP3   OH220575   4.703   2.429   1.460
 6877TIP3    H120576   4.612   2.421   1.431
 6877TIP3    H220577   4.751   2.458   1.382
 6878TIP3   OH220578   5.851   2.028   3.328
 6878TIP3    H120579   5.814   1.957   3.381
 6878TIP3    H220580   5.800   2.027   3.247
 6879TIP3   OH220581   7.129   7.124   4.704
 6879TIP3    H120582   7.164   7.197   4.755
 6879TIP3    H220583   7.191   7.111   4.633
 6880TIP3   OH220584   5.156   2.544   5.907
 6880TIP3    H120585   5.232   2.535   5.849
 6880TIP3    H220586   5.142   2.456   5.942
 6881TIP3   OH220587   6.031   6.980   3.514
 6881TIP3    H120588   6.100   6.969   3.449
 6881TIP3    H220589   6.074   7.024   3.588
 6882TIP3   OH220590   0.559   7.481   5.661
 6882TIP3    H120591   0.554   7.415   5.592
 6882TIP3    H220592   0.491   7.455   5.724
 6883TIP3   OH220593   6.191   6.273   1.626
 6883TIP3    H120594   6.098   6.289   1.611
 6883TIP3    H220595   6.234   6.354   1.599
 6884TIP3   OH220596   4.248   0.833   2.589
 6884TIP3    H120597   4.255   0.831   2.494
 6884TIP3    H220598   4.201   0.753   2.612
 6885TIP3   OH220599   3.850   2.639   1.926
 6885TIP3    H120600   3.817   2.549   1.923
 6885TIP3    H220601   3.890   2.647   2.013
 6886TIP3   OH220602   7.751   2.327   2.179
 6886TIP3    H120603   7.750   2.370   2.264
 6886TIP3    H220604   7.817   2.258   2.187
 6887TIP3   OH220605   1.742   3.021   0.898
 6887TIP3    H120606   1.734   3.060   0.811
 6887TIP3    H220607   1.834   3.035   0.922
 6888TIP3   OH220608   2.842   3.349   4.785
 6888TIP3    H120609   2.830   3.425   4.842
 6888TIP3    H220610   2.753   3.327   4.756
 6889TIP3   OH220611   6.693   3.351   6.666
 6889TIP3    H120612   6.742   3.428   6.696
 6889TIP3    H220613   6.607   3.386   6.642
 6890TIP3   OH220614   6.535   2.138   0.461
 6890TIP3    H120615   6.575   2.060   0.501
 6890TIP3    H220616   6.448   2.142   0.500
 6891TIP3   OH220617   1.235   1.839   6.406
 6891TIP3    H120618   1.162   1.813   6.463
 6891TIP3    H220619   1.218   1.794   6.323
 6892TIP3   OH220620   4.154   4.001   5.941
 6892TIP3    H120621   4.150   4.015   5.847
 6892TIP3    H220622   4.173   3.907   5.950
 6893TIP3   OH220623   5.390   0.327   1.421
 6893TIP3    H120624   5.456   0.286   1.366
 6893TIP3    H220625   5.437   0.350   1.501
 6894TIP3   OH220626   7.381   1.966   2.814
 6894TIP3    H120627   7.476   1.960   2.801
 6894TIP3    H220628   7.351   1.875   2.811
 6895TIP3   OH220629   0.462   5.581   3.502
 6895TIP3    H120630   0.455   5.664   3.455
 6895TIP3    H220631   0.492   5.518   3.436
 6896TIP3   OH220632   6.824   5.394   6.050
 6896TIP3    H120633   6.744   5.446   6.046
 6896TIP3    H220634   6.807   5.328   6.118
 6897TIP3   OH220635   0.495   0.181   1.333
 6897TIP3    H120636   0.401   0.183   1.318
 6897TIP3    H220637   0.530   0.254   1.280
 6898TIP3   OH220638   4.037   3.593   5.079
 6898TIP3    H120639   4.071   3.641   5.003
 6898TIP3    H220640   4.059   3.501   5.060
 6899TIP3   OH220641   1.541   4.239   0.631
 6899TIP3    H120642   1.476   4.218   0.563
 6899TIP3    H220643   1.551   4.334   0.626
 6900TIP3   OH220644   7.987   2.320   2.832
 6900TIP3    H120645   7.892   2.332   2.824
 6900TIP3    H220646   7.997   2.236   2.878
 6901TIP3   OH220647   0.434   4.448   4.361
 6901TIP3    H120648   0.393   4.497   4.290
 6901TIP3    H220649   0.515   4.496   4.380
 6902TIP3   OH220650   2.113   0.875   5.684
 6902TIP3    H120651   2.141   0.961   5.715
 6902TIP3    H220652   2.148   0.813   5.748
 6903TIP3   OH220653   7.048   3.154   6.079
 6903TIP3    H120654   7.124   3.157   6.137
 6903TIP3    H220655   6.981   3.108   6.129
 6904TIP3   OH220656   4.592   7.650   0.179
 6904TIP3    H120657   4.560   7.640   0.089
 6904TIP3    H220658   4.516   7.686   0.226
 6905TIP3   OH220659   2.600   7.104   0.532
 6905TIP3    H120660   2.537   7.095   0.461
 6905TIP3    H220661   2.615   7.014   0.563
 6906TIP3   OH220662   3.206   6.009   5.579
 6906TIP3    H120663   3.145   5.936   5.566
 6906TIP3    H220664   3.164   6.062   5.646
 6907TIP3   OH220665   3.967   0.869   5.233
 6907TIP3    H120666   3.881   0.839   5.260
 6907TIP3    H220667   3.994   0.929   5.303
 6908TIP3   OH220668   7.166   5.172   3.583
 6908TIP3    H120669   7.243   5.227   3.593
 6908TIP3    H220670   7.101   5.211   3.641
 6909TIP3   OH220671   3.184   7.691   6.634
 6909TIP3    H120672   3.098   7.733   6.641
 6909TIP3    H220673   3.191   7.666   6.542
 6910TIP3   OH220674   4.870   1.466   6.157
 6910TIP3    H120675   4.962   1.483   6.172
 6910TIP3    H220676   4.831   1.553   6.145
 6911TIP3   OH220677   6.614   5.017   1.286
 6911TIP3    H120678   6.635   5.107   1.261
 6911TIP3    H220679   6.685   4.992   1.345
 6912TIP3   OH220680   7.709   0.115   2.833
 6912TIP3    H120681   7.771   0.080   2.898
 6912TIP3    H220682   7.644   0.163   2.886
 6913TIP3   OH220683   0.549   3.301   5.178
 6913TIP3    H120684   0.557   3.394   5.200
 6913TIP3    H220685   0.638   3.267   5.191
 6914TIP3   OH220686   5.416   6.612   6.172
 6914TIP3    H120687   5.461   6.690   6.206
 6914TIP3    H220688   5.348   6.594   6.237
 6915TIP3   OH220689   1.736   4.196   5.248
 6915TIP3    H120690   1.671   4.137   5.211
 6915TIP3    H220691   1.732   4.180   5.342
 6916TIP3   OH220692   3.931   5.983   2.467
 6916TIP3    H120693   3.849   5.951   2.430
 6916TIP3    H220694   3.913   5.990   2.561
 6917TIP3   OH220695   0.855   1.012   4.077
 6917TIP3    H120696   0.950   1.026   4.083
 6917TIP3    H220697   0.846   0.940   4.014
 6918TIP3   OH220698   2.284   7.660   2.899
 6918TIP3    H120699   2.326   7.746   2.904
 6918TIP3    H220700   2.336   7.604   2.956
 6919TIP3   OH220701   4.651   7.274   6.150
 6919TIP3    H120702   4.621   7.363   6.138
 6919TIP3    H220703   4.671   7.243   6.062
 6920TIP3   OH220704   1.451   4.692   6.519
 6920TIP3    H120705   1.505   4.723   6.447
 6920TIP3    H220706   1.491   4.608   6.544
 6921TIP3   OH220707   2.959   5.129   2.628
 6921TIP3    H120708   2.885   5.073   2.653
 6921TIP3    H220709   3.023   5.114   2.697
 6922TIP3   OH220710   1.547   1.542   6.199
 6922TIP3    H120711   1.602   1.471   6.164
 6922TIP3    H220712   1.563   1.540   6.293
 6923TIP3   OH220713   2.400   4.064   3.639
 6923TIP3    H120714   2.382   4.086   3.547
 6923TIP3    H220715   2.318   4.027   3.671
 6924TIP3   OH220716   0.864   1.833   4.412
 6924TIP3    H120717   0.778   1.854   4.447
 6924TIP3    H220718   0.914   1.915   4.420
 6925TIP3   OH220719   1.350   1.548   1.592
 6925TIP3    H120720   1.275   1.594   1.555
 6925TIP3    H220721   1.312   1.471   1.636
 6926TIP3   OH220722   8.016   3.958   2.387
 6926TIP3    H120723   7.962   4.035   2.405
 6926TIP3    H220724   8.058   3.938   2.471
 6927TIP3   OH220725   5.271   6.132   6.722
 6927TIP3    H120726   5.213   6.081   6.780
 6927TIP3    H220727   5.284   6.075   6.647
 6928TIP3   OH220728   2.145   4.140   5.063
 6928TIP3    H120729   2.224   4.087   5.049
 6928TIP3    H220730   2.116   4.163   4.975
 6929TIP3   OH220731   4.615   3.532   3.732
 6929TIP3    H120732   4.576   3.611   3.771
 6929TIP3    H220733   4.693   3.564   3.686
 6930TIP3   OH220734   0.694   0.642   3.025
 6930TIP3    H120735   0.738   0.597   2.952
 6930TIP3    H220736   0.622   0.690   2.984
 6931TIP3   OH220737   0.025   6.099   5.287
 6931TIP3    H120738   0.119   6.081   5.280
 6931TIP3    H220739   0.020   6.194   5.299
 6932TIP3   OH220740   0.481   3.247   2.193
 6932TIP3    H120741   0.439   3.297   2.263
 6932TIP3    H220742   0.424   3.172   2.179
 6933TIP3   OH220743   4.657   1.945   5.473
 6933TIP3    H120744   4.571   1.978   5.449
 6933TIP3    H220745   4.652   1.851   5.456
 6934TIP3   OH220746   0.302   3.756   1.702
 6934TIP3    H120747   0.215   3.768   1.740
 6934TIP3    H220748   0.326   3.844   1.672
 6935TIP3   OH220749   2.079   5.905   0.748
 6935TIP3    H120750   2.047   5.974   0.806
 6935TIP3    H220751   2.171   5.893   0.773
 6936TIP3   OH220752   0.867   2.839   5.007
 6936TIP3    H120753   0.934   2.777   5.035
 6936TIP3    H220754   0.909   2.925   5.017
 6937TIP3   OH220755   2.356   5.027   5.809
 6937TIP3    H120756   2.401   5.093   5.755
 6937TIP3    H220757   2.372   5.054   5.899
 6938TIP3   OH220758   4.161   4.835   5.017
 6938TIP3    H120759   4.254   4.855   5.031
 6938TIP3    H220760   4.128   4.910   4.967
 6939TIP3   OH220761   2.128   5.478   0.144
 6939TIP3    H120762   2.208   5.489   0.195
 6939TIP3    H220763   2.058   5.504   0.204
 6940TIP3   OH220764   0.116   7.204   5.441
 6940TIP3    H120765   0.033   7.157   5.436
 6940TIP3    H220766   0.179   7.138   5.470
 6941TIP3   OH220767   3.442   5.487   4.768
 6941TIP3    H120768   3.485   5.448   4.845
 6941TIP3    H220769   3.508   5.547   4.732
 6942TIP3   OH220770   2.983   2.398   5.053
 6942TIP3    H120771   3.056   2.380   4.995
 6942TIP3    H220772   2.936   2.470   5.012
 6943TIP3   OH220773   2.928   5.454   5.358
 6943TIP3    H120774   2.987   5.473   5.286
 6943TIP3    H220775   2.841   5.479   5.326
 6944TIP3   OH220776   7.184   3.349   5.408
 6944TIP3    H120777   7.129   3.330   5.332
 6944TIP3    H220778   7.273   3.351   5.373
 6945TIP3   OH220779   0.384   4.940   6.090
 6945TIP3    H120780   0.421   4.854   6.068
 6945TIP3    H220781   0.416   4.998   6.021
 6946TIP3   OH220782   6.248   4.721   4.177
 6946TIP3    H120783   6.291   4.778   4.115
 6946TIP3    H220784   6.240   4.637   4.132
 6947TIP3   OH220785   3.417   6.425   3.738
 6947TIP3    H120786   3.509   6.439   3.759
 6947TIP3    H220787   3.415   6.341   3.693
 6948TIP3   OH220788   7.838   3.320   4.972
 6948TIP3    H120789   7.894   3.305   4.896
 6948TIP3    H220790   7.793   3.402   4.953
 6949TIP3   OH220791   4.060   1.328   1.955
 6949TIP3    H120792   4.069   1.233   1.947
 6949TIP3    H220793   3.965   1.343   1.962
 6950TIP3   OH220794   2.114   0.512   6.209
 6950TIP3    H120795   2.070   0.429   6.222
 6950TIP3    H220796   2.043   0.574   6.190
 6951TIP3   OH220797   2.721   0.363   2.519
 6951TIP3    H120798   2.669   0.356   2.599
 6951TIP3    H220799   2.659   0.389   2.451
 6952TIP3   OH220800   7.475   3.308   3.379
 6952TIP3    H120801   7.446   3.297   3.470
 6952TIP3    H220802   7.552   3.251   3.372
 6953TIP3   OH220803   1.120   5.169   2.824
 6953TIP3    H120804   1.106   5.234   2.893
 6953TIP3    H220805   1.210   5.141   2.836
 6954TIP3   OH220806   1.599   6.032   2.540
 6954TIP3    H120807   1.528   6.029   2.476
 6954TIP3    H220808   1.559   6.069   2.618
 6955TIP3   OH220809   7.335   2.440   5.930
 6955TIP3    H120810   7.245   2.454   5.899
 6955TIP3    H220811   7.370   2.529   5.939
 6956TIP3   OH220812   5.454   4.160   1.193
 6956TIP3    H120813   5.494   4.246   1.185
 6956TIP3    H220814   5.430   4.152   1.285
 6957TIP3   OH220815   6.394   3.264   0.141
 6957TIP3    H120816   6.437   3.187   0.179
 6957TIP3    H220817   6.419   3.261   0.048
 6958TIP3   OH220818   0.773   1.117   2.990
 6958TIP3    H120819   0.723   1.188   3.032
 6958TIP3    H220820   0.819   1.075   3.062
 6959TIP3   OH220821   2.628   3.821   6.044
 6959TIP3    H120822   2.620   3.726   6.055
 6959TIP3    H220823   2.629   3.855   6.133
 6960TIP3   OH220824   0.186   3.124   3.154
 6960TIP3    H120825   0.094   3.147   3.165
 6960TIP3    H220826   0.184   3.046   3.099
 6961TIP3   OH220827   1.055   5.597   3.818
 6961TIP3    H120828   0.999   5.649   3.760
 6961TIP3    H220829   0.995   5.536   3.861
 6962TIP3   OH220830   4.531   0.241   6.111
 6962TIP3    H120831   4.486   0.309   6.161
 6962TIP3    H220832   4.588   0.198   6.175
 6963TIP3   OH220833   4.800   2.316   4.060
 6963TIP3    H120834   4.821   2.405   4.090
 6963TIP3    H220835   4.796   2.265   4.141
 6964TIP3   OH220836   0.211   5.693   2.914
 6964TIP3    H120837   0.303   5.678   2.939
 6964TIP3    H220838   0.216   5.757   2.844
 6965TIP3   OH220839   2.568   7.220   4.517
 6965TIP3    H120840   2.591   7.140   4.565
 6965TIP3    H220841   2.474   7.213   4.503
 6966TIP3   OH220842   4.962   3.909   3.930
 6966TIP3    H120843   4.996   3.969   3.863
 6966TIP3    H220844   4.976   3.955   4.012
 6967TIP3   OH220845   1.580   3.396   3.437
 6967TIP3    H120846   1.666   3.377   3.400
 6967TIP3    H220847   1.592   3.383   3.531
 6968TIP3   OH220848   5.672   4.560   5.669
 6968TIP3    H120849   5.754   4.512   5.680
 6968TIP3    H220850   5.658   4.562   5.574
 6969TIP3   OH220851   0.188   2.921   2.044
 6969TIP3    H120852   0.204   3.000   1.992
 6969TIP3    H220853   0.247   2.930   2.119
 6970TIP3   OH220854   6.799   5.580   5.229
 6970TIP3    H120855   6.845   5.509   5.186
 6970TIP3    H220856   6.821   5.658   5.178
 6971TIP3   OH220857   8.073   6.094   5.577
 6971TIP3    H120858   8.096   6.052   5.494
 6971TIP3    H220859   8.131   6.053   5.641
 6972TIP3   OH220860   1.509   5.702   1.114
 6972TIP3    H120861   1.443   5.668   1.054
 6972TIP3    H220862   1.503   5.797   1.104
 6973TIP3   OH220863   2.296   1.291   1.491
 6973TIP3    H120864   2.294   1.234   1.568
 6973TIP3    H220865   2.358   1.359   1.513
 6974TIP3   OH220866   6.844   5.063   2.325
 6974TIP3    H120867   6.891   5.031   2.248
 6974TIP3    H220868   6.778   4.996   2.342
 6975TIP3   OH220869   0.255   2.154   2.637
 6975TIP3    H120870   0.334   2.108   2.666
 6975TIP3    H220871   0.242   2.125   2.547
 6976TIP3   OH220872   2.396   0.106   2.273
 6976TIP3    H120873   2.325   0.060   2.229
 6976TIP3    H220874   2.473   0.051   2.259
 6977TIP3   OH220875   0.523   0.480   5.370
 6977TIP3    H120876   0.433   0.509   5.381
 6977TIP3    H220877   0.576   0.555   5.399
 6978TIP3   OH220878   4.267   6.061   1.410
 6978TIP3    H120879   4.279   6.090   1.501
 6978TIP3    H220880   4.184   6.014   1.411
 6979TIP3   OH220881   4.990   0.657   2.783
 6979TIP3    H120882   4.993   0.595   2.855
 6979TIP3    H220883   4.954   0.608   2.709
 6980TIP3   OH220884   1.967   3.629   3.252
 6980TIP3    H120885   1.960   3.689   3.326
 6980TIP3    H220886   2.052   3.649   3.213
 6981TIP3   OH220887   4.824   1.033   6.260
 6981TIP3    H120888   4.863   1.117   6.286
 6981TIP3    H220889   4.819   0.983   6.341
 6982TIP3   OH220890   4.710   1.220   2.199
 6982TIP3    H120891   4.671   1.136   2.175
 6982TIP3    H220892   4.638   1.268   2.240
 6983TIP3   OH220893   0.251   3.737   0.988
 6983TIP3    H120894   0.185   3.766   0.926
 6983TIP3    H220895   0.314   3.688   0.935
 6984TIP3   OH220896   6.295   3.571   4.875
 6984TIP3    H120897   6.219   3.551   4.929
 6984TIP3    H220898   6.371   3.555   4.931
 6985TIP3   OH220899   6.130   0.933   5.040
 6985TIP3    H120900   6.038   0.921   5.061
 6985TIP3    H220901   6.173   0.948   5.124
 6986TIP3   OH220902   7.202   0.967   5.342
 6986TIP3    H120903   7.210   0.873   5.328
 6986TIP3    H220904   7.240   0.982   5.429
 6987TIP3   OH220905   4.140   3.710   5.878
 6987TIP3    H120906   4.182   3.654   5.813
 6987TIP3    H220907   4.175   3.681   5.962
 6988TIP3   OH220908   3.872   2.073   0.707
 6988TIP3    H120909   3.922   2.095   0.786
 6988TIP3    H220910   3.828   1.991   0.730
 6989TIP3   OH220911   0.660   3.676   6.578
 6989TIP3    H120912   0.648   3.612   6.507
 6989TIP3    H220913   0.618   3.635   6.654
 6990TIP3   OH220914   7.218   3.353   3.289
 6990TIP3    H120915   7.216   3.301   3.209
 6990TIP3    H220916   7.310   3.354   3.314
 6991TIP3   OH220917   4.462   5.894   4.434
 6991TIP3    H120918   4.402   5.824   4.405
 6991TIP3    H220919   4.549   5.856   4.422
 6992TIP3   OH220920   3.431   7.416   0.478
 6992TIP3    H120921   3.495   7.368   0.531
 6992TIP3    H220922   3.349   7.367   0.488
 6993TIP3   OH220923   2.470   1.784   3.427
 6993TIP3    H120924   2.463   1.803   3.334
 6993TIP3    H220925   2.513   1.861   3.464
 6994TIP3   OH220926   4.385   4.975   3.979
 6994TIP3    H120927   4.402   4.881   3.983
 6994TIP3    H220928   4.352   4.989   3.890
 6995TIP3   OH220929   2.778   5.090   2.906
 6995TIP3    H120930   2.716   5.111   2.975
 6995TIP3    H220931   2.862   5.082   2.951
 6996TIP3   OH220932   5.769   6.478   5.086
 6996TIP3    H120933   5.762   6.513   4.997
 6996TIP3    H220934   5.842   6.417   5.082
 6997TIP3   OH220935   0.171   5.321   4.905
 6997TIP3    H120936   0.196   5.398   4.956
 6997TIP3    H220937   0.080   5.337   4.880
 6998TIP3   OH220938   3.388   2.192   3.464
 6998TIP3    H120939   3.469   2.207   3.512
 6998TIP3    H220940   3.325   2.252   3.505
 6999TIP3   OH220941   4.080   4.193   6.403
 6999TIP3    H120942   4.134   4.271   6.389
 6999TIP3    H220943   4.113   4.130   6.338
 7000TIP3   OH220944   5.052   6.952   3.924
 7000TIP3    H120945   5.107   6.877   3.904
 7000TIP3    H220946   5.049   7.004   3.844
 7001TIP3   OH220947   2.594   3.501   2.903
 7001TIP3    H120948   2.526   3.494   2.836
 7001TIP3    H220949   2.676   3.505   2.853
 7002TIP3   OH220950   1.943   2.625   6.119
 7002TIP3    H120951   1.887   2.699   6.143
 7002TIP3    H220952   1.886   2.567   6.068
 7003TIP3   OH220953   2.370   4.963   1.887
 7003TIP3    H120954   2.316   5.041   1.897
 7003TIP3    H220955   2.405   4.947   1.975
 7004TIP3   OH220956   7.423   0.397   1.208
 7004TIP3    H120957   7.499   0.383   1.152
 7004TIP3    H220958   7.399   0.488   1.195
 7005TIP3   OH220959   7.086   7.155   2.279
 7005TIP3    H120960   7.030   7.127   2.206
 7005TIP3    H220961   7.175   7.151   2.243
 7006TIP3   OH220962   3.583   2.115   5.860
 7006TIP3    H120963   3.659   2.057   5.865
 7006TIP3    H220964   3.520   2.078   5.923
 7007TIP3   OH220965   3.320   0.944   2.746
 7007TIP3    H120966   3.324   0.862   2.794
 7007TIP3    H220967   3.374   1.004   2.798
 7008TIP3   OH220968   0.860   0.701   6.355
 7008TIP3    H120969   0.895   0.788   6.338
 7008TIP3    H220970   0.934   0.642   6.340
 7009TIP3   OH220971   1.116   7.018   3.420
 7009TIP3    H120972   1.055   7.070   3.367
 7009TIP3    H220973   1.065   6.994   3.497
 7010TIP3   OH220974   0.221   5.590   3.956
 7010TIP3    H120975   0.181   5.598   4.043
 7010TIP3    H220976   0.305   5.548   3.973
 7011TIP3   OH220977   7.374   0.299   4.240
 7011TIP3    H120978   7.413   0.244   4.171
 7011TIP3    H220979   7.313   0.356   4.193
 7012TIP3   OH220980   2.289   2.911   2.967
 7012TIP3    H120981   2.381   2.935   2.981
 7012TIP3    H220982   2.240   2.976   3.018
 7013TIP3   OH220983   6.632   6.280   5.893
 7013TIP3    H120984   6.667   6.258   5.980
 7013TIP3    H220985   6.590   6.199   5.864
 7014TIP3   OH220986   3.586   6.028   0.214
 7014TIP3    H120987   3.522   6.083   0.170
 7014TIP3    H220988   3.665   6.081   0.218
 7015TIP3   OH220989   3.792   0.427   4.346
 7015TIP3    H120990   3.832   0.423   4.433
 7015TIP3    H220991   3.838   0.360   4.296
 7016TIP3   OH220992   4.277   7.501   4.367
 7016TIP3    H120993   4.307   7.410   4.366
 7016TIP3    H220994   4.358   7.552   4.371
 7017TIP3   OH220995   6.521   7.211   0.252
 7017TIP3    H120996   6.427   7.222   0.263
 7017TIP3    H220997   6.542   7.131   0.300
 7018TIP3   OH220998   6.836   1.491   2.231
 7018TIP3    H120999   6.764   1.555   2.229
 7018TIP3    H221000   6.911   1.538   2.195
 7019TIP3   OH221001   6.423   5.494   4.703
 7019TIP3    H121002   6.452   5.582   4.725
 7019TIP3    H221003   6.330   5.504   4.683
 7020TIP3   OH221004   0.817   3.264   0.839
 7020TIP3    H121005   0.866   3.185   0.814
 7020TIP3    H221006   0.864   3.336   0.796
 7021TIP3   OH221007   5.704   2.687   4.388
 7021TIP3    H121008   5.696   2.782   4.377
 7021TIP3    H221009   5.650   2.651   4.318
 7022TIP3   OH221010   1.136   4.700   2.930
 7022TIP3    H121011   1.209   4.680   2.873
 7022TIP3    H221012   1.085   4.766   2.883
 7023TIP3   OH221013   4.120   0.411   6.651
 7023TIP3    H121014   4.025   0.409   6.662
 7023TIP3    H221015   4.147   0.319   6.656
 7024TIP3   OH221016   4.165   7.465   5.598
 7024TIP3    H121017   4.080   7.465   5.641
 7024TIP3    H221018   4.225   7.503   5.663
 7025TIP3   OH221019   0.963   5.613   4.808
 7025TIP3    H121020   1.015   5.534   4.797
 7025TIP3    H221021   0.994   5.673   4.741
 7026TIP3   OH221022   2.598   3.202   3.363
 7026TIP3    H121023   2.630   3.223   3.450
 7026TIP3    H221024   2.672   3.220   3.305
 7027TIP3   OH221025   7.739   6.276   2.544
 7027TIP3    H121026   7.750   6.197   2.491
 7027TIP3    H221027   7.821   6.324   2.533
 7028TIP3   OH221028   3.253   1.091   1.925
 7028TIP3    H121029   3.162   1.072   1.901
 7028TIP3    H221030   3.304   1.021   1.884
 7029TIP3   OH221031   8.106   2.987   0.124
 7029TIP3    H121032   8.082   3.042   0.050
 7029TIP3    H221033   8.067   2.901   0.105
 7030TIP3   OH221034   6.825   6.939   0.345
 7030TIP3    H121035   6.846   7.010   0.406
 7030TIP3    H221036   6.730   6.942   0.336
 7031TIP3   OH221037   4.130   3.174   2.159
 7031TIP3    H121038   4.123   3.104   2.224
 7031TIP3    H221039   4.131   3.128   2.075
 7032TIP3   OH221040   7.232   7.326   4.907
 7032TIP3    H121041   7.239   7.323   5.002
 7032TIP3    H221042   7.322   7.337   4.876
 7033TIP3   OH221043   0.659   4.413   4.072
 7033TIP3    H121044   0.681   4.506   4.060
 7033TIP3    H221045   0.565   4.414   4.091
 7034TIP3   OH221046   2.497   4.761   4.888
 7034TIP3    H121047   2.439   4.826   4.928
 7034TIP3    H221048   2.499   4.786   4.795
 7035TIP3   OH221049   3.795   1.623   2.726
 7035TIP3    H121050   3.834   1.695   2.775
 7035TIP3    H221051   3.707   1.654   2.702
 7036TIP3   OH221052   2.620   2.522   3.721
 7036TIP3    H121053   2.556   2.458   3.689
 7036TIP3    H221054   2.700   2.503   3.672
 7037TIP3   OH221055   1.108   6.313   6.739
 7037TIP3    H121056   1.162   6.378   6.784
 7037TIP3    H221057   1.034   6.362   6.705
 7038TIP3   OH221058   4.620   2.922   2.526
 7038TIP3    H121059   4.686   2.991   2.530
 7038TIP3    H221060   4.655   2.851   2.580
 7039TIP3   OH221061   3.909   7.666   5.071
 7039TIP3    H121062   3.819   7.691   5.049
 7039TIP3    H221063   3.952   7.653   4.987
 7040TIP3   OH221064   3.167   2.472   1.753
 7040TIP3    H121065   3.261   2.463   1.740
 7040TIP3    H221066   3.135   2.382   1.761
 7041TIP3   OH221067   6.535   1.011   2.569
 7041TIP3    H121068   6.489   0.955   2.506
 7041TIP3    H221069   6.549   1.093   2.522
 7042TIP3   OH221070   6.750   2.289   2.388
 7042TIP3    H121071   6.741   2.233   2.465
 7042TIP3    H221072   6.820   2.248   2.337
 7043TIP3   OH221073   0.897   5.989   3.237
 7043TIP3    H121074   0.814   6.037   3.234
 7043TIP3    H221075   0.961   6.049   3.198
 7044TIP3   OH221076   6.494   0.457   2.185
 7044TIP3    H121077   6.569   0.490   2.234
 7044TIP3    H221078   6.507   0.362   2.182
 7045TIP3   OH221079   6.259   3.203   0.552
 7045TIP3    H121080   6.264   3.225   0.645
 7045TIP3    H221081   6.180   3.247   0.521
 7046TIP3   OH221082   8.164   7.740   3.895
 7046TIP3    H121083   8.103   7.745   3.969
 7046TIP3    H221084   8.136   7.662   3.847
 7047TIP3   OH221085   6.063   2.428   0.974
 7047TIP3    H121086   6.157   2.411   0.967
 7047TIP3    H221087   6.057   2.513   1.017
 7048TIP3   OH221088   1.437   0.769   5.334
 7048TIP3    H121089   1.497   0.843   5.326
 7048TIP3    H221090   1.413   0.767   5.427
 7049TIP3   OH221091   6.748   0.960   1.567
 7049TIP3    H121092   6.778   0.882   1.615
 7049TIP3    H221093   6.665   0.982   1.608
 7050TIP3   OH221094   7.299   6.941   3.907
 7050TIP3    H121095   7.318   6.867   3.965
 7050TIP3    H221096   7.384   6.966   3.871
 7051TIP3   OH221097   7.452   4.166   3.580
 7051TIP3    H121098   7.388   4.230   3.549
 7051TIP3    H221099   7.408   4.122   3.653
 7052TIP3   OH221100   5.944   3.914   3.399
 7052TIP3    H121101   5.914   3.827   3.370
 7052TIP3    H221102   5.948   3.907   3.494
 7053TIP3   OH221103   3.680   0.651   3.214
 7053TIP3    H121104   3.619   0.581   3.237
 7053TIP3    H221105   3.767   0.611   3.222
 7054TIP3   OH221106   3.878   3.041   4.433
 7054TIP3    H121107   3.945   3.036   4.365
 7054TIP3    H221108   3.819   2.968   4.414
 7055TIP3   OH221109   0.773   4.900   4.762
 7055TIP3    H121110   0.729   4.815   4.753
 7055TIP3    H221111   0.722   4.945   4.829
 7056TIP3   OH221112   1.882   0.357   5.130
 7056TIP3    H121113   1.885   0.277   5.182
 7056TIP3    H221114   1.902   0.427   5.192
 7057TIP3   OH221115   1.856   4.592   2.226
 7057TIP3    H121116   1.824   4.513   2.180
 7057TIP3    H221117   1.951   4.582   2.226
 7058TIP3   OH221118   3.665   0.462   5.370
 7058TIP3    H121119   3.663   0.384   5.314
 7058TIP3    H221120   3.691   0.429   5.456
 7059TIP3   OH221121   7.825   5.925   1.939
 7059TIP3    H121122   7.851   6.014   1.915
 7059TIP3    H221123   7.729   5.927   1.940
 7060TIP3   OH221124   3.251   5.674   3.475
 7060TIP3    H121125   3.219   5.727   3.548
 7060TIP3    H221126   3.211   5.714   3.397
 7061TIP3   OH221127   4.201   7.492   1.161
 7061TIP3    H121128   4.257   7.415   1.171
 7061TIP3    H221129   4.112   7.458   1.162
 7062TIP3   OH221130   4.832   4.129   5.409
 7062TIP3    H121131   4.764   4.197   5.404
 7062TIP3    H221132   4.898   4.165   5.468
 7063TIP3   OH221133   6.705   7.711   4.777
 7063TIP3    H121134   6.751   7.681   4.698
 7063TIP3    H221135   6.776   7.736   4.837
 7064TIP3   OH221136   2.407   6.006   4.570
 7064TIP3    H121137   2.395   6.026   4.662
 7064TIP3    H221138   2.501   5.991   4.561
 7065TIP3   OH221139   1.469   4.714   2.399
 7065TIP3    H121140   1.557   4.744   2.421
 7065TIP3    H221141   1.482   4.624   2.368
 7066TIP3   OH221142   3.256   1.305   6.510
 7066TIP3    H121143   3.318   1.378   6.501
 7066TIP3    H221144   3.188   1.340   6.568
 7067TIP3   OH221145   5.088   5.479   0.966
 7067TIP3    H121146   5.075   5.496   1.059
 7067TIP3    H221147   5.003   5.448   0.935
 7068TIP3   OH221148   2.700   6.150   6.431
 7068TIP3    H121149   2.777   6.149   6.374
 7068TIP3    H221150   2.720   6.215   6.498
 7069TIP3   OH221151   3.537   0.630   2.275
 7069TIP3    H121152   3.589   0.631   2.195
 7069TIP3    H221153   3.588   0.579   2.337
 7070TIP3   OH221154   2.359   4.915   3.335
 7070TIP3    H121155   2.284   4.882   3.384
 7070TIP3    H221156   2.322   4.965   3.262
 7071TIP3   OH221157   5.858   3.712   2.446
 7071TIP3    H121158   5.915   3.713   2.523
 7071TIP3    H221159   5.794   3.644   2.463
 7072TIP3   OH221160   0.120   6.452   1.243
 7072TIP3    H121161   0.076   6.371   1.217
 7072TIP3    H221162   0.050   6.508   1.275
 7073TIP3   OH221163   2.154   6.457   6.715
 7073TIP3    H121164   2.203   6.502   6.646
 7073TIP3    H221165   2.215   6.392   6.750
 7074TIP3   OH221166   7.221   7.286   0.518
 7074TIP3    H121167   7.127   7.272   0.508
 7074TIP3    H221168   7.261   7.206   0.485
 7075TIP3   OH221169   1.042   4.301   0.268
 7075TIP3    H121170   0.988   4.255   0.331
 7075TIP3    H221171   1.015   4.392   0.275
 7076TIP3   OH221172   1.502   6.004   1.081
 7076TIP3    H121173   1.580   6.045   1.117
 7076TIP3    H221174   1.429   6.056   1.117
 7077TIP3   OH221175   3.137   5.184   2.418
 7077TIP3    H121176   3.065   5.155   2.475
 7077TIP3    H221177   3.096   5.245   2.357
 7078TIP3   OH221178   1.858   6.792   1.564
 7078TIP3    H121179   1.931   6.820   1.620
 7078TIP3    H221180   1.788   6.770   1.625
 7079TIP3   OH221181   8.193   2.390   1.619
 7079TIP3    H121182   8.106   2.370   1.584
 7079TIP3    H221183   8.243   2.420   1.543
 7080TIP3   OH221184   7.942   6.400   1.202
 7080TIP3    H121185   7.915   6.484   1.238
 7080TIP3    H221186   8.001   6.421   1.130
 7081TIP3   OH221187   3.503   2.705   0.765
 7081TIP3    H121188   3.473   2.758   0.839
 7081TIP3    H221189   3.512   2.617   0.800
 7082TIP3   OH221190   1.720   0.709   3.725
 7082TIP3    H121191   1.779   0.758   3.782
 7082TIP3    H221192   1.646   0.687   3.781
 7083TIP3   OH221193   3.398   3.581   3.174
 7083TIP3    H121194   3.473   3.532   3.208
 7083TIP3    H221195   3.390   3.657   3.232
 7084TIP3   OH221196   0.555   1.401   5.543
 7084TIP3    H121197   0.578   1.422   5.452
 7084TIP3    H221198   0.468   1.361   5.537
 7085TIP3   OH221199   8.266   5.322   1.527
 7085TIP3    H121200   8.198   5.313   1.593
 7085TIP3    H221201   8.337   5.264   1.556
 7086TIP3   OH221202   2.983   4.307   6.039
 7086TIP3    H121203   2.926   4.354   5.978
 7086TIP3    H221204   2.952   4.216   6.036
 7087TIP3   OH221205   8.148   0.325   4.707
 7087TIP3    H121206   8.213   0.328   4.777
 7087TIP3    H221207   8.129   0.231   4.697
 7088TIP3   OH221208   5.871   5.010   1.774
 7088TIP3    H121209   5.831   4.945   1.832
 7088TIP3    H221210   5.804   5.027   1.708
 7089TIP3   OH221211   0.735   6.050   0.467
 7089TIP3    H121212   0.704   6.140   0.471
 7089TIP3    H221213   0.656   5.997   0.477
 7090TIP3   OH221214   6.368   4.112   4.309
 7090TIP3    H121215   6.308   4.081   4.377
 7090TIP3    H221216   6.319   4.182   4.265
 7091TIP3   OH221217   2.704   3.776   0.477
 7091TIP3    H121218   2.695   3.732   0.392
 7091TIP3    H221219   2.798   3.773   0.495
 7092TIP3   OH221220   5.830   6.203   0.635
 7092TIP3    H121221   5.818   6.291   0.672
 7092TIP3    H221222   5.741   6.169   0.628
 7093TIP3   OH221223   2.598   3.456   6.005
 7093TIP3    H121224   2.562   3.450   6.094
 7093TIP3    H221225   2.522   3.442   5.948
 7094TIP3   OH221226   0.787   2.614   3.757
 7094TIP3    H121227   0.692   2.613   3.770
 7094TIP3    H221228   0.816   2.527   3.785
 7095TIP3   OH221229   1.375   4.256   5.430
 7095TIP3    H121230   1.414   4.171   5.453
 7095TIP3    H221231   1.350   4.246   5.338
 7096TIP3   OH221232   5.604   7.645   1.586
 7096TIP3    H121233   5.628   7.593   1.509
 7096TIP3    H221234   5.523   7.605   1.617
 7097TIP3   OH221235   1.109   2.321   2.698
 7097TIP3    H121236   1.158   2.400   2.673
 7097TIP3    H221237   1.023   2.354   2.722
 7098TIP3   OH221238   0.881   3.543   6.322
 7098TIP3    H121239   0.962   3.493   6.316
 7098TIP3    H221240   0.865   3.573   6.233
 7099TIP3   OH221241   1.904   3.691   4.650
 7099TIP3    H121242   1.830   3.642   4.686
 7099TIP3    H221243   1.886   3.695   4.556
 7100TIP3   OH221244   0.783   3.654   3.177
 7100TIP3    H121245   0.745   3.568   3.161
 7100TIP3    H221246   0.798   3.656   3.271
 7101TIP3   OH221247   0.662   4.946   2.889
 7101TIP3    H121248   0.593   4.971   2.950
 7101TIP3    H221249   0.730   5.013   2.901
 7102TIP3   OH221250   0.071   6.545   0.012
 7102TIP3    H121251   0.060   6.596   0.091
 7102TIP3    H221252   0.130   6.597  -0.043
 7103TIP3   OH221253   6.372   1.523   4.515
 7103TIP3    H121254   6.327   1.442   4.491
 7103TIP3    H221255   6.303   1.577   4.554
 7104TIP3   OH221256   1.927   3.474   6.390
 7104TIP3    H121257   1.990   3.403   6.398
 7104TIP3    H221258   1.872   3.466   6.468
 7105TIP3   OH221259   7.841   7.751   2.749
 7105TIP3    H121260   7.786   7.811   2.698
 7105TIP3    H221261   7.931   7.779   2.732
 7106TIP3   OH221262   3.706   0.965   1.390
 7106TIP3    H121263   3.792   1.006   1.394
 7106TIP3    H221264   3.667   1.000   1.310
 7107TIP3   OH221265   2.978   3.493   5.478
 7107TIP3    H121266   3.034   3.416   5.469
 7107TIP3    H221267   2.982   3.536   5.392
 7108TIP3   OH221268   7.680   1.399   2.309
 7108TIP3    H121269   7.706   1.323   2.256
 7108TIP3    H221270   7.761   1.448   2.321
 7109TIP3   OH221271   1.945   1.753   1.151
 7109TIP3    H121272   1.988   1.789   1.073
 7109TIP3    H221273   1.896   1.826   1.188
 7110TIP3   OH221274   5.506   1.731   5.792
 7110TIP3    H121275   5.424   1.776   5.811
 7110TIP3    H221276   5.571   1.775   5.847
 7111TIP3   OH221277   0.712   1.268   4.178
 7111TIP3    H121278   0.654   1.279   4.103
 7111TIP3    H221279   0.748   1.180   4.168
 7112TIP3   OH221280   6.524   6.684   2.600
 7112TIP3    H121281   6.431   6.666   2.587
 7112TIP3    H221282   6.545   6.641   2.682
 7113TIP3   OH221283   0.973   0.600   4.005
 7113TIP3    H121284   0.891   0.555   3.983
 7113TIP3    H221285   0.975   0.601   4.101
 7114TIP3   OH221286   0.666   4.733   3.063
 7114TIP3    H121287   0.656   4.778   2.979
 7114TIP3    H221288   0.578   4.728   3.099
 7115TIP3   OH221289   0.748   0.536   4.379
 7115TIP3    H121290   0.703   0.601   4.324
 7115TIP3    H221291   0.697   0.533   4.459
 7116TIP3   OH221292   6.095   1.315   3.445
 7116TIP3    H121293   6.102   1.394   3.499
 7116TIP3    H221294   6.090   1.348   3.355
 7117TIP3   OH221295   2.726   6.138   2.410
 7117TIP3    H121296   2.810   6.107   2.375
 7117TIP3    H221297   2.748   6.172   2.497
 7118TIP3   OH221298   1.551   6.415   1.502
 7118TIP3    H121299   1.587   6.498   1.534
 7118TIP3    H221300   1.540   6.362   1.582
 7119TIP3   OH221301   2.755   3.841   5.037
 7119TIP3    H121302   2.779   3.894   5.113
 7119TIP3    H221303   2.664   3.864   5.019
 7120TIP3   OH221304   6.378   5.318   4.968
 7120TIP3    H121305   6.391   5.319   4.873
 7120TIP3    H221306   6.357   5.409   4.989
 7121TIP3   OH221307   4.982   4.579   5.332
 7121TIP3    H121308   5.068   4.620   5.348
 7121TIP3    H221309   4.940   4.578   5.418
 7122TIP3   OH221310   3.299   3.205   1.407
 7122TIP3    H121311   3.373   3.246   1.451
 7122TIP3    H221312   3.335   3.126   1.367
 7123TIP3   OH221313   5.804   4.083   6.170
 7123TIP3    H121314   5.784   4.016   6.236
 7123TIP3    H221315   5.839   4.033   6.096
 7124TIP3   OH221316   0.612   5.142   0.365
 7124TIP3    H121317   0.570   5.215   0.410
 7124TIP3    H221318   0.640   5.179   0.281
 7125TIP3   OH221319   0.782   6.131   1.246
 7125TIP3    H121320   0.806   6.043   1.275
 7125TIP3    H221321   0.865   6.178   1.238
 7126TIP3   OH221322   3.853   4.768   2.625
 7126TIP3    H121323   3.913   4.806   2.561
 7126TIP3    H221324   3.819   4.689   2.583
 7127TIP3   OH221325   4.267   3.468   4.800
 7127TIP3    H121326   4.321   3.418   4.861
 7127TIP3    H221327   4.329   3.501   4.734
 7128TIP3   OH221328   1.863   5.370   2.595
 7128TIP3    H121329   1.809   5.437   2.635
 7128TIP3    H221330   1.931   5.351   2.660
 7129TIP3   OH221331   2.474   2.586   3.012
 7129TIP3    H121332   2.383   2.601   3.039
 7129TIP3    H221333   2.500   2.506   3.058
 7130TIP3   OH221334   0.877   3.599   4.527
 7130TIP3    H121335   0.791   3.558   4.535
 7130TIP3    H221336   0.893   3.639   4.612
 7131TIP3   OH221337   3.245   0.233   1.598
 7131TIP3    H121338   3.227   0.324   1.574
 7131TIP3    H221339   3.320   0.238   1.656
 7132TIP3   OH221340   6.580   4.854   5.572
 7132TIP3    H121341   6.505   4.818   5.526
 7132TIP3    H221342   6.594   4.796   5.646
 7133TIP3   OH221343   3.401   5.153   2.409
 7133TIP3    H121344   3.445   5.228   2.370
 7133TIP3    H221345   3.310   5.181   2.420
 7134TIP3   OH221346   3.815   2.042   4.295
 7134TIP3    H121347   3.831   1.973   4.359
 7134TIP3    H221348   3.760   2.002   4.228
 7135TIP3   OH221349   7.249   2.075   2.594
 7135TIP3    H121350   7.272   2.168   2.586
 7135TIP3    H221351   7.294   2.046   2.673
 7136TIP3   OH221352   5.434   2.259   1.355
 7136TIP3    H121353   5.435   2.309   1.436
 7136TIP3    H221354   5.519   2.215   1.353
 7137TIP3   OH221355   1.280   1.349   1.804
 7137TIP3    H121356   1.184   1.351   1.799
 7137TIP3    H221357   1.299   1.343   1.897
 7138TIP3   OH221358   7.202   2.334   5.025
 7138TIP3    H121359   7.224   2.421   5.059
 7138TIP3    H221360   7.279   2.308   4.974
 7139TIP3   OH221361   5.448   0.732   0.450
 7139TIP3    H121362   5.470   0.779   0.369
 7139TIP3    H221363   5.529   0.729   0.500
 7140TIP3   OH221364   2.519   7.486   1.232
 7140TIP3    H121365   2.458   7.506   1.160
 7140TIP3    H221366   2.559   7.403   1.207
 7141TIP3   OH221367   6.050   3.701   1.958
 7141TIP3    H121368   5.999   3.702   2.039
 7141TIP3    H221369   6.123   3.641   1.976
 7142TIP3   OH221370   0.544   1.263   3.957
 7142TIP3    H121371   0.594   1.266   3.875
 7142TIP3    H221372   0.490   1.185   3.950
 7143TIP3   OH221373   7.494   0.395   6.178
 7143TIP3    H121374   7.461   0.465   6.234
 7143TIP3    H221375   7.418   0.340   6.162
 7144TIP3   OH221376   5.297   2.080   3.162
 7144TIP3    H121377   5.234   2.105   3.230
 7144TIP3    H221378   5.266   2.124   3.083
 7145TIP3   OH221379   2.646   1.852   1.441
 7145TIP3    H121380   2.556   1.885   1.431
 7145TIP3    H221381   2.666   1.809   1.358
 7146TIP3   OH221382   2.922   2.930   4.536
 7146TIP3    H121383   2.912   2.870   4.609
 7146TIP3    H221384   3.016   2.937   4.522
 7147TIP3   OH221385   7.306   3.613   5.815
 7147TIP3    H121386   7.387   3.613   5.866
 7147TIP3    H221387   7.248   3.553   5.861
 7148TIP3   OH221388   0.926   6.260   6.212
 7148TIP3    H121389   0.996   6.207   6.175
 7148TIP3    H221390   0.954   6.279   6.301
 7149TIP3   OH221391   3.137   0.998   6.477
 7149TIP3    H121392   3.194   1.008   6.554
 7149TIP3    H221393   3.187   0.942   6.417
 7150TIP3   OH221394   2.926   1.801   3.765
 7150TIP3    H121395   2.933   1.879   3.710
 7150TIP3    H221396   2.989   1.740   3.727
 7151TIP3   OH221397   6.294   0.767   0.296
 7151TIP3    H121398   6.272   0.688   0.346
 7151TIP3    H221399   6.329   0.827   0.362
 7152TIP3   OH221400   7.030   1.850   5.503
 7152TIP3    H121401   7.020   1.767   5.549
 7152TIP3    H221402   7.016   1.916   5.571
 7153TIP3   OH221403   7.231   5.651   5.112
 7153TIP3    H121404   7.319   5.678   5.086
 7153TIP3    H221405   7.227   5.558   5.089
 7154TIP3   OH221406   8.015   2.299   1.455
 7154TIP3    H121407   7.977   2.366   1.399
 7154TIP3    H221408   8.054   2.236   1.394
 7155TIP3   OH221409   0.226   2.293   0.426
 7155TIP3    H121410   0.234   2.371   0.481
 7155TIP3    H221411   0.132   2.277   0.421
 7156TIP3   OH221412   2.896   0.031   2.183
 7156TIP3    H121413   2.819   0.085   2.201
 7156TIP3    H221414   2.890   0.009   2.090
 7157TIP3   OH221415   6.508   6.325   4.610
 7157TIP3    H121416   6.426   6.375   4.611
 7157TIP3    H221417   6.566   6.373   4.669
 7158TIP3   OH221418   7.067   6.487   6.069
 7158TIP3    H121419   7.043   6.401   6.101
 7158TIP3    H221420   6.993   6.543   6.091
 7159TIP3   OH221421   7.370   7.058   6.646
 7159TIP3    H121422   7.423   7.134   6.671
 7159TIP3    H221423   7.376   7.054   6.551
 7160TIP3   OH221424   6.632   5.232   1.637
 7160TIP3    H121425   6.570   5.159   1.635
 7160TIP3    H221426   6.642   5.257   1.545
 7161TIP3   OH221427   5.873   1.568   4.251
 7161TIP3    H121428   5.872   1.596   4.159
 7161TIP3    H221429   5.965   1.573   4.277
 7162TIP3   OH221430   5.395   4.807   3.889
 7162TIP3    H121431   5.312   4.854   3.893
 7162TIP3    H221432   5.411   4.794   3.795
 7163TIP3   OH221433   0.198   4.018   5.779
 7163TIP3    H121434   0.109   4.007   5.814
 7163TIP3    H221435   0.184   4.057   5.693
 7164TIP3   OH221436   1.958   0.097   5.580
 7164TIP3    H121437   1.976   0.167   5.517
 7164TIP3    H221438   2.044   0.057   5.596
 7165TIP3   OH221439   3.263   2.114   0.496
 7165TIP3    H121440   3.326   2.159   0.552
 7165TIP3    H221441   3.270   2.022   0.522
 7166TIP3   OH221442   5.464   4.661   2.865
 7166TIP3    H121443   5.478   4.573   2.829
 7166TIP3    H221444   5.500   4.720   2.798
 7167TIP3   OH221445   4.326   0.516   3.624
 7167TIP3    H121446   4.413   0.554   3.613
 7167TIP3    H221447   4.266   0.583   3.591
 7168TIP3   OH221448   5.829   4.018   1.769
 7168TIP3    H121449   5.807   4.024   1.676
 7168TIP3    H221450   5.881   3.938   1.776
 7169TIP3   OH221451   0.231   6.127   3.411
 7169TIP3    H121452   0.200   6.084   3.491
 7169TIP3    H221453   0.264   6.056   3.357
 7170TIP3   OH221454   7.396   3.190   5.022
 7170TIP3    H121455   7.308   3.158   5.040
 7170TIP3    H221456   7.392   3.284   5.039
 7171TIP3   OH221457   1.893   5.133   2.438
 7171TIP3    H121458   1.798   5.134   2.421
 7171TIP3    H221459   1.906   5.205   2.500
 7172TIP3   OH221460   6.600   7.086   1.166
 7172TIP3    H121461   6.601   7.064   1.073
 7172TIP3    H221462   6.675   7.040   1.203
 7173TIP3   OH221463   4.430   4.215   5.179
 7173TIP3    H121464   4.420   4.281   5.110
 7173TIP3    H221465   4.343   4.209   5.219
 7174TIP3   OH221466   6.603   4.577   5.420
 7174TIP3    H121467   6.696   4.582   5.398
 7174TIP3    H221468   6.602   4.579   5.516
 7175TIP3   OH221469   1.045   0.412   2.918
 7175TIP3    H121470   0.990   0.351   2.968
 7175TIP3    H221471   1.097   0.457   2.985
 7176TIP3   OH221472   7.735   2.051   0.204
 7176TIP3    H121473   7.694   2.010   0.129
 7176TIP3    H221474   7.732   1.985   0.274
 7177TIP3   OH221475   2.711   0.874   3.058
 7177TIP3    H121476   2.780   0.855   3.122
 7177TIP3    H221477   2.751   0.937   2.999
 7178TIP3   OH221478   2.721   2.097   6.410
 7178TIP3    H121479   2.764   2.123   6.491
 7178TIP3    H221480   2.715   2.178   6.358
 7179TIP3   OH221481   0.066   3.707   0.724
 7179TIP3    H121482   0.145   3.756   0.700
 7179TIP3    H221483  -0.007   3.761   0.693
 7180TIP3   OH221484   7.162   0.368   1.478
 7180TIP3    H121485   7.112   0.319   1.543
 7180TIP3    H221486   7.183   0.451   1.522
 7181TIP3   OH221487   7.204   7.012   1.169
 7181TIP3    H121488   7.132   6.953   1.150
 7181TIP3    H221489   7.275   6.954   1.198
 7182TIP3   OH221490   6.896   7.274   2.416
 7182TIP3    H121491   6.926   7.363   2.432
 7182TIP3    H221492   6.968   7.232   2.370
 7183TIP3   OH221493   3.536   6.710   5.147
 7183TIP3    H121494   3.612   6.728   5.092
 7183TIP3    H221495   3.466   6.765   5.110
 7184TIP3   OH221496   4.045   7.058   5.388
 7184TIP3    H121497   4.038   6.964   5.407
 7184TIP3    H221498   3.989   7.100   5.453
 7185TIP3   OH221499   4.748   1.021   1.866
 7185TIP3    H121500   4.706   0.979   1.791
 7185TIP3    H221501   4.835   1.047   1.834
 7186TIP3   OH221502   3.647   0.833   3.413
 7186TIP3    H121503   3.648   0.917   3.367
 7186TIP3    H221504   3.654   0.767   3.343
 7187TIP3   OH221505   0.161   5.979   6.442
 7187TIP3    H121506   0.213   5.991   6.363
 7187TIP3    H221507   0.112   5.899   6.427
 7188TIP3   OH221508   1.810   6.312   6.404
 7188TIP3    H121509   1.839   6.242   6.345
 7188TIP3    H221510   1.781   6.382   6.346
 7189TIP3   OH221511   0.143   5.135   1.604
 7189TIP3    H121512   0.177   5.111   1.690
 7189TIP3    H221513   0.129   5.051   1.559
 7190TIP3   OH221514   3.488   2.354   1.812
 7190TIP3    H121515   3.398   2.322   1.822
 7190TIP3    H221516   3.542   2.275   1.821
 7191TIP3   OH221517   3.404   2.506   0.370
 7191TIP3    H121518   3.453   2.430   0.402
 7191TIP3    H221519   3.362   2.542   0.449
 7192TIP3   OH221520   7.980   5.668   3.944
 7192TIP3    H121521   7.971   5.732   4.015
 7192TIP3    H221522   8.060   5.694   3.899
 7193TIP3   OH221523   2.286   3.092   0.303
 7193TIP3    H121524   2.261   3.184   0.295
 7193TIP3    H221525   2.257   3.052   0.221
 7194TIP3   OH221526   2.581   6.679   2.985
 7194TIP3    H121527   2.524   6.701   3.058
 7194TIP3    H221528   2.538   6.718   2.909
 7195TIP3   OH221529   2.437   1.569   1.103
 7195TIP3    H121530   2.363   1.621   1.075
 7195TIP3    H221531   2.425   1.484   1.062
 7196TIP3   OH221532   2.103   4.941   2.190
 7196TIP3    H121533   2.168   5.003   2.224
 7196TIP3    H221534   2.145   4.855   2.200
 7197TIP3   OH221535   0.969   2.041   5.567
 7197TIP3    H121536   0.927   1.962   5.602
 7197TIP3    H221537   0.919   2.062   5.488
 7198TIP3   OH221538   5.341   5.916   1.813
 7198TIP3    H121539   5.371   5.834   1.772
 7198TIP3    H221540   5.368   5.984   1.752
 7199TIP3   OH221541   7.776   5.209   4.237
 7199TIP3    H121542   7.706   5.273   4.225
 7199TIP3    H221543   7.829   5.245   4.309
 7200TIP3   OH221544   5.853   0.715   0.320
 7200TIP3    H121545   5.921   0.782   0.330
 7200TIP3    H221546   5.812   0.710   0.406
 7201TIP3   OH221547   6.141   6.750   1.563
 7201TIP3    H121548   6.144   6.710   1.476
 7201TIP3    H221549   6.049   6.774   1.575
 7202TIP3   OH221550   6.008   0.075   1.904
 7202TIP3    H121551   5.934   0.031   1.946
 7202TIP3    H221552   6.084   0.022   1.927
 7203TIP3   OH221553   0.413   7.460   4.330
 7203TIP3    H121554   0.457   7.539   4.361
 7203TIP3    H221555   0.321   7.471   4.355
 7204TIP3   OH221556   2.318   7.763   0.819
 7204TIP3    H121557   2.351   7.730   0.735
 7204TIP3    H221558   2.227   7.788   0.801
 7205TIP3   OH221559   4.742   0.561   0.156
 7205TIP3    H121560   4.718   0.470   0.173
 7205TIP3    H221561   4.778   0.559   0.067
 7206TIP3   OH221562   0.397   3.388   6.052
 7206TIP3    H121563   0.392   3.411   5.959
 7206TIP3    H221564   0.307   3.393   6.084
 7207TIP3   OH221565   6.774   6.441   6.323
 7207TIP3    H121566   6.812   6.431   6.410
 7207TIP3    H221567   6.768   6.536   6.310
 7208TIP3   OH221568   3.272   5.351   1.436
 7208TIP3    H121569   3.313   5.324   1.354
 7208TIP3    H221570   3.181   5.323   1.427
 7209TIP3   OH221571   3.277   4.330   4.879
 7209TIP3    H121572   3.305   4.411   4.838
 7209TIP3    H221573   3.220   4.288   4.814
 7210TIP3   OH221574   6.529   5.428   1.821
 7210TIP3    H121575   6.584   5.375   1.763
 7210TIP3    H221576   6.568   5.416   1.908
 7211TIP3   OH221577   7.363   1.902   4.916
 7211TIP3    H121578   7.325   1.975   4.868
 7211TIP3    H221579   7.292   1.872   4.973
 7212TIP3   OH221580   6.946   7.784   4.522
 7212TIP3    H121581   6.879   7.849   4.502
 7212TIP3    H221582   6.900   7.700   4.520
 7213TIP3   OH221583   7.636   5.224   4.542
 7213TIP3    H121584   7.652   5.274   4.462
 7213TIP3    H221585   7.556   5.175   4.525
 7214TIP3   OH221586   2.562   5.157   0.890
 7214TIP3    H121587   2.629   5.167   0.958
 7214TIP3    H221588   2.566   5.240   0.842
 7215TIP3   OH221589   7.728   4.784   2.680
 7215TIP3    H121590   7.666   4.782   2.608
 7215TIP3    H221591   7.681   4.743   2.753
 7216TIP3   OH221592   7.562   1.088   1.463
 7216TIP3    H121593   7.587   1.042   1.382
 7216TIP3    H221594   7.482   1.135   1.440
 7217TIP3   OH221595   0.717   3.685   5.846
 7217TIP3    H121596   0.776   3.757   5.824
 7217TIP3    H221597   0.629   3.724   5.841
 7218TIP3   OH221598   0.544   1.553   4.017
 7218TIP3    H121599   0.608   1.536   4.086
 7218TIP3    H221600   0.512   1.466   3.992
 7219TIP3   OH221601   7.037   1.442   5.062
 7219TIP3    H121602   7.029   1.414   4.971
 7219TIP3    H221603   7.046   1.361   5.111
 7220TIP3   OH221604   6.543   7.854   4.607
 7220TIP3    H121605   6.595   7.805   4.670
 7220TIP3    H221606   6.472   7.795   4.581
 7221TIP3   OH221607   0.086   6.041   4.215
 7221TIP3    H121608   0.095   5.980   4.142
 7221TIP3    H221609   0.152   6.108   4.199
 7222TIP3   OH221610   7.100   0.541   0.294
 7222TIP3    H121611   7.066   0.453   0.278
 7222TIP3    H221612   7.060   0.595   0.226
 7223TIP3   OH221613   2.762   7.657   6.200
 7223TIP3    H121614   2.856   7.654   6.221
 7223TIP3    H221615   2.753   7.733   6.142
 7224TIP3   OH221616   0.804   2.120   4.741
 7224TIP3    H121617   0.843   2.033   4.746
 7224TIP3    H221618   0.797   2.148   4.833
 7225TIP3   OH221619   7.724   1.932   5.118
 7225TIP3    H121620   7.700   1.856   5.065
 7225TIP3    H221621   7.758   1.894   5.200
 7226TIP3   OH221622   0.213   0.913   0.088
 7226TIP3    H121623   0.123   0.883   0.075
 7226TIP3    H221624   0.239   0.948   0.003
 7227TIP3   OH221625  -0.016   2.304   3.136
 7227TIP3    H121626  -0.056   2.218   3.128
 7227TIP3    H221627   0.037   2.314   3.057
 7228TIP3   OH221628   3.131   1.845   6.520
 7228TIP3    H121629   3.184   1.874   6.594
 7228TIP3    H221630   3.125   1.750   6.531
 7229TIP3   OH221631   0.980   6.765   0.878
 7229TIP3    H121632   0.972   6.766   0.973
 7229TIP3    H221633   0.943   6.849   0.850
 7230TIP3   OH221634   2.050   1.863   2.111
 7230TIP3    H121635   2.047   1.925   2.038
 7230TIP3    H221636   2.086   1.914   2.184
 7231TIP3   OH221637   5.785   6.390   2.464
 7231TIP3    H121638   5.782   6.478   2.501
 7231TIP3    H221639   5.704   6.383   2.413
 7232TIP3   OH221640   1.304   0.402   5.640
 7232TIP3    H121641   1.353   0.337   5.589
 7232TIP3    H221642   1.228   0.423   5.586
 7233TIP3   OH221643   3.021   5.994   1.102
 7233TIP3    H121644   3.073   5.967   1.178
 7233TIP3    H221645   3.039   6.088   1.094
 7234TIP3   OH221646   6.261   6.010   5.901
 7234TIP3    H121647   6.245   6.008   5.807
 7234TIP3    H221648   6.221   5.929   5.934
 7235TIP3   OH221649   2.109   5.309   3.301
 7235TIP3    H121650   2.078   5.318   3.391
 7235TIP3    H221651   2.172   5.380   3.289
 7236TIP3   OH221652   1.275   2.671   2.340
 7236TIP3    H121653   1.289   2.662   2.246
 7236TIP3    H221654   1.203   2.734   2.348
 7237TIP3   OH221655   3.368   4.176   4.020
 7237TIP3    H121656   3.458   4.146   4.014
 7237TIP3    H221657   3.335   4.175   3.930
 7238TIP3   OH221658   1.105   6.157   4.077
 7238TIP3    H121659   1.094   6.087   4.142
 7238TIP3    H221660   1.172   6.123   4.017
 7239TIP3   OH221661   0.365   4.194   3.728
 7239TIP3    H121662   0.291   4.152   3.772
 7239TIP3    H221663   0.430   4.207   3.798
 7240TIP3   OH221664   0.786   3.929   3.649
 7240TIP3    H121665   0.804   3.991   3.719
 7240TIP3    H221666   0.827   3.847   3.679
 7241TIP3   OH221667   4.146   0.073   2.792
 7241TIP3    H121668   4.157   0.156   2.745
 7241TIP3    H221669   4.158   0.006   2.724
 7242TIP3   OH221670   5.315   3.067   2.250
 7242TIP3    H121671   5.406   3.046   2.270
 7242TIP3    H221672   5.317   3.159   2.223
 7243TIP3   OH221673   3.517   5.718   5.917
 7243TIP3    H121674   3.538   5.804   5.954
 7243TIP3    H221675   3.537   5.726   5.824
 7244TIP3   OH221676   5.261   3.465   1.477
 7244TIP3    H121677   5.238   3.542   1.426
 7244TIP3    H221678   5.178   3.418   1.490
 7245TIP3   OH221679   7.296   6.025   4.771
 7245TIP3    H121680   7.273   6.060   4.685
 7245TIP3    H221681   7.274   5.932   4.765
 7246TIP3   OH221682   4.053   6.440   4.266
 7246TIP3    H121683   4.001   6.480   4.336
 7246TIP3    H221684   4.028   6.348   4.266
 7247TIP3   OH221685   5.389   6.552   6.599
 7247TIP3    H121686   5.367   6.557   6.506
 7247TIP3    H221687   5.323   6.605   6.643
 7248TIP3   OH221688   7.674   3.951   2.382
 7248TIP3    H121689   7.638   4.022   2.328
 7248TIP3    H221690   7.725   3.996   2.450
 7249TIP3   OH221691   2.414   3.746   0.361
 7249TIP3    H121692   2.439   3.659   0.392
 7249TIP3    H221693   2.328   3.762   0.400
 7250TIP3   OH221694   5.090   3.916   1.415
 7250TIP3    H121695   5.003   3.917   1.454
 7250TIP3    H221696   5.095   3.832   1.368
 7251TIP3   OH221697   7.562   5.326   0.163
 7251TIP3    H121698   7.493   5.269   0.128
 7251TIP3    H221699   7.614   5.268   0.220
 7252TIP3   OH221700   1.818   0.350   2.123
 7252TIP3    H121701   1.784   0.335   2.211
 7252TIP3    H221702   1.872   0.428   2.132
 7253TIP3   OH221703   2.022   0.764   1.685
 7253TIP3    H121704   1.939   0.727   1.715
 7253TIP3    H221705   2.043   0.831   1.749
 7254TIP3   OH221706   0.825   0.219   1.793
 7254TIP3    H121707   0.779   0.166   1.728
 7254TIP3    H221708   0.905   0.169   1.811
 7255TIP3   OH221709   6.508   3.451   0.310
 7255TIP3    H121710   6.424   3.485   0.341
 7255TIP3    H221711   6.484   3.378   0.252
 7256TIP3   OH221712   4.267   2.486   4.665
 7256TIP3    H121713   4.263   2.579   4.642
 7256TIP3    H221714   4.343   2.453   4.616
 7257TIP3   OH221715   4.396   3.515   0.058
 7257TIP3    H121716   4.463   3.509   0.126
 7257TIP3    H221717   4.328   3.453   0.086
 7258TIP3   OH221718   5.765   7.164   1.195
 7258TIP3    H121719   5.696   7.118   1.243
 7258TIP3    H221720   5.730   7.252   1.182
 7259TIP3   OH221721   4.486   4.635   3.040
 7259TIP3    H121722   4.547   4.596   3.103
 7259TIP3    H221723   4.399   4.614   3.073
 7260TIP3   OH221724   5.892   5.004   4.876
 7260TIP3    H121725   5.872   4.928   4.820
 7260TIP3    H221726   5.945   5.061   4.820
 7261TIP3   OH221727   7.182   6.026   3.263
 7261TIP3    H121728   7.148   6.113   3.285
 7261TIP3    H221729   7.212   6.033   3.173
 7262TIP3   OH221730   6.176   6.656   5.967
 7262TIP3    H121731   6.172   6.588   5.900
 7262TIP3    H221732   6.090   6.699   5.962
 7263TIP3   OH221733   7.129   2.450   5.486
 7263TIP3    H121734   7.070   2.448   5.560
 7263TIP3    H221735   7.168   2.538   5.489
 7264TIP3   OH221736   7.083   5.695   1.471
 7264TIP3    H121737   7.109   5.787   1.476
 7264TIP3    H221738   7.120   5.663   1.389
 7265TIP3   OH221739   3.935   4.867   0.279
 7265TIP3    H121740   3.987   4.939   0.244
 7265TIP3    H221741   3.898   4.902   0.361
 7266TIP3   OH221742   0.031   4.760   2.790
 7266TIP3    H121743   0.056   4.677   2.748
 7266TIP3    H221744  -0.051   4.739   2.835
 7267TIP3   OH221745   3.309   3.925   3.746
 7267TIP3    H121746   3.271   4.010   3.765
 7267TIP3    H221747   3.243   3.881   3.692
 7268TIP3   OH221748   0.700   5.034   1.087
 7268TIP3    H121749   0.786   5.005   1.058
 7268TIP3    H221750   0.643   5.022   1.011
 7269TIP3   OH221751   4.632   4.006   3.117
 7269TIP3    H121752   4.673   3.929   3.079
 7269TIP3    H221753   4.676   4.080   3.076
 7270TIP3   OH221754   5.380   2.491   5.757
 7270TIP3    H121755   5.388   2.487   5.662
 7270TIP3    H221756   5.470   2.502   5.788
 7271TIP3   OH221757   4.676   4.740   1.469
 7271TIP3    H121758   4.608   4.796   1.431
 7271TIP3    H221759   4.632   4.658   1.488
 7272TIP3   OH221760   2.398   2.320   4.720
 7272TIP3    H121761   2.339   2.304   4.794
 7272TIP3    H221762   2.350   2.381   4.664
 7273TIP3   OH221763   1.038   6.994   4.804
 7273TIP3    H121764   1.060   7.084   4.828
 7273TIP3    H221765   1.105   6.941   4.847
 7274TIP3   OH221766   8.111   6.155   1.236
 7274TIP3    H121767   8.074   6.066   1.232
 7274TIP3    H221768   8.040   6.208   1.272
 7275TIP3   OH221769   3.634   5.077   6.793
 7275TIP3    H121770   3.666   5.150   6.846
 7275TIP3    H221771   3.551   5.052   6.833
 7276TIP3   OH221772   1.922   6.339   2.771
 7276TIP3    H121773   1.922   6.258   2.822
 7276TIP3    H221774   1.929   6.409   2.836
 7277TIP3   OH221775   0.864   2.115   2.749
 7277TIP3    H121776   0.816   2.196   2.765
 7277TIP3    H221777   0.907   2.096   2.832
 7278TIP3   OH221778   8.210   1.004   3.994
 7278TIP3    H121779   8.260   1.045   4.064
 7278TIP3    H221780   8.120   1.036   4.007
 7279TIP3   OH221781   2.150   5.784   1.978
 7279TIP3    H121782   2.240   5.760   2.000
 7279TIP3    H221783   2.124   5.846   2.046
 7280TIP3   OH221784   6.609   4.428   2.372
 7280TIP3    H121785   6.537   4.490   2.357
 7280TIP3    H221786   6.626   4.389   2.286
 7281TIP3   OH221787   4.113   2.465   1.891
 7281TIP3    H121788   4.030   2.506   1.867
 7281TIP3    H221789   4.101   2.372   1.872
 7282TIP3   OH221790   3.879   2.749   3.568
 7282TIP3    H121791   3.950   2.744   3.631
 7282TIP3    H221792   3.876   2.662   3.528
 7283TIP3   OH221793   5.908   1.993   2.872
 7283TIP3    H121794   5.857   1.922   2.834
 7283TIP3    H221795   5.864   2.073   2.843
 7284TIP3   OH221796   0.489   1.594   1.018
 7284TIP3    H121797   0.395   1.590   0.999
 7284TIP3    H221798   0.494   1.597   1.114
 7285TIP3   OH221799   4.119   5.134   6.524
 7285TIP3    H121800   4.043   5.143   6.467
 7285TIP3    H221801   4.185   5.191   6.484
 7286TIP3   OH221802   2.083   2.501   4.163
 7286TIP3    H121803   2.049   2.575   4.213
 7286TIP3    H221804   2.134   2.451   4.226
 7287TIP3   OH221805   5.714   5.556   6.411
 7287TIP3    H121806   5.627   5.532   6.443
 7287TIP3    H221807   5.750   5.612   6.480
 7288TIP3   OH221808   4.979   4.873   1.936
 7288TIP3    H121809   4.971   4.835   2.024
 7288TIP3    H221810   4.888   4.884   1.907
 7289TIP3   OH221811   6.066   1.203   0.129
 7289TIP3    H121812   6.029   1.286   0.157
 7289TIP3    H221813   6.067   1.209   0.033
 7290TIP3   OH221814   3.213   4.983   5.576
 7290TIP3    H121815   3.220   4.998   5.670
 7290TIP3    H221816   3.289   4.929   5.554
 7291TIP3   OH221817   0.861   3.675   3.764
 7291TIP3    H121818   0.939   3.633   3.726
 7291TIP3    H221819   0.801   3.602   3.781
 7292TIP3   OH221820   5.864   3.643   2.158
 7292TIP3    H121821   5.860   3.671   2.249
 7292TIP3    H221822   5.879   3.549   2.162
 7293TIP3   OH221823   4.246   0.456   1.436
 7293TIP3    H121824   4.151   0.453   1.452
 7293TIP3    H221825   4.256   0.522   1.367
 7294TIP3   OH221826   0.562   3.758   3.691
 7294TIP3    H121827   0.614   3.814   3.634
 7294TIP3    H221828   0.607   3.762   3.776
 7295TIP3   OH221829   6.699   1.710   6.690
 7295TIP3    H121830   6.794   1.705   6.698
 7295TIP3    H221831   6.682   1.796   6.652
 7296TIP3   OH221832   4.096   4.454   5.420
 7296TIP3    H121833   4.095   4.446   5.515
 7296TIP3    H221834   4.076   4.367   5.387
 7297TIP3   OH221835   0.298   3.485   4.743
 7297TIP3    H121836   0.213   3.453   4.773
 7297TIP3    H221837   0.362   3.434   4.792
 7298TIP3   OH221838   6.080   5.982   6.644
 7298TIP3    H121839   6.164   5.959   6.604
 7298TIP3    H221840   6.099   6.061   6.695
 7299TIP3   OH221841   0.558   7.656   2.833
 7299TIP3    H121842   0.482   7.711   2.818
 7299TIP3    H221843   0.588   7.633   2.745
 7300TIP3   OH221844   2.316   3.343   5.668
 7300TIP3    H121845   2.323   3.408   5.739
 7300TIP3    H221846   2.228   3.307   5.678
 7301TIP3   OH221847   0.548   6.217   1.754
 7301TIP3    H121848   0.596   6.197   1.673
 7301TIP3    H221849   0.497   6.295   1.733
 7302TIP3   OH221850   3.722   5.860   2.331
 7302TIP3    H121851   3.639   5.873   2.377
 7302TIP3    H221852   3.734   5.941   2.281
 7303TIP3   OH221853   6.800   7.382   4.931
 7303TIP3    H121854   6.719   7.405   4.886
 7303TIP3    H221855   6.821   7.294   4.899
 7304TIP3   OH221856   0.954   5.446   0.176
 7304TIP3    H121857   0.877   5.438   0.233
 7304TIP3    H221858   0.977   5.539   0.182
 7305TIP3   OH221859   7.847   3.747   3.286
 7305TIP3    H121860   7.934   3.773   3.258
 7305TIP3    H221861   7.798   3.830   3.290
 7306TIP3   OH221862   2.215   0.572   1.316
 7306TIP3    H121863   2.201   0.646   1.257
 7306TIP3    H221864   2.309   0.553   1.309
 7307TIP3   OH221865   4.325   3.293   5.602
 7307TIP3    H121866   4.386   3.317   5.533
 7307TIP3    H221867   4.376   3.234   5.658
 7308TIP3   OH221868   7.025   3.351   2.405
 7308TIP3    H121869   7.054   3.327   2.493
 7308TIP3    H221870   6.985   3.437   2.415
 7309TIP3   OH221871   7.126   3.576   2.157
 7309TIP3    H121872   7.086   3.511   2.099
 7309TIP3    H221873   7.159   3.526   2.231
 7310TIP3   OH221874   6.145   6.997   3.251
 7310TIP3    H121875   6.202   6.923   3.269
 7310TIP3    H221876   6.100   6.972   3.170
 7311TIP3   OH221877   5.250   1.838   3.480
 7311TIP3    H121878   5.252   1.766   3.543
 7311TIP3    H221879   5.161   1.873   3.487
 7312TIP3   OH221880   6.955   5.379   4.176
 7312TIP3    H121881   6.868   5.345   4.155
 7312TIP3    H221882   6.958   5.378   4.272
 7313TIP3   OH221883   0.641   4.766   6.266
 7313TIP3    H121884   0.612   4.787   6.177
 7313TIP3    H221885   0.581   4.813   6.323
 7314TIP3   OH221886   1.216   6.759   4.429
 7314TIP3    H121887   1.147   6.705   4.467
 7314TIP3    H221888   1.177   6.846   4.420
 7315TIP3   OH221889   7.734   5.773   5.171
 7315TIP3    H121890   7.669   5.715   5.211
 7315TIP3    H221891   7.744   5.739   5.082
 7316TIP3   OH221892   1.972   5.578   4.992
 7316TIP3    H121893   1.931   5.499   5.027
 7316TIP3    H221894   2.014   5.619   5.067
 7317TIP3   OH221895   4.528   6.915   4.067
 7317TIP3    H121896   4.494   6.888   4.152
 7317TIP3    H221897   4.519   6.838   4.012
 7318TIP3   OH221898   0.593   0.049   2.603
 7318TIP3    H121899   0.614   0.142   2.599
 7318TIP3    H221900   0.506   0.046   2.645
 7319TIP3   OH221901   6.738   6.724   3.858
 7319TIP3    H121902   6.753   6.811   3.896
 7319TIP3    H221903   6.698   6.674   3.930
 7320TIP3   OH221904   2.676   6.630   4.367
 7320TIP3    H121905   2.654   6.627   4.274
 7320TIP3    H221906   2.591   6.640   4.411
 7321TIP3   OH221907   5.316   0.301   5.499
 7321TIP3    H121908   5.270   0.227   5.460
 7321TIP3    H221909   5.256   0.375   5.488
 7322TIP3   OH221910   3.242   7.103   6.458
 7322TIP3    H121911   3.287   7.186   6.445
 7322TIP3    H221912   3.288   7.042   6.400
 7323TIP3   OH221913   0.433   5.980   5.903
 7323TIP3    H121914   0.489   5.940   5.969
 7323TIP3    H221915   0.346   5.945   5.920
 7324TIP3   OH221916   3.356   1.060   0.553
 7324TIP3    H121917   3.425   0.993   0.558
 7324TIP3    H221918   3.306   1.049   0.634
 7325TIP3   OH221919   1.079   3.545   3.655
 7325TIP3    H121920   1.096   3.493   3.576
 7325TIP3    H221921   1.153   3.526   3.712
 7326TIP3   OH221922   5.978   1.452   5.569
 7326TIP3    H121923   5.952   1.469   5.479
 7326TIP3    H221924   5.914   1.388   5.601
 7327TIP3   OH221925   6.743   2.775   6.129
 7327TIP3    H121926   6.655   2.740   6.117
 7327TIP3    H221927   6.799   2.721   6.074
 7328TIP3   OH221928   3.031   7.631   4.065
 7328TIP3    H121929   2.958   7.575   4.036
 7328TIP3    H221930   3.085   7.642   3.987
 7329TIP3   OH221931   2.947   5.667   3.130
 7329TIP3    H121932   2.912   5.583   3.101
 7329TIP3    H221933   2.870   5.719   3.150
 7330TIP3   OH221934   4.480   1.713   5.928
 7330TIP3    H121935   4.556   1.772   5.919
 7330TIP3    H221936   4.496   1.665   6.008
 7331TIP3   OH221937   5.485   6.742   1.521
 7331TIP3    H121938   5.565   6.702   1.554
 7331TIP3    H221939   5.458   6.685   1.449
 7332TIP3   OH221940   7.946   0.262   4.889
 7332TIP3    H121941   8.030   0.303   4.869
 7332TIP3    H221942   7.902   0.326   4.946
 7333TIP3   OH221943   7.818   5.908   6.680
 7333TIP3    H121944   7.891   5.942   6.629
 7333TIP3    H221945   7.783   5.835   6.628
 7334TIP3   OH221946   6.812   3.480   1.746
 7334TIP3    H121947   6.835   3.551   1.685
 7334TIP3    H221948   6.719   3.465   1.731
 7335TIP3   OH221949   6.771   0.992   5.541
 7335TIP3    H121950   6.705   0.959   5.602
 7335TIP3    H221951   6.773   0.926   5.471
 7336TIP3   OH221952   7.004   3.162   4.138
 7336TIP3    H121953   7.054   3.217   4.078
 7336TIP3    H221954   6.926   3.138   4.089
 7337TIP3   OH221955   7.953   1.461   6.341
 7337TIP3    H121956   7.904   1.400   6.285
 7337TIP3    H221957   8.040   1.466   6.300
 7338TIP3   OH221958   4.415   4.424   0.316
 7338TIP3    H121959   4.330   4.452   0.284
 7338TIP3    H221960   4.399   4.339   0.357
 7339TIP3   OH221961   3.957   1.924   3.591
 7339TIP3    H121962   4.003   1.858   3.642
 7339TIP3    H221963   3.904   1.972   3.655
 7340TIP3   OH221964   6.420   1.514   3.507
 7340TIP3    H121965   6.515   1.521   3.502
 7340TIP3    H221966   6.398   1.443   3.447
 7341TIP3   OH221967   7.438   0.607   6.352
 7341TIP3    H121968   7.501   0.556   6.403
 7341TIP3    H221969   7.443   0.695   6.388
 7342TIP3   OH221970   0.074   7.628   2.351
 7342TIP3    H121971   0.104   7.551   2.304
 7342TIP3    H221972   0.098   7.702   2.295
 7343TIP3   OH221973   6.391   4.883   0.140
 7343TIP3    H121974   6.361   4.840   0.220
 7343TIP3    H221975   6.345   4.837   0.070
 7344TIP3   OH221976   2.955   0.564   1.668
 7344TIP3    H121977   2.972   0.534   1.579
 7344TIP3    H221978   3.032   0.617   1.690
 7345TIP3   OH221979   7.599   1.153   2.058
 7345TIP3    H121980   7.597   1.186   1.968
 7345TIP3    H221981   7.617   1.059   2.049
 7346TIP3   OH221982   4.960   0.106   3.594
 7346TIP3    H121983   5.054   0.089   3.603
 7346TIP3    H221984   4.933   0.052   3.519
 7347TIP3   OH221985   8.241   0.700   4.916
 7347TIP3    H121986   8.231   0.757   4.992
 7347TIP3    H221987   8.155   0.657   4.907
 7348TIP3   OH221988   2.519   5.494   3.130
 7348TIP3    H121989   2.578   5.530   3.064
 7348TIP3    H221990   2.563   5.510   3.213
 7349TIP3   OH221991   7.777   3.988   2.825
 7349TIP3    H121992   7.809   4.031   2.745
 7349TIP3    H221993   7.857   3.963   2.872
 7350TIP3   OH221994   0.672   1.479   6.280
 7350TIP3    H121995   0.699   1.537   6.209
 7350TIP3    H221996   0.742   1.414   6.286
 7351TIP3   OH221997   4.209   0.782   3.515
 7351TIP3    H121998   4.114   0.794   3.508
 7351TIP3    H221999   4.240   0.859   3.563
 7352TIP3   OH222000   5.218   7.221   3.133
 7352TIP3    H122001   5.271   7.198   3.209
 7352TIP3    H222002   5.270   7.194   3.058
 7353TIP3   OH222003   7.040   0.146   3.281
 7353TIP3    H122004   6.974   0.077   3.280
 7353TIP3    H222005   6.989   0.227   3.284
 7354TIP3   OH222006   8.027   7.676   0.208
 7354TIP3    H122007   8.017   7.759   0.256
 7354TIP3    H222008   7.944   7.665   0.162
 7355TIP3   OH222009   7.980   4.217   2.462
 7355TIP3    H122010   7.966   4.308   2.488
 7355TIP3    H222011   8.007   4.222   2.370
 7356TIP3   OH222012   0.494   1.992   4.145
 7356TIP3    H122013   0.535   2.062   4.094
 7356TIP3    H222014   0.406   1.984   4.109
 7357TIP3   OH222015   3.711   6.495   5.007
 7357TIP3    H122016   3.635   6.554   5.010
 7357TIP3    H222017   3.708   6.458   4.919
 7358TIP3   OH222018   2.474   7.148   1.092
 7358TIP3    H122019   2.484   7.233   1.049
 7358TIP3    H222020   2.393   7.112   1.056
 7359TIP3   OH222021   6.279   4.048   5.275
 7359TIP3    H122022   6.196   4.019   5.239
 7359TIP3    H222023   6.312   4.112   5.212
 7360TIP3   OH222024   7.025   4.771   2.746
 7360TIP3    H122025   7.052   4.786   2.836
 7360TIP3    H222026   6.954   4.834   2.732
 7361TIP3   OH222027   8.131   3.084   4.507
 7361TIP3    H122028   8.195   3.102   4.438
 7361TIP3    H222029   8.056   3.047   4.462
 7362TIP3   OH222030   3.404   6.767   2.908
 7362TIP3    H122031   3.317   6.727   2.900
 7362TIP3    H222032   3.388   6.856   2.940
 7363TIP3   OH222033   3.293   4.211   3.741
 7363TIP3    H122034   3.224   4.186   3.679
 7363TIP3    H222035   3.366   4.237   3.686
 7364TIP3   OH222036   5.368   2.425   1.591
 7364TIP3    H122037   5.305   2.357   1.614
 7364TIP3    H222038   5.324   2.476   1.522
 7365TIP3   OH222039   7.528   3.690   2.089
 7365TIP3    H122040   7.464   3.718   2.154
 7365TIP3    H222041   7.512   3.745   2.013
 7366TIP3   OH222042   1.540   0.010   2.497
 7366TIP3    H122043   1.449  -0.019   2.485
 7366TIP3    H222044   1.538   0.104   2.478
 7367TIP3   OH222045   6.239   6.223   6.518
 7367TIP3    H122046   6.273   6.302   6.475
 7367TIP3    H222047   6.144   6.232   6.512
 7368TIP3   OH222048   0.117   0.923   6.725
 7368TIP3    H122049   0.113   0.906   6.631
 7368TIP3    H222050   0.078   0.846   6.765
 7369TIP3   OH222051   4.728   4.122   0.720
 7369TIP3    H122052   4.699   4.144   0.808
 7369TIP3    H222053   4.737   4.206   0.675
 7370TIP3   OH222054   6.425   1.865   0.265
 7370TIP3    H122055   6.415   1.771   0.257
 7370TIP3    H222056   6.513   1.877   0.300
 7371TIP3   OH222057   6.141   2.468   4.384
 7371TIP3    H122058   6.086   2.432   4.453
 7371TIP3    H222059   6.223   2.419   4.392
 7372TIP3   OH222060   2.217   3.456   2.127
 7372TIP3    H122061   2.249   3.390   2.066
 7372TIP3    H222062   2.203   3.534   2.073
 7373TIP3   OH222063   5.307   1.860   6.009
 7373TIP3    H122064   5.218   1.893   6.004
 7373TIP3    H222065   5.321   1.843   6.103
 7374TIP3   OH222066   1.526   0.587   4.802
 7374TIP3    H122067   1.575   0.668   4.788
 7374TIP3    H222068   1.554   0.529   4.732
 7375TIP3   OH222069   1.348   4.180   0.468
 7375TIP3    H122070   1.289   4.255   0.471
 7375TIP3    H222071   1.322   4.133   0.389
 7376TIP3   OH222072   1.403   5.743   6.430
 7376TIP3    H122073   1.419   5.660   6.386
 7376TIP3    H222074   1.317   5.733   6.471
 7377TIP3   OH222075   2.628   4.917   0.376
 7377TIP3    H122076   2.720   4.911   0.350
 7377TIP3    H222077   2.617   4.846   0.440
 7378TIP3   OH222078   6.316   1.140   2.323
 7378TIP3    H122079   6.410   1.147   2.337
 7378TIP3    H222080   6.305   1.058   2.275
 7379TIP3   OH222081   2.995   5.059   6.096
 7379TIP3    H122082   2.976   4.966   6.108
 7379TIP3    H222083   3.044   5.083   6.175
 7380TIP3   OH222084   3.906   5.825   4.655
 7380TIP3    H122085   3.893   5.801   4.563
 7380TIP3    H222086   3.842   5.895   4.670
 7381TIP3   OH222087   3.759   7.774   0.647
 7381TIP3    H122088   3.739   7.864   0.673
 7381TIP3    H222089   3.849   7.778   0.614
 7382TIP3   OH222090   7.532   3.704   0.069
 7382TIP3    H122091   7.512   3.614   0.094
 7382TIP3    H222092   7.623   3.701   0.039
 7383TIP3   OH222093   3.323   5.861   6.382
 7383TIP3    H122094   3.402   5.836   6.334
 7383TIP3    H222095   3.332   5.954   6.399
 7384TIP3   OH222096   4.490   3.570   5.628
 7384TIP3    H122097   4.490   3.639   5.561
 7384TIP3    H222098   4.410   3.586   5.679
 7385TIP3   OH222099   1.433   2.690   1.753
 7385TIP3    H122100   1.485   2.710   1.831
 7385TIP3    H222101   1.351   2.738   1.766
 7386TIP3   OH222102   5.678   6.461   4.210
 7386TIP3    H122103   5.746   6.416   4.161
 7386TIP3    H222104   5.675   6.549   4.171
 7387TIP3   OH222105   0.184   5.908   1.252
 7387TIP3    H122106   0.107   5.895   1.196
 7387TIP3    H222107   0.153   5.888   1.340
 7388TIP3   OH222108   0.982   4.406   0.640
 7388TIP3    H122109   0.907   4.414   0.699
 7388TIP3    H222110   0.970   4.322   0.596
 7389TIP3   OH222111   0.844   4.549   6.241
 7389TIP3    H122112   0.787   4.476   6.268
 7389TIP3    H222113   0.786   4.625   6.238
 7390TIP3   OH222114   3.238   3.519   4.535
 7390TIP3    H122115   3.266   3.465   4.608
 7390TIP3    H222116   3.145   3.499   4.525
 7391TIP3   OH222117   1.965   2.123   0.440
 7391TIP3    H122118   1.958   2.041   0.489
 7391TIP3    H222119   1.886   2.125   0.386
 7392TIP3   OH222120   5.383   6.323   1.985
 7392TIP3    H122121   5.336   6.320   1.901
 7392TIP3    H222122   5.335   6.388   2.037
 7393TIP3   OH222123   1.604   6.073   4.188
 7393TIP3    H122124   1.524   6.022   4.173
 7393TIP3    H222125   1.648   6.027   4.259
 7394TIP3   OH222126   1.031   1.401   5.430
 7394TIP3    H122127   0.979   1.385   5.508
 7394TIP3    H222128   1.063   1.315   5.403
 7395TIP3   OH222129   5.554   4.197   2.098
 7395TIP3    H122130   5.557   4.175   2.005
 7395TIP3    H222131   5.627   4.149   2.137
 7396TIP3   OH222132   1.957   5.890   3.580
 7396TIP3    H122133   2.001   5.859   3.660
 7396TIP3    H222134   2.001   5.842   3.509
 7397TIP3   OH222135   3.327   2.095   2.602
 7397TIP3    H122136   3.328   2.000   2.592
 7397TIP3    H222137   3.382   2.127   2.531
 7398TIP3   OH222138   0.259   3.144   5.846
 7398TIP3    H122139   0.233   3.143   5.754
 7398TIP3    H222140   0.350   3.175   5.844
 7399TIP3   OH222141   5.023   0.960   1.667
 7399TIP3    H122142   5.049   0.985   1.755
 7399TIP3    H222143   5.030   0.864   1.666
 7400TIP3   OH222144   6.112   3.393   3.421
 7400TIP3    H122145   6.086   3.304   3.397
 7400TIP3    H222146   6.081   3.402   3.511
 7401TIP3   OH222147   6.835   1.503   6.460
 7401TIP3    H122148   6.851   1.472   6.371
 7401TIP3    H222149   6.770   1.442   6.495
 7402TIP3   OH222150   4.311   1.810   4.335
 7402TIP3    H122151   4.346   1.733   4.381
 7402TIP3    H222152   4.268   1.861   4.404
 7403TIP3   OH222153   7.682   2.491   1.914
 7403TIP3    H122154   7.637   2.571   1.942
 7403TIP3    H222155   7.741   2.470   1.986
 7404TIP3   OH222156   1.270   4.364   1.219
 7404TIP3    H122157   1.344   4.308   1.243
 7404TIP3    H222158   1.261   4.424   1.293
 7405TIP3   OH222159   5.758   1.980   5.434
 7405TIP3    H122160   5.703   1.917   5.386
 7405TIP3    H222161   5.707   2.002   5.511
 7406TIP3   OH222162   0.337   4.956   2.406
 7406TIP3    H122163   0.257   4.911   2.381
 7406TIP3    H222164   0.407   4.906   2.364
 7407TIP3   OH222165   7.516   7.554   2.387
 7407TIP3    H122166   7.532   7.535   2.294
 7407TIP3    H222167   7.420   7.555   2.395
 7408TIP3   OH222168   3.272   4.369   6.244
 7408TIP3    H122169   3.367   4.362   6.255
 7408TIP3    H222170   3.238   4.283   6.269
 7409TIP3   OH222171   2.215   3.856   5.453
 7409TIP3    H122172   2.142   3.822   5.402
 7409TIP3    H222173   2.210   3.951   5.442
 7410TIP3   OH222174   7.311   1.792   1.007
 7410TIP3    H122175   7.285   1.863   0.948
 7410TIP3    H222176   7.393   1.822   1.046
 7411TIP3   OH222177   1.980   3.578   5.842
 7411TIP3    H122178   2.024   3.599   5.760
 7411TIP3    H222179   2.016   3.640   5.906
 7412TIP3   OH222180   7.110   4.174   5.255
 7412TIP3    H122181   7.205   4.164   5.257
 7412TIP3    H222182   7.083   4.158   5.345
 7413TIP3   OH222183   1.603   0.830   3.474
 7413TIP3    H122184   1.648   0.790   3.547
 7413TIP3    H222185   1.574   0.915   3.507
 7414TIP3   OH222186   0.087   2.017   2.153
 7414TIP3    H122187   0.103   1.980   2.066
 7414TIP3    H222188   0.061   1.941   2.206
 7415TIP3   OH222189   8.213   0.473   2.977
 7415TIP3    H122190   8.142   0.422   2.939
 7415TIP3    H222191   8.219   0.442   3.068
 7416TIP3   OH222192   1.899   5.126   2.157
 7416TIP3    H122193   1.919   5.156   2.246
 7416TIP3    H222194   1.961   5.055   2.141
 7417TIP3   OH222195   2.058   2.384   4.642
 7417TIP3    H122196   2.140   2.420   4.609
 7417TIP3    H222197   2.067   2.387   4.737
 7418TIP3   OH222198   6.660   0.438   4.528
 7418TIP3    H122199   6.668   0.417   4.435
 7418TIP3    H222200   6.621   0.360   4.567
 7419TIP3   OH222201   1.838   3.495   3.864
 7419TIP3    H122202   1.858   3.582   3.828
 7419TIP3    H222203   1.799   3.513   3.949
 7420TIP3   OH222204   0.994   0.483   1.556
 7420TIP3    H122205   0.989   0.388   1.562
 7420TIP3    H222206   1.010   0.513   1.646
 7421TIP3   OH222207   1.052   6.983   1.858
 7421TIP3    H122208   1.042   7.035   1.778
 7421TIP3    H222209   0.965   6.946   1.874
 7422TIP3   OH222210   6.892   5.680   3.163
 7422TIP3    H122211   6.945   5.658   3.086
 7422TIP3    H222212   6.911   5.772   3.179
 7423TIP3   OH222213   3.161   1.687   1.132
 7423TIP3    H122214   3.160   1.722   1.222
 7423TIP3    H222215   3.101   1.612   1.135
 7424TIP3   OH222216   5.247   7.315   6.080
 7424TIP3    H122217   5.335   7.293   6.112
 7424TIP3    H222218   5.261   7.343   5.989
 7425TIP3   OH222219   6.876   1.258   2.386
 7425TIP3    H122220   6.946   1.226   2.330
 7425TIP3    H222221   6.847   1.340   2.344
 7426TIP3   OH222222   0.239   6.149   4.503
 7426TIP3    H122223   0.202   6.066   4.532
 7426TIP3    H222224   0.180   6.215   4.541
 7427TIP3   OH222225   4.051   4.359   1.956
 7427TIP3    H122226   4.031   4.413   2.033
 7427TIP3    H222227   4.127   4.307   1.982
 7428TIP3   OH222228   1.875   2.943   4.110
 7428TIP3    H122229   1.784   2.914   4.101
 7428TIP3    H222230   1.926   2.874   4.069
 7429TIP3   OH222231   3.581   3.508   5.264
 7429TIP3    H122232   3.655   3.453   5.238
 7429TIP3    H222233   3.560   3.558   5.185
 7430TIP3   OH222234   6.506   1.838   1.223
 7430TIP3    H122235   6.552   1.759   1.251
 7430TIP3    H222236   6.515   1.899   1.296
 7431TIP3   OH222237   8.246   0.886   2.057
 7431TIP3    H122238   8.225   0.902   1.965
 7431TIP3    H222239   8.164   0.852   2.094
 7432TIP3   OH222240   7.757   1.668   6.253
 7432TIP3    H122241   7.824   1.637   6.314
 7432TIP3    H222242   7.752   1.601   6.185
 7433TIP3   OH222243   5.447   2.803   2.926
 7433TIP3    H122244   5.527   2.840   2.888
 7433TIP3    H222245   5.383   2.806   2.854
 7434TIP3   OH222246   0.095   6.226   5.985
 7434TIP3    H122247   0.077   6.278   6.064
 7434TIP3    H222248   0.042   6.148   5.996
 7435TIP3   OH222249   3.385   6.125   6.427
 7435TIP3    H122250   3.393   6.206   6.477
 7435TIP3    H222251   3.410   6.149   6.338
 7436TIP3   OH222252   3.679   5.342   1.585
 7436TIP3    H122253   3.695   5.279   1.656
 7436TIP3    H222254   3.599   5.388   1.611
 7437TIP3   OH222255   5.541   6.400   6.018
 7437TIP3    H122256   5.512   6.454   6.092
 7437TIP3    H222257   5.524   6.454   5.941
 7438TIP3   OH222258   3.612   1.880   5.583
 7438TIP3    H122259   3.684   1.885   5.520
 7438TIP3    H222260   3.655   1.874   5.668
 7439TIP3   OH222261   0.755   6.234   2.985
 7439TIP3    H122262   0.693   6.303   3.007
 7439TIP3    H222263   0.813   6.274   2.920
 7440TIP3   OH222264   4.705   5.690   5.301
 7440TIP3    H122265   4.752   5.773   5.299
 7440TIP3    H222266   4.772   5.624   5.282
 7441TIP3   OH222267   2.595   4.462   2.915
 7441TIP3    H122268   2.669   4.456   2.976
 7441TIP3    H222269   2.524   4.499   2.966
 7442TIP3   OH222270   2.256   1.770   3.862
 7442TIP3    H122271   2.166   1.801   3.859
 7442TIP3    H222272   2.260   1.700   3.796
 7443TIP3   OH222273   0.693   6.163   4.807
 7443TIP3    H122274   0.630   6.100   4.771
 7443TIP3    H222275   0.734   6.117   4.881
 7444TIP3   OH222276   3.622   4.773   4.095
 7444TIP3    H122277   3.577   4.744   4.175
 7444TIP3    H222278   3.611   4.868   4.095
 7445TIP3   OH222279   5.543   0.175   1.915
 7445TIP3    H122280   5.577   0.263   1.925
 7445TIP3    H222281   5.458   0.186   1.872
 7446TIP3   OH222282   6.077   1.349   2.726
 7446TIP3    H122283   6.123   1.322   2.646
 7446TIP3    H222284   6.033   1.430   2.701
 7447TIP3   OH222285   7.503   4.676   3.999
 7447TIP3    H122286   7.421   4.725   4.001
 7447TIP3    H222287   7.497   4.616   4.073
 7448TIP3   OH222288   1.902   0.215   1.042
 7448TIP3    H122289   1.915   0.277   0.971
 7448TIP3    H222290   1.941   0.257   1.119
 7449TIP3   OH222291   6.634   3.592   6.241
 7449TIP3    H122292   6.697   3.658   6.270
 7449TIP3    H222293   6.586   3.634   6.170
 7450TIP3   OH222294   4.373   0.179   5.165
 7450TIP3    H122295   4.344   0.267   5.138
 7450TIP3    H222296   4.294   0.139   5.202
 7451TIP3   OH222297   7.533   1.972   6.743
 7451TIP3    H122298   7.619   1.932   6.757
 7451TIP3    H222299   7.521   1.973   6.648
 7452TIP3   OH222300   7.504   2.338   1.274
 7452TIP3    H122301   7.565   2.333   1.201
 7452TIP3    H222302   7.545   2.398   1.336
 7453TIP3   OH222303   7.165   3.201   0.583
 7453TIP3    H122304   7.173   3.146   0.661
 7453TIP3    H222305   7.084   3.249   0.596
 7454TIP3   OH222306   6.192   3.829   3.257
 7454TIP3    H122307   6.237   3.891   3.315
 7454TIP3    H222308   6.103   3.865   3.249
 7455TIP3   OH222309   7.749   0.931   2.330
 7455TIP3    H122310   7.695   0.907   2.254
 7455TIP3    H222311   7.709   1.011   2.363
 7456TIP3   OH222312   6.420   7.619   4.577
 7456TIP3    H122313   6.435   7.528   4.603
 7456TIP3    H222314   6.444   7.622   4.485
 7457TIP3   OH222315   7.155   4.214   6.189
 7457TIP3    H122316   7.136   4.168   6.107
 7457TIP3    H222317   7.235   4.263   6.170
 7458TIP3   OH222318   3.097   2.006   2.134
 7458TIP3    H122319   3.177   2.037   2.092
 7458TIP3    H222320   3.116   2.010   2.228
 7459TIP3   OH222321   7.767   5.956   2.469
 7459TIP3    H122322   7.855   5.951   2.506
 7459TIP3    H222323   7.709   5.938   2.543
 7460TIP3   OH222324   2.226   7.743   1.407
 7460TIP3    H122325   2.134   7.722   1.389
 7460TIP3    H222326   2.256   7.789   1.329
 7461TIP3   OH222327   1.413   2.161   0.368
 7461TIP3    H122328   1.363   2.097   0.420
 7461TIP3    H222329   1.392   2.245   0.408
 7462TIP3   OH222330   0.014   0.614   0.526
 7462TIP3    H122331   0.009   0.606   0.431
 7462TIP3    H222332  -0.050   0.682   0.548
 7463TIP3   OH222333   4.431   0.533   2.162
 7463TIP3    H122334   4.398   0.445   2.181
 7463TIP3    H222335   4.526   0.524   2.163
 7464TIP3   OH222336   5.227   2.029   6.690
 7464TIP3    H122337   5.253   2.118   6.713
 7464TIP3    H222338   5.270   1.974   6.755
 7465TIP3   OH222339   3.188   2.289   3.612
 7465TIP3    H122340   3.147   2.353   3.669
 7465TIP3    H222341   3.115   2.240   3.574
 7466TIP3   OH222342   3.230   7.349   3.668
 7466TIP3    H122343   3.305   7.370   3.724
 7466TIP3    H222344   3.203   7.261   3.695
 7467TIP3   OH222345   7.608   7.499   4.591
 7467TIP3    H122346   7.627   7.592   4.600
 7467TIP3    H222347   7.673   7.466   4.529
 7468TIP3   OH222348   5.248   6.958   2.406
 7468TIP3    H122349   5.319   7.020   2.392
 7468TIP3    H222350   5.218   6.976   2.495
 7469TIP3   OH222351   7.298   7.093   6.355
 7469TIP3    H122352   7.331   7.137   6.277
 7469TIP3    H222353   7.212   7.132   6.371
 7470TIP3   OH222354   2.621   5.745   2.087
 7470TIP3    H122355   2.703   5.779   2.121
 7470TIP3    H222356   2.594   5.808   2.020
 7471TIP3   OH222357   0.286   7.153   3.437
 7471TIP3    H122358   0.333   7.116   3.511
 7471TIP3    H222359   0.239   7.078   3.399
 7472TIP3   OH222360   1.376   1.127   3.808
 7472TIP3    H122361   1.287   1.161   3.807
 7472TIP3    H222362   1.367   1.036   3.778
 7473TIP3   OH222363   3.312   3.964   5.843
 7473TIP3    H122364   3.288   4.055   5.862
 7473TIP3    H222365   3.338   3.965   5.751
 7474TIP3   OH222366   2.076   3.405   4.997
 7474TIP3    H122367   2.028   3.322   4.991
 7474TIP3    H222368   2.159   3.388   4.953
 7475TIP3   OH222369   6.356   4.586   3.603
 7475TIP3    H122370   6.430   4.543   3.644
 7475TIP3    H222371   6.395   4.639   3.533
 7476TIP3   OH222372   7.574   6.217   3.242
 7476TIP3    H122373   7.637   6.180   3.181
 7476TIP3    H222374   7.563   6.150   3.310
 7477TIP3   OH222375   5.801   1.426   5.350
 7477TIP3    H122376   5.731   1.402   5.411
 7477TIP3    H222377   5.786   1.371   5.274
 7478TIP3   OH222378   6.408   2.151   5.663
 7478TIP3    H122379   6.447   2.200   5.736
 7478TIP3    H222380   6.451   2.185   5.585
 7479TIP3   OH222381   0.210   1.735   5.111
 7479TIP3    H122382   0.207   1.683   5.030
 7479TIP3    H222383   0.296   1.778   5.109
 7480TIP3   OH222384   2.026   5.144   2.764
 7480TIP3    H122385   2.111   5.122   2.802
 7480TIP3    H222386   2.030   5.238   2.749
 7481TIP3   OH222387   8.223   3.817   5.678
 7481TIP3    H122388   8.164   3.778   5.613
 7481TIP3    H222389   8.273   3.743   5.712
 7482TIP3   OH222390   2.987   5.238   4.212
 7482TIP3    H122391   3.067   5.251   4.262
 7482TIP3    H222392   2.949   5.326   4.204
 7483TIP3   OH222393   5.201   3.751   3.894
 7483TIP3    H122394   5.218   3.760   3.988
 7483TIP3    H222395   5.107   3.766   3.885
 7484TIP3   OH222396   2.603   7.545   0.927
 7484TIP3    H122397   2.566   7.520   0.843
 7484TIP3    H222398   2.545   7.614   0.960
 7485TIP3   OH222399   1.491   6.818   0.067
 7485TIP3    H122400   1.444   6.735   0.076
 7485TIP3    H222401   1.439   6.868   0.004
 7486TIP3   OH222402   6.593   4.144   0.544
 7486TIP3    H122403   6.643   4.219   0.511
 7486TIP3    H222404   6.641   4.067   0.513
 7487TIP3   OH222405   7.385   6.392   3.150
 7487TIP3    H122406   7.445   6.340   3.205
 7487TIP3    H222407   7.417   6.379   3.061
 7488TIP3   OH222408   6.596   2.071   2.155
 7488TIP3    H122409   6.519   2.050   2.102
 7488TIP3    H222410   6.568   2.054   2.245
 7489TIP3   OH222411   5.915   0.132   5.751
 7489TIP3    H122412   5.969   0.185   5.692
 7489TIP3    H222413   5.843   0.102   5.697
 7490TIP3   OH222414   7.977   1.454  -0.026
 7490TIP3    H122415   7.939   1.540  -0.006
 7490TIP3    H222416   7.914   1.413  -0.085
 7491TIP3   OH222417   7.652   5.250   5.802
 7491TIP3    H122418   7.594   5.176   5.786
 7491TIP3    H222419   7.737   5.209   5.822
 7492TIP3   OH222420   5.837   5.946   2.806
 7492TIP3    H122421   5.896   5.987   2.869
 7492TIP3    H222422   5.822   5.858   2.840
 7493TIP3   OH222423   0.769   3.043   3.461
 7493TIP3    H122424   0.698   3.047   3.525
 7493TIP3    H222425   0.821   2.968   3.488
 7494TIP3   OH222426   4.208   6.241   6.404
 7494TIP3    H122427   4.178   6.332   6.413
 7494TIP3    H222428   4.224   6.212   6.493
 7495TIP3   OH222429   5.562   4.163   2.485
 7495TIP3    H122430   5.492   4.105   2.457
 7495TIP3    H222431   5.642   4.112   2.474
 7496TIP3   OH222432   4.581   1.058   4.170
 7496TIP3    H122433   4.632   1.105   4.236
 7496TIP3    H222434   4.644   1.039   4.100
 7497TIP3   OH222435   5.168   4.050   1.741
 7497TIP3    H122436   5.089   4.004   1.714
 7497TIP3    H222437   5.166   4.132   1.692
 7498TIP3   OH222438   1.992   3.595   0.121
 7498TIP3    H122439   1.974   3.510   0.080
 7498TIP3    H222440   1.967   3.583   0.213
 7499TIP3   OH222441   0.167   6.223   0.422
 7499TIP3    H122442   0.196   6.292   0.482
 7499TIP3    H222443   0.245   6.170   0.406
 7500TIP3   OH222444   4.458   1.564   4.493
 7500TIP3    H122445   4.536   1.563   4.549
 7500TIP3    H222446   4.491   1.588   4.407
 7501TIP3   OH222447   2.978   0.255   2.602
 7501TIP3    H122448   2.902   0.306   2.573
 7501TIP3    H222449   2.951   0.216   2.684
 7502TIP3   OH222450   7.658   6.219   4.942
 7502TIP3    H122451   7.656   6.304   4.987
 7502TIP3    H222452   7.607   6.233   4.862
 7503TIP3   OH222453   4.613   3.866   1.669
 7503TIP3    H122454   4.627   3.947   1.719
 7503TIP3    H222455   4.520   3.868   1.646
 7504TIP3   OH222456   4.591   5.273   2.424
 7504TIP3    H122457   4.674   5.298   2.465
 7504TIP3    H222458   4.526   5.332   2.462
 7505TIP3   OH222459   1.353   1.739   2.927
 7505TIP3    H122460   1.357   1.769   3.018
 7505TIP3    H222461   1.315   1.652   2.931
 7506TIP3   OH222462   3.822   7.033   4.587
 7506TIP3    H122463   3.740   7.078   4.567
 7506TIP3    H222464   3.882   7.058   4.516
 7507TIP3   OH222465   5.783   5.993   0.022
 7507TIP3    H122466   5.746   6.037   0.099
 7507TIP3    H222467   5.762   5.901   0.035
 7508TIP3   OH222468   2.130   3.468   3.947
 7508TIP3    H122469   2.097   3.524   3.877
 7508TIP3    H222470   2.094   3.505   4.027
 7509TIP3   OH222471   0.113   3.667   5.373
 7509TIP3    H122472   0.203   3.701   5.377
 7509TIP3    H222473   0.114   3.592   5.432
 7510TIP3   OH222474   1.342   7.483   3.423
 7510TIP3    H122475   1.318   7.572   3.448
 7510TIP3    H222476   1.436   7.476   3.444
 7511TIP3   OH222477   7.585   5.931   2.261
 7511TIP3    H122478   7.603   5.997   2.194
 7511TIP3    H222479   7.654   5.944   2.326
 7512TIP3   OH222480   8.021   2.035   2.882
 7512TIP3    H122481   8.029   1.949   2.841
 7512TIP3    H222482   8.107   2.050   2.923
 7513TIP3   OH222483   6.074   2.642   1.318
 7513TIP3    H122484   5.983   2.612   1.306
 7513TIP3    H222485   6.111   2.642   1.230
 7514TIP3   OH222486   0.397   1.671   2.009
 7514TIP3    H122487   0.435   1.758   2.002
 7514TIP3    H222488   0.454   1.625   2.071
 7515TIP3   OH222489   4.456   7.128   3.700
 7515TIP3    H122490   4.360   7.124   3.695
 7515TIP3    H222491   4.477   7.083   3.782
 7516TIP3   OH222492   6.602   7.771   2.835
 7516TIP3    H122493   6.592   7.704   2.903
 7516TIP3    H222494   6.680   7.821   2.862
 7517TIP3   OH222495   7.146   2.095   6.077
 7517TIP3    H122496   7.225   2.075   6.128
 7517TIP3    H222497   7.179   2.114   5.989
 7518TIP3   OH222498   8.089   4.915   5.852
 7518TIP3    H122499   8.071   4.913   5.946
 7518TIP3    H222500   8.106   4.824   5.829
 7519TIP3   OH222501   2.206   2.758   5.271
 7519TIP3    H122502   2.221   2.733   5.362
 7519TIP3    H222503   2.183   2.851   5.275
 7520TIP3   OH222504   0.718   4.500   6.704
 7520TIP3    H122505   0.662   4.491   6.781
 7520TIP3    H222506   0.657   4.524   6.634
 7521TIP3   OH222507   5.962   7.732   1.762
 7521TIP3    H122508   6.027   7.800   1.776
 7521TIP3    H222509   5.879   7.779   1.753
 7522TIP3   OH222510   2.291   5.269   1.212
 7522TIP3    H122511   2.308   5.283   1.119
 7522TIP3    H222512   2.218   5.328   1.232
 7523TIP3   OH222513   3.895   3.410   1.215
 7523TIP3    H122514   3.867   3.342   1.276
 7523TIP3    H222515   3.888   3.491   1.266
 7524TIP3   OH222516   8.092   5.722   3.666
 7524TIP3    H122517   8.155   5.666   3.711
 7524TIP3    H222518   8.147   5.785   3.618
 7525TIP3   OH222519   4.250   2.727   0.900
 7525TIP3    H122520   4.267   2.633   0.910
 7525TIP3    H222521   4.313   2.769   0.958
 7526TIP3   OH222522   2.186   5.851   2.359
 7526TIP3    H122523   2.178   5.827   2.451
 7526TIP3    H222524   2.278   5.875   2.348
 7527TIP3   OH222525   0.660   0.578   1.537
 7527TIP3    H122526   0.727   0.645   1.521
 7527TIP3    H222527   0.579   0.618   1.504
 7528TIP3   OH222528   7.627   4.262   0.534
 7528TIP3    H122529   7.546   4.290   0.492
 7528TIP3    H222530   7.679   4.342   0.543
 7529TIP3   OH222531   2.267   2.803   3.860
 7529TIP3    H122532   2.278   2.813   3.765
 7529TIP3    H222533   2.311   2.719   3.879
 7530TIP3   OH222534   7.539   4.487   2.840
 7530TIP3    H122535   7.510   4.575   2.863
 7530TIP3    H222536   7.603   4.465   2.908
 7531TIP3   OH222537   6.841   5.914   1.665
 7531TIP3    H122538   6.754   5.952   1.655
 7531TIP3    H222539   6.892   5.951   1.593
 7532TIP3   OH222540   7.627   5.636   0.587
 7532TIP3    H122541   7.597   5.655   0.498
 7532TIP3    H222542   7.715   5.599   0.575
 7533TIP3   OH222543   6.403   7.537   1.747
 7533TIP3    H122544   6.406   7.446   1.776
 7533TIP3    H222545   6.360   7.584   1.819
 7534TIP3   OH222546   5.711   6.503   6.383
 7534TIP3    H122547   5.798   6.485   6.347
 7534TIP3    H222548   5.653   6.447   6.332
 7535TIP3   OH222549   0.514   0.442   4.136
 7535TIP3    H122550   0.573   0.517   4.141
 7535TIP3    H222551   0.432   0.473   4.175
 7536TIP3   OH222552   0.762   4.768   5.686
 7536TIP3    H122553   0.783   4.690   5.737
 7536TIP3    H222554   0.703   4.736   5.617
 7537TIP3   OH222555   8.063   2.107   5.936
 7537TIP3    H122556   8.126   2.068   5.997
 7537TIP3    H222557   7.978   2.080   5.970
 7538TIP3   OH222558   4.616   3.001   3.168
 7538TIP3    H122559   4.619   3.088   3.127
 7538TIP3    H222560   4.603   3.019   3.261
 7539TIP3   OH222561   0.699   0.398   2.211
 7539TIP3    H122562   0.610   0.423   2.184
 7539TIP3    H222563   0.713   0.444   2.294
 7540TIP3   OH222564   5.802   2.494   2.811
 7540TIP3    H122565   5.737   2.525   2.748
 7540TIP3    H222566   5.886   2.520   2.773
 7541TIP3   OH222567   2.710   1.289   2.731
 7541TIP3    H122568   2.619   1.315   2.748
 7541TIP3    H222569   2.762   1.352   2.780
 7542TIP3   OH222570   4.971   6.361   1.820
 7542TIP3    H122571   5.034   6.428   1.795
 7542TIP3    H222572   5.002   6.282   1.775
 7543TIP3   OH222573   7.854   1.054   4.398
 7543TIP3    H122574   7.829   1.005   4.476
 7543TIP3    H222575   7.772   1.065   4.349
 7544TIP3   OH222576   3.685   2.543   1.631
 7544TIP3    H122577   3.615   2.482   1.652
 7544TIP3    H222578   3.765   2.491   1.639
 7545TIP3   OH222579   7.024   5.056   0.660
 7545TIP3    H122580   7.047   5.034   0.569
 7545TIP3    H222581   6.936   5.019   0.672
 7546TIP3   OH222582   5.158   2.530   5.417
 7546TIP3    H122583   5.070   2.535   5.379
 7546TIP3    H222584   5.205   2.604   5.377
 7547TIP3   OH222585   5.946   2.215   6.438
 7547TIP3    H122586   5.954   2.275   6.364
 7547TIP3    H222587   5.953   2.128   6.399
 7548TIP3   OH222588   2.050   1.259   0.786
 7548TIP3    H122589   2.135   1.301   0.770
 7548TIP3    H222590   1.986   1.327   0.768
 7549TIP3   OH222591   6.226   4.152   6.066
 7549TIP3    H122592   6.244   4.079   6.006
 7549TIP3    H222593   6.151   4.123   6.118
 7550TIP3   OH222594   7.419   1.822   5.588
 7550TIP3    H122595   7.383   1.792   5.504
 7550TIP3    H222596   7.342   1.839   5.643
 7551TIP3   OH222597   1.675   4.732   5.736
 7551TIP3    H122598   1.757   4.706   5.694
 7551TIP3    H222599   1.652   4.658   5.793
 7552TIP3   OH222600   0.561   2.418   3.433
 7552TIP3    H122601   0.477   2.387   3.401
 7552TIP3    H222602   0.543   2.504   3.472
 7553TIP3   OH222603   1.359   4.798   3.791
 7553TIP3    H122604   1.289   4.737   3.814
 7553TIP3    H222605   1.315   4.870   3.747
 7554TIP3   OH222606   4.970   1.255   2.160
 7554TIP3    H122607   4.875   1.246   2.151
 7554TIP3    H222608   4.982   1.300   2.244
 7555TIP3   OH222609   5.675   0.138   4.873
 7555TIP3    H122610   5.714   0.124   4.787
 7555TIP3    H222611   5.749   0.131   4.934
 7556TIP3   OH222612   6.170   7.462   5.026
 7556TIP3    H122613   6.128   7.524   4.966
 7556TIP3    H222614   6.181   7.383   4.974
 7557TIP3   OH222615   8.020   6.423   2.789
 7557TIP3    H122616   8.069   6.432   2.871
 7557TIP3    H222617   7.964   6.501   2.786
 7558TIP3   OH222618   1.984   6.372   4.266
 7558TIP3    H122619   1.906   6.322   4.243
 7558TIP3    H222620   1.953   6.438   4.328
 7559TIP3   OH222621   0.649   1.198   3.296
 7559TIP3    H122622   0.627   1.105   3.290
 7559TIP3    H222623   0.609   1.227   3.378
 7560TIP3   OH222624   1.966   2.618   5.373
 7560TIP3    H122625   2.015   2.646   5.296
 7560TIP3    H222626   2.015   2.543   5.407
 7561TIP3   OH222627   6.580   2.690   6.410
 7561TIP3    H122628   6.536   2.727   6.487
 7561TIP3    H222629   6.612   2.767   6.362
 7562TIP3   OH222630   1.498   4.380   2.657
 7562TIP3    H122631   1.460   4.319   2.720
 7562TIP3    H222632   1.556   4.326   2.603
 7563TIP3   OH222633   1.974   6.988   5.707
 7563TIP3    H122634   2.010   7.060   5.656
 7563TIP3    H222635   2.049   6.953   5.756
 7564TIP3   OH222636   2.009   5.563   1.182
 7564TIP3    H122637   1.937   5.620   1.157
 7564TIP3    H222638   2.087   5.604   1.144
 7565TIP3   OH222639   6.001   6.807   5.202
 7565TIP3    H122640   5.918   6.765   5.225
 7565TIP3    H222641   5.995   6.895   5.239
 7566TIP3   OH222642   4.457   2.936   1.763
 7566TIP3    H122643   4.545   2.942   1.800
 7566TIP3    H222644   4.400   2.974   1.829
 7567TIP3   OH222645   2.415   5.480   3.861
 7567TIP3    H122646   2.381   5.424   3.930
 7567TIP3    H222647   2.417   5.568   3.900
 7568TIP3   OH222648   4.694   4.488   4.875
 7568TIP3    H122649   4.629   4.549   4.910
 7568TIP3    H222650   4.702   4.511   4.783
 7569TIP3   OH222651   4.868   1.277   3.704
 7569TIP3    H122652   4.865   1.360   3.656
 7569TIP3    H222653   4.902   1.301   3.790
 7570TIP3   OH222654   3.557   5.801   6.256
 7570TIP3    H122655   3.620   5.861   6.296
 7570TIP3    H222656   3.575   5.805   6.162
 7571TIP3   OH222657   6.717   6.625   3.097
 7571TIP3    H122658   6.790   6.565   3.083
 7571TIP3    H222659   6.705   6.669   3.012
 7572TIP3   OH222660   7.612   7.400   3.475
 7572TIP3    H122661   7.581   7.488   3.451
 7572TIP3    H222662   7.541   7.342   3.447
 7573TIP3   OH222663   1.011   4.653   3.535
 7573TIP3    H122664   0.954   4.589   3.491
 7573TIP3    H222665   0.952   4.723   3.563
 7574TIP3   OH222666   5.332   6.896   4.700
 7574TIP3    H122667   5.271   6.863   4.634
 7574TIP3    H222668   5.341   6.824   4.762
 7575TIP3   OH222669   3.399   0.127   5.086
 7575TIP3    H122670   3.339   0.195   5.055
 7575TIP3    H222671   3.344   0.049   5.094
 7576TIP3   OH222672   1.861   2.130   2.424
 7576TIP3    H122673   1.813   2.085   2.355
 7576TIP3    H222674   1.874   2.063   2.492
 7577TIP3   OH222675   1.677   0.540   0.621
 7577TIP3    H122676   1.664   0.499   0.706
 7577TIP3    H222677   1.716   0.472   0.567
 7578TIP3   OH222678   2.019   4.814   1.040
 7578TIP3    H122679   1.945   4.843   1.093
 7578TIP3    H222680   2.096   4.847   1.087
 7579TIP3   OH222681   3.537   0.025   2.692
 7579TIP3    H122682   3.538   0.021   2.596
 7579TIP3    H222683   3.447   0.004   2.716
 7580TIP3   OH222684   0.824   6.993   0.814
 7580TIP3    H122685   0.846   7.073   0.768
 7580TIP3    H222686   0.783   6.937   0.747
 7581TIP3   OH222687   3.025   4.414   1.944
 7581TIP3    H122688   3.051   4.499   1.980
 7581TIP3    H222689   2.977   4.371   2.015
 7582TIP3   OH222690   6.917   5.728   6.213
 7582TIP3    H122691   7.007   5.723   6.247
 7582TIP3    H222692   6.891   5.819   6.227
 7583TIP3   OH222693   6.040   0.600   4.600
 7583TIP3    H122694   5.987   0.551   4.663
 7583TIP3    H222695   6.107   0.538   4.572
 7584TIP3   OH222696   8.046   6.293   3.257
 7584TIP3    H122697   7.958   6.329   3.265
 7584TIP3    H222698   8.032   6.199   3.245
 7585TIP3   OH222699   3.116   1.751   3.553
 7585TIP3    H122700   3.050   1.718   3.492
 7585TIP3    H222701   3.191   1.773   3.497
 7586TIP3   OH222702   1.143   3.987   4.373
 7586TIP3    H122703   1.080   3.970   4.443
 7586TIP3    H222704   1.225   3.951   4.405
 7587TIP3   OH222705   2.546   5.476  -0.010
 7587TIP3    H122706   2.519   5.467   0.082
 7587TIP3    H222707   2.641   5.490  -0.006
 7588TIP3   OH222708   3.414   4.655   5.012
 7588TIP3    H122709   3.425   4.688   4.922
 7588TIP3    H222710   3.394   4.563   5.001
 7589TIP3   OH222711   3.714   6.622   6.712
 7589TIP3    H122712   3.658   6.578   6.648
 7589TIP3    H222713   3.785   6.658   6.661
 7590TIP3   OH222714   5.758   1.551   2.870
 7590TIP3    H122715   5.692   1.619   2.884
 7590TIP3    H222716   5.825   1.568   2.936
 7591TIP3   OH222717   0.616   6.100   1.515
 7591TIP3    H122718   0.554   6.095   1.442
 7591TIP3    H222719   0.650   6.011   1.524
 7592TIP3   OH222720   3.399   3.614   1.453
 7592TIP3    H122721   3.434   3.564   1.379
 7592TIP3    H222722   3.427   3.566   1.531
 7593TIP3   OH222723   3.948   0.735   1.210
 7593TIP3    H122724   3.939   0.642   1.186
 7593TIP3    H222725   4.030   0.739   1.259
 7594TIP3   OH222726   3.072   7.388   2.998
 7594TIP3    H122727   3.147   7.376   2.939
 7594TIP3    H222728   3.111   7.409   3.082
 7595TIP3   OH222729   3.291   1.665   3.339
 7595TIP3    H122730   3.360   1.598   3.338
 7595TIP3    H222731   3.333   1.743   3.374
 7596TIP3   OH222732   5.124   1.719   2.436
 7596TIP3    H122733   5.034   1.752   2.436
 7596TIP3    H222734   5.159   1.747   2.351
 7597TIP3   OH222735   4.760   7.512   2.452
 7597TIP3    H122736   4.681   7.476   2.411
 7597TIP3    H222737   4.733   7.533   2.541
 7598TIP3   OH222738   1.702   2.658   3.910
 7598TIP3    H122739   1.711   2.686   3.819
 7598TIP3    H222740   1.684   2.564   3.904
 7599TIP3   OH222741   3.557   0.186   4.754
 7599TIP3    H122742   3.616   0.141   4.816
 7599TIP3    H222743   3.599   0.174   4.669
 7600TIP3   OH222744   0.097   0.390   3.575
 7600TIP3    H122745   0.083   0.428   3.661
 7600TIP3    H222746   0.088   0.295   3.589
 7601TIP3   OH222747   1.966   2.626   3.000
 7601TIP3    H122748   1.939   2.711   2.965
 7601TIP3    H222749   1.972   2.639   3.094
 7602TIP3   OH222750   5.713   4.440   1.745
 7602TIP3    H122751   5.791   4.467   1.697
 7602TIP3    H222752   5.731   4.467   1.836
 7603TIP3   OH222753   7.848   2.633   3.991
 7603TIP3    H122754   7.883   2.573   3.925
 7603TIP3    H222755   7.753   2.626   3.982
 7604TIP3   OH222756   1.198   0.851   4.594
 7604TIP3    H122757   1.146   0.869   4.672
 7604TIP3    H222758   1.253   0.928   4.584
 7605TIP3   OH222759   6.258   7.214   2.281
 7605TIP3    H122760   6.242   7.148   2.349
 7605TIP3    H222761   6.171   7.239   2.250
 7606TIP3   OH222762   1.599   7.021   1.376
 7606TIP3    H122763   1.597   7.000   1.469
 7606TIP3    H222764   1.692   7.021   1.354
 7607TIP3   OH222765   4.897   6.606   2.736
 7607TIP3    H122766   4.932   6.677   2.790
 7607TIP3    H222767   4.894   6.643   2.647
 7608TIP3   OH222768   0.615   2.967   5.133
 7608TIP3    H122769   0.622   3.011   5.048
 7608TIP3    H222770   0.609   2.874   5.111
 7609TIP3   OH222771   8.226   5.859   4.750
 7609TIP3    H122772   8.227   5.806   4.670
 7609TIP3    H222773   8.240   5.949   4.719
 7610TIP3   OH222774   5.312   5.238   3.937
 7610TIP3    H122775   5.273   5.310   3.888
 7610TIP3    H222776   5.400   5.229   3.900
 7611TIP3   OH222777   5.246   6.200   2.266
 7611TIP3    H122778   5.153   6.211   2.246
 7611TIP3    H222779   5.281   6.149   2.193
 7612TIP3   OH222780   3.989   0.036   5.583
 7612TIP3    H122781   3.992   0.124   5.545
 7612TIP3    H222782   3.963   0.050   5.674
 7613TIP3   OH222783   1.784   1.361   3.208
 7613TIP3    H122784   1.851   1.391   3.147
 7613TIP3    H222785   1.832   1.310   3.274
 7614TIP3   OH222786   2.780   7.379   4.942
 7614TIP3    H122787   2.739   7.308   4.992
 7614TIP3    H222788   2.873   7.354   4.938
 7615TIP3   OH222789   1.361   3.090   4.675
 7615TIP3    H122790   1.304   3.166   4.666
 7615TIP3    H222791   1.377   3.083   4.769
 7616TIP3   OH222792   5.553   6.682   2.257
 7616TIP3    H122793   5.553   6.775   2.280
 7616TIP3    H222794   5.479   6.673   2.197
 7617TIP3   OH222795   1.948   0.409   0.116
 7617TIP3    H122796   1.993   0.377   0.038
 7617TIP3    H222797   1.904   0.489   0.088
 7618TIP3   OH222798   0.325   3.381   1.277
 7618TIP3    H122799   0.333   3.475   1.260
 7618TIP3    H222800   0.262   3.375   1.350
 7619TIP3   OH222801   5.467   7.041   6.004
 7619TIP3    H122802   5.403   6.977   6.034
 7619TIP3    H222803   5.440   7.062   5.914
 7620TIP3   OH222804   5.066   0.540   0.955
 7620TIP3    H122805   5.128   0.610   0.974
 7620TIP3    H222806   5.014   0.574   0.882
 7621TIP3   OH222807   5.645   7.276   4.794
 7621TIP3    H122808   5.637   7.232   4.709
 7621TIP3    H222809   5.688   7.212   4.850
 7622TIP3   OH222810   4.532   6.643   4.392
 7622TIP3    H122811   4.522   6.620   4.299
 7622TIP3    H222812   4.528   6.739   4.393
 7623TIP3   OH222813   5.292   4.708   5.668
 7623TIP3    H122814   5.258   4.756   5.743
 7623TIP3    H222815   5.385   4.730   5.666
 7624TIP3   OH222816   7.527   4.791   2.482
 7624TIP3    H122817   7.565   4.764   2.398
 7624TIP3    H222818   7.465   4.860   2.458
 7625TIP3   OH222819   2.903   4.640   0.826
 7625TIP3    H122820   2.819   4.651   0.870
 7625TIP3    H222821   2.900   4.704   0.754
 7626TIP3   OH222822   5.179   1.811   2.707
 7626TIP3    H122823   5.146   1.756   2.636
 7626TIP3    H222824   5.163   1.760   2.787
 7627TIP3   OH222825   6.079   5.954   0.069
 7627TIP3    H122826   5.990   5.988   0.079
 7627TIP3    H222827   6.067   5.860   0.051
 7628TIP3   OH222828   3.106   2.226   2.404
 7628TIP3    H122829   3.124   2.295   2.467
 7628TIP3    H222830   3.187   2.177   2.398
 7629TIP3   OH222831   7.554   7.371   2.993
 7629TIP3    H122832   7.613   7.440   2.964
 7629TIP3    H222833   7.501   7.411   3.062
 7630TIP3   OH222834   3.585   6.730   6.294
 7630TIP3    H122835   3.636   6.731   6.213
 7630TIP3    H222836   3.633   6.671   6.352
 7631TIP3   OH222837   3.441   1.112   5.531
 7631TIP3    H122838   3.424   1.018   5.526
 7631TIP3    H222839   3.406   1.139   5.616
 7632TIP3   OH222840   5.169   7.368   1.991
 7632TIP3    H122841   5.257   7.405   1.984
 7632TIP3    H222842   5.181   7.275   1.974
 7633TIP3   OH222843   3.857   6.051   1.254
 7633TIP3    H122844   3.918   6.108   1.300
 7633TIP3    H222845   3.776   6.102   1.247
 7634TIP3   OH222846   5.036   1.298   1.296
 7634TIP3    H122847   4.960   1.294   1.353
 7634TIP3    H222848   5.036   1.387   1.262
 7635TIP3   OH222849   2.962   2.683   1.626
 7635TIP3    H122850   2.999   2.684   1.538
 7635TIP3    H222851   3.038   2.696   1.683
 7636TIP3   OH222852   6.471   5.400   3.361
 7636TIP3    H122853   6.474   5.328   3.298
 7636TIP3    H222854   6.378   5.415   3.376
 7637TIP3   OH222855   0.575   0.026   3.671
 7637TIP3    H122856   0.663   0.045   3.640
 7637TIP3    H222857   0.517   0.060   3.602
 7638TIP3   OH222858   5.870   1.226   5.665
 7638TIP3    H122859   5.871   1.131   5.681
 7638TIP3    H222860   5.950   1.258   5.708
 7639TIP3   OH222861   5.135   3.675   2.978
 7639TIP3    H122862   5.155   3.671   2.884
 7639TIP3    H222863   5.154   3.587   3.010
 7640TIP3   OH222864   0.087   0.619   0.255
 7640TIP3    H122865   0.182   0.633   0.260
 7640TIP3    H222866   0.068   0.615   0.161
 7641TIP3   OH222867   2.103   6.872   3.838
 7641TIP3    H122868   2.055   6.833   3.911
 7641TIP3    H222869   2.187   6.898   3.875
 7642TIP3   OH222870   5.698   3.050   3.164
 7642TIP3    H122871   5.750   3.093   3.232
 7642TIP3    H222872   5.621   3.017   3.211
 7643TIP3   OH222873   0.030   3.296   3.798
 7643TIP3    H122874  -0.032   3.225   3.815
 7643TIP3    H222875   0.111   3.252   3.773
 7644TIP3   OH222876  -0.081   3.019   3.786
 7644TIP3    H122877  -0.046   2.931   3.800
 7644TIP3    H222878  -0.076   3.033   3.691
 7645TIP3   OH222879   0.429   5.408   2.918
 7645TIP3    H122880   0.524   5.422   2.921
 7645TIP3    H222881   0.408   5.370   3.003
 7646TIP3   OH222882   3.891   1.991   1.997
 7646TIP3    H122883   3.917   1.911   1.950
 7646TIP3    H222884   3.796   1.989   1.997
 7647TIP3   OH222885   4.980   5.546   1.430
 7647TIP3    H122886   5.032   5.622   1.452
 7647TIP3    H222887   4.922   5.576   1.359
 7648TIP3   OH222888   6.384   1.849   0.589
 7648TIP3    H122889   6.305   1.802   0.561
 7648TIP3    H222890   6.444   1.839   0.516
 7649TIP3   OH222891   3.713   4.967   3.205
 7649TIP3    H122892   3.672   5.004   3.283
 7649TIP3    H222893   3.704   4.872   3.216
 7650TIP3   OH222894   6.172   0.684   2.749
 7650TIP3    H122895   6.090   0.696   2.797
 7650TIP3    H222896   6.153   0.713   2.660
 7651TIP3   OH222897   5.212   0.636   6.493
 7651TIP3    H122898   5.197   0.551   6.451
 7651TIP3    H222899   5.161   0.698   6.440
 7652TIP3   OH222900   2.282   7.681   6.523
 7652TIP3    H122901   2.289   7.729   6.441
 7652TIP3    H222902   2.215   7.615   6.506
 7653TIP3   OH222903   1.392   0.458   1.113
 7653TIP3    H122904   1.440   0.411   1.182
 7653TIP3    H222905   1.426   0.548   1.118
 7654TIP3   OH222906   4.076   2.222   1.185
 7654TIP3    H122907   4.101   2.208   1.094
 7654TIP3    H222908   4.059   2.316   1.192
 7655TIP3   OH222909   1.053   4.983   4.595
 7655TIP3    H122910   1.118   4.929   4.551
 7655TIP3    H222911   1.094   5.007   4.678
 7656TIP3   OH222912   1.165   5.695   6.558
 7656TIP3    H122913   1.098   5.763   6.555
 7656TIP3    H222914   1.118   5.617   6.586
 7657TIP3   OH222915  -0.026   0.408   5.440
 7657TIP3    H122916  -0.021   0.378   5.531
 7657TIP3    H222917   0.031   0.349   5.392
 7658TIP3   OH222918   7.852   7.269   4.031
 7658TIP3    H122919   7.943   7.240   4.031
 7658TIP3    H222920   7.844   7.322   3.952
 7659TIP3   OH222921   2.884   3.575   1.591
 7659TIP3    H122922   2.808   3.632   1.582
 7659TIP3    H222923   2.947   3.608   1.526
 7660TIP3   OH222924   7.408   7.269   6.199
 7660TIP3    H122925   7.324   7.299   6.166
 7660TIP3    H222926   7.467   7.343   6.186
 7661TIP3   OH222927   7.253   1.284   3.530
 7661TIP3    H122928   7.320   1.348   3.554
 7661TIP3    H222929   7.301   1.217   3.481
 7662TIP3   OH222930   8.260   1.214   3.124
 7662TIP3    H122931   8.179   1.165   3.117
 7662TIP3    H222932   8.325   1.150   3.154
 7663TIP3   OH222933   3.918   5.845   3.220
 7663TIP3    H122934   3.858   5.892   3.161
 7663TIP3    H222935   3.870   5.836   3.302
 7664TIP3   OH222936   7.652   1.915   3.512
 7664TIP3    H122937   7.699   1.856   3.453
 7664TIP3    H222938   7.658   1.873   3.597
 7665TIP3   OH222939   2.901   6.751   1.811
 7665TIP3    H122940   2.907   6.846   1.797
 7665TIP3    H222941   2.826   6.740   1.868
 7666TIP3   OH222942   6.996   3.198   2.167
 7666TIP3    H122943   7.084   3.219   2.134
 7666TIP3    H222944   6.987   3.250   2.246
 7667TIP3   OH222945   7.386   2.494   3.164
 7667TIP3    H122946   7.323   2.423   3.151
 7667TIP3    H222947   7.356   2.538   3.243
 7668TIP3   OH222948   6.697   7.504   1.099
 7668TIP3    H122949   6.778   7.554   1.097
 7668TIP3    H222950   6.674   7.491   1.007
 7669TIP3   OH222951   7.810   6.337   5.785
 7669TIP3    H122952   7.786   6.421   5.745
 7669TIP3    H222953   7.751   6.274   5.745
 7670TIP3   OH222954   2.783   0.648   3.885
 7670TIP3    H122955   2.809   0.689   3.968
 7670TIP3    H222956   2.841   0.687   3.820
 7671TIP3   OH222957   7.946   6.018   4.180
 7671TIP3    H122958   8.009   5.965   4.129
 7671TIP3    H222959   7.935   6.097   4.128
 7672TIP3   OH222960   7.282   6.548   0.270
 7672TIP3    H122961   7.277   6.643   0.272
 7672TIP3    H222962   7.374   6.528   0.287
 7673TIP3   OH222963   4.973   6.306   5.928
 7673TIP3    H122964   5.044   6.298   5.991
 7673TIP3    H222965   4.919   6.378   5.961
 7674TIP3   OH222966   4.811   4.793   4.530
 7674TIP3    H122967   4.791   4.776   4.622
 7674TIP3    H222968   4.899   4.758   4.517
 7675TIP3   OH222969   2.263   5.605   3.234
 7675TIP3    H122970   2.319   5.667   3.280
 7675TIP3    H222971   2.323   5.542   3.195
 7676TIP3   OH222972   7.393   0.498   4.978
 7676TIP3    H122973   7.434   0.487   5.064
 7676TIP3    H222974   7.454   0.458   4.917
 7677TIP3   OH222975   0.916   1.723   1.186
 7677TIP3    H122976   0.949   1.660   1.250
 7677TIP3    H222977   0.923   1.677   1.102
 7678TIP3   OH222978   0.301   7.684   4.873
 7678TIP3    H122979   0.340   7.729   4.798
 7678TIP3    H222980   0.207   7.690   4.858
 7679TIP3   OH222981   6.700   0.793   5.378
 7679TIP3    H122982   6.711   0.740   5.299
 7679TIP3    H222983   6.613   0.769   5.411
 7680TIP3   OH222984   4.212   1.295   3.054
 7680TIP3    H122985   4.164   1.225   3.011
 7680TIP3    H222986   4.304   1.274   3.039
 7681TIP3   OH222987   4.336   7.806   0.309
 7681TIP3    H122988   4.241   7.818   0.314
 7681TIP3    H222989   4.366   7.812   0.399
 7682TIP3   OH222990   5.262   1.373   1.576
 7682TIP3    H122991   5.211   1.437   1.525
 7682TIP3    H222992   5.225   1.288   1.553
 7683TIP3   OH222993   1.060   5.952   0.046
 7683TIP3    H122994   1.020   5.939  -0.040
 7683TIP3    H222995   1.131   6.015   0.030
 7684TIP3   OH222996   0.455   6.851   1.401
 7684TIP3    H122997   0.498   6.851   1.316
 7684TIP3    H222998   0.384   6.787   1.391
 7685TIP3   OH222999   0.074   6.637   0.685
 7685TIP3    H123000   0.006   6.570   0.690
 7685TIP3    H223001   0.033   6.716   0.719
 7686TIP3   OH223002   3.154   6.191   3.859
 7686TIP3    H123003   3.236   6.238   3.851
 7686TIP3    H223004   3.115   6.223   3.940
 7687TIP3   OH223005   0.601   2.403   2.029
 7687TIP3    H123006   0.574   2.348   2.103
 7687TIP3    H223007   0.556   2.365   1.954
 7688TIP3   OH223008   7.611   6.213   5.537
 7688TIP3    H123009   7.673   6.277   5.504
 7688TIP3    H223010   7.608   6.145   5.470
 7689TIP3   OH223011   4.124   0.488   4.429
 7689TIP3    H123012   4.090   0.522   4.346
 7689TIP3    H223013   4.099   0.554   4.494
 7690TIP3   OH223014   8.049   4.680   3.122
 7690TIP3    H123015   7.970   4.733   3.113
 7690TIP3    H223016   8.048   4.651   3.214
 7691TIP3   OH223017   2.819   7.388   6.414
 7691TIP3    H123018   2.888   7.436   6.369
 7691TIP3    H223019   2.739   7.411   6.367
 7692TIP3   OH223020   7.974   7.335   3.794
 7692TIP3    H123021   8.052   7.285   3.816
 7692TIP3    H223022   7.932   7.284   3.725
 7693TIP3   OH223023   1.204   1.758   0.327
 7693TIP3    H123024   1.192   1.850   0.303
 7693TIP3    H223025   1.133   1.712   0.283
 7694TIP3   OH223026   3.638   5.361   2.926
 7694TIP3    H123027   3.686   5.316   2.996
 7694TIP3    H223028   3.702   5.371   2.856
 7695TIP3   OH223029   3.853   4.196   5.036
 7695TIP3    H123030   3.868   4.249   5.115
 7695TIP3    H223031   3.789   4.247   4.986
 7696TIP3   OH223032   2.398   7.083   6.707
 7696TIP3    H123033   2.339   7.159   6.709
 7696TIP3    H223034   2.485   7.120   6.718
 7697TIP3   OH223035   5.403   4.815   0.676
 7697TIP3    H123036   5.452   4.806   0.594
 7697TIP3    H223037   5.349   4.737   0.681
 7698TIP3   OH223038   5.510   3.720   2.133
 7698TIP3    H123039   5.515   3.632   2.170
 7698TIP3    H223040   5.442   3.714   2.065
 7699TIP3   OH223041   8.044   1.872   3.371
 7699TIP3    H123042   7.965   1.819   3.365
 7699TIP3    H223043   8.116   1.810   3.362
 7700TIP3   OH223044   2.653   0.715   4.626
 7700TIP3    H123045   2.567   0.704   4.667
 7700TIP3    H223046   2.651   0.803   4.588
 7701TIP3   OH223047   1.194   5.165   0.410
 7701TIP3    H123048   1.271   5.220   0.393
 7701TIP3    H223049   1.208   5.087   0.356
 7702TIP3   OH223050   1.267   3.196   6.237
 7702TIP3    H123051   1.328   3.148   6.293
 7702TIP3    H223052   1.289   3.170   6.148
 7703TIP3   OH223053   5.828   6.759   6.777
 7703TIP3    H123054   5.780   6.691   6.730
 7703TIP3    H223055   5.886   6.798   6.712
 7704TIP3   OH223056   1.262   5.021   0.096
 7704TIP3    H123057   1.349   5.015   0.136
 7704TIP3    H223058   1.265   4.960   0.022
 7705TIP3   OH223059   2.862   5.953   4.194
 7705TIP3    H123060   2.827   5.879   4.245
 7705TIP3    H223061   2.850   6.029   4.250
 7706TIP3   OH223062   4.482   2.700   2.090
 7706TIP3    H123063   4.540   2.775   2.078
 7706TIP3    H223064   4.534   2.637   2.140
 7707TIP3   OH223065   4.835   4.162   1.422
 7707TIP3    H123066   4.817   4.156   1.516
 7707TIP3    H223067   4.750   4.181   1.383
 7708TIP3   OH223068   1.606   0.389   5.052
 7708TIP3    H123069   1.579   0.308   5.095
 7708TIP3    H223070   1.698   0.399   5.076
 7709TIP3   OH223071   0.066   1.652   0.773
 7709TIP3    H123072   0.144   1.629   0.825
 7709TIP3    H223073   0.006   1.690   0.836
 7710TIP3   OH223074   0.279   3.988   3.575
 7710TIP3    H123075   0.312   4.076   3.591
 7710TIP3    H223076   0.195   4.002   3.531
 7711TIP3   OH223077   6.943   2.454   4.208
 7711TIP3    H123078   6.945   2.549   4.201
 7711TIP3    H223079   6.850   2.432   4.210
 7712TIP3   OH223080   1.184   1.969   5.840
 7712TIP3    H123081   1.136   2.051   5.851
 7712TIP3    H223082   1.206   1.941   5.929
 7713TIP3   OH223083   7.238   2.086   1.902
 7713TIP3    H123084   7.287   2.110   1.980
 7713TIP3    H223085   7.222   1.992   1.911
 7714TIP3   OH223086   2.359   3.901   3.019
 7714TIP3    H123087   2.313   3.979   2.989
 7714TIP3    H223088   2.424   3.884   2.951
 7715TIP3   OH223089   3.314   3.020   4.264
 7715TIP3    H123090   3.221   2.998   4.265
 7715TIP3    H223091   3.355   2.949   4.214
 7716TIP3   OH223092   1.288   4.778   4.855
 7716TIP3    H123093   1.274   4.787   4.761
 7716TIP3    H223094   1.362   4.718   4.863
 7717TIP3   OH223095   4.883   1.415   3.015
 7717TIP3    H123096   4.867   1.509   3.011
 7717TIP3    H223097   4.947   1.405   3.086
 7718TIP3   OH223098   7.209   0.105   1.891
 7718TIP3    H123099   7.121   0.115   1.927
 7718TIP3    H223100   7.239   0.019   1.923
 7719TIP3   OH223101   0.155   4.493   2.707
 7719TIP3    H123102   0.132   4.479   2.615
 7719TIP3    H223103   0.178   4.406   2.739
 7720TIP3   OH223104   0.840   2.302   4.535
 7720TIP3    H123105   0.759   2.286   4.487
 7720TIP3    H223106   0.821   2.272   4.624
 7721TIP3   OH223107   3.394   2.543   6.235
 7721TIP3    H123108   3.424   2.510   6.151
 7721TIP3    H223109   3.437   2.486   6.299
 7722TIP3   OH223110   5.128   5.643   3.352
 7722TIP3    H123111   5.034   5.658   3.337
 7722TIP3    H223112   5.131   5.594   3.434
 7723TIP3   OH223113   0.445   1.869   5.142
 7723TIP3    H123114   0.460   1.928   5.069
 7723TIP3    H223115   0.523   1.878   5.197
 7724TIP3   OH223116   1.716   3.987  -0.035
 7724TIP3    H123117   1.665   4.027   0.035
 7724TIP3    H223118   1.786   4.050  -0.052
 7725TIP3   OH223119   1.877   7.289   4.671
 7725TIP3    H123120   1.850   7.326   4.587
 7725TIP3    H223121   1.807   7.227   4.694
 7726TIP3   OH223122   7.595   2.757   0.090
 7726TIP3    H123123   7.608   2.679   0.036
 7726TIP3    H223124   7.657   2.821   0.057
 7727TIP3   OH223125   7.220   4.899   3.763
 7727TIP3    H123126   7.186   4.948   3.688
 7727TIP3    H223127   7.308   4.934   3.777
 7728TIP3   OH223128   2.358   3.283   1.930
 7728TIP3    H123129   2.424   3.342   1.892
 7728TIP3    H223130   2.292   3.274   1.862
 7729TIP3   OH223131   5.169   5.804   5.390
 7729TIP3    H123132   5.153   5.873   5.326
 7729TIP3    H223133   5.130   5.838   5.471
 7730TIP3   OH223134   1.087   4.583   6.130
 7730TIP3    H123135   1.107   4.489   6.121
 7730TIP3    H223136   1.001   4.585   6.172
 7731TIP3   OH223137   0.138   5.614   4.226
 7731TIP3    H123138   0.194   5.679   4.268
 7731TIP3    H223139   0.156   5.533   4.273
 7732TIP3   OH223140   3.366   4.516   2.913
 7732TIP3    H123141   3.273   4.492   2.910
 7732TIP3    H223142   3.377   4.577   2.841
 7733TIP3   OH223143   4.380   6.075   0.079
 7733TIP3    H123144   4.437   6.112   0.146
 7733TIP3    H223145   4.340   5.999   0.122
 7734TIP3   OH223146   7.717   2.835   0.351
 7734TIP3    H123147   7.688   2.774   0.419
 7734TIP3    H223148   7.677   2.802   0.271
 7735TIP3   OH223149   1.704   0.272   6.326
 7735TIP3    H123150   1.681   0.335   6.258
 7735TIP3    H223151   1.696   0.187   6.284
 7736TIP3   OH223152   3.812   5.016   4.553
 7736TIP3    H123153   3.784   4.926   4.536
 7736TIP3    H223154   3.731   5.061   4.576
 7737TIP3   OH223155   7.809   0.499   5.037
 7737TIP3    H123156   7.722   0.537   5.050
 7737TIP3    H223157   7.846   0.492   5.125
 7738TIP3   OH223158   7.305   6.856   2.481
 7738TIP3    H123159   7.400   6.851   2.496
 7738TIP3    H223160   7.296   6.867   2.387
 7739TIP3   OH223161   0.829   7.790   6.409
 7739TIP3    H123162   0.824   7.740   6.491
 7739TIP3    H223163   0.913   7.834   6.413
 7740TIP3   OH223164   4.743   6.371   2.813
 7740TIP3    H123165   4.801   6.444   2.791
 7740TIP3    H223166   4.674   6.410   2.867
 7741TIP3   OH223167   7.115   0.196   1.241
 7741TIP3    H123168   7.137   0.281   1.278
 7741TIP3    H223169   7.032   0.172   1.283
 7742TIP3   OH223170   3.481   4.660   6.669
 7742TIP3    H123171   3.458   4.575   6.633
 7742TIP3    H223172   3.556   4.690   6.617
 7743TIP3   OH223173   6.907   5.729   3.761
 7743TIP3    H123174   6.998   5.754   3.751
 7743TIP3    H223175   6.905   5.677   3.841
 7744TIP3   OH223176   3.978   3.987   1.255
 7744TIP3    H123177   3.919   4.023   1.190
 7744TIP3    H223178   3.932   3.999   1.338
 7745TIP3   OH223179   6.315   3.075   3.699
 7745TIP3    H123180   6.306   3.023   3.779
 7745TIP3    H223181   6.355   3.015   3.636
 7746TIP3   OH223182   5.403   1.840   0.218
 7746TIP3    H123183   5.474   1.788   0.257
 7746TIP3    H223184   5.406   1.924   0.264
 7747TIP3   OH223185   1.908   0.795   3.921
 7747TIP3    H123186   1.962   0.758   3.851
 7747TIP3    H223187   1.951   0.767   4.002
 7748TIP3   OH223188   1.996   7.432   0.284
 7748TIP3    H123189   2.008   7.512   0.335
 7748TIP3    H223190   1.949   7.460   0.206
 7749TIP3   OH223191   3.712   2.271   3.150
 7749TIP3    H123192   3.640   2.298   3.207
 7749TIP3    H223193   3.781   2.244   3.210
 7750TIP3   OH223194   1.135   0.336   4.295
 7750TIP3    H123195   1.061   0.291   4.254
 7750TIP3    H223196   1.095   0.409   4.343
 7751TIP3   OH223197   0.701   1.497   1.319
 7751TIP3    H123198   0.723   1.577   1.367
 7751TIP3    H223199   0.616   1.515   1.279
 7752TIP3   OH223200   0.784   6.763   2.827
 7752TIP3    H123201   0.876   6.789   2.828
 7752TIP3    H223202   0.754   6.783   2.738
 7753TIP3   OH223203   4.916   0.588   0.730
 7753TIP3    H123204   4.952   0.670   0.696
 7753TIP3    H223205   4.943   0.522   0.667
 7754TIP3   OH223206   2.192   4.854   5.674
 7754TIP3    H123207   2.211   4.873   5.582
 7754TIP3    H223208   2.268   4.888   5.722
 7755TIP3   OH223209   8.202   7.652   0.901
 7755TIP3    H123210   8.244   7.576   0.862
 7755TIP3    H223211   8.275   7.709   0.927
 7756TIP3   OH223212   1.069   4.042   5.235
 7756TIP3    H123213   1.009   4.031   5.309
 7756TIP3    H223214   1.085   4.136   5.230
 7757TIP3   OH223215   5.227   0.698   3.446
 7757TIP3    H123216   5.320   0.678   3.430
 7757TIP3    H223217   5.210   0.662   3.533
 7758TIP3   OH223218   0.221   5.759   0.955
 7758TIP3    H123219   0.185   5.673   0.978
 7758TIP3    H223220   0.265   5.744   0.871
 7759TIP3   OH223221   3.552   6.659   1.655
 7759TIP3    H123222   3.465   6.630   1.682
 7759TIP3    H223223   3.596   6.578   1.628
 7760TIP3   OH223224   0.965   4.536   1.981
 7760TIP3    H123225   0.926   4.454   2.010
 7760TIP3    H223226   0.903   4.603   2.007
 7761TIP3   OH223227   1.555   5.197   4.532
 7761TIP3    H123228   1.564   5.171   4.624
 7761TIP3    H223229   1.473   5.245   4.529
 7762TIP3   OH223230   7.882   2.503   4.508
 7762TIP3    H123231   7.946   2.549   4.562
 7762TIP3    H223232   7.932   2.474   4.432
 7763TIP3   OH223233   3.370   1.159   6.177
 7763TIP3    H123234   3.384   1.065   6.164
 7763TIP3    H223235   3.276   1.168   6.191
 7764TIP3   OH223236   0.334   1.162   5.171
 7764TIP3    H123237   0.417   1.148   5.216
 7764TIP3    H223238   0.269   1.116   5.225
 7765TIP3   OH223239   1.705   7.386   2.722
 7765TIP3    H123240   1.610   7.397   2.731
 7765TIP3    H223241   1.721   7.294   2.744
 7766TIP3   OH223242   8.205   1.256   3.687
 7766TIP3    H123243   8.268   1.210   3.631
 7766TIP3    H223244   8.215   1.215   3.773
 7767TIP3   OH223245   0.150   7.275   4.080
 7767TIP3    H123246   0.143   7.366   4.050
 7767TIP3    H223247   0.069   7.234   4.049
 7768TIP3   OH223248   2.865   7.449   3.960
 7768TIP3    H123249   2.827   7.431   3.874
 7768TIP3    H223250   2.840   7.374   4.014
 7769TIP3   OH223251   4.333   7.790   2.770
 7769TIP3    H123252   4.246   7.757   2.751
 7769TIP3    H223253   4.342   7.780   2.865
 7770TIP3   OH223254   0.097   1.617   5.557
 7770TIP3    H123255   0.039   1.654   5.490
 7770TIP3    H223256   0.059   1.531   5.576
 7771TIP3   OH223257   6.311   3.698   1.534
 7771TIP3    H123258   6.269   3.710   1.449
 7771TIP3    H223259   6.250   3.736   1.597
 7772TIP3   OH223260   2.708   7.615   2.726
 7772TIP3    H123261   2.675   7.697   2.762
 7772TIP3    H223262   2.658   7.603   2.645
 7773TIP3   OH223263   5.029   3.483   6.034
 7773TIP3    H123264   4.944   3.527   6.042
 7773TIP3    H223265   5.008   3.396   6.003
 7774TIP3   OH223266   6.957   4.499   6.462
 7774TIP3    H123267   7.043   4.536   6.484
 7774TIP3    H223268   6.963   4.478   6.369
 7775TIP3   OH223269   4.817   5.433   4.199
 7775TIP3    H123270   4.858   5.508   4.243
 7775TIP3    H223271   4.785   5.468   4.116
 7776TIP3   OH223272   6.305   4.831   2.381
 7776TIP3    H123273   6.304   4.925   2.360
 7776TIP3    H223274   6.219   4.799   2.354
 7777TIP3   OH223275   6.502   0.061   5.489
 7777TIP3    H123276   6.575   0.112   5.453
 7777TIP3    H223277   6.535  -0.029   5.492
 7778TIP3   OH223278   4.584   5.796   3.596
 7778TIP3    H123279   4.563   5.717   3.546
 7778TIP3    H223280   4.550   5.868   3.542
 7779TIP3   OH223281   5.351   4.133   1.481
 7779TIP3    H123282   5.287   4.189   1.526
 7779TIP3    H223283   5.347   4.050   1.528
 7780TIP3   OH223284   4.324   4.145   3.310
 7780TIP3    H123285   4.417   4.169   3.311
 7780TIP3    H223286   4.285   4.202   3.244
 7781TIP3   OH223287   0.290   4.407   0.401
 7781TIP3    H123288   0.221   4.461   0.440
 7781TIP3    H223289   0.303   4.445   0.314
 7782TIP3   OH223290   6.797   6.427   1.713
 7782TIP3    H123291   6.866   6.361   1.707
 7782TIP3    H223292   6.716   6.377   1.707
 7783TIP3   OH223293   4.085   5.816   4.844
 7783TIP3    H123294   4.026   5.807   4.769
 7783TIP3    H223295   4.170   5.835   4.805
 7784TIP3   OH223296   4.806   7.698   5.563
 7784TIP3    H123297   4.835   7.607   5.572
 7784TIP3    H223298   4.742   7.695   5.492
 7785TIP3   OH223299   3.457   1.617   1.234
 7785TIP3    H123300   3.376   1.642   1.188
 7785TIP3    H223301   3.516   1.691   1.218
 7786TIP3   OH223302   1.288   3.455   1.747
 7786TIP3    H123303   1.258   3.398   1.818
 7786TIP3    H223304   1.383   3.449   1.749
 7787TIP3   OH223305   4.421   5.244   5.961
 7787TIP3    H123306   4.512   5.258   5.936
 7787TIP3    H223307   4.372   5.307   5.908
 7788TIP3   OH223308   4.255   0.692   2.054
 7788TIP3    H123309   4.313   0.636   2.106
 7788TIP3    H223310   4.258   0.655   1.966
 7789TIP3   OH223311   2.832   0.060   0.249
 7789TIP3    H123312   2.807   0.053   0.341
 7789TIP3    H223313   2.893  -0.013   0.235
 7790TIP3   OH223314   1.661   1.885   0.286
 7790TIP3    H123315   1.756   1.879   0.272
 7790TIP3    H223316   1.624   1.889   0.198
 7791TIP3   OH223317   3.559   4.295   3.445
 7791TIP3    H123318   3.559   4.383   3.407
 7791TIP3    H223319   3.565   4.309   3.540
 7792TIP3   OH223320   0.153   1.123   5.415
 7792TIP3    H123321   0.069   1.152   5.380
 7792TIP3    H223322   0.137   1.033   5.444
 7793TIP3   OH223323   1.229   2.634   5.779
 7793TIP3    H123324   1.292   2.658   5.711
 7793TIP3    H223325   1.277   2.574   5.836
 7794TIP3   OH223326   6.575   0.424   1.295
 7794TIP3    H123327   6.591   0.466   1.379
 7794TIP3    H223328   6.535   0.492   1.241
 7795TIP3   OH223329   1.247   7.141   6.197
 7795TIP3    H123330   1.303   7.202   6.149
 7795TIP3    H223331   1.159   7.178   6.187
 7796TIP3   OH223332   7.234   4.261   2.634
 7796TIP3    H123333   7.157   4.204   2.634
 7796TIP3    H223334   7.198   4.349   2.625
 7797TIP3   OH223335   5.590   7.175   1.496
 7797TIP3    H123336   5.566   7.094   1.452
 7797TIP3    H223337   5.649   7.147   1.566
 7798TIP3   OH223338   5.015   5.189   2.145
 7798TIP3    H123339   4.977   5.215   2.061
 7798TIP3    H223340   5.093   5.244   2.154
 7799TIP3   OH223341   6.603   1.424   2.570
 7799TIP3    H123342   6.526   1.453   2.620
 7799TIP3    H223343   6.675   1.477   2.604
 7800TIP3   OH223344   1.464   6.549   0.137
 7800TIP3    H123345   1.557   6.535   0.156
 7800TIP3    H223346   1.419   6.522   0.217
 7801TIP3   OH223347   7.701   1.602   2.114
 7801TIP3    H123348   7.787   1.575   2.083
 7801TIP3    H223349   7.640   1.549   2.062
 7802TIP3   OH223350   7.084   7.749   5.568
 7802TIP3    H123351   7.126   7.834   5.557
 7802TIP3    H223352   7.002   7.768   5.613
 7803TIP3   OH223353   4.297   6.107   2.034
 7803TIP3    H123354   4.231   6.056   1.987
 7803TIP3    H223355   4.271   6.198   2.021
 7804TIP3   OH223356   5.725   5.735   0.102
 7804TIP3    H123357   5.818   5.721   0.084
 7804TIP3    H223358   5.694   5.651   0.135
 7805TIP3   OH223359   6.242   5.574   2.974
 7805TIP3    H123360   6.201   5.638   2.916
 7805TIP3    H223361   6.201   5.587   3.059
 7806TIP3   OH223362   0.210   0.043   3.056
 7806TIP3    H123363   0.294  -0.003   3.067
 7806TIP3    H223364   0.164   0.028   3.139
 7807TIP3   OH223365   0.705   1.840   4.085
 7807TIP3    H123366   0.710   1.749   4.114
 7807TIP3    H223367   0.621   1.871   4.120
 7808TIP3   OH223368   6.069   0.616   1.889
 7808TIP3    H123369   6.120   0.667   1.952
 7808TIP3    H223370   6.134   0.561   1.845
 7809TIP3   OH223371   2.090   3.543   6.757
 7809TIP3    H123372   2.171   3.545   6.706
 7809TIP3    H223373   2.108   3.598   6.833
 7810TIP3   OH223374   7.728   5.035   2.783
 7810TIP3    H123375   7.741   4.945   2.753
 7810TIP3    H223376   7.802   5.051   2.842
 7811TIP3   OH223377   7.101   5.569   4.418
 7811TIP3    H123378   7.048   5.622   4.358
 7811TIP3    H223379   7.046   5.560   4.496
 7812TIP3   OH223380   6.309   3.598   4.411
 7812TIP3    H123381   6.236   3.607   4.349
 7812TIP3    H223382   6.295   3.513   4.452
 7813TIP3   OH223383   3.229   4.531   4.263
 7813TIP3    H123384   3.183   4.476   4.199
 7813TIP3    H223385   3.315   4.491   4.271
 7814TIP3   OH223386   4.001   4.152   0.805
 7814TIP3    H123387   3.919   4.106   0.788
 7814TIP3    H223388   4.011   4.149   0.900
 7815TIP3   OH223389   3.540   3.940   6.165
 7815TIP3    H123390   3.529   4.024   6.121
 7815TIP3    H223391   3.465   3.888   6.135
 7816TIP3   OH223392   5.276   0.815   3.125
 7816TIP3    H123393   5.270   0.719   3.125
 7816TIP3    H223394   5.362   0.834   3.162
 7817TIP3   OH223395   5.280   0.945   2.340
 7817TIP3    H123396   5.302   0.885   2.410
 7817TIP3    H223397   5.185   0.943   2.334
 7818TIP3   OH223398   6.477   7.732   0.923
 7818TIP3    H123399   6.567   7.704   0.941
 7818TIP3    H223400   6.479   7.766   0.834
 7819TIP3   OH223401   4.170   6.895   6.099
 7819TIP3    H123402   4.209   6.934   6.022
 7819TIP3    H223403   4.227   6.920   6.172
 7820TIP3   OH223404   0.843   3.671   3.446
 7820TIP3    H123405   0.847   3.586   3.491
 7820TIP3    H223406   0.914   3.721   3.484
 7821TIP3   OH223407   8.290   1.452   3.245
 7821TIP3    H123408   8.276   1.371   3.195
 7821TIP3    H223409   8.237   1.440   3.324
 7822TIP3   OH223410   4.497   4.341   0.884
 7822TIP3    H123411   4.550   4.416   0.858
 7822TIP3    H223412   4.444   4.322   0.807
 7823TIP3   OH223413   0.904   2.496   1.394
 7823TIP3    H123414   0.816   2.458   1.388
 7823TIP3    H223415   0.943   2.455   1.471
 7824TIP3   OH223416   6.909   2.596   2.855
 7824TIP3    H123417   6.860   2.675   2.877
 7824TIP3    H223418   6.843   2.528   2.844
 7825TIP3   OH223419   6.471   5.826   5.555
 7825TIP3    H123420   6.555   5.868   5.539
 7825TIP3    H223421   6.493   5.736   5.580
 7826TIP3   OH223422   1.541   4.023   1.822
 7826TIP3    H123423   1.455   4.064   1.823
 7826TIP3    H223424   1.582   4.052   1.904
 7827TIP3   OH223425   5.463   6.151   1.655
 7827TIP3    H123426   5.556   6.141   1.677
 7827TIP3    H223427   5.462   6.213   1.583
 7828TIP3   OH223428   7.396   6.828   1.534
 7828TIP3    H123429   7.309   6.789   1.544
 7828TIP3    H223430   7.385   6.891   1.462
 7829TIP3   OH223431   2.942   0.272   0.065
 7829TIP3    H123432   2.898   0.222   0.134
 7829TIP3    H223433   2.945   0.361   0.098
 7830TIP3   OH223434   7.573   5.476   4.900
 7830TIP3    H123435   7.571   5.394   4.950
 7830TIP3    H223436   7.640   5.462   4.834
 7831TIP3   OH223437   3.305   2.540   6.759
 7831TIP3    H123438   3.366   2.467   6.770
 7831TIP3    H223439   3.219   2.498   6.748
 7832TIP3   OH223440   2.566   6.427   6.067
 7832TIP3    H123441   2.571   6.354   6.129
 7832TIP3    H223442   2.631   6.489   6.100
 7833TIP3   OH223443   5.727   5.413   5.083
 7833TIP3    H123444   5.753   5.373   5.166
 7833TIP3    H223445   5.809   5.436   5.039
 7834TIP3   OH223446   7.825   4.186   4.278
 7834TIP3    H123447   7.785   4.272   4.271
 7834TIP3    H223448   7.913   4.203   4.310
 7835TIP3   OH223449   5.125   6.589   0.598
 7835TIP3    H123450   5.184   6.546   0.661
 7835TIP3    H223451   5.154   6.680   0.597
 7836TIP3   OH223452   4.204   5.460   2.965
 7836TIP3    H123453   4.224   5.515   3.040
 7836TIP3    H223454   4.108   5.457   2.963
 7837TIP3   OH223455   4.986   2.494   4.670
 7837TIP3    H123456   4.979   2.586   4.646
 7837TIP3    H223457   5.043   2.456   4.603
 7838TIP3   OH223458   6.496   6.601   6.414
 7838TIP3    H123459   6.539   6.568   6.493
 7838TIP3    H223460   6.453   6.524   6.377
 7839TIP3   OH223461   7.864   5.403   4.425
 7839TIP3    H123462   7.824   5.481   4.387
 7839TIP3    H223463   7.956   5.427   4.439
 7840TIP3   OH223464   1.416   5.116   5.680
 7840TIP3    H123465   1.321   5.111   5.665
 7840TIP3    H223466   1.455   5.102   5.593
 7841TIP3   OH223467   5.344   6.303   5.430
 7841TIP3    H123468   5.256   6.323   5.462
 7841TIP3    H223469   5.348   6.344   5.344
 7842TIP3   OH223470   2.171   5.299   2.163
 7842TIP3    H123471   2.146   5.374   2.217
 7842TIP3    H223472   2.210   5.237   2.224
 7843TIP3   OH223473   6.532   4.145   2.255
 7843TIP3    H123474   6.446   4.153   2.297
 7843TIP3    H223475   6.560   4.056   2.277
 7844TIP3   OH223476   4.331   2.250   0.260
 7844TIP3    H123477   4.370   2.329   0.223
 7844TIP3    H223478   4.247   2.240   0.215
 7845TIP3   OH223479   7.755   0.739   2.928
 7845TIP3    H123480   7.743   0.664   2.870
 7845TIP3    H223481   7.667   0.759   2.961
 7846TIP3   OH223482   7.927   0.078   6.230
 7846TIP3    H123483   7.891   0.018   6.295
 7846TIP3    H223484   7.983   0.137   6.280
 7847TIP3   OH223485   2.455   3.532   4.566
 7847TIP3    H123486   2.379   3.535   4.623
 7847TIP3    H223487   2.426   3.574   4.485
 7848TIP3   OH223488   7.771   0.918   5.784
 7848TIP3    H123489   7.825   0.994   5.762
 7848TIP3    H223490   7.797   0.851   5.721
 7849TIP3   OH223491   2.475   2.724   3.571
 7849TIP3    H123492   2.529   2.725   3.491
 7849TIP3    H223493   2.500   2.642   3.615
 7850TIP3   OH223494   6.715   0.330   2.363
 7850TIP3    H123495   6.742   0.406   2.415
 7850TIP3    H223496   6.623   0.316   2.386
 7851TIP3   OH223497   7.761   6.993   0.892
 7851TIP3    H123498   7.828   7.039   0.943
 7851TIP3    H223499   7.741   7.054   0.821
 7852TIP3   OH223500   1.829   5.048   0.209
 7852TIP3    H123501   1.776   5.051   0.129
 7852TIP3    H223502   1.919   5.060   0.179
 7853TIP3   OH223503   7.070   0.727   0.875
 7853TIP3    H123504   7.009   0.800   0.882
 7853TIP3    H223505   7.124   0.747   0.799
 7854TIP3   OH223506   6.364   2.584   2.886
 7854TIP3    H123507   6.287   2.575   2.941
 7854TIP3    H223508   6.364   2.677   2.860
 7855TIP3   OH223509   5.004   7.138   4.784
 7855TIP3    H123510   5.051   7.107   4.707
 7855TIP3    H223511   4.957   7.061   4.816
 7856TIP3   OH223512   0.981   2.042   3.688
 7856TIP3    H123513   0.924   1.969   3.712
 7856TIP3    H223514   1.069   2.011   3.709
 7857TIP3   OH223515   5.375   2.357   1.108
 7857TIP3    H123516   5.382   2.341   1.202
 7857TIP3    H223517   5.420   2.282   1.068
 7858TIP3   OH223518   0.488   2.325   0.118
 7858TIP3    H123519   0.582   2.338   0.107
 7858TIP3    H223520   0.471   2.354   0.208
 7859TIP3   OH223521   5.816   4.505   5.216
 7859TIP3    H123522   5.824   4.537   5.306
 7859TIP3    H223523   5.747   4.439   5.219
 7860TIP3   OH223524   7.835   1.156   3.863
 7860TIP3    H123525   7.798   1.134   3.948
 7860TIP3    H223526   7.917   1.202   3.884
 7861TIP3   OH223527   1.705   4.158   1.446
 7861TIP3    H123528   1.732   4.203   1.366
 7861TIP3    H223529   1.786   4.135   1.490
 7862TIP3   OH223530   6.530   3.025   0.187
 7862TIP3    H123531   6.624   3.038   0.198
 7862TIP3    H223532   6.512   2.940   0.226
 7863TIP3   OH223533   0.153   3.947   4.595
 7863TIP3    H123534   0.144   4.028   4.645
 7863TIP3    H223535   0.213   3.894   4.647
 7864TIP3   OH223536   1.011   0.206   4.034
 7864TIP3    H123537   1.013   0.147   3.959
 7864TIP3    H223538   1.099   0.243   4.038
 7865TIP3   OH223539   7.083   7.498   2.463
 7865TIP3    H123540   7.083   7.531   2.553
 7865TIP3    H223541   7.142   7.557   2.416
 7866TIP3   OH223542   1.834   3.024   2.171
 7866TIP3    H123543   1.871   2.936   2.164
 7866TIP3    H223544   1.910   3.081   2.187
 7867TIP3   OH223545   7.406   4.570   5.402
 7867TIP3    H123546   7.454   4.635   5.454
 7867TIP3    H223547   7.468   4.498   5.390
 7868TIP3   OH223548   4.261   2.689   1.877
 7868TIP3    H123549   4.216   2.605   1.880
 7868TIP3    H223550   4.353   2.667   1.892
 7869TIP3   OH223551   1.615   0.244   6.642
 7869TIP3    H123552   1.636   0.239   6.735
 7869TIP3    H223553   1.553   0.172   6.627
 7870TIP3   OH223554   6.506   5.742   4.827
 7870TIP3    H123555   6.542   5.820   4.870
 7870TIP3    H223556   6.497   5.678   4.897
 7871TIP3   OH223557   8.183   2.610   3.681
 7871TIP3    H123558   8.094   2.642   3.672
 7871TIP3    H223559   8.181   2.521   3.646
 7872TIP3   OH223560   0.955   7.337   2.020
 7872TIP3    H123561   0.895   7.342   2.094
 7872TIP3    H223562   1.034   7.297   2.056
 7873TIP3   OH223563   3.073   2.040   0.077
 7873TIP3    H123564   3.151   2.084   0.043
 7873TIP3    H223565   3.087   1.947   0.056
 7874TIP3   OH223566   7.595   5.690   5.792
 7874TIP3    H123567   7.686   5.696   5.819
 7874TIP3    H223568   7.591   5.613   5.736
 7875TIP3   OH223569   3.426   6.513   6.032
 7875TIP3    H123570   3.517   6.519   6.062
 7875TIP3    H223571   3.425   6.434   5.978
 7876TIP3   OH223572   2.004   0.229   4.543
 7876TIP3    H123573   1.986   0.312   4.587
 7876TIP3    H223574   1.938   0.169   4.577
 7877TIP3   OH223575   2.368   1.120   4.928
 7877TIP3    H123576   2.433   1.133   4.859
 7877TIP3    H223577   2.372   1.027   4.949
 7878TIP3   OH223578   8.160   2.148   1.743
 7878TIP3    H123579   8.240   2.141   1.795
 7878TIP3    H223580   8.179   2.214   1.677
 7879TIP3   OH223581   4.270   5.150   2.597
 7879TIP3    H123582   4.236   5.239   2.599
 7879TIP3    H223583   4.192   5.095   2.603
 7880TIP3   OH223584   2.404   5.569   4.469
 7880TIP3    H123585   2.404   5.596   4.561
 7880TIP3    H223586   2.468   5.498   4.466
 7881TIP3   OH223587   5.297   5.669   4.190
 7881TIP3    H123588   5.242   5.591   4.193
 7881TIP3    H223589   5.343   5.663   4.106
 7882TIP3   OH223590   3.628   6.474   0.737
 7882TIP3    H123591   3.704   6.417   0.751
 7882TIP3    H223592   3.588   6.442   0.657
 7883TIP3   OH223593   3.312   5.571   0.191
 7883TIP3    H123594   3.308   5.650   0.136
 7883TIP3    H223595   3.282   5.501   0.134
 7884TIP3   OH223596   0.926   3.563   5.292
 7884TIP3    H123597   0.997   3.620   5.265
 7884TIP3    H223598   0.914   3.581   5.385
 7885TIP3   OH223599   1.358   3.745   2.301
 7885TIP3    H123600   1.302   3.819   2.275
 7885TIP3    H223601   1.426   3.742   2.234
 7886TIP3   OH223602   2.798   7.238   1.477
 7886TIP3    H123603   2.871   7.298   1.465
 7886TIP3    H223604   2.742   7.282   1.542
 7887TIP3   OH223605   7.999   0.448   5.275
 7887TIP3    H123606   7.933   0.400   5.325
 7887TIP3    H223607   8.079   0.440   5.327
 7888TIP3   OH223608   7.607   0.344   3.468
 7888TIP3    H123609   7.574   0.268   3.515
 7888TIP3    H223610   7.690   0.365   3.512
 7889TIP3   OH223611   0.600   3.155   1.761
 7889TIP3    H123612   0.617   3.101   1.683
 7889TIP3    H223613   0.625   3.243   1.734
 7890TIP3   OH223614   5.590   3.594   2.421
 7890TIP3    H123615   5.581   3.688   2.407
 7890TIP3    H223616   5.508   3.557   2.388
 7891TIP3   OH223617   4.149   7.268   6.674
 7891TIP3    H123618   4.185   7.342   6.625
 7891TIP3    H223619   4.069   7.303   6.714
 7892TIP3   OH223620   5.239   0.310   3.341
 7892TIP3    H123621   5.205   0.355   3.418
 7892TIP3    H223622   5.266   0.225   3.373
 7893TIP3   OH223623   2.020   3.724   1.316
 7893TIP3    H123624   1.983   3.636   1.312
 7893TIP3    H223625   1.944   3.782   1.313
 7894TIP3   OH223626   5.498   7.386   5.673
 7894TIP3    H123627   5.568   7.337   5.716
 7894TIP3    H223628   5.530   7.476   5.670
 7895TIP3   OH223629   2.735   2.076   5.820
 7895TIP3    H123630   2.753   2.084   5.913
 7895TIP3    H223631   2.813   2.035   5.783
 7896TIP3   OH223632   1.481   0.654   3.319
 7896TIP3    H123633   1.540   0.716   3.362
 7896TIP3    H223634   1.519   0.641   3.232
 7897TIP3   OH223635   0.758   6.365   1.818
 7897TIP3    H123636   0.683   6.317   1.853
 7897TIP3    H223637   0.726   6.455   1.810
 7898TIP3   OH223638   3.627   0.575   6.016
 7898TIP3    H123639   3.715   0.561   6.050
 7898TIP3    H223640   3.588   0.640   6.075
 7899TIP3   OH223641   1.652   2.211   5.765
 7899TIP3    H123642   1.692   2.288   5.806
 7899TIP3    H223643   1.711   2.189   5.692
 7900TIP3   OH223644   0.159   6.060   3.010
 7900TIP3    H123645   0.143   6.004   3.086
 7900TIP3    H223646   0.204   6.004   2.947
 7901TIP3   OH223647   0.898   1.260   3.403
 7901TIP3    H123648   0.822   1.221   3.359
 7901TIP3    H223649   0.963   1.270   3.334
 7902TIP3   OH223650   5.823   2.348   1.522
 7902TIP3    H123651   5.915   2.323   1.532
 7902TIP3    H223652   5.820   2.396   1.439
 7903TIP3   OH223653   3.645   5.777   5.612
 7903TIP3    H123654   3.710   5.754   5.546
 7903TIP3    H223655   3.632   5.871   5.602
 7904TIP3   OH223656   5.193   7.669   2.557
 7904TIP3    H123657   5.174   7.737   2.492
 7904TIP3    H223658   5.108   7.645   2.593
 7905TIP3   OH223659   4.167   0.155   6.721
 7905TIP3    H123660   4.105   0.087   6.695
 7905TIP3    H223661   4.225   0.113   6.784
 7906TIP3   OH223662   2.609   1.725   5.782
 7906TIP3    H123663   2.668   1.740   5.709
 7906TIP3    H223664   2.521   1.726   5.742
 7907TIP3   OH223665   5.286   5.972   2.090
 7907TIP3    H123666   5.213   5.916   2.115
 7907TIP3    H223667   5.306   5.948   1.999
 7908TIP3   OH223668   5.912   1.253   2.913
 7908TIP3    H123669   5.838   1.234   2.854
 7908TIP3    H223670   5.982   1.282   2.855
 7909TIP3   OH223671   5.635   5.300   3.391
 7909TIP3    H123672   5.679   5.233   3.444
 7909TIP3    H223673   5.691   5.377   3.399
 7910TIP3   OH223674   6.837   0.473   2.085
 7910TIP3    H123675   6.918   0.437   2.120
 7910TIP3    H223676   6.789   0.505   2.163
 7911TIP3   OH223677   6.341   6.321   5.905
 7911TIP3    H123678   6.341   6.251   5.971
 7911TIP3    H223679   6.379   6.396   5.950
 7912TIP3   OH223680   4.511   7.675   4.371
 7912TIP3    H123681   4.545   7.764   4.381
 7912TIP3    H223682   4.498   7.665   4.277
 7913TIP3   OH223683   5.060   5.281   6.388
 7913TIP3    H123684   5.149   5.312   6.402
 7913TIP3    H223685   5.068   5.185   6.391
 7914TIP3   OH223686   4.387   7.114   2.998
 7914TIP3    H123687   4.334   7.192   2.988
 7914TIP3    H223688   4.393   7.077   2.910
 7915TIP3   OH223689   0.761   2.239   5.798
 7915TIP3    H123690   0.787   2.158   5.840
 7915TIP3    H223691   0.665   2.242   5.808
 7916TIP3   OH223692   5.869   4.691   2.175
 7916TIP3    H123693   5.807   4.628   2.137
 7916TIP3    H223694   5.855   4.771   2.125
 7917TIP3   OH223695   0.586   5.427   1.596
 7917TIP3    H123696   0.515   5.365   1.585
 7917TIP3    H223697   0.665   5.373   1.602
 7918TIP3   OH223698   2.542   2.214   3.985
 7918TIP3    H123699   2.586   2.130   3.989
 7918TIP3    H223700   2.534   2.241   4.077
 7919TIP3   OH223701   4.585   1.911   4.079
 7919TIP3    H123702   4.537   1.951   4.151
 7919TIP3    H223703   4.525   1.916   4.005
 7920TIP3   OH223704   1.795   1.243   2.683
 7920TIP3    H123705   1.752   1.328   2.681
 7920TIP3    H223706   1.855   1.244   2.608
 7921TIP3   OH223707   3.666   5.785   2.833
 7921TIP3    H123708   3.623   5.726   2.895
 7921TIP3    H223709   3.755   5.795   2.866
 7922TIP3   OH223710   5.741   3.242   1.882
 7922TIP3    H123711   5.791   3.307   1.931
 7922TIP3    H223712   5.654   3.281   1.872
 7923TIP3   OH223713   1.988   7.642   3.801
 7923TIP3    H123714   2.084   7.638   3.797
 7923TIP3    H223715   1.968   7.658   3.893
 7924TIP3   OH223716   1.521   6.618   5.571
 7924TIP3    H123717   1.568   6.567   5.506
 7924TIP3    H223718   1.571   6.700   5.577
 7925TIP3   OH223719   2.367   2.019   0.086
 7925TIP3    H123720   2.322   1.937   0.066
 7925TIP3    H223721   2.327   2.049   0.167
 7926TIP3   OH223722   4.567   5.344   3.730
 7926TIP3    H123723   4.591   5.274   3.790
 7926TIP3    H223724   4.506   5.399   3.780
 7927TIP3   OH223725   3.988   3.289   3.024
 7927TIP3    H123726   3.982   3.371   2.974
 7927TIP3    H223727   4.079   3.262   3.015
 7928TIP3   OH223728   5.639   5.009   3.881
 7928TIP3    H123729   5.651   5.046   3.969
 7928TIP3    H223730   5.598   4.924   3.896
 7929TIP3   OH223731   1.703   6.834   4.189
 7929TIP3    H123732   1.620   6.841   4.143
 7929TIP3    H223733   1.679   6.817   4.280
 7930TIP3   OH223734   4.033   2.021   3.156
 7930TIP3    H123735   4.020   1.926   3.151
 7930TIP3    H223736   4.128   2.033   3.152
 7931TIP3   OH223737   6.659   6.889   6.597
 7931TIP3    H123738   6.638   6.982   6.592
 7931TIP3    H223739   6.594   6.854   6.658
 7932TIP3   OH223740   1.725   0.728   1.016
 7932TIP3    H123741   1.798   0.779   0.983
 7932TIP3    H223742   1.764   0.667   1.079
 7933TIP3   OH223743   6.711   5.752   0.753
 7933TIP3    H123744   6.684   5.732   0.843
 7933TIP3    H223745   6.774   5.824   0.762
 7934TIP3   OH223746   3.524   2.496   6.483
 7934TIP3    H123747   3.496   2.578   6.525
 7934TIP3    H223748   3.505   2.428   6.547
 7935TIP3   OH223749   3.111   6.764   5.912
 7935TIP3    H123750   3.066   6.774   5.996
 7935TIP3    H223751   3.079   6.837   5.859
 7936TIP3   OH223752   1.114   0.132   1.163
 7936TIP3    H123753   1.110   0.172   1.249
 7936TIP3    H223754   1.196   0.083   1.163
 7937TIP3   OH223755   5.692   3.417  -0.033
 7937TIP3    H123756   5.640   3.488   0.004
 7937TIP3    H223757   5.718   3.365   0.043
 7938TIP3   OH223758   5.426   6.342   4.717
 7938TIP3    H123759   5.334   6.331   4.741
 7938TIP3    H223760   5.457   6.252   4.702
 7939TIP3   OH223761   3.509   5.684   3.091
 7939TIP3    H123762   3.477   5.757   3.143
 7939TIP3    H223763   3.429   5.640   3.060
 7940TIP3   OH223764   6.035   2.639   6.358
 7940TIP3    H123765   6.076   2.581   6.422
 7940TIP3    H223766   6.029   2.724   6.402
 7941TIP3   OH223767   6.744   6.343   4.242
 7941TIP3    H123768   6.690   6.288   4.299
 7941TIP3    H223769   6.682   6.378   4.178
 7942TIP3   OH223770   1.069   1.130   0.243
 7942TIP3    H123771   1.132   1.060   0.226
 7942TIP3    H223772   1.107   1.206   0.199
 7943TIP3   OH223773   7.092   5.944   2.683
 7943TIP3    H123774   7.120   6.029   2.650
 7943TIP3    H223775   7.051   5.901   2.608
 7944TIP3   OH223776   3.387   3.460   3.858
 7944TIP3    H123777   3.353   3.523   3.922
 7944TIP3    H223778   3.368   3.375   3.898
 7945TIP3   OH223779   3.470   4.958   0.784
 7945TIP3    H123780   3.440   5.044   0.754
 7945TIP3    H223781   3.499   4.973   0.874
 7946TIP3   OH223782   5.149   6.682   4.044
 7946TIP3    H123783   5.202   6.715   3.971
 7946TIP3    H223784   5.067   6.654   4.004
 7947TIP3   OH223785   4.325   2.168   2.530
 7947TIP3    H123786   4.282   2.116   2.461
 7947TIP3    H223787   4.314   2.116   2.609
 7948TIP3   OH223788   7.601   1.203   5.418
 7948TIP3    H123789   7.635   1.284   5.381
 7948TIP3    H223790   7.512   1.196   5.382
 7949TIP3   OH223791   2.934   0.562   4.232
 7949TIP3    H123792   3.012   0.553   4.287
 7949TIP3    H223793   2.954   0.634   4.172
 7950TIP3   OH223794   1.103   2.378   2.117
 7950TIP3    H123795   1.171   2.445   2.112
 7950TIP3    H223796   1.056   2.385   2.034
 7951TIP3   OH223797   6.481   5.522   1.014
 7951TIP3    H123798   6.423   5.445   1.010
 7951TIP3    H223799   6.422   5.596   1.001
 7952TIP3   OH223800   2.960   1.661   1.815
 7952TIP3    H123801   3.028   1.704   1.762
 7952TIP3    H223802   2.886   1.652   1.755
 7953TIP3   OH223803   7.487   7.002   3.315
 7953TIP3    H123804   7.409   6.949   3.300
 7953TIP3    H223805   7.462   7.064   3.384
 7954TIP3   OH223806   0.223   7.662   0.912
 7954TIP3    H123807   0.217   7.702   0.825
 7954TIP3    H223808   0.190   7.572   0.899
 7955TIP3   OH223809   2.034   7.126   3.737
 7955TIP3    H123810   1.996   7.114   3.651
 7955TIP3    H223811   2.043   7.037   3.773
 7956TIP3   OH223812   3.227   3.175   3.580
 7956TIP3    H123813   3.186   3.192   3.495
 7956TIP3    H223814   3.303   3.121   3.559
 7957TIP3   OH223815   2.813   1.548   6.236
 7957TIP3    H123816   2.824   1.551   6.331
 7957TIP3    H223817   2.759   1.624   6.216
 7958TIP3   OH223818   2.367   6.663   5.847
 7958TIP3    H123819   2.341   6.614   5.925
 7958TIP3    H223820   2.337   6.609   5.774
 7959TIP3   OH223821   5.207   2.224   3.383
 7959TIP3    H123822   5.199   2.274   3.465
 7959TIP3    H223823   5.256   2.282   3.325
 7960TIP3   OH223824   3.292   4.262   2.330
 7960TIP3    H123825   3.256   4.257   2.419
 7960TIP3    H223826   3.237   4.204   2.279
 7961TIP3   OH223827   2.836   4.783   6.278
 7961TIP3    H123828   2.892   4.783   6.200
 7961TIP3    H223829   2.885   4.733   6.343
 7962TIP3   OH223830   5.383   5.360   1.510
 7962TIP3    H123831   5.419   5.303   1.578
 7962TIP3    H223832   5.441   5.436   1.507
 7963TIP3   OH223833   1.447   2.445   1.344
 7963TIP3    H123834   1.358   2.446   1.380
 7963TIP3    H223835   1.504   2.466   1.418
 7964TIP3   OH223836   1.893   1.150   5.997
 7964TIP3    H123837   1.808   1.134   5.957
 7964TIP3    H223838   1.910   1.072   6.050
 7965TIP3   OH223839   4.939   4.434   5.070
 7965TIP3    H123840   4.871   4.386   5.116
 7965TIP3    H223841   4.943   4.519   5.115
 7966TIP3   OH223842   7.054   4.021   2.506
 7966TIP3    H123843   7.030   4.071   2.584
 7966TIP3    H223844   6.972   4.015   2.456
 7967TIP3   OH223845   0.358   2.649   6.581
 7967TIP3    H123846   0.321   2.578   6.634
 7967TIP3    H223847   0.360   2.725   6.640
 7968TIP3   OH223848   2.650   2.903   2.827
 7968TIP3    H123849   2.610   2.816   2.827
 7968TIP3    H223850   2.683   2.914   2.738
 7969TIP3   OH223851   6.074   5.162   4.239
 7969TIP3    H123852   6.026   5.102   4.182
 7969TIP3    H223853   6.143   5.109   4.278
 7970TIP3   OH223854   7.617   2.275   4.259
 7970TIP3    H123855   7.525   2.291   4.281
 7970TIP3    H223856   7.653   2.233   4.337
 7971TIP3   OH223857   6.200   2.965   0.865
 7971TIP3    H123858   6.168   3.038   0.919
 7971TIP3    H223859   6.219   2.895   0.927
 7972TIP3   OH223860   2.731   0.154   1.516
 7972TIP3    H123861   2.638   0.168   1.535
 7972TIP3    H223862   2.766   0.242   1.506
 7973TIP3   OH223863   3.617  -0.016   3.437
 7973TIP3    H123864   3.598   0.043   3.364
 7973TIP3    H223865   3.562   0.015   3.509
 7974TIP3   OH223866   1.276   4.803   4.575
 7974TIP3    H123867   1.239   4.719   4.548
 7974TIP3    H223868   1.334   4.827   4.503
 7975TIP3   OH223869   2.211   1.403   6.512
 7975TIP3    H123870   2.209   1.312   6.543
 7975TIP3    H223871   2.299   1.415   6.476
 7976TIP3   OH223872   0.269   0.607   1.913
 7976TIP3    H123873   0.343   0.547   1.926
 7976TIP3    H223874   0.264   0.657   1.994
 7977TIP3   OH223875   6.709   5.884   1.932
 7977TIP3    H123876   6.696   5.979   1.929
 7977TIP3    H223877   6.660   5.856   2.008
 7978TIP3   OH223878   5.444   2.128   3.831
 7978TIP3    H123879   5.376   2.188   3.801
 7978TIP3    H223880   5.440   2.054   3.770
 7979TIP3   OH223881   5.053   2.303   4.322
 7979TIP3    H123882   4.966   2.275   4.350
 7979TIP3    H223883   5.077   2.371   4.385
 7980TIP3   OH223884   7.468   4.074   1.274
 7980TIP3    H123885   7.525   4.081   1.351
 7980TIP3    H223886   7.518   4.115   1.203
 7981TIP3   OH223887   6.159   3.771   5.672
 7981TIP3    H123888   6.190   3.785   5.583
 7981TIP3    H223889   6.065   3.758   5.663
 7982TIP3   OH223890   6.785   2.447   2.059
 7982TIP3    H123891   6.768   2.357   2.084
 7982TIP3    H223892   6.876   2.448   2.030
 7983TIP3   OH223893   7.201   3.948   0.384
 7983TIP3    H123894   7.154   3.910   0.458
 7983TIP3    H223895   7.292   3.919   0.395
 7984TIP3   OH223896   4.533   6.472   2.949
 7984TIP3    H123897   4.484   6.431   3.021
 7984TIP3    H223898   4.493   6.437   2.870
 7985TIP3   OH223899   2.514   6.508   2.092
 7985TIP3    H123900   2.532   6.430   2.143
 7985TIP3    H223901   2.448   6.555   2.142
 7986TIP3   OH223902   7.695   1.540   0.529
 7986TIP3    H123903   7.730   1.581   0.450
 7986TIP3    H223904   7.699   1.609   0.596
 7987TIP3   OH223905   6.576   1.477   0.717
 7987TIP3    H123906   6.542   1.529   0.790
 7987TIP3    H223907   6.609   1.542   0.655
 7988TIP3   OH223908   2.351   0.380   5.920
 7988TIP3    H123909   2.405   0.304   5.897
 7988TIP3    H223910   2.289   0.388   5.848
 7989TIP3   OH223911   5.824   2.369   0.020
 7989TIP3    H123912   5.858   2.396  -0.066
 7989TIP3    H223913   5.893   2.313   0.056
 7990TIP3   OH223914   3.351   1.474   5.759
 7990TIP3    H123915   3.353   1.526   5.839
 7990TIP3    H223916   3.408   1.521   5.699
 7991TIP3   OH223917   0.276   3.397   4.099
 7991TIP3    H123918   0.252   3.307   4.117
 7991TIP3    H223919   0.263   3.408   4.005
 7992TIP3   OH223920   6.560   7.360   4.624
 7992TIP3    H123921   6.655   7.353   4.610
 7992TIP3    H223922   6.529   7.269   4.621
 7993TIP3   OH223923   4.947   1.571   4.146
 7993TIP3    H123924   4.898   1.634   4.094
 7993TIP3    H223925   4.941   1.603   4.236
 7994TIP3   OH223926   2.516   6.651   3.806
 7994TIP3    H123927   2.523   6.746   3.818
 7994TIP3    H223928   2.424   6.632   3.824
 7995TIP3   OH223929   6.547   2.619   4.869
 7995TIP3    H123930   6.609   2.672   4.818
 7995TIP3    H223931   6.561   2.530   4.837
 7996TIP3   OH223932   4.586   3.445   2.117
 7996TIP3    H123933   4.602   3.513   2.182
 7996TIP3    H223934   4.511   3.395   2.152
 7997TIP3   OH223935   8.137   2.657   4.282
 7997TIP3    H123936   8.112   2.715   4.354
 7997TIP3    H223937   8.066   2.592   4.279
 7998TIP3   OH223938   3.257   0.658   4.834
 7998TIP3    H123939   3.202   0.733   4.857
 7998TIP3    H223940   3.345   0.694   4.824
 7999TIP3   OH223941   6.423   2.145   1.744
 7999TIP3    H123942   6.425   2.233   1.781
 7999TIP3    H223943   6.497   2.143   1.683
 8000TIP3   OH223944   3.307   5.682   5.346
 8000TIP3    H123945   3.293   5.599   5.301
 8000TIP3    H223946   3.228   5.733   5.328
 8001TIP3   OH223947   1.914   0.450   3.017
 8001TIP3    H123948   1.973   0.526   3.009
 8001TIP3    H223949   1.900   0.442   3.111
 8002TIP3   OH223950   3.417   0.516   5.052
 8002TIP3    H123951   3.381   0.544   4.968
 8002TIP3    H223952   3.378   0.430   5.067
 8003TIP3   OH223953   7.192   5.118   5.840
 8003TIP3    H123954   7.153   5.080   5.762
 8003TIP3    H223955   7.286   5.113   5.825
 8004TIP3   OH223956   7.665   3.215   3.914
 8004TIP3    H123957   7.697   3.173   3.834
 8004TIP3    H223958   7.696   3.158   3.985
 8005TIP3   OH223959   1.400   1.028   0.201
 8005TIP3    H123960   1.423   1.071   0.283
 8005TIP3    H223961   1.377   0.939   0.225
 8006TIP3   OH223962   7.409   7.342   4.355
 8006TIP3    H123963   7.364   7.342   4.439
 8006TIP3    H223964   7.399   7.432   4.322
 8007TIP3   OH223965   2.123   7.069   4.099
 8007TIP3    H123966   2.072   7.148   4.088
 8007TIP3    H223967   2.203   7.084   4.047
 8008TIP3   OH223968   0.876   5.919   3.902
 8008TIP3    H123969   0.805   5.909   3.965
 8008TIP3    H223970   0.877   6.013   3.882
 8009TIP3   OH223971   5.034   1.061   0.807
 8009TIP3    H123972   5.036   0.968   0.784
 8009TIP3    H223973   5.016   1.062   0.901
 8010TIP3   OH223974   7.630   0.392   4.826
 8010TIP3    H123975   7.651   0.353   4.741
 8010TIP3    H223976   7.706   0.370   4.881
 8011TIP3   OH223977   4.149   4.539   6.122
 8011TIP3    H123978   4.080   4.583   6.071
 8011TIP3    H223979   4.111   4.527   6.209
 8012TIP3   OH223980   3.382   4.437   2.573
 8012TIP3    H123981   3.360   4.433   2.480
 8012TIP3    H223982   3.383   4.531   2.593
 8013TIP3   OH223983   6.555   1.397   5.824
 8013TIP3    H123984   6.467   1.434   5.825
 8013TIP3    H223985   6.558   1.341   5.747
 8014TIP3   OH223986   6.067   5.260   5.819
 8014TIP3    H123987   6.126   5.294   5.752
 8014TIP3    H223988   6.125   5.226   5.887
 8015TIP3   OH223989   7.075   4.744   3.463
 8015TIP3    H123990   7.106   4.686   3.532
 8015TIP3    H223991   7.148   4.804   3.448
 8016TIP3   OH223992   3.611   2.992   3.218
 8016TIP3    H123993   3.676   2.984   3.149
 8016TIP3    H223994   3.599   2.903   3.251
 8017TIP3   OH223995   5.654   5.458   0.155
 8017TIP3    H123996   5.603   5.425   0.081
 8017TIP3    H223997   5.734   5.405   0.154
 8018TIP3   OH223998   0.809   0.201   3.829
 8018TIP3    H123999   0.756   0.179   3.905
 8018TIP3    H224000   0.872   0.129   3.823
 8019TIP3   OH224001   2.656   5.147   4.704
 8019TIP3    H124002   2.721   5.155   4.773
 8019TIP3    H224003   2.663   5.056   4.674
 8020TIP3   OH224004   3.433   2.120   5.582
 8020TIP3    H124005   3.475   2.195   5.540
 8020TIP3    H224006   3.497   2.049   5.575
 8021TIP3   OH224007   3.664   0.955   4.019
 8021TIP3    H124008   3.750   0.926   3.988
 8021TIP3    H224009   3.610   0.876   4.018
 8022TIP3   OH224010   4.319   1.053   5.066
 8022TIP3    H124011   4.343   0.989   5.133
 8022TIP3    H224012   4.361   1.134   5.094
 8023TIP3   OH224013   7.680   5.847   3.269
 8023TIP3    H124014   7.706   5.795   3.345
 8023TIP3    H224015   7.609   5.903   3.302
 8024TIP3   OH224016   3.445   4.185   0.773
 8024TIP3    H124017   3.523   4.233   0.800
 8024TIP3    H224018   3.472   4.094   0.773
 8025TIP3   OH224019   2.794   1.533   4.746
 8025TIP3    H124020   2.837   1.451   4.773
 8025TIP3    H224021   2.813   1.540   4.653
 8026TIP3   OH224022   1.729   4.172   3.540
 8026TIP3    H124023   1.728   4.267   3.543
 8026TIP3    H224024   1.767   4.145   3.624
 8027TIP3   OH224025   1.824   4.591   3.758
 8027TIP3    H124026   1.734   4.566   3.782
 8027TIP3    H224027   1.870   4.508   3.750
 8028TIP3   OH224028   0.995   2.684   0.518
 8028TIP3    H124029   0.914   2.734   0.533
 8028TIP3    H224030   1.043   2.735   0.453
 8029TIP3   OH224031   0.789   0.484   1.771
 8029TIP3    H124032   0.756   0.502   1.683
 8029TIP3    H224033   0.793   0.388   1.776
 8030TIP3   OH224034   6.116   1.263   2.466
 8030TIP3    H124035   6.105   1.318   2.389
 8030TIP3    H224036   6.197   1.215   2.449
 8031TIP3   OH224037   1.839   5.375   0.347
 8031TIP3    H124038   1.877   5.298   0.388
 8031TIP3    H224039   1.774   5.407   0.409
 8032TIP3   OH224040   8.061   2.381   3.282
 8032TIP3    H124041   8.137   2.354   3.230
 8032TIP3    H224042   8.047   2.473   3.259
 8033TIP3   OH224043   4.563   5.674   0.264
 8033TIP3    H124044   4.625   5.721   0.320
 8033TIP3    H224045   4.479   5.682   0.309
 8034TIP3   OH224046   2.900   7.402   4.676
 8034TIP3    H124047   2.985   7.389   4.719
 8034TIP3    H224048   2.869   7.486   4.710
 8035TIP3   OH224049   4.993   6.976   1.013
 8035TIP3    H124050   4.989   6.976   1.109
 8035TIP3    H224051   4.926   6.913   0.986
 8036TIP3   OH224052   4.115   2.404   6.306
 8036TIP3    H124053   4.108   2.500   6.300
 8036TIP3    H224054   4.205   2.388   6.333
 8037TIP3   OH224055   2.217   2.897   6.349
 8037TIP3    H124056   2.298   2.866   6.390
 8037TIP3    H224057   2.153   2.829   6.368
 8038TIP3   OH224058   2.421   4.939   1.050
 8038TIP3    H124059   2.496   4.948   1.108
 8038TIP3    H224060   2.405   4.844   1.045
 8039TIP3   OH224061   0.225   2.790   3.535
 8039TIP3    H124062   0.154   2.753   3.587
 8039TIP3    H224063   0.293   2.812   3.598
 8040TIP3   OH224064   8.125   3.403   1.064
 8040TIP3    H124065   8.056   3.462   1.032
 8040TIP3    H224066   8.206   3.449   1.042
 8041TIP3   OH224067   6.602   1.426   4.069
 8041TIP3    H124068   6.587   1.333   4.055
 8041TIP3    H224069   6.520   1.468   4.044
 8042TIP3   OH224070   1.637   1.709   3.627
 8042TIP3    H124071   1.653   1.803   3.624
 8042TIP3    H224072   1.724   1.670   3.619
 8043TIP3   OH224073   4.171   1.866   0.605
 8043TIP3    H124074   4.094   1.820   0.572
 8043TIP3    H224075   4.172   1.948   0.556
 8044TIP3   OH224076   1.125   3.274   1.252
 8044TIP3    H124077   1.108   3.304   1.162
 8044TIP3    H224078   1.209   3.230   1.248
 8045TIP3   OH224079   3.987   5.388   5.891
 8045TIP3    H124080   3.928   5.463   5.894
 8045TIP3    H224081   3.995   5.360   5.983
 8046TIP3   OH224082   2.454   6.838   4.502
 8046TIP3    H124083   2.524   6.804   4.559
 8046TIP3    H224084   2.393   6.881   4.562
 8047TIP3   OH224085   3.518   5.733   3.476
 8047TIP3    H124086   3.527   5.811   3.421
 8047TIP3    H224087   3.429   5.703   3.459
 8048TIP3   OH224088   4.065   6.590   2.382
 8048TIP3    H124089   4.099   6.679   2.378
 8048TIP3    H224090   4.059   6.571   2.475
 8049TIP3   OH224091   5.857   2.658   1.013
 8049TIP3    H124092   5.806   2.631   0.936
 8049TIP3    H224093   5.906   2.734   0.983
 8050TIP3   OH224094   7.921   3.353   3.947
 8050TIP3    H124095   7.842   3.299   3.959
 8050TIP3    H224096   7.944   3.340   3.855
 8051TIP3   OH224097   0.788   6.713   6.429
 8051TIP3    H124098   0.823   6.625   6.413
 8051TIP3    H224099   0.758   6.743   6.343
 8052TIP3   OH224100   8.193   3.227   2.947
 8052TIP3    H124101   8.147   3.173   3.011
 8052TIP3    H224102   8.245   3.165   2.895
 8053TIP3   OH224103   6.397   0.387   6.445
 8053TIP3    H124104   6.489   0.387   6.473
 8053TIP3    H224105   6.351   0.432   6.515
 8054TIP3   OH224106   3.041   0.663   0.336
 8054TIP3    H124107   2.995   0.688   0.416
 8054TIP3    H224108   3.075   0.746   0.301
 8055TIP3   OH224109   6.222   5.923   2.405
 8055TIP3    H124110   6.257   5.842   2.367
 8055TIP3    H224111   6.227   5.986   2.334
 8056TIP3   OH224112   4.965   2.375   2.090
 8056TIP3    H124113   5.054   2.348   2.065
 8056TIP3    H224114   4.923   2.293   2.117
 8057TIP3   OH224115   2.954   1.479   6.023
 8057TIP3    H124116   2.906   1.463   6.104
 8057TIP3    H224117   3.020   1.410   6.020
 8058TIP3   OH224118   5.814   1.129   0.232
 8058TIP3    H124119   5.907   1.148   0.224
 8058TIP3    H224120   5.808   1.063   0.300
 8059TIP3   OH224121   1.792   0.345   4.159
 8059TIP3    H124122   1.800   0.279   4.091
 8059TIP3    H224123   1.726   0.406   4.125
 8060TIP3   OH224124   6.659   1.992   3.787
 8060TIP3    H124125   6.612   1.909   3.797
 8060TIP3    H224126   6.711   2.001   3.866
 8061TIP3   OH224127   5.792   3.646   3.380
 8061TIP3    H124128   5.754   3.559   3.391
 8061TIP3    H224129   5.820   3.671   3.468
 8062TIP3   OH224130   5.121   2.897   6.752
 8062TIP3    H124131   5.148   2.989   6.744
 8062TIP3    H224132   5.172   2.852   6.685
 8063TIP3   OH224133   5.487   1.062   5.498
 8063TIP3    H124134   5.440   1.028   5.421
 8063TIP3    H224135   5.576   1.029   5.488
 8064TIP3   OH224136   7.187   6.186   0.914
 8064TIP3    H124137   7.171   6.107   0.863
 8064TIP3    H224138   7.281   6.204   0.903
 8065TIP3   OH224139   8.159   7.459   5.836
 8065TIP3    H124140   8.092   7.524   5.818
 8065TIP3    H224141   8.201   7.443   5.751
 8066TIP3   OH224142   6.266   3.974   1.670
 8066TIP3    H124143   6.332   3.990   1.602
 8066TIP3    H224144   6.253   4.059   1.711
 8067TIP3   OH224145   2.206   2.613   1.619
 8067TIP3    H124146   2.201   2.536   1.562
 8067TIP3    H224147   2.158   2.588   1.697
 8068TIP3   OH224148   7.674   1.667   4.179
 8068TIP3    H124149   7.669   1.585   4.228
 8068TIP3    H224150   7.736   1.721   4.229
 8069TIP3   OH224151   5.301   1.341   3.248
 8069TIP3    H124152   5.287   1.261   3.197
 8069TIP3    H224153   5.379   1.381   3.208
 8070TIP3   OH224154   1.104   2.556   1.903
 8070TIP3    H124155   1.084   2.615   1.831
 8070TIP3    H224156   1.019   2.535   1.942
 8071TIP3   OH224157   3.019   5.286   0.697
 8071TIP3    H124158   2.995   5.194   0.711
 8071TIP3    H224159   2.958   5.335   0.751
 8072TIP3   OH224160   1.357   0.329   2.967
 8072TIP3    H124161   1.352   0.274   3.045
 8072TIP3    H224162   1.348   0.418   3.000
 8073TIP3   OH224163   3.135   3.820   2.835
 8073TIP3    H124164   3.194   3.842   2.764
 8073TIP3    H224165   3.180   3.752   2.884
 8074TIP3   OH224166   0.072   1.332   2.535
 8074TIP3    H124167   0.033   1.323   2.622
 8074TIP3    H224168   0.073   1.242   2.500
 8075TIP3   OH224169   7.279   4.529   1.341
 8075TIP3    H124170   7.242   4.510   1.256
 8075TIP3    H224171   7.309   4.444   1.374
 8076TIP3   OH224172   3.119   7.613   0.183
 8076TIP3    H124173   3.110   7.705   0.208
 8076TIP3    H224174   3.077   7.565   0.255
 8077TIP3   OH224175   2.319   1.125   0.182
 8077TIP3    H124176   2.314   1.034   0.155
 8077TIP3    H224177   2.242   1.139   0.237
 8078TIP3   OH224178   6.835   6.710   3.464
 8078TIP3    H124179   6.863   6.633   3.414
 8078TIP3    H224180   6.896   6.713   3.538
 8079TIP3   OH224181   1.718   1.330   0.303
 8079TIP3    H124182   1.737   1.345   0.210
 8079TIP3    H224183   1.738   1.238   0.317
 8080TIP3   OH224184   4.423   2.736   1.560
 8080TIP3    H124185   4.439   2.805   1.625
 8080TIP3    H224186   4.415   2.656   1.612
 8081TIP3   OH224187   6.247   7.240   0.239
 8081TIP3    H124188   6.226   7.232   0.146
 8081TIP3    H224189   6.229   7.331   0.261
 8082TIP3   OH224190   1.334   3.467   1.080
 8082TIP3    H124191   1.285   3.395   1.042
 8082TIP3    H224192   1.416   3.427   1.110
 8083TIP3   OH224193   4.804   1.247   0.176
 8083TIP3    H124194   4.722   1.290   0.202
 8083TIP3    H224195   4.777   1.172   0.124
 8084TIP3   OH224196   4.489   6.002   3.462
 8084TIP3    H124197   4.544   6.079   3.475
 8084TIP3    H224198   4.423   6.030   3.398
 8085TIP3   OH224199   7.060   0.054   4.419
 8085TIP3    H124200   7.102  -0.027   4.446
 8085TIP3    H224201   7.021   0.089   4.500
 8086TIP3   OH224202   2.942   0.834   3.544
 8086TIP3    H124203   3.033   0.847   3.518
 8086TIP3    H224204   2.938   0.743   3.573
 8087TIP3   OH224205   3.698   1.162   5.501
 8087TIP3    H124206   3.679   1.069   5.487
 8087TIP3    H224207   3.620   1.197   5.542
 8088TIP3   OH224208   5.616   4.833   5.474
 8088TIP3    H124209   5.686   4.884   5.434
 8088TIP3    H224210   5.576   4.891   5.538
 8089TIP3   OH224211   1.572   6.669   1.977
 8089TIP3    H124212   1.516   6.646   2.051
 8089TIP3    H224213   1.537   6.752   1.946
 8090TIP3   OH224214   3.259   6.208   2.972
 8090TIP3    H124215   3.266   6.176   2.882
 8090TIP3    H224216   3.347   6.198   3.007
 8091TIP3   OH224217   4.952   2.426   0.888
 8091TIP3    H124218   4.868   2.472   0.891
 8091TIP3    H224219   4.986   2.433   0.977
 8092TIP3   OH224220   2.309   2.038   6.629
 8092TIP3    H124221   2.323   2.096   6.703
 8092TIP3    H224222   2.396   2.001   6.611
 8093TIP3   OH224223   4.917   1.335   0.901
 8093TIP3    H124224   4.917   1.404   0.835
 8093TIP3    H224225   4.922   1.253   0.851
 8094TIP3   OH224226   1.476   2.610   3.248
 8094TIP3    H124227   1.491   2.550   3.321
 8094TIP3    H224228   1.468   2.696   3.288
 8095TIP3   OH224229   5.325   5.388   2.545
 8095TIP3    H124230   5.343   5.365   2.454
 8095TIP3    H224231   5.406   5.365   2.591
 8096TIP3   OH224232   5.541   2.292   0.682
 8096TIP3    H124233   5.536   2.381   0.649
 8096TIP3    H224234   5.633   2.281   0.709
 8097TIP3   OH224235   7.353   2.337   6.567
 8097TIP3    H124236   7.287   2.379   6.511
 8097TIP3    H224237   7.430   2.329   6.511
 8098TIP3   OH224238   8.171   0.492   6.514
 8098TIP3    H124239   8.234   0.504   6.443
 8098TIP3    H224240   8.221   0.449   6.583
 8099TIP3   OH224241   6.105   2.783   2.840
 8099TIP3    H124242   6.042   2.757   2.907
 8099TIP3    H224243   6.109   2.707   2.781
 8100TIP3   OH224244   2.917   2.644   6.622
 8100TIP3    H124245   2.866   2.721   6.649
 8100TIP3    H224246   2.922   2.590   6.701
 8101TIP3   OH224247   7.041   4.155   5.923
 8101TIP3    H124248   7.035   4.251   5.923
 8101TIP3    H224249   6.967   4.127   5.869
 8102TIP3   OH224250   5.207   4.364   4.274
 8102TIP3    H124251   5.147   4.315   4.331
 8102TIP3    H224252   5.288   4.370   4.325
 8103TIP3   OH224253   7.108   0.143   5.451
 8103TIP3    H124254   7.087   0.050   5.458
 8103TIP3    H224255   7.077   0.169   5.364
 8104TIP3   OH224256   7.239   6.243   4.129
 8104TIP3    H124257   7.243   6.334   4.156
 8104TIP3    H224258   7.198   6.244   4.043
 8105TIP3   OH224259   2.307   4.837   2.620
 8105TIP3    H124260   2.306   4.920   2.571
 8105TIP3    H224261   2.338   4.862   2.708
 8106TIP3   OH224262   1.787   5.669   6.439
 8106TIP3    H124263   1.721   5.599   6.435
 8106TIP3    H224264   1.746   5.743   6.394
 8107TIP3   OH224265   2.544   1.335   4.769
 8107TIP3    H124266   2.636   1.357   4.759
 8107TIP3    H224267   2.506   1.409   4.816
 8108TIP3   OH224268   7.606   7.505   3.880
 8108TIP3    H124269   7.592   7.454   3.960
 8108TIP3    H224270   7.584   7.445   3.809
 8109TIP3   OH224271   2.213   6.317   1.663
 8109TIP3    H124272   2.203   6.299   1.757
 8109TIP3    H224273   2.138   6.275   1.622
 8110TIP3   OH224274   7.580   2.202   0.422
 8110TIP3    H124275   7.490   2.231   0.405
 8110TIP3    H224276   7.596   2.135   0.356
 8111TIP3   OH224277   7.308   1.033   5.858
 8111TIP3    H124278   7.308   0.948   5.902
 8111TIP3    H224279   7.333   1.095   5.927
 8112TIP3   OH224280   8.259   5.993   5.742
 8112TIP3    H124281   8.329   5.928   5.741
 8112TIP3    H224282   8.248   6.016   5.834
 8113TIP3   OH224283   5.702   4.298   0.321
 8113TIP3    H124284   5.696   4.203   0.314
 8113TIP3    H224285   5.626   4.331   0.272
 8114TIP3   OH224286   0.486   0.664   6.178
 8114TIP3    H124287   0.413   0.615   6.139
 8114TIP3    H224288   0.563   0.611   6.160
 8115TIP3   OH224289   4.978   0.260   4.317
 8115TIP3    H124290   4.883   0.252   4.319
 8115TIP3    H224291   4.997   0.315   4.241
 8116TIP3   OH224292   0.060   3.193   6.494
 8116TIP3    H124293   0.045   3.286   6.474
 8116TIP3    H224294   0.028   3.147   6.417
 8117TIP3   OH224295   5.425   3.140   3.408
 8117TIP3    H124296   5.371   3.217   3.424
 8117TIP3    H224297   5.366   3.066   3.420
 8118TIP3   OH224298   6.303   7.659   2.632
 8118TIP3    H124299   6.384   7.661   2.581
 8118TIP3    H224300   6.261   7.743   2.614
 8119TIP3   OH224301   1.533   3.909   3.721
 8119TIP3    H124302   1.505   3.830   3.675
 8119TIP3    H224303   1.542   3.882   3.812
 8120TIP3   OH224304   1.255   5.626   2.186
 8120TIP3    H124305   1.332   5.679   2.204
 8120TIP3    H224306   1.254   5.617   2.091
 8121TIP3   OH224307   4.441   0.772   0.526
 8121TIP3    H124308   4.395   0.828   0.588
 8121TIP3    H224309   4.403   0.793   0.441
 8122TIP3   OH224310   6.538   5.130   4.284
 8122TIP3    H124311   6.501   5.218   4.291
 8122TIP3    H224312   6.592   5.121   4.363
 8123TIP3   OH224313   1.766   4.922   3.675
 8123TIP3    H124314   1.742   4.907   3.767
 8123TIP3    H224315   1.709   4.863   3.626
 8124TIP3   OH224316   6.258   1.413   5.618
 8124TIP3    H124317   6.170   1.414   5.580
 8124TIP3    H224318   6.315   1.388   5.545
 8125TIP3   OH224319   7.869   2.140   4.730
 8125TIP3    H124320   7.927   2.070   4.760
 8125TIP3    H224321   7.813   2.158   4.806
 8126TIP3   OH224322   3.165   7.727   4.289
 8126TIP3    H124323   3.131   7.682   4.211
 8126TIP3    H224324   3.096   7.790   4.312
 8127TIP3   OH224325   5.161   2.772   2.026
 8127TIP3    H124326   5.177   2.855   1.980
 8127TIP3    H224327   5.170   2.705   1.958
 8128TIP3   OH224328   2.927   5.596   1.352
 8128TIP3    H124329   2.998   5.635   1.300
 8128TIP3    H224330   2.953   5.505   1.364
 8129TIP3   OH224331   5.539   0.212   6.754
 8129TIP3    H124332   5.543   0.305   6.733
 8129TIP3    H224333   5.448   0.197   6.779
 8130TIP3   OH224334   7.367   2.332   2.571
 8130TIP3    H124335   7.316   2.408   2.599
 8130TIP3    H224336   7.452   2.368   2.545
 8131TIP3   OH224337   7.011   0.859   4.211
 8131TIP3    H124338   6.988   0.773   4.247
 8131TIP3    H224339   6.983   0.921   4.278
 8132TIP3   OH224340   0.008   4.548   6.203
 8132TIP3    H124341  -0.047   4.536   6.280
 8132TIP3    H224342   0.082   4.489   6.217
 8133TIP3   OH224343   1.509   5.356   1.641
 8133TIP3    H124344   1.589   5.408   1.653
 8133TIP3    H224345   1.540   5.271   1.610
 8134TIP3   OH224346   2.936   2.313   3.309
 8134TIP3    H124347   2.993   2.366   3.252
 8134TIP3    H224348   2.970   2.224   3.301
 8135TIP3   OH224349   0.237   7.153   4.792
 8135TIP3    H124350   0.159   7.157   4.737
 8135TIP3    H224351   0.242   7.239   4.833
 8136TIP3   OH224352   2.920   2.648   1.051
 8136TIP3    H124353   2.906   2.729   1.003
 8136TIP3    H224354   2.865   2.584   1.006
 8137TIP3   OH224355   1.867   3.025   5.962
 8137TIP3    H124356   1.960   3.020   5.939
 8137TIP3    H224357   1.835   2.936   5.951
 8138TIP3   OH224358   7.389   2.611   3.585
 8138TIP3    H124359   7.426   2.554   3.517
 8138TIP3    H224360   7.375   2.554   3.660
 8139TIP3   OH224361   1.916   0.702   4.241
 8139TIP3    H124362   1.995   0.754   4.253
 8139TIP3    H224363   1.890   0.677   4.330
 8140TIP3   OH224364   1.505   4.686   1.720
 8140TIP3    H124365   1.590   4.709   1.756
 8140TIP3    H224366   1.506   4.590   1.715
 8141TIP3   OH224367   2.981   6.389   2.655
 8141TIP3    H124368   2.992   6.316   2.716
 8141TIP3    H224369   2.912   6.443   2.694
 8142TIP3   OH224370   4.152   4.698   5.277
 8142TIP3    H124371   4.145   4.619   5.332
 8142TIP3    H224372   4.247   4.712   5.269
 8143TIP3   OH224373   3.631   0.318   2.177
 8143TIP3    H124374   3.610   0.384   2.111
 8143TIP3    H224375   3.574   0.244   2.156
 8144TIP3   OH224376   0.815   1.353   0.499
 8144TIP3    H124377   0.753   1.308   0.442
 8144TIP3    H224378   0.897   1.305   0.488
 8145TIP3   OH224379   4.081   3.379   2.329
 8145TIP3    H124380   4.097   3.307   2.268
 8145TIP3    H224381   4.040   3.447   2.276
 8146TIP3   OH224382   7.868   5.324   4.933
 8146TIP3    H124383   7.847   5.417   4.941
 8146TIP3    H224384   7.874   5.309   4.839
 8147TIP3   OH224385   0.926   4.586   0.347
 8147TIP3    H124386   0.898   4.585   0.256
 8147TIP3    H224387   1.000   4.648   0.349
 8148TIP3   OH224388   4.754   2.793   1.616
 8148TIP3    H124389   4.786   2.729   1.681
 8148TIP3    H224390   4.829   2.852   1.603
 8149TIP3   OH224391   1.451   4.492   5.016
 8149TIP3    H124392   1.534   4.481   5.064
 8149TIP3    H224393   1.467   4.567   4.959
 8150TIP3   OH224394   2.498   4.406   3.949
 8150TIP3    H124395   2.405   4.391   3.965
 8150TIP3    H224396   2.512   4.374   3.859
 8151TIP3   OH224397   2.648   2.570   3.375
 8151TIP3    H124398   2.714   2.559   3.443
 8151TIP3    H224399   2.696   2.602   3.299
 8152TIP3   OH224400   3.863   6.816   4.219
 8152TIP3    H124401   3.819   6.739   4.255
 8152TIP3    H224402   3.827   6.889   4.269
 8153TIP3   OH224403   0.184   6.925   4.349
 8153TIP3    H124404   0.250   6.991   4.370
 8153TIP3    H224405   0.186   6.864   4.423
 8154TIP3   OH224406   0.364   7.113   0.889
 8154TIP3    H124407   0.395   7.139   0.802
 8154TIP3    H224408   0.402   7.027   0.903
 8155TIP3   OH224409   7.569   4.482   3.786
 8155TIP3    H124410   7.578   4.556   3.845
 8155TIP3    H224411   7.487   4.440   3.812
 8156TIP3   OH224412   5.610   0.110   0.467
 8156TIP3    H124413   5.666   0.098   0.544
 8156TIP3    H224414   5.654   0.179   0.416
 8157TIP3   OH224415   7.934   0.013   0.613
 8157TIP3    H124416   8.022   0.023   0.650
 8157TIP3    H224417   7.920   0.094   0.563
 8158TIP3   OH224418   5.825   5.035   1.157
 8158TIP3    H124419   5.841   5.086   1.236
 8158TIP3    H224420   5.827   5.099   1.086
 8159TIP3   OH224421   7.953   6.885   4.982
 8159TIP3    H124422   7.978   6.974   4.957
 8159TIP3    H224423   7.920   6.893   5.072
 8160TIP3   OH224424   0.359   0.433   3.526
 8160TIP3    H124425   0.264   0.428   3.530
 8160TIP3    H224426   0.377   0.511   3.475
 8161TIP3   OH224427   6.262   6.475   4.599
 8161TIP3    H124428   6.205   6.429   4.538
 8161TIP3    H224429   6.217   6.471   4.683
 8162TIP3   OH224430   5.540   1.201   3.840
 8162TIP3    H124431   5.548   1.106   3.849
 8162TIP3    H224432   5.553   1.216   3.746
 8163TIP3   OH224433   0.953   0.999   0.845
 8163TIP3    H124434   0.982   1.010   0.935
 8163TIP3    H224435   0.903   1.078   0.826
 8164TIP3   OH224436   6.437   7.028   3.620
 8164TIP3    H124437   6.511   7.038   3.561
 8164TIP3    H224438   6.475   7.030   3.708
 8165TIP3   OH224439   5.754   7.336   5.151
 8165TIP3    H124440   5.700   7.389   5.092
 8165TIP3    H224441   5.803   7.399   5.203
 8166TIP3   OH224442   1.271   6.806   3.071
 8166TIP3    H124443   1.271   6.882   3.013
 8166TIP3    H224444   1.179   6.783   3.081
 8167TIP3   OH224445   6.871   6.802   1.010
 8167TIP3    H124446   6.874   6.833   0.920
 8167TIP3    H224447   6.945   6.742   1.017
 8168TIP3   OH224448   6.052   7.111   2.702
 8168TIP3    H124449   6.124   7.175   2.700
 8168TIP3    H224450   6.038   7.094   2.795
 8169TIP3   OH224451   6.090   1.019   2.190
 8169TIP3    H124452   6.014   1.016   2.248
 8169TIP3    H224453   6.082   1.103   2.145
 8170TIP3   OH224454   4.862   5.437   4.675
 8170TIP3    H124455   4.949   5.411   4.702
 8170TIP3    H224456   4.852   5.526   4.709
 8171TIP3   OH224457   5.054   1.579   2.171
 8171TIP3    H124458   5.055   1.530   2.253
 8171TIP3    H224459   5.011   1.661   2.193
 8172TIP3   OH224460   5.088   4.948   0.465
 8172TIP3    H124461   5.114   4.924   0.377
 8172TIP3    H224462   4.992   4.954   0.462
 8173TIP3   OH224463   4.911   1.599   3.335
 8173TIP3    H124464   4.968   1.545   3.281
 8173TIP3    H224465   4.919   1.562   3.423
 8174TIP3   OH224466   2.372   0.631   4.165
 8174TIP3    H124467   2.398   0.664   4.079
 8174TIP3    H224468   2.279   0.608   4.155
 8175TIP3   OH224469   3.050   2.288   3.043
 8175TIP3    H124470   3.144   2.273   3.050
 8175TIP3    H224471   3.041   2.345   2.967
 8176TIP3   OH224472   3.970   3.015   2.970
 8176TIP3    H124473   3.903   2.973   3.024
 8176TIP3    H224474   3.971   3.106   2.999
 8177TIP3   OH224475   6.463   0.810   1.762
 8177TIP3    H124476   6.406   0.887   1.759
 8177TIP3    H224477   6.473   0.791   1.855
 8178TIP3   OH224478   2.699   0.264   1.155
 8178TIP3    H124479   2.722   0.174   1.133
 8178TIP3    H224480   2.783   0.307   1.172
 8179TIP3   OH224481   0.542   7.727   0.661
 8179TIP3    H124482   0.506   7.783   0.592
 8179TIP3    H224483   0.594   7.786   0.716
 8180TIP3   OH224484   1.064   1.190   2.343
 8180TIP3    H124485   1.140   1.246   2.330
 8180TIP3    H224486   1.039   1.202   2.435
 8181TIP3   OH224487   7.771   7.843   5.580
 8181TIP3    H124488   7.827   7.918   5.563
 8181TIP3    H224489   7.764   7.838   5.675
 8182TIP3   OH224490   5.133   7.636   3.642
 8182TIP3    H124491   5.103   7.726   3.630
 8182TIP3    H224492   5.203   7.625   3.578
 8183TIP3   OH224493   1.818   2.111   5.038
 8183TIP3    H124494   1.778   2.037   4.992
 8183TIP3    H224495   1.794   2.188   4.986
 8184TIP3   OH224496   7.564   5.281   0.812
 8184TIP3    H124497   7.639   5.228   0.839
 8184TIP3    H224498   7.575   5.292   0.717
 8185TIP3   OH224499   7.262   3.762   4.538
 8185TIP3    H124500   7.211   3.842   4.525
 8185TIP3    H224501   7.258   3.747   4.633
 8186TIP3   OH224502   0.356   4.123   5.204
 8186TIP3    H124503   0.261   4.128   5.215
 8186TIP3    H224504   0.369   4.138   5.110
 8187TIP3   OH224505   5.361   7.761   6.410
 8187TIP3    H124506   5.357   7.856   6.402
 8187TIP3    H224507   5.338   7.729   6.322
 8188TIP3   OH224508   3.955   1.132   1.408
 8188TIP3    H124509   4.022   1.147   1.341
 8188TIP3    H224510   3.997   1.072   1.470
 8189TIP3   OH224511   6.278   0.734   5.899
 8189TIP3    H124512   6.183   0.727   5.888
 8189TIP3    H224513   6.297   0.826   5.879
 8190TIP3   OH224514   8.200   6.154   3.746
 8190TIP3    H124515   8.180   6.218   3.678
 8190TIP3    H224516   8.230   6.206   3.820
 8191TIP3   OH224517   1.612   6.953   3.500
 8191TIP3    H124518   1.604   6.989   3.411
 8191TIP3    H224519   1.601   6.858   3.488
 8192TIP3   OH224520   3.134   6.367   3.487
 8192TIP3    H124521   3.206   6.359   3.423
 8192TIP3    H224522   3.162   6.438   3.544
 8193TIP3   OH224523   4.578   1.513   1.751
 8193TIP3    H124524   4.591   1.440   1.812
 8193TIP3    H224525   4.487   1.538   1.763
 8194TIP3   OH224526   7.869   1.936   6.010
 8194TIP3    H124527   7.825   1.905   5.930
 8194TIP3    H224528   7.856   1.865   6.073
 8195TIP3   OH224529   2.153   1.283   2.707
 8195TIP3    H124530   2.108   1.367   2.713
 8195TIP3    H224531   2.153   1.263   2.613
 8196TIP3   OH224532   3.329   1.290   2.398
 8196TIP3    H124533   3.309   1.383   2.388
 8196TIP3    H224534   3.289   1.249   2.322
 8197TIP3   OH224535   3.726   3.622   1.845
 8197TIP3    H124536   3.728   3.604   1.751
 8197TIP3    H224537   3.674   3.551   1.882
 8198TIP3   OH224538   0.739   0.481   3.839
 8198TIP3    H124539   0.781   0.397   3.855
 8198TIP3    H224540   0.690   0.468   3.757
 8199TIP3   OH224541   7.873   1.331   4.499
 8199TIP3    H124542   7.919   1.304   4.579
 8199TIP3    H224543   7.889   1.260   4.437
 8200TIP3   OH224544   0.641   2.529   4.056
 8200TIP3    H124545   0.648   2.602   4.118
 8200TIP3    H224546   0.608   2.570   3.976
 8201TIP3   OH224547   2.637   2.320   6.177
 8201TIP3    H124548   2.577   2.389   6.151
 8201TIP3    H224549   2.719   2.365   6.197
 8202TIP3   OH224550   1.039   0.904   5.500
 8202TIP3    H124551   1.081   0.990   5.510
 8202TIP3    H224552   1.049   0.862   5.585
 8203TIP3   OH224553   3.592   1.085   3.754
 8203TIP3    H124554   3.548   1.142   3.817
 8203TIP3    H224555   3.659   1.039   3.806
 8204TIP3   OH224556   1.649   6.651   1.683
 8204TIP3    H124557   1.565   6.694   1.668
 8204TIP3    H224558   1.626   6.570   1.728
 8205TIP3   OH224559   2.680   5.563   5.306
 8205TIP3    H124560   2.599   5.524   5.275
 8205TIP3    H224561   2.657   5.653   5.329
 8206TIP3   OH224562   7.456   4.752   2.926
 8206TIP3    H124563   7.375   4.739   2.975
 8206TIP3    H224564   7.434   4.819   2.862
 8207TIP3   OH224565   1.155   5.470   5.200
 8207TIP3    H124566   1.060   5.466   5.206
 8207TIP3    H224567   1.186   5.401   5.260
 8208TIP3   OH224568   8.148   5.548   3.088
 8208TIP3    H124569   8.138   5.563   3.182
 8208TIP3    H224570   8.201   5.469   3.082
 8209TIP3   OH224571   0.658   2.530   5.557
 8209TIP3    H124572   0.722   2.461   5.538
 8209TIP3    H224573   0.710   2.604   5.587
 8210TIP3   OH224574   3.914   6.387   0.879
 8210TIP3    H124575   3.929   6.341   0.962
 8210TIP3    H224576   3.989   6.364   0.825
 8211TIP3   OH224577   4.425   3.832   1.122
 8211TIP3    H124578   4.377   3.817   1.041
 8211TIP3    H224579   4.370   3.796   1.191
 8212TIP3   OH224580   7.493   6.469   5.618
 8212TIP3    H124581   7.426   6.456   5.685
 8212TIP3    H224582   7.507   6.381   5.582
 8213TIP3   OH224583   0.553   6.846   1.149
 8213TIP3    H124584   0.593   6.926   1.115
 8213TIP3    H224585   0.552   6.786   1.073
 8214TIP3   OH224586   6.247   1.798   4.548
 8214TIP3    H124587   6.170   1.851   4.571
 8214TIP3    H224588   6.312   1.822   4.614
 8215TIP3   OH224589   0.250   2.481   1.543
 8215TIP3    H124590   0.211   2.565   1.519
 8215TIP3    H224591   0.341   2.502   1.561
 8216TIP3   OH224592   5.910   5.815   5.808
 8216TIP3    H124593   5.980   5.793   5.870
 8216TIP3    H224594   5.956   5.854   5.733
 8217TIP3   OH224595   4.948   2.428   3.289
 8217TIP3    H124596   4.983   2.517   3.283
 8217TIP3    H224597   4.910   2.424   3.377
 8218TIP3   OH224598   6.766   0.855   6.232
 8218TIP3    H124599   6.837   0.792   6.215
 8218TIP3    H224600   6.709   0.809   6.294
 8219TIP3   OH224601   3.143   7.330   1.214
 8219TIP3    H124602   3.229   7.298   1.240
 8219TIP3    H224603   3.112   7.268   1.148
 8220TIP3   OH224604   3.698   0.585   3.987
 8220TIP3    H124605   3.773   0.643   3.971
 8220TIP3    H224606   3.728   0.498   3.959
 8221TIP3   OH224607   2.000   4.263   5.274
 8221TIP3    H124608   2.041   4.245   5.190
 8221TIP3    H224609   1.907   4.242   5.261
 8222TIP3   OH224610   3.472   6.296   6.641
 8222TIP3    H124611   3.487   6.347   6.721
 8222TIP3    H224612   3.503   6.208   6.662
 8223TIP3   OH224613   3.141   5.940   4.161
 8223TIP3    H124614   3.167   5.883   4.088
 8223TIP3    H224615   3.047   5.953   4.149
 8224TIP3   OH224616   6.379   5.315   0.232
 8224TIP3    H124617   6.418   5.305   0.146
 8224TIP3    H224618   6.417   5.396   0.266
 8225TIP3   OH224619   6.837   4.867   5.124
 8225TIP3    H124620   6.752   4.829   5.104
 8225TIP3    H224621   6.820   4.926   5.198
 8226TIP3   OH224622   5.331   5.579   0.521
 8226TIP3    H124623   5.373   5.610   0.601
 8226TIP3    H224624   5.351   5.646   0.455
 8227TIP3   OH224625   0.581   5.309   6.422
 8227TIP3    H124626   0.582   5.220   6.457
 8227TIP3    H224627   0.612   5.299   6.331
 8228TIP3   OH224628   1.422   6.397   3.037
 8228TIP3    H124629   1.387   6.467   3.092
 8228TIP3    H224630   1.470   6.340   3.097
 8229TIP3   OH224631   0.434   5.352   0.326
 8229TIP3    H124632   0.435   5.443   0.295
 8229TIP3    H224633   0.417   5.300   0.247
 8230TIP3   OH224634   5.460   0.649   6.611
 8230TIP3    H124635   5.378   0.659   6.564
 8230TIP3    H224636   5.482   0.738   6.640
 8231TIP3   OH224637   3.674   0.057   1.856
 8231TIP3    H124638   3.648  -0.034   1.866
 8231TIP3    H224639   3.767   0.058   1.879
 8232TIP3   OH224640   3.816   5.868   6.082
 8232TIP3    H124641   3.883   5.935   6.072
 8232TIP3    H224642   3.733   5.915   6.077
 8233TIP3   OH224643   7.162   6.483   4.242
 8233TIP3    H124644   7.211   6.550   4.194
 8233TIP3    H224645   7.083   6.529   4.272
 8234TIP3   OH224646   7.519   5.991   0.477
 8234TIP3    H124647   7.439   5.940   0.495
 8234TIP3    H224648   7.545   5.965   0.389
 8235TIP3   OH224649   0.824   1.845   2.099
 8235TIP3    H124650   0.876   1.881   2.170
 8235TIP3    H224651   0.812   1.753   2.123
 8236TIP3   OH224652   3.073   1.316   0.242
 8236TIP3    H124653   3.007   1.246   0.243
 8236TIP3    H224654   3.150   1.278   0.283
 8237TIP3   OH224655   6.467   5.211   0.969
 8237TIP3    H124656   6.509   5.230   0.886
 8237TIP3    H224657   6.523   5.252   1.035
 8238TIP3   OH224658   6.166   1.794   3.713
 8238TIP3    H124659   6.247   1.839   3.735
 8238TIP3    H224660   6.099   1.839   3.764
 8239TIP3   OH224661   4.321   6.619   6.202
 8239TIP3    H124662   4.246   6.590   6.252
 8239TIP3    H224663   4.284   6.661   6.124
 8240TIP3   OH224664   6.125   3.723   2.393
 8240TIP3    H124665   6.053   3.756   2.338
 8240TIP3    H224666   6.103   3.753   2.481
 8241TIP3   OH224667   3.687   4.541   6.241
 8241TIP3    H124668   3.710   4.562   6.150
 8241TIP3    H224669   3.771   4.539   6.287
 8242TIP3   OH224670   7.265   1.536   5.348
 8242TIP3    H124671   7.260   1.631   5.334
 8242TIP3    H224672   7.281   1.500   5.261
 8243TIP3   OH224673   1.370   7.470   1.258
 8243TIP3    H124674   1.459   7.437   1.262
 8243TIP3    H224675   1.368   7.541   1.321
 8244TIP3   OH224676   1.476   6.336   1.101
 8244TIP3    H124677   1.501   6.419   1.142
 8244TIP3    H224678   1.559   6.298   1.072
 8245TIP3   OH224679   1.461   3.779   0.291
 8245TIP3    H124680   1.468   3.800   0.198
 8245TIP3    H224681   1.546   3.807   0.328
 8246TIP3   OH224682   4.266   6.439   1.978
 8246TIP3    H124683   4.283   6.412   2.068
 8246TIP3    H224684   4.187   6.493   1.983
 8247TIP3   OH224685   0.557   7.782   3.885
 8247TIP3    H124686   0.494   7.713   3.864
 8247TIP3    H224687   0.576   7.769   3.978
 8248TIP3   OH224688   0.264   3.796   3.768
 8248TIP3    H124689   0.329   3.825   3.832
 8248TIP3    H224690   0.285   3.844   3.688
 8249TIP3   OH224691   7.435   0.583   3.043
 8249TIP3    H124692   7.483   0.542   3.114
 8249TIP3    H224693   7.398   0.662   3.082
 8250TIP3   OH224694   4.843   2.526   6.646
 8250TIP3    H124695   4.849   2.594   6.714
 8250TIP3    H224696   4.860   2.572   6.564
 8251TIP3   OH224697   2.726   7.662   5.734
 8251TIP3    H124698   2.764   7.624   5.813
 8251TIP3    H224699   2.714   7.755   5.756
 8252TIP3   OH224700   0.850   0.423   3.201
 8252TIP3    H124701   0.758   0.403   3.185
 8252TIP3    H224702   0.898   0.362   3.144
 8253TIP3   OH224703   6.091   1.057   6.329
 8253TIP3    H124704   6.155   1.103   6.275
 8253TIP3    H224705   6.127   1.059   6.417
 8254TIP3   OH224706   2.081   4.296   3.964
 8254TIP3    H124707   2.086   4.208   4.003
 8254TIP3    H224708   2.042   4.281   3.878
 8255TIP3   OH224709   7.435   5.518   4.662
 8255TIP3    H124710   7.523   5.494   4.633
 8255TIP3    H224711   7.442   5.523   4.757
 8256TIP3   OH224712   0.880   7.472   0.251
 8256TIP3    H124713   0.904   7.563   0.234
 8256TIP3    H224714   0.790   7.465   0.220
 8257TIP3   OH224715   4.178   1.398   5.670
 8257TIP3    H124716   4.167   1.479   5.720
 8257TIP3    H224717   4.218   1.426   5.588
 8258TIP3   OH224718   1.991   5.636   4.475
 8258TIP3    H124719   2.039   5.569   4.523
 8258TIP3    H224720   2.033   5.718   4.501
 8259TIP3   OH224721   3.949   6.586   1.507
 8259TIP3    H124722   3.967   6.526   1.434
 8259TIP3    H224723   4.025   6.576   1.565
 8260TIP3   OH224724   1.608   2.306   4.824
 8260TIP3    H124725   1.670   2.373   4.853
 8260TIP3    H224726   1.526   2.329   4.868
 8261TIP3   OH224727   3.387   5.400   3.047
 8261TIP3    H124728   3.379   5.324   3.104
 8261TIP3    H224729   3.480   5.403   3.023
 8262TIP3   OH224730   2.581   2.657   4.294
 8262TIP3    H124731   2.568   2.680   4.386
 8262TIP3    H224732   2.669   2.620   4.290
 8263TIP3   OH224733   0.170   2.505   0.044
 8263TIP3    H124734   0.112   2.542   0.111
 8263TIP3    H224735   0.256   2.540   0.066
 8264TIP3   OH224736   7.192   0.213   3.730
 8264TIP3    H124737   7.228   0.234   3.643
 8264TIP3    H224738   7.130   0.142   3.714
 8265TIP3   OH224739   1.922   4.761   1.489
 8265TIP3    H124740   1.853   4.700   1.516
 8265TIP3    H224741   1.922   4.828   1.557
 8266TIP3   OH224742   1.802   3.921   3.753
 8266TIP3    H124743   1.774   3.967   3.832
 8266TIP3    H224744   1.720   3.891   3.713
 8267TIP3   OH224745   4.375   5.406   0.175
 8267TIP3    H124746   4.470   5.418   0.180
 8267TIP3    H224747   4.349   5.446   0.093
 8268TIP3   OH224748   5.334   2.749   6.595
 8268TIP3    H124749   5.293   2.751   6.509
 8268TIP3    H224750   5.406   2.811   6.589
 8269TIP3   OH224751   6.678   0.799   6.697
 8269TIP3    H124752   6.735   0.874   6.679
 8269TIP3    H224753   6.633   0.783   6.614
 8270TIP3   OH224754   0.227   5.883   3.249
 8270TIP3    H124755   0.255   5.801   3.207
 8270TIP3    H224756   0.162   5.855   3.314
 8271TIP3   OH224757   4.512   2.464   4.022
 8271TIP3    H124758   4.471   2.389   3.978
 8271TIP3    H224759   4.594   2.478   3.976
 8272TIP3   OH224760   8.334   2.586   6.685
 8272TIP3    H124761   8.283   2.576   6.765
 8272TIP3    H224762   8.313   2.674   6.654
 8273TIP3   OH224763   1.914   1.806   4.807
 8273TIP3    H124764   1.890   1.839   4.720
 8273TIP3    H224765   1.948   1.718   4.790
 8274TIP3   OH224766   5.540   6.335   5.611
 8274TIP3    H124767   5.533   6.408   5.672
 8274TIP3    H224768   5.468   6.348   5.550
 8275TIP3   OH224769   6.045   2.268   2.257
 8275TIP3    H124770   6.128   2.310   2.237
 8275TIP3    H224771   5.992   2.337   2.297
 8276TIP3   OH224772   6.745   0.815   5.943
 8276TIP3    H124773   6.825   0.773   5.973
 8276TIP3    H224774   6.736   0.892   5.999
 8277TIP3   OH224775   3.953   7.356   1.130
 8277TIP3    H124776   3.904   7.276   1.111
 8277TIP3    H224777   3.893   7.427   1.107
 8278TIP3   OH224778   1.924   3.986   4.214
 8278TIP3    H124779   1.872   4.001   4.293
 8278TIP3    H224780   1.988   3.920   4.240
 8279TIP3   OH224781   0.390   0.941   6.534
 8279TIP3    H124782   0.337   0.980   6.603
 8279TIP3    H224783   0.435   0.867   6.576
 8280TIP3   OH224784   8.130   5.449   5.355
 8280TIP3    H124785   8.066   5.387   5.391
 8280TIP3    H224786   8.134   5.427   5.262
 8281TIP3   OH224787   7.560   2.696   0.998
 8281TIP3    H124788   7.591   2.607   1.017
 8281TIP3    H224789   7.517   2.723   1.079
 8282TIP3   OH224790   4.866   3.716   4.746
 8282TIP3    H124791   4.875   3.633   4.699
 8282TIP3    H224792   4.859   3.690   4.838
 8283TIP3   OH224793   6.033   7.612   6.445
 8283TIP3    H124794   6.053   7.563   6.365
 8283TIP3    H224795   6.004   7.545   6.507
 8284TIP3   OH224796   3.550   4.005   5.245
 8284TIP3    H124797   3.584   3.937   5.303
 8284TIP3    H224798   3.518   3.957   5.168
 8285TIP3   OH224799   0.157   5.393   0.256
 8285TIP3    H124800   0.086   5.420   0.313
 8285TIP3    H224801   0.236   5.427   0.299
 8286TIP3   OH224802   0.808   0.707   0.910
 8286TIP3    H124803   0.878   0.692   0.974
 8286TIP3    H224804   0.841   0.777   0.854
 8287TIP3   OH224805   0.456   2.861   5.625
 8287TIP3    H124806   0.361   2.866   5.615
 8287TIP3    H224807   0.483   2.797   5.559
 8288TIP3   OH224808   1.860   1.447   5.978
 8288TIP3    H124809   1.940   1.394   5.977
 8288TIP3    H224810   1.793   1.388   6.013
 8289TIP3   OH224811   4.399   1.347   6.244
 8289TIP3    H124812   4.460   1.280   6.215
 8289TIP3    H224813   4.317   1.300   6.260
 8290TIP3   OH224814   2.293   6.757   3.579
 8290TIP3    H124815   2.313   6.666   3.598
 8290TIP3    H224816   2.370   6.805   3.609
 8291TIP3   OH224817   6.670   7.583   6.671
 8291TIP3    H124818   6.664   7.490   6.647
 8291TIP3    H224819   6.733   7.585   6.743
 8292TIP3   OH224820   1.664   7.258   3.093
 8292TIP3    H124821   1.645   7.351   3.104
 8292TIP3    H224822   1.702   7.252   3.006
 8293TIP3   OH224823   2.718   5.206   1.113
 8293TIP3    H124824   2.810   5.218   1.090
 8293TIP3    H224825   2.718   5.134   1.177
 8294TIP3   OH224826   7.264   6.654   5.967
 8294TIP3    H124827   7.322   6.700   6.028
 8294TIP3    H224828   7.231   6.580   6.018
 8295TIP3   OH224829   6.988   3.672   3.802
 8295TIP3    H124830   6.898   3.645   3.823
 8295TIP3    H224831   6.996   3.760   3.839
 8296TIP3   OH224832   8.076   3.468   3.250
 8296TIP3    H124833   8.032   3.401   3.197
 8296TIP3    H224834   8.016   3.484   3.323
 8297TIP3   OH224835   3.984   3.733   6.220
 8297TIP3    H124836   4.035   3.720   6.299
 8297TIP3    H224837   3.923   3.804   6.241
 8298TIP3   OH224838   1.310   3.588   6.067
 8298TIP3    H124839   1.347   3.645   6.000
 8298TIP3    H224840   1.369   3.513   6.070
 8299TIP3   OH224841   8.153   3.666   5.446
 8299TIP3    H124842   8.238   3.704   5.425
 8299TIP3    H224843   8.162   3.573   5.424
 8300TIP3   OH224844   0.467   5.294   0.042
 8300TIP3    H124845   0.551   5.252   0.057
 8300TIP3    H224846   0.466   5.313  -0.052
 8301TIP3   OH224847   2.479   1.919   5.899
 8301TIP3    H124848   2.537   1.988   5.930
 8301TIP3    H224849   2.535   1.864   5.842
 8302TIP3   OH224850   0.834   0.746   0.146
 8302TIP3    H124851   0.786   0.754   0.064
 8302TIP3    H224852   0.806   0.662   0.182
 8303TIP3   OH224853   0.696   5.723   6.774
 8303TIP3    H124854   0.773   5.673   6.801
 8303TIP3    H224855   0.655   5.670   6.706
 8304TIP3   OH224856   4.665   0.270   3.482
 8304TIP3    H124857   4.754   0.302   3.467
 8304TIP3    H224858   4.676   0.176   3.496
 8305TIP3   OH224859   0.761   5.290   6.789
 8305TIP3    H124860   0.777   5.211   6.737
 8305TIP3    H224861   0.692   5.336   6.741
 8306TIP3   OH224862   2.439   3.286   1.418
 8306TIP3    H124863   2.508   3.261   1.480
 8306TIP3    H224864   2.381   3.210   1.415
 8307TIP3   OH224865   6.023   1.437   6.558
 8307TIP3    H124866   5.961   1.381   6.511
 8307TIP3    H224867   6.109   1.404   6.533
 8308TIP3   OH224868   6.071   0.620   0.144
 8308TIP3    H124869   6.069   0.699   0.198
 8308TIP3    H224870   5.985   0.580   0.157
 8309TIP3   OH224871   5.249   7.637   2.888
 8309TIP3    H124872   5.198   7.692   2.829
 8309TIP3    H224873   5.204   7.553   2.887
 8310TIP3   OH224874   7.311   0.339   5.517
 8310TIP3    H124875   7.240   0.278   5.499
 8310TIP3    H224876   7.300   0.364   5.609
 8311TIP3   OH224877   6.638   7.201   2.368
 8311TIP3    H124878   6.732   7.210   2.384
 8311TIP3    H224879   6.615   7.117   2.407
 8312TIP3   OH224880   0.830   0.105   2.797
 8312TIP3    H124881   0.891   0.033   2.784
 8312TIP3    H224882   0.805   0.131   2.708
 8313TIP3   OH224883   2.599   2.541   6.741
 8313TIP3    H124884   2.506   2.544   6.717
 8313TIP3    H224885   2.605   2.467   6.801
 8314TIP3   OH224886   6.509   4.264   2.571
 8314TIP3    H124887   6.438   4.220   2.525
 8314TIP3    H224888   6.552   4.317   2.504
 8315TIP3   OH224889   5.319   3.159   6.337
 8315TIP3    H124890   5.372   3.161   6.258
 8315TIP3    H224891   5.233   3.127   6.308
 8316TIP3   OH224892   6.029   5.150   3.616
 8316TIP3    H124893   6.059   5.060   3.625
 8316TIP3    H224894   5.955   5.156   3.677
 8317TIP3   OH224895   0.835   7.744   1.201
 8317TIP3    H124896   0.819   7.654   1.173
 8317TIP3    H224897   0.897   7.736   1.273
 8318TIP3   OH224898   1.071   2.678   5.555
 8318TIP3    H124899   1.010   2.604   5.549
 8318TIP3    H224900   1.118   2.665   5.637
 8319TIP3   OH224901   6.821   3.298   0.492
 8319TIP3    H124902   6.761   3.312   0.565
 8319TIP3    H224903   6.883   3.371   0.498
 8320TIP3   OH224904   3.977   0.251   5.439
 8320TIP3    H124905   3.903   0.272   5.496
 8320TIP3    H224906   3.999   0.334   5.396
 8321TIP3   OH224907   4.680   6.195   3.513
 8321TIP3    H124908   4.660   6.216   3.422
 8321TIP3    H224909   4.775   6.197   3.518
 8322TIP3   OH224910   3.389   4.083   4.287
 8322TIP3    H124911   3.403   4.079   4.192
 8322TIP3    H224912   3.468   4.045   4.324
 8323TIP3   OH224913   6.283   2.611   6.637
 8323TIP3    H124914   6.263   2.703   6.659
 8323TIP3    H224915   6.378   2.605   6.642
 8324TIP3   OH224916   7.654   0.880   3.972
 8324TIP3    H124917   7.643   0.967   4.011
 8324TIP3    H224918   7.742   0.853   3.999
 8325TIP3   OH224919   4.279   1.352   4.490
 8325TIP3    H124920   4.292   1.350   4.395
 8325TIP3    H224921   4.328   1.429   4.519
 8326TIP3   OH224922   7.348   5.692   3.125
 8326TIP3    H124923   7.354   5.652   3.039
 8326TIP3    H224924   7.365   5.785   3.110
 8327TIP3   OH224925   1.369   3.138   3.364
 8327TIP3    H124926   1.440   3.165   3.306
 8327TIP3    H224927   1.356   3.045   3.343
 8328TIP3   OH224928   2.175   6.636   1.503
 8328TIP3    H124929   2.183   6.593   1.588
 8328TIP3    H224930   2.252   6.606   1.454
 8329TIP3   OH224931   5.729   2.376   1.121
 8329TIP3    H124932   5.636   2.396   1.116
 8329TIP3    H224933   5.772   2.447   1.073
 8330TIP3   OH224934   0.719   2.358   6.455
 8330TIP3    H124935   0.724   2.266   6.482
 8330TIP3    H224936   0.630   2.369   6.422
 8331TIP3   OH224937   4.436   5.736   1.337
 8331TIP3    H124938   4.490   5.735   1.258
 8331TIP3    H224939   4.419   5.828   1.354
 8332TIP3   OH224940   0.235   1.489   0.953
 8332TIP3    H124941   0.198   1.401   0.941
 8332TIP3    H224942   0.180   1.529   1.020
 8333TIP3   OH224943   7.592   4.880   4.576
 8333TIP3    H124944   7.579   4.932   4.496
 8333TIP3    H224945   7.641   4.937   4.634
 8334TIP3   OH224946   4.223   7.445   2.273
 8334TIP3    H124947   4.285   7.517   2.285
 8334TIP3    H224948   4.181   7.462   2.189
 8335TIP3   OH224949   4.589   5.870   1.780
 8335TIP3    H124950   4.553   5.958   1.783
 8335TIP3    H224951   4.516   5.813   1.803
 8336TIP3   OH224952   7.470   2.598   0.585
 8336TIP3    H124953   7.459   2.674   0.642
 8336TIP3    H224954   7.565   2.585   0.581
 8337TIP3   OH224955   3.507   4.448   5.515
 8337TIP3    H124956   3.498   4.383   5.445
 8337TIP3    H224957   3.568   4.512   5.479
 8338TIP3   OH224958   7.594   0.981   6.271
 8338TIP3    H124959   7.633   1.019   6.193
 8338TIP3    H224960   7.643   0.900   6.286
 8339TIP3   OH224961   7.194   2.082   6.459
 8339TIP3    H124962   7.258   2.143   6.496
 8339TIP3    H224963   7.221   2.072   6.367
 8340TIP3   OH224964   0.334   5.218   2.241
 8340TIP3    H124965   0.417   5.229   2.287
 8340TIP3    H224966   0.298   5.136   2.275
 8341TIP3   OH224967   6.837   1.385   6.767
 8341TIP3    H124968   6.880   1.304   6.794
 8341TIP3    H224969   6.772   1.358   6.703
 8342TIP3   OH224970   7.385   5.995   5.328
 8342TIP3    H124971   7.432   6.076   5.309
 8342TIP3    H224972   7.318   5.991   5.260
 8343TIP3   OH224973   7.107   7.710   0.628
 8343TIP3    H124974   7.150   7.648   0.686
 8343TIP3    H224975   7.149   7.697   0.543
 8344TIP3   OH224976   6.067   2.102   2.502
 8344TIP3    H124977   6.021   2.028   2.462
 8344TIP3    H224978   6.057   2.173   2.439
 8345TIP3   OH224979   0.980   5.632   1.316
 8345TIP3    H124980   0.963   5.633   1.222
 8345TIP3    H224981   1.019   5.546   1.332
 8346TIP3   OH224982   4.802   5.180   4.565
 8346TIP3    H124983   4.797   5.180   4.469
 8346TIP3    H224984   4.836   5.267   4.587
 8347TIP3   OH224985   6.535   5.538   5.327
 8347TIP3    H124986   6.586   5.521   5.406
 8347TIP3    H224987   6.597   5.580   5.267
 8348TIP3   OH224988   7.080   5.345   0.115
 8348TIP3    H124989   7.008   5.294   0.078
 8348TIP3    H224990   7.068   5.433   0.080
 8349TIP3   OH224991   2.265   3.814   4.535
 8349TIP3    H124992   2.288   3.907   4.526
 8349TIP3    H224993   2.323   3.782   4.605
 8350TIP3   OH224994   7.010   4.047   0.977
 8350TIP3    H124995   6.981   4.102   1.049
 8350TIP3    H224996   6.953   3.970   0.981
 8351TIP3   OH224997   0.095   4.041   1.196
 8351TIP3    H124998   0.024   4.014   1.137
 8351TIP3    H224999   0.156   4.087   1.139
 8352TIP3   OH225000   4.509   5.448   2.232
 8352TIP3    H125001   4.546   5.373   2.279
 8352TIP3    H225002   4.568   5.520   2.254
 8353TIP3   OH225003   2.968   6.488   5.025
 8353TIP3    H125004   2.919   6.445   5.095
 8353TIP3    H225005   2.973   6.421   4.956
 8354TIP3   OH225006   3.078   1.956   6.251
 8354TIP3    H125007   3.074   1.924   6.342
 8354TIP3    H225008   3.043   1.884   6.199
 8355TIP3   OH225009   3.444   5.773   6.661
 8355TIP3    H125010   3.417   5.776   6.570
 8355TIP3    H225011   3.509   5.703   6.665
 8356TIP3   OH225012   3.870   1.678   1.257
 8356TIP3    H125013   3.944   1.654   1.201
 8356TIP3    H225014   3.793   1.654   1.205
 8357TIP3   OH225015   4.874   4.210   1.733
 8357TIP3    H125016   4.876   4.305   1.745
 8357TIP3    H225017   4.952   4.178   1.779
 8358TIP3   OH225018   2.401   6.851   0.220
 8358TIP3    H125019   2.444   6.812   0.144
 8358TIP3    H225020   2.400   6.782   0.285
 8359TIP3   OH225021   7.530   1.110   2.340
 8359TIP3    H125022   7.479   1.030   2.327
 8359TIP3    H225023   7.548   1.142   2.252
 8360TIP3   OH225024   1.170   2.068   1.678
 8360TIP3    H125025   1.180   2.034   1.767
 8360TIP3    H225026   1.151   1.991   1.625
 8361TIP3   OH225027   5.497   5.602   2.011
 8361TIP3    H125028   5.570   5.554   2.050
 8361TIP3    H225029   5.535   5.684   1.980
 8362TIP3   OH225030   2.415   4.242   5.187
 8362TIP3    H125031   2.412   4.332   5.220
 8362TIP3    H225032   2.423   4.252   5.092
 8363TIP3   OH225033   5.674   2.663   3.700
 8363TIP3    H125034   5.614   2.591   3.721
 8363TIP3    H225035   5.676   2.665   3.604
 8364TIP3   OH225036   7.339   4.548   2.501
 8364TIP3    H125037   7.414   4.489   2.495
 8364TIP3    H225038   7.377   4.635   2.513
 8365TIP3   OH225039   3.621   1.122   3.468
 8365TIP3    H125040   3.560   1.075   3.525
 8365TIP3    H225041   3.707   1.105   3.507
 8366TIP3   OH225042   2.362   3.339   3.778
 8366TIP3    H125043   2.392   3.300   3.696
 8366TIP3    H225044   2.278   3.296   3.796
 8367TIP3   OH225045   1.281   6.930   5.456
 8367TIP3    H125046   1.305   7.023   5.452
 8367TIP3    H225047   1.295   6.906   5.547
 8368TIP3   OH225048   8.186   5.651   1.649
 8368TIP3    H125049   8.090   5.653   1.646
 8368TIP3    H225050   8.207   5.596   1.724
 8369TIP3   OH225051   0.612   5.824   1.544
 8369TIP3    H125052   0.695   5.778   1.558
 8369TIP3    H225053   0.599   5.821   1.449
 8370TIP3   OH225054   1.727   0.664   1.474
 8370TIP3    H125055   1.792   0.683   1.406
 8370TIP3    H225056   1.723   0.744   1.526
 8371TIP3   OH225057   3.003   3.571   6.214
 8371TIP3    H125058   3.088   3.530   6.200
 8371TIP3    H225059   2.947   3.499   6.244
 8372TIP3   OH225060   1.143   3.789   5.308
 8372TIP3    H125061   1.122   3.872   5.264
 8372TIP3    H225062   1.229   3.765   5.273
 8373TIP3   OH225063   5.388   4.241   4.960
 8373TIP3    H125064   5.429   4.164   4.999
 8373TIP3    H225065   5.304   4.249   5.004
 8374TIP3   OH225066   6.773   3.250   6.181
 8374TIP3    H125067   6.836   3.270   6.250
 8374TIP3    H225068   6.779   3.155   6.170
 8375TIP3   OH225069   6.978   5.673   4.840
 8375TIP3    H125070   6.990   5.710   4.928
 8375TIP3    H225071   6.925   5.739   4.794
 8376TIP3   OH225072   7.306   1.784   0.128
 8376TIP3    H125073   7.391   1.819   0.154
 8376TIP3    H225074   7.304   1.794   0.032
 8377TIP3   OH225075   3.096   4.129   0.183
 8377TIP3    H125076   3.041   4.117   0.106
 8377TIP3    H225077   3.149   4.206   0.163
 8378TIP3   OH225078   3.601   0.194   2.928
 8378TIP3    H125079   3.521   0.223   2.972
 8378TIP3    H225080   3.573   0.123   2.872
 8379TIP3   OH225081   4.966   2.085   4.645
 8379TIP3    H125082   5.052   2.123   4.662
 8379TIP3    H225083   4.904   2.149   4.680
 8380TIP3   OH225084   2.358   5.803   5.464
 8380TIP3    H125085   2.293   5.830   5.400
 8380TIP3    H225086   2.354   5.870   5.533
 8381TIP3   OH225087   3.009   1.646   5.094
 8381TIP3    H125088   3.059   1.674   5.171
 8381TIP3    H225089   2.974   1.727   5.058
 8382TIP3   OH225090   6.650   7.369   4.244
 8382TIP3    H125091   6.601   7.436   4.292
 8382TIP3    H225092   6.589   7.296   4.234
 8383TIP3   OH225093   6.170   1.234   4.010
 8383TIP3    H125094   6.138   1.266   4.095
 8383TIP3    H225095   6.122   1.152   3.996
 8384TIP3   OH225096   5.031   1.019   2.248
 8384TIP3    H125097   4.944   0.979   2.241
 8384TIP3    H225098   5.024   1.100   2.199
 8385TIP3   OH225099   1.247   0.572   3.982
 8385TIP3    H125100   1.268   0.648   4.036
 8385TIP3    H225101   1.153   0.560   3.994
 8386TIP3   OH225102   7.608   7.610   6.550
 8386TIP3    H125103   7.536   7.669   6.577
 8386TIP3    H225104   7.563   7.532   6.518
 8387TIP3   OH225105  -0.010   7.353   4.970
 8387TIP3    H125106   0.079   7.338   4.939
 8387TIP3    H225107  -0.056   7.389   4.893
 8388TIP3   OH225108   3.548   2.082   0.772
 8388TIP3    H125109   3.625   2.137   0.757
 8388TIP3    H225110   3.566   2.002   0.723
 8389TIP3   OH225111   6.545   4.915   1.999
 8389TIP3    H125112   6.569   4.920   1.907
 8389TIP3    H225113   6.541   5.006   2.028
 8390TIP3   OH225114   6.966   6.687   3.726
 8390TIP3    H125115   6.978   6.777   3.697
 8390TIP3    H225116   6.879   6.687   3.767
 8391TIP3   OH225117   4.291   0.363   1.084
 8391TIP3    H125118   4.230   0.328   1.019
 8391TIP3    H225119   4.371   0.380   1.035
 8392TIP3   OH225120   1.483   5.951   5.348
 8392TIP3    H125121   1.464   5.870   5.300
 8392TIP3    H225122   1.399   5.975   5.388
 8393TIP3   OH225123   2.968   0.944   0.901
 8393TIP3    H125124   2.949   0.861   0.857
 8393TIP3    H225125   2.919   0.938   0.983
 8394TIP3   OH225126   3.782   0.571   4.671
 8394TIP3    H125127   3.709   0.524   4.711
 8394TIP3    H225128   3.742   0.647   4.628
 8395TIP3   OH225129   4.016   6.158   4.246
 8395TIP3    H125130   3.970   6.075   4.255
 8395TIP3    H225131   4.107   6.136   4.266
 8396TIP3   OH225132   6.511   5.859   3.673
 8396TIP3    H125133   6.479   5.795   3.737
 8396TIP3    H225134   6.605   5.863   3.689
 8397TIP3   OH225135   1.881   6.128   3.930
 8397TIP3    H125136   1.808   6.172   3.973
 8397TIP3    H225137   1.901   6.054   3.988
 8398TIP3   OH225138   3.600   1.331   0.461
 8398TIP3    H125139   3.694   1.327   0.482
 8398TIP3    H225140   3.557   1.343   0.546
 8399TIP3   OH225141   4.274   1.748   2.866
 8399TIP3    H125142   4.312   1.831   2.834
 8399TIP3    H225143   4.345   1.685   2.858
 8400TIP3   OH225144   3.499   4.183   4.796
 8400TIP3    H125145   3.434   4.242   4.833
 8400TIP3    H225146   3.475   4.175   4.704
 8401TIP3   OH225147   4.273   4.786   6.733
 8401TIP3    H125148   4.360   4.747   6.742
 8401TIP3    H225149   4.269   4.814   6.641
 8402TIP3   OH225150   6.856   5.167   5.774
 8402TIP3    H125151   6.800   5.245   5.779
 8402TIP3    H225152   6.906   5.178   5.694
 8403TIP3   OH225153   0.145   6.216   5.039
 8403TIP3    H125154   0.064   6.166   5.031
 8403TIP3    H225155   0.116   6.304   5.066
 8404TIP3   OH225156   5.157   3.007   2.860
 8404TIP3    H125157   5.160   2.994   2.955
 8404TIP3    H225158   5.173   2.920   2.823
 8405TIP3   OH225159   7.846   1.361   1.976
 8405TIP3    H125160   7.911   1.293   1.992
 8405TIP3    H225161   7.792   1.326   1.905
 8406TIP3   OH225162   4.962   7.662   2.283
 8406TIP3    H125163   4.977   7.568   2.277
 8406TIP3    H225164   4.893   7.671   2.349
 8407TIP3   OH225165   4.472   1.260   3.747
 8407TIP3    H125166   4.410   1.195   3.779
 8407TIP3    H225167   4.423   1.342   3.745
 8408TIP3   OH225168   3.330   3.447   4.961
 8408TIP3    H125169   3.372   3.514   5.015
 8408TIP3    H225170   3.277   3.397   5.023
 8409TIP3   OH225171   1.390   1.210   1.610
 8409TIP3    H125172   1.325   1.229   1.543
 8409TIP3    H225173   1.369   1.270   1.682
 8410TIP3   OH225174   6.127   3.975   1.365
 8410TIP3    H125175   6.128   4.059   1.412
 8410TIP3    H225176   6.057   3.925   1.406
 8411TIP3   OH225177   1.765   2.817   6.214
 8411TIP3    H125178   1.712   2.855   6.144
 8411TIP3    H225179   1.760   2.880   6.285
 8412TIP3   OH225180   2.735   0.156   3.796
 8412TIP3    H125181   2.684   0.089   3.842
 8412TIP3    H225182   2.740   0.229   3.857
 8413TIP3   OH225183   6.510   2.051   4.331
 8413TIP3    H125184   6.416   2.066   4.321
 8413TIP3    H225185   6.533   1.992   4.259
 8414TIP3   OH225186   4.213   5.211   3.137
 8414TIP3    H125187   4.154   5.171   3.073
 8414TIP3    H225188   4.235   5.296   3.099
 8415TIP3   OH225189   3.709   6.195   4.435
 8415TIP3    H125190   3.618   6.171   4.454
 8415TIP3    H225191   3.760   6.149   4.502
 8416TIP3   OH225192   7.078   4.044   3.573
 8416TIP3    H125193   7.145   3.976   3.571
 8416TIP3    H225194   7.052   4.055   3.482
 8417TIP3   OH225195   1.058   2.085   2.496
 8417TIP3    H125196   1.034   2.063   2.586
 8417TIP3    H225197   1.069   2.180   2.497
 8418TIP3   OH225198   5.638   0.447   4.629
 8418TIP3    H125199   5.551   0.412   4.645
 8418TIP3    H225200   5.636   0.477   4.538
 8419TIP3   OH225201   4.893   1.737   5.154
 8419TIP3    H125202   4.805   1.747   5.118
 8419TIP3    H225203   4.942   1.694   5.084
 8420TIP3   OH225204   2.648   1.787   4.300
 8420TIP3    H125205   2.657   1.880   4.279
 8420TIP3    H225206   2.632   1.745   4.215
 8421TIP3   OH225207   5.349   5.217   6.553
 8421TIP3    H125208   5.401   5.241   6.630
 8421TIP3    H225209   5.362   5.289   6.492
 8422TIP3   OH225210   3.305   5.261   0.420
 8422TIP3    H125211   3.359   5.284   0.345
 8422TIP3    H225212   3.232   5.323   0.419
 8423TIP3   OH225213   2.871   7.699   1.283
 8423TIP3    H125214   2.883   7.733   1.195
 8423TIP3    H225215   2.957   7.664   1.307
 8424TIP3   OH225216   6.451   5.258   0.515
 8424TIP3    H125217   6.390   5.194   0.477
 8424TIP3    H225218   6.431   5.340   0.470
 8425TIP3   OH225219   4.068   6.488   5.547
 8425TIP3    H125220   4.024   6.487   5.462
 8425TIP3    H225221   4.069   6.397   5.575
 8426TIP3   OH225222   1.562   6.251   0.262
 8426TIP3    H125223   1.611   6.233   0.181
 8426TIP3    H225224   1.625   6.231   0.332
 8427TIP3   OH225225   0.786   5.638   2.278
 8427TIP3    H125226   0.739   5.685   2.209
 8427TIP3    H225227   0.868   5.687   2.288
 8428TIP3   OH225228   1.558   1.936   3.916
 8428TIP3    H125229   1.599   1.862   3.961
 8428TIP3    H225230   1.550   1.908   3.825
 8429TIP3   OH225231   2.717   5.344   5.506
 8429TIP3    H125232   2.799   5.373   5.466
 8429TIP3    H225233   2.654   5.412   5.484
 8430TIP3   OH225234   4.411   0.265   0.406
 8430TIP3    H125235   4.438   0.277   0.497
 8430TIP3    H225236   4.354   0.340   0.388
 8431TIP3   OH225237   5.765   6.047   5.701
 8431TIP3    H125238   5.780   6.069   5.793
 8431TIP3    H225239   5.670   6.053   5.691
 8432TIP3   OH225240   1.568   4.161   0.142
 8432TIP3    H125241   1.488   4.127   0.102
 8432TIP3    H225242   1.540   4.239   0.190
 8433TIP3   OH225243   1.828   6.161   0.520
 8433TIP3    H125244   1.897   6.096   0.505
 8433TIP3    H225245   1.764   6.115   0.575
 8434TIP3   OH225246   4.796   6.609   5.010
 8434TIP3    H125247   4.732   6.635   4.945
 8434TIP3    H225248   4.832   6.526   4.977
 8435TIP3   OH225249   4.183   2.875   2.957
 8435TIP3    H125250   4.095   2.914   2.965
 8435TIP3    H225251   4.201   2.838   3.044
 8436TIP3   OH225252   2.387   1.196   2.310
 8436TIP3    H125253   2.360   1.268   2.253
 8436TIP3    H225254   2.445   1.143   2.255
 8437TIP3   OH225255   1.106   4.224   5.471
 8437TIP3    H125256   1.195   4.248   5.444
 8437TIP3    H225257   1.049   4.277   5.415
 8438TIP3   OH225258   1.594   5.091   1.513
 8438TIP3    H125259   1.687   5.094   1.536
 8438TIP3    H225260   1.568   5.000   1.526
 8439TIP3   OH225261   6.099   3.281   3.875
 8439TIP3    H125262   6.168   3.283   3.810
 8439TIP3    H225263   6.043   3.207   3.849
 8440TIP3   OH225264   5.477   6.114   3.123
 8440TIP3    H125265   5.471   6.154   3.036
 8440TIP3    H225266   5.402   6.149   3.171
 8441TIP3   OH225267   5.875   4.218   0.607
 8441TIP3    H125268   5.906   4.281   0.543
 8441TIP3    H225269   5.827   4.152   0.556
 8442TIP3   OH225270   3.486   2.284   4.591
 8442TIP3    H125271   3.420   2.227   4.554
 8442TIP3    H225272   3.481   2.364   4.539
 8443TIP3   OH225273   6.212   7.142   0.521
 8443TIP3    H125274   6.223   7.181   0.434
 8443TIP3    H225275   6.138   7.189   0.559
 8444TIP3   OH225276   2.567   1.290   5.083
 8444TIP3    H125277   2.648   1.238   5.080
 8444TIP3    H225278   2.507   1.243   5.025
 8445TIP3   OH225279   3.748   3.169   0.858
 8445TIP3    H125280   3.830   3.166   0.809
 8445TIP3    H225281   3.680   3.174   0.791
 8446TIP3   OH225282   5.753   2.103   0.869
 8446TIP3    H125283   5.790   2.038   0.808
 8446TIP3    H225284   5.800   2.184   0.848
 8447TIP3   OH225285   5.504   4.406   2.732
 8447TIP3    H125286   5.511   4.317   2.767
 8447TIP3    H225287   5.550   4.402   2.648
 8448TIP3   OH225288   4.213   4.345   3.615
 8448TIP3    H125289   4.229   4.251   3.624
 8448TIP3    H225290   4.119   4.355   3.634
 8449TIP3   OH225291   8.183   0.089   5.124
 8449TIP3    H125292   8.094   0.102   5.156
 8449TIP3    H225293   8.236   0.082   5.204
 8450TIP3   OH225294   5.069   6.206   0.662
 8450TIP3    H125295   5.011   6.257   0.719
 8450TIP3    H225296   5.089   6.127   0.712
 8451TIP3   OH225297   5.739   5.183   3.152
 8451TIP3    H125298   5.649   5.214   3.140
 8451TIP3    H225299   5.751   5.180   3.247
 8452TIP3   OH225300   7.877   2.540   4.993
 8452TIP3    H125301   7.918   2.609   5.045
 8452TIP3    H225302   7.941   2.469   4.993
 8453TIP3   OH225303   7.767   5.396   3.788
 8453TIP3    H125304   7.857   5.366   3.803
 8453TIP3    H225305   7.712   5.328   3.827
 8454TIP3   OH225306   4.608   1.431   0.243
 8454TIP3    H125307   4.660   1.505   0.273
 8454TIP3    H225308   4.522   1.468   0.224
 8455TIP3   OH225309   2.562   2.652   1.636
 8455TIP3    H125310   2.569   2.747   1.645
 8455TIP3    H225311   2.536   2.621   1.722
 8456TIP3   OH225312   6.502   6.475   2.983
 8456TIP3    H125313   6.571   6.498   3.045
 8456TIP3    H225314   6.541   6.408   2.927
 8457TIP3   OH225315   4.562   1.056   3.537
 8457TIP3    H125316   4.650   1.024   3.520
 8457TIP3    H225317   4.571   1.115   3.611
 8458TIP3   OH225318   3.666   7.024   5.868
 8458TIP3    H125319   3.682   7.115   5.844
 8458TIP3    H225320   3.711   7.013   5.952
 8459TIP3   OH225321   6.176   3.849   0.521
 8459TIP3    H125322   6.085   3.866   0.548
 8459TIP3    H225323   6.192   3.911   0.451
 8460TIP3   OH225324   0.270   2.926   4.367
 8460TIP3    H125325   0.205   2.985   4.328
 8460TIP3    H225326   0.322   2.982   4.425
 8461TIP3   OH225327   0.233   4.187   2.239
 8461TIP3    H125328   0.295   4.124   2.277
 8461TIP3    H225329   0.149   4.165   2.280
 8462TIP3   OH225330   0.400   3.561   5.136
 8462TIP3    H125331   0.330   3.624   5.115
 8462TIP3    H225332   0.471   3.616   5.170
 8463TIP3   OH225333   4.494   4.513   2.583
 8463TIP3    H125334   4.554   4.511   2.657
 8463TIP3    H225335   4.442   4.433   2.591
 8464TIP3   OH225336   5.574   4.423   0.859
 8464TIP3    H125337   5.495   4.374   0.884
 8464TIP3    H225338   5.573   4.422   0.764
 8465TIP3   OH225339   3.432   0.793   6.073
 8465TIP3    H125340   3.367   0.785   6.004
 8465TIP3    H225341   3.504   0.842   6.032
 8466TIP3   OH225342   2.491   2.059   4.756
 8466TIP3    H125343   2.461   2.144   4.725
 8466TIP3    H225344   2.521   2.014   4.677
 8467TIP3   OH225345   3.369   2.164   2.000
 8467TIP3    H125346   3.328   2.174   1.914
 8467TIP3    H225347   3.422   2.085   1.992
 8468TIP3   OH225348   2.285   3.008   4.046
 8468TIP3    H125349   2.326   2.961   4.119
 8468TIP3    H225350   2.269   2.940   3.980
 8469TIP3   OH225351   5.749   6.635   4.832
 8469TIP3    H125352   5.757   6.728   4.852
 8469TIP3    H225353   5.673   6.629   4.774
 8470TIP3   OH225354   0.853   0.953   4.854
 8470TIP3    H125355   0.887   0.874   4.813
 8470TIP3    H225356   0.759   0.938   4.862
 8471TIP3   OH225357   5.662   6.733   3.293
 8471TIP3    H125358   5.755   6.746   3.313
 8471TIP3    H225359   5.658   6.643   3.260
 8472TIP3   OH225360   5.804   4.157   3.370
 8472TIP3    H125361   5.712   4.147   3.344
 8472TIP3    H225362   5.840   4.069   3.366
 8473TIP3   OH225363   7.136   5.347   1.316
 8473TIP3    H125364   7.207   5.299   1.275
 8473TIP3    H225365   7.156   5.346   1.410
 8474TIP3   OH225366   6.550   5.759   0.504
 8474TIP3    H125367   6.481   5.824   0.518
 8474TIP3    H225368   6.610   5.773   0.577
 8475TIP3   OH225369   5.110   1.086   3.941
 8475TIP3    H125370   5.129   1.002   3.984
 8475TIP3    H225371   5.183   1.142   3.966
 8476TIP3   OH225372   2.440   5.116   1.391
 8476TIP3    H125373   2.413   5.146   1.478
 8476TIP3    H225374   2.406   5.182   1.331
 8477TIP3   OH225375   8.082   2.422   0.690
 8477TIP3    H125376   8.082   2.363   0.764
 8477TIP3    H225377   8.002   2.474   0.700
 8478TIP3   OH225378   3.256   1.985   4.843
 8478TIP3    H125379   3.297   1.905   4.811
 8478TIP3    H225380   3.316   2.055   4.819
 8479TIP3   OH225381   4.858   1.002   3.576
 8479TIP3    H125382   4.869   1.091   3.610
 8479TIP3    H225383   4.931   0.990   3.516
 8480TIP3   OH225384   7.787   0.892   4.651
 8480TIP3    H125385   7.878   0.866   4.634
 8480TIP3    H225386   7.744   0.811   4.676
 8481TIP3   OH225387   5.197   1.468   5.566
 8481TIP3    H125388   5.184   1.414   5.643
 8481TIP3    H225389   5.195   1.558   5.598
 8482TIP3   OH225390   1.644   5.904   3.675
 8482TIP3    H125391   1.596   5.822   3.689
 8482TIP3    H225392   1.612   5.962   3.745
 8483TIP3   OH225393   7.996   2.882   3.988
 8483TIP3    H125394   8.003   2.786   3.986
 8483TIP3    H225395   8.087   2.913   3.992
 8484TIP3   OH225396   4.982   1.651   4.917
 8484TIP3    H125397   5.005   1.601   4.838
 8484TIP3    H225398   4.963   1.739   4.884
 8485TIP3   OH225399   3.664   4.182   1.890
 8485TIP3    H125400   3.623   4.265   1.865
 8485TIP3    H225401   3.592   4.119   1.891
 8486TIP3   OH225402   5.652   0.630   3.806
 8486TIP3    H125403   5.709   0.626   3.883
 8486TIP3    H225404   5.705   0.672   3.739
 8487TIP3   OH225405   6.933   5.852   2.455
 8487TIP3    H125406   6.854   5.804   2.479
 8487TIP3    H225407   6.932   5.854   2.359
 8488TIP3   OH225408   4.375   6.986   6.264
 8488TIP3    H125409   4.450   6.938   6.298
 8488TIP3    H225410   4.350   7.045   6.335
 8489TIP3   OH225411   0.917   0.668   5.045
 8489TIP3    H125412   0.851   0.673   5.114
 8489TIP3    H225413   1.000   0.660   5.092
 8490TIP3   OH225414   0.471   2.483   6.357
 8490TIP3    H125415   0.393   2.473   6.303
 8490TIP3    H225416   0.441   2.534   6.433
 8491TIP3   OH225417   1.788   0.763   2.966
 8491TIP3    H125418   1.809   0.714   2.887
 8491TIP3    H225419   1.864   0.819   2.981
 8492TIP3   OH225420   1.883   5.482   1.931
 8492TIP3    H125421   1.796   5.524   1.931
 8492TIP3    H225422   1.875   5.412   1.866
 8493TIP3   OH225423   2.243   4.679   2.237
 8493TIP3    H125424   2.224   4.629   2.157
 8493TIP3    H225425   2.269   4.613   2.301
 8494TIP3   OH225426   3.187   6.188   5.264
 8494TIP3    H125427   3.120   6.207   5.330
 8494TIP3    H225428   3.265   6.166   5.315
 8495TIP3   OH225429   5.497   0.431   0.991
 8495TIP3    H125430   5.550   0.353   0.978
 8495TIP3    H225431   5.517   0.460   1.080
 8496TIP3   OH225432   2.629   7.637   1.985
 8496TIP3    H125433   2.546   7.678   1.962
 8496TIP3    H225434   2.695   7.686   1.935
 8497TIP3   OH225435   6.944   4.798   1.067
 8497TIP3    H125436   6.890   4.740   1.120
 8497TIP3    H225437   7.029   4.800   1.111
 8498TIP3   OH225438   1.831   3.913   1.279
 8498TIP3    H125439   1.879   3.909   1.196
 8498TIP3    H225440   1.884   3.969   1.335
 8499TIP3   OH225441   3.344   3.693   0.513
 8499TIP3    H125442   3.324   3.758   0.446
 8499TIP3    H225443   3.264   3.640   0.519
 8500TIP3   OH225444   4.364   3.122   0.774
 8500TIP3    H125445   4.368   3.027   0.785
 8500TIP3    H225446   4.403   3.138   0.688
 8501TIP3   OH225447   7.447   0.109   3.499
 8501TIP3    H125448   7.376   0.157   3.455
 8501TIP3    H225449   7.467   0.036   3.441
 8502TIP3   OH225450   5.228   5.361   2.139
 8502TIP3    H125451   5.254   5.433   2.196
 8502TIP3    H225452   5.259   5.387   2.052
 8503TIP3   OH225453   5.890   5.994   5.128
 8503TIP3    H125454   5.941   5.916   5.149
 8503TIP3    H225455   5.914   6.058   5.196
 8504TIP3   OH225456   0.688   2.647   2.391
 8504TIP3    H125457   0.636   2.723   2.416
 8504TIP3    H225458   0.721   2.612   2.474
 8505TIP3   OH225459   7.177   4.870   6.476
 8505TIP3    H125460   7.161   4.904   6.387
 8505TIP3    H225461   7.103   4.812   6.493
 8506TIP3   OH225462   3.061   1.739   0.685
 8506TIP3    H125463   3.140   1.756   0.634
 8506TIP3    H225464   3.078   1.781   0.769
 8507TIP3   OH225465   6.125   3.040   2.817
 8507TIP3    H125466   6.160   3.043   2.728
 8507TIP3    H225467   6.096   2.949   2.827
 8508TIP3   OH225468   2.460   2.408   4.159
 8508TIP3    H125469   2.489   2.490   4.197
 8508TIP3    H225470   2.373   2.394   4.195
 8509TIP3   OH225471   0.927   7.549   3.639
 8509TIP3    H125472   0.845   7.525   3.596
 8509TIP3    H225473   0.989   7.564   3.567
 8510TIP3   OH225474   1.655   1.068   0.884
 8510TIP3    H125475   1.711   1.122   0.941
 8510TIP3    H225476   1.599   1.019   0.945
 8511TIP3   OH225477   1.988   4.515   5.390
 8511TIP3    H125478   1.998   4.425   5.358
 8511TIP3    H225479   1.893   4.525   5.403
 8512TIP3   OH225480   4.114   4.127   4.686
 8512TIP3    H125481   4.059   4.051   4.664
 8512TIP3    H225482   4.169   4.140   4.609
 8513TIP3   OH225483   0.770   1.191   3.768
 8513TIP3    H125484   0.844   1.136   3.743
 8513TIP3    H225485   0.783   1.209   3.861
 8514TIP3   OH225486   4.135   2.154   4.754
 8514TIP3    H125487   4.157   2.069   4.792
 8514TIP3    H225488   4.162   2.218   4.821
 8515TIP3   OH225489   2.557   5.423   2.486
 8515TIP3    H125490   2.635   5.478   2.477
 8515TIP3    H225491   2.551   5.404   2.579
 8516TIP3   OH225492   2.135   7.330   5.190
 8516TIP3    H125493   2.057   7.299   5.143
 8516TIP3    H225494   2.183   7.383   5.127
 8517TIP3   OH225495   3.952   2.217   5.716
 8517TIP3    H125496   3.931   2.198   5.625
 8517TIP3    H225497   4.018   2.151   5.740
 8518TIP3   OH225498   2.043   7.467   5.411
 8518TIP3    H125499   2.079   7.437   5.327
 8518TIP3    H225500   1.973   7.527   5.387
 8519TIP3   OH225501   3.252   6.332   5.041
 8519TIP3    H125502   3.228   6.411   5.088
 8519TIP3    H225503   3.248   6.262   5.107
 8520TIP3   OH225504   2.882   0.915   1.220
 8520TIP3    H125505   2.853   0.928   1.311
 8520TIP3    H225506   2.936   0.836   1.223
 8521TIP3   OH225507   1.729   1.015   0.618
 8521TIP3    H125508   1.713   1.050   0.705
 8521TIP3    H225509   1.676   0.936   0.613
 8522TIP3   OH225510   8.022   4.453   0.941
 8522TIP3    H125511   8.021   4.365   0.903
 8522TIP3    H225512   7.932   4.484   0.929
 8523TIP3   OH225513   0.591   7.056   6.264
 8523TIP3    H125514   0.591   7.140   6.310
 8523TIP3    H225515   0.632   7.076   6.179
 8524TIP3   OH225516   7.751   3.488   4.454
 8524TIP3    H125517   7.753   3.462   4.362
 8524TIP3    H225518   7.768   3.582   4.453
 8525TIP3   OH225519   3.999   1.087   2.513
 8525TIP3    H125520   4.072   1.108   2.455
 8525TIP3    H225521   4.012   1.144   2.589
 8526TIP3   OH225522   0.847   1.989   1.700
 8526TIP3    H125523   0.850   2.009   1.606
 8526TIP3    H225524   0.767   1.938   1.711
 8527TIP3   OH225525   6.625   7.563   0.626
 8527TIP3    H125526   6.614   7.658   0.620
 8527TIP3    H225527   6.551   7.527   0.577
 8528TIP3   OH225528   0.977   2.615   2.526
 8528TIP3    H125529   0.993   2.543   2.466
 8528TIP3    H225530   0.974   2.574   2.613
 8529TIP3   OH225531   1.402   6.840   5.224
 8529TIP3    H125532   1.360   6.873   5.145
 8529TIP3    H225533   1.354   6.881   5.296
 8530TIP3   OH225534   7.175   1.554   0.090
 8530TIP3    H125535   7.094   1.589   0.054
 8530TIP3    H225536   7.226   1.631   0.114
 8531TIP3   OH225537   3.237   5.343   0.067
 8531TIP3    H125538   3.292   5.273   0.101
 8531TIP3    H225539   3.274   5.363  -0.019
 8532TIP3   OH225540   7.456   3.302   5.386
 8532TIP3    H125541   7.474   3.302   5.480
 8532TIP3    H225542   7.472   3.212   5.359
 8533TIP3   OH225543   2.992   1.577   5.772
 8533TIP3    H125544   2.939   1.656   5.764
 8533TIP3    H225545   2.983   1.551   5.863
 8534TIP3   OH225546   3.177   3.584   3.368
 8534TIP3    H125547   3.218   3.528   3.434
 8534TIP3    H225548   3.225   3.566   3.288
 8535TIP3   OH225549   3.787   2.358   2.775
 8535TIP3    H125550   3.714   2.367   2.714
 8535TIP3    H225551   3.798   2.264   2.785
 8536TIP3   OH225552   7.523   3.238   1.856
 8536TIP3    H125553   7.565   3.200   1.933
 8536TIP3    H225554   7.444   3.280   1.890
 8537TIP3   OH225555   6.307   2.954   4.855
 8537TIP3    H125556   6.331   3.045   4.873
 8537TIP3    H225557   6.282   2.954   4.762
 8538TIP3   OH225558   3.939   1.255   5.919
 8538TIP3    H125559   3.863   1.200   5.901
 8538TIP3    H225560   3.922   1.336   5.870
 8539TIP3   OH225561   4.406   1.714   5.642
 8539TIP3    H125562   4.443   1.710   5.730
 8539TIP3    H225563   4.481   1.716   5.584
 8540TIP3   OH225564   5.378   5.816   3.893
 8540TIP3    H125565   5.397   5.869   3.817
 8540TIP3    H225566   5.390   5.726   3.864
 8541TIP3   OH225567   2.320   2.073   4.422
 8541TIP3    H125568   2.280   1.988   4.401
 8541TIP3    H225569   2.369   2.057   4.502
 8542TIP3   OH225570   4.382   2.030   1.685
 8542TIP3    H125571   4.478   2.023   1.693
 8542TIP3    H225572   4.359   1.967   1.618
 8543TIP3   OH225573   4.480   5.006   5.314
 8543TIP3    H125574   4.548   5.055   5.267
 8543TIP3    H225575   4.464   4.930   5.259
 8544TIP3   OH225576   6.013   1.712   1.189
 8544TIP3    H125577   5.975   1.799   1.180
 8544TIP3    H225578   6.068   1.718   1.267
 8545TIP3   OH225579   8.103   6.700   1.034
 8545TIP3    H125580   8.017   6.722   0.999
 8545TIP3    H225581   8.153   6.781   1.029
 8546TIP3   OH225582   7.950   4.636   2.197
 8546TIP3    H125583   7.990   4.588   2.269
 8546TIP3    H225584   8.006   4.619   2.121
 8547TIP3   OH225585   6.239   4.671   3.175
 8547TIP3    H125586   6.291   4.725   3.235
 8547TIP3    H225587   6.177   4.626   3.231
 8548TIP3   OH225588   7.348   1.732   4.458
 8548TIP3    H125589   7.436   1.752   4.490
 8548TIP3    H225590   7.305   1.688   4.531
 8549TIP3   OH225591   4.837   3.083   2.540
 8549TIP3    H125592   4.912   3.134   2.569
 8549TIP3    H225593   4.789   3.142   2.482
 8550TIP3   OH225594   2.047   3.849   0.625
 8550TIP3    H125595   2.084   3.818   0.543
 8550TIP3    H225596   1.958   3.813   0.627
 8551TIP3   OH225597   4.567   5.120   0.890
 8551TIP3    H125598   4.614   5.153   0.967
 8551TIP3    H225599   4.479   5.157   0.899
 8552TIP3   OH225600   5.796   1.887   3.615
 8552TIP3    H125601   5.823   1.911   3.704
 8552TIP3    H225602   5.767   1.969   3.576
 8553TIP3   OH225603   8.093   6.649   5.208
 8553TIP3    H125604   8.060   6.628   5.121
 8553TIP3    H225605   8.159   6.716   5.194
 8554TIP3   OH225606   5.225   2.533   2.595
 8554TIP3    H125607   5.201   2.558   2.506
 8554TIP3    H225608   5.230   2.437   2.593
 8555TIP3   OH225609   6.035   1.523   1.784
 8555TIP3    H125610   5.941   1.541   1.784
 8555TIP3    H225611   6.058   1.522   1.691
 8556TIP3   OH225612   4.517   2.854   3.763
 8556TIP3    H125613   4.511   2.949   3.760
 8556TIP3    H225614   4.506   2.826   3.672
 8557TIP3   OH225615   3.398   4.983   4.836
 8557TIP3    H125616   3.312   5.023   4.844
 8557TIP3    H225617   3.446   5.015   4.913
 8558TIP3   OH225618   2.502   3.520   5.219
 8558TIP3    H125619   2.595   3.536   5.204
 8558TIP3    H225620   2.457   3.580   5.159
 8559TIP3   OH225621   1.898   1.899   6.547
 8559TIP3    H125622   1.987   1.863   6.544
 8559TIP3    H225623   1.875   1.897   6.640
 8560TIP3   OH225624   1.567   6.180   3.850
 8560TIP3    H125625   1.625   6.253   3.874
 8560TIP3    H225626   1.527   6.208   3.767
 8561TIP3   OH225627   0.680   2.913   6.385
 8561TIP3    H125628   0.652   2.823   6.366
 8561TIP3    H225629   0.766   2.903   6.426
 8562TIP3   OH225630   5.334   2.389   3.204
 8562TIP3    H125631   5.329   2.484   3.194
 8562TIP3    H225632   5.267   2.355   3.144
 8563TIP3   OH225633   7.960   6.195   0.956
 8563TIP3    H125634   8.011   6.225   1.032
 8563TIP3    H225635   7.912   6.119   0.988
 8564TIP3   OH225636   7.184   2.503   2.713
 8564TIP3    H125637   7.112   2.565   2.703
 8564TIP3    H225638   7.151   2.438   2.775
 8565TIP3   OH225639   1.643   0.781   2.551
 8565TIP3    H125640   1.565   0.727   2.539
 8565TIP3    H225641   1.708   0.722   2.589
 8566TIP3   OH225642   2.798   5.641   3.775
 8566TIP3    H125643   2.832   5.552   3.769
 8566TIP3    H225644   2.876   5.694   3.796
 8567TIP3   OH225645   7.597   2.605   4.284
 8567TIP3    H125646   7.655   2.680   4.295
 8567TIP3    H225647   7.629   2.540   4.347
 8568TIP3   OH225648   2.253   3.783   3.998
 8568TIP3    H125649   2.309   3.740   4.063
 8568TIP3    H225650   2.292   3.761   3.914
 8569TIP3   OH225651   1.493   3.229   0.974
 8569TIP3    H125652   1.526   3.229   0.884
 8569TIP3    H225653   1.572   3.238   1.028
 8570TIP3   OH225654   6.081   7.749   2.362
 8570TIP3    H125655   6.130   7.667   2.359
 8570TIP3    H225656   6.095   7.781   2.451
 8571TIP3   OH225657   2.803   4.335  -0.054
 8571TIP3    H125658   2.735   4.295   0.001
 8571TIP3    H225659   2.845   4.399   0.003
 8572TIP3   OH225660   1.841   6.895   3.751
 8572TIP3    H125661   1.807   6.846   3.825
 8572TIP3    H225662   1.932   6.867   3.743
 8573TIP3   OH225663   7.487   1.797   0.493
 8573TIP3    H125664   7.472   1.707   0.464
 8573TIP3    H225665   7.408   1.844   0.466
 8574TIP3   OH225666   7.361   2.166   5.882
 8574TIP3    H125667   7.393   2.248   5.919
 8574TIP3    H225668   7.437   2.108   5.881
 8575TIP3   OH225669   6.313   7.626   2.015
 8575TIP3    H125670   6.252   7.699   2.013
 8575TIP3    H225671   6.364   7.639   2.095
 8576TIP3   OH225672   7.069   0.682   1.292
 8576TIP3    H125673   6.999   0.734   1.252
 8576TIP3    H225674   7.047   0.591   1.270
 8577TIP3   OH225675   1.401   5.644   3.182
 8577TIP3    H125676   1.409   5.735   3.151
 8577TIP3    H225677   1.483   5.627   3.227
 8578TIP3   OH225678   4.345   1.323   0.072
 8578TIP3    H125679   4.303   1.257   0.018
 8578TIP3    H225680   4.435   1.327   0.040
 8579TIP3   OH225681   5.049   4.385   0.865
 8579TIP3    H125682   5.046   4.347   0.952
 8579TIP3    H225683   5.063   4.478   0.880
 8580TIP3   OH225684   3.719   0.201   6.219
 8580TIP3    H125685   3.628   0.212   6.246
 8580TIP3    H225686   3.768   0.257   6.278
 8581TIP3   OH225687   2.794   7.762   3.902
 8581TIP3    H125688   2.832   7.747   3.815
 8581TIP3    H225689   2.869   7.759   3.961
 8582TIP3   OH225690   1.666   5.294   0.095
 8582TIP3    H125691   1.733   5.311   0.162
 8582TIP3    H225692   1.640   5.381   0.065
 8583TIP3   OH225693   0.409   3.329   5.633
 8583TIP3    H125694   0.449   3.301   5.715
 8583TIP3    H225695   0.471   3.302   5.565
 8584TIP3   OH225696   0.302   3.097   1.884
 8584TIP3    H125697   0.383   3.115   1.837
 8584TIP3    H225698   0.248   3.175   1.870
 8585TIP3   OH225699   6.230   4.490   5.138
 8585TIP3    H125700   6.139   4.507   5.112
 8585TIP3    H225701   6.264   4.434   5.068
 8586TIP3   OH225702   1.975   3.140   2.368
 8586TIP3    H125703   1.962   3.177   2.455
 8586TIP3    H225704   1.958   3.214   2.309
 8587TIP3   OH225705   3.317   6.295   4.232
 8587TIP3    H125706   3.316   6.253   4.318
 8587TIP3    H225707   3.318   6.389   4.251
 8588TIP3   OH225708   0.857   4.103   4.706
 8588TIP3    H125709   0.940   4.057   4.722
 8588TIP3    H225710   0.830   4.072   4.620
 8589TIP3   OH225711   0.617   4.976   0.602
 8589TIP3    H125712   0.597   4.888   0.571
 8589TIP3    H225713   0.632   5.027   0.522
 8590TIP3   OH225714   1.625   5.439   0.497
 8590TIP3    H125715   1.621   5.528   0.534
 8590TIP3    H225716   1.618   5.382   0.573
 8591TIP3   OH225717   1.076   3.260   3.780
 8591TIP3    H125718   1.072   3.329   3.845
 8591TIP3    H225719   1.159   3.275   3.734
 8592TIP3   OH225720   2.099   2.484   2.419
 8592TIP3    H125721   2.048   2.505   2.497
 8592TIP3    H225722   2.035   2.457   2.354
 8593TIP3   OH225723   3.094   5.036   4.026
 8593TIP3    H125724   3.022   5.095   4.048
 8593TIP3    H225725   3.056   4.949   4.030
 8594TIP3   OH225726   7.412   6.148   2.278
 8594TIP3    H125727   7.424   6.059   2.311
 8594TIP3    H225728   7.440   6.143   2.186
 8595TIP3   OH225729   4.149   2.293   3.325
 8595TIP3    H125730   4.193   2.366   3.367
 8595TIP3    H225731   4.150   2.315   3.232
 8596TIP3   OH225732   7.607   7.589   0.368
 8596TIP3    H125733   7.659   7.562   0.444
 8596TIP3    H225734   7.587   7.681   0.385
 8597TIP3   OH225735   4.771   3.899   6.584
 8597TIP3    H125736   4.692   3.862   6.544
 8597TIP3    H225737   4.764   3.875   6.677
 8598TIP3   OH225738   1.744   2.872   3.117
 8598TIP3    H125739   1.805   2.929   3.070
 8598TIP3    H225740   1.721   2.922   3.196
 8599TIP3   OH225741   7.846   0.191   2.289
 8599TIP3    H125742   7.772   0.160   2.237
 8599TIP3    H225743   7.840   0.143   2.371
 8600TIP3   OH225744   4.391   0.351   0.821
 8600TIP3    H125745   4.426   0.429   0.779
 8600TIP3    H225746   4.407   0.281   0.758
 8601TIP3   OH225747   2.049   4.239   1.288
 8601TIP3    H125748   2.115   4.170   1.281
 8601TIP3    H225749   2.097   4.320   1.271
 8602TIP3   OH225750   4.530   0.194   1.543
 8602TIP3    H125751   4.514   0.128   1.610
 8602TIP3    H225752   4.621   0.178   1.516
 8603TIP3   OH225753   7.454   1.772   5.140
 8603TIP3    H125754   7.444   1.840   5.073
 8603TIP3    H225755   7.398   1.801   5.212
 8604TIP3   OH225756   2.854   3.225   3.275
 8604TIP3    H125757   2.903   3.143   3.283
 8604TIP3    H225758   2.894   3.270   3.201
 8605TIP3   OH225759   2.755   1.320   5.311
 8605TIP3    H125760   2.829   1.377   5.333
 8605TIP3    H225761   2.794   1.248   5.262
 8606TIP3   OH225762   3.046   1.808   2.796
 8606TIP3    H125763   2.982   1.820   2.725
 8606TIP3    H225764   3.065   1.896   2.827
 8607TIP3   OH225765   2.244   0.410   5.137
 8607TIP3    H125766   2.260   0.326   5.094
 8607TIP3    H225767   2.173   0.449   5.086
 8608TIP3   OH225768   3.416   3.819   6.647
 8608TIP3    H125769   3.415   3.844   6.555
 8608TIP3    H225770   3.463   3.890   6.690
 8609TIP3   OH225771   3.853   1.004   0.093
 8609TIP3    H125772   3.942   0.973   0.081
 8609TIP3    H225773   3.810   0.935   0.145
 8610TIP3   OH225774   1.830   3.075   1.376
 8610TIP3    H125775   1.842   2.994   1.326
 8610TIP3    H225776   1.739   3.072   1.405
 8611TIP3   OH225777   4.831   0.430   3.318
 8611TIP3    H125778   4.831   0.521   3.345
 8611TIP3    H225779   4.763   0.426   3.250
 8612TIP3   OH225780   7.828   5.106   4.694
 8612TIP3    H125781   7.910   5.144   4.662
 8612TIP3    H225782   7.760   5.145   4.639
 8613TIP3   OH225783   3.397   7.381   2.226
 8613TIP3    H125784   3.395   7.308   2.165
 8613TIP3    H225785   3.481   7.373   2.271
 8614TIP3   OH225786   7.178   0.310   2.494
 8614TIP3    H125787   7.263   0.346   2.470
 8614TIP3    H225788   7.193   0.216   2.503
 8615TIP3   OH225789   1.549   1.011   5.233
 8615TIP3    H125790   1.519   1.067   5.305
 8615TIP3    H225791   1.578   1.072   5.165
 8616TIP3   OH225792   3.398   2.547   2.127
 8616TIP3    H125793   3.474   2.539   2.069
 8616TIP3    H225794   3.350   2.464   2.115
 8617TIP3   OH225795   2.728   1.791   5.205
 8617TIP3    H125796   2.754   1.815   5.116
 8617TIP3    H225797   2.799   1.824   5.261
 8618TIP3   OH225798   1.188   7.176   1.269
 8618TIP3    H125799   1.263   7.226   1.303
 8618TIP3    H225800   1.197   7.089   1.308
 8619TIP3   OH225801   0.002   0.889   2.657
 8619TIP3    H125802  -0.015   0.935   2.739
 8619TIP3    H225803  -0.037   0.803   2.669
 8620TIP3   OH225804   1.530   6.804   0.668
 8620TIP3    H125805   1.477   6.848   0.735
 8620TIP3    H225806   1.525   6.862   0.592
 8621TIP3   OH225807   1.406   2.816   5.618
 8621TIP3    H125808   1.470   2.746   5.608
 8621TIP3    H225809   1.455   2.888   5.658
 8622TIP3   OH225810   3.987   0.755   4.410
 8622TIP3    H125811   4.022   0.825   4.355
 8622TIP3    H225812   3.892   0.758   4.395
 8623TIP3   OH225813   1.940   6.468   5.905
 8623TIP3    H125814   1.860   6.442   5.860
 8623TIP3    H225815   1.971   6.545   5.857
 8624TIP3   OH225816   6.632   4.428   1.351
 8624TIP3    H125817   6.691   4.482   1.403
 8624TIP3    H225818   6.547   4.470   1.360
 8625TIP3   OH225819   2.412   2.059   5.057
 8625TIP3    H125820   2.324   2.045   5.022
 8625TIP3    H225821   2.439   1.973   5.090
 8626TIP3   OH225822   4.322   2.056   3.138
 8626TIP3    H125823   4.318   2.119   3.066
 8626TIP3    H225824   4.403   2.078   3.184
 8627TIP3   OH225825   5.419   1.911   4.185
 8627TIP3    H125826   5.508   1.920   4.150
 8627TIP3    H225827   5.364   1.900   4.108
 8628TIP3   OH225828   1.059   2.502   3.872
 8628TIP3    H125829   1.140   2.548   3.895
 8628TIP3    H225830   1.009   2.501   3.954
 8629TIP3   OH225831   2.224   2.587   4.777
 8629TIP3    H125832   2.138   2.623   4.800
 8629TIP3    H225833   2.274   2.589   4.858
 8630TIP3   OH225834   7.070   6.696   4.097
 8630TIP3    H125835   7.057   6.783   4.059
 8630TIP3    H225836   7.050   6.707   4.190
 8631TIP3   OH225837   0.052   2.180   6.364
 8631TIP3    H125838   0.104   2.149   6.438
 8631TIP3    H225839  -0.022   2.225   6.404
 8632TIP3   OH225840   1.517   0.290   2.457
 8632TIP3    H125841   1.421   0.286   2.465
 8632TIP3    H225842   1.533   0.344   2.380
 8633TIP3   OH225843   3.272   5.815   3.958
 8633TIP3    H125844   3.327   5.737   3.948
 8633TIP3    H225845   3.320   5.884   3.913
 8634TIP3   OH225846   1.659   4.758   6.724
 8634TIP3    H125847   1.658   4.681   6.668
 8634TIP3    H225848   1.643   4.832   6.665
 8635TIP3   OH225849   5.432   6.893   3.260
 8635TIP3    H125850   5.483   6.863   3.335
 8635TIP3    H225851   5.388   6.815   3.227
 8636TIP3   OH225852   7.368   5.243   1.897
 8636TIP3    H125853   7.275   5.219   1.894
 8636TIP3    H225854   7.413   5.169   1.857
 8637TIP3   OH225855   4.098   0.902   5.814
 8637TIP3    H125856   4.042   0.951   5.754
 8637TIP3    H225857   4.167   0.965   5.838
 8638TIP3   OH225858   3.664   3.829   2.717
 8638TIP3    H125859   3.642   3.737   2.715
 8638TIP3    H225860   3.651   3.856   2.808
 8639TIP3   OH225861   3.423   3.216   3.256
 8639TIP3    H125862   3.434   3.187   3.165
 8639TIP3    H225863   3.419   3.134   3.306
 8640TIP3   OH225864   2.519   5.960   6.461
 8640TIP3    H125865   2.601   6.008   6.459
 8640TIP3    H225866   2.522   5.904   6.383
 8641TIP3   OH225867   1.838   5.650   2.390
 8641TIP3    H125868   1.849   5.568   2.342
 8641TIP3    H225869   1.913   5.655   2.449
 8642TIP3   OH225870   1.133   2.892   4.490
 8642TIP3    H125871   1.070   2.952   4.450
 8642TIP3    H225872   1.219   2.933   4.474
 8643TIP3   OH225873   5.843   6.532   1.831
 8643TIP3    H125874   5.847   6.476   1.910
 8643TIP3    H225875   5.931   6.567   1.822
 8644TIP3   OH225876   3.734   6.555   4.270
 8644TIP3    H125877   3.744   6.479   4.213
 8644TIP3    H225878   3.651   6.540   4.316
 8645TIP3   OH225879   3.498   3.463   1.646
 8645TIP3    H125880   3.418   3.490   1.690
 8645TIP3    H225881   3.553   3.428   1.716
 8646TIP3   OH225882   0.115   0.632   1.163
 8646TIP3    H125883   0.072   0.712   1.192
 8646TIP3    H225884   0.123   0.643   1.068
 8647TIP3   OH225885   6.505   0.455   3.026
 8647TIP3    H125886   6.437   0.522   3.037
 8647TIP3    H225887   6.575   0.482   3.086
 8648TIP3   OH225888   4.777   6.488   6.014
 8648TIP3    H125889   4.824   6.558   5.969
 8648TIP3    H225890   4.708   6.533   6.063
 8649TIP3   OH225891   0.576   3.223   5.457
 8649TIP3    H125892   0.566   3.229   5.362
 8649TIP3    H225893   0.665   3.190   5.470
 8650TIP3   OH225894   1.346   2.103   3.054
 8650TIP3    H125895   1.269   2.056   3.087
 8650TIP3    H225896   1.343   2.090   2.959
 8651TIP3   OH225897   7.765   2.892   0.986
 8651TIP3    H125898   7.847   2.846   0.968
 8651TIP3    H225899   7.700   2.823   0.996
 8652TIP3   OH225900   1.598   7.785   4.296
 8652TIP3    H125901   1.609   7.862   4.352
 8652TIP3    H225902   1.544   7.816   4.223
 8653TIP3   OH225903   0.400   4.447   4.032
 8653TIP3    H125904   0.309   4.421   4.021
 8653TIP3    H225905   0.397   4.543   4.042
 8654TIP3   OH225906   4.919   3.390   5.725
 8654TIP3    H125907   4.921   3.397   5.630
 8654TIP3    H225908   4.936   3.479   5.756
 8655TIP3   OH225909   7.649   5.169   3.551
 8655TIP3    H125910   7.731   5.142   3.593
 8655TIP3    H225911   7.587   5.177   3.624
 8656TIP3   OH225912   8.126   3.540   4.082
 8656TIP3    H125913   8.080   3.488   4.017
 8656TIP3    H225914   8.169   3.610   4.032
 8657TIP3   OH225915   0.051   1.884   4.880
 8657TIP3    H125916   0.072   1.802   4.923
 8657TIP3    H225917   0.133   1.914   4.842
 8658TIP3   OH225918   0.120   4.817   2.341
 8658TIP3    H125919   0.024   4.821   2.343
 8658TIP3    H225920   0.141   4.728   2.367
 8659TIP3   OH225921   2.268   0.029   3.359
 8659TIP3    H125922   2.293  -0.020   3.438
 8659TIP3    H225923   2.219   0.105   3.393
 8660TIP3   OH225924   5.132   4.157   2.628
 8660TIP3    H125925   5.149   4.251   2.621
 8660TIP3    H225926   5.039   4.151   2.652
 8661TIP3   OH225927   7.672   4.366   3.067
 8661TIP3    H125928   7.628   4.283   3.051
 8661TIP3    H225929   7.607   4.420   3.112
 8662TIP3   OH225930   2.650   3.847   2.214
 8662TIP3    H125931   2.627   3.872   2.125
 8662TIP3    H225932   2.592   3.899   2.269
 8663TIP3   OH225933   4.278   6.407   5.217
 8663TIP3    H125934   4.340   6.366   5.277
 8663TIP3    H225935   4.240   6.334   5.168
 8664TIP3   OH225936   5.469   5.519   6.520
 8664TIP3    H125937   5.415   5.561   6.587
 8664TIP3    H225938   5.415   5.521   6.441
 8665TIP3   OH225939   6.352   6.784   3.560
 8665TIP3    H125940   6.398   6.727   3.622
 8665TIP3    H225941   6.388   6.871   3.578
 8666TIP3   OH225942   4.606   6.513   1.043
 8666TIP3    H125943   4.590   6.559   1.126
 8666TIP3    H225944   4.533   6.452   1.036
 8667TIP3   OH225945   0.861   6.812   4.219
 8667TIP3    H125946   0.845   6.856   4.135
 8667TIP3    H225947   0.841   6.720   4.202
 8668TIP3   OH225948   6.083   5.073   4.672
 8668TIP3    H125949   6.171   5.106   4.655
 8668TIP3    H225950   6.074   4.999   4.612
 8669TIP3   OH225951   6.478   1.779   6.391
 8669TIP3    H125952   6.547   1.771   6.325
 8669TIP3    H225953   6.402   1.735   6.352
 8670TIP3   OH225954   3.800   3.204   2.710
 8670TIP3    H125955   3.875   3.213   2.768
 8670TIP3    H225956   3.825   3.250   2.630
 8671TIP3   OH225957   2.034   4.193   3.132
 8671TIP3    H125958   2.001   4.104   3.145
 8671TIP3    H225959   1.957   4.242   3.103
 8672TIP3   OH225960   8.001   1.516   4.244
 8672TIP3    H125961   7.920   1.488   4.202
 8672TIP3    H225962   8.024   1.445   4.304
 8673TIP3   OH225963   4.944   3.394   5.439
 8673TIP3    H125964   4.901   3.314   5.408
 8673TIP3    H225965   4.902   3.464   5.390
 8674TIP3   OH225966   2.607   5.360   4.404
 8674TIP3    H125967   2.625   5.268   4.387
 8674TIP3    H225968   2.652   5.407   4.333
 8675TIP3   OH225969   7.170   0.899   6.309
 8675TIP3    H125970   7.242   0.910   6.247
 8675TIP3    H225971   7.148   0.989   6.335
 8676TIP3   OH225972   7.766   0.773   6.288
 8676TIP3    H125973   7.736   0.725   6.212
 8676TIP3    H225974   7.836   0.719   6.325
 8677TIP3   OH225975   1.654   7.599   4.802
 8677TIP3    H125976   1.624   7.509   4.790
 8677TIP3    H225977   1.696   7.621   4.719
 8678TIP3   OH225978   5.356   1.803   6.276
 8678TIP3    H125979   5.438   1.799   6.326
 8678TIP3    H225980   5.289   1.772   6.338
 8679TIP3   OH225981   3.272   2.992   3.015
 8679TIP3    H125982   3.366   2.979   3.013
 8679TIP3    H225983   3.261   3.086   2.999
 8680TIP3   OH225984   7.268   2.900   5.159
 8680TIP3    H125985   7.327   2.951   5.213
 8680TIP3    H225986   7.211   2.965   5.117
 8681TIP3   OH225987   7.784   6.432   3.259
 8681TIP3    H125988   7.754   6.467   3.343
 8681TIP3    H225989   7.710   6.381   3.226
 8682TIP3   OH225990   1.329   3.417   5.121
 8682TIP3    H125991   1.336   3.480   5.049
 8682TIP3    H225992   1.235   3.406   5.135
 8683TIP3   OH225993   2.615   2.423   0.949
 8683TIP3    H125994   2.701   2.385   0.930
 8683TIP3    H225995   2.606   2.417   1.044
 8684TIP3   OH225996   4.333   2.702   6.085
 8684TIP3    H125997   4.287   2.752   6.017
 8684TIP3    H225998   4.280   2.713   6.163
 8685TIP3   OH225999   0.050   5.755   6.339
 8685TIP3    H126000   0.092   5.717   6.262
 8685TIP3    H226001  -0.012   5.688   6.368
 8686TIP3   OH226002   4.066   0.287   0.911
 8686TIP3    H126003   4.046   0.240   0.830
 8686TIP3    H226004   3.987   0.279   0.964
 8687TIP3   OH226005   4.961   5.909   2.416
 8687TIP3    H126006   5.052   5.931   2.436
 8687TIP3    H226007   4.953   5.817   2.444
 8688TIP3   OH226008   3.120   3.889   1.127
 8688TIP3    H126009   3.157   3.887   1.216
 8688TIP3    H226010   3.180   3.837   1.074
 8689TIP3   OH226011   7.514   6.745   6.492
 8689TIP3    H126012   7.540   6.653   6.503
 8689TIP3    H226013   7.538   6.787   6.575
 8690TIP3   OH226014   0.663   0.953   2.723
 8690TIP3    H126015   0.578   0.917   2.698
 8690TIP3    H226016   0.682   1.018   2.655
 8691TIP3   OH226017   5.955   7.146   5.104
 8691TIP3    H126018   6.020   7.153   5.173
 8691TIP3    H226019   5.882   7.200   5.134
 8692TIP3   OH226020   5.977   4.208   1.159
 8692TIP3    H126021   6.055   4.165   1.125
 8692TIP3    H226022   5.908   4.143   1.153
 8693TIP3   OH226023   7.612   6.518   6.593
 8693TIP3    H126024   7.676   6.481   6.655
 8693TIP3    H226025   7.582   6.442   6.543
 8694TIP3   OH226026   5.039   7.071   4.489
 8694TIP3    H126027   4.967   7.014   4.461
 8694TIP3    H226028   5.011   7.159   4.463
 8695TIP3   OH226029   2.035   4.135   0.711
 8695TIP3    H126030   2.051   4.076   0.638
 8695TIP3    H226031   1.979   4.086   0.771
 8696TIP3   OH226032   5.428   6.078   6.178
 8696TIP3    H126033   5.372   6.092   6.255
 8696TIP3    H226034   5.487   6.007   6.205
 8697TIP3   OH226035   5.825   0.961   0.463
 8697TIP3    H126036   5.741   0.959   0.510
 8697TIP3    H226037   5.890   0.976   0.531
 8698TIP3   OH226038   6.310   7.057   5.439
 8698TIP3    H126039   6.402   7.073   5.417
 8698TIP3    H226040   6.304   7.076   5.533
 8699TIP3   OH226041   3.200   1.689   1.626
 8699TIP3    H126042   3.194   1.595   1.607
 8699TIP3    H226043   3.288   1.714   1.598
 8700TIP3   OH226044   7.525   5.795   5.480
 8700TIP3    H126045   7.605   5.839   5.508
 8700TIP3    H226046   7.477   5.861   5.430
 8701TIP3   OH226047   1.519   3.022   6.718
 8701TIP3    H126048   1.578   2.951   6.746
 8701TIP3    H226049   1.574   3.100   6.721
 8702TIP3   OH226050   1.689   6.180   2.199
 8702TIP3    H126051   1.669   6.095   2.240
 8702TIP3    H226052   1.755   6.219   2.257
 8703TIP3   OH226053   7.649   3.805   4.966
 8703TIP3    H126054   7.591   3.880   4.968
 8703TIP3    H226055   7.699   3.816   4.885
 8704TIP3   OH226056   2.010   5.735   6.183
 8704TIP3    H126057   2.070   5.660   6.188
 8704TIP3    H226058   1.925   5.698   6.209
 8705TIP3   OH226059   6.609   2.338   0.989
 8705TIP3    H126060   6.602   2.308   0.898
 8705TIP3    H226061   6.561   2.421   0.991
 8706TIP3   OH226062   5.478   6.730  -0.044
 8706TIP3    H126063   5.484   6.753   0.049
 8706TIP3    H226064   5.451   6.638  -0.044
 8707TIP3   OH226065   2.321   3.589   1.781
 8707TIP3    H126066   2.270   3.622   1.856
 8707TIP3    H226067   2.335   3.666   1.726
 8708TIP3   OH226068   4.333   5.229   1.003
 8708TIP3    H126069   4.266   5.231   0.935
 8708TIP3    H226070   4.305   5.159   1.063
 8709TIP3   OH226071   1.332   1.063   2.730
 8709TIP3    H126072   1.418   1.097   2.704
 8709TIP3    H226073   1.314   0.992   2.668
 8710TIP3   OH226074   7.022   6.863   6.503
 8710TIP3    H126075   7.083   6.839   6.434
 8710TIP3    H226076   6.980   6.943   6.471
 8711TIP3   OH226077   7.452   3.713   3.770
 8711TIP3    H126078   7.507   3.680   3.841
 8711TIP3    H226079   7.429   3.803   3.797
 8712TIP3   OH226080   5.688   2.266   3.732
 8712TIP3    H126081   5.617   2.213   3.766
 8712TIP3    H226082   5.712   2.324   3.804
 8713TIP3   OH226083   3.417   6.701   3.598
 8713TIP3    H126084   3.460   6.642   3.660
 8713TIP3    H226085   3.327   6.668   3.593
 8714TIP3   OH226086   6.536   1.955   2.956
 8714TIP3    H126087   6.532   1.912   2.870
 8714TIP3    H226088   6.467   1.912   3.007
 8715TIP3   OH226089   2.843   5.437   3.491
 8715TIP3    H126090   2.909   5.403   3.551
 8715TIP3    H226091   2.885   5.511   3.449
 8716TIP3   OH226092   4.098   3.584   4.530
 8716TIP3    H126093   4.061   3.568   4.444
 8716TIP3    H226094   4.179   3.532   4.532
 8717TIP3   OH226095   5.332   5.692   1.020
 8717TIP3    H126096   5.277   5.765   1.049
 8717TIP3    H226097   5.294   5.615   1.062
 8718TIP3   OH226098   1.467   1.089   0.471
 8718TIP3    H126099   1.556   1.054   0.473
 8718TIP3    H226100   1.420   1.041   0.539
 8719TIP3   OH226101   5.111   6.699   2.392
 8719TIP3    H126102   5.172   6.767   2.421
 8719TIP3    H226103   5.026   6.726   2.429
 8720TIP3   OH226104   2.657   1.775   6.185
 8720TIP3    H126105   2.562   1.785   6.178
 8720TIP3    H226106   2.690   1.862   6.205
 8721TIP3   OH226107   1.459   1.386   3.793
 8721TIP3    H126108   1.533   1.391   3.732
 8721TIP3    H226109   1.448   1.293   3.809
 8722TIP3   OH226110   3.483   5.608   2.562
 8722TIP3    H126111   3.431   5.532   2.536
 8722TIP3    H226112   3.432   5.649   2.632
 8723TIP3   OH226113   0.215   2.426   6.263
 8723TIP3    H126114   0.176   2.346   6.297
 8723TIP3    H226115   0.140   2.480   6.238
 8724TIP3   OH226116   3.891   7.108   5.079
 8724TIP3    H126117   3.935   7.042   5.025
 8724TIP3    H226118   3.918   7.192   5.041
 8725TIP3   OH226119   1.414   2.580   5.417
 8725TIP3    H126120   1.503   2.544   5.416
 8725TIP3    H226121   1.377   2.548   5.499
 8726TIP3   OH226122   3.616   6.508   6.454
 8726TIP3    H126123   3.655   6.429   6.417
 8726TIP3    H226124   3.522   6.496   6.440
 8727TIP3   OH226125   7.348   2.953   0.473
 8727TIP3    H126126   7.326   2.989   0.387
 8727TIP3    H226127   7.442   2.934   0.467
 8728TIP3   OH226128   7.088   5.339   5.965
 8728TIP3    H126129   7.124   5.254   5.941
 8728TIP3    H226130   6.994   5.323   5.973
 8729TIP3   OH226131   2.313   1.388   2.129
 8729TIP3    H126132   2.294   1.455   2.195
 8729TIP3    H226133   2.327   1.437   2.048
 8730TIP3   OH226134   2.634   6.531   5.792
 8730TIP3    H126135   2.666   6.619   5.812
 8730TIP3    H226136   2.596   6.500   5.874
 8731TIP3   OH226137   0.790   4.140   0.029
 8731TIP3    H126138   0.705   4.096   0.023
 8731TIP3    H226139   0.818   4.123   0.119
 8732TIP3   OH226140   7.583   6.190   4.355
 8732TIP3    H126141   7.607   6.178   4.263
 8732TIP3    H226142   7.557   6.282   4.360
 8733TIP3   OH226143   2.389   7.081   0.370
 8733TIP3    H126144   2.364   7.157   0.317
 8733TIP3    H226145   2.402   7.010   0.306
 8734TIP3   OH226146   8.060   0.202   6.455
 8734TIP3    H126147   7.999   0.236   6.520
 8734TIP3    H226148   8.140   0.252   6.469
 8735TIP3   OH226149   6.985   6.300   1.107
 8735TIP3    H126150   7.040   6.253   1.045
 8735TIP3    H226151   6.896   6.286   1.075
 8736TIP3   OH226152   0.549   3.505   2.083
 8736TIP3    H126153   0.537   3.413   2.102
 8736TIP3    H226154   0.530   3.513   1.989
 8737TIP3   OH226155   5.956   7.390   6.622
 8737TIP3    H126156   5.879   7.392   6.679
 8737TIP3    H226157   5.944   7.313   6.567
 8738TIP3   OH226158   2.534   0.781   6.322
 8738TIP3    H126159   2.489   0.853   6.277
 8738TIP3    H226160   2.465   0.720   6.344
 8739TIP3   OH226161   6.571   0.043   0.173
 8739TIP3    H126162   6.611  -0.038   0.206
 8739TIP3    H226163   6.498   0.014   0.120
 8740TIP3   OH226164   7.313   0.616   1.000
 8740TIP3    H126165   7.274   0.701   1.019
 8740TIP3    H226166   7.252   0.576   0.938
 8741TIP3   OH226167   6.349   5.319   1.515
 8741TIP3    H126168   6.346   5.370   1.435
 8741TIP3    H226169   6.321   5.231   1.489
 8742TIP3   OH226170   4.796   2.169   5.355
 8742TIP3    H126171   4.726   2.105   5.364
 8742TIP3    H226172   4.754   2.253   5.374
 8743TIP3   OH226173   8.081   0.773   3.922
 8743TIP3    H126174   8.131   0.847   3.955
 8743TIP3    H226175   8.012   0.812   3.869
 8744TIP3   OH226176   4.807   7.329   3.998
 8744TIP3    H126177   4.792   7.259   3.935
 8744TIP3    H226178   4.743   7.396   3.975
 8745TIP3   OH226179   3.190   2.770   4.828
 8745TIP3    H126180   3.211   2.689   4.876
 8745TIP3    H226181   3.272   2.794   4.785
 8746TIP3   OH226182   1.122   7.232   4.872
 8746TIP3    H126183   1.047   7.287   4.850
 8746TIP3    H226184   1.174   7.285   4.932
 8747TIP3   OH226185   7.908   4.826   1.238
 8747TIP3    H126186   7.968   4.871   1.178
 8747TIP3    H226187   7.960   4.754   1.273
 8748TIP3   OH226188   4.662   4.917   5.033
 8748TIP3    H126189   4.668   5.003   5.075
 8748TIP3    H226190   4.734   4.866   5.069
 8749TIP3   OH226191   7.069   1.967   3.417
 8749TIP3    H126192   7.129   2.028   3.460
 8749TIP3    H226193   7.125   1.911   3.363
 8750TIP3   OH226194   3.462   4.371   4.263
 8750TIP3    H126195   3.431   4.289   4.225
 8750TIP3    H226196   3.543   4.390   4.215
 8751TIP3   OH226197   5.448   6.622   0.544
 8751TIP3    H126198   5.496   6.539   0.547
 8751TIP3    H226199   5.409   6.624   0.456
 8752TIP3   OH226200   0.285   2.607   1.249
 8752TIP3    H126201   0.260   2.676   1.189
 8752TIP3    H226202   0.275   2.526   1.199
 8753TIP3   OH226203   3.040   0.158   1.919
 8753TIP3    H126204   3.042   0.126   1.829
 8753TIP3    H226205   2.951   0.193   1.930
 8754TIP3   OH226206   5.626   5.648   5.557
 8754TIP3    H126207   5.660   5.710   5.620
 8754TIP3    H226208   5.638   5.690   5.472
 8755TIP3   OH226209   0.944   2.698   4.392
 8755TIP3    H126210   1.014   2.760   4.414
 8755TIP3    H226211   0.971   2.617   4.436
 8756TIP3   OH226212   3.642   7.635   0.423
 8756TIP3    H126213   3.691   7.641   0.505
 8756TIP3    H226214   3.567   7.580   0.444
 8757TIP3   OH226215   2.984   2.737   2.887
 8757TIP3    H126216   3.075   2.746   2.861
 8757TIP3    H226217   2.952   2.826   2.897
 8758TIP3   OH226218   5.602   1.219   3.568
 8758TIP3    H126219   5.659   1.285   3.528
 8758TIP3    H226220   5.650   1.136   3.558
 8759TIP3   OH226221   3.202   4.750   5.272
 8759TIP3    H126222   3.197   4.701   5.354
 8759TIP3    H226223   3.219   4.683   5.206
 8760TIP3   OH226224   8.039   2.786   4.506
 8760TIP3    H126225   8.035   2.728   4.582
 8760TIP3    H226226   8.013   2.872   4.539
 8761TIP3   OH226227   5.368   2.140   5.463
 8761TIP3    H126228   5.396   2.229   5.484
 8761TIP3    H226229   5.379   2.134   5.368
 8762TIP3   OH226230   3.413   2.122   6.244
 8762TIP3    H126231   3.495   2.168   6.227
 8762TIP3    H226232   3.406   2.058   6.173
 8763TIP3   OH226233   4.574   4.072   5.815
 8763TIP3    H126234   4.554   4.013   5.742
 8763TIP3    H226235   4.504   4.137   5.814
 8764TIP3   OH226236   3.634   7.350   0.776
 8764TIP3    H126237   3.578   7.333   0.852
 8764TIP3    H226238   3.605   7.285   0.711
 8765TIP3   OH226239   5.934   0.459   5.619
 8765TIP3    H126240   5.946   0.378   5.569
 8765TIP3    H226241   5.969   0.440   5.706
 8766TIP3   OH226242   7.144   7.755   3.755
 8766TIP3    H126243   7.091   7.679   3.778
 8766TIP3    H226244   7.122   7.821   3.821
 8767TIP3   OH226245   2.087   7.337   3.469
 8767TIP3    H126246   2.166   7.379   3.436
 8767TIP3    H226247   2.049   7.295   3.391
 8768TIP3   OH226248   1.503   7.640   3.864
 8768TIP3    H126249   1.594   7.665   3.849
 8768TIP3    H226250   1.453   7.720   3.848
 8769TIP3   OH226251   4.708   4.767   2.871
 8769TIP3    H126252   4.672   4.836   2.816
 8769TIP3    H226253   4.660   4.774   2.953
 8770TIP3   OH226254   4.943   2.521   3.787
 8770TIP3    H126255   4.854   2.496   3.813
 8770TIP3    H226256   4.932   2.560   3.701
 8771TIP3   OH226257   7.671   7.268   3.696
 8771TIP3    H126258   7.754   7.225   3.675
 8771TIP3    H226259   7.652   7.323   3.620
 8772TIP3   OH226260   5.631   7.429   1.397
 8772TIP3    H126261   5.597   7.346   1.430
 8772TIP3    H226262   5.586   7.442   1.313
 8773TIP3   OH226263   2.455   0.166   2.002
 8773TIP3    H126264   2.498   0.093   2.046
 8773TIP3    H226265   2.386   0.125   1.950
 8774TIP3   OH226266   3.141   7.261   5.561
 8774TIP3    H126267   3.161   7.217   5.644
 8774TIP3    H226268   3.217   7.244   5.506
 8775TIP3   OH226269   0.648   4.703   5.034
 8775TIP3    H126270   0.675   4.667   5.118
 8775TIP3    H226271   0.709   4.665   4.971
 8776TIP3   OH226272   4.901   3.028   4.575
 8776TIP3    H126273   4.951   3.098   4.618
 8776TIP3    H226274   4.934   3.026   4.485
 8777TIP3   OH226275   6.869   1.199   4.677
 8777TIP3    H126276   6.843   1.250   4.600
 8777TIP3    H226277   6.787   1.164   4.712
 8778TIP3   OH226278   0.744   2.945   3.129
 8778TIP3    H126279   0.769   3.026   3.084
 8778TIP3    H226280   0.797   2.877   3.087
 8779TIP3   OH226281   6.828   0.271   0.597
 8779TIP3    H126282   6.807   0.296   0.687
 8779TIP3    H226283   6.743   0.248   0.558
 8780TIP3   OH226284   5.952   1.722   3.414
 8780TIP3    H126285   6.043   1.750   3.412
 8780TIP3    H226286   5.911   1.779   3.479
 8781TIP3   OH226287   6.485   2.532   4.493
 8781TIP3    H126288   6.542   2.608   4.485
 8781TIP3    H226289   6.444   2.542   4.579
 8782TIP3   OH226290   2.387   3.593   6.654
 8782TIP3    H126291   2.428   3.608   6.739
 8782TIP3    H226292   2.445   3.531   6.610
 8783TIP3   OH226293   3.436   1.643   5.576
 8783TIP3    H126294   3.445   1.606   5.488
 8783TIP3    H226295   3.491   1.722   5.574
 8784TIP3   OH226296   5.368   6.948   6.716
 8784TIP3    H126297   5.288   6.999   6.727
 8784TIP3    H226298   5.414   6.957   6.800
 8785TIP3   OH226299   2.519   7.051   4.749
 8785TIP3    H126300   2.495   6.964   4.783
 8785TIP3    H226301   2.438   7.102   4.755
 8786TIP3   OH226302   7.634   1.161   3.054
 8786TIP3    H126303   7.544   1.191   3.066
 8786TIP3    H226304   7.672   1.160   3.142
 8787TIP3   OH226305   0.425   7.045   0.256
 8787TIP3    H126306   0.353   6.985   0.239
 8787TIP3    H226307   0.394   7.129   0.223
 8788TIP3   OH226308   3.367   5.182   0.687
 8788TIP3    H126309   3.326   5.262   0.721
 8788TIP3    H226310   3.350   5.185   0.593
 8789TIP3   OH226311   6.214   3.026   1.277
 8789TIP3    H126312   6.276   2.953   1.264
 8789TIP3    H226313   6.270   3.102   1.293
 8790TIP3   OH226314   0.171   2.090   2.908
 8790TIP3    H126315   0.174   2.085   2.813
 8790TIP3    H226316   0.185   2.183   2.927
 8791TIP3   OH226317   6.266   2.298   0.400
 8791TIP3    H126318   6.176   2.328   0.409
 8791TIP3    H226319   6.257   2.208   0.368
 8792TIP3   OH226320   2.336   2.480   0.944
 8792TIP3    H126321   2.427   2.454   0.932
 8792TIP3    H226322   2.288   2.426   0.882
 8793TIP3   OH226323   6.699   0.306   4.285
 8793TIP3    H126324   6.674   0.223   4.326
 8793TIP3    H226325   6.783   0.288   4.244
 8794TIP3   OH226326   1.806   3.677   0.649
 8794TIP3    H126327   1.744   3.604   0.652
 8794TIP3    H226328   1.753   3.753   0.622
 8795TIP3   OH226329   4.629   3.938   4.949
 8795TIP3    H126330   4.688   4.004   4.912
 8795TIP3    H226331   4.654   3.935   5.042
 8796TIP3   OH226332   7.736   1.827   2.966
 8796TIP3    H126333   7.817   1.802   2.921
 8796TIP3    H226334   7.707   1.906   2.921
 8797TIP3   OH226335   5.145   0.819   4.046
 8797TIP3    H126336   5.058   0.788   4.021
 8797TIP3    H226337   5.161   0.779   4.132
 8798TIP3   OH226338   7.292   3.155   4.138
 8798TIP3    H126339   7.346   3.108   4.202
 8798TIP3    H226340   7.202   3.127   4.158
 8799TIP3   OH226341   4.733   0.347   4.409
 8799TIP3    H126342   4.640   0.349   4.389
 8799TIP3    H226343   4.763   0.437   4.393
 8800TIP3   OH226344   6.727   1.954   4.516
 8800TIP3    H126345   6.688   1.882   4.565
 8800TIP3    H226346   6.655   1.987   4.462
 8801TIP3   OH226347   6.103   7.064   2.032
 8801TIP3    H126348   6.096   7.138   1.971
 8801TIP3    H226349   6.164   7.094   2.099
 8802TIP3   OH226350   0.031   6.626   3.260
 8802TIP3    H126351   0.055   6.562   3.193
 8802TIP3    H226352   0.079   6.598   3.338
 8803TIP3   OH226353   0.237   1.072   4.343
 8803TIP3    H126354   0.281   1.155   4.358
 8803TIP3    H226355   0.237   1.029   4.429
 8804TIP3   OH226356   6.299   0.014   3.255
 8804TIP3    H126357   6.284   0.069   3.178
 8804TIP3    H226358   6.392   0.023   3.274
 8805TIP3   OH226359   1.401   1.045   3.488
 8805TIP3    H126360   1.343   0.994   3.431
 8805TIP3    H226361   1.356   1.045   3.573
 8806TIP3   OH226362   4.782   3.616   6.031
 8806TIP3    H126363   4.744   3.587   5.948
 8806TIP3    H226364   4.780   3.712   6.025
 8807TIP3   OH226365   0.941   2.708   6.230
 8807TIP3    H126366   0.847   2.695   6.240
 8807TIP3    H226367   0.957   2.703   6.136
 8808TIP3   OH226368   0.316   0.211   4.146
 8808TIP3    H126369   0.341   0.301   4.123
 8808TIP3    H226370   0.379   0.156   4.100
 8809TIP3   OH226371   2.228   3.024   6.619
 8809TIP3    H126372   2.277   2.945   6.598
 8809TIP3    H226373   2.169   2.999   6.689
 8810TIP3   OH226374   0.746   6.189   4.059
 8810TIP3    H126375   0.789   6.252   4.118
 8810TIP3    H226376   0.803   6.187   3.982
 8811TIP3   OH226377   4.831   0.274   5.063
 8811TIP3    H126378   4.765   0.235   5.120
 8811TIP3    H226379   4.781   0.327   5.001
 8812TIP3   OH226380   6.171   7.662   1.032
 8812TIP3    H126381   6.111   7.675   1.106
 8812TIP3    H226382   6.117   7.623   0.964
 8813TIP3   OH226383   7.654   1.250   0.573
 8813TIP3    H126384   7.636   1.341   0.599
 8813TIP3    H226385   7.659   1.253   0.477
 8814TIP3   OH226386   5.481   3.307   1.486
 8814TIP3    H126387   5.451   3.252   1.558
 8814TIP3    H226388   5.410   3.370   1.473
 8815TIP3   OH226389   7.323   6.054   3.004
 8815TIP3    H126390   7.363   6.000   2.935
 8815TIP3    H226391   7.391   6.117   3.027
 8816TIP3   OH226392   4.113   6.402   3.918
 8816TIP3    H126393   4.064   6.323   3.940
 8816TIP3    H226394   4.053   6.474   3.938
 8817TIP3   OH226395   6.152   0.138   4.029
 8817TIP3    H126396   6.099   0.069   3.989
 8817TIP3    H226397   6.104   0.161   4.109
 8818TIP3   OH226398   0.409   7.779   5.104
 8818TIP3    H126399   0.348   7.851   5.120
 8818TIP3    H226400   0.376   7.737   5.025
 8819TIP3   OH226401   3.854   5.032   0.504
 8819TIP3    H126402   3.807   4.954   0.532
 8819TIP3    H226403   3.787   5.100   0.501
 8820TIP3   OH226404   6.387   2.252   2.709
 8820TIP3    H126405   6.351   2.280   2.625
 8820TIP3    H226406   6.325   2.186   2.741
 8821TIP3   OH226407   3.734   2.815   4.376
 8821TIP3    H126408   3.718   2.785   4.286
 8821TIP3    H226409   3.773   2.740   4.420
 8822TIP3   OH226410   7.968   0.617   6.328
 8822TIP3    H126411   8.029   0.650   6.262
 8822TIP3    H226412   8.007   0.535   6.357
 8823TIP3   OH226413   6.385   4.011   3.383
 8823TIP3    H126414   6.461   3.978   3.335
 8823TIP3    H226415   6.397   3.977   3.472
 8824TIP3   OH226416   3.283   3.792   6.056
 8824TIP3    H126417   3.306   3.702   6.032
 8824TIP3    H226418   3.310   3.845   5.980
 8825TIP3   OH226419   6.344   5.344   2.494
 8825TIP3    H126420   6.357   5.396   2.574
 8825TIP3    H226421   6.254   5.361   2.469
 8826TIP3   OH226422   2.052   7.307   3.084
 8826TIP3    H126423   2.112   7.251   3.035
 8826TIP3    H226424   2.047   7.388   3.033
 8827TIP3   OH226425   0.859   3.556   0.969
 8827TIP3    H126426   0.766   3.534   0.959
 8827TIP3    H226427   0.865   3.647   0.943
 8828TIP3   OH226428   7.638   6.555   2.190
 8828TIP3    H126429   7.731   6.545   2.213
 8828TIP3    H226430   7.592   6.502   2.255
 8829TIP3   OH226431   3.236   5.908   3.641
 8829TIP3    H126432   3.151   5.950   3.654
 8829TIP3    H226433   3.292   5.947   3.707
 8830TIP3   OH226434   6.778   7.312   0.863
 8830TIP3    H126435   6.744   7.345   0.780
 8830TIP3    H226436   6.744   7.223   0.870
 8831TIP3   OH226437   6.938   3.546   4.808
 8831TIP3    H126438   6.873   3.490   4.765
 8831TIP3    H226439   7.021   3.525   4.765
 8832TIP3   OH226440   1.612   7.253   0.145
 8832TIP3    H126441   1.691   7.206   0.172
 8832TIP3    H226442   1.545   7.226   0.209
 8833TIP3   OH226443   3.453   5.216   2.764
 8833TIP3    H126444   3.503   5.220   2.682
 8833TIP3    H226445   3.495   5.282   2.820
 8834TIP3   OH226446   4.741   5.032   4.772
 8834TIP3    H126447   4.660   4.983   4.759
 8834TIP3    H226448   4.746   5.090   4.696
 8835TIP3   OH226449   6.681   2.860   4.759
 8835TIP3    H126450   6.699   2.953   4.769
 8835TIP3    H226451   6.673   2.847   4.665
 8836TIP3   OH226452   3.768   6.566   1.061
 8836TIP3    H126453   3.677   6.581   1.037
 8836TIP3    H226454   3.813   6.552   0.977
 8837TIP3   OH226455   4.401   6.316   0.954
 8837TIP3    H126456   4.477   6.272   0.915
 8837TIP3    H226457   4.354   6.247   1.000
 8838TIP3   OH226458   4.826   4.806   2.483
 8838TIP3    H126459   4.805   4.886   2.434
 8838TIP3    H226460   4.771   4.738   2.443
 8839TIP3   OH226461   4.516   7.493   3.336
 8839TIP3    H126462   4.540   7.444   3.257
 8839TIP3    H226463   4.502   7.425   3.402
 8840TIP3   OH226464   7.648   5.456   1.128
 8840TIP3    H126465   7.613   5.515   1.061
 8840TIP3    H226466   7.576   5.446   1.191
 8841TIP3   OH226467   7.835   0.048   3.065
 8841TIP3    H126468   7.802  -0.031   3.022
 8841TIP3    H226469   7.775   0.061   3.139
 8842TIP3   OH226470   1.032   6.899   5.327
 8842TIP3    H126471   1.125   6.922   5.337
 8842TIP3    H226472   1.017   6.832   5.393
 8843TIP3   OH226473   4.954   6.812   1.923
 8843TIP3    H126474   4.920   6.743   1.980
 8843TIP3    H226475   4.937   6.893   1.969
 8844TIP3   OH226476   7.151   7.527   3.560
 8844TIP3    H126477   7.206   7.486   3.627
 8844TIP3    H226478   7.120   7.455   3.506
 8845TIP3   OH226479   4.490   5.495   4.124
 8845TIP3    H126480   4.563   5.434   4.124
 8845TIP3    H226481   4.413   5.440   4.111
 8846TIP3   OH226482   2.552   1.924   6.555
 8846TIP3    H126483   2.589   1.975   6.483
 8846TIP3    H226484   2.621   1.921   6.621
 8847TIP3   OH226485   0.948   5.967   4.900
 8847TIP3    H126486   1.013   6.025   4.941
 8847TIP3    H226487   0.946   5.891   4.958
 8848TIP3   OH226488   3.738   3.779   4.615
 8848TIP3    H126489   3.688   3.815   4.687
 8848TIP3    H226490   3.805   3.724   4.657
 8849TIP3   OH226491   5.797   5.725   2.977
 8849TIP3    H126492   5.754   5.663   3.036
 8849TIP3    H226493   5.802   5.807   3.026
 8850TIP3   OH226494   2.063   0.966   1.868
 8850TIP3    H126495   1.968   0.972   1.882
 8850TIP3    H226496   2.101   1.003   1.948
 8851TIP3   OH226497   6.844   5.918   0.488
 8851TIP3    H126498   6.819   5.983   0.422
 8851TIP3    H226499   6.819   5.958   0.572
 8852TIP3   OH226500   3.538   0.504   4.251
 8852TIP3    H126501   3.536   0.578   4.312
 8852TIP3    H226502   3.614   0.452   4.279
 8853TIP3   OH226503   0.989   4.359   3.859
 8853TIP3    H126504   0.922   4.331   3.921
 8853TIP3    H226505   0.958   4.328   3.774
 8854TIP3   OH226506   1.744   6.832   5.711
 8854TIP3    H126507   1.701   6.885   5.644
 8854TIP3    H226508   1.827   6.877   5.727
 8855TIP3   OH226509   0.135   3.200   4.380
 8855TIP3    H126510   0.082   3.264   4.333
 8855TIP3    H226511   0.175   3.248   4.452
 8856TIP3   OH226512   7.784   0.175   4.197
 8856TIP3    H126513   7.860   0.132   4.158
 8856TIP3    H226514   7.783   0.262   4.157
 8857TIP3   OH226515   2.459   3.001   5.010
 8857TIP3    H126516   2.490   3.075   5.063
 8857TIP3    H226517   2.531   2.985   4.949
 8858TIP3   OH226518   1.920   2.387   2.246
 8858TIP3    H126519   1.893   2.303   2.283
 8858TIP3    H226520   1.842   2.422   2.204
 8859TIP3   OH226521   5.598   3.706   6.019
 8859TIP3    H126522   5.538   3.638   6.051
 8859TIP3    H226523   5.575   3.783   6.070
 8860TIP3   OH226524   0.649   3.040   4.851
 8860TIP3    H126525   0.616   3.114   4.799
 8860TIP3    H226526   0.743   3.039   4.834
 8861TIP3   OH226527   8.168   1.501   5.206
 8861TIP3    H126528   8.225   1.575   5.226
 8861TIP3    H226529   8.082   1.527   5.240
 8862TIP3   OH226530   7.242   2.452   3.807
 8862TIP3    H126531   7.246   2.373   3.861
 8862TIP3    H226532   7.162   2.496   3.835
 8863TIP3   OH226533   3.952   4.544   0.473
 8863TIP3    H126534   3.958   4.492   0.553
 8863TIP3    H226535   4.030   4.522   0.423
 8864TIP3   OH226536   6.535   1.527   1.456
 8864TIP3    H126537   6.497   1.444   1.484
 8864TIP3    H226538   6.546   1.518   1.361
 8865TIP3   OH226539   5.368   2.118   0.050
 8865TIP3    H126540   5.334   2.115  -0.039
 8865TIP3    H226541   5.436   2.186   0.048
 8866TIP3   OH226542   1.089   1.763   6.643
 8866TIP3    H126543   1.068   1.817   6.719
 8866TIP3    H226544   1.004   1.731   6.612
 8867TIP3   OH226545   1.628   5.921   1.697
 8867TIP3    H126546   1.545   5.926   1.745
 8867TIP3    H226547   1.602   5.930   1.605
 8868TIP3   OH226548   2.898   6.197   6.255
 8868TIP3    H126549   2.902   6.169   6.164
 8868TIP3    H226550   2.953   6.275   6.259
 8869TIP3   OH226551   1.695   1.933   1.013
 8869TIP3    H126552   1.754   1.981   1.072
 8869TIP3    H226553   1.739   1.935   0.928
 8870TIP3   OH226554   6.864   3.572   6.729
 8870TIP3    H126555   6.948   3.618   6.737
 8870TIP3    H226556   6.799   3.635   6.758
 8871TIP3   OH226557   2.727   3.299   2.664
 8871TIP3    H126558   2.773   3.293   2.580
 8871TIP3    H226559   2.692   3.387   2.667
 8872TIP3   OH226560   6.813   2.317   2.939
 8872TIP3    H126561   6.723   2.288   2.957
 8872TIP3    H226562   6.820   2.316   2.844
 8873TIP3   OH226563   0.178   1.068   2.059
 8873TIP3    H126564   0.205   1.101   2.145
 8873TIP3    H226565   0.087   1.040   2.072
 8874TIP3   OH226566   0.053   4.453   2.430
 8874TIP3    H126567   0.127   4.486   2.379
 8874TIP3    H226568   0.034   4.367   2.391
 8875TIP3   OH226569   5.221   4.039   2.864
 8875TIP3    H126570   5.209   4.066   2.773
 8875TIP3    H226571   5.246   4.119   2.910
 8876TIP3   OH226572   2.125   4.383   6.702
 8876TIP3    H126573   2.032   4.374   6.681
 8876TIP3    H226574   2.144   4.309   6.759
 8877TIP3   OH226575   7.595   4.102   3.030
 8877TIP3    H126576   7.652   4.068   2.961
 8877TIP3    H226577   7.563   4.024   3.075
 8878TIP3   OH226578   4.386   0.769   4.466
 8878TIP3    H126579   4.374   0.723   4.549
 8878TIP3    H226580   4.469   0.734   4.432
 8879TIP3   OH226581   7.602   5.746   1.848
 8879TIP3    H126582   7.633   5.662   1.883
 8879TIP3    H226583   7.588   5.729   1.755
 8880TIP3   OH226584   7.394   2.593   6.323
 8880TIP3    H126585   7.449   2.530   6.277
 8880TIP3    H226586   7.305   2.559   6.314
 8881TIP3   OH226587   6.193   3.371   2.362
 8881TIP3    H126588   6.238   3.330   2.287
 8881TIP3    H226589   6.238   3.454   2.374
 8882TIP3   OH226590   1.670   3.199   6.411
 8882TIP3    H126591   1.664   3.182   6.317
 8882TIP3    H226592   1.656   3.294   6.418
 8883TIP3   OH226593   3.832   4.085   2.107
 8883TIP3    H126594   3.803   4.105   2.018
 8883TIP3    H226595   3.751   4.071   2.156
 8884TIP3   OH226596   2.110   1.688   5.688
 8884TIP3    H126597   2.064   1.695   5.604
 8884TIP3    H226598   2.064   1.618   5.734
 8885TIP3   OH226599   2.805   6.500   1.727
 8885TIP3    H126600   2.862   6.451   1.667
 8885TIP3    H226601   2.854   6.579   1.747
 8886TIP3   OH226602   6.300   1.911   6.553
 8886TIP3    H126603   6.363   1.853   6.510
 8886TIP3    H226604   6.285   1.871   6.639
 8887TIP3   OH226605   5.020   7.808   5.703
 8887TIP3    H126606   5.051   7.729   5.746
 8887TIP3    H226607   4.938   7.783   5.662
 8888TIP3   OH226608   7.568   3.405   1.380
 8888TIP3    H126609   7.493   3.388   1.323
 8888TIP3    H226610   7.530   3.436   1.462
 8889TIP3   OH226611   5.843   4.022   5.848
 8889TIP3    H126612   5.894   4.102   5.840
 8889TIP3    H226613   5.885   3.973   5.919
 8890TIP3   OH226614   1.303   7.260   3.242
 8890TIP3    H126615   1.347   7.331   3.289
 8890TIP3    H226616   1.308   7.185   3.302
 8891TIP3   OH226617   0.412   7.750   3.502
 8891TIP3    H126618   0.499   7.736   3.464
 8891TIP3    H226619   0.384   7.662   3.529
 8892TIP3   OH226620   4.093   0.951   1.569
 8892TIP3    H126621   4.168   0.995   1.609
 8892TIP3    H226622   4.125   0.863   1.547
 8893TIP3   OH226623   5.327   4.024   4.657
 8893TIP3    H126624   5.300   4.116   4.655
 8893TIP3    H226625   5.247   3.975   4.636
 8894TIP3   OH226626   1.295   2.358   1.858
 8894TIP3    H126627   1.219   2.414   1.874
 8894TIP3    H226628   1.301   2.352   1.763
 8895TIP3   OH226629   7.737   2.647   0.549
 8895TIP3    H126630   7.816   2.615   0.505
 8895TIP3    H226631   7.769   2.699   0.623
 8896TIP3   OH226632   0.487   6.904   1.655
 8896TIP3    H126633   0.536   6.986   1.652
 8896TIP3    H226634   0.482   6.876   1.563
 8897TIP3   OH226635   0.941   2.763   5.317
 8897TIP3    H126636   0.985   2.712   5.250
 8897TIP3    H226637   0.980   2.733   5.399
 8898TIP3   OH226638   0.724   7.557   2.111
 8898TIP3    H126639   0.767   7.472   2.115
 8898TIP3    H226640   0.730   7.583   2.019
 8899TIP3   OH226641   3.011   6.054   5.999
 8899TIP3    H126642   2.997   5.990   6.069
 8899TIP3    H226643   3.097   6.031   5.963
 8900TIP3   OH226644   5.409   0.777   4.615
 8900TIP3    H126645   5.340   0.718   4.584
 8900TIP3    H226646   5.379   0.864   4.589
 8901TIP3   OH226647   1.779   6.368   6.685
 8901TIP3    H126648   1.829   6.298   6.726
 8901TIP3    H226649   1.796   6.359   6.591
 8902TIP3   OH226650   2.399   6.145   4.034
 8902TIP3    H126651   2.404   6.239   4.015
 8902TIP3    H226652   2.318   6.135   4.084
 8903TIP3   OH226653   2.954   4.034   2.228
 8903TIP3    H126654   2.925   3.973   2.160
 8903TIP3    H226655   2.931   4.120   2.193
 8904TIP3   OH226656   0.679   4.167   1.468
 8904TIP3    H126657   0.601   4.116   1.492
 8904TIP3    H226658   0.722   4.187   1.551
 8905TIP3   OH226659   5.005   0.297   3.149
 8905TIP3    H126660   5.081   0.284   3.205
 8905TIP3    H226661   4.935   0.324   3.208
 8906TIP3   OH226662   4.112   6.671   4.814
 8906TIP3    H126663   4.027   6.668   4.858
 8906TIP3    H226664   4.154   6.589   4.838
 8907TIP3   OH226665   4.484   3.530   0.320
 8907TIP3    H126666   4.573   3.527   0.354
 8907TIP3    H226667   4.452   3.440   0.331
 8908TIP3   OH226668   4.072   6.419   0.524
 8908TIP3    H126669   4.147   6.450   0.474
 8908TIP3    H226670   4.106   6.403   0.612
 8909TIP3   OH226671   1.336   6.484   5.704
 8909TIP3    H126672   1.406   6.534   5.662
 8909TIP3    H226673   1.276   6.462   5.633
 8910TIP3   OH226674   7.638   2.057   4.094
 8910TIP3    H126675   7.586   2.000   4.151
 8910TIP3    H226676   7.662   2.131   4.149
 8911TIP3   OH226677   1.723   3.639   2.217
 8911TIP3    H126678   1.814   3.668   2.214
 8911TIP3    H226679   1.675   3.706   2.168
 8912TIP3   OH226680   5.462   1.125   0.303
 8912TIP3    H126681   5.524   1.156   0.368
 8912TIP3    H226682   5.388   1.092   0.353
 8913TIP3   OH226683   2.393   7.708   3.488
 8913TIP3    H126684   2.472   7.761   3.490
 8913TIP3    H226685   2.335   7.753   3.427
 8914TIP3   OH226686   0.968   7.227   0.136
 8914TIP3    H126687   0.934   7.307   0.176
 8914TIP3    H226688   1.060   7.223   0.164
 8915TIP3   OH226689   6.442   1.783   3.523
 8915TIP3    H126690   6.427   1.691   3.505
 8915TIP3    H226691   6.450   1.788   3.618
 8916TIP3   OH226692   0.587   2.207   2.856
 8916TIP3    H126693   0.599   2.294   2.819
 8916TIP3    H226694   0.590   2.148   2.780
 8917TIP3   OH226695   2.421   2.599   1.386
 8917TIP3    H126696   2.449   2.684   1.351
 8917TIP3    H226697   2.451   2.600   1.477
 8918TIP3   OH226698   5.342   1.216   2.371
 8918TIP3    H126699   5.328   1.125   2.347
 8918TIP3    H226700   5.257   1.246   2.403
 8919TIP3   OH226701   6.584   1.369   0.030
 8919TIP3    H126702   6.594   1.301  -0.037
 8919TIP3    H226703   6.490   1.378   0.043
 8920TIP3   OH226704   1.713   5.874   6.259
 8920TIP3    H126705   1.740   5.958   6.222
 8920TIP3    H226706   1.621   5.866   6.235
 8921TIP3   OH226707   0.009   7.751   5.857
 8921TIP3    H126708  -0.020   7.842   5.854
 8921TIP3    H226709  -0.055   7.704   5.805
 8922TIP3   OH226710   4.214   1.666   2.264
 8922TIP3    H126711   4.165   1.591   2.296
 8922TIP3    H226712   4.156   1.741   2.277
 8923TIP3   OH226713   4.805   6.101   0.430
 8923TIP3    H126714   4.796   6.090   0.335
 8923TIP3    H226715   4.738   6.043   0.467
 8924TIP3   OH226716   3.329   2.086   4.516
 8924TIP3    H126717   3.359   2.037   4.439
 8924TIP3    H226718   3.235   2.099   4.501
 8925TIP3   OH226719   7.499   4.066   2.035
 8925TIP3    H126720   7.590   4.041   2.021
 8925TIP3    H226721   7.453   4.035   1.957
 8926TIP3   OH226722   1.096   4.003   3.904
 8926TIP3    H126723   1.005   4.018   3.878
 8926TIP3    H226724   1.147   4.031   3.828
 8927TIP3   OH226725   6.101   2.131   5.003
 8927TIP3    H126726   6.041   2.177   4.944
 8927TIP3    H226727   6.070   2.154   5.091
 8928TIP3   OH226728   7.875   3.991   0.968
 8928TIP3    H126729   7.863   4.045   1.046
 8928TIP3    H226730   7.788   3.954   0.951
 8929TIP3   OH226731   3.653   7.641   1.456
 8929TIP3    H126732   3.707   7.717   1.434
 8929TIP3    H226733   3.714   7.567   1.454
 8930TIP3   OH226734   3.621   3.889   0.492
 8930TIP3    H126735   3.630   3.795   0.474
 8930TIP3    H226736   3.698   3.928   0.450
 8931TIP3   OH226737   1.017   3.815   5.802
 8931TIP3    H126738   1.053   3.849   5.884
 8931TIP3    H226739   1.038   3.882   5.737
 8932TIP3   OH226740   5.478   1.313   6.413
 8932TIP3    H126741   5.495   1.378   6.345
 8932TIP3    H226742   5.542   1.333   6.482
 8933TIP3   OH226743   4.217   4.496   4.287
 8933TIP3    H126744   4.308   4.479   4.264
 8933TIP3    H226745   4.192   4.570   4.232
 8934TIP3   OH226746   4.631   6.208   0.798
 8934TIP3    H126747   4.663   6.123   0.826
 8934TIP3    H226748   4.701   6.244   0.744
 8935TIP3   OH226749   7.720   4.437   4.187
 8935TIP3    H126750   7.643   4.493   4.199
 8935TIP3    H226751   7.708   4.398   4.100
 8936TIP3   OH226752   5.203   5.410   2.934
 8936TIP3    H126753   5.220   5.423   3.027
 8936TIP3    H226754   5.197   5.315   2.923
 8937TIP3   OH226755   7.451   0.811   3.467
 8937TIP3    H126756   7.477   0.811   3.559
 8937TIP3    H226757   7.423   0.721   3.450
 8938TIP3   OH226758   0.566   7.096   3.938
 8938TIP3    H126759   0.586   7.020   3.883
 8938TIP3    H226760   0.475   7.082   3.964
 8939TIP3   OH226761   6.512   4.983   4.063
 8939TIP3    H126762   6.513   4.893   4.093
 8939TIP3    H226763   6.568   5.030   4.125
 8940TIP3   OH226764   2.145   3.657   4.869
 8940TIP3    H126765   2.142   3.591   4.939
 8940TIP3    H226766   2.080   3.722   4.896
 8941TIP3   OH226767   7.757   3.879   6.609
 8941TIP3    H126768   7.791   3.869   6.520
 8941TIP3    H226769   7.662   3.872   6.600
 8942TIP3   OH226770   5.497   1.879   1.024
 8942TIP3    H126771   5.497   1.814   0.954
 8942TIP3    H226772   5.518   1.828   1.103
 8943TIP3   OH226773   2.546   6.194   1.128
 8943TIP3    H126774   2.607   6.127   1.097
 8943TIP3    H226775   2.558   6.195   1.223
 8944TIP3   OH226776   6.826   1.138   5.009
 8944TIP3    H126777   6.862   1.081   5.078
 8944TIP3    H226778   6.903   1.163   4.957
 8945TIP3   OH226779   4.450   1.778   5.118
 8945TIP3    H126780   4.419   1.759   5.030
 8945TIP3    H226781   4.445   1.694   5.164
 8946TIP3   OH226782   2.347   1.476   0.408
 8946TIP3    H126783   2.354   1.475   0.312
 8946TIP3    H226784   2.350   1.568   0.432
 8947TIP3   OH226785   3.016   4.024   3.706
 8947TIP3    H126786   3.004   3.991   3.616
 8947TIP3    H226787   2.930   4.015   3.746
 8948TIP3   OH226788   6.415   4.835   1.279
 8948TIP3    H126789   6.499   4.879   1.265
 8948TIP3    H226790   6.352   4.889   1.230
 8949TIP3   OH226791   1.638   5.517   3.998
 8949TIP3    H126792   1.543   5.505   4.008
 8949TIP3    H226793   1.676   5.460   4.065
 8950TIP3   OH226794   6.742   5.932   5.303
 8950TIP3    H126795   6.706   6.007   5.350
 8950TIP3    H226796   6.754   5.866   5.371
 8951TIP3   OH226797   7.495   6.110   2.550
 8951TIP3    H126798   7.497   6.014   2.542
 8951TIP3    H226799   7.579   6.133   2.589
 8952TIP3   OH226800   2.034   1.527   2.665
 8952TIP3    H126801   1.941   1.511   2.682
 8952TIP3    H226802   2.066   1.573   2.743
 8953TIP3   OH226803   3.767   1.367   1.988
 8953TIP3    H126804   3.691   1.330   2.033
 8953TIP3    H226805   3.744   1.362   1.895
 8954TIP3   OH226806   0.818   1.968   1.235
 8954TIP3    H126807   0.853   1.885   1.203
 8954TIP3    H226808   0.728   1.949   1.261
 8955TIP3   OH226809   1.359   2.585   6.362
 8955TIP3    H126810   1.399   2.588   6.449
 8955TIP3    H226811   1.432   2.573   6.302
 8956TIP3   OH226812   6.834   0.900   3.492
 8956TIP3    H126813   6.800   0.848   3.565
 8956TIP3    H226814   6.925   0.872   3.484
 8957TIP3   OH226815   3.138   0.765   1.788
 8957TIP3    H126816   3.122   0.783   1.696
 8957TIP3    H226817   3.200   0.833   1.815
 8958TIP3   OH226818   3.704   7.411   4.598
 8958TIP3    H126819   3.783   7.375   4.557
 8958TIP3    H226820   3.667   7.469   4.531
 8959TIP3   OH226821   3.780   5.750   3.432
 8959TIP3    H126822   3.788   5.670   3.379
 8959TIP3    H226823   3.688   5.753   3.458
 8960TIP3   OH226824   2.368   4.678   4.199
 8960TIP3    H126825   2.435   4.650   4.137
 8960TIP3    H226826   2.285   4.666   4.152
 8961TIP3   OH226827   1.828   1.326   4.157
 8961TIP3    H126828   1.776   1.335   4.236
 8961TIP3    H226829   1.875   1.243   4.167
 8962TIP3   OH226830   2.315   0.576   2.171
 8962TIP3    H126831   2.329   0.669   2.152
 8962TIP3    H226832   2.344   0.532   2.091
 8963TIP3   OH226833   6.880   0.174   6.315
 8963TIP3    H126834   6.927   0.246   6.358
 8963TIP3    H226835   6.824   0.218   6.250
 8964TIP3   OH226836   8.294   2.577   0.243
 8964TIP3    H126837   8.224   2.552   0.183
 8964TIP3    H226838   8.279   2.522   0.320
 8965TIP3   OH226839   3.955   4.407   3.383
 8965TIP3    H126840   3.932   4.388   3.474
 8965TIP3    H226841   3.958   4.322   3.340
 8966TIP3   OH226842   0.823   5.119   4.614
 8966TIP3    H126843   0.915   5.116   4.588
 8966TIP3    H226844   0.805   5.032   4.649
 8967TIP3   OH226845   6.367   7.477   6.426
 8967TIP3    H126846   6.407   7.418   6.363
 8967TIP3    H226847   6.274   7.478   6.403
 8968TIP3   OH226848   2.569   4.674   6.337
 8968TIP3    H126849   2.562   4.617   6.262
 8968TIP3    H226850   2.654   4.717   6.328
 8969TIP3   OH226851   4.242   5.751   2.926
 8969TIP3    H126852   4.315   5.690   2.936
 8969TIP3    H226853   4.252   5.813   2.998
 8970TIP3   OH226854   4.413   1.805   3.423
 8970TIP3    H126855   4.322   1.805   3.452
 8970TIP3    H226856   4.410   1.782   3.331
 8971TIP3   OH226857   6.739   5.238   2.928
 8971TIP3    H126858   6.666   5.217   2.869
 8971TIP3    H226859   6.729   5.331   2.948
 8972TIP3   OH226860   5.029   3.563   1.979
 8972TIP3    H126861   5.025   3.658   1.968
 8972TIP3    H226862   4.979   3.528   1.905
 8973TIP3   OH226863   1.020   4.321   4.496
 8973TIP3    H126864   1.071   4.255   4.543
 8973TIP3    H226865   1.030   4.298   4.404
 8974TIP3   OH226866   5.254   3.332   3.530
 8974TIP3    H126867   5.260   3.368   3.618
 8974TIP3    H226868   5.253   3.408   3.472
 8975TIP3   OH226869   0.139   6.036   2.313
 8975TIP3    H126870   0.217   5.992   2.279
 8975TIP3    H226871   0.139   6.016   2.407
 8976TIP3   OH226872   6.816   7.569   5.885
 8976TIP3    H126873   6.847   7.656   5.858
 8976TIP3    H226874   6.842   7.511   5.813
 8977TIP3   OH226875   0.527   7.661   1.664
 8977TIP3    H126876   0.510   7.576   1.623
 8977TIP3    H226877   0.587   7.704   1.604
 8978TIP3   OH226878   6.632   4.104   4.121
 8978TIP3    H126879   6.574   4.086   4.195
 8978TIP3    H226880   6.659   4.195   4.133
 8979TIP3   OH226881   1.368   3.104   5.205
 8979TIP3    H126882   1.277   3.133   5.205
 8979TIP3    H226883   1.371   3.031   5.266
 8980TIP3   OH226884   7.370   1.574   1.169
 8980TIP3    H126885   7.359   1.652   1.115
 8980TIP3    H226886   7.463   1.553   1.161
 8981TIP3   OH226887   1.231   4.716   6.361
 8981TIP3    H126888   1.301   4.676   6.412
 8981TIP3    H226889   1.207   4.648   6.298
 8982TIP3   OH226890   6.781   0.911   4.466
 8982TIP3    H126891   6.719   0.971   4.507
 8982TIP3    H226892   6.847   0.968   4.427
 8983TIP3   OH226893   1.970   5.675   4.185
 8983TIP3    H126894   2.006   5.695   4.271
 8983TIP3    H226895   2.024   5.603   4.152
 8984TIP3   OH226896   3.228   0.500   1.826
 8984TIP3    H126897   3.253   0.492   1.734
 8984TIP3    H226898   3.176   0.580   1.830
 8985TIP3   OH226899   4.971   6.959   1.288
 8985TIP3    H126900   5.061   6.958   1.321
 8985TIP3    H226901   4.938   6.871   1.303
 8986TIP3   OH226902   2.660   4.765   4.054
 8986TIP3    H126903   2.580   4.770   4.001
 8986TIP3    H226904   2.727   4.733   3.993
 8987TIP3   OH226905   0.032   2.299   2.244
 8987TIP3    H126906   0.012   2.229   2.307
 8987TIP3    H226907   0.128   2.300   2.239
 8988TIP3   OH226908   7.581   3.141   0.789
 8988TIP3    H126909   7.538   3.220   0.755
 8988TIP3    H226910   7.636   3.111   0.716
 8989TIP3   OH226911   2.486   0.537   0.801
 8989TIP3    H126912   2.470   0.629   0.784
 8989TIP3    H226913   2.570   0.535   0.846
 8990TIP3   OH226914   6.792   1.423   0.186
 8990TIP3    H126915   6.857   1.359   0.158
 8990TIP3    H226916   6.715   1.404   0.133
 8991TIP3   OH226917   7.439   5.631   3.412
 8991TIP3    H126918   7.421   5.611   3.504
 8991TIP3    H226919   7.531   5.656   3.410
 8992TIP3   OH226920   4.841   6.756   5.830
 8992TIP3    H126921   4.933   6.730   5.831
 8992TIP3    H226922   4.800   6.699   5.765
 8993TIP3   OH226923   6.051   3.112   3.334
 8993TIP3    H126924   6.093   3.110   3.248
 8993TIP3    H226925   6.003   3.029   3.339
 8994TIP3   OH226926   3.409   1.865   3.495
 8994TIP3    H126927   3.472   1.864   3.567
 8994TIP3    H226928   3.397   1.957   3.475
 8995TIP3   OH226929   2.232   7.028   0.933
 8995TIP3    H126930   2.146   7.052   0.899
 8995TIP3    H226931   2.234   6.932   0.925
 8996TIP3   OH226932   5.289   0.540   2.667
 8996TIP3    H126933   5.207   0.516   2.710
 8996TIP3    H226934   5.318   0.460   2.623
 8997TIP3   OH226935   5.940   4.331   3.118
 8997TIP3    H126936   5.899   4.413   3.089
 8997TIP3    H226937   5.928   4.330   3.213
 8998TIP3   OH226938   3.677   5.480   4.012
 8998TIP3    H126939   3.751   5.456   3.957
 8998TIP3    H226940   3.692   5.433   4.094
 8999TIP3   OH226941   3.129   4.607   2.502
 8999TIP3    H126942   3.048   4.643   2.466
 8999TIP3    H226943   3.100   4.558   2.579
 9000TIP3   OH226944   6.719   1.174   0.839
 9000TIP3    H126945   6.743   1.266   0.849
 9000TIP3    H226946   6.658   1.174   0.766
 9001TIP3   OH226947   0.224   4.125   3.274
 9001TIP3    H126948   0.303   4.136   3.221
 9001TIP3    H226949   0.188   4.214   3.281
 9002TIP3   OH226950   3.817   4.521   2.496
 9002TIP3    H126951   3.736   4.546   2.452
 9002TIP3    H226952   3.848   4.444   2.448
 9003TIP3   OH226953   3.460   7.606   4.025
 9003TIP3    H126954   3.423   7.530   3.979
 9003TIP3    H226955   3.555   7.595   4.016
 9004TIP3   OH226956   1.502   3.336   3.177
 9004TIP3    H126957   1.541   3.349   3.264
 9004TIP3    H226958   1.573   3.359   3.116
 9005TIP3   OH226959   5.508   3.612   0.066
 9005TIP3    H126960   5.493   3.677   0.135
 9005TIP3    H226961   5.436   3.626   0.004
 9006TIP3   OH226962   3.221   4.777   0.723
 9006TIP3    H126963   3.221   4.858   0.673
 9006TIP3    H226964   3.313   4.758   0.738
 9007TIP3   OH226965   6.238   5.520   1.668
 9007TIP3    H126966   6.322   5.552   1.703
 9007TIP3    H226967   6.263   5.456   1.602
 9008TIP3   OH226968   2.916   4.632   3.324
 9008TIP3    H126969   3.003   4.600   3.351
 9008TIP3    H226970   2.901   4.709   3.379
 9009TIP3   OH226971   6.061   5.487   2.464
 9009TIP3    H126972   5.977   5.450   2.489
 9009TIP3    H226973   6.073   5.563   2.521
 9010TIP3   OH226974   0.178   6.816   6.503
 9010TIP3    H126975   0.254   6.820   6.445
 9010TIP3    H226976   0.106   6.853   6.452
 9011TIP3   OH226977   3.081   3.238   4.369
 9011TIP3    H126978   3.036   3.290   4.435
 9011TIP3    H226979   3.029   3.158   4.361
 9012TIP3   OH226980   5.799   3.920   0.886
 9012TIP3    H126981   5.729   3.901   0.949
 9012TIP3    H226982   5.813   4.015   0.894
 9013TIP3   OH226983   1.985   6.982   5.148
 9013TIP3    H126984   2.044   6.959   5.220
 9013TIP3    H226985   1.993   7.077   5.140
 9014TIP3   OH226986   5.074   6.300   5.534
 9014TIP3    H126987   5.057   6.238   5.605
 9014TIP3    H226988   5.015   6.272   5.463
 9015TIP3   OH226989   1.736   3.192   3.932
 9015TIP3    H126990   1.783   3.276   3.935
 9015TIP3    H226991   1.784   3.140   3.867
 9016TIP3   OH226992   5.742   1.021   2.568
 9016TIP3    H126993   5.795   1.039   2.646
 9016TIP3    H226994   5.681   0.953   2.597
 9017TIP3   OH226995   5.960   2.792   4.269
 9017TIP3    H126996   5.907   2.715   4.291
 9017TIP3    H226997   5.900   2.851   4.223
 9018TIP3   OH226998   7.956   5.150   1.527
 9018TIP3    H126999   7.887   5.108   1.475
 9018TIP3    H227000   8.028   5.086   1.528
 9019TIP3   OH227001   5.355   2.055   5.028
 9019TIP3    H127002   5.344   1.991   5.098
 9019TIP3    H227003   5.446   2.044   5.000
 9020TIP3   OH227004   4.779   1.707   6.285
 9020TIP3    H127005   4.758   1.799   6.276
 9020TIP3    H227006   4.822   1.700   6.370
 9021TIP3   OH227007   2.613   3.695   0.172
 9021TIP3    H127008   2.595   3.604   0.195
 9021TIP3    H227009   2.529   3.740   0.186
 9022TIP3   OH227010   0.934   7.157   3.906
 9022TIP3    H127011   0.972   7.242   3.883
 9022TIP3    H227012   0.847   7.179   3.941
 9023TIP3   OH227013   8.095   7.404   4.760
 9023TIP3    H127014   8.120   7.452   4.682
 9023TIP3    H227015   8.058   7.470   4.819
 9024TIP3   OH227016   4.271   1.485   2.032
 9024TIP3    H127017   4.253   1.576   2.057
 9024TIP3    H227018   4.186   1.442   2.035
 9025TIP3   OH227019   6.012   7.081   4.312
 9025TIP3    H127020   5.932   7.033   4.291
 9025TIP3    H227021   5.985   7.143   4.380
 9026TIP3   OH227022   3.245   3.500   2.179
 9026TIP3    H127023   3.329   3.468   2.145
 9026TIP3    H227024   3.204   3.423   2.218
 9027TIP3   OH227025   6.961   5.017   3.456
 9027TIP3    H127026   7.051   5.045   3.471
 9027TIP3    H227027   6.965   4.922   3.457
 9028TIP3   OH227028   0.100   3.472   5.586
 9028TIP3    H127029   0.053   3.388   5.585
 9028TIP3    H227030   0.191   3.449   5.567
 9029TIP3   OH227031   6.421   3.014   5.488
 9029TIP3    H127032   6.376   3.035   5.570
 9029TIP3    H227033   6.455   2.925   5.501
 9030TIP3   OH227034   1.011   3.109   0.533
 9030TIP3    H127035   0.990   3.071   0.618
 9030TIP3    H227036   0.976   3.198   0.536
 9031TIP3   OH227037   6.353   4.904   3.279
 9031TIP3    H127038   6.412   4.881   3.207
 9031TIP3    H227039   6.407   4.952   3.341
 9032TIP3   OH227040   7.520   2.104   1.414
 9032TIP3    H127041   7.548   2.193   1.390
 9032TIP3    H227042   7.486   2.113   1.503
 9033TIP3   OH227043   0.939   5.891   5.378
 9033TIP3    H127044   0.907   5.906   5.467
 9033TIP3    H227045   0.893   5.956   5.325
 9034TIP3   OH227046   6.813   3.103   2.561
 9034TIP3    H127047   6.811   3.101   2.465
 9034TIP3    H227048   6.821   3.196   2.582
 9035TIP3   OH227049   2.604   4.433   2.160
 9035TIP3    H127050   2.596   4.528   2.163
 9035TIP3    H227051   2.564   4.408   2.076
 9036TIP3   OH227052   0.571   5.952   3.780
 9036TIP3    H127053   0.573   5.952   3.876
 9036TIP3    H227054   0.602   5.864   3.756
 9037TIP3   OH227055   1.526   4.033   5.463
 9037TIP3    H127056   1.593   4.099   5.481
 9037TIP3    H227057   1.574   3.950   5.467
 9038TIP3   OH227058   8.241   1.369   2.785
 9038TIP3    H127059   8.149   1.363   2.813
 9038TIP3    H227060   8.291   1.370   2.866
 9039TIP3   OH227061   8.245   7.000   4.280
 9039TIP3    H127062   8.233   7.048   4.198
 9039TIP3    H227063   8.339   7.006   4.298
 9040TIP3   OH227064   6.918   0.923   1.906
 9040TIP3    H127065   6.957   0.910   1.820
 9040TIP3    H227066   6.953   1.007   1.936
 9041TIP3   OH227067   3.681   5.645   1.877
 9041TIP3    H127068   3.729   5.714   1.922
 9041TIP3    H227069   3.670   5.677   1.788
 9042TIP3   OH227070   2.151   3.969   1.319
 9042TIP3    H127071   2.232   3.994   1.274
 9042TIP3    H227072   2.145   3.874   1.305
 9043TIP3   OH227073   7.446   1.176   4.721
 9043TIP3    H127074   7.484   1.129   4.795
 9043TIP3    H227075   7.513   1.240   4.697
 9044TIP3   OH227076   6.367   3.397   3.069
 9044TIP3    H127077   6.299   3.363   3.011
 9044TIP3    H227078   6.322   3.462   3.123
 9045TIP3   OH227079   2.616   5.241   2.274
 9045TIP3    H127080   2.625   5.167   2.334
 9045TIP3    H227081   2.582   5.312   2.329
 9046TIP3   OH227082   5.745   1.723   6.632
 9046TIP3    H127083   5.711   1.743   6.719
 9046TIP3    H227084   5.840   1.724   6.644
 9047TIP3   OH227085   3.971   0.795   6.081
 9047TIP3    H127086   3.895   0.826   6.030
 9047TIP3    H227087   4.046   0.841   6.042
 9048TIP3   OH227088   2.026   6.003   0.383
 9048TIP3    H127089   2.033   5.908   0.392
 9048TIP3    H227090   2.116   6.034   0.384
 9049TIP3   OH227091   1.954   6.075   0.146
 9049TIP3    H127092   1.965   6.000   0.087
 9049TIP3    H227093   1.962   6.038   0.234
 9050TIP3   OH227094   0.740   4.175   5.942
 9050TIP3    H127095   0.671   4.126   5.897
 9050TIP3    H227096   0.782   4.226   5.872
 9051TIP3   OH227097   7.211   1.693   0.637
 9051TIP3    H127098   7.126   1.656   0.658
 9051TIP3    H227099   7.269   1.617   0.626
 9052TIP3   OH227100   3.328   4.733   6.197
 9052TIP3    H127101   3.333   4.648   6.154
 9052TIP3    H227102   3.398   4.730   6.263
 9053TIP3   OH227103   1.240   6.701   4.179
 9053TIP3    H127104   1.248   6.724   4.272
 9053TIP3    H227105   1.281   6.615   4.172
 9054TIP3   OH227106   4.677   2.148   0.289
 9054TIP3    H127107   4.734   2.203   0.343
 9054TIP3    H227108   4.593   2.195   0.289
 9055TIP3   OH227109   7.383   0.333   0.795
 9055TIP3    H127110   7.331   0.262   0.835
 9055TIP3    H227111   7.317   0.391   0.757
 9056TIP3   OH227112   3.018   2.429   3.784
 9056TIP3    H127113   3.033   2.496   3.851
 9056TIP3    H227114   2.929   2.399   3.801
 9057TIP3   OH227115   6.229   2.046   0.317
 9057TIP3    H127116   6.298   1.980   0.319
 9057TIP3    H227117   6.152   2.000   0.284
 9058TIP3   OH227118   3.351   3.121   0.895
 9058TIP3    H127119   3.397   3.201   0.871
 9058TIP3    H227120   3.287   3.149   0.961
 9059TIP3   OH227121   7.707   5.642   2.125
 9059TIP3    H127122   7.693   5.721   2.177
 9059TIP3    H227123   7.743   5.579   2.187
 9060TIP3   OH227124   1.181   4.173   4.612
 9060TIP3    H127125   1.181   4.120   4.692
 9060TIP3    H227126   1.233   4.121   4.549
 9061TIP3   OH227127   5.577   1.647   0.744
 9061TIP3    H127128   5.629   1.567   0.754
 9061TIP3    H227129   5.498   1.630   0.795
 9062TIP3   OH227130   2.335   5.882   0.387
 9062TIP3    H127131   2.406   5.825   0.417
 9062TIP3    H227132   2.331   5.953   0.451
 9063TIP3   OH227133   7.021   3.139  -0.033
 9063TIP3    H127134   7.049   3.206   0.030
 9063TIP3    H227135   7.048   3.056   0.008
 9064TIP3   OH227136   5.685   5.086   2.121
 9064TIP3    H127137   5.688   5.074   2.216
 9064TIP3    H227138   5.680   5.181   2.108
 9065TIP3   OH227139   1.460   2.085   1.099
 9065TIP3    H127140   1.526   2.039   1.047
 9065TIP3    H227141   1.454   2.171   1.059
 9066TIP3   OH227142   2.114   5.159   5.938
 9066TIP3    H127143   2.137   5.171   5.845
 9066TIP3    H227144   2.193   5.183   5.985
 9067TIP3   OH227145   5.579   0.818   2.980
 9067TIP3    H127146   5.535   0.849   3.059
 9067TIP3    H227147   5.665   0.859   2.983
 9068TIP3   OH227148   2.753   1.091  -0.017
 9068TIP3    H127149   2.790   1.074   0.070
 9068TIP3    H227150   2.796   1.172  -0.046
 9069TIP3   OH227151   4.583   3.281   6.515
 9069TIP3    H127152   4.625   3.315   6.436
 9069TIP3    H227153   4.609   3.189   6.520
 9070TIP3   OH227154   5.505   3.856   2.389
 9070TIP3    H127155   5.424   3.903   2.407
 9070TIP3    H227156   5.501   3.836   2.295
 9071TIP3   OH227157   5.598   1.072   4.993
 9071TIP3    H127158   5.601   1.167   5.006
 9071TIP3    H227159   5.638   1.059   4.907
 9072TIP3   OH227160   0.662   5.447   1.106
 9072TIP3    H127161   0.608   5.524   1.124
 9072TIP3    H227162   0.747   5.483   1.081
 9073TIP3   OH227163   3.904   4.151   3.209
 9073TIP3    H127164   3.979   4.092   3.217
 9073TIP3    H227165   3.848   4.127   3.283
 9074TIP3   OH227166   0.140   1.908   0.194
 9074TIP3    H127167   0.084   1.946   0.126
 9074TIP3    H227168   0.226   1.947   0.180
 9075TIP3   OH227169   0.624   1.623   5.299
 9075TIP3    H127170   0.531   1.645   5.286
 9075TIP3    H227171   0.634   1.536   5.261
 9076TIP3   OH227172   1.506   0.199   5.911
 9076TIP3    H127173   1.493   0.110   5.944
 9076TIP3    H227174   1.598   0.201   5.884
 9077TIP3   OH227175   6.400   6.407   5.002
 9077TIP3    H127176   6.330   6.369   4.949
 9077TIP3    H227177   6.471   6.342   4.997
 9078TIP3   OH227178   3.639   4.799   4.496
 9078TIP3    H127179   3.583   4.756   4.431
 9078TIP3    H227180   3.594   4.785   4.579
 9079TIP3   OH227181   7.747   6.080   1.664
 9079TIP3    H127182   7.790   6.115   1.586
 9079TIP3    H227183   7.762   6.146   1.731
 9080TIP3   OH227184   5.846   7.168   0.263
 9080TIP3    H127185   5.912   7.108   0.299
 9080TIP3    H227186   5.877   7.186   0.174
 9081TIP3   OH227187   6.132   7.452   0.087
 9081TIP3    H127188   6.087   7.367   0.085
 9081TIP3    H227189   6.064   7.516   0.067
 9082TIP3   OH227190   7.027   4.411   4.579
 9082TIP3    H127191   7.017   4.483   4.642
 9082TIP3    H227192   6.994   4.334   4.624
 9083TIP3   OH227193   6.715   1.547   3.837
 9083TIP3    H127194   6.704   1.507   3.923
 9083TIP3    H227195   6.800   1.591   3.841
 9084TIP3   OH227196   3.413   1.308   0.677
 9084TIP3    H127197   3.389   1.277   0.765
 9084TIP3    H227198   3.375   1.244   0.618
 9085TIP3   OH227199   2.831   0.578   2.420
 9085TIP3    H127200   2.787   0.506   2.467
 9085TIP3    H227201   2.864   0.538   2.340
 9086TIP3   OH227202   5.258   7.418   4.530
 9086TIP3    H127203   5.163   7.432   4.526
 9086TIP3    H227204   5.268   7.336   4.578
 9087TIP3   OH227205   4.184   2.007   4.512
 9087TIP3    H127206   4.175   2.096   4.548
 9087TIP3    H227207   4.134   1.952   4.572
 9088TIP3   OH227208   4.677   6.652   1.958
 9088TIP3    H127209   4.591   6.662   1.919
 9088TIP3    H227210   4.660   6.635   2.051
 9089TIP3   OH227211   6.893   5.361   5.066
 9089TIP3    H127212   6.854   5.276   5.087
 9089TIP3    H227213   6.886   5.367   4.971
 9090TIP3   OH227214   2.567   3.051   1.829
 9090TIP3    H127215   2.544   3.025   1.919
 9090TIP3    H227216   2.662   3.058   1.830
 9091TIP3   OH227217   2.272   2.250   1.142
 9091TIP3    H127218   2.365   2.270   1.130
 9091TIP3    H227219   2.239   2.230   1.054
 9092TIP3   OH227220   3.107   1.733   5.321
 9092TIP3    H127221   3.190   1.755   5.278
 9092TIP3    H227222   3.099   1.797   5.391
 9093TIP3   OH227223   4.163   3.845   4.454
 9093TIP3    H127224   4.257   3.853   4.470
 9093TIP3    H227225   4.140   3.759   4.491
 9094TIP3   OH227226   0.568   0.254   0.178
 9094TIP3    H127227   0.655   0.213   0.176
 9094TIP3    H227228   0.538   0.241   0.268
 9095TIP3   OH227229   1.905   2.817   2.818
 9095TIP3    H127230   1.987   2.806   2.770
 9095TIP3    H227231   1.880   2.908   2.801
 9096TIP3   OH227232   4.123   0.522   3.823
 9096TIP3    H127233   4.128   0.605   3.868
 9096TIP3    H227234   4.202   0.518   3.769
 9097TIP3   OH227235   0.185   3.516   3.096
 9097TIP3    H127236   0.108   3.512   3.040
 9097TIP3    H227237   0.151   3.512   3.186
 9098TIP3   OH227238   7.205   0.787   4.779
 9098TIP3    H127239   7.189   0.876   4.748
 9098TIP3    H227240   7.141   0.733   4.734
 9099TIP3   OH227241   6.129   2.151   2.783
 9099TIP3    H127242   6.099   2.134   2.694
 9099TIP3    H227243   6.143   2.065   2.822
 9100TIP3   OH227244   7.308   6.399   5.796
 9100TIP3    H127245   7.311   6.353   5.880
 9100TIP3    H227246   7.216   6.424   5.786
 9101TIP3   OH227247   1.633   5.859   5.564
 9101TIP3    H127248   1.566   5.877   5.498
 9101TIP3    H227249   1.716   5.872   5.519
 9102TIP3   OH227250   5.154   0.951   2.725
 9102TIP3    H127251   5.180   0.871   2.679
 9102TIP3    H227252   5.059   0.951   2.722
 9103TIP3   OH227253   6.522   4.417   3.751
 9103TIP3    H127254   6.534   4.323   3.736
 9103TIP3    H227255   6.610   4.451   3.766
 9104TIP3   OH227256   3.828   7.834   6.367
 9104TIP3    H127257   3.782   7.764   6.321
 9104TIP3    H227258   3.826   7.807   6.459
 9105TIP3   OH227259   3.721   2.651   2.309
 9105TIP3    H127260   3.651   2.678   2.369
 9105TIP3    H227261   3.709   2.556   2.300
 9106TIP3   OH227262   6.038   3.803   1.718
 9106TIP3    H127263   6.048   3.781   1.811
 9106TIP3    H227264   6.094   3.879   1.706
 9107TIP3   OH227265   6.250   7.496   0.392
 9107TIP3    H127266   6.223   7.573   0.343
 9107TIP3    H227267   6.227   7.516   0.483
 9108TIP3   OH227268   7.404   2.662   2.757
 9108TIP3    H127269   7.381   2.746   2.717
 9108TIP3    H227270   7.324   2.609   2.750
 9109TIP3   OH227271   6.020   4.395   3.697
 9109TIP3    H127272   6.060   4.349   3.624
 9109TIP3    H227273   5.932   4.417   3.666
 9110TIP3   OH227274   1.875   3.603   1.062
 9110TIP3    H127275   1.902   3.695   1.068
 9110TIP3    H227276   1.920   3.570   0.984
 9111TIP3   OH227277   4.459   6.488   1.547
 9111TIP3    H127278   4.518   6.427   1.591
 9111TIP3    H227279   4.451   6.561   1.607
 9112TIP3   OH227280   6.433   2.381   3.966
 9112TIP3    H127281   6.417   2.388   3.872
 9112TIP3    H227282   6.504   2.318   3.974
 9113TIP3   OH227283   0.128   2.203   4.066
 9113TIP3    H127284   0.142   2.110   4.085
 9113TIP3    H227285   0.170   2.216   3.980
 9114TIP3   OH227286   5.261   7.335   5.781
 9114TIP3    H127287   5.252   7.242   5.760
 9114TIP3    H227288   5.340   7.362   5.734
 9115TIP3   OH227289   2.132   4.918   3.532
 9115TIP3    H127290   2.057   4.976   3.523
 9115TIP3    H227291   2.195   4.968   3.586
 9116TIP3   OH227292   4.264   4.850   6.211
 9116TIP3    H127293   4.273   4.793   6.287
 9116TIP3    H227294   4.285   4.937   6.244
 9117TIP3   OH227295   0.588   4.013   1.174
 9117TIP3    H127296   0.590   3.934   1.120
 9117TIP3    H227297   0.515   3.999   1.234
 9118TIP3   OH227298   0.969   2.857   6.443
 9118TIP3    H127299   0.983   2.807   6.362
 9118TIP3    H227300   1.056   2.860   6.484
 9119TIP3   OH227301   6.637   4.162   0.192
 9119TIP3    H127302   6.661   4.070   0.186
 9119TIP3    H227303   6.720   4.209   0.187
 9120TIP3   OH227304   3.974   2.691   2.179
 9120TIP3    H127305   3.900   2.667   2.235
 9120TIP3    H227306   4.050   2.679   2.235
 9121TIP3   OH227307   2.426   5.253   1.645
 9121TIP3    H127308   2.381   5.307   1.709
 9121TIP3    H227309   2.482   5.195   1.697
 9122TIP3   OH227310   4.808   0.867   6.031
 9122TIP3    H127311   4.823   0.945   6.085
 9122TIP3    H227312   4.739   0.819   6.076
 9123TIP3   OH227313   6.731   3.838   2.665
 9123TIP3    H127314   6.693   3.925   2.672
 9123TIP3    H227315   6.825   3.852   2.678
 9124TIP3   OH227316   0.091   4.372   1.631
 9124TIP3    H127317   0.161   4.437   1.635
 9124TIP3    H227318   0.088   4.346   1.539
 9125TIP3   OH227319   2.901   1.876   5.005
 9125TIP3    H127320   2.925   1.965   5.029
 9125TIP3    H227321   2.849   1.884   4.926
 9126TIP3   OH227322   2.641   5.657   4.700
 9126TIP3    H127323   2.676   5.730   4.650
 9126TIP3    H227324   2.696   5.582   4.677
 9127TIP3   OH227325   7.764   0.153   4.697
 9127TIP3    H127326   7.851   0.178   4.727
 9127TIP3    H227327   7.775   0.134   4.603
 9128TIP3   OH227328   0.495   1.218   2.808
 9128TIP3    H127329   0.493   1.310   2.836
 9128TIP3    H227330   0.578   1.209   2.763
 9129TIP3   OH227331   1.539   0.670   5.104
 9129TIP3    H127332   1.625   0.711   5.113
 9129TIP3    H227333   1.484   0.716   5.168
 9130TIP3   OH227334   4.193   4.938   2.243
 9130TIP3    H127335   4.162   5.006   2.183
 9130TIP3    H227336   4.277   4.971   2.275
 9131TIP3   OH227337   7.098   6.359   0.354
 9131TIP3    H127338   7.161   6.417   0.310
 9131TIP3    H227339   7.045   6.322   0.283
 9132TIP3   OH227340   5.794   1.434   2.220
 9132TIP3    H127341   5.792   1.520   2.177
 9132TIP3    H227342   5.702   1.413   2.236
 9133TIP3   OH227343   0.164   4.184   4.736
 9133TIP3    H127344   0.211   4.246   4.680
 9133TIP3    H227345   0.139   4.236   4.813
 9134TIP3   OH227346   6.167   4.914   3.476
 9134TIP3    H127347   6.231   4.924   3.406
 9134TIP3    H227348   6.220   4.905   3.556
 9135TIP3   OH227349   4.336   3.665   5.144
 9135TIP3    H127350   4.341   3.756   5.116
 9135TIP3    H227351   4.255   3.633   5.104
 9136TIP3   OH227352   0.131   7.659   3.388
 9136TIP3    H127353   0.223   7.674   3.410
 9136TIP3    H227354   0.082   7.703   3.457
 9137TIP3   OH227355   6.599   3.616   2.528
 9137TIP3    H127356   6.582   3.693   2.473
 9137TIP3    H227357   6.644   3.652   2.605
 9138TIP3   OH227358   1.800   2.077   4.079
 9138TIP3    H127359   1.791   2.170   4.100
 9138TIP3    H227360   1.744   2.066   4.002
 9139TIP3   OH227361   8.217   4.179   3.738
 9139TIP3    H127362   8.135   4.180   3.687
 9139TIP3    H227363   8.285   4.167   3.672
 9140TIP3   OH227364   2.675   1.734   3.687
 9140TIP3    H127365   2.610   1.804   3.697
 9140TIP3    H227366   2.755   1.770   3.724
 9141TIP3   OH227367   5.202   4.394   1.112
 9141TIP3    H127368   5.283   4.345   1.119
 9141TIP3    H227369   5.140   4.347   1.168
 9142TIP3   OH227370   4.749   2.250   5.050
 9142TIP3    H127371   4.787   2.180   5.103
 9142TIP3    H227372   4.810   2.260   4.977
 9143TIP3   OH227373   6.529   4.906   0.793
 9143TIP3    H127374   6.456   4.969   0.794
 9143TIP3    H227375   6.508   4.844   0.863
 9144TIP3   OH227376   3.878   2.494   3.461
 9144TIP3    H127377   3.856   2.401   3.460
 9144TIP3    H227378   3.973   2.496   3.468
 9145TIP3   OH227379   6.403   6.532   6.059
 9145TIP3    H127380   6.472   6.589   6.025
 9145TIP3    H227381   6.323   6.583   6.050
 9146TIP3   OH227382   0.048   0.115   3.628
 9146TIP3    H127383  -0.029   0.087   3.678
 9146TIP3    H227384   0.104   0.037   3.626
 9147TIP3   OH227385   4.547   2.108   1.330
 9147TIP3    H127386   4.548   2.020   1.293
 9147TIP3    H227387   4.574   2.096   1.421
 9148TIP3   OH227388   5.146   5.420   0.126
 9148TIP3    H127389   5.223   5.465   0.092
 9148TIP3    H227390   5.073   5.455   0.074
 9149TIP3   OH227391  -0.061   3.571   1.362
 9149TIP3    H127392  -0.005   3.583   1.438
 9149TIP3    H227393  -0.078   3.476   1.359
 9150TIP3   OH227394   4.038   7.682   3.876
 9150TIP3    H127395   3.985   7.746   3.924
 9150TIP3    H227396   4.099   7.649   3.942
 9151TIP3   OH227397   6.605   4.731   4.175
 9151TIP3    H127398   6.681   4.716   4.233
 9151TIP3    H227399   6.638   4.712   4.087
 9152TIP3   OH227400   6.149   4.161   0.726
 9152TIP3    H127401   6.197   4.118   0.656
 9152TIP3    H227402   6.065   4.184   0.687
 9153TIP3   OH227403   5.271   0.346   5.148
 9153TIP3    H127404   5.298   0.416   5.208
 9153TIP3    H227405   5.180   0.328   5.170
 9154TIP3   OH227406   3.361   7.126   4.196
 9154TIP3    H127407   3.294   7.161   4.138
 9154TIP3    H227408   3.338   7.159   4.282
 9155TIP3   OH227409   6.586   6.709   3.330
 9155TIP3    H127410   6.647   6.744   3.394
 9155TIP3    H227411   6.641   6.674   3.259
 9156TIP3   OH227412   7.646   7.093   4.092
 9156TIP3    H127413   7.658   7.037   4.016
 9156TIP3    H227414   7.717   7.158   4.086
 9157TIP3   OH227415   7.857   5.604   3.219
 9157TIP3    H127416   7.796   5.674   3.244
 9157TIP3    H227417   7.943   5.638   3.242
 9158TIP3   OH227418   2.379   1.119   3.000
 9158TIP3    H127419   2.336   1.164   3.072
 9158TIP3    H227420   2.434   1.053   3.042
 9159TIP3   OH227421   3.012   7.093   2.670
 9159TIP3    H127422   3.103   7.122   2.674
 9159TIP3    H227423   2.965   7.156   2.725
 9160TIP3   OH227424   3.726   0.237   5.601
 9160TIP3    H127425   3.735   0.189   5.684
 9160TIP3    H227426   3.642   0.208   5.565
 9161TIP3   OH227427   1.075   7.345   5.518
 9161TIP3    H127428   0.988   7.307   5.506
 9161TIP3    H227429   1.067   7.399   5.598
 9162TIP3   OH227430   5.195   5.217   4.960
 9162TIP3    H127431   5.266   5.164   4.997
 9162TIP3    H227432   5.119   5.159   4.958
 9163TIP3   OH227433   8.160   4.586   5.464
 9163TIP3    H127434   8.067   4.561   5.465
 9163TIP3    H227435   8.193   4.553   5.381
 9164TIP3   OH227436   4.212   2.169   6.637
 9164TIP3    H127437   4.283   2.118   6.676
 9164TIP3    H227438   4.256   2.237   6.586
 9165TIP3   OH227439   1.001   6.125   4.651
 9165TIP3    H127440   0.940   6.081   4.592
 9165TIP3    H227441   0.967   6.107   4.739
 9166TIP3   OH227442   4.717   5.195   1.126
 9166TIP3    H127443   4.755   5.283   1.117
 9166TIP3    H227444   4.778   5.149   1.184
 9167TIP3   OH227445   3.264   4.923   0.497
 9167TIP3    H127446   3.242   4.936   0.405
 9167TIP3    H227447   3.359   4.929   0.501
 9168TIP3   OH227448   8.053   3.784   1.034
 9168TIP3    H127449   7.995   3.854   1.006
 9168TIP3    H227450   8.111   3.826   1.098
 9169TIP3   OH227451   2.545   4.724   2.449
 9169TIP3    H127452   2.470   4.780   2.433
 9169TIP3    H227453   2.599   4.732   2.370
 9170TIP3   OH227454   1.593   5.600   3.748
 9170TIP3    H127455   1.619   5.531   3.809
 9170TIP3    H227456   1.517   5.641   3.788
 9171TIP3   OH227457   8.077   5.292   0.996
 9171TIP3    H127458   8.106   5.243   0.920
 9171TIP3    H227459   8.114   5.379   0.984
 9172TIP3   OH227460   3.503   7.860   0.310
 9172TIP3    H127461   3.578   7.803   0.329
 9172TIP3    H227462   3.457   7.816   0.238
 9173TIP3   OH227463   4.719   6.939   2.038
 9173TIP3    H127464   4.637   6.966   1.998
 9173TIP3    H227465   4.734   6.850   2.005
 9174TIP3   OH227466   0.802   3.675   4.092
 9174TIP3    H127467   0.723   3.717   4.058
 9174TIP3    H227468   0.828   3.730   4.166
 9175TIP3   OH227469   3.134   7.592   1.288
 9175TIP3    H127470   3.129   7.497   1.276
 9175TIP3    H227471   3.155   7.604   1.381
 9176TIP3   OH227472   7.734   1.795   2.295
 9176TIP3    H127473   7.732   1.858   2.223
 9176TIP3    H227474   7.721   1.710   2.253
 9177TIP3   OH227475   0.900   7.005  -0.011
 9177TIP3    H127476   0.931   7.084  -0.057
 9177TIP3    H227477   0.865   7.038   0.072
 9178TIP3   OH227478   1.507   2.175   1.975
 9178TIP3    H127479   1.565   2.215   1.910
 9178TIP3    H227480   1.419   2.202   1.948
 9179TIP3   OH227481   4.427   0.485   5.556
 9179TIP3    H127482   4.435   0.580   5.570
 9179TIP3    H227483   4.334   0.468   5.568
 9180TIP3   OH227484   5.252   5.622   6.096
 9180TIP3    H127485   5.276   5.578   6.015
 9180TIP3    H227486   5.283   5.712   6.084
 9181TIP3   OH227487   0.479   7.273   5.495
 9181TIP3    H127488   0.477   7.248   5.402
 9181TIP3    H227489   0.420   7.212   5.537
 9182TIP3   OH227490   5.352   2.511   6.749
 9182TIP3    H127491   5.439   2.547   6.767
 9182TIP3    H227492   5.303   2.584   6.712
 9183TIP3   OH227493   5.996   2.576   3.682
 9183TIP3    H127494   6.017   2.656   3.634
 9183TIP3    H227495   5.985   2.604   3.773
 9184TIP3   OH227496   2.261   7.102   3.206
 9184TIP3    H127497   2.235   7.079   3.295
 9184TIP3    H227498   2.267   7.197   3.207
 9185TIP3   OH227499   2.380   5.366   4.705
 9185TIP3    H127500   2.457   5.372   4.761
 9185TIP3    H227501   2.319   5.431   4.740
 9186TIP3   OH227502   6.236   3.190   5.192
 9186TIP3    H127503   6.284   3.191   5.110
 9186TIP3    H227504   6.251   3.102   5.228
 9187TIP3   OH227505   3.957   0.034   6.146
 9187TIP3    H127506   4.051   0.026   6.129
 9187TIP3    H227507   3.951   0.098   6.217
 9188TIP3   OH227508   7.936   1.010   4.131
 9188TIP3    H127509   7.940   1.016   4.227
 9188TIP3    H227510   7.851   1.048   4.108
 9189TIP3   OH227511   0.585   4.847   4.329
 9189TIP3    H127512   0.653   4.855   4.263
 9189TIP3    H227513   0.590   4.927   4.381
 9190TIP3   OH227514   1.676   3.103   4.744
 9190TIP3    H127515   1.644   3.129   4.658
 9190TIP3    H227516   1.772   3.103   4.736
 9191TIP3   OH227517   4.094   2.491   1.333
 9191TIP3    H127518   4.103   2.585   1.315
 9191TIP3    H227519   4.139   2.479   1.417
 9192TIP3   OH227520   6.940   1.509   5.329
 9192TIP3    H127521   6.862   1.479   5.281
 9192TIP3    H227522   7.012   1.497   5.267
 9193TIP3   OH227523   1.951   3.301   0.513
 9193TIP3    H127524   1.924   3.275   0.601
 9193TIP3    H227525   1.943   3.222   0.461
 9194TIP3   OH227526   2.112   4.283   1.571
 9194TIP3    H127527   2.111   4.210   1.634
 9194TIP3    H227528   2.059   4.253   1.498
 9195TIP3   OH227529   6.984   3.560   5.082
 9195TIP3    H127530   7.067   3.607   5.098
 9195TIP3    H227531   6.981   3.549   4.987
 9196TIP3   OH227532   5.467   0.996   5.224
 9196TIP3    H127533   5.540   0.967   5.168
 9196TIP3    H227534   5.462   1.090   5.210
 9197TIP3   OH227535   2.055   0.493   1.058
 9197TIP3    H127536   2.143   0.527   1.077
 9197TIP3    H227537   2.046   0.501   0.963
 9198TIP3   OH227538   0.314   0.560   4.344
 9198TIP3    H127539   0.382   0.588   4.406
 9198TIP3    H227540   0.233   0.564   4.393
 9199TIP3   OH227541   3.960   3.042   1.828
 9199TIP3    H127542   3.939   3.009   1.916
 9199TIP3    H227543   3.967   3.137   1.839
 9200TIP3   OH227544   4.121   5.018   6.026
 9200TIP3    H127545   4.191   5.052   5.971
 9200TIP3    H227546   4.166   4.983   6.103
 9201TIP3   OH227547   5.977   3.396   1.582
 9201TIP3    H127548   5.919   3.448   1.638
 9201TIP3    H227549   5.960   3.305   1.607
 9202TIP3   OH227550   4.623   2.051   3.210
 9202TIP3    H127551   4.616   1.978   3.271
 9202TIP3    H227552   4.584   2.125   3.257
 9203TIP3   OH227553   1.970   7.315   6.648
 9203TIP3    H127554   1.967   7.348   6.737
 9203TIP3    H227555   1.898   7.252   6.643
 9204TIP3   OH227556   0.859   6.302   0.497
 9204TIP3    H127557   0.876   6.386   0.539
 9204TIP3    H227558   0.927   6.244   0.530
 9205TIP3   OH227559   8.216   0.641   2.739
 9205TIP3    H127560   8.225   0.581   2.813
 9205TIP3    H227561   8.136   0.690   2.757
 9206TIP3   OH227562   1.334   4.880   2.251
 9206TIP3    H127563   1.386   4.915   2.179
 9206TIP3    H227564   1.394   4.825   2.300
 9207TIP3   OH227565   0.887   4.470   5.510
 9207TIP3    H127566   0.943   4.520   5.569
 9207TIP3    H227567   0.865   4.532   5.440
 9208TIP3   OH227568   6.069   3.178   1.064
 9208TIP3    H127569   5.987   3.163   1.110
 9208TIP3    H227570   6.137   3.152   1.127
 9209TIP3   OH227571   6.830   1.928   1.193
 9209TIP3    H127572   6.873   1.850   1.230
 9209TIP3    H227573   6.778   1.894   1.121
 9210TIP3   OH227574   7.595   3.132   4.811
 9210TIP3    H127575   7.532   3.183   4.862
 9210TIP3    H227576   7.638   3.196   4.754
 9211TIP3   OH227577   1.616   1.338   3.554
 9211TIP3    H127578   1.708   1.316   3.539
 9211TIP3    H227579   1.597   1.408   3.491
 9212TIP3   OH227580   4.042   6.639   6.090
 9212TIP3    H127581   4.045   6.734   6.096
 9212TIP3    H227582   4.080   6.619   6.004
 9213TIP3   OH227583   7.000   2.814   1.956
 9213TIP3    H127584   7.046   2.802   1.873
 9213TIP3    H227585   7.067   2.798   2.023
 9214TIP3   OH227586   0.981   0.624   3.346
 9214TIP3    H127587   0.933   0.564   3.289
 9214TIP3    H227588   0.961   0.711   3.312
 9215TIP3   OH227589   0.374   1.846   1.119
 9215TIP3    H127590   0.312   1.914   1.091
 9215TIP3    H227591   0.405   1.807   1.037
 9216TIP3   OH227592   5.095   1.369   1.852
 9216TIP3    H127593   5.062   1.279   1.853
 9216TIP3    H227594   5.190   1.359   1.846
 9217TIP3   OH227595   7.052   0.458   3.829
 9217TIP3    H127596   7.090   0.373   3.809
 9217TIP3    H227597   7.127   0.515   3.847
 9218TIP3   OH227598   1.716   2.231   0.875
 9218TIP3    H127599   1.664   2.294   0.925
 9218TIP3    H227600   1.742   2.278   0.796
 9219TIP3   OH227601   0.741   2.020   0.962
 9219TIP3    H127602   0.784   2.007   1.047
 9219TIP3    H227603   0.717   1.932   0.934
 9220TIP3   OH227604   2.492   7.516   4.992
 9220TIP3    H127605   2.404   7.490   5.020
 9220TIP3    H227606   2.518   7.448   4.929
 9221TIP3   OH227607   6.820   4.117   3.366
 9221TIP3    H127608   6.754   4.048   3.375
 9221TIP3    H227609   6.784   4.191   3.415
 9222TIP3   OH227610   3.190   2.761   1.773
 9222TIP3    H127611   3.193   2.666   1.766
 9222TIP3    H227612   3.248   2.782   1.846
 9223TIP3   OH227613   7.104   7.143   5.573
 9223TIP3    H127614   7.101   7.238   5.579
 9223TIP3    H227615   7.021   7.118   5.531
 9224TIP3   OH227616   0.033   2.177   6.092
 9224TIP3    H127617   0.010   2.085   6.100
 9224TIP3    H227618   0.045   2.208   6.182
 9225TIP3   OH227619   5.240   0.411   2.036
 9225TIP3    H127620   5.247   0.358   1.957
 9225TIP3    H227621   5.302   0.372   2.098
 9226TIP3   OH227622   3.089   7.309   0.914
 9226TIP3    H127623   3.038   7.350   0.983
 9226TIP3    H227624   3.032   7.311   0.837
 9227TIP3   OH227625   2.393   7.253   5.126
 9227TIP3    H127626   2.458   7.309   5.168
 9227TIP3    H227627   2.321   7.248   5.189
 9228TIP3   OH227628   0.023   0.240   6.369
 9228TIP3    H127629   0.072   0.168   6.329
 9228TIP3    H227630   0.090   0.305   6.390
 9229TIP3   OH227631   4.646   0.732   1.140
 9229TIP3    H127632   4.551   0.725   1.124
 9229TIP3    H227633   4.682   0.759   1.055
 9230TIP3   OH227634   6.985   2.714   0.810
 9230TIP3    H127635   6.914   2.695   0.749
 9230TIP3    H227636   7.054   2.752   0.755
 9231TIP3   OH227637   0.069   5.722   5.749
 9231TIP3    H127638  -0.026   5.707   5.748
 9231TIP3    H227639   0.106   5.643   5.708
 9232TIP3   OH227640   1.024   1.559   3.908
 9232TIP3    H127641   1.051   1.563   3.816
 9232TIP3    H227642   0.964   1.633   3.918
 9233TIP3   OH227643   2.549   2.804   3.211
 9233TIP3    H127644   2.484   2.738   3.183
 9233TIP3    H227645   2.631   2.774   3.173
 9234TIP3   OH227646   5.171   5.396   4.270
 9234TIP3    H127647   5.095   5.420   4.323
 9234TIP3    H227648   5.146   5.313   4.229
 9235TIP3   OH227649   2.833   0.533   0.564
 9235TIP3    H127650   2.806   0.590   0.636
 9235TIP3    H227651   2.918   0.498   0.592
 9236TIP3   OH227652   4.525   1.325   0.832
 9236TIP3    H127653   4.578   1.391   0.788
 9236TIP3    H227654   4.482   1.278   0.760
 9237TIP3   OH227655   4.630   1.953   2.687
 9237TIP3    H127656   4.576   1.887   2.644
 9237TIP3    H227657   4.615   1.938   2.781
 9238TIP3   OH227658   5.069   1.264   0.258
 9238TIP3    H127659   4.983   1.244   0.221
 9238TIP3    H227660   5.051   1.278   0.351
 9239TIP3   OH227661   3.121   5.845   6.192
 9239TIP3    H127662   3.175   5.846   6.272
 9239TIP3    H227663   3.185   5.849   6.121
 9240TIP3   OH227664   4.037   6.350   3.148
 9240TIP3    H127665   3.945   6.369   3.166
 9240TIP3    H227666   4.084   6.383   3.224
 9241TIP3   OH227667   0.748   0.477   4.945
 9241TIP3    H127668   0.671   0.523   4.979
 9241TIP3    H227669   0.822   0.529   4.975
 9242TIP3   OH227670   5.583   1.777   1.481
 9242TIP3    H127671   5.525   1.802   1.409
 9242TIP3    H227672   5.569   1.682   1.491
 9243TIP3   OH227673   6.047   4.829   1.681
 9243TIP3    H127674   6.003   4.905   1.720
 9243TIP3    H227675   6.138   4.837   1.709
 9244TIP3   OH227676   4.501   0.636   5.031
 9244TIP3    H127677   4.427   0.615   4.975
 9244TIP3    H227678   4.493   0.730   5.049
 9245TIP3   OH227679   6.257   4.108   3.136
 9245TIP3    H127680   6.209   4.098   3.218
 9245TIP3    H227681   6.305   4.026   3.125
 9246TIP3   OH227682   7.643   6.144   0.655
 9246TIP3    H127683   7.720   6.177   0.608
 9246TIP3    H227684   7.595   6.094   0.589
 9247TIP3   OH227685   7.659   7.809   1.127
 9247TIP3    H127686   7.612   7.764   1.056
 9247TIP3    H227687   7.717   7.742   1.163
 9248TIP3   OH227688   7.720   0.995   0.712
 9248TIP3    H127689   7.814   0.990   0.695
 9248TIP3    H227690   7.688   1.062   0.651
 9249TIP3   OH227691   0.480   4.400   0.620
 9249TIP3    H127692   0.553   4.404   0.558
 9249TIP3    H227693   0.404   4.428   0.569
 9250TIP3   OH227694   1.967   7.121   1.674
 9250TIP3    H127695   1.992   7.202   1.630
 9250TIP3    H227696   2.015   7.053   1.627
 9251TIP3   OH227697   1.552   0.053   3.511
 9251TIP3    H127698   1.483   0.119   3.520
 9251TIP3    H227699   1.534  -0.009   3.582
 9252TIP3   OH227700   0.738   1.339   1.768
 9252TIP3    H127701   0.811   1.278   1.775
 9252TIP3    H227702   0.713   1.336   1.675
 9253TIP3   OH227703   8.188   5.634   1.975
 9253TIP3    H127704   8.190   5.708   2.035
 9253TIP3    H227705   8.100   5.635   1.938
 9254TIP3   OH227706   1.482   1.157   2.362
 9254TIP3    H127707   1.547   1.222   2.336
 9254TIP3    H227708   1.509   1.128   2.449
 9255TIP3   OH227709   5.894   0.342   4.988
 9255TIP3    H127710   5.837   0.345   5.064
 9255TIP3    H227711   5.982   0.332   5.024
 9256TIP3   OH227712   0.242   6.228   0.059
 9256TIP3    H127713   0.157   6.270   0.075
 9256TIP3    H227714   0.225   6.135   0.075
 9257TIP3   OH227715   4.822   4.537   3.102
 9257TIP3    H127716   4.762   4.528   3.176
 9257TIP3    H227717   4.893   4.592   3.135
 9258TIP3   OH227718   0.881   7.606   3.143
 9258TIP3    H127719   0.953   7.649   3.189
 9258TIP3    H227720   0.905   7.613   3.050
 9259TIP3   OH227721   0.756   3.505   0.539
 9259TIP3    H127722   0.661   3.517   0.547
 9259TIP3    H227723   0.788   3.591   0.513
 9260TIP3   OH227724   7.327   6.754   1.940
 9260TIP3    H127725   7.369   6.775   2.024
 9260TIP3    H227726   7.337   6.834   1.888
 9261TIP3   OH227727   2.958   6.283   1.063
 9261TIP3    H127728   2.921   6.344   1.127
 9261TIP3    H227729   2.921   6.310   0.980
 9262TIP3   OH227730   3.690   2.641   3.846
 9262TIP3    H127731   3.679   2.556   3.889
 9262TIP3    H227732   3.784   2.657   3.848
 9263TIP3   OH227733   1.250   5.403   3.807
 9263TIP3    H127734   1.250   5.352   3.888
 9263TIP3    H227735   1.191   5.476   3.825
 9264TIP3   OH227736   2.179   4.509   5.586
 9264TIP3    H127737   2.121   4.490   5.659
 9264TIP3    H227738   2.120   4.538   5.516
 9265TIP3   OH227739   1.578   5.445   2.924
 9265TIP3    H127740   1.483   5.453   2.927
 9265TIP3    H227741   1.603   5.423   3.014
 9266TIP3   OH227742   6.913   6.223   4.068
 9266TIP3    H127743   6.899   6.284   3.997
 9266TIP3    H227744   6.860   6.257   4.140
 9267TIP3   OH227745   0.048   0.962   4.835
 9267TIP3    H127746   0.103   0.930   4.764
 9267TIP3    H227747  -0.033   0.912   4.826
 9268TIP3   OH227748   0.065   2.776   3.769
 9268TIP3    H127749   0.024   2.695   3.738
 9268TIP3    H227750   0.095   2.755   3.857
 9269TIP3   OH227751   6.527   5.561   5.642
 9269TIP3    H127752   6.599   5.592   5.697
 9269TIP3    H227753   6.564   5.490   5.591
 9270TIP3   OH227754   4.728   3.944   0.360
 9270TIP3    H127755   4.665   3.880   0.329
 9270TIP3    H227756   4.761   3.908   0.443
 9271TIP3   OH227757   5.624   4.818   6.304
 9271TIP3    H127758   5.543   4.783   6.268
 9271TIP3    H227759   5.608   4.822   6.399
 9272TIP3   OH227760   7.759   7.682   5.356
 9272TIP3    H127761   7.761   7.754   5.418
 9272TIP3    H227762   7.768   7.723   5.270
 9273TIP3   OH227763   2.328   2.404   0.131
 9273TIP3    H127764   2.305   2.468   0.064
 9273TIP3    H227765   2.324   2.452   0.213
 9274TIP3   OH227766   5.484   3.432   1.801
 9274TIP3    H127767   5.429   3.467   1.871
 9274TIP3    H227768   5.440   3.351   1.774
 9275TIP3   OH227769   5.460   7.150   2.451
 9275TIP3    H127770   5.426   7.176   2.537
 9275TIP3    H227771   5.455   7.229   2.398
 9276TIP3   OH227772   7.432   2.272   0.090
 9276TIP3    H127773   7.479   2.337   0.142
 9276TIP3    H227774   7.391   2.214   0.155
 9277TIP3   OH227775   7.233   3.549   3.803
 9277TIP3    H127776   7.302   3.614   3.789
 9277TIP3    H227777   7.152   3.600   3.804
 9278TIP3   OH227778   5.064   3.668   4.481
 9278TIP3    H127779   5.019   3.653   4.564
 9278TIP3    H227780   5.054   3.586   4.433
 9279TIP3   OH227781   6.262   2.664   5.317
 9279TIP3    H127782   6.331   2.608   5.351
 9279TIP3    H227783   6.202   2.604   5.272
 9280TIP3   OH227784   0.004   1.438   3.998
 9280TIP3    H127785   0.086   1.485   4.009
 9280TIP3    H227786   0.026   1.362   3.945
 9281TIP3   OH227787   4.348   2.249   2.937
 9281TIP3    H127788   4.277   2.287   2.988
 9281TIP3    H227789   4.411   2.320   2.926
 9282TIP3   OH227790   0.242   5.998   5.461
 9282TIP3    H127791   0.240   6.093   5.473
 9282TIP3    H227792   0.187   5.964   5.531
 9283TIP3   OH227793   0.041   5.367   6.062
 9283TIP3    H127794   0.046   5.371   6.157
 9283TIP3    H227795   0.132   5.354   6.034
 9284TIP3   OH227796   4.764   3.532   6.312
 9284TIP3    H127797   4.747   3.553   6.220
 9284TIP3    H227798   4.851   3.492   6.312
 9285TIP3   OH227799   0.822   6.810   5.170
 9285TIP3    H127800   0.831   6.856   5.086
 9285TIP3    H227801   0.876   6.862   5.231
 9286TIP3   OH227802   3.321   6.536   1.274
 9286TIP3    H127803   3.413   6.518   1.296
 9286TIP3    H227804   3.296   6.608   1.332
 9287TIP3   OH227805   1.866   7.818   3.467
 9287TIP3    H127806   1.890   7.758   3.396
 9287TIP3    H227807   1.829   7.761   3.534
 9288TIP3   OH227808   4.303   2.172   6.039
 9288TIP3    H127809   4.278   2.259   6.010
 9288TIP3    H227810   4.327   2.125   5.959
 9289TIP3   OH227811   1.401   6.030   2.346
 9289TIP3    H127812   1.347   5.973   2.400
 9289TIP3    H227813   1.349   6.110   2.336
 9290TIP3   OH227814   5.808   5.078   3.410
 9290TIP3    H127815   5.795   4.996   3.361
 9290TIP3    H227816   5.897   5.073   3.443
 9291TIP3   OH227817   2.995   2.431   0.489
 9291TIP3    H127818   2.908   2.466   0.469
 9291TIP3    H227819   3.049   2.509   0.505
 9292TIP3   OH227820   4.386   3.936   5.129
 9292TIP3    H127821   4.421   4.019   5.162
 9292TIP3    H227822   4.418   3.931   5.039
 9293TIP3   OH227823   3.634   6.660   4.019
 9293TIP3    H127824   3.677   6.588   4.065
 9293TIP3    H227825   3.581   6.703   4.085
 9294TIP3   OH227826   2.329   6.982   3.933
 9294TIP3    H127827   2.353   7.055   3.876
 9294TIP3    H227828   2.408   6.927   3.934
 9295TIP3   OH227829   5.300   6.144   5.828
 9295TIP3    H127830   5.220   6.119   5.781
 9295TIP3    H227831   5.269   6.181   5.910
 9296TIP3   OH227832   1.554   3.368   3.713
 9296TIP3    H127833   1.507   3.322   3.783
 9296TIP3    H227834   1.622   3.418   3.758
 9297TIP3   OH227835   0.150   2.448   3.321
 9297TIP3    H127836   0.224   2.387   3.310
 9297TIP3    H227837   0.078   2.407   3.272
 9298TIP3   OH227838   4.431   6.614   1.800
 9298TIP3    H127839   4.378   6.692   1.790
 9298TIP3    H227840   4.385   6.561   1.865
 9299TIP3   OH227841   0.559   5.863   6.119
 9299TIP3    H127842   0.557   5.769   6.104
 9299TIP3    H227843   0.630   5.876   6.181
 9300TIP3   OH227844   0.050   4.452   3.637
 9300TIP3    H127845   0.111   4.436   3.564
 9300TIP3    H227846  -0.002   4.372   3.642
 9301TIP3   OH227847   0.324   7.112   5.762
 9301TIP3    H127848   0.230   7.123   5.753
 9301TIP3    H227849   0.346   7.159   5.842
 9302TIP3   OH227850   4.024   7.487   0.489
 9302TIP3    H127851   4.070   7.565   0.521
 9302TIP3    H227852   3.976   7.455   0.565
 9303TIP3   OH227853   7.202   4.355   3.172
 9303TIP3    H127854   7.161   4.304   3.242
 9303TIP3    H227855   7.256   4.291   3.125
 9304TIP3   OH227856   2.862   4.291   1.638
 9304TIP3    H127857   2.924   4.223   1.664
 9304TIP3    H227858   2.879   4.363   1.699
 9305TIP3   OH227859   1.375   7.464   4.037
 9305TIP3    H127860   1.426   7.492   4.112
 9305TIP3    H227861   1.410   7.514   3.964
 9306TIP3   OH227862   2.252   0.297   4.829
 9306TIP3    H127863   2.161   0.268   4.822
 9306TIP3    H227864   2.292   0.235   4.890
 9307TIP3   OH227865   7.224   4.558   5.613
 9307TIP3    H127866   7.157   4.625   5.628
 9307TIP3    H227867   7.266   4.584   5.530
 9308TIP3   OH227868   8.174   0.443   0.160
 9308TIP3    H127869   8.224   0.522   0.178
 9308TIP3    H227870   8.086   0.462   0.191
 9309TIP3   OH227871   8.271   6.539   3.632
 9309TIP3    H127872   8.209   6.502   3.569
 9309TIP3    H227873   8.356   6.501   3.607
 9310TIP3   OH227874   0.871   3.779   0.793
 9310TIP3    H127875   0.800   3.831   0.831
 9310TIP3    H227876   0.857   3.783   0.699
 9311TIP3   OH227877   0.345   0.693   3.646
 9311TIP3    H127878   0.410   0.652   3.704
 9311TIP3    H227879   0.273   0.717   3.704
 9312TIP3   OH227880   3.559   6.964   5.507
 9312TIP3    H127881   3.626   6.984   5.441
 9312TIP3    H227882   3.605   6.911   5.572
 9313TIP3   OH227883   7.451   6.283   4.764
 9313TIP3    H127884   7.487   6.359   4.719
 9313TIP3    H227885   7.404   6.234   4.695
 9314TIP3   OH227886   1.959   5.720   2.810
 9314TIP3    H127887   1.938   5.663   2.884
 9314TIP3    H227888   1.877   5.766   2.791
 9315TIP3   OH227889   5.631   6.500   3.116
 9315TIP3    H127890   5.611   6.462   3.030
 9315TIP3    H227891   5.626   6.427   3.177
 9316TIP3   OH227892   8.246   3.201   3.268
 9316TIP3    H127893   8.178   3.186   3.202
 9316TIP3    H227894   8.228   3.288   3.302
 9317TIP3   OH227895   8.185   2.840   0.336
 9317TIP3    H127896   8.260   2.809   0.286
 9317TIP3    H227897   8.147   2.910   0.282
 9318TIP3   OH227898   3.990   3.134   0.725
 9318TIP3    H127899   4.040   3.150   0.805
 9318TIP3    H227900   4.042   3.070   0.676
 9319TIP3   OH227901   6.407   6.005   5.024
 9319TIP3    H127902   6.409   6.012   4.929
 9319TIP3    H227903   6.450   6.085   5.055
 9320TIP3   OH227904   6.833   6.654   2.014
 9320TIP3    H127905   6.776   6.712   1.964
 9320TIP3    H227906   6.904   6.710   2.044
 9321TIP3   OH227907   2.009   7.314   5.908
 9321TIP3    H127908   1.941   7.253   5.881
 9321TIP3    H227909   2.019   7.374   5.833
 9322TIP3   OH227910   0.265   4.923   2.839
 9322TIP3    H127911   0.314   4.876   2.772
 9322TIP3    H227912   0.183   4.874   2.848
 9323TIP3   OH227913   7.226   2.148   1.106
 9323TIP3    H127914   7.189   2.179   1.189
 9323TIP3    H227915   7.186   2.205   1.041
 9324TIP3   OH227916   1.038   4.215   4.226
 9324TIP3    H127917   0.959   4.171   4.193
 9324TIP3    H227918   1.092   4.145   4.262
 9325TIP3   OH227919   7.250   3.187   1.148
 9325TIP3    H127920   7.207   3.271   1.129
 9325TIP3    H227921   7.183   3.121   1.131
 9326TIP3   OH227922   5.950   0.218   2.246
 9326TIP3    H127923   5.907   0.249   2.325
 9326TIP3    H227924   5.978   0.298   2.201
 9327TIP3   OH227925   0.342   7.083   0.613
 9327TIP3    H127926   0.420   7.077   0.559
 9327TIP3    H227927   0.295   7.159   0.579
 9328TIP3   OH227928   0.671   5.652   2.903
 9328TIP3    H127929   0.592   5.659   2.956
 9328TIP3    H227930   0.661   5.719   2.835
 9329TIP3   OH227931   5.926   5.261  -0.030
 9329TIP3    H127932   6.007   5.220   0.002
 9329TIP3    H227933   5.857   5.200  -0.003
 9330TIP3   OH227934   0.616   1.544   2.448
 9330TIP3    H127935   0.602   1.638   2.445
 9330TIP3    H227936   0.559   1.508   2.380
 9331TIP3   OH227937   2.804   2.509   4.362
 9331TIP3    H127938   2.860   2.487   4.437
 9331TIP3    H227939   2.792   2.425   4.317
 9332TIP3   OH227940   0.823   7.720   5.109
 9332TIP3    H127941   0.749   7.776   5.133
 9332TIP3    H227942   0.791   7.668   5.035
 9333TIP3   OH227943   7.196   1.828   1.893
 9333TIP3    H127944   7.272   1.774   1.917
 9333TIP3    H227945   7.165   1.790   1.810
 9334TIP3   OH227946   4.831   0.010   2.021
 9334TIP3    H127947   4.802   0.101   2.015
 9334TIP3    H227948   4.896   0.011   2.092
 9335TIP3   OH227949   8.225   6.154   2.586
 9335TIP3    H127950   8.247   6.084   2.647
 9335TIP3    H227951   8.282   6.227   2.611
 9336TIP3   OH227952   6.712   7.421   6.426
 9336TIP3    H127953   6.770   7.401   6.353
 9336TIP3    H227954   6.700   7.516   6.422
 9337TIP3   OH227955   6.523   2.715   0.753
 9337TIP3    H127956   6.491   2.789   0.703
 9337TIP3    H227957   6.483   2.638   0.712
 9338TIP3   OH227958   6.228   0.810   2.297
 9338TIP3    H127959   6.163   0.872   2.265
 9338TIP3    H227960   6.180   0.728   2.311
 9339TIP3   OH227961   0.294   5.610   0.733
 9339TIP3    H127962   0.304   5.515   0.734
 9339TIP3    H227963   0.384   5.644   0.732
 9340TIP3   OH227964   0.133   1.569   3.036
 9340TIP3    H127965   0.067   1.516   3.081
 9340TIP3    H227966   0.086   1.647   3.007
 9341TIP3   OH227967   5.349   6.258   3.500
 9341TIP3    H127968   5.424   6.291   3.550
 9341TIP3    H227969   5.324   6.177   3.545
 9342TIP3   OH227970   0.955   1.225   5.203
 9342TIP3    H127971   0.908   1.167   5.263
 9342TIP3    H227972   1.000   1.166   5.142
 9343TIP3   OH227973   2.425   1.524   6.172
 9343TIP3    H127974   2.476   1.550   6.248
 9343TIP3    H227975   2.487   1.527   6.099
 9344TIP3   OH227976   0.634   0.196   4.777
 9344TIP3    H127977   0.585   0.123   4.740
 9344TIP3    H227978   0.581   0.226   4.851
 9345TIP3   OH227979   3.405   5.541   0.479
 9345TIP3    H127980   3.497   5.559   0.498
 9345TIP3    H227981   3.403   5.523   0.385
 9346TIP3   OH227982   0.696   6.835   2.571
 9346TIP3    H127983   0.608   6.853   2.603
 9346TIP3    H227984   0.712   6.901   2.504
 9347TIP3   OH227985   7.924   5.822   4.678
 9347TIP3    H127986   7.903   5.895   4.735
 9347TIP3    H227987   7.992   5.773   4.724
 9348TIP3   OH227988   3.157   3.563   1.231
 9348TIP3    H127989   3.163   3.520   1.316
 9348TIP3    H227990   3.102   3.639   1.247
 9349TIP3   OH227991   3.892   6.017   2.741
 9349TIP3    H127992   3.828   6.076   2.781
 9349TIP3    H227993   3.903   5.946   2.805
 9350TIP3   OH227994   6.955   1.083   4.394
 9350TIP3    H127995   7.047   1.086   4.420
 9350TIP3    H227996   6.937   1.170   4.358
 9351TIP3   OH227997   5.955   5.473   5.227
 9351TIP3    H127998   5.945   5.558   5.271
 9351TIP3    H227999   6.037   5.437   5.261
 9352TIP3   OH228000   5.579   1.072   4.605
 9352TIP3    H128001   5.626   1.057   4.523
 9352TIP3    H228002   5.635   1.131   4.654
 9353TIP3   OH228003   0.905   7.760   0.166
 9353TIP3    H128004   0.879   7.782   0.077
 9353TIP3    H228005   0.831   7.790   0.220
 9354TIP3   OH228006   5.181   5.457   3.772
 9354TIP3    H128007   5.167   5.551   3.779
 9354TIP3    H228008   5.152   5.435   3.683
 9355TIP3   OH228009   7.911   1.552   3.142
 9355TIP3    H128010   7.943   1.486   3.080
 9355TIP3    H228011   7.816   1.545   3.137
 9356TIP3   OH228012   1.383   3.439   6.535
 9356TIP3    H128013   1.454   3.473   6.481
 9356TIP3    H228014   1.419   3.434   6.623
 9357TIP3   OH228015   3.652   0.189   5.250
 9357TIP3    H128016   3.744   0.166   5.240
 9357TIP3    H228017   3.617   0.188   5.161
 9358TIP3   OH228018   4.795   3.919   4.230
 9358TIP3    H128019   4.715   3.925   4.282
 9358TIP3    H228020   4.864   3.947   4.290
 9359TIP3   OH228021   7.987   2.996   2.530
 9359TIP3    H128022   7.914   3.026   2.476
 9359TIP3    H228023   8.005   3.070   2.588
 9360TIP3   OH228024   0.115   7.560   1.168
 9360TIP3    H128025   0.198   7.516   1.147
 9360TIP3    H228026   0.059   7.544   1.093
 9361TIP3   OH228027   3.395   6.126   2.295
 9361TIP3    H128028   3.476   6.176   2.282
 9361TIP3    H228029   3.361   6.112   2.207
 9362TIP3   OH228030   5.037   1.388   3.240
 9362TIP3    H128031   5.132   1.380   3.243
 9362TIP3    H228032   5.004   1.299   3.243
 9363TIP3   OH228033   5.461   7.251   6.613
 9363TIP3    H128034   5.444   7.313   6.542
 9363TIP3    H228035   5.375   7.230   6.648
 9364TIP3   OH228036   2.256   0.853   0.140
 9364TIP3    H128037   2.208   0.798   0.202
 9364TIP3    H228038   2.273   0.794   0.066
 9365TIP3   OH228039   3.707   3.468   0.196
 9365TIP3    H128040   3.770   3.397   0.206
 9365TIP3    H228041   3.705   3.485   0.102
 9366TIP3   OH228042   3.925   3.263   3.864
 9366TIP3    H128043   3.936   3.260   3.959
 9366TIP3    H228044   3.833   3.288   3.851
 9367TIP3   OH228045   5.801   4.687   1.096
 9367TIP3    H128046   5.864   4.671   1.167
 9367TIP3    H228047   5.854   4.712   1.021
 9368TIP3   OH228048   3.519   3.570   1.012
 9368TIP3    H128049   3.478   3.536   1.092
 9368TIP3    H228050   3.603   3.524   1.007
 9369TIP3   OH228051   6.874   3.859   5.473
 9369TIP3    H128052   6.883   3.836   5.380
 9369TIP3    H228053   6.854   3.952   5.472
 9370TIP3   OH228054   5.588   3.545   3.967
 9370TIP3    H128055   5.643   3.546   3.888
 9370TIP3    H228056   5.634   3.487   4.027
 9371TIP3   OH228057   4.151   3.792   6.720
 9371TIP3    H128058   4.174   3.700   6.734
 9371TIP3    H228059   4.235   3.836   6.709
 9372TIP3   OH228060   5.994   0.183   6.495
 9372TIP3    H128061   6.012   0.272   6.525
 9372TIP3    H228062   6.081   0.147   6.476
 9373TIP3   OH228063   2.929   2.589   5.999
 9373TIP3    H128064   3.023   2.582   6.016
 9373TIP3    H228065   2.888   2.564   6.081
 9374TIP3   OH228066   2.789   1.228   3.372
 9374TIP3    H128067   2.787   1.133   3.372
 9374TIP3    H228068   2.749   1.254   3.289
 9375TIP3   OH228069   6.736   4.930   6.248
 9375TIP3    H128070   6.740   4.936   6.153
 9375TIP3    H228071   6.785   4.851   6.270
 9376TIP3   OH228072   1.295   6.358   0.059
 9376TIP3    H128073   1.378   6.391   0.094
 9376TIP3    H228074   1.235   6.362   0.134
 9377TIP3   OH228075   7.959   0.697   3.184
 9377TIP3    H128076   7.973   0.605   3.160
 9377TIP3    H228077   7.865   0.711   3.174
 9378TIP3   OH228078   1.431   4.678   0.839
 9378TIP3    H128079   1.364   4.695   0.772
 9378TIP3    H228080   1.472   4.764   0.853
 9379TIP3   OH228081   3.472   6.989   3.576
 9379TIP3    H128082   3.428   6.906   3.595
 9379TIP3    H228083   3.549   6.989   3.632
 9380TIP3   OH228084   6.506   6.215   1.184
 9380TIP3    H128085   6.553   6.141   1.146
 9380TIP3    H228086   6.572   6.265   1.230
 9381TIP3   OH228087   8.090   1.713   2.018
 9381TIP3    H128088   8.043   1.666   1.949
 9381TIP3    H228089   8.057   1.803   2.013
 9382TIP3   OH228090   4.538   0.479   1.661
 9382TIP3    H128091   4.500   0.425   1.591
 9382TIP3    H228092   4.556   0.563   1.619
 9383TIP3   OH228093   3.789   7.471   3.422
 9383TIP3    H128094   3.872   7.444   3.383
 9383TIP3    H228095   3.742   7.389   3.439
 9384TIP3   OH228096   3.148   6.653   3.209
 9384TIP3    H128097   3.189   6.730   3.247
 9384TIP3    H228098   3.085   6.687   3.146
 9385TIP3   OH228099   2.316   5.206   5.031
 9385TIP3    H128100   2.392   5.183   5.085
 9385TIP3    H228101   2.246   5.223   5.095
 9386TIP3   OH228102   4.004   7.057   4.819
 9386TIP3    H128103   3.938   7.087   4.756
 9386TIP3    H228104   4.074   7.021   4.764
 9387TIP3   OH228105   5.225   2.654   2.359
 9387TIP3    H128106   5.157   2.718   2.337
 9387TIP3    H228107   5.267   2.634   2.275
 9388TIP3   OH228108   7.633   1.399   5.220
 9388TIP3    H128109   7.620   1.345   5.142
 9388TIP3    H228110   7.559   1.459   5.220
 9389TIP3   OH228111   4.543   0.668   6.111
 9389TIP3    H128112   4.481   0.691   6.042
 9389TIP3    H228113   4.491   0.616   6.173
 9390TIP3   OH228114   6.731   0.854   0.370
 9390TIP3    H128115   6.777   0.850   0.286
 9390TIP3    H228116   6.756   0.939   0.406
 9391TIP3   OH228117   2.248   3.046   3.624
 9391TIP3    H128118   2.184   3.094   3.676
 9391TIP3    H228119   2.284   3.112   3.564
 9392TIP3   OH228120   0.939   3.298   3.522
 9392TIP3    H128121   0.882   3.223   3.507
 9392TIP3    H228122   0.954   3.299   3.616
 9393TIP3   OH228123   7.030   6.818   2.530
 9393TIP3    H128124   7.121   6.805   2.503
 9393TIP3    H228125   6.999   6.889   2.473
 9394TIP3   OH228126   3.250   1.090   2.197
 9394TIP3    H128127   3.167   1.133   2.216
 9394TIP3    H228128   3.266   1.107   2.104
 9395TIP3   OH228129   1.414   5.108   1.310
 9395TIP3    H128130   1.336   5.084   1.359
 9395TIP3    H228131   1.482   5.119   1.376
 9396TIP3   OH228132   4.531   5.440   1.101
 9396TIP3    H128133   4.506   5.530   1.121
 9396TIP3    H228134   4.450   5.399   1.071
 9397TIP3   OH228135   1.160   4.104   4.891
 9397TIP3    H128136   1.234   4.090   4.951
 9397TIP3    H228137   1.095   4.039   4.917
 9398TIP3   OH228138   7.459   6.116   0.071
 9398TIP3    H128139   7.471   6.033   0.116
 9398TIP3    H228140   7.539   6.127   0.019
 9399TIP3   OH228141   7.078   0.494   6.298
 9399TIP3    H128142   7.158   0.502   6.350
 9399TIP3    H228143   7.107   0.455   6.216
 9400TIP3   OH228144   1.350   1.813   3.185
 9400TIP3    H128145   1.297   1.750   3.234
 9400TIP3    H228146   1.388   1.869   3.253
 9401TIP3   OH228147   3.660   5.391   6.100
 9401TIP3    H128148   3.682   5.413   6.010
 9401TIP3    H228149   3.568   5.364   6.097
 9402TIP3   OH228150   7.767   4.819   4.274
 9402TIP3    H128151   7.705   4.879   4.317
 9402TIP3    H228152   7.793   4.758   4.343
 9403TIP3   OH228153   5.578   3.441   6.555
 9403TIP3    H128154   5.617   3.360   6.521
 9403TIP3    H228155   5.510   3.462   6.492
 9404TIP3   OH228156   0.715   4.314   5.221
 9404TIP3    H128157   0.673   4.360   5.294
 9404TIP3    H228158   0.809   4.332   5.233
 9405TIP3   OH228159   0.559   4.073   4.140
 9405TIP3    H128160   0.512   4.102   4.218
 9405TIP3    H228161   0.528   4.131   4.071
 9406TIP3   OH228162   4.387   4.409   3.965
 9406TIP3    H128163   4.423   4.351   3.898
 9406TIP3    H228164   4.434   4.385   4.045
 9407TIP3   OH228165   3.070   5.614   0.655
 9407TIP3    H128166   3.111   5.656   0.731
 9407TIP3    H228167   3.066   5.683   0.589
 9408TIP3   OH228168   0.532   4.332   5.013
 9408TIP3    H128169   0.585   4.316   5.092
 9408TIP3    H228170   0.445   4.354   5.047
 9409TIP3   OH228171   7.463   2.646   4.745
 9409TIP3    H128172   7.453   2.742   4.750
 9409TIP3    H228173   7.528   2.633   4.676
 9410TIP3   OH228174   1.183   1.162   5.501
 9410TIP3    H128175   1.234   1.112   5.437
 9410TIP3    H228176   1.242   1.175   5.574
 9411TIP3   OH228177   7.878   4.777   5.279
 9411TIP3    H128178   7.790   4.801   5.250
 9411TIP3    H228179   7.874   4.682   5.291
 9412TIP3   OH228180   7.479   2.398   2.215
 9412TIP3    H128181   7.501   2.418   2.307
 9412TIP3    H228182   7.564   2.391   2.172
 9413TIP3   OH228183   6.712   1.354   4.874
 9413TIP3    H128184   6.720   1.261   4.896
 9413TIP3    H228185   6.792   1.394   4.909
 9414TIP3   OH228186   2.204   3.667   1.099
 9414TIP3    H128187   2.113   3.693   1.109
 9414TIP3    H228188   2.217   3.600   1.167
 9415TIP3   OH228189   4.889   3.879   1.926
 9415TIP3    H128190   4.811   3.935   1.924
 9415TIP3    H228191   4.860   3.796   1.890
 9416TIP3   OH228192   6.959   4.744   2.435
 9416TIP3    H128193   6.973   4.837   2.456
 9416TIP3    H228194   6.901   4.713   2.505
 9417TIP3   OH228195   3.287   2.263   0.091
 9417TIP3    H128196   3.239   2.335   0.052
 9417TIP3    H228197   3.246   2.249   0.176
 9418TIP3   OH228198   1.716   6.662   0.500
 9418TIP3    H128199   1.738   6.736   0.443
 9418TIP3    H228200   1.672   6.702   0.575
 9419TIP3   OH228201   3.600   0.999   6.300
 9419TIP3    H128202   3.605   0.911   6.336
 9419TIP3    H228203   3.539   1.046   6.356
 9420TIP3   OH228204   6.483   7.390   4.901
 9420TIP3    H128205   6.496   7.389   4.806
 9420TIP3    H228206   6.449   7.303   4.921
 9421TIP3   OH228207   1.824   6.841   3.004
 9421TIP3    H128208   1.796   6.751   3.021
 9421TIP3    H228209   1.876   6.865   3.081
 9422TIP3   OH228210   6.485   2.800   6.675
 9422TIP3    H128211   6.476   2.874   6.736
 9422TIP3    H228212   6.541   2.738   6.720
 9423TIP3   OH228213   7.387   6.287   0.744
 9423TIP3    H128214   7.475   6.273   0.711
 9423TIP3    H228215   7.330   6.270   0.669
 9424TIP3   OH228216   2.947   1.883   1.626
 9424TIP3    H128217   2.909   1.944   1.564
 9424TIP3    H228218   3.036   1.915   1.640
 9425TIP3   OH228219   1.847   0.683   5.920
 9425TIP3    H128220   1.849   0.626   5.997
 9425TIP3    H228221   1.765   0.732   5.928
 9426TIP3   OH228222   2.269   0.327   3.064
 9426TIP3    H128223   2.208   0.254   3.066
 9426TIP3    H228224   2.231   0.392   3.123
 9427TIP3   OH228225   6.953   4.860   5.788
 9427TIP3    H128226   7.017   4.836   5.722
 9427TIP3    H228227   6.905   4.934   5.750
 9428TIP3   OH228228   6.354   6.899   5.972
 9428TIP3    H128229   6.415   6.863   5.908
 9428TIP3    H228230   6.289   6.830   5.986
 9429TIP3   OH228231   5.991   7.388   3.819
 9429TIP3    H128232   5.994   7.327   3.746
 9429TIP3    H228233   6.003   7.474   3.779
 9430TIP3   OH228234   4.884   2.271   0.443
 9430TIP3    H128235   4.909   2.332   0.513
 9430TIP3    H228236   4.962   2.218   0.429
 9431TIP3   OH228237   1.495   2.971   4.447
 9431TIP3    H128238   1.452   3.001   4.527
 9431TIP3    H228239   1.575   2.928   4.478
 9432TIP3   OH228240   5.103   6.079   0.098
 9432TIP3    H128241   5.174   6.143   0.101
 9432TIP3    H228242   5.095   6.048   0.188
 9433TIP3   OH228243   4.829   3.358   6.642
 9433TIP3    H128244   4.757   3.297   6.623
 9433TIP3    H228245   4.785   3.440   6.666
 9434TIP3   OH228246   4.056   0.290   4.644
 9434TIP3    H128247   4.028   0.350   4.576
 9434TIP3    H228248   4.101   0.220   4.597
 9435TIP3   OH228249   1.432   7.397   2.758
 9435TIP3    H128250   1.421   7.406   2.853
 9435TIP3    H228251   1.358   7.343   2.730
 9436TIP3   OH228252   1.376   3.785   5.183
 9436TIP3    H128253   1.468   3.775   5.207
 9436TIP3    H228254   1.373   3.757   5.091
 9437TIP3   OH228255   5.208   0.554   4.624
 9437TIP3    H128256   5.133   0.557   4.684
 9437TIP3    H228257   5.223   0.461   4.609
 9438TIP3   OH228258   2.163   6.327   5.288
 9438TIP3    H128259   2.200   6.280   5.213
 9438TIP3    H228260   2.168   6.265   5.360
 9439TIP3   OH228261   8.162   3.271   4.958
 9439TIP3    H128262   8.087   3.275   4.899
 9439TIP3    H228263   8.184   3.178   4.963
 9440TIP3   OH228264   0.945   4.506   2.511
 9440TIP3    H128265   0.925   4.416   2.539
 9440TIP3    H228266   0.931   4.559   2.589
 9441TIP3   OH228267   7.547   0.486   1.576
 9441TIP3    H128268   7.595   0.404   1.568
 9441TIP3    H228269   7.455   0.461   1.576
 9442TIP3   OH228270   0.234   2.496   0.654
 9442TIP3    H128271   0.197   2.558   0.717
 9442TIP3    H228272   0.326   2.521   0.648
 9443TIP3   OH228273   4.476   5.850   2.042
 9443TIP3    H128274   4.440   5.767   2.009
 9443TIP3    H228275   4.564   5.828   2.072
 9444TIP3   OH228276   2.752   0.878   0.275
 9444TIP3    H128277   2.658   0.863   0.288
 9444TIP3    H228278   2.789   0.878   0.363
 9445TIP3   OH228279   8.010   1.095   3.072
 9445TIP3    H128280   7.983   1.041   3.146
 9445TIP3    H228281   7.930   1.103   3.019
 9446TIP3   OH228282   4.240   4.948   3.463
 9446TIP3    H128283   4.303   4.993   3.407
 9446TIP3    H228284   4.270   4.857   3.464
 9447TIP3   OH228285   1.073   3.374   5.189
 9447TIP3    H128286   1.102   3.311   5.255
 9447TIP3    H228287   1.004   3.424   5.233
 9448TIP3   OH228288   3.250   6.192   2.521
 9448TIP3    H128289   3.244   6.286   2.537
 9448TIP3    H228290   3.298   6.184   2.439
 9449TIP3   OH228291   4.225   0.710   0.981
 9449TIP3    H128292   4.156   0.776   0.973
 9449TIP3    H228293   4.197   0.639   0.923
 9450TIP3   OH228294   4.512   2.462   2.241
 9450TIP3    H128295   4.606   2.442   2.234
 9450TIP3    H228296   4.493   2.456   2.335
 9451TIP3   OH228297   5.847   3.446   6.682
 9451TIP3    H128298   5.767   3.481   6.642
 9451TIP3    H228299   5.916   3.462   6.618
 9452TIP3   OH228300   7.905   3.026   0.704
 9452TIP3    H128301   7.892   3.024   0.799
 9452TIP3    H228302   7.983   2.972   0.690
 9453TIP3   OH228303   0.605   0.933   2.201
 9453TIP3    H128304   0.686   0.882   2.212
 9453TIP3    H228305   0.620   1.012   2.255
 9454TIP3   OH228306   4.451   4.722   5.240
 9454TIP3    H128307   4.531   4.678   5.214
 9454TIP3    H228308   4.453   4.721   5.336
 9455TIP3   OH228309   5.998   0.197   4.230
 9455TIP3    H128310   6.056   0.137   4.275
 9455TIP3    H228311   5.990   0.272   4.290
 9456TIP3   OH228312   6.377   2.681   0.249
 9456TIP3    H128313   6.407   2.742   0.317
 9456TIP3    H228314   6.329   2.737   0.187
 9457TIP3   OH228315   6.947   7.242   3.895
 9457TIP3    H128316   6.972   7.175   3.831
 9457TIP3    H228317   6.865   7.278   3.861
 9458TIP3   OH228318   1.130   0.966   1.317
 9458TIP3    H128319   1.133   0.870   1.311
 9458TIP3    H228320   1.221   0.992   1.330
 9459TIP3   OH228321   1.180   0.708   5.177
 9459TIP3    H128322   1.241   0.687   5.247
 9459TIP3    H228323   1.199   0.799   5.154
 9460TIP3   OH228324   4.999   3.940   4.421
 9460TIP3    H128325   5.011   3.849   4.448
 9460TIP3    H228326   4.964   3.984   4.499
 9461TIP3   OH228327   5.314   1.810   3.926
 9461TIP3    H128328   5.380   1.776   3.866
 9461TIP3    H228329   5.281   1.733   3.972
 9462TIP3   OH228330   3.887   4.836   5.112
 9462TIP3    H128331   3.793   4.834   5.129
 9462TIP3    H228332   3.923   4.887   5.185
 9463TIP3   OH228333   5.152   2.300   6.026
 9463TIP3    H128334   5.113   2.223   6.066
 9463TIP3    H228335   5.209   2.266   5.957
 9464TIP3   OH228336   7.132   5.996   0.728
 9464TIP3    H128337   7.164   6.070   0.675
 9464TIP3    H228338   7.164   5.918   0.683
 9465TIP3   OH228339   2.848   4.925   3.325
 9465TIP3    H128340   2.876   5.002   3.375
 9465TIP3    H228341   2.874   4.944   3.235
 9466TIP3   OH228342   2.858   5.103   1.697
 9466TIP3    H128343   2.873   5.067   1.609
 9466TIP3    H228344   2.897   5.190   1.693
 9467TIP3   OH228345   2.267   5.428   2.503
 9467TIP3    H128346   2.347   5.375   2.502
 9467TIP3    H228347   2.276   5.484   2.426
 9468TIP3   OH228348   8.036   6.728   3.688
 9468TIP3    H128349   8.017   6.667   3.616
 9468TIP3    H228350   8.114   6.691   3.731
 9469TIP3   OH228351   1.065   4.957   3.108
 9469TIP3    H128352   1.100   5.045   3.120
 9469TIP3    H228353   1.069   4.942   3.014
 9470TIP3   OH228354   7.350   5.410   5.310
 9470TIP3    H128355   7.272   5.414   5.366
 9470TIP3    H228356   7.317   5.384   5.224
 9471TIP3   OH228357   3.183   2.290   6.712
 9471TIP3    H128358   3.257   2.267   6.655
 9471TIP3    H228359   3.141   2.206   6.731
 9472TIP3   OH228360   2.575   4.529   6.093
 9472TIP3    H128361   2.514   4.471   6.048
 9472TIP3    H228362   2.645   4.545   6.029
 9473TIP3   OH228363   0.486   1.015   1.973
 9473TIP3    H128364   0.534   0.985   2.050
 9473TIP3    H228365   0.396   1.024   2.003
 9474TIP3   OH228366   3.760   1.668   3.361
 9474TIP3    H128367   3.669   1.639   3.362
 9474TIP3    H228368   3.797   1.631   3.441
 9475TIP3   OH228369   6.362   3.790   0.718
 9475TIP3    H128370   6.387   3.880   0.739
 9475TIP3    H228371   6.315   3.797   0.635
 9476TIP3   OH228372   8.177   7.060   5.432
 9476TIP3    H128373   8.161   6.973   5.396
 9476TIP3    H228374   8.140   7.120   5.368
 9477TIP3   OH228375   7.971  -0.021   4.916
 9477TIP3    H128376   7.953   0.069   4.890
 9477TIP3    H228377   8.003  -0.014   5.007
 9478TIP3   OH228378   1.516   0.836   5.607
 9478TIP3    H128379   1.607   0.828   5.634
 9478TIP3    H228380   1.466   0.836   5.689
 9479TIP3   OH228381   6.191   1.563   3.883
 9479TIP3    H128382   6.165   1.593   3.796
 9479TIP3    H228383   6.174   1.469   3.882
 9480TIP3   OH228384   4.072   3.985   2.759
 9480TIP3    H128385   4.144   3.923   2.749
 9480TIP3    H228386   3.993   3.933   2.746
 9481TIP3   OH228387   2.102   3.439   5.276
 9481TIP3    H128388   2.087   3.375   5.206
 9481TIP3    H228389   2.082   3.523   5.235
 9482TIP3   OH228390   8.126   6.767   4.354
 9482TIP3    H128391   8.194   6.750   4.419
 9482TIP3    H228392   8.156   6.845   4.308
 9483TIP3   OH228393   2.329   0.337   1.722
 9483TIP3    H128394   2.262   0.397   1.687
 9483TIP3    H228395   2.297   0.314   1.810
 9484TIP3   OH228396   5.398   1.623   4.656
 9484TIP3    H128397   5.438   1.686   4.716
 9484TIP3    H228398   5.329   1.581   4.708
 9485TIP3   OH228399   7.013   0.456   0.894
 9485TIP3    H128400   7.007   0.539   0.941
 9485TIP3    H228401   7.042   0.480   0.806
 9486TIP3   OH228402   1.261   1.508   5.573
 9486TIP3    H128403   1.188   1.465   5.529
 9486TIP3    H228404   1.242   1.602   5.563
 9487TIP3   OH228405   0.533   1.897   2.050
 9487TIP3    H128406   0.498   1.919   2.136
 9487TIP3    H228407   0.628   1.900   2.061
 9488TIP3   OH228408   5.994   0.667   0.745
 9488TIP3    H128409   5.913   0.616   0.740
 9488TIP3    H228410   5.986   0.730   0.674
 9489TIP3   OH228411   8.128   3.429   5.827
 9489TIP3    H128412   8.180   3.357   5.861
 9489TIP3    H228413   8.103   3.402   5.739
 9490TIP3   OH228414   0.431   4.706   4.136
 9490TIP3    H128415   0.494   4.736   4.201
 9490TIP3    H228416   0.445   4.764   4.061
 9491TIP3   OH228417   4.612   7.425   0.315
 9491TIP3    H128418   4.619   7.516   0.285
 9491TIP3    H228419   4.657   7.425   0.400
 9492TIP3   OH228420   1.549   0.910   2.101
 9492TIP3    H128421   1.594   0.981   2.147
 9492TIP3    H228422   1.462   0.907   2.140
 9493TIP3   OH228423   7.850   1.579   1.579
 9493TIP3    H128424   7.800   1.506   1.543
 9493TIP3    H228425   7.787   1.626   1.634
 9494TIP3   OH228426   6.544   7.622   5.882
 9494TIP3    H128427   6.514   7.648   5.969
 9494TIP3    H228428   6.638   7.607   5.893
 9495TIP3   OH228429   4.024   5.410   3.437
 9495TIP3    H128430   4.030   5.339   3.374
 9495TIP3    H228431   4.010   5.489   3.384
 9496TIP3   OH228432   0.628   1.970   5.603
 9496TIP3    H128433   0.624   1.874   5.597
 9496TIP3    H228434   0.609   1.989   5.695
 9497TIP3   OH228435   3.535   4.124   5.688
 9497TIP3    H128436   3.477   4.065   5.640
 9497TIP3    H228437   3.533   4.091   5.778
 9498TIP3   OH228438   1.146   3.432   6.291
 9498TIP3    H128439   1.183   3.348   6.263
 9498TIP3    H228440   1.188   3.497   6.234
 9499TIP3   OH228441   6.513   6.806   5.787
 9499TIP3    H128442   6.505   6.803   5.692
 9499TIP3    H228443   6.607   6.808   5.803
 9500TIP3   OH228444   0.069   1.629   6.736
 9500TIP3    H128445   0.114   1.698   6.688
 9500TIP3    H228446   0.125   1.610   6.811
 9501TIP3   OH228447   0.208   6.667   3.982
 9501TIP3    H128448   0.297   6.689   4.011
 9501TIP3    H228449   0.210   6.680   3.887
 9502TIP3   OH228450   0.595   7.405   0.483
 9502TIP3    H128451   0.566   7.413   0.392
 9502TIP3    H228452   0.536   7.464   0.531
 9503TIP3   OH228453   5.109   3.679   5.351
 9503TIP3    H128454   5.020   3.665   5.317
 9503TIP3    H228455   5.149   3.592   5.348
 9504TIP3   OH228456   1.414   2.602   6.644
 9504TIP3    H128457   1.373   2.518   6.668
 9504TIP3    H228458   1.501   2.597   6.684
 9505TIP3   OH228459   1.255   2.348   3.739
 9505TIP3    H128460   1.187   2.404   3.776
 9505TIP3    H228461   1.259   2.272   3.798
 9506TIP3   OH228462   6.112   1.009   3.444
 9506TIP3    H128463   6.191   0.997   3.392
 9506TIP3    H228464   6.094   1.103   3.441
 9507TIP3   OH228465   4.784   1.112   1.042
 9507TIP3    H128466   4.747   1.134   0.956
 9507TIP3    H228467   4.835   1.190   1.066
 9508TIP3   OH228468   3.086   7.824   2.113
 9508TIP3    H128469   3.129   7.889   2.167
 9508TIP3    H228470   3.137   7.744   2.126
 9509TIP3   OH228471   3.345   2.212   6.468
 9509TIP3    H128472   3.438   2.224   6.488
 9509TIP3    H228473   3.343   2.174   6.381
 9510TIP3   OH228474   4.153   3.095   3.391
 9510TIP3    H128475   4.104   3.113   3.471
 9510TIP3    H228476   4.153   2.999   3.383
 9511TIP3   OH228477   5.584   5.590   2.447
 9511TIP3    H128478   5.656   5.614   2.388
 9511TIP3    H228479   5.511   5.569   2.389
 9512TIP3   OH228480   3.237   1.394   1.926
 9512TIP3    H128481   3.322   1.416   1.889
 9512TIP3    H228482   3.223   1.302   1.904
 9513TIP3   OH228483   7.751   4.752   6.649
 9513TIP3    H128484   7.724   4.826   6.704
 9513TIP3    H228485   7.845   4.745   6.663
 9514TIP3   OH228486   7.889   3.440   6.021
 9514TIP3    H128487   7.914   3.353   6.051
 9514TIP3    H228488   7.957   3.464   5.958
 9515TIP3   OH228489   2.596   1.829   2.192
 9515TIP3    H128490   2.544   1.857   2.116
 9515TIP3    H228491   2.667   1.893   2.197
 9516TIP3   OH228492   6.748   3.877   1.345
 9516TIP3    H128493   6.751   3.789   1.384
 9516TIP3    H228494   6.659   3.886   1.312
 9517TIP3   OH228495   6.238   7.024   6.476
 9517TIP3    H128496   6.215   7.049   6.565
 9517TIP3    H228497   6.252   6.929   6.481
 9518TIP3   OH228498   5.114   7.128   6.249
 9518TIP3    H128499   5.107   7.196   6.183
 9518TIP3    H228500   5.202   7.138   6.285
 9519TIP3   OH228501   0.505   6.478   4.885
 9519TIP3    H128502   0.548   6.394   4.900
 9519TIP3    H228503   0.437   6.483   4.952
 9520TIP3   OH228504   6.125   6.353   4.411
 9520TIP3    H128505   6.175   6.276   4.382
 9520TIP3    H228506   6.034   6.326   4.401
 9521TIP3   OH228507   6.990   4.575   2.015
 9521TIP3    H128508   6.991   4.646   2.079
 9521TIP3    H228509   7.079   4.572   1.981
 9522TIP3   OH228510   3.243   5.631   3.029
 9522TIP3    H128511   3.154   5.643   3.063
 9522TIP3    H228512   3.255   5.536   3.027
 9523TIP3   OH228513   1.276   4.867   6.609
 9523TIP3    H128514   1.230   4.896   6.530
 9523TIP3    H228515   1.341   4.804   6.577
 9524TIP3   OH228516   2.622   6.212   1.721
 9524TIP3    H128517   2.695   6.222   1.782
 9524TIP3    H228518   2.585   6.299   1.713
 9525TIP3   OH228519   2.377   0.449   4.642
 9525TIP3    H128520   2.411   0.379   4.587
 9525TIP3    H228521   2.315   0.406   4.701
 9526TIP3   OH228522   5.745   4.213   4.321
 9526TIP3    H128523   5.827   4.164   4.325
 9526TIP3    H228524   5.720   4.211   4.228
 9527TIP3   OH228525   0.919   4.391   2.208
 9527TIP3    H128526   0.961   4.429   2.285
 9527TIP3    H228527   0.836   4.437   2.200
 9528TIP3   OH228528   5.465   3.208   5.316
 9528TIP3    H128529   5.507   3.223   5.400
 9528TIP3    H228530   5.532   3.230   5.251
 9529TIP3   OH228531   2.242   0.650   0.554
 9529TIP3    H128532   2.167   0.595   0.577
 9529TIP3    H228533   2.303   0.639   0.627
 9530TIP3   OH228534   2.633   6.037   0.250
 9530TIP3    H128535   2.558   6.096   0.259
 9530TIP3    H228536   2.687   6.055   0.328
 9531TIP3   OH228537   3.367   0.375   1.117
 9531TIP3    H128538   3.433   0.312   1.087
 9531TIP3    H228539   3.300   0.374   1.049
 9532TIP3   OH228540   6.994   0.320   6.529
 9532TIP3    H128541   6.969   0.398   6.579
 9532TIP3    H228542   7.077   0.344   6.488
 9533TIP3   OH228543   4.550   7.890   2.601
 9533TIP3    H128544   4.479   7.862   2.658
 9533TIP3    H228545   4.576   7.812   2.553
 9534TIP3   OH228546   5.865   0.446   2.745
 9534TIP3    H128547   5.784   0.441   2.795
 9534TIP3    H228548   5.846   0.506   2.673
 9535TIP3   OH228549   5.670   1.440   1.900
 9535TIP3    H128550   5.719   1.375   1.849
 9535TIP3    H228551   5.578   1.422   1.880
 9536TIP3   OH228552   4.030   5.400   4.607
 9536TIP3    H128553   4.022   5.461   4.680
 9536TIP3    H228554   3.951   5.345   4.613
 9537TIP3   OH228555   7.632   1.370   6.547
 9537TIP3    H128556   7.602   1.281   6.569
 9537TIP3    H228557   7.725   1.370   6.572
 9538TIP3   OH228558   4.130   2.927   6.399
 9538TIP3    H128559   4.149   2.918   6.493
 9538TIP3    H228560   4.215   2.944   6.359
 9539TIP3   OH228561   5.062   5.163   1.004
 9539TIP3    H128562   5.125   5.093   0.988
 9539TIP3    H228563   5.005   5.163   0.927
 9540TIP3   OH228564   6.815   2.220   4.511
 9540TIP3    H128565   6.781   2.131   4.522
 9540TIP3    H228566   6.910   2.209   4.500
 9541TIP3   OH228567   0.910   7.438   4.461
 9541TIP3    H128568   0.983   7.449   4.522
 9541TIP3    H228569   0.930   7.497   4.389
 9542TIP3   OH228570   3.955   3.442   5.890
 9542TIP3    H128571   3.926   3.489   5.812
 9542TIP3    H228572   3.923   3.494   5.964
 9543TIP3   OH228573   1.935   6.981   0.935
 9543TIP3    H128574   1.929   6.979   0.840
 9543TIP3    H228575   1.851   7.018   0.963
 9544TIP3   OH228576   1.150   1.386   0.098
 9544TIP3    H128577   1.230   1.410   0.146
 9544TIP3    H228578   1.174   1.399   0.006
 9545TIP3   OH228579   2.978   5.287   1.423
 9545TIP3    H128580   3.017   5.231   1.356
 9545TIP3    H228581   2.884   5.273   1.413
 9546TIP3   OH228582   7.176   0.517   1.803
 9546TIP3    H128583   7.202   0.555   1.719
 9546TIP3    H228584   7.081   0.530   1.806
 9547TIP3   OH228585   0.447   7.319   3.739
 9547TIP3    H128586   0.418   7.230   3.722
 9547TIP3    H228587   0.525   7.309   3.793
 9548TIP3   OH228588   4.945   7.690   2.691
 9548TIP3    H128589   4.858   7.651   2.691
 9548TIP3    H228590   4.934   7.772   2.739
 9549TIP3   OH228591   0.055   6.380   6.196
 9549TIP3    H128592   0.023   6.468   6.176
 9549TIP3    H228593   0.044   6.372   6.291
 9550TIP3   OH228594   7.065   1.779   0.280
 9550TIP3    H128595   7.112   1.815   0.204
 9550TIP3    H228596   7.000   1.846   0.301
 9551TIP3   OH228597   1.820   0.360   3.840
 9551TIP3    H128598   1.731   0.364   3.804
 9551TIP3    H228599   1.830   0.269   3.869
 9552TIP3   OH228600   0.435   3.275   0.715
 9552TIP3    H128601   0.455   3.184   0.736
 9552TIP3    H228602   0.372   3.271   0.643
 9553TIP3   OH228603   4.615   3.039   5.114
 9553TIP3    H128604   4.519   3.042   5.115
 9553TIP3    H228605   4.637   3.005   5.028
 9554TIP3   OH228606   5.343   5.800   6.342
 9554TIP3    H128607   5.272   5.848   6.299
 9554TIP3    H228608   5.413   5.797   6.277
 9555TIP3   OH228609   8.213   7.635   1.606
 9555TIP3    H128610   8.202   7.699   1.536
 9555TIP3    H228611   8.300   7.598   1.592
 9556TIP3   OH228612   7.110   2.059   0.140
 9556TIP3    H128613   7.077   2.148   0.146
 9556TIP3    H228614   7.086   2.030   0.052
 9557TIP3   OH228615   3.126   0.014   1.467
 9557TIP3    H128616   3.177   0.070   1.526
 9557TIP3    H228617   3.191  -0.020   1.405
 9558TIP3   OH228618   4.538   5.723   1.091
 9558TIP3    H128619   4.594   5.791   1.130
 9558TIP3    H228620   4.527   5.749   1.000
 9559TIP3   OH228621   1.432   4.372   1.678
 9559TIP3    H128622   1.490   4.329   1.615
 9559TIP3    H228623   1.347   4.374   1.634
 9560TIP3   OH228624   6.378   0.256   0.973
 9560TIP3    H128625   6.390   0.180   1.030
 9560TIP3    H228626   6.298   0.297   1.004
 9561TIP3   OH228627   6.688   4.388   4.156
 9561TIP3    H128628   6.754   4.430   4.211
 9561TIP3    H228629   6.653   4.459   4.102
 9562TIP3   OH228630   3.245   1.362   3.284
 9562TIP3    H128631   3.180   1.422   3.321
 9562TIP3    H228632   3.193   1.296   3.238
 9563TIP3   OH228633   6.560   5.604   3.209
 9563TIP3    H128634   6.519   5.549   3.276
 9563TIP3    H228635   6.573   5.688   3.253
 9564TIP3   OH228636   0.642   6.610   1.810
 9564TIP3    H128637   0.609   6.608   1.900
 9564TIP3    H228638   0.581   6.667   1.763
 9565TIP3   OH228639   5.751   0.301   2.410
 9565TIP3    H128640   5.720   0.258   2.490
 9565TIP3    H228641   5.768   0.391   2.436
 9566TIP3   OH228642   1.512   2.093   5.357
 9566TIP3    H128643   1.555   2.009   5.342
 9566TIP3    H228644   1.561   2.132   5.430
 9567TIP3   OH228645   3.333   4.981   5.284
 9567TIP3    H128646   3.278   5.032   5.344
 9567TIP3    H228647   3.290   4.896   5.279
 9568TIP3   OH228648   2.490   6.310   0.613
 9568TIP3    H128649   2.484   6.225   0.655
 9568TIP3    H228650   2.510   6.371   0.684
 9569TIP3   OH228651   8.147   3.303  -0.019
 9569TIP3    H128652   8.220   3.340  -0.068
 9569TIP3    H228653   8.154   3.342   0.068
 9570TIP3   OH228654   7.735   4.007   3.244
 9570TIP3    H128655   7.737   4.056   3.327
 9570TIP3    H228656   7.765   4.069   3.178
 9571TIP3   OH228657   0.899   5.567   1.065
 9571TIP3    H128658   0.908   5.642   1.006
 9571TIP3    H228659   0.932   5.492   1.014
 9572TIP3   OH228660   6.069   1.173   1.385
 9572TIP3    H128661   6.035   1.150   1.298
 9572TIP3    H228662   6.003   1.233   1.420
 9573TIP3   OH228663   2.609   4.959   6.476
 9573TIP3    H128664   2.631   4.873   6.511
 9573TIP3    H228665   2.621   4.951   6.382
 9574TIP3   OH228666   2.962   4.876   5.617
 9574TIP3    H128667   2.963   4.812   5.688
 9574TIP3    H228668   3.055   4.896   5.603
 9575TIP3   OH228669   5.559   7.611   3.325
 9575TIP3    H128670   5.619   7.584   3.394
 9575TIP3    H228671   5.582   7.703   3.308
 9576TIP3   OH228672   5.303   7.744   1.812
 9576TIP3    H128673   5.257   7.807   1.756
 9576TIP3    H228674   5.311   7.665   1.759
 9577TIP3   OH228675   4.773   6.479   5.706
 9577TIP3    H128676   4.693   6.482   5.654
 9577TIP3    H228677   4.771   6.393   5.748
 9578TIP3   OH228678   5.711   4.131   4.676
 9578TIP3    H128679   5.729   4.146   4.769
 9578TIP3    H228680   5.711   4.218   4.637
 9579TIP3   OH228681   2.186   1.649   2.213
 9579TIP3    H128682   2.137   1.725   2.181
 9579TIP3    H228683   2.144   1.627   2.296
 9580TIP3   OH228684   3.318   5.848   0.150
 9580TIP3    H128685   3.410   5.841   0.123
 9580TIP3    H228686   3.269   5.845   0.068
 9581TIP3   OH228687   5.825   2.549   4.946
 9581TIP3    H128688   5.781   2.634   4.957
 9581TIP3    H228689   5.879   2.559   4.868
 9582TIP3   OH228690   5.933   1.905   2.352
 9582TIP3    H128691   5.954   1.821   2.394
 9582TIP3    H228692   5.850   1.889   2.307
 9583TIP3   OH228693   7.896   5.612   1.141
 9583TIP3    H128694   7.925   5.551   1.209
 9583TIP3    H228695   7.801   5.598   1.136
 9584TIP3   OH228696   2.937   4.793   0.346
 9584TIP3    H128697   2.940   4.779   0.251
 9584TIP3    H228698   3.028   4.784   0.374
 9585TIP3   OH228699   1.108   3.008   3.668
 9585TIP3    H128700   1.055   2.949   3.722
 9585TIP3    H228701   1.078   3.096   3.692
 9586TIP3   OH228702   7.117   0.202   0.945
 9586TIP3    H128703   7.111   0.294   0.917
 9586TIP3    H228704   7.120   0.207   1.041
 9587TIP3   OH228705   3.175   7.337   1.683
 9587TIP3    H128706   3.180   7.380   1.598
 9587TIP3    H228707   3.097   7.375   1.725
 9588TIP3   OH228708   0.347   1.866   2.992
 9588TIP3    H128709   0.290   1.934   2.956
 9588TIP3    H228710   0.379   1.818   2.916
 9589TIP3   OH228711   7.536   4.844   3.206
 9589TIP3    H128712   7.548   4.828   3.112
 9589TIP3    H228713   7.489   4.766   3.237
 9590TIP3   OH228714   6.609   4.319   5.747
 9590TIP3    H128715   6.666   4.248   5.775
 9590TIP3    H228716   6.520   4.283   5.754
 9591TIP3   OH228717   0.769   0.904   5.651
 9591TIP3    H128718   0.821   0.980   5.677
 9591TIP3    H228719   0.790   0.837   5.716
 9592TIP3   OH228720   0.261   3.877   4.125
 9592TIP3    H128721   0.297   3.933   4.194
 9592TIP3    H228722   0.225   3.802   4.171
 9593TIP3   OH228723   2.562   3.180   5.636
 9593TIP3    H128724   2.507   3.253   5.665
 9593TIP3    H228725   2.573   3.126   5.715
 9594TIP3   OH228726   8.183   6.517   4.267
 9594TIP3    H128727   8.276   6.538   4.268
 9594TIP3    H228728   8.141   6.593   4.308
 9595TIP3   OH228729   5.891   0.443   1.183
 9595TIP3    H128730   5.920   0.442   1.092
 9595TIP3    H228731   5.961   0.400   1.232
 9596TIP3   OH228732   1.720   2.287   6.456
 9596TIP3    H128733   1.722   2.383   6.452
 9596TIP3    H228734   1.743   2.258   6.368
 9597TIP3   OH228735   3.417   1.085   6.514
 9597TIP3    H128736   3.344   1.146   6.511
 9597TIP3    H228737   3.474   1.118   6.584
 9598TIP3   OH228738   2.851   3.291   0.221
 9598TIP3    H128739   2.820   3.281   0.312
 9598TIP3    H228740   2.907   3.368   0.223
 9599TIP3   OH228741   7.971   7.646   1.774
 9599TIP3    H128742   8.039   7.633   1.708
 9599TIP3    H228743   7.992   7.582   1.842
 9600TIP3   OH228744   0.460   3.036   6.530
 9600TIP3    H128745   0.500   3.009   6.448
 9600TIP3    H228746   0.503   3.118   6.552
 9601TIP3   OH228747   7.251   4.943   0.078
 9601TIP3    H128748   7.345   4.925   0.085
 9601TIP3    H228749   7.221   4.947   0.169
 9602TIP3   OH228750   3.094   7.258   0.255
 9602TIP3    H128751   3.101   7.308   0.336
 9602TIP3    H228752   3.150   7.182   0.268
 9603TIP3   OH228753   5.333   4.905   5.243
 9603TIP3    H128754   5.408   4.956   5.275
 9603TIP3    H228755   5.259   4.966   5.249
 9604TIP3   OH228756   1.346   4.441   0.241
 9604TIP3    H128757   1.311   4.422   0.329
 9604TIP3    H228758   1.441   4.437   0.253
 9605TIP3   OH228759   1.806   5.738   1.138
 9605TIP3    H128760   1.798   5.792   1.217
 9605TIP3    H228761   1.716   5.723   1.110
 9606TIP3   OH228762   2.817   3.006   0.112
 9606TIP3    H128763   2.904   2.973   0.138
 9606TIP3    H228764   2.822   3.100   0.128
 9607TIP3   OH228765   1.683   6.428   5.812
 9607TIP3    H128766   1.613   6.367   5.834
 9607TIP3    H228767   1.686   6.428   5.717
 9608TIP3   OH228768   5.731  -0.013   6.007
 9608TIP3    H128769   5.651   0.037   6.025
 9608TIP3    H228770   5.795   0.022   6.069
 9609TIP3   OH228771   2.257   1.539   1.836
 9609TIP3    H128772   2.271   1.632   1.819
 9609TIP3    H228773   2.164   1.525   1.816
 9610TIP3   OH228774   5.425   1.331   2.647
 9610TIP3    H128775   5.367   1.390   2.599
 9610TIP3    H228776   5.464   1.275   2.581
 9611TIP3   OH228777   6.495   3.618   0.104
 9611TIP3    H128778   6.401   3.607   0.120
 9611TIP3    H228779   6.538   3.555   0.162
 9612TIP3   OH228780   5.245   1.597   3.661
 9612TIP3    H128781   5.257   1.508   3.630
 9612TIP3    H228782   5.325   1.617   3.710
 9613TIP3   OH228783   3.849   4.756   1.725
 9613TIP3    H128784   3.756   4.736   1.717
 9613TIP3    H228785   3.869   4.743   1.818
 9614TIP3   OH228786   4.210   1.127   2.341
 9614TIP3    H128787   4.296   1.117   2.382
 9614TIP3    H228788   4.203   1.053   2.281
 9615TIP3   OH228789   3.769   3.276   5.200
 9615TIP3    H128790   3.687   3.238   5.170
 9615TIP3    H228791   3.786   3.234   5.284
 9616TIP3   OH228792   1.493   7.394   4.801
 9616TIP3    H128793   1.460   7.335   4.869
 9616TIP3    H228794   1.437   7.471   4.807
 9617TIP3   OH228795   0.929   2.719   2.989
 9617TIP3    H128796   0.897   2.629   2.985
 9617TIP3    H228797   0.970   2.726   3.075
 9618TIP3   OH228798   2.752   0.394   6.545
 9618TIP3    H128799   2.842   0.373   6.520
 9618TIP3    H228800   2.699   0.357   6.474
 9619TIP3   OH228801   7.538   3.578   0.932
 9619TIP3    H128802   7.528   3.531   1.015
 9619TIP3    H228803   7.626   3.556   0.902
 9620TIP3   OH228804   2.253   6.607   3.869
 9620TIP3    H128805   2.195   6.635   3.940
 9620TIP3    H228806   2.196   6.597   3.793
 9621TIP3   OH228807   1.731   0.470   1.161
 9621TIP3    H128808   1.697   0.385   1.191
 9621TIP3    H228809   1.819   0.475   1.198
 9622TIP3   OH228810   4.622   5.946   6.629
 9622TIP3    H128811   4.667   5.887   6.570
 9622TIP3    H228812   4.691   5.984   6.683
 9623TIP3   OH228813   8.202   2.805   6.569
 9623TIP3    H128814   8.275   2.809   6.507
 9623TIP3    H228815   8.138   2.867   6.535
 9624TIP3   OH228816   7.074   6.216   4.362
 9624TIP3    H128817   7.013   6.289   4.367
 9624TIP3    H228818   7.105   6.216   4.272
 9625TIP3   OH228819   1.793   0.247   1.398
 9625TIP3    H128820   1.821   0.294   1.476
 9625TIP3    H228821   1.871   0.244   1.342
 9626TIP3   OH228822   2.485   6.666   6.824
 9626TIP3    H128823   2.487   6.579   6.862
 9626TIP3    H228824   2.523   6.655   6.737
 9627TIP3   OH228825   7.499   6.228   5.244
 9627TIP3    H128826   7.421   6.231   5.189
 9627TIP3    H228827   7.530   6.319   5.245
 9628TIP3   OH228828   6.852   2.440   5.378
 9628TIP3    H128829   6.792   2.401   5.442
 9628TIP3    H228830   6.923   2.476   5.430
 9629TIP3   OH228831   2.603   3.025   4.038
 9629TIP3    H128832   2.686   3.066   4.014
 9629TIP3    H228833   2.536   3.076   3.991
 9630TIP3   OH228834   7.211   3.068   3.473
 9630TIP3    H128835   7.222   2.984   3.517
 9630TIP3    H228836   7.284   3.074   3.412
 9631TIP3   OH228837   0.377   6.061   5.018
 9631TIP3    H128838   0.393   6.014   5.099
 9631TIP3    H228839   0.300   6.115   5.036
 9632TIP3   OH228840   3.698   2.252   0.244
 9632TIP3    H128841   3.650   2.251   0.161
 9632TIP3    H228842   3.759   2.178   0.239
 9633TIP3   OH228843   5.853   2.819   3.817
 9633TIP3    H128844   5.787   2.776   3.763
 9633TIP3    H228845   5.813   2.826   3.904
 9634TIP3   OH228846   0.469   2.261   5.361
 9634TIP3    H128847   0.541   2.245   5.423
 9634TIP3    H228848   0.439   2.349   5.380
 9635TIP3   OH228849   6.585   5.485   2.357
 9635TIP3    H128850   6.537   5.431   2.419
 9635TIP3    H228851   6.664   5.434   2.336
 9636TIP3   OH228852   1.948   4.356   6.368
 9636TIP3    H128853   2.032   4.320   6.395
 9636TIP3    H228854   1.943   4.441   6.413
 9637TIP3   OH228855   5.202   3.146   4.382
 9637TIP3    H128856   5.245   3.183   4.305
 9637TIP3    H228857   5.152   3.072   4.348
 9638TIP3   OH228858   6.080   6.955   0.365
 9638TIP3    H128859   6.126   7.022   0.416
 9638TIP3    H228860   6.150   6.913   0.314
 9639TIP3   OH228861   3.372   2.496   1.392
 9639TIP3    H128862   3.357   2.555   1.318
 9639TIP3    H228863   3.461   2.463   1.379
 9640TIP3   OH228864   5.556   7.114   1.854
 9640TIP3    H128865   5.582   7.205   1.840
 9640TIP3    H228866   5.556   7.103   1.950
 9641TIP3   OH228867   5.266   7.722   6.653
 9641TIP3    H128868   5.320   7.726   6.575
 9641TIP3    H228869   5.232   7.633   6.654
 9642TIP3   OH228870   7.954   1.260   0.455
 9642TIP3    H128871   7.869   1.303   0.444
 9642TIP3    H228872   8.001   1.279   0.374
 9643TIP3   OH228873   6.417   6.402   2.020
 9643TIP3    H128874   6.324   6.411   2.000
 9643TIP3    H228875   6.434   6.471   2.084
 9644TIP3   OH228876   7.088   1.715   1.635
 9644TIP3    H128877   7.090   1.800   1.591
 9644TIP3    H228878   7.114   1.652   1.568
 9645TIP3   OH228879   0.682   7.804   0.888
 9645TIP3    H128880   0.761   7.757   0.860
 9645TIP3    H228881   0.641   7.746   0.952
 9646TIP3   OH228882   4.830   3.629   5.316
 9646TIP3    H128883   4.743   3.614   5.282
 9646TIP3    H228884   4.820   3.703   5.376
 9647TIP3   OH228885   5.441   7.316   2.948
 9647TIP3    H128886   5.470   7.239   2.996
 9647TIP3    H228887   5.470   7.390   3.002
 9648TIP3   OH228888   1.221   0.162   4.505
 9648TIP3    H128889   1.178   0.203   4.429
 9648TIP3    H228890   1.156   0.101   4.539
 9649TIP3   OH228891   6.391   4.692   6.370
 9649TIP3    H128892   6.425   4.762   6.426
 9649TIP3    H228893   6.327   4.735   6.314
 9650TIP3   OH228894   2.576   0.288   2.733
 9650TIP3    H128895   2.577   0.267   2.826
 9650TIP3    H228896   2.489   0.261   2.703
 9651TIP3   OH228897   1.903   6.103   4.529
 9651TIP3    H128898   1.889   6.177   4.588
 9651TIP3    H228899   1.986   6.123   4.485
 9652TIP3   OH228900   3.210   1.652   6.225
 9652TIP3    H128901   3.250   1.721   6.278
 9652TIP3    H228902   3.142   1.697   6.175
 9653TIP3   OH228903   3.970   4.616   3.010
 9653TIP3    H128904   3.929   4.531   3.026
 9653TIP3    H228905   3.911   4.679   3.052
 9654TIP3   OH228906   7.612   3.793   2.799
 9654TIP3    H128907   7.673   3.866   2.810
 9654TIP3    H228908   7.545   3.826   2.739
 9655TIP3   OH228909   4.335   7.604   6.058
 9655TIP3    H128910   4.407   7.598   6.120
 9655TIP3    H228911   4.312   7.697   6.056
 9656TIP3   OH228912   2.320   3.283   6.719
 9656TIP3    H128913   2.310   3.312   6.810
 9656TIP3    H228914   2.274   3.199   6.715
 9657TIP3   OH228915   4.743   4.829   1.796
 9657TIP3    H128916   4.671   4.766   1.793
 9657TIP3    H228917   4.709   4.906   1.751
 9658TIP3   OH228918   3.514   3.161   6.125
 9658TIP3    H128919   3.453   3.222   6.166
 9658TIP3    H228920   3.579   3.216   6.082
 9659TIP3   OH228921   1.373   2.884   3.321
 9659TIP3    H128922   1.366   2.889   3.226
 9659TIP3    H228923   1.283   2.884   3.352
 9660TIP3   OH228924   6.969   1.253   4.064
 9660TIP3    H128925   7.053   1.297   4.075
 9660TIP3    H228926   6.948   1.264   3.971
 9661TIP3   OH228927   1.434   1.515   4.472
 9661TIP3    H128928   1.493   1.512   4.547
 9661TIP3    H228929   1.484   1.560   4.404
 9662TIP3   OH228930   7.686   4.992   1.769
 9662TIP3    H128931   7.745   5.062   1.797
 9662TIP3    H228932   7.744   4.930   1.723
 9663TIP3   OH228933   0.112   6.852   3.027
 9663TIP3    H128934   0.161   6.908   3.087
 9663TIP3    H228935   0.040   6.906   2.997
 9664TIP3   OH228936   7.226   5.984   4.212
 9664TIP3    H128937   7.305   5.958   4.261
 9664TIP3    H228938   7.239   6.076   4.193
 9665TIP3   OH228939   7.427   5.025   3.920
 9665TIP3    H128940   7.419   5.079   3.999
 9665TIP3    H228941   7.519   5.001   3.917
 9666TIP3   OH228942   7.032   7.659   5.175
 9666TIP3    H128943   7.043   7.576   5.222
 9666TIP3    H228944   7.056   7.639   5.085
 9667TIP3   OH228945   1.060   4.317   5.210
 9667TIP3    H128946   1.142   4.365   5.219
 9667TIP3    H228947   1.035   4.327   5.118
 9668TIP3   OH228948   8.158   3.384   2.500
 9668TIP3    H128949   8.121   3.356   2.584
 9668TIP3    H228950   8.086   3.376   2.438
 9669TIP3   OH228951   6.130   5.160   1.009
 9669TIP3    H128952   6.123   5.193   1.098
 9669TIP3    H228953   6.186   5.083   1.016
 9670TIP3   OH228954   5.241   1.813   4.843
 9670TIP3    H128955   5.164   1.868   4.852
 9670TIP3    H228956   5.312   1.873   4.824
 9671TIP3   OH228957   7.202   4.263   5.536
 9671TIP3    H128958   7.295   4.245   5.545
 9671TIP3    H228959   7.197   4.358   5.521
 9672TIP3   OH228960   1.138   0.532   1.833
 9672TIP3    H128961   1.122   0.439   1.819
 9672TIP3    H228962   1.229   0.545   1.805
 9673TIP3   OH228963   6.962   5.035   1.211
 9673TIP3    H128964   7.013   4.991   1.279
 9673TIP3    H228965   6.915   4.964   1.167
 9674TIP3   OH228966   5.158   5.764   1.494
 9674TIP3    H128967   5.169   5.852   1.458
 9674TIP3    H228968   5.241   5.746   1.539
 9675TIP3   OH228969   1.280   6.121   1.567
 9675TIP3    H128970   1.352   6.160   1.617
 9675TIP3    H228971   1.220   6.194   1.551
 9676TIP3   OH228972   2.636   3.947   3.633
 9676TIP3    H128973   2.555   3.994   3.648
 9676TIP3    H228974   2.688   3.962   3.712
 9677TIP3   OH228975   3.743   6.492   1.903
 9677TIP3    H128976   3.658   6.449   1.888
 9677TIP3    H228977   3.755   6.488   1.998
 9678TIP3   OH228978   7.771   0.997   1.832
 9678TIP3    H128979   7.788   0.917   1.883
 9678TIP3    H228980   7.858   1.035   1.818
 9679TIP3   OH228981   2.875   2.997   2.936
 9679TIP3    H128982   2.784   2.966   2.935
 9679TIP3    H228983   2.877   3.065   2.869
 9680TIP3   OH228984   0.705   3.374   0.256
 9680TIP3    H128985   0.738   3.286   0.275
 9680TIP3    H228986   0.668   3.404   0.340
 9681TIP3   OH228987   3.500   0.806   5.748
 9681TIP3    H128988   3.473   0.873   5.686
 9681TIP3    H228989   3.420   0.755   5.764
 9682TIP3   OH228990   8.075   2.924   6.133
 9682TIP3    H128991   8.139   2.888   6.072
 9682TIP3    H228992   7.997   2.869   6.122
 9683TIP3   OH228993   3.809   5.779   5.388
 9683TIP3    H128994   3.726   5.812   5.354
 9683TIP3    H228995   3.836   5.712   5.326
 9684TIP3   OH228996   4.825   3.166   0.123
 9684TIP3    H128997   4.836   3.202   0.035
 9684TIP3    H228998   4.909   3.124   0.142
 9685TIP3   OH228999   6.416   3.560   3.442
 9685TIP3    H129000   6.435   3.473   3.408
 9685TIP3    H229001   6.333   3.551   3.488
 9686TIP3   OH229002   1.292   3.720   1.196
 9686TIP3    H129003   1.363   3.704   1.257
 9686TIP3    H229004   1.292   3.644   1.138
 9687TIP3   OH229005   6.715   6.997   0.599
 9687TIP3    H129006   6.666   6.919   0.624
 9687TIP3    H229007   6.651   7.068   0.603
 9688TIP3   OH229008   2.285   7.348   4.423
 9688TIP3    H129009   2.267   7.401   4.345
 9688TIP3    H229010   2.242   7.396   4.494
 9689TIP3   OH229011   0.711   3.374   1.245
 9689TIP3    H129012   0.646   3.356   1.178
 9689TIP3    H229013   0.660   3.399   1.322
 9690TIP3   OH229014   5.855   2.377   5.951
 9690TIP3    H129015   5.817   2.301   5.996
 9690TIP3    H229016   5.889   2.343   5.869
 9691TIP3   OH229017   2.486   0.441   2.001
 9691TIP3    H129018   2.573   0.464   2.034
 9691TIP3    H229019   2.485   0.346   2.000
 9692TIP3   OH229020   4.142   1.778   1.964
 9692TIP3    H129021   4.214   1.810   2.018
 9692TIP3    H229022   4.063   1.812   2.007
 9693TIP3   OH229023   5.336   3.816   1.477
 9693TIP3    H129024   5.305   3.742   1.425
 9693TIP3    H229025   5.269   3.883   1.467
 9694TIP3   OH229026   3.316   3.857   4.015
 9694TIP3    H129027   3.332   3.865   3.921
 9694TIP3    H229028   3.222   3.843   4.022
 9695TIP3   OH229029   6.388   3.822   1.039
 9695TIP3    H129030   6.328   3.896   1.027
 9695TIP3    H229031   6.444   3.824   0.961
 9696TIP3   OH229032   2.454   3.547   6.225
 9696TIP3    H129033   2.446   3.468   6.278
 9696TIP3    H229034   2.366   3.564   6.193
 9697TIP3   OH229035   4.312   4.094   3.587
 9697TIP3    H129036   4.306   4.104   3.492
 9697TIP3    H229037   4.398   4.055   3.602
 9698TIP3   OH229038   2.486   0.513   4.980
 9698TIP3    H129039   2.406   0.492   5.028
 9698TIP3    H229040   2.463   0.502   4.888
 9699TIP3   OH229041   0.825   1.374   4.398
 9699TIP3    H129042   0.797   1.286   4.422
 9699TIP3    H229043   0.829   1.372   4.302
 9700TIP3   OH229044   2.075   5.961   4.815
 9700TIP3    H129045   2.013   6.027   4.846
 9700TIP3    H229046   2.161   5.995   4.840
 9701TIP3   OH229047   1.132   7.096   0.588
 9701TIP3    H129048   1.154   7.041   0.513
 9701TIP3    H229049   1.037   7.102   0.587
 9702TIP3   OH229050   5.192   6.508   4.947
 9702TIP3    H129051   5.145   6.529   4.866
 9702TIP3    H229052   5.259   6.576   4.954
 9703TIP3   OH229053   5.261   6.697   5.741
 9703TIP3    H129054   5.251   6.770   5.680
 9703TIP3    H229055   5.182   6.645   5.730
 9704TIP3   OH229056   0.420   4.402   3.546
 9704TIP3    H129057   0.512   4.380   3.527
 9704TIP3    H229058   0.398   4.346   3.621
 9705TIP3   OH229059   0.234   3.086   6.655
 9705TIP3    H129060   0.169   3.125   6.597
 9705TIP3    H229061   0.311   3.071   6.599
 9706TIP3   OH229062   6.834   5.510   2.518
 9706TIP3    H129063   6.832   5.437   2.580
 9706TIP3    H229064   6.838   5.468   2.432
 9707TIP3   OH229065   7.551   0.619   5.191
 9707TIP3    H129066   7.526   0.592   5.279
 9707TIP3    H229067   7.563   0.714   5.197
 9708TIP3   OH229068   6.500   4.471   2.777
 9708TIP3    H129069   6.498   4.394   2.719
 9708TIP3    H229070   6.591   4.478   2.805
 9709TIP3   OH229071   7.406   4.662   1.731
 9709TIP3    H129072   7.489   4.620   1.754
 9709TIP3    H229073   7.405   4.742   1.783
 9710TIP3   OH229074   6.441   0.714   2.793
 9710TIP3    H129075   6.355   0.720   2.751
 9710TIP3    H229076   6.422   0.687   2.883
 9711TIP3   OH229077   5.399   2.595   3.960
 9711TIP3    H129078   5.307   2.595   3.987
 9711TIP3    H229079   5.398   2.560   3.871
 9712TIP3   OH229080   2.406   5.710   6.451
 9712TIP3    H129081   2.313   5.723   6.432
 9712TIP3    H229082   2.426   5.775   6.518
 9713TIP3   OH229083   8.073   5.753   0.119
 9713TIP3    H129084   7.978   5.760   0.131
 9713TIP3    H229085   8.104   5.716   0.202
 9714TIP3   OH229086   4.829   6.122   0.121
 9714TIP3    H129087   4.784   6.194   0.076
 9714TIP3    H229088   4.916   6.119   0.080
 9715TIP3   OH229089   3.226   4.337   3.259
 9715TIP3    H129090   3.180   4.386   3.327
 9715TIP3    H229091   3.193   4.373   3.176
 9716TIP3   OH229092   0.636   7.061   2.114
 9716TIP3    H129093   0.590   7.117   2.052
 9716TIP3    H229094   0.715   7.033   2.068
 9717TIP3   OH229095   2.148   2.633   0.196
 9717TIP3    H129096   2.157   2.661   0.105
 9717TIP3    H229097   2.224   2.673   0.240
 9718TIP3   OH229098   0.228   4.128   0.149
 9718TIP3    H129099   0.175   4.067   0.201
 9718TIP3    H229100   0.169   4.158   0.080
 9719TIP3   OH229101   7.450   3.456   2.774
 9719TIP3    H129102   7.460   3.450   2.869
 9719TIP3    H229103   7.538   3.445   2.740
 9720TIP3   OH229104   3.425   6.034   0.922
 9720TIP3    H129105   3.360   6.101   0.943
 9720TIP3    H229106   3.436   6.039   0.827
 9721TIP3   OH229107   6.502   6.203   3.162
 9721TIP3    H129108   6.514   6.246   3.078
 9721TIP3    H229109   6.590   6.193   3.197
 9722TIP3   OH229110   4.474   6.552   4.131
 9722TIP3    H129111   4.420   6.476   4.150
 9722TIP3    H229112   4.554   6.516   4.092
 9723TIP3   OH229113   0.177   3.776   0.383
 9723TIP3    H129114   0.145   3.713   0.448
 9723TIP3    H229115   0.148   3.861   0.416
 9724TIP3   OH229116   5.926   3.391   6.338
 9724TIP3    H129117   5.996   3.440   6.381
 9724TIP3    H229118   5.969   3.348   6.264
 9725TIP3   OH229119   5.984   1.937   5.611
 9725TIP3    H129120   5.964   1.846   5.631
 9725TIP3    H229121   5.939   1.954   5.528
 9726TIP3   OH229122   4.182   5.123   0.183
 9726TIP3    H129123   4.178   5.124   0.278
 9726TIP3    H229124   4.099   5.160   0.155
 9727TIP3   OH229125   3.883   6.521   5.835
 9727TIP3    H129126   3.965   6.552   5.798
 9727TIP3    H229127   3.890   6.425   5.834
 9728TIP3   OH229128   3.825   5.620   4.384
 9728TIP3    H129129   3.742   5.606   4.429
 9728TIP3    H229130   3.832   5.548   4.322
 9729TIP3   OH229131   1.345   7.053   2.913
 9729TIP3    H129132   1.306   7.123   2.861
 9729TIP3    H229133   1.409   7.096   2.969
 9730TIP3   OH229134   5.520   3.366   4.953
 9730TIP3    H129135   5.491   3.277   4.931
 9730TIP3    H229136   5.572   3.355   5.032
 9731TIP3   OH229137   7.194   1.008   2.924
 9731TIP3    H129138   7.170   0.917   2.910
 9731TIP3    H229139   7.169   1.053   2.843
 9732TIP3   OH229140   4.192   2.033   2.336
 9732TIP3    H129141   4.139   1.966   2.292
 9732TIP3    H229142   4.243   2.072   2.266
 9733TIP3   OH229143   1.037   0.325   4.944
 9733TIP3    H129144   0.973   0.322   4.873
 9733TIP3    H229145   0.986   0.308   5.023
 9734TIP3   OH229146   0.095   2.248   0.138
 9734TIP3    H129147   0.101   2.335   0.098
 9734TIP3    H229148   0.168   2.246   0.200
 9735TIP3   OH229149   0.210   2.371   6.664
 9735TIP3    H129150   0.143   2.437   6.648
 9735TIP3    H229151   0.181   2.295   6.614
 9736TIP3   OH229152   7.672   3.141   2.668
 9736TIP3    H129153   7.711   3.074   2.724
 9736TIP3    H229154   7.578   3.124   2.671
 9737TIP3   OH229155   0.894   7.200   4.314
 9737TIP3    H129156   0.844   7.204   4.232
 9737TIP3    H229157   0.882   7.286   4.354
 9738TIP3   OH229158   6.585   5.489   2.957
 9738TIP3    H129159   6.635   5.562   2.921
 9738TIP3    H229160   6.561   5.516   3.045
 9739TIP3   OH229161   6.876   5.366   4.470
 9739TIP3    H129162   6.791   5.410   4.469
 9739TIP3    H229163   6.920   5.399   4.548
 9740TIP3   OH229164   6.970   7.206   2.660
 9740TIP3    H129165   7.064   7.210   2.674
 9740TIP3    H229166   6.960   7.219   2.565
 9741TIP3   OH229167   2.890   3.431   2.414
 9741TIP3    H129168   2.881   3.497   2.345
 9741TIP3    H229169   2.966   3.379   2.388
 9742TIP3   OH229170   4.741   3.285   0.341
 9742TIP3    H129171   4.815   3.238   0.379
 9742TIP3    H229172   4.730   3.246   0.254
 9743TIP3   OH229173   7.205   1.531   3.798
 9743TIP3    H129174   7.169   1.445   3.777
 9743TIP3    H229175   7.253   1.518   3.880
 9744TIP3   OH229176   1.444   5.814   2.760
 9744TIP3    H129177   1.395   5.815   2.678
 9744TIP3    H229178   1.531   5.845   2.736
 9745TIP3   OH229179   7.414   4.216   6.041
 9745TIP3    H129180   7.365   4.190   5.963
 9745TIP3    H229181   7.455   4.136   6.073
 9746TIP3   OH229182   1.980   3.176   1.601
 9746TIP3    H129183   1.990   3.112   1.530
 9746TIP3    H229184   1.909   3.233   1.572
 9747TIP3   OH229185   8.284   3.077   6.256
 9747TIP3    H129186   8.368   3.046   6.221
 9747TIP3    H229187   8.220   3.016   6.221
 9748TIP3   OH229188   3.328   1.654   3.762
 9748TIP3    H129189   3.308   1.680   3.672
 9748TIP3    H229190   3.244   1.633   3.801
 9749TIP3   OH229191   3.319   6.094   2.027
 9749TIP3    H129192   3.259   6.155   1.985
 9749TIP3    H229193   3.283   6.007   2.008
 9750TIP3   OH229194   5.750   5.774   4.086
 9750TIP3    H129195   5.666   5.770   4.133
 9750TIP3    H229196   5.815   5.789   4.155
 9751TIP3   OH229197   0.107   5.882   3.992
 9751TIP3    H129198   0.124   5.814   4.057
 9751TIP3    H229199   0.178   5.873   3.929
 9752TIP3   OH229200   5.734   0.614   5.537
 9752TIP3    H129201   5.695   0.641   5.620
 9752TIP3    H229202   5.819   0.577   5.561
 9753TIP3   OH229203   8.124   3.662   4.807
 9753TIP3    H129204   8.135   3.665   4.712
 9753TIP3    H229205   8.044   3.611   4.821
 9754TIP3   OH229206   0.776   7.063   2.998
 9754TIP3    H129207   0.812   6.987   2.953
 9754TIP3    H229208   0.772   7.131   2.930
 9755TIP3   OH229209   3.098   0.165   6.539
 9755TIP3    H129210   3.125   0.220   6.466
 9755TIP3    H229211   3.006   0.145   6.522
 9756TIP3   OH229212   4.381   2.854   0.675
 9756TIP3    H129213   4.367   2.790   0.744
 9756TIP3    H229214   4.447   2.814   0.618
 9757TIP3   OH229215   5.662   6.886   4.743
 9757TIP3    H129216   5.570   6.879   4.767
 9757TIP3    H229217   5.693   6.965   4.786
 9758TIP3   OH229218   6.380   4.552   1.375
 9758TIP3    H129219   6.331   4.505   1.308
 9758TIP3    H229220   6.390   4.640   1.340
 9759TIP3   OH229221   4.039   6.835   5.054
 9759TIP3    H129222   4.071   6.756   5.099
 9759TIP3    H229223   4.114   6.866   5.003
 9760TIP3   OH229224   1.863   6.150   3.552
 9760TIP3    H129225   1.846   6.244   3.554
 9760TIP3    H229226   1.943   6.138   3.604
 9761TIP3   OH229227   0.647   0.197   4.105
 9761TIP3    H129228   0.694   0.217   4.186
 9761TIP3    H229229   0.630   0.283   4.066
 9762TIP3   OH229230   2.043   7.621   1.815
 9762TIP3    H129231   2.097   7.684   1.767
 9762TIP3    H229232   1.999   7.674   1.882
 9763TIP3   OH229233   4.039   1.319   2.642
 9763TIP3    H129234   4.029   1.413   2.653
 9763TIP3    H229235   4.079   1.290   2.725
 9764TIP3   OH229236   4.826   2.318   3.543
 9764TIP3    H129237   4.779   2.345   3.623
 9764TIP3    H229238   4.887   2.251   3.573
 9765TIP3   OH229239   6.995   3.438   4.227
 9765TIP3    H129240   6.925   3.503   4.236
 9765TIP3    H229241   6.950   3.353   4.233
 9766TIP3   OH229242   5.881   5.915   3.142
 9766TIP3    H129243   5.852   6.006   3.149
 9766TIP3    H229244   5.972   5.916   3.171
 9767TIP3   OH229245   3.978   7.387   5.039
 9767TIP3    H129246   3.931   7.450   5.093
 9767TIP3    H229247   4.071   7.403   5.059
 9768TIP3   OH229248   1.331   5.506   4.334
 9768TIP3    H129249   1.293   5.544   4.413
 9768TIP3    H229250   1.325   5.412   4.346
 9769TIP3   OH229251   5.285   4.077   2.413
 9769TIP3    H129252   5.236   4.144   2.364
 9769TIP3    H229253   5.242   4.074   2.498
 9770TIP3   OH229254   4.912   3.882   3.223
 9770TIP3    H129255   4.828   3.842   3.199
 9770TIP3    H229256   4.935   3.937   3.147
 9771TIP3   OH229257   6.159   1.547   3.595
 9771TIP3    H129258   6.245   1.540   3.554
 9771TIP3    H229259   6.152   1.639   3.620
 9772TIP3   OH229260   5.801   6.882   6.472
 9772TIP3    H129261   5.798   6.809   6.410
 9772TIP3    H229262   5.713   6.919   6.469
 9773TIP3   OH229263   6.659   3.747   6.558
 9773TIP3    H129264   6.680   3.764   6.650
 9773TIP3    H229265   6.744   3.745   6.514
 9774TIP3   OH229266   0.178   7.634   1.469
 9774TIP3    H129267   0.227   7.716   1.466
 9774TIP3    H229268   0.160   7.613   1.378
 9775TIP3   OH229269   2.487   0.660   3.866
 9775TIP3    H129270   2.473   0.750   3.837
 9775TIP3    H229271   2.577   0.659   3.898
 9776TIP3   OH229272   2.826   6.209   5.378
 9776TIP3    H129273   2.778   6.243   5.453
 9776TIP3    H229274   2.912   6.186   5.413
 9777TIP3   OH229275   7.836   2.378   4.128
 9777TIP3    H129276   7.748   2.366   4.166
 9777TIP3    H229277   7.831   2.462   4.083
 9778TIP3   OH229278   3.104   1.534   2.131
 9778TIP3    H129279   3.082   1.617   2.089
 9778TIP3    H229280   3.179   1.502   2.081
 9779TIP3   OH229281   7.691   7.274   1.367
 9779TIP3    H129282   7.604   7.302   1.394
 9779TIP3    H229283   7.723   7.221   1.439
 9780TIP3   OH229284   8.189   4.202   6.633
 9780TIP3    H129285   8.157   4.290   6.611
 9780TIP3    H229286   8.115   4.159   6.676
 9781TIP3   OH229287   3.875   4.247   4.461
 9781TIP3    H129288   3.927   4.315   4.502
 9781TIP3    H229289   3.874   4.176   4.525
 9782TIP3   OH229290   6.869   0.658   4.382
 9782TIP3    H129291   6.794   0.604   4.358
 9782TIP3    H229292   6.831   0.743   4.407
 9783TIP3   OH229293   3.746   6.324   3.616
 9783TIP3    H129294   3.836   6.320   3.582
 9783TIP3    H229295   3.741   6.409   3.660
 9784TIP3   OH229296   5.359   1.304   1.254
 9784TIP3    H129297   5.357   1.260   1.169
 9784TIP3    H229298   5.267   1.313   1.278
 9785TIP3   OH229299   5.998   1.467   0.124
 9785TIP3    H129300   6.023   1.479   0.033
 9785TIP3    H229301   5.908   1.500   0.129
 9786TIP3   OH229302   3.352  -0.039   5.839
 9786TIP3    H129303   3.390  -0.064   5.755
 9786TIP3    H229304   3.258  -0.030   5.821
 9787TIP3   OH229305   5.922   2.721   6.110
 9787TIP3    H129306   5.836   2.690   6.136
 9787TIP3    H229307   5.980   2.696   6.181
 9788TIP3   OH229308   6.727   5.313   3.875
 9788TIP3    H129309   6.679   5.230   3.870
 9788TIP3    H229310   6.668   5.377   3.833
 9789TIP3   OH229311   5.161   4.966   3.948
 9789TIP3    H129312   5.197   5.053   3.960
 9789TIP3    H229313   5.098   4.955   4.019
 9790TIP3   OH229314   0.799   1.846   2.718
 9790TIP3    H129315   0.835   1.818   2.802
 9790TIP3    H229316   0.826   1.938   2.709
 9791TIP3   OH229317   0.776   4.837   0.359
 9791TIP3    H129318   0.791   4.743   0.369
 9791TIP3    H229319   0.830   4.862   0.284
 9792TIP3   OH229320   2.510   2.296   6.551
 9792TIP3    H129321   2.496   2.354   6.476
 9792TIP3    H229322   2.425   2.294   6.595
 9793TIP3   OH229323   1.537   4.446   2.330
 9793TIP3    H129324   1.601   4.391   2.375
 9793TIP3    H229325   1.584   4.481   2.254
 9794TIP3   OH229326   4.388   3.288   0.292
 9794TIP3    H129327   4.309   3.243   0.260
 9794TIP3    H229328   4.389   3.268   0.386
 9795TIP3   OH229329   6.275   0.453   4.529
 9795TIP3    H129330   6.336   0.480   4.459
 9795TIP3    H229331   6.313   0.372   4.563
 9796TIP3   OH229332   6.458   5.598   0.073
 9796TIP3    H129333   6.492   5.557   0.152
 9796TIP3    H229334   6.418   5.527   0.024
 9797TIP3   OH229335   6.224   5.889   4.598
 9797TIP3    H129336   6.237   5.819   4.662
 9797TIP3    H229337   6.152   5.941   4.634
 9798TIP3   OH229338   8.161   2.932   0.847
 9798TIP3    H129339   8.211   2.945   0.767
 9798TIP3    H229340   8.167   3.016   0.893
 9799TIP3   OH229341   0.784   7.352   3.197
 9799TIP3    H129342   0.745   7.433   3.165
 9799TIP3    H229343   0.869   7.379   3.233
 9800TIP3   OH229344   2.087   6.446   2.095
 9800TIP3    H129345   2.082   6.437   2.000
 9800TIP3    H229346   2.141   6.372   2.123
 9801TIP3   OH229347   5.433   4.437   1.690
 9801TIP3    H129348   5.529   4.436   1.699
 9801TIP3    H229349   5.402   4.382   1.761
 9802TIP3   OH229350   5.678   3.116   0.394
 9802TIP3    H129351   5.589   3.094   0.423
 9802TIP3    H229352   5.717   3.031   0.371
 9803TIP3   OH229353   3.265   5.394   6.505
 9803TIP3    H129354   3.247   5.447   6.583
 9803TIP3    H229355   3.226   5.443   6.433
 9804TIP3   OH229356   4.365   2.576   1.184
 9804TIP3    H129357   4.301   2.642   1.212
 9804TIP3    H229358   4.385   2.527   1.264
 9805TIP3   OH229359   3.112   3.258   4.099
 9805TIP3    H129360   3.083   3.260   4.190
 9805TIP3    H229361   3.186   3.198   4.099
 9806TIP3   OH229362   5.966   1.840   4.262
 9806TIP3    H129363   5.983   1.779   4.190
 9806TIP3    H229364   5.988   1.926   4.226
 9807TIP3   OH229365   4.949   3.184   3.825
 9807TIP3    H129366   4.921   3.166   3.915
 9807TIP3    H229367   4.867   3.188   3.775
 9808TIP3   OH229368   5.327   2.075   2.072
 9808TIP3    H129369   5.254   2.046   2.016
 9808TIP3    H229370   5.405   2.065   2.017
 9809TIP3   OH229371   0.815   5.166   2.948
 9809TIP3    H129372   0.792   5.189   3.038
 9809TIP3    H229373   0.868   5.240   2.917
 9810TIP3   OH229374   1.039   2.142   5.985
 9810TIP3    H129375   1.017   2.195   6.062
 9810TIP3    H229376   0.956   2.100   5.961
 9811TIP3   OH229377   7.425   1.191   6.069
 9811TIP3    H129378   7.360   1.259   6.086
 9811TIP3    H229379   7.474   1.183   6.151
 9812TIP3   OH229380   5.971   3.483   0.941
 9812TIP3    H129381   5.978   3.398   0.984
 9812TIP3    H229382   6.061   3.511   0.926
 9813TIP3   OH229383   5.491   5.086   0.704
 9813TIP3    H129384   5.450   5.000   0.690
 9813TIP3    H229385   5.419   5.142   0.733
 9814TIP3   OH229386   3.573   5.144   4.640
 9814TIP3    H129387   3.525   5.207   4.586
 9814TIP3    H229388   3.505   5.091   4.680
 9815TIP3   OH229389   8.312   6.913   6.246
 9815TIP3    H129390   8.362   6.994   6.238
 9815TIP3    H229391   8.222   6.943   6.260
 9816TIP3   OH229392   4.422   0.920   6.363
 9816TIP3    H129393   4.339   0.905   6.317
 9816TIP3    H229394   4.456   1.001   6.324
 9817TIP3   OH229395   5.387   6.139   4.996
 9817TIP3    H129396   5.431   6.145   4.911
 9817TIP3    H229397   5.438   6.195   5.054
 9818TIP3   OH229398   5.313   4.069   3.761
 9818TIP3    H129399   5.248   4.031   3.820
 9818TIP3    H229400   5.393   4.075   3.815
 9819TIP3   OH229401   7.889   5.507   0.461
 9819TIP3    H129402   7.900   5.424   0.414
 9819TIP3    H229403   7.896   5.574   0.393
 9820TIP3   OH229404   4.502   1.526   4.006
 9820TIP3    H129405   4.551   1.445   3.988
 9820TIP3    H229406   4.528   1.586   3.936
 9821TIP3   OH229407   0.718   2.194   4.026
 9821TIP3    H129408   0.627   2.209   4.053
 9821TIP3    H229409   0.769   2.217   4.103
 9822TIP3   OH229410   2.340   2.266   5.959
 9822TIP3    H129411   2.263   2.314   5.928
 9822TIP3    H229412   2.404   2.275   5.889
 9823TIP3   OH229413   8.064   5.769   6.413
 9823TIP3    H129414   8.121   5.837   6.378
 9823TIP3    H229415   8.068   5.781   6.508
 9824TIP3   OH229416   7.591   1.927   4.730
 9824TIP3    H129417   7.516   1.904   4.785
 9824TIP3    H229418   7.644   1.985   4.786
 9825TIP3   OH229419   5.352   6.004   0.858
 9825TIP3    H129420   5.333   5.916   0.827
 9825TIP3    H229421   5.280   6.024   0.918
 9826TIP3   OH229422   6.040   5.654   6.314
 9826TIP3    H129423   6.019   5.562   6.297
 9826TIP3    H229424   6.061   5.690   6.228
 9827TIP3   OH229425   2.928   4.838   4.793
 9827TIP3    H129426   2.921   4.830   4.888
 9827TIP3    H229427   2.940   4.748   4.762
 9828TIP3   OH229428   1.203   6.820   1.674
 9828TIP3    H129429   1.160   6.896   1.636
 9828TIP3    H229430   1.214   6.843   1.767
 9829TIP3   OH229431   2.697   0.451   1.455
 9829TIP3    H129432   2.676   0.465   1.547
 9829TIP3    H229433   2.616   0.419   1.416
 9830TIP3   OH229434   7.685   3.064   2.080
 9830TIP3    H129435   7.761   3.076   2.023
 9830TIP3    H229436   7.723   3.055   2.168
 9831TIP3   OH229437   6.514   7.425   0.430
 9831TIP3    H129438   6.533   7.365   0.359
 9831TIP3    H229439   6.422   7.446   0.420
 9832TIP3   OH229440   5.252   7.047   1.340
 9832TIP3    H129441   5.320   7.009   1.284
 9832TIP3    H229442   5.249   7.139   1.314
 9833TIP3   OH229443   3.872   2.033   0.227
 9833TIP3    H129444   3.840   1.944   0.214
 9833TIP3    H229445   3.931   2.026   0.302
 9834TIP3   OH229446   7.645   1.833   1.400
 9834TIP3    H129447   7.572   1.787   1.441
 9834TIP3    H229448   7.612   1.922   1.386
 9835TIP3   OH229449   4.470   1.093   3.216
 9835TIP3    H129450   4.559   1.061   3.200
 9835TIP3    H229451   4.481   1.167   3.275
 9836TIP3   OH229452   0.375   6.423   1.674
 9836TIP3    H129453   0.362   6.518   1.674
 9836TIP3    H229454   0.325   6.391   1.599
 9837TIP3   OH229455   8.088   5.480   1.346
 9837TIP3    H129456   8.069   5.399   1.299
 9837TIP3    H229457   8.136   5.452   1.424
 9838TIP3   OH229458   4.785   1.309   5.928
 9838TIP3    H129459   4.690   1.322   5.922
 9838TIP3    H229460   4.812   1.361   6.004
 9839TIP3   OH229461   5.504   5.114   0.233
 9839TIP3    H129462   5.411   5.135   0.235
 9839TIP3    H229463   5.528   5.103   0.325
 9840TIP3   OH229464   8.182   4.800   0.303
 9840TIP3    H129465   8.174   4.884   0.256
 9840TIP3    H229466   8.184   4.825   0.395
 9841TIP3   OH229467   3.685   2.712   1.044
 9841TIP3    H129468   3.733   2.707   1.126
 9841TIP3    H229469   3.670   2.805   1.030
 9842TIP3   OH229470   3.843   0.946   6.557
 9842TIP3    H129471   3.873   0.939   6.647
 9842TIP3    H229472   3.857   0.859   6.520
 9843TIP3   OH229473   8.228   6.627   1.354
 9843TIP3    H129474   8.139   6.651   1.381
 9843TIP3    H229475   8.258   6.701   1.301
 9844TIP3   OH229476   3.748   6.071   5.589
 9844TIP3    H129477   3.658   6.084   5.621
 9844TIP3    H229478   3.746   6.105   5.499
 9845TIP3   OH229479   5.730   6.856   4.468
 9845TIP3    H129480   5.782   6.775   4.468
 9845TIP3    H229481   5.692   6.860   4.556
 9846TIP3   OH229482   3.087   2.183   4.442
 9846TIP3    H129483   3.066   2.195   4.350
 9846TIP3    H229484   3.057   2.263   4.485
 9847TIP3   OH229485   3.676   4.688   5.981
 9847TIP3    H129486   3.647   4.764   6.031
 9847TIP3    H229487   3.694   4.722   5.894
 9848TIP3   OH229488   7.556   2.543   5.225
 9848TIP3    H129489   7.611   2.583   5.157
 9848TIP3    H229490   7.618   2.519   5.294
 9849TIP3   OH229491   7.720   0.896   6.726
 9849TIP3    H129492   7.806   0.918   6.761
 9849TIP3    H229493   7.703   0.963   6.659
 9850TIP3   OH229494   4.697   4.885   6.565
 9850TIP3    H129495   4.734   4.937   6.636
 9850TIP3    H229496   4.627   4.834   6.606
 9851TIP3   OH229497   8.206   4.544   5.926
 9851TIP3    H129498   8.224   4.538   6.020
 9851TIP3    H229499   8.273   4.604   5.893
 9852TIP3   OH229500   1.387   1.120   6.251
 9852TIP3    H129501   1.464   1.128   6.307
 9852TIP3    H229502   1.315   1.151   6.305
 9853TIP3   OH229503   1.806   2.557   1.887
 9853TIP3    H129504   1.864   2.620   1.845
 9853TIP3    H229505   1.741   2.611   1.932
 9854TIP3   OH229506   0.524   3.966   5.359
 9854TIP3    H129507   0.481   4.019   5.291
 9854TIP3    H229508   0.460   3.898   5.380
 9855TIP3   OH229509   5.219   2.321   2.006
 9855TIP3    H129510   5.294   2.381   2.011
 9855TIP3    H229511   5.256   2.235   2.028
 9856TIP3   OH229512   7.583   1.354   0.078
 9856TIP3    H129513   7.649   1.400   0.026
 9856TIP3    H229514   7.629   1.277   0.112
 9857TIP3   OH229515   7.828   3.069   0.292
 9857TIP3    H129516   7.898   3.025   0.243
 9857TIP3    H229517   7.773   2.998   0.325
 9858TIP3   OH229518   3.476   2.872   0.518
 9858TIP3    H129519   3.475   2.901   0.427
 9858TIP3    H229520   3.388   2.839   0.534
 9859TIP3   OH229521   2.074   4.788   0.626
 9859TIP3    H129522   2.120   4.729   0.685
 9859TIP3    H229523   2.104   4.764   0.538
 9860TIP3   OH229524   4.440   4.727   4.001
 9860TIP3    H129525   4.455   4.725   4.096
 9860TIP3    H229526   4.368   4.667   3.987
 9861TIP3   OH229527   7.298   0.795   6.048
 9861TIP3    H129528   7.325   0.734   6.117
 9861TIP3    H229529   7.314   0.748   5.966
 9862TIP3   OH229530   4.043   0.646   4.646
 9862TIP3    H129531   3.955   0.610   4.654
 9862TIP3    H229532   4.039   0.701   4.568
 9863TIP3   OH229533   5.215   2.065   1.043
 9863TIP3    H129534   5.308   2.071   1.024
 9863TIP3    H229535   5.172   2.102   0.966
 9864TIP3   OH229536   5.309   3.335   2.192
 9864TIP3    H129537   5.262   3.364   2.114
 9864TIP3    H229538   5.315   3.414   2.247
 9865TIP3   OH229539   1.767   5.520   6.140
 9865TIP3    H129540   1.745   5.469   6.218
 9865TIP3    H229541   1.832   5.467   6.095
 9866TIP3   OH229542   6.198   4.058   1.034
 9866TIP3    H129543   6.136   3.985   1.030
 9866TIP3    H229544   6.217   4.078   0.942
 9867TIP3   OH229545   2.077   2.536   1.849
 9867TIP3    H129546   2.142   2.570   1.911
 9867TIP3    H229547   2.034   2.465   1.897
 9868TIP3   OH229548   0.531   6.588   2.076
 9868TIP3    H129549   0.444   6.589   2.037
 9868TIP3    H229550   0.517   6.614   2.167
 9869TIP3   OH229551   1.387   3.046   3.701
 9869TIP3    H129552   1.414   3.116   3.761
 9869TIP3    H229553   1.291   3.051   3.700
 9870TIP3   OH229554   2.043   6.428   3.622
 9870TIP3    H129555   2.036   6.424   3.717
 9870TIP3    H229556   2.136   6.436   3.604
 9871TIP3   OH229557   4.226   2.358   4.901
 9871TIP3    H129558   4.233   2.412   4.823
 9871TIP3    H229559   4.295   2.390   4.959
 9872TIP3   OH229560   7.989   1.073   0.655
 9872TIP3    H129561   8.076   1.037   0.637
 9872TIP3    H229562   7.962   1.112   0.573
 9873TIP3   OH229563   2.002   0.522   0.619
 9873TIP3    H129564   1.980   0.604   0.663
 9873TIP3    H229565   1.917   0.485   0.593
 9874TIP3   OH229566   4.190   3.030   4.018
 9874TIP3    H129567   4.269   2.991   4.055
 9874TIP3    H229568   4.217   3.116   3.987
 9875TIP3   OH229569   5.029   2.818   2.289
 9875TIP3    H129570   4.950   2.765   2.278
 9875TIP3    H229571   5.066   2.824   2.201
 9876TIP3   OH229572   1.211   3.816   0.409
 9876TIP3    H129573   1.219   3.911   0.405
 9876TIP3    H229574   1.294   3.783   0.375
 9877TIP3   OH229575   7.878   3.321   3.686
 9877TIP3    H129576   7.896   3.344   3.595
 9877TIP3    H229577   7.794   3.275   3.683
 9878TIP3   OH229578   0.052   6.471   2.560
 9878TIP3    H129579   0.020   6.541   2.504
 9878TIP3    H229580   0.104   6.516   2.627
 9879TIP3   OH229581   7.155   0.443   4.795
 9879TIP3    H129582   7.227   0.463   4.855
 9879TIP3    H229583   7.169   0.351   4.770
 9880TIP3   OH229584   2.675   4.679   5.107
 9880TIP3    H129585   2.597   4.700   5.054
 9880TIP3    H229586   2.739   4.649   5.043
 9881TIP3   OH229587   7.180   5.406   6.547
 9881TIP3    H129588   7.243   5.360   6.602
 9881TIP3    H229589   7.222   5.489   6.527
 9882TIP3   OH229590   7.581   3.657   3.250
 9882TIP3    H129591   7.670   3.678   3.221
 9882TIP3    H229592   7.584   3.670   3.345
 9883TIP3   OH229593   8.123   5.563   3.357
 9883TIP3    H129594   8.204   5.538   3.402
 9883TIP3    H229595   8.053   5.540   3.419
 9884TIP3   OH229596   8.045   1.063   1.847
 9884TIP3    H129597   8.108   1.124   1.810
 9884TIP3    H229598   8.033   1.092   1.938
 9885TIP3   OH229599   4.484   3.433   6.746
 9885TIP3    H129600   4.503   3.382   6.825
 9885TIP3    H229601   4.525   3.384   6.675
 9886TIP3   OH229602   3.940   2.825   0.859
 9886TIP3    H129603   3.959   2.807   0.951
 9886TIP3    H229604   4.026   2.845   0.821
 9887TIP3   OH229605   7.664   1.565   3.936
 9887TIP3    H129606   7.647   1.588   4.027
 9887TIP3    H229607   7.715   1.484   3.940
 9888TIP3   OH229608   0.485   0.983   5.639
 9888TIP3    H129609   0.576   1.012   5.637
 9888TIP3    H229610   0.490   0.889   5.657
 9889TIP3   OH229611   0.907   6.693   5.482
 9889TIP3    H129612   0.866   6.720   5.564
 9889TIP3    H229613   0.836   6.649   5.434
 9890TIP3   OH229614   6.016   0.107   0.903
 9890TIP3    H129615   6.098   0.071   0.869
 9890TIP3    H229616   5.965   0.031   0.929
 9891TIP3   OH229617   3.708   7.592   6.301
 9891TIP3    H129618   3.703   7.540   6.221
 9891TIP3    H229619   3.617   7.612   6.323
 9892TIP3   OH229620   5.700   5.536   2.813
 9892TIP3    H129621   5.756   5.592   2.866
 9892TIP3    H229622   5.611   5.557   2.841
 9893TIP3   OH229623   3.668   4.793   1.008
 9893TIP3    H129624   3.603   4.733   0.974
 9893TIP3    H229625   3.752   4.759   0.976
 9894TIP3   OH229626   2.575   0.957   4.817
 9894TIP3    H129627   2.640   0.986   4.752
 9894TIP3    H229628   2.592   0.863   4.827
 9895TIP3   OH229629   3.090   1.363   0.871
 9895TIP3    H129630   3.181   1.347   0.897
 9895TIP3    H229631   3.042   1.290   0.908
 9896TIP3   OH229632   3.739   6.954   3.659
 9896TIP3    H129633   3.793   7.025   3.694
 9896TIP3    H229634   3.799   6.882   3.644
 9897TIP3   OH229635   5.334   7.176   4.656
 9897TIP3    H129636   5.355   7.085   4.678
 9897TIP3    H229637   5.418   7.222   4.660
 9898TIP3   OH229638   8.165   4.687   3.881
 9898TIP3    H129639   8.162   4.771   3.927
 9898TIP3    H229640   8.235   4.639   3.924
 9899TIP3   OH229641   3.073   0.004   6.035
 9899TIP3    H129642   3.035   0.047   6.112
 9899TIP3    H229643   3.074  -0.089   6.058
 9900TIP3   OH229644   1.725   2.517   5.443
 9900TIP3    H129645   1.816   2.547   5.446
 9900TIP3    H229646   1.686   2.552   5.523
 9901TIP3   OH229647   7.857   7.578   2.016
 9901TIP3    H129648   7.798   7.630   2.071
 9901TIP3    H229649   7.810   7.496   2.002
 9902TIP3   OH229650   6.555   6.438   3.392
 9902TIP3    H129651   6.463   6.411   3.380
 9902TIP3    H229652   6.555   6.532   3.374
 9903TIP3   OH229653   7.214   0.594   6.538
 9903TIP3    H129654   7.268   0.607   6.616
 9903TIP3    H229655   7.276   0.568   6.470
 9904TIP3   OH229656   5.622   1.913   3.949
 9904TIP3    H129657   5.702   1.895   3.900
 9904TIP3    H229658   5.577   1.981   3.897
 9905TIP3   OH229659   7.399   5.399   3.246
 9905TIP3    H129660   7.400   5.304   3.260
 9905TIP3    H229661   7.466   5.413   3.178
 9906TIP3   OH229662   7.418   7.354   2.719
 9906TIP3    H129663   7.463   7.424   2.765
 9906TIP3    H229664   7.351   7.324   2.780
 9907TIP3   OH229665   1.831   4.546   4.457
 9907TIP3    H129666   1.782   4.481   4.506
 9907TIP3    H229667   1.779   4.563   4.379
 9908TIP3   OH229668   4.332   7.025   5.622
 9908TIP3    H129669   4.273   7.093   5.590
 9908TIP3    H229670   4.410   7.033   5.567
 9909TIP3   OH229671   4.880   5.761   5.556
 9909TIP3    H129672   4.789   5.741   5.577
 9909TIP3    H229673   4.907   5.823   5.624
 9910TIP3   OH229674   3.269   5.130   4.599
 9910TIP3    H129675   3.289   5.074   4.524
 9910TIP3    H229676   3.193   5.089   4.640
 9911TIP3   OH229677   0.392   2.835   5.962
 9911TIP3    H129678   0.467   2.878   5.921
 9911TIP3    H229679   0.428   2.757   6.004
 9912TIP3   OH229680   5.032   6.107   5.727
 9912TIP3    H129681   4.986   6.175   5.777
 9912TIP3    H229682   4.962   6.050   5.695
 9913TIP3   OH229683   1.121   0.189   3.308
 9913TIP3    H129684   1.055   0.177   3.240
 9913TIP3    H229685   1.104   0.277   3.343
 9914TIP3   OH229686   5.728   2.989   3.641
 9914TIP3    H129687   5.772   2.947   3.715
 9914TIP3    H229688   5.656   3.037   3.680
 9915TIP3   OH229689   2.970   0.257   5.436
 9915TIP3    H129690   2.962   0.162   5.447
 9915TIP3    H229691   2.887   0.283   5.395
 9916TIP3   OH229692   5.528   0.630   4.095
 9916TIP3    H129693   5.598   0.670   4.147
 9916TIP3    H229694   5.497   0.558   4.148
 9917TIP3   OH229695   5.943   2.609   3.281
 9917TIP3    H129696   6.016   2.598   3.342
 9917TIP3    H229697   5.927   2.520   3.248
 9918TIP3   OH229698   0.471   4.336   2.587
 9918TIP3    H129699   0.536   4.329   2.656
 9918TIP3    H229700   0.500   4.411   2.535
 9919TIP3   OH229701   3.266   5.435   0.725
 9919TIP3    H129702   3.311   5.451   0.643
 9919TIP3    H229703   3.174   5.429   0.702
 9920TIP3   OH229704   5.572   6.573   4.588
 9920TIP3    H129705   5.506   6.634   4.554
 9920TIP3    H229706   5.522   6.497   4.617
 9921TIP3   OH229707   1.598   1.806   5.332
 9921TIP3    H129708   1.575   1.726   5.286
 9921TIP3    H229709   1.693   1.813   5.322
 9922TIP3   OH229710   6.569   5.712   1.278
 9922TIP3    H129711   6.605   5.631   1.315
 9922TIP3    H229712   6.496   5.735   1.335
 9923TIP3   OH229713   8.112   2.996   3.092
 9923TIP3    H129714   8.041   3.019   3.153
 9923TIP3    H229715   8.147   2.914   3.126
 9924TIP3   OH229716   7.663   6.714   3.032
 9924TIP3    H129717   7.606   6.648   3.072
 9924TIP3    H229718   7.677   6.779   3.101
 9925TIP3   OH229719   1.596   3.274   5.221
 9925TIP3    H129720   1.521   3.218   5.244
 9925TIP3    H229721   1.559   3.337   5.159
 9926TIP3   OH229722   3.125   2.891   5.377
 9926TIP3    H129723   3.104   2.813   5.428
 9926TIP3    H229724   3.061   2.891   5.306
 9927TIP3   OH229725   4.434   5.143   4.193
 9927TIP3    H129726   4.453   5.075   4.129
 9927TIP3    H229727   4.340   5.160   4.182
 9928TIP3   OH229728   2.801   7.400   3.702
 9928TIP3    H129729   2.849   7.473   3.660
 9928TIP3    H229730   2.829   7.323   3.654
 9929TIP3   OH229731   6.532   1.564   4.780
 9929TIP3    H129732   6.573   1.576   4.695
 9929TIP3    H229733   6.574   1.486   4.816
 9930TIP3   OH229734   0.422   5.951   2.468
 9930TIP3    H129735   0.331   5.921   2.466
 9930TIP3    H229736   0.469   5.880   2.510
 9931TIP3   OH229737   0.563   6.971   5.840
 9931TIP3    H129738   0.549   6.884   5.877
 9931TIP3    H229739   0.477   6.999   5.810
 9932TIP3   OH229740   3.654   5.717   0.438
 9932TIP3    H129741   3.693   5.693   0.354
 9932TIP3    H229742   3.597   5.791   0.418
 9933TIP3   OH229743   7.891   4.285   1.916
 9933TIP3    H129744   7.933   4.215   1.866
 9933TIP3    H229745   7.798   4.280   1.892
 9934TIP3   OH229746   3.348   4.404   1.570
 9934TIP3    H129747   3.417   4.397   1.636
 9934TIP3    H229748   3.272   4.362   1.610
 9935TIP3   OH229749   0.355   1.208   5.568
 9935TIP3    H129750   0.297   1.171   5.502
 9935TIP3    H229751   0.416   1.136   5.589
 9936TIP3   OH229752   7.752   6.423   5.108
 9936TIP3    H129753   7.676   6.447   5.161
 9936TIP3    H229754   7.815   6.494   5.123
 9937TIP3   OH229755   1.321   5.569   2.926
 9937TIP3    H129756   1.351   5.605   3.010
 9937TIP3    H229757   1.345   5.635   2.861
 9938TIP3   OH229758   4.340   2.138   3.719
 9938TIP3    H129759   4.342   2.120   3.625
 9938TIP3    H229760   4.247   2.141   3.742
 9939TIP3   OH229761   7.505   3.644   4.527
 9939TIP3    H129762   7.527   3.617   4.437
 9939TIP3    H229763   7.415   3.676   4.521
 9940TIP3   OH229764   5.760   1.332   5.101
 9940TIP3    H129765   5.732   1.402   5.042
 9940TIP3    H229766   5.842   1.300   5.063
 9941TIP3   OH229767   1.441   1.506   5.805
 9941TIP3    H129768   1.403   1.579   5.855
 9941TIP3    H229769   1.404   1.515   5.717
 9942TIP3   OH229770   5.046   5.584   0.376
 9942TIP3    H129771   5.053   5.558   0.284
 9942TIP3    H229772   5.137   5.598   0.404
 9943TIP3   OH229773   1.025   1.721   3.182
 9943TIP3    H129774   0.974   1.641   3.168
 9943TIP3    H229775   0.999   1.751   3.269
 9944TIP3   OH229776   3.925   1.864   5.138
 9944TIP3    H129777   3.982   1.853   5.061
 9944TIP3    H229778   3.875   1.782   5.142
 9945TIP3   OH229779   0.647   0.749   4.828
 9945TIP3    H129780   0.606   0.781   4.908
 9945TIP3    H229781   0.578   0.700   4.784
 9946TIP3   OH229782   5.216   2.772   2.728
 9946TIP3    H129783   5.235   2.694   2.676
 9946TIP3    H229784   5.132   2.803   2.694
 9947TIP3   OH229785   2.850   7.743   3.057
 9947TIP3    H129786   2.870   7.751   2.964
 9947TIP3    H229787   2.916   7.797   3.101
 9948TIP3   OH229788   6.844   2.202   0.540
 9948TIP3    H129789   6.841   2.250   0.623
 9948TIP3    H229790   6.778   2.244   0.485
 9949TIP3   OH229791   3.839   3.010   4.109
 9949TIP3    H129792   3.925   2.969   4.112
 9949TIP3    H229793   3.777   2.938   4.121
 9950TIP3   OH229794   5.396   3.130   2.825
 9950TIP3    H129795   5.373   3.211   2.869
 9950TIP3    H229796   5.321   3.110   2.770
 9951TIP3   OH229797   8.342   3.349   4.748
 9951TIP3    H129798   8.333   3.254   4.754
 9951TIP3    H229799   8.344   3.379   4.839
 9952TIP3   OH229800   2.829   3.612   4.880
 9952TIP3    H129801   2.808   3.695   4.923
 9952TIP3    H229802   2.925   3.610   4.879
 9953TIP3   OH229803   2.146   6.277   0.775
 9953TIP3    H129804   2.183   6.191   0.758
 9953TIP3    H229805   2.207   6.318   0.836
 9954TIP3   OH229806   0.460   1.473   1.648
 9954TIP3    H129807   0.542   1.428   1.631
 9954TIP3    H229808   0.395   1.425   1.597
 9955TIP3   OH229809   3.700   1.670   6.013
 9955TIP3    H129810   3.671   1.624   6.092
 9955TIP3    H229811   3.770   1.728   6.043
 9956TIP3   OH229812   0.445   1.993   3.779
 9956TIP3    H129813   0.460   1.999   3.684
 9956TIP3    H229814   0.533   1.991   3.817
 9957TIP3   OH229815   3.706   2.674   0.486
 9957TIP3    H129816   3.694   2.641   0.397
 9957TIP3    H229817   3.801   2.679   0.497
 9958TIP3   OH229818   6.574   1.616   5.585
 9958TIP3    H129819   6.664   1.589   5.605
 9958TIP3    H229820   6.561   1.591   5.493
 9959TIP3   OH229821   7.969   1.937   4.059
 9959TIP3    H129822   7.977   2.029   4.034
 9959TIP3    H229823   7.935   1.894   3.980
 9960TIP3   OH229824   5.465   5.705   4.542
 9960TIP3    H129825   5.550   5.749   4.554
 9960TIP3    H229826   5.470   5.629   4.599
 9961TIP3   OH229827   7.947   1.268   5.474
 9961TIP3    H129828   7.998   1.229   5.402
 9961TIP3    H229829   7.858   1.237   5.460
 9962TIP3   OH229830   7.081   1.621   1.080
 9962TIP3    H129831   7.111   1.540   1.039
 9962TIP3    H229832   7.137   1.689   1.043
 9963TIP3   OH229833   3.440   4.796   5.470
 9963TIP3    H129834   3.531   4.767   5.459
 9963TIP3    H229835   3.388   4.716   5.465
 9964TIP3   OH229836   6.853   3.743   6.349
 9964TIP3    H129837   6.870   3.811   6.283
 9964TIP3    H229838   6.938   3.704   6.366
 9965TIP3   OH229839   1.625   7.752   6.660
 9965TIP3    H129840   1.644   7.838   6.622
 9965TIP3    H229841   1.580   7.705   6.590
 9966TIP3   OH229842   4.148   4.932   1.948
 9966TIP3    H129843   4.144   4.903   1.857
 9966TIP3    H229844   4.077   4.884   1.992
 9967TIP3   OH229845   0.716   2.798   4.179
 9967TIP3    H129846   0.684   2.863   4.117
 9967TIP3    H229847   0.794   2.838   4.218
 9968TIP3   OH229848   5.090   7.304   0.192
 9968TIP3    H129849   5.101   7.346   0.277
 9968TIP3    H229850   5.032   7.230   0.209
 9969TIP3   OH229851   5.239   7.800   2.228
 9969TIP3    H129852   5.173   7.732   2.229
 9969TIP3    H229853   5.190   7.882   2.237
 9970TIP3   OH229854   2.815   0.709   5.935
 9970TIP3    H129855   2.840   0.775   6.000
 9970TIP3    H229856   2.720   0.702   5.945
 9971TIP3   OH229857   1.527   0.948   1.572
 9971TIP3    H129858   1.497   1.037   1.592
 9971TIP3    H229859   1.465   0.915   1.507
 9972TIP3   OH229860   1.568   2.173   1.365
 9972TIP3    H129861   1.537   2.103   1.307
 9972TIP3    H229862   1.560   2.253   1.313
 9973TIP3   OH229863   5.223   7.404   2.532
 9973TIP3    H129864   5.139   7.393   2.486
 9973TIP3    H229865   5.232   7.498   2.544
 9974TIP3   OH229866   0.851   2.172   5.022
 9974TIP3    H129867   0.899   2.092   5.044
 9974TIP3    H229868   0.760   2.152   5.044
 9975TIP3   OH229869   2.773   4.622   0.111
 9975TIP3    H129870   2.690   4.590   0.146
 9975TIP3    H229871   2.838   4.593   0.176
 9976TIP3   OH229872   6.804   3.377   3.995
 9976TIP3    H129873   6.900   3.382   3.994
 9976TIP3    H229874   6.775   3.467   3.983
 9977TIP3   OH229875   3.435   4.912   3.757
 9977TIP3    H129876   3.393   4.993   3.729
 9977TIP3    H229877   3.416   4.906   3.851
 9978TIP3   OH229878   7.049   1.218   5.259
 9978TIP3    H129879   7.124   1.237   5.315
 9978TIP3    H229880   7.047   1.122   5.254
 9979TIP3   OH229881   7.689   5.378   1.850
 9979TIP3    H129882   7.654   5.429   1.777
 9979TIP3    H229883   7.757   5.324   1.812
 9980TIP3   OH229884   2.362   7.749   2.615
 9980TIP3    H129885   2.430   7.760   2.681
 9980TIP3    H229886   2.306   7.679   2.649
 9981TIP3   OH229887   1.116   1.720   4.680
 9981TIP3    H129888   1.178   1.722   4.752
 9981TIP3    H229889   1.141   1.643   4.628
 9982TIP3   OH229890   5.374   1.555   2.082
 9982TIP3    H129891   5.283   1.577   2.105
 9982TIP3    H229892   5.408   1.635   2.042
 9983TIP3   OH229893   1.445   2.832   2.537
 9983TIP3    H129894   1.395   2.914   2.541
 9983TIP3    H229895   1.394   2.775   2.481
 9984TIP3   OH229896   2.011   7.325   2.717
 9984TIP3    H129897   1.955   7.391   2.758
 9984TIP3    H229898   1.953   7.277   2.658
 9985TIP3   OH229899   4.824   3.028   6.095
 9985TIP3    H129900   4.807   3.106   6.148
 9985TIP3    H229901   4.824   3.059   6.005
 9986TIP3   OH229902   4.818   4.396   5.765
 9986TIP3    H129903   4.908   4.368   5.747
 9986TIP3    H229904   4.792   4.345   5.842
 9987TIP3   OH229905   4.498   4.904   1.294
 9987TIP3    H129906   4.452   4.863   1.220
 9987TIP3    H229907   4.531   4.987   1.258
 9988TIP3   OH229908   0.312   0.610   5.478
 9988TIP3    H129909   0.313   0.654   5.563
 9988TIP3    H229910   0.222   0.619   5.447
 9989TIP3   OH229911   6.308   2.110   0.657
 9989TIP3    H129912   6.306   2.016   0.637
 9989TIP3    H229913   6.231   2.145   0.612
 9990TIP3   OH229914   1.158   7.149   6.761
 9990TIP3    H129915   1.171   7.185   6.848
 9990TIP3    H229916   1.236   7.096   6.745
 9991TIP3   OH229917   5.853   4.524   6.622
 9991TIP3    H129918   5.784   4.460   6.606
 9991TIP3    H229919   5.868   4.565   6.536
 9992TIP3   OH229920   6.076   6.368   5.146
 9992TIP3    H129921   6.122   6.307   5.088
 9992TIP3    H229922   6.067   6.448   5.096
 9993TIP3   OH229923   7.720   4.298   3.943
 9993TIP3    H129924   7.659   4.348   3.889
 9993TIP3    H229925   7.805   4.309   3.900
 9994TIP3   OH229926   2.778   2.466   2.182
 9994TIP3    H129927   2.788   2.556   2.151
 9994TIP3    H229928   2.837   2.415   2.126
 9995TIP3   OH229929   7.733   2.298   1.517
 9995TIP3    H129930   7.807   2.331   1.466
 9995TIP3    H229931   7.764   2.214   1.552
 9996TIP3   OH229932   2.356   2.641   5.799
 9996TIP3    H129933   2.439   2.623   5.755
 9996TIP3    H229934   2.323   2.554   5.824
 9997TIP3   OH229935   4.948   3.902   2.473
 9997TIP3    H129936   4.965   3.928   2.564
 9997TIP3    H229937   5.034   3.879   2.438
 9998TIP3   OH229938   5.795   0.698   1.161
 9998TIP3    H129939   5.826   0.608   1.174
 9998TIP3    H229940   5.875   0.748   1.143
 9999TIP3   OH229941   2.706   2.317   0.539
 9999TIP3    H129942   2.773   2.254   0.566
 9999TIP3    H229943   2.638   2.263   0.498
10000TIP3   OH229944   3.807   2.379   0.646
10000TIP3    H129945   3.770   2.462   0.675
10000TIP3    H229946   3.891   2.373   0.692
10001TIP3   OH229947   1.252   1.259   3.579
10001TIP3    H129948   1.312   1.301   3.642
10001TIP3    H229949   1.310   1.222   3.513
10002TIP3   OH229950   2.252   1.382   5.777
10002TIP3    H129951   2.181   1.397   5.714
10002TIP3    H229952   2.257   1.286   5.784
10003TIP3   OH229953   4.335   1.748   3.177
10003TIP3    H129954   4.318   1.841   3.165
10003TIP3    H229955   4.407   1.728   3.117
10004TIP3   OH229956   6.411   5.396   3.845
10004TIP3    H129957   6.323   5.433   3.836
10004TIP3    H229958   6.435   5.369   3.756
10005TIP3   OH229959   7.439   2.095   1.688
10005TIP3    H129960   7.529   2.105   1.718
10005TIP3    H229961   7.389   2.081   1.768
10006TIP3   OH229962   0.573   4.607   5.533
10006TIP3    H129963   0.514   4.666   5.580
10006TIP3    H229964   0.520   4.530   5.514
10007TIP3   OH229965   6.242   4.416   5.824
10007TIP3    H129966   6.226   4.450   5.912
10007TIP3    H229967   6.318   4.358   5.834
10008TIP3   OH229968   4.502   6.023   2.291
10008TIP3    H129969   4.429   6.017   2.353
10008TIP3    H229970   4.580   6.005   2.344
10009TIP3   OH229971   6.925   1.688   3.818
10009TIP3    H129972   6.929   1.776   3.855
10009TIP3    H229973   7.005   1.645   3.848
10010TIP3   OH229974   6.832   5.479   0.352
10010TIP3    H129975   6.913   5.498   0.304
10010TIP3    H229976   6.835   5.385   0.368
10011TIP3   OH229977   0.851   2.653   6.605
10011TIP3    H129978   0.851   2.724   6.540
10011TIP3    H229979   0.836   2.574   6.553
10012TIP3   OH229980   3.811   3.564   3.633
10012TIP3    H129981   3.722   3.581   3.601
10012TIP3    H229982   3.798   3.509   3.710
10013TIP3   OH229983   1.355   0.158   3.182
10013TIP3    H129984   1.371   0.067   3.206
10013TIP3    H229985   1.269   0.178   3.218
10014TIP3   OH229986   4.576   6.699   4.861
10014TIP3    H129987   4.494   6.649   4.863
10014TIP3    H229988   4.547   6.789   4.845
10015TIP3   OH229989   1.518   3.882   4.320
10015TIP3    H129990   1.431   3.890   4.281
10015TIP3    H229991   1.563   3.962   4.293
10016TIP3   OH229992   6.797   3.117   1.514
10016TIP3    H129993   6.845   3.034   1.516
10016TIP3    H229994   6.710   3.095   1.548
10017TIP3   OH229995   6.155   5.902   3.167
10017TIP3    H129996   6.242   5.866   3.148
10017TIP3    H229997   6.173   5.989   3.202
10018TIP3   OH229998   7.227   3.849   5.684
10018TIP3    H129999   7.167   3.815   5.618
10018TIP3    H230000   7.253   3.773   5.735
10019TIP3   OH230001   1.683   7.026   2.209
10019TIP3    H130002   1.592   7.044   2.186
10019TIP3    H230003   1.734   7.084   2.153
10020TIP3   OH230004   7.217   5.863   1.743
10020TIP3    H130005   7.177   5.881   1.657
10020TIP3    H230006   7.258   5.778   1.732
10021TIP3   OH230007   5.112   5.761   2.201
10021TIP3    H130008   5.057   5.729   2.130
10021TIP3    H230009   5.075   5.721   2.280
10022TIP3   OH230010   3.713   3.402   2.298
10022TIP3    H130011   3.696   3.417   2.390
10022TIP3    H230012   3.788   3.459   2.277
10023TIP3   OH230013   7.464   5.764   4.132
10023TIP3    H130014   7.474   5.814   4.213
10023TIP3    H230015   7.370   5.757   4.120
10024TIP3   OH230016   2.614   4.280   5.428
10024TIP3    H130017   2.592   4.193   5.395
10024TIP3    H230018   2.536   4.308   5.476
10025TIP3   OH230019   5.633   0.938   3.515
10025TIP3    H130020   5.567   0.910   3.578
10025TIP3    H230021   5.709   0.884   3.533
10026TIP3   OH230022   3.466   4.933   2.773
10026TIP3    H130023   3.480   5.028   2.775
10026TIP3    H230024   3.392   4.919   2.833
10027TIP3   OH230025   7.561   3.565   4.784
10027TIP3    H130026   7.506   3.620   4.840
10027TIP3    H230027   7.543   3.595   4.695
10028TIP3   OH230028   5.612   0.862   0.265
10028TIP3    H130029   5.696   0.839   0.304
10028TIP3    H230030   5.613   0.957   0.259
10029TIP3   OH230031   3.764   0.403   6.430
10029TIP3    H130032   3.785   0.414   6.522
10029TIP3    H230033   3.672   0.375   6.429
10030TIP3   OH230034   2.064   6.642   3.240
10030TIP3    H130035   2.022   6.592   3.170
10030TIP3    H230036   2.158   6.633   3.223
10031TIP3   OH230037   4.003   6.793   5.413
10031TIP3    H130038   3.981   6.761   5.501
10031TIP3    H230039   3.930   6.764   5.358
10032TIP3   OH230040   5.945   6.964   6.134
10032TIP3    H130041   5.940   6.887   6.191
10032TIP3    H230042   5.857   6.972   6.098
10033TIP3   OH230043   8.034   2.269   0.919
10033TIP3    H130044   7.953   2.265   0.969
10033TIP3    H230045   8.028   2.196   0.858
10034TIP3   OH230046   0.992   6.190   0.768
10034TIP3    H130047   0.960   6.279   0.783
10034TIP3    H230048   1.077   6.188   0.811
10035TIP3   OH230049   1.491   7.582   6.028
10035TIP3    H130050   1.554   7.529   5.978
10035TIP3    H230051   1.542   7.622   6.097
10036TIP3   OH230052   1.778   0.398   5.662
10036TIP3    H130053   1.839   0.472   5.667
10036TIP3    H230054   1.736   0.396   5.748
10037TIP3   OH230055   6.075   7.576   1.544
10037TIP3    H130056   5.989   7.535   1.531
10037TIP3    H230057   6.074   7.606   1.635
10038TIP3   OH230058   2.201   0.538   3.245
10038TIP3    H130059   2.136   0.591   3.291
10038TIP3    H230060   2.227   0.591   3.170
10039TIP3   OH230061   0.447   6.722   4.054
10039TIP3    H130062   0.461   6.756   4.142
10039TIP3    H230063   0.483   6.634   4.056
10040TIP3   OH230064   6.764   6.020   0.016
10040TIP3    H130065   6.837   6.013  -0.046
10040TIP3    H230066   6.777   5.946   0.076
10041TIP3   OH230067   2.116   6.204   2.535
10041TIP3    H130068   2.091   6.296   2.544
10041TIP3    H230069   2.034   6.156   2.540
10042TIP3   OH230070   7.389   0.704   4.279
10042TIP3    H130071   7.415   0.708   4.371
10042TIP3    H230072   7.310   0.650   4.279
10043TIP3   OH230073   7.167   5.096   5.027
10043TIP3    H130074   7.184   5.008   4.994
10043TIP3    H230075   7.200   5.095   5.117
10044TIP3   OH230076   5.476   7.669   2.017
10044TIP3    H130077   5.426   7.684   1.937
10044TIP3    H230078   5.430   7.719   2.084
10045TIP3   OH230079   0.402   4.712   3.133
10045TIP3    H130080   0.334   4.766   3.172
10045TIP3    H230081   0.354   4.645   3.084
10046TIP3   OH230082   5.543   3.580   6.804
10046TIP3    H130083   5.576   3.546   6.721
10046TIP3    H230084   5.514   3.669   6.784
10047TIP3   OH230085   5.517   0.812   4.858
10047TIP3    H130086   5.486   0.835   4.770
10047TIP3    H230087   5.494   0.720   4.868
10048TIP3   OH230088   2.216   7.517   4.978
10048TIP3    H130089   2.130   7.534   4.938
10048TIP3    H230090   2.259   7.602   4.978
10049TIP3   OH230091   3.505   6.405   1.766
10049TIP3    H130092   3.452   6.482   1.784
10049TIP3    H230093   3.475   6.374   1.680
10050TIP3   OH230094   1.835   3.323   4.218
10050TIP3    H130095   1.907   3.290   4.164
10050TIP3    H230096   1.758   3.274   4.188
10051TIP3   OH230097   2.679   7.189   5.566
10051TIP3    H130098   2.724   7.113   5.601
10051TIP3    H230099   2.659   7.244   5.642
10052TIP3   OH230100   3.682   0.720   1.275
10052TIP3    H130101   3.775   0.716   1.250
10052TIP3    H230102   3.679   0.786   1.344
10053TIP3   OH230103   4.599   6.822   5.597
10053TIP3    H130104   4.553   6.801   5.515
10053TIP3    H230105   4.666   6.885   5.571
10054TIP3   OH230106   3.605   5.558   0.128
10054TIP3    H130107   3.541   5.487   0.141
10054TIP3    H230108   3.554   5.630   0.091
10055TIP3   OH230109   1.964   1.053   4.268
10055TIP3    H130110   1.877   1.046   4.308
10055TIP3    H230111   2.010   1.117   4.321
10056TIP3   OH230112   2.561   0.101   4.824
10056TIP3    H130113   2.613   0.155   4.764
10056TIP3    H230114   2.571   0.143   4.909
10057TIP3   OH230115   4.591   6.601   3.853
10057TIP3    H130116   4.523   6.541   3.883
10057TIP3    H230117   4.656   6.544   3.812
10058TIP3   OH230118   5.049   5.219   0.522
10058TIP3    H130119   5.082   5.129   0.522
10058TIP3    H230120   5.116   5.269   0.474
10059TIP3   OH230121   8.130   1.603   1.486
10059TIP3    H130122   8.187   1.617   1.561
10059TIP3    H230123   8.045   1.580   1.523
10060TIP3   OH230124   7.344   4.681   0.763
10060TIP3    H130125   7.322   4.625   0.838
10060TIP3    H230126   7.296   4.762   0.778
10061TIP3   OH230127  -0.014   0.962   6.012
10061TIP3    H130128   0.076   0.929   6.011
10061TIP3    H230129  -0.004   1.057   6.021
10062TIP3   OH230130   1.217   1.611   1.346
10062TIP3    H130131   1.137   1.559   1.334
10062TIP3    H230132   1.261   1.605   1.261
10063TIP3   OH230133   7.461   4.647   3.431
10063TIP3    H130134   7.398   4.611   3.494
10063TIP3    H230135   7.476   4.737   3.461
10064TIP3   OH230136   4.170   7.027   1.560
10064TIP3    H130137   4.153   7.087   1.488
10064TIP3    H230138   4.092   6.972   1.565
10065TIP3   OH230139   3.423   0.538   1.326
10065TIP3    H130140   3.428   0.459   1.273
10065TIP3    H230141   3.512   0.574   1.326
10066TIP3   OH230142   2.675   3.395   2.023
10066TIP3    H130143   2.586   3.378   2.055
10066TIP3    H230144   2.662   3.428   1.934
10067TIP3   OH230145   1.877   3.678   6.189
10067TIP3    H130146   1.882   3.585   6.211
10067TIP3    H230147   1.953   3.692   6.132
10068TIP3   OH230148   0.772   4.622   3.700
10068TIP3    H130149   0.794   4.532   3.674
10068TIP3    H230150   0.740   4.613   3.790
10069TIP3   OH230151   8.327   0.522   2.520
10069TIP3    H130152   8.293   0.561   2.601
10069TIP3    H230153   8.261   0.541   2.454
10070TIP3   OH230154   2.344   0.807   2.042
10070TIP3    H130155   2.332   0.895   2.007
10070TIP3    H230156   2.272   0.756   2.004
10071TIP3   OH230157   3.662   2.435   4.009
10071TIP3    H130158   3.746   2.421   4.053
10071TIP3    H230159   3.598   2.435   4.080
10072TIP3   OH230160   5.942   2.654   5.314
10072TIP3    H130161   5.955   2.747   5.296
10072TIP3    H230162   5.924   2.614   5.229
10073TIP3   OH230163   2.638   0.227   0.155
10073TIP3    H130164   2.666   0.304   0.204
10073TIP3    H230165   2.667   0.153   0.208
10074TIP3   OH230166   0.092   4.348   5.415
10074TIP3    H130167   0.030   4.312   5.478
10074TIP3    H230168   0.038   4.387   5.347
10075TIP3   OH230169   7.601   7.232   2.550
10075TIP3    H130170   7.534   7.236   2.618
10075TIP3    H230171   7.649   7.314   2.558
10076TIP3   OH230172   2.139   1.902   2.766
10076TIP3    H130173   2.141   1.877   2.674
10076TIP3    H230174   2.195   1.980   2.771
10077TIP3   OH230175   1.167   4.125   2.445
10077TIP3    H130176   1.200   4.215   2.438
10077TIP3    H230177   1.137   4.104   2.356
10078TIP3   OH230178   5.949   5.480   5.973
10078TIP3    H130179   6.002   5.417   5.925
10078TIP3    H230180   6.013   5.538   6.015
10079TIP3   OH230181   5.030   0.468   5.448
10079TIP3    H130182   4.984   0.407   5.506
10079TIP3    H230183   4.985   0.552   5.462
10080TIP3   OH230184   7.613   3.081   0.483
10080TIP3    H130185   7.667   3.006   0.510
10080TIP3    H230186   7.632   3.092   0.390
10081TIP3   OH230187   4.937   1.403   2.669
10081TIP3    H130188   4.967   1.480   2.717
10081TIP3    H230189   5.004   1.336   2.686
10082TIP3   OH230190   5.262   1.626   4.136
10082TIP3    H130191   5.245   1.687   4.207
10082TIP3    H230192   5.184   1.570   4.132
10083TIP3   OH230193   7.098   6.993   4.098
10083TIP3    H130194   7.160   7.019   4.030
10083TIP3    H230195   7.045   7.071   4.113
10084TIP3   OH230196   4.446   6.866   0.714
10084TIP3    H130197   4.492   6.783   0.725
10084TIP3    H230198   4.488   6.908   0.639
10085TIP3   OH230199   7.776   3.380   1.217
10085TIP3    H130200   7.687   3.393   1.248
10085TIP3    H230201   7.768   3.317   1.145
10086TIP3   OH230202   3.474   5.286   0.223
10086TIP3    H130203   3.470   5.206   0.170
10086TIP3    H230204   3.542   5.268   0.287
10087TIP3   OH230205   5.312   1.076   4.951
10087TIP3    H130206   5.339   1.162   4.919
10087TIP3    H230207   5.391   1.039   4.990
10088TIP3   OH230208   8.181   2.136   4.162
10088TIP3    H130209   8.252   2.200   4.167
10088TIP3    H230210   8.140   2.153   4.077
10089TIP3   OH230211   4.443   5.255   3.499
10089TIP3    H130212   4.485   5.290   3.577
10089TIP3    H230213   4.350   5.256   3.519
10090TIP3   OH230214   1.607   0.895   4.865
10090TIP3    H130215   1.636   0.951   4.937
10090TIP3    H230216   1.679   0.833   4.852
10091TIP3   OH230217   2.298   1.869   4.728
10091TIP3    H130218   2.383   1.912   4.739
10091TIP3    H230219   2.239   1.918   4.786
10092TIP3   OH230220   2.944   4.751   1.145
10092TIP3    H130221   2.989   4.713   1.220
10092TIP3    H230222   2.901   4.676   1.103
10093TIP3   OH230223   4.176   0.444   5.633
10093TIP3    H130224   4.157   0.359   5.673
10093TIP3    H230225   4.115   0.504   5.673
10094TIP3   OH230226   7.107   4.529   2.650
10094TIP3    H130227   7.054   4.598   2.689
10094TIP3    H230228   7.182   4.575   2.612
10095TIP3   OH230229   2.518   4.056   2.001
10095TIP3    H130230   2.503   4.133   2.056
10095TIP3    H230231   2.511   4.089   1.911
10096TIP3   OH230232   0.291   5.820   4.269
10096TIP3    H130233   0.304   5.902   4.317
10096TIP3    H230234   0.365   5.765   4.294
10097TIP3   OH230235   7.280   7.682   3.357
10097TIP3    H130236   7.286   7.770   3.393
10097TIP3    H230237   7.216   7.638   3.413
10098TIP3   OH230238   7.867   1.732   3.862
10098TIP3    H130239   7.789   1.678   3.874
10098TIP3    H230240   7.937   1.670   3.846
10099TIP3   OH230241   6.795   0.285   0.853
10099TIP3    H130242   6.864   0.331   0.902
10099TIP3    H230243   6.726   0.270   0.918
10100TIP3   OH230244   2.952   6.145   5.729
10100TIP3    H130245   3.027   6.169   5.784
10100TIP3    H230246   2.936   6.053   5.749
10101TIP3   OH230247   3.976   4.320   1.258
10101TIP3    H130248   3.957   4.404   1.301
10101TIP3    H230249   4.026   4.271   1.323
10102TIP3   OH230250   2.990   5.573   4.484
10102TIP3    H130251   3.049   5.611   4.549
10102TIP3    H230252   2.928   5.522   4.536
10103TIP3   OH230253   7.457   4.537   4.230
10103TIP3    H130254   7.429   4.447   4.248
10103TIP3    H230255   7.421   4.588   4.303
10104TIP3   OH230256   6.373   5.135   4.595
10104TIP3    H130257   6.401   5.108   4.683
10104TIP3    H230258   6.445   5.189   4.563
10105TIP3   OH230259   1.726   4.059   6.590
10105TIP3    H130260   1.730   4.027   6.680
10105TIP3    H230261   1.732   3.981   6.536
10106TIP3   OH230262   1.202   7.262   2.764
10106TIP3    H130263   1.180   7.308   2.845
10106TIP3    H230264   1.118   7.240   2.725
10107TIP3   OH230265   1.779   5.964   0.725
10107TIP3    H130266   1.795   5.875   0.756
10107TIP3    H230267   1.685   5.977   0.739
10108TIP3   OH230268   3.738   6.507   4.725
10108TIP3    H130269   3.800   6.460   4.670
10108TIP3    H230270   3.766   6.598   4.722
10109TIP3   OH230271   4.291   5.705   5.508
10109TIP3    H130272   4.257   5.739   5.591
10109TIP3    H230273   4.277   5.610   5.514
10110TIP3   OH230274   7.437   6.070   6.353
10110TIP3    H130275   7.430   6.018   6.433
10110TIP3    H230276   7.466   6.008   6.286
10111TIP3   OH230277   0.430   0.058   0.853
10111TIP3    H130278   0.387   0.097   0.929
10111TIP3    H230279   0.367   0.070   0.781
10112TIP3   OH230280   5.551   4.467   4.945
10112TIP3    H130281   5.502   4.387   4.960
10112TIP3    H230282   5.514   4.531   5.005
10113TIP3   OH230283   0.082   1.828   5.853
10113TIP3    H130284   0.004   1.882   5.846
10113TIP3    H230285   0.071   1.761   5.785
10114TIP3   OH230286   7.066   2.274   2.209
10114TIP3    H130287   7.144   2.260   2.155
10114TIP3    H230288   6.992   2.255   2.151
10115TIP3   OH230289   5.300   5.321   4.534
10115TIP3    H130290   5.268   5.336   4.445
10115TIP3    H230291   5.362   5.392   4.550
10116TIP3   OH230292   1.933   6.042   5.196
10116TIP3    H130293   1.884   6.012   5.120
10116TIP3    H230294   1.923   6.137   5.196
10117TIP3   OH230295   1.880   1.713   0.153
10117TIP3    H130296   1.967   1.754   0.148
10117TIP3    H230297   1.894   1.636   0.207
10118TIP3   OH230298   5.263   0.213   3.673
10118TIP3    H130299   5.327   0.284   3.681
10118TIP3    H230300   5.182   0.250   3.709
10119TIP3   OH230301   6.703   6.790   6.348
10119TIP3    H130302   6.718   6.810   6.441
10119TIP3    H230303   6.632   6.726   6.349
10120TIP3   OH230304   4.118   5.684  -0.031
10120TIP3    H130305   4.070   5.603  -0.016
10120TIP3    H230306   4.058   5.739  -0.081
10121TIP3   OH230307   3.500   3.347   6.429
10121TIP3    H130308   3.452   3.269   6.455
10121TIP3    H230309   3.434   3.415   6.423
10122TIP3   OH230310   2.190   1.081   5.842
10122TIP3    H130311   2.126   1.044   5.903
10122TIP3    H230312   2.275   1.048   5.873
10123TIP3   OH230313   1.321   1.476   5.028
10123TIP3    H130314   1.342   1.419   4.954
10123TIP3    H230315   1.228   1.463   5.043
10124TIP3   OH230316   0.384   5.070   4.039
10124TIP3    H130317   0.428   5.110   4.115
10124TIP3    H230318   0.448   5.006   4.007
10125TIP3   OH230319   0.682   3.051   1.544
10125TIP3    H130320   0.657   3.055   1.452
10125TIP3    H230321   0.776   3.073   1.544
10126TIP3   OH230322   0.605   6.467   3.227
10126TIP3    H130323   0.531   6.470   3.166
10126TIP3    H230324   0.564   6.476   3.314
10127TIP3   OH230325   7.447   0.337   6.709
10127TIP3    H130326   7.541   0.353   6.710
10127TIP3    H230327   7.425   0.333   6.616
10128TIP3   OH230328   5.755   7.080   4.950
10128TIP3    H130329   5.680   7.063   5.007
10128TIP3    H230330   5.830   7.082   5.009
10129TIP3   OH230331   5.789   6.307   2.032
10129TIP3    H130332   5.844   6.276   2.104
10129TIP3    H230333   5.758   6.393   2.060
10130TIP3   OH230334   5.898   7.586   0.149
10130TIP3    H130335   5.922   7.652   0.214
10130TIP3    H230336   5.822   7.541   0.186
10131TIP3   OH230337   2.174   1.450   2.402
10131TIP3    H130338   2.142   1.401   2.327
10131TIP3    H230339   2.096   1.485   2.444
10132TIP3   OH230340   4.152   4.029   1.058
10132TIP3    H130341   4.097   4.006   1.133
10132TIP3    H230342   4.152   4.125   1.057
10133TIP3   OH230343   1.299   4.067   3.736
10133TIP3    H130344   1.383   4.026   3.714
10133TIP3    H230345   1.320   4.159   3.752
10134TIP3   OH230346   1.239   1.967   2.329
10134TIP3    H130347   1.201   1.997   2.246
10134TIP3    H230348   1.197   2.021   2.396
10135TIP3   OH230349   4.493   1.004   2.115
10135TIP3    H130350   4.464   1.064   2.046
10135TIP3    H230351   4.493   0.918   2.072
10136TIP3   OH230352   0.097   1.705   6.099
10136TIP3    H130353   0.043   1.636   6.062
10136TIP3    H230354   0.091   1.777   6.037
10137TIP3   OH230355   4.989   7.791   1.727
10137TIP3    H130356   4.899   7.823   1.725
10137TIP3    H230357   5.000   7.753   1.814
10138TIP3   OH230358   2.430   2.197   1.483
10138TIP3    H130359   2.490   2.233   1.549
10138TIP3    H230360   2.371   2.140   1.533
10139TIP3   OH230361   2.050   6.589   4.721
10139TIP3    H130362   2.141   6.568   4.742
10139TIP3    H230363   2.052   6.616   4.629
10140TIP3   OH230364   7.539   7.787   6.056
10140TIP3    H130365   7.533   7.867   6.004
10140TIP3    H230366   7.574   7.815   6.140
10141TIP3   OH230367   5.981   0.807   1.399
10141TIP3    H130368   5.961   0.769   1.484
10141TIP3    H230369   6.064   0.854   1.412
10142TIP3   OH230370   6.029   1.666   2.377
10142TIP3    H130371   6.048   1.573   2.367
10142TIP3    H230372   6.010   1.696   2.289
10143TIP3   OH230373   1.127   4.974   6.055
10143TIP3    H130374   1.191   4.911   6.086
10143TIP3    H230375   1.176   5.056   6.045
10144TIP3   OH230376   2.431   4.041   1.485
10144TIP3    H130377   2.390   4.086   1.410
10144TIP3    H230378   2.525   4.053   1.471
10145TIP3   OH230379   3.385   7.782   4.624
10145TIP3    H130380   3.405   7.862   4.673
10145TIP3    H230381   3.306   7.748   4.665
10146TIP3   OH230382   4.157   4.920   4.283
10146TIP3    H130383   4.137   4.827   4.271
10146TIP3    H230384   4.125   4.941   4.370
10147TIP3   OH230385   1.229   5.538   4.951
10147TIP3    H130386   1.197   5.497   5.031
10147TIP3    H230387   1.164   5.606   4.931
10148TIP3   OH230388   3.044   6.571   0.675
10148TIP3    H130389   3.040   6.636   0.745
10148TIP3    H230390   2.959   6.577   0.632
10149TIP3   OH230391   5.261   0.337   0.683
10149TIP3    H130392   5.184   0.321   0.739
10149TIP3    H230393   5.291   0.424   0.709
10150TIP3   OH230394   1.812   3.357   3.283
10150TIP3    H130395   1.892   3.328   3.325
10150TIP3    H230396   1.842   3.405   3.205
10151TIP3   OH230397   0.087   3.564   6.092
10151TIP3    H130398   0.077   3.588   6.000
10151TIP3    H230399   0.078   3.647   6.140
10152TIP3   OH230400   4.620   5.524   1.658
10152TIP3    H130401   4.655   5.570   1.581
10152TIP3    H230402   4.608   5.434   1.628
10153TIP3   OH230403   5.050   1.436   0.044
10153TIP3    H130404   5.105   1.374  -0.004
10153TIP3    H230405   5.063   1.414   0.136
10154TIP3   OH230406   2.781   0.816   6.463
10154TIP3    H130407   2.726   0.834   6.387
10154TIP3    H230408   2.721   0.819   6.537
10155TIP3   OH230409   5.460   2.873   4.796
10155TIP3    H130410   5.415   2.906   4.718
10155TIP3    H230411   5.418   2.789   4.814
10156TIP3   OH230412   3.774   4.404   2.747
10156TIP3    H130413   3.791   4.467   2.677
10156TIP3    H230414   3.860   4.374   2.775
10157TIP3   OH230415   2.396   7.553   2.276
10157TIP3    H130416   2.450   7.518   2.205
10157TIP3    H230417   2.308   7.523   2.256
10158TIP3   OH230418   7.463   0.850   0.789
10158TIP3    H130419   7.543   0.900   0.807
10158TIP3    H230420   7.489   0.758   0.803
10159TIP3   OH230421   6.719   1.569   0.443
10159TIP3    H130422   6.776   1.531   0.376
10159TIP3    H230423   6.631   1.537   0.421
10160TIP3   OH230424   7.593   6.385   1.981
10160TIP3    H130425   7.525   6.401   1.915
10160TIP3    H230426   7.588   6.461   2.039
10161TIP3   OH230427   2.483   4.313   6.697
10161TIP3    H130428   2.415   4.246   6.689
10161TIP3    H230429   2.545   4.276   6.760
10162TIP3   OH230430   5.624   0.421   0.630
10162TIP3    H130431   5.587   0.361   0.566
10162TIP3    H230432   5.550   0.476   0.658
10163TIP3   OH230433   6.497   0.189   2.911
10163TIP3    H130434   6.567   0.139   2.868
10163TIP3    H230435   6.529   0.279   2.910
10164TIP3   OH230436   0.898   3.611   1.232
10164TIP3    H130437   0.887   3.578   1.142
10164TIP3    H230438   0.869   3.538   1.287
10165TIP3   OH230439   3.413   2.911   4.764
10165TIP3    H130440   3.490   2.956   4.800
10165TIP3    H230441   3.428   2.910   4.670
10166TIP3   OH230442   2.278   0.514   5.408
10166TIP3    H130443   2.320   0.597   5.430
10166TIP3    H230444   2.299   0.500   5.316
10167TIP3   OH230445   4.974   4.637   1.746
10167TIP3    H130446   4.917   4.708   1.716
10167TIP3    H230447   5.020   4.674   1.822
10168TIP3   OH230448   4.249   1.033   4.601
10168TIP3    H130449   4.202   1.097   4.548
10168TIP3    H230450   4.268   0.961   4.541
10169TIP3   OH230451   4.532   3.912   0.684
10169TIP3    H130452   4.464   3.921   0.751
10169TIP3    H230453   4.589   3.988   0.696
10170TIP3   OH230454   1.168   0.653   6.487
10170TIP3    H130455   1.154   0.558   6.492
10170TIP3    H230456   1.205   0.667   6.400
10171TIP3   OH230457   1.268   4.167   2.084
10171TIP3    H130458   1.182   4.150   2.121
10171TIP3    H230459   1.325   4.102   2.123
10172TIP3   OH230460   3.992   4.817   2.394
10172TIP3    H130461   4.063   4.869   2.356
10172TIP3    H230462   3.925   4.814   2.325
10173TIP3   OH230463   0.038   1.867   1.399
10173TIP3    H130464  -0.052   1.869   1.367
10173TIP3    H230465   0.068   1.777   1.384
10174TIP3   OH230466   5.644   0.239   5.824
10174TIP3    H130467   5.708   0.169   5.839
10174TIP3    H230468   5.659   0.300   5.896
10175TIP3   OH230469   5.322   4.189   4.077
10175TIP3    H130470   5.333   4.234   4.160
10175TIP3    H230471   5.352   4.253   4.011
10176TIP3   OH230472   1.586   3.125   2.094
10176TIP3    H130473   1.672   3.094   2.121
10176TIP3    H230474   1.577   3.211   2.134
10177TIP3   OH230475   7.460   1.069   3.682
10177TIP3    H130476   7.503   1.141   3.726
10177TIP3    H230477   7.367   1.093   3.680
10178TIP3   OH230478   4.544   0.026   1.098
10178TIP3    H130479   4.490   0.008   1.021
10178TIP3    H230480   4.486   0.072   1.159
10179TIP3   OH230481   4.995   4.654   3.824
10179TIP3    H130482   4.930   4.698   3.768
10179TIP3    H230483   5.054   4.724   3.851
10180TIP3   OH230484   4.232   3.287   3.926
10180TIP3    H130485   4.227   3.345   3.849
10180TIP3    H230486   4.204   3.342   3.999
10181TIP3   OH230487   5.455   2.998   0.836
10181TIP3    H130488   5.409   2.977   0.917
10181TIP3    H230489   5.512   3.071   0.860
10182TIP3   OH230490   4.459   7.764   3.045
10182TIP3    H130491   4.505   7.842   3.076
10182TIP3    H230492   4.429   7.721   3.125
10183TIP3   OH230493   1.704   2.700   2.662
10183TIP3    H130494   1.702   2.612   2.700
10183TIP3    H230495   1.773   2.745   2.709
10184TIP3   OH230496   3.416   6.838   2.020
10184TIP3    H130497   3.338   6.892   2.008
10184TIP3    H230498   3.394   6.779   2.092
10185TIP3   OH230499   7.645   1.248   1.805
10185TIP3    H130500   7.566   1.269   1.756
10185TIP3    H230501   7.666   1.158   1.781
10186TIP3   OH230502   4.844   1.867   0.241
10186TIP3    H130503   4.818   1.958   0.255
10186TIP3    H230504   4.927   1.873   0.195
10187TIP3   OH230505   5.845   7.689   5.049
10187TIP3    H130506   5.778   7.717   4.986
10187TIP3    H230507   5.928   7.696   5.001
10188TIP3   OH230508   7.705   5.924   1.158
10188TIP3    H130509   7.730   6.015   1.176
10188TIP3    H230510   7.662   5.928   1.072
10189TIP3   OH230511   7.431   4.657   0.506
10189TIP3    H130512   7.413   4.654   0.600
10189TIP3    H230513   7.409   4.569   0.475
10190TIP3   OH230514   1.311   4.175   6.771
10190TIP3    H130515   1.304   4.231   6.693
10190TIP3    H230516   1.348   4.094   6.738
10191TIP3   OH230517   2.829   2.581   2.615
10191TIP3    H130518   2.823   2.676   2.622
10191TIP3    H230519   2.896   2.556   2.678
10192TIP3   OH230520   4.024   1.305   4.807
10192TIP3    H130521   3.930   1.301   4.824
10192TIP3    H230522   4.045   1.220   4.769
10193TIP3   OH230523   8.168   6.413   0.747
10193TIP3    H130524   8.093   6.354   0.757
10193TIP3    H230525   8.210   6.384   0.666
10194TIP3   OH230526   3.150   6.125   1.530
10194TIP3    H130527   3.171   6.122   1.437
10194TIP3    H230528   3.071   6.072   1.540
10195TIP3   OH230529   5.868   2.340   3.941
10195TIP3    H130530   5.928   2.276   3.904
10195TIP3    H230531   5.924   2.410   3.974
10196TIP3   OH230532   1.508   5.655   2.268
10196TIP3    H130533   1.510   5.576   2.213
10196TIP3    H230534   1.597   5.664   2.300
10197TIP3   OH230535   6.214   4.749   6.164
10197TIP3    H130536   6.155   4.791   6.227
10197TIP3    H230537   6.205   4.801   6.084
10198TIP3   OH230538   2.619   2.483   5.348
10198TIP3    H130539   2.597   2.407   5.294
10198TIP3    H230540   2.623   2.556   5.287
10199TIP3   OH230541   1.146   3.333   3.214
10199TIP3    H130542   1.180   3.295   3.134
10199TIP3    H230543   1.223   3.363   3.262
10200TIP3   OH230544   3.920   7.648   0.995
10200TIP3    H130545   3.864   7.697   1.054
10200TIP3    H230546   4.006   7.691   1.001
10201TIP3   OH230547   1.461   2.410   2.861
10201TIP3    H130548   1.418   2.475   2.917
10201TIP3    H230549   1.393   2.344   2.844
10202TIP3   OH230550   3.144   6.941   2.903
10202TIP3    H130551   3.143   6.918   2.810
10202TIP3    H230552   3.106   6.865   2.948
10203TIP3   OH230553   7.557   2.870   5.549
10203TIP3    H130554   7.594   2.782   5.551
10203TIP3    H230555   7.631   2.928   5.572
10204TIP3   OH230556   1.579   1.049   6.462
10204TIP3    H130557   1.517   1.067   6.533
10204TIP3    H230558   1.606   0.959   6.476
10205TIP3   OH230559   3.611   1.102   1.631
10205TIP3    H130560   3.621   1.080   1.538
10205TIP3    H230561   3.684   1.059   1.674
10206TIP3   OH230562   5.720   6.180   4.640
10206TIP3    H130563   5.635   6.172   4.596
10206TIP3    H230564   5.698   6.185   4.733
10207TIP3   OH230565   1.266   2.170   5.294
10207TIP3    H130566   1.248   2.181   5.201
10207TIP3    H230567   1.360   2.150   5.299
10208TIP3   OH230568   1.327   6.581   3.202
10208TIP3    H130569   1.308   6.672   3.181
10208TIP3    H230570   1.288   6.568   3.289
10209TIP3   OH230571   1.346   4.810   6.074
10209TIP3    H130572   1.370   4.833   5.984
10209TIP3    H230573   1.395   4.729   6.091
10210TIP3   OH230574   0.417   6.836   6.728
10210TIP3    H130575   0.325   6.839   6.756
10210TIP3    H230576   0.425   6.753   6.681
10211TIP3   OH230577   2.194   7.561   3.200
10211TIP3    H130578   2.206   7.466   3.206
10211TIP3    H230579   2.264   7.590   3.140
10212TIP3   OH230580   2.437   5.784   4.311
10212TIP3    H130581   2.397   5.718   4.367
10212TIP3    H230582   2.448   5.860   4.368
10213TIP3   OH230583   3.166   4.166   3.468
10213TIP3    H130584   3.172   4.220   3.390
10213TIP3    H230585   3.086   4.197   3.512
10214TIP3   OH230586   5.060   1.281   4.904
10214TIP3    H130587   5.083   1.284   4.997
10214TIP3    H230588   4.971   1.316   4.901
10215TIP3   OH230589   6.177   2.984   0.355
10215TIP3    H130590   6.144   3.066   0.317
10215TIP3    H230591   6.228   3.012   0.431
10216TIP3   OH230592   7.580   1.534   5.525
10216TIP3    H130593   7.507   1.500   5.576
10216TIP3    H230594   7.655   1.529   5.584
10217TIP3   OH230595   7.221   1.126   4.984
10217TIP3    H130596   7.220   1.125   4.888
10217TIP3    H230597   7.148   1.070   5.009
10218TIP3   OH230598   5.150   5.647   6.692
10218TIP3    H130599   5.236   5.690   6.690
10218TIP3    H230600   5.114   5.663   6.604
10219TIP3   OH230601   8.035   5.268   4.652
10219TIP3    H130602   8.079   5.305   4.728
10219TIP3    H230603   8.067   5.320   4.578
10220TIP3   OH230604   5.378   6.343   1.212
10220TIP3    H130605   5.366   6.304   1.298
10220TIP3    H230606   5.470   6.325   1.190
10221TIP3   OH230607   0.438   4.817   5.646
10221TIP3    H130608   0.390   4.862   5.577
10221TIP3    H230609   0.469   4.887   5.703
10222TIP3   OH230610   6.047   6.852   2.207
10222TIP3    H130611   6.121   6.802   2.175
10222TIP3    H230612   6.026   6.913   2.137
10223TIP3   OH230613   4.836   1.973   4.227
10223TIP3    H130614   4.788   1.891   4.221
10223TIP3    H230615   4.867   1.990   4.139
10224TIP3   OH230616   7.474   3.872   6.627
10224TIP3    H130617   7.399   3.827   6.589
10224TIP3    H230618   7.449   3.965   6.626
10225TIP3   OH230619   2.481   1.044   4.251
10225TIP3    H130620   2.392   1.010   4.242
10225TIP3    H230621   2.469   1.133   4.284
10226TIP3   OH230622   6.145   3.316   6.564
10226TIP3    H130623   6.132   3.270   6.647
10226TIP3    H230624   6.141   3.248   6.498
10227TIP3   OH230625   0.430   7.735   0.345
10227TIP3    H130626   0.422   7.757   0.253
10227TIP3    H230627   0.437   7.640   0.347
10228TIP3   OH230628   7.412   2.244   2.891
10228TIP3    H130629   7.325   2.281   2.874
10228TIP3    H230630   7.401   2.150   2.877
10229TIP3   OH230631   1.101   7.771   4.497
10229TIP3    H130632   1.034   7.766   4.565
10229TIP3    H230633   1.102   7.684   4.457
10230TIP3   OH230634   2.805   2.030   2.281
10230TIP3    H130635   2.876   1.970   2.302
10230TIP3    H230636   2.811   2.099   2.348
10231TIP3   OH230637   3.988   2.749   4.167
10231TIP3    H130638   3.944   2.681   4.115
10231TIP3    H230639   3.984   2.717   4.257
10232TIP3   OH230640   4.233   1.830   0.242
10232TIP3    H130641   4.152   1.804   0.286
10232TIP3    H230642   4.253   1.757   0.183
10233TIP3   OH230643   2.428   6.820   1.904
10233TIP3    H130644   2.435   6.914   1.885
10233TIP3    H230645   2.506   6.782   1.864
10234TIP3   OH230646   4.017   0.151   0.685
10234TIP3    H130647   4.105   0.122   0.664
10234TIP3    H230648   3.994   0.209   0.612
10235TIP3   OH230649   0.448   2.787   0.498
10235TIP3    H130650   0.480   2.710   0.544
10235TIP3    H230651   0.370   2.756   0.451
10236TIP3   OH230652   1.126   0.687   2.791
10236TIP3    H130653   1.211   0.692   2.835
10236TIP3    H230654   1.116   0.594   2.769
10237TIP3   OH230655   7.230   1.548   1.407
10237TIP3    H130656   7.215   1.455   1.429
10237TIP3    H230657   7.288   1.546   1.331
10238TIP3   OH230658   0.030   0.016   2.833
10238TIP3    H130659   0.043   0.088   2.771
10238TIP3    H230660   0.075   0.045   2.913
10239TIP3   OH230661   5.605   3.436   2.103
10239TIP3    H130662   5.638   3.400   2.185
10239TIP3    H230663   5.516   3.400   2.096
10240TIP3   OH230664   6.983   5.242   5.521
10240TIP3    H130665   6.988   5.188   5.442
10240TIP3    H230666   7.072   5.275   5.534
10241TIP3   OH230667   0.734   4.112   5.036
10241TIP3    H130668   0.674   4.048   5.075
10241TIP3    H230669   0.735   4.185   5.099
10242TIP3   OH230670   4.272   2.071   0.045
10242TIP3    H130671   4.365   2.064   0.069
10242TIP3    H230672   4.233   1.990   0.079
10243TIP3   OH230673   0.424   2.971   2.179
10243TIP3    H130674   0.475   2.992   2.257
10243TIP3    H230675   0.490   2.956   2.111
10244TIP3   OH230676   6.784   6.710   0.499
10244TIP3    H130677   6.800   6.792   0.453
10244TIP3    H230678   6.871   6.669   0.506
10245TIP3   OH230679   4.987   7.239   5.765
10245TIP3    H130680   5.067   7.292   5.765
10245TIP3    H230681   5.017   7.151   5.742
10246TIP3   OH230682   6.389   2.867   2.840
10246TIP3    H130683   6.311   2.864   2.785
10246TIP3    H230684   6.451   2.922   2.791
10247TIP3   OH230685   3.545   1.774   2.723
10247TIP3    H130686   3.552   1.853   2.777
10247TIP3    H230687   3.471   1.791   2.666
10248TIP3   OH230688   0.677   5.257   3.527
10248TIP3    H130689   0.765   5.296   3.527
10248TIP3    H230690   0.693   5.164   3.507
10249TIP3   OH230691   3.739   1.307   6.429
10249TIP3    H130692   3.823   1.309   6.475
10249TIP3    H230693   3.756   1.256   6.350
10250TIP3   OH230694   1.326   3.732   5.837
10250TIP3    H130695   1.371   3.686   5.767
10250TIP3    H230696   1.292   3.812   5.796
10251TIP3   OH230697   2.766   3.199   4.271
10251TIP3    H130698   2.725   3.126   4.225
10251TIP3    H230699   2.751   3.181   4.364
10252TIP3   OH230700   4.663   7.064   4.438
10252TIP3    H130701   4.667   7.145   4.489
10252TIP3    H230702   4.741   7.015   4.463
10253TIP3   OH230703   4.453   3.277   3.495
10253TIP3    H130704   4.379   3.290   3.555
10253TIP3    H230705   4.415   3.284   3.407
10254TIP3   OH230706   3.857   1.625   1.929
10254TIP3    H130707   3.813   1.547   1.965
10254TIP3    H230708   3.938   1.591   1.890
10255TIP3   OH230709   4.302   3.202   4.479
10255TIP3    H130710   4.328   3.146   4.406
10255TIP3    H230711   4.350   3.284   4.465
10256TIP3   OH230712   3.040   6.761  -0.006
10256TIP3    H130713   2.985   6.831  -0.041
10256TIP3    H230714   3.034   6.771   0.089
10257TIP3   OH230715   3.517   2.993   5.336
10257TIP3    H130716   3.433   2.995   5.383
10257TIP3    H230717   3.501   3.043   5.256
10258TIP3   OH230718   7.709   5.756   4.879
10258TIP3    H130719   7.721   5.851   4.877
10258TIP3    H230720   7.643   5.739   4.812
10259TIP3   OH230721   0.098   3.035   2.814
10259TIP3    H130722   0.168   3.099   2.828
10259TIP3    H230723   0.118   2.962   2.872
10260TIP3   OH230724   4.666   5.702   2.551
10260TIP3    H130725   4.572   5.710   2.566
10260TIP3    H230726   4.704   5.692   2.639
10261TIP3   OH230727   0.614   1.107   0.069
10261TIP3    H130728   0.545   1.173   0.064
10261TIP3    H230729   0.588   1.040   0.006
10262TIP3   OH230730   7.267   5.065   5.323
10262TIP3    H130731   7.301   5.111   5.400
10262TIP3    H230732   7.172   5.067   5.334
10263TIP3   OH230733   0.983   2.759   3.265
10263TIP3    H130734   0.895   2.755   3.302
10263TIP3    H230735   1.025   2.831   3.311
10264TIP3   OH230736   4.428   6.366   1.304
10264TIP3    H130737   4.432   6.371   1.399
10264TIP3    H230738   4.481   6.440   1.274
10265TIP3   OH230739   5.549   4.771   3.123
10265TIP3    H130740   5.536   4.740   3.033
10265TIP3    H230741   5.644   4.774   3.134
10266TIP3   OH230742   5.337   4.318   0.752
10266TIP3    H130743   5.279   4.304   0.678
10266TIP3    H230744   5.320   4.244   0.810
10267TIP3   OH230745   4.630   4.482   2.816
10267TIP3    H130746   4.680   4.552   2.856
10267TIP3    H230747   4.557   4.466   2.876
10268TIP3   OH230748   6.447   3.507   5.139
10268TIP3    H130749   6.499   3.454   5.078
10268TIP3    H230750   6.491   3.496   5.224
10269TIP3   OH230751   4.969   7.333   2.388
10269TIP3    H130752   4.941   7.292   2.306
10269TIP3    H230753   4.897   7.391   2.411
10270TIP3   OH230754   6.777   2.152   5.359
10270TIP3    H130755   6.752   2.156   5.267
10270TIP3    H230756   6.869   2.178   5.361
10271TIP3   OH230757   7.113   4.884   0.858
10271TIP3    H130758   7.040   4.864   0.917
10271TIP3    H230759   7.073   4.936   0.788
10272TIP3   OH230760   0.866   3.342   4.984
10272TIP3    H130761   0.806   3.414   5.004
10272TIP3    H230762   0.915   3.328   5.065
10273TIP3   OH230763   5.903   3.039   2.655
10273TIP3    H130764   5.961   2.968   2.683
10273TIP3    H230765   5.883   3.019   2.564
10274TIP3   OH230766   5.976   2.209   1.101
10274TIP3    H130767   6.022   2.279   1.054
10274TIP3    H230768   5.886   2.241   1.109
10275TIP3   OH230769   3.452   7.516   2.512
10275TIP3    H130770   3.431   7.609   2.515
10275TIP3    H230771   3.378   7.476   2.467
10276TIP3   OH230772   4.330   5.999   4.662
10276TIP3    H130773   4.406   5.988   4.719
10276TIP3    H230774   4.361   5.973   4.575
10277TIP3   OH230775   7.204   6.143   2.531
10277TIP3    H130776   7.169   6.114   2.446
10277TIP3    H230777   7.299   6.137   2.521
10278TIP3   OH230778   6.882   0.618   3.711
10278TIP3    H130779   6.946   0.573   3.766
10278TIP3    H230780   6.800   0.613   3.761
10279TIP3   OH230781   8.180   7.402   4.479
10279TIP3    H130782   8.108   7.453   4.442
10279TIP3    H230783   8.156   7.311   4.462
10280TIP3   OH230784   4.185   1.502   1.466
10280TIP3    H130785   4.251   1.497   1.396
10280TIP3    H230786   4.217   1.440   1.532
10281TIP3   OH230787   6.172   6.512   1.058
10281TIP3    H130788   6.255   6.531   1.013
10281TIP3    H230789   6.191   6.435   1.111
10282TIP3   OH230790   6.447   6.394   0.302
10282TIP3    H130791   6.474   6.430   0.218
10282TIP3    H230792   6.507   6.433   0.365
10283TIP3   OH230793   7.383   6.773   4.566
10283TIP3    H130794   7.459   6.810   4.520
10283TIP3    H230795   7.313   6.837   4.552
10284TIP3   OH230796   5.766   4.387   2.020
10284TIP3    H130797   5.834   4.417   1.960
10284TIP3    H230798   5.783   4.294   2.031
10285TIP3   OH230799   5.858   7.508   1.907
10285TIP3    H130800   5.896   7.591   1.878
10285TIP3    H230801   5.854   7.516   2.002
10286TIP3   OH230802   2.458   1.540   1.381
10286TIP3    H130803   2.468   1.622   1.430
10286TIP3    H230804   2.442   1.568   1.291
10287TIP3   OH230805   7.206   5.956   1.473
10287TIP3    H130806   7.179   6.022   1.409
10287TIP3    H230807   7.299   5.942   1.455
10288TIP3   OH230808   0.363   7.693   1.902
10288TIP3    H130809   0.338   7.785   1.906
10288TIP3    H230810   0.437   7.691   1.841
10289TIP3   OH230811   2.333   0.339   0.889
10289TIP3    H130812   2.329   0.288   0.808
10289TIP3    H230813   2.379   0.420   0.863
10290TIP3   OH230814   3.773   4.772   0.521
10290TIP3    H130815   3.710   4.724   0.574
10290TIP3    H230816   3.831   4.704   0.486
10291TIP3   OH230817   4.037   6.133   3.960
10291TIP3    H130818   4.104   6.065   3.955
10291TIP3    H230819   4.014   6.137   4.052
10292TIP3   OH230820   4.589   3.552   5.231
10292TIP3    H130821   4.583   3.470   5.281
10292TIP3    H230822   4.500   3.588   5.235
10293TIP3   OH230823   3.089   4.867   4.285
10293TIP3    H130824   3.079   4.798   4.220
10293TIP3    H230825   3.006   4.915   4.283
10294TIP3   OH230826   4.603   7.440   0.799
10294TIP3    H130827   4.684   7.442   0.850
10294TIP3    H230828   4.538   7.405   0.859
10295TIP3   OH230829   2.726   2.207   4.850
10295TIP3    H130830   2.633   2.182   4.855
10295TIP3    H230831   2.770   2.128   4.817
10296TIP3   OH230832   1.170   7.275   2.172
10296TIP3    H130833   1.159   7.269   2.267
10296TIP3    H230834   1.136   7.192   2.138
10297TIP3   OH230835   2.962   0.457   1.404
10297TIP3    H130836   2.870   0.451   1.431
10297TIP3    H230837   2.965   0.409   1.321
10298TIP3   OH230838   7.240   3.923   3.206
10298TIP3    H130839   7.278   3.928   3.294
10298TIP3    H230840   7.301   3.867   3.157
10299TIP3   OH230841   5.304   1.551   0.395
10299TIP3    H130842   5.245   1.621   0.367
10299TIP3    H230843   5.388   1.594   0.411
10300TIP3   OH230844   3.797   6.528   2.202
10300TIP3    H130845   3.863   6.574   2.253
10300TIP3    H230846   3.726   6.511   2.264
10301TIP3   OH230847   0.913   6.242   5.891
10301TIP3    H130848   0.975   6.240   5.965
10301TIP3    H230849   0.863   6.161   5.900
10302TIP3   OH230850   2.732   3.547   6.544
10302TIP3    H130851   2.656   3.490   6.531
10302TIP3    H230852   2.782   3.505   6.613
10303TIP3   OH230853   7.338   1.839   3.371
10303TIP3    H130854   7.396   1.827   3.295
10303TIP3    H230855   7.361   1.926   3.405
10304TIP3   OH230856   2.337   3.771   1.544
10304TIP3    H130857   2.331   3.725   1.460
10304TIP3    H230858   2.370   3.858   1.521
10305TIP3   OH230859   4.628   6.528   2.194
10305TIP3    H130860   4.559   6.463   2.204
10305TIP3    H230861   4.705   6.488   2.233
10306TIP3   OH230862   1.500   1.521   0.112
10306TIP3    H130863   1.475   1.432   0.086
10306TIP3    H230864   1.588   1.533   0.077
10307TIP3   OH230865   7.969   0.547   4.643
10307TIP3    H130866   7.909   0.533   4.570
10307TIP3    H230867   8.013   0.463   4.655
10308TIP3   OH230868   8.213   5.631   4.602
10308TIP3    H130869   8.172   5.581   4.532
10308TIP3    H230870   8.302   5.597   4.607
10309TIP3   OH230871   5.950   2.063   1.311
10309TIP3    H130872   5.882   2.017   1.263
10309TIP3    H230873   5.982   2.129   1.251
10310TIP3   OH230874   5.834   3.617   0.460
10310TIP3    H130875   5.888   3.695   0.475
10310TIP3    H230876   5.864   3.555   0.526
10311TIP3   OH230877   1.301   7.201   5.420
10311TIP3    H130878   1.229   7.241   5.469
10311TIP3    H230879   1.267   7.192   5.331
10312TIP3   OH230880   2.214   7.429   5.697
10312TIP3    H130881   2.242   7.482   5.623
10312TIP3    H230882   2.283   7.364   5.708
10313TIP3   OH230883   0.512   1.967   3.267
10313TIP3    H130884   0.467   1.896   3.220
10313TIP3    H230885   0.572   2.004   3.202
10314TIP3   OH230886   0.382   3.701   2.426
10314TIP3    H130887   0.378   3.788   2.386
10314TIP3    H230888   0.298   3.661   2.404
10315TIP3   OH230889   2.711   0.997   6.138
10315TIP3    H130890   2.794   0.995   6.185
10315TIP3    H230891   2.688   1.090   6.134
10316TIP3   OH230892   1.493   1.503   2.170
10316TIP3    H130893   1.544   1.507   2.090
10316TIP3    H230894   1.438   1.582   2.169
10317TIP3   OH230895   7.264   0.833   5.656
10317TIP3    H130896   7.327   0.889   5.611
10317TIP3    H230897   7.224   0.890   5.721
10318TIP3   OH230898   0.663   1.520   0.281
10318TIP3    H130899   0.665   1.427   0.259
10318TIP3    H230900   0.630   1.522   0.371
10319TIP3   OH230901   4.902   4.330   0.638
10319TIP3    H130902   4.962   4.323   0.713
10319TIP3    H230903   4.917   4.417   0.603
10320TIP3   OH230904   2.433   2.112   6.213
10320TIP3    H130905   2.393   2.151   6.135
10320TIP3    H230906   2.485   2.183   6.251
10321TIP3   OH230907   4.919   6.971   0.425
10321TIP3    H130908   4.955   6.985   0.513
10321TIP3    H230909   4.864   7.047   0.408
10322TIP3   OH230910   6.191   4.223   1.764
10322TIP3    H130911   6.133   4.228   1.841
10322TIP3    H230912   6.266   4.278   1.787
10323TIP3   OH230913   4.012   2.241   2.975
10323TIP3    H130914   3.960   2.199   2.907
10323TIP3    H230915   3.985   2.198   3.056
10324TIP3   OH230916   1.774   0.103   3.121
10324TIP3    H130917   1.697   0.158   3.139
10324TIP3    H230918   1.819   0.097   3.205
10325TIP3   OH230919   4.642   4.934   4.338
10325TIP3    H130920   4.685   5.019   4.326
10325TIP3    H230921   4.702   4.885   4.394
10326TIP3   OH230922   1.285   2.500   2.597
10326TIP3    H130923   1.335   2.452   2.531
10326TIP3    H230924   1.262   2.582   2.555
10327TIP3   OH230925   0.975   1.082   1.123
10327TIP3    H130926   1.005   1.032   1.199
10327TIP3    H230927   0.917   1.149   1.160
10328TIP3   OH230928   5.785   1.836   2.663
10328TIP3    H130929   5.763   1.908   2.604
10328TIP3    H230930   5.706   1.782   2.665
10329TIP3   OH230931   7.858   1.600   2.458
10329TIP3    H130932   7.818   1.667   2.402
10329TIP3    H230933   7.948   1.593   2.426
10330TIP3   OH230934   3.667   6.281   0.418
10330TIP3    H130935   3.704   6.263   0.505
10330TIP3    H230936   3.572   6.274   0.430
10331TIP3   OH230937   3.266   7.676   5.001
10331TIP3    H130938   3.212   7.673   4.922
10331TIP3    H230939   3.204   7.665   5.073
10332TIP3   OH230940   5.385   3.064   4.599
10332TIP3    H130941   5.316   3.086   4.536
10332TIP3    H230942   5.454   3.129   4.582
10333TIP3   OH230943   5.370   4.408   3.890
10333TIP3    H130944   5.359   4.423   3.796
10333TIP3    H230945   5.464   4.423   3.906
10334TIP3   OH230946   1.313   3.634   4.412
10334TIP3    H130947   1.220   3.609   4.411
10334TIP3    H230948   1.359   3.553   4.390
10335TIP3   OH230949   2.264   4.181   2.947
10335TIP3    H130950   2.182   4.230   2.959
10335TIP3    H230951   2.328   4.229   3.000
10336TIP3   OH230952   3.311  -0.012   4.741
10336TIP3    H130953   3.310  -0.034   4.648
10336TIP3    H230954   3.284   0.079   4.745
10337TIP3   OH230955   2.951   1.077   0.183
10337TIP3    H130956   3.017   1.057   0.117
10337TIP3    H230957   2.900   0.996   0.191
10338TIP3   OH230958   8.252   4.474   0.294
10338TIP3    H130959   8.317   4.470   0.223
10338TIP3    H230960   8.174   4.511   0.253
10339TIP3   OH230961   7.631   2.458   3.027
10339TIP3    H130962   7.653   2.399   3.099
10339TIP3    H230963   7.539   2.480   3.041
10340TIP3   OH230964   1.144   3.293   5.649
10340TIP3    H130965   1.225   3.248   5.673
10340TIP3    H230966   1.170   3.384   5.638
10341TIP3   OH230967   1.511   5.168   4.262
10341TIP3    H130968   1.558   5.198   4.340
10341TIP3    H230969   1.537   5.230   4.194
10342TIP3   OH230970   4.904   4.847   5.178
10342TIP3    H130971   4.990   4.850   5.136
10342TIP3    H230972   4.913   4.781   5.246
10343TIP3   OH230973   6.221   3.469   1.259
10343TIP3    H130974   6.260   3.556   1.269
10343TIP3    H230975   6.162   3.460   1.334
10344TIP3   OH230976   3.039   0.113   3.063
10344TIP3    H130977   3.105   0.114   3.132
10344TIP3    H230978   2.957   0.093   3.108
10345TIP3   OH230979   4.390   0.042   2.445
10345TIP3    H130980   4.299   0.035   2.416
10345TIP3    H230981   4.428  -0.044   2.429
10346TIP3   OH230982   0.328   6.433   4.337
10346TIP3    H130983   0.322   6.431   4.433
10346TIP3    H230984   0.294   6.519   4.313
10347TIP3   OH230985   6.641   2.450   0.565
10347TIP3    H130986   6.586   2.452   0.487
10347TIP3    H230987   6.728   2.477   0.535
10348TIP3   OH230988   6.629   6.250   2.598
10348TIP3    H130989   6.674   6.263   2.515
10348TIP3    H230990   6.616   6.155   2.604
10349TIP3   OH230991   4.973   6.185   0.973
10349TIP3    H130992   4.914   6.111   0.959
10349TIP3    H230993   5.047   6.148   1.021
10350TIP3   OH230994   3.985   5.402   6.321
10350TIP3    H130995   3.971   5.339   6.250
10350TIP3    H230996   3.981   5.488   6.279
10351TIP3   OH230997   1.103   5.248   1.168
10351TIP3    H130998   1.045   5.231   1.242
10351TIP3    H230999   1.119   5.162   1.130
10352TIP3   OH231000   1.760   0.126   1.678
10352TIP3    H131001   1.708   0.046   1.671
10352TIP3    H231002   1.759   0.163   1.589
10353TIP3   OH231003   1.905   3.049   3.761
10353TIP3    H131004   1.922   2.969   3.810
10353TIP3    H231005   1.930   3.028   3.671
10354TIP3   OH231006   3.748   2.545   0.251
10354TIP3    H131007   3.744   2.451   0.267
10354TIP3    H231008   3.705   2.557   0.166
10355TIP3   OH231009   2.614   0.062   0.591
10355TIP3    H131010   2.538   0.083   0.535
10355TIP3    H231011   2.587   0.087   0.679
10356TIP3   OH231012   1.988   0.521   4.006
10356TIP3    H131013   1.910   0.484   3.964
10356TIP3    H231014   1.961   0.538   4.096
10357TIP3   OH231015   4.454   4.275   6.391
10357TIP3    H131016   4.373   4.320   6.366
10357TIP3    H231017   4.516   4.298   6.321
10358TIP3   OH231018   1.571   7.363   1.702
10358TIP3    H131019   1.625   7.285   1.710
10358TIP3    H231020   1.590   7.395   1.613
10359TIP3   OH231021   0.592   3.028   2.676
10359TIP3    H131022   0.578   3.059   2.766
10359TIP3    H231023   0.567   2.936   2.679
10360TIP3   OH231024   4.951   2.387   6.202
10360TIP3    H131025   5.016   2.333   6.158
10360TIP3    H231026   4.918   2.333   6.273
10361TIP3   OH231027   3.730   0.731   2.674
10361TIP3    H131028   3.745   0.735   2.769
10361TIP3    H231029   3.650   0.679   2.665
10362TIP3   OH231030   1.718   7.713   6.211
10362TIP3    H131031   1.763   7.697   6.128
10362TIP3    H231032   1.690   7.626   6.241
10363TIP3   OH231033   8.062   0.833   4.613
10363TIP3    H131034   8.094   0.743   4.605
10363TIP3    H231035   8.117   0.883   4.552
10364TIP3   OH231036   2.367   3.759   5.944
10364TIP3    H131037   2.457   3.783   5.961
10364TIP3    H231038   2.355   3.775   5.851
10365TIP3   OH231039   3.642   5.557   6.335
10365TIP3    H131040   3.651   5.512   6.251
10365TIP3    H231041   3.583   5.630   6.317
10366TIP3   OH231042   7.990   6.386   2.493
10366TIP3    H131043   8.031   6.426   2.569
10366TIP3    H231044   8.060   6.334   2.453
10367TIP3   OH231045   7.400   3.935   5.443
10367TIP3    H131046   7.335   3.936   5.514
10367TIP3    H231047   7.482   3.911   5.487
10368TIP3   OH231048   0.936   7.741   4.145
10368TIP3    H131049   0.977   7.824   4.117
10368TIP3    H231050   0.990   7.673   4.103
10369TIP3   OH231051   6.547   2.256   0.741
10369TIP3    H131052   6.480   2.214   0.686
10369TIP3    H231053   6.580   2.328   0.686
10370TIP3   OH231054   7.417   6.336   2.901
10370TIP3    H131055   7.489   6.352   2.840
10370TIP3    H231056   7.339   6.333   2.845
10371TIP3   OH231057   1.478   2.239   6.622
10371TIP3    H131058   1.518   2.229   6.709
10371TIP3    H231059   1.551   2.262   6.565
10372TIP3   OH231060   8.237   2.888   5.903
10372TIP3    H131061   8.316   2.833   5.897
10372TIP3    H231062   8.248   2.952   5.833
10373TIP3   OH231063   1.350   5.881   3.037
10373TIP3    H131064   1.424   5.939   3.017
10373TIP3    H231065   1.313   5.858   2.952
10374TIP3   OH231066   4.189   1.726   6.353
10374TIP3    H131067   4.108   1.703   6.309
10374TIP3    H231068   4.225   1.797   6.301
10375TIP3   OH231069   2.081   6.797   4.900
10375TIP3    H131070   2.095   6.729   4.833
10375TIP3    H231071   2.023   6.756   4.964
10376TIP3   OH231072   8.027   4.932   1.000
10376TIP3    H131073   7.940   4.898   0.980
10376TIP3    H231074   8.039   5.004   0.938
10377TIP3   OH231075   2.008   2.511   2.706
10377TIP3    H131076   2.034   2.571   2.776
10377TIP3    H231077   1.914   2.501   2.717
10378TIP3   OH231078   2.687   7.665   5.456
10378TIP3    H131079   2.781   7.658   5.439
10378TIP3    H231080   2.680   7.680   5.550
10379TIP3   OH231081   4.898   5.867   5.804
10379TIP3    H131082   4.902   5.784   5.852
10379TIP3    H231083   4.828   5.916   5.847
10380TIP3   OH231084   1.048   1.139   4.426
10380TIP3    H131085   1.064   1.124   4.519
10380TIP3    H231086   0.959   1.176   4.422
10381TIP3   OH231087   5.577   6.261   5.140
10381TIP3    H131088   5.582   6.266   5.236
10381TIP3    H231089   5.607   6.347   5.110
10382TIP3   OH231090   7.501   5.149   2.868
10382TIP3    H131091   7.538   5.215   2.927
10382TIP3    H231092   7.577   5.112   2.823
10383TIP3   OH231093   5.016   2.681   3.549
10383TIP3    H131094   5.039   2.762   3.595
10383TIP3    H231095   5.009   2.706   3.457
10384TIP3   OH231096   1.186   4.662   2.580
10384TIP3    H131097   1.140   4.581   2.558
10384TIP3    H231098   1.163   4.722   2.509
10385TIP3   OH231099   2.022   5.149   0.466
10385TIP3    H131100   1.989   5.060   0.479
10385TIP3    H231101   2.106   5.137   0.420
10386TIP3   OH231102   5.246   5.940   0.563
10386TIP3    H131103   5.323   5.889   0.590
10386TIP3    H231104   5.190   5.942   0.641
10387TIP3   OH231105   1.364   1.328   4.794
10387TIP3    H131106   1.277   1.312   4.831
10387TIP3    H231107   1.399   1.240   4.776
10388TIP3   OH231108   7.360   1.072   3.371
10388TIP3    H131109   7.426   1.008   3.398
10388TIP3    H231110   7.372   1.080   3.277
10389TIP3   OH231111   5.559   0.140   4.476
10389TIP3    H131112   5.470   0.113   4.452
10389TIP3    H231113   5.547   0.204   4.546
10390TIP3   OH231114   5.530   0.936   6.689
10390TIP3    H131115   5.478   0.995   6.635
10390TIP3    H231116   5.473   0.914   6.763
10391TIP3   OH231117   7.461   3.998   4.967
10391TIP3    H131118   7.518   4.063   4.928
10391TIP3    H231119   7.391   4.049   5.009
10392TIP3   OH231120   6.611   1.967   6.543
10392TIP3    H131121   6.561   1.905   6.489
10392TIP3    H231122   6.604   2.050   6.496
10393TIP3   OH231123   4.194   6.914   4.193
10393TIP3    H131124   4.170   6.833   4.149
10393TIP3    H231125   4.256   6.887   4.261
10394TIP3   OH231126   7.474   7.751   0.111
10394TIP3    H131127   7.381   7.755   0.131
10394TIP3    H231128   7.517   7.797   0.183
10395TIP3   OH231129   3.876   0.024   2.852
10395TIP3    H131130   3.971   0.017   2.847
10395TIP3    H231131   3.855   0.105   2.805
10396TIP3   OH231132   5.155  -0.003   0.556
10396TIP3    H131133   5.126   0.041   0.476
10396TIP3    H231134   5.208  -0.077   0.524
10397TIP3   OH231135   6.521   3.325   4.156
10397TIP3    H131136   6.580   3.400   4.144
10397TIP3    H231137   6.453   3.337   4.090
10398TIP3   OH231138   7.040   2.973   0.398
10398TIP3    H131139   7.118   2.993   0.450
10398TIP3    H231140   7.009   3.059   0.369
10399TIP3   OH231141   2.136   4.207   4.342
10399TIP3    H131142   2.209   4.197   4.281
10399TIP3    H231143   2.057   4.203   4.287
10400TIP3   OH231144   0.553   0.965   1.121
10400TIP3    H131145   0.490   0.900   1.092
10400TIP3    H231146   0.552   1.032   1.053
10401TIP3   OH231147   7.414   0.596   5.885
10401TIP3    H131148   7.475   0.628   5.818
10401TIP3    H231149   7.351   0.543   5.838
10402TIP3   OH231150   6.873   4.187   1.164
10402TIP3    H131151   6.889   4.273   1.124
10402TIP3    H231152   6.777   4.178   1.163
10403TIP3   OH231153   6.618   3.904   4.903
10403TIP3    H131154   6.532   3.878   4.935
10403TIP3    H231155   6.626   3.996   4.928
10404TIP3   OH231156   6.243   2.798   3.256
10404TIP3    H131157   6.201   2.737   3.196
10404TIP3    H231158   6.313   2.839   3.205
10405TIP3   OH231159   4.373   3.236   1.845
10405TIP3    H131160   4.281   3.253   1.821
10405TIP3    H231161   4.367   3.172   1.916
10406TIP3   OH231162   3.412   0.639   4.520
10406TIP3    H131163   3.423   0.646   4.615
10406TIP3    H231164   3.329   0.683   4.502
10407TIP3   OH231165   3.349   6.445   2.578
10407TIP3    H131166   3.369   6.495   2.498
10407TIP3    H231167   3.311   6.510   2.638
10408TIP3   OH231168   3.568   4.735   3.614
10408TIP3    H131169   3.660   4.749   3.636
10408TIP3    H231170   3.522   4.810   3.652
10409TIP3   OH231171   6.216   5.562   3.408
10409TIP3    H131172   6.170   5.525   3.483
10409TIP3    H231173   6.152   5.561   3.337
10410TIP3   OH231174   7.609   5.290   5.402
10410TIP3    H131175   7.548   5.359   5.374
10410TIP3    H231176   7.696   5.329   5.393
10411TIP3   OH231177   7.043   7.139   3.554
10411TIP3    H131178   6.981   7.127   3.482
10411TIP3    H231179   7.096   7.215   3.528
10412TIP3   OH231180   0.871   6.204   3.823
10412TIP3    H131181   0.918   6.286   3.836
10412TIP3    H231182   0.861   6.197   3.728
10413TIP3   OH231183   3.638   3.900   1.622
10413TIP3    H131184   3.603   3.988   1.615
10413TIP3    H231185   3.600   3.865   1.702
10414TIP3   OH231186   1.441   4.120   0.856
10414TIP3    H131187   1.414   4.205   0.889
10414TIP3    H231188   1.453   4.133   0.762
10415TIP3   OH231189   7.974   4.340   5.925
10415TIP3    H131190   8.043   4.397   5.890
10415TIP3    H231191   8.001   4.322   6.015
10416TIP3   OH231192   2.371   1.867   1.303
10416TIP3    H131193   2.309   1.932   1.336
10416TIP3    H231194   2.316   1.801   1.261
10417TIP3   OH231195   1.184   4.964   1.428
10417TIP3    H131196   1.132   4.993   1.503
10417TIP3    H231197   1.124   4.908   1.379
10418TIP3   OH231198   4.682   0.120   6.291
10418TIP3    H131199   4.691   0.088   6.381
10418TIP3    H231200   4.687   0.041   6.237
10419TIP3   OH231201   4.519   3.538   1.391
10419TIP3    H131202   4.511   3.464   1.331
10419TIP3    H231203   4.609   3.569   1.380
10420TIP3   OH231204   2.566   3.487   1.791
10420TIP3    H131205   2.613   3.567   1.767
10420TIP3    H231206   2.477   3.516   1.809
10421TIP3   OH231207   5.715   7.838   1.771
10421TIP3    H131208   5.713   7.928   1.739
10421TIP3    H231209   5.665   7.788   1.705
10422TIP3   OH231210   1.921   6.310   1.889
10422TIP3    H131211   1.851   6.362   1.929
10422TIP3    H231212   1.881   6.273   1.811
10423TIP3   OH231213   4.663   6.605   3.159
10423TIP3    H131214   4.617   6.685   3.184
10423TIP3    H231215   4.610   6.568   3.089
10424TIP3   OH231216   4.708   6.367   0.086
10424TIP3    H131217   4.656   6.349   0.164
10424TIP3    H231218   4.716   6.462   0.083
10425TIP3   OH231219   3.612   4.839   5.133
10425TIP3    H131220   3.557   4.875   5.202
10425TIP3    H231221   3.560   4.769   5.094
10426TIP3   OH231222   8.035   7.368   0.169
10426TIP3    H131223   7.943   7.349   0.151
10426TIP3    H231224   8.039   7.463   0.180
10427TIP3   OH231225   7.983   3.246   4.748
10427TIP3    H131226   8.011   3.305   4.678
10427TIP3    H231227   7.972   3.161   4.706
10428TIP3   OH231228   0.120   4.596   0.509
10428TIP3    H131229   0.052   4.599   0.443
10428TIP3    H231230   0.143   4.688   0.524
10429TIP3   OH231231   1.315   5.682   1.362
10429TIP3    H131232   1.399   5.726   1.376
10429TIP3    H231233   1.278   5.723   1.284
10430TIP3   OH231234   5.595   7.800   4.067
10430TIP3    H131235   5.644   7.784   4.148
10430TIP3    H231236   5.567   7.713   4.039
10431TIP3   OH231237   5.694   2.597   6.162
10431TIP3    H131238   5.672   2.523   6.105
10431TIP3    H231239   5.703   2.558   6.249
10432TIP3   OH231240   0.724   0.486   4.649
10432TIP3    H131241   0.782   0.411   4.633
10432TIP3    H231242   0.730   0.501   4.743
10433TIP3   OH231243   5.608   0.255   3.564
10433TIP3    H131244   5.641   0.344   3.554
10433TIP3    H231245   5.542   0.262   3.634
10434TIP3   OH231246   4.809   3.112   2.088
10434TIP3    H131247   4.819   3.203   2.060
10434TIP3    H231248   4.869   3.102   2.161
10435TIP3   OH231249   4.894   7.131   4.156
10435TIP3    H131250   4.858   7.187   4.087
10435TIP3    H231251   4.920   7.191   4.225
10436TIP3   OH231252   4.799   5.230   6.107
10436TIP3    H131253   4.876   5.287   6.111
10436TIP3    H231254   4.729   5.279   6.150
10437TIP3   OH231255   5.797   0.052   3.546
10437TIP3    H131256   5.886   0.080   3.568
10437TIP3    H231257   5.747   0.133   3.544
10438TIP3   OH231258   4.127   5.540   1.986
10438TIP3    H131259   4.188   5.549   1.913
10438TIP3    H231260   4.183   5.543   2.064
10439TIP3   OH231261   0.770   0.113   2.299
10439TIP3    H131262   0.749   0.202   2.270
10439TIP3    H231263   0.685   0.073   2.315
10440TIP3   OH231264   7.386   4.931   2.726
10440TIP3    H131265   7.356   4.921   2.635
10440TIP3    H231266   7.417   5.021   2.732
10441TIP3   OH231267   4.969   2.654   6.411
10441TIP3    H131268   5.034   2.707   6.365
10441TIP3    H231269   5.016   2.573   6.433
10442TIP3   OH231270   8.142   5.408   4.443
10442TIP3    H131271   8.202   5.335   4.456
10442TIP3    H231272   8.140   5.421   4.348
10443TIP3   OH231273   0.905   6.647   3.658
10443TIP3    H131274   0.984   6.597   3.638
10443TIP3    H231275   0.850   6.585   3.706
10444TIP3   OH231276   1.681   5.249   2.016
10444TIP3    H131277   1.741   5.184   2.052
10444TIP3    H231278   1.663   5.219   1.927
10445TIP3   OH231279   8.263   1.372   5.585
10445TIP3    H131280   8.219   1.329   5.511
10445TIP3    H231281   8.303   1.301   5.634
10446TIP3   OH231282   6.814   3.314   3.709
10446TIP3    H131283   6.792   3.304   3.802
10446TIP3    H231284   6.731   3.308   3.663
10447TIP3   OH231285   6.956   4.946   3.185
10447TIP3    H131286   6.949   4.986   3.271
10447TIP3    H231287   6.983   5.017   3.127
10448TIP3   OH231288   1.417   1.232   0.008
10448TIP3    H131289   1.383   1.202  -0.076
10448TIP3    H231290   1.406   1.157   0.066
10449TIP3   OH231291   6.931   4.820   4.731
10449TIP3    H131292   7.020   4.808   4.696
10449TIP3    H231293   6.876   4.767   4.674
10450TIP3   OH231294   8.181   2.537   4.695
10450TIP3    H131295   8.149   2.449   4.715
10450TIP3    H231296   8.226   2.527   4.611
10451TIP3   OH231297   6.777   6.009   4.928
10451TIP3    H131298   6.849   5.963   4.971
10451TIP3    H231299   6.785   5.985   4.836
10452TIP3   OH231300   4.880   7.081   5.105
10452TIP3    H131301   4.938   7.005   5.102
10452TIP3    H231302   4.831   7.070   5.186
10453TIP3   OH231303   0.154   7.622   6.547
10453TIP3    H131304   0.127   7.697   6.600
10453TIP3    H231305   0.219   7.658   6.487
10454TIP3   OH231306   1.918   0.462   4.800
10454TIP3    H131307   1.829   0.434   4.780
10454TIP3    H231308   1.959   0.386   4.841
10455TIP3   OH231309   0.850   3.817   4.329
10455TIP3    H131310   0.797   3.864   4.392
10455TIP3    H231311   0.928   3.790   4.379
10456TIP3   OH231312   3.229   7.666   3.143
10456TIP3    H131313   3.311   7.670   3.192
10456TIP3    H231314   3.171   7.727   3.188
10457TIP3   OH231315   2.573   1.679   6.796
10457TIP3    H131316   2.628   1.757   6.800
10457TIP3    H231317   2.490   1.709   6.758
10458TIP3   OH231318   2.946   6.142   3.109
10458TIP3    H131319   2.991   6.222   3.083
10458TIP3    H231320   2.947   6.144   3.205
10459TIP3   OH231321   3.751   2.733   3.048
10459TIP3    H131322   3.776   2.730   2.956
10459TIP3    H231323   3.704   2.650   3.062
10460TIP3   OH231324   5.305   6.300   2.548
10460TIP3    H131325   5.351   6.229   2.593
10460TIP3    H231326   5.328   6.289   2.456
10461TIP3   OH231327   6.531   6.969   1.719
10461TIP3    H131328   6.510   6.979   1.626
10461TIP3    H231329   6.518   7.056   1.756
10462TIP3   OH231330   6.473   2.880   0.409
10462TIP3    H131331   6.550   2.937   0.408
10462TIP3    H231332   6.436   2.890   0.497
10463TIP3   OH231333   3.947   3.723   2.671
10463TIP3    H131334   3.856   3.751   2.666
10463TIP3    H231335   3.975   3.716   2.579
10464TIP3   OH231336   4.971   0.664   2.193
10464TIP3    H131337   4.878   0.656   2.215
10464TIP3    H231338   5.015   0.611   2.259
10465TIP3   OH231339   0.836   4.171   6.425
10465TIP3    H131340   0.778   4.096   6.442
10465TIP3    H231341   0.851   4.209   6.511
10466TIP3   OH231342   7.452   2.055   2.395
10466TIP3    H131343   7.538   2.063   2.437
10466TIP3    H231344   7.392   2.037   2.468
10467TIP3   OH231345   4.323   0.851   3.242
10467TIP3    H131346   4.315   0.805   3.326
10467TIP3    H231347   4.355   0.938   3.266
10468TIP3   OH231348   1.243   0.866   4.048
10468TIP3    H131349   1.182   0.912   4.105
10468TIP3    H231350   1.305   0.933   4.019
10469TIP3   OH231351   6.809   5.417   3.240
10469TIP3    H131352   6.818   5.508   3.210
10469TIP3    H231353   6.722   5.413   3.280
10470TIP3   OH231354   1.533   0.372   1.339
10470TIP3    H131355   1.618   0.363   1.382
10470TIP3    H231356   1.477   0.415   1.403
10471TIP3   OH231357   3.112   7.730   4.754
10471TIP3    H131358   3.023   7.713   4.786
10471TIP3    H231359   3.108   7.816   4.713
10472TIP3   OH231360   1.968   1.849   1.548
10472TIP3    H131361   1.927   1.871   1.465
10472TIP3    H231362   1.907   1.788   1.590
10473TIP3   OH231363   5.895   2.770   0.581
10473TIP3    H131364   5.842   2.785   0.503
10473TIP3    H231365   5.839   2.797   0.654
10474TIP3   OH231366   5.173   5.993   5.202
10474TIP3    H131367   5.259   6.007   5.163
10474TIP3    H231368   5.124   6.072   5.181
10475TIP3   OH231369   6.028   2.888   1.421
10475TIP3    H131370   6.055   2.800   1.395
10475TIP3    H231371   6.087   2.946   1.375
10476TIP3   OH231372   2.556   2.884   0.952
10476TIP3    H131373   2.468   2.847   0.944
10476TIP3    H231374   2.559   2.920   1.040
10477TIP3   OH231375   7.718   1.836   5.782
10477TIP3    H131376   7.636   1.880   5.763
10477TIP3    H231377   7.766   1.836   5.699
10478TIP3   OH231378   1.657   4.008   2.888
10478TIP3    H131379   1.628   3.933   2.940
10478TIP3    H231380   1.650   3.978   2.797
10479TIP3   OH231381   3.056   6.783   6.681
10479TIP3    H131382   3.025   6.873   6.672
10479TIP3    H231383   3.122   6.773   6.612
10480TIP3   OH231384   0.387   5.046   3.049
10480TIP3    H131385   0.374   4.971   3.108
10480TIP3    H231386   0.347   5.018   2.967
10481TIP3   OH231387   7.128   7.345   3.330
10481TIP3    H131388   7.157   7.387   3.249
10481TIP3    H231389   7.097   7.259   3.302
10482TIP3   OH231390   0.629   1.010   1.724
10482TIP3    H131391   0.593   0.981   1.807
10482TIP3    H231392   0.573   0.969   1.658
10483TIP3   OH231393   5.313   6.242   0.528
10483TIP3    H131394   5.239   6.191   0.563
10483TIP3    H231395   5.360   6.180   0.472
10484TIP3   OH231396   0.013   6.916   3.776
10484TIP3    H131397  -0.030   6.979   3.834
10484TIP3    H231398  -0.053   6.897   3.709
10485TIP3   OH231399   1.276   7.521   2.111
10485TIP3    H131400   1.226   7.443   2.135
10485TIP3    H231401   1.272   7.523   2.015
10486TIP3   OH231402   5.720   1.925   1.948
10486TIP3    H131403   5.787   1.952   1.886
10486TIP3    H231404   5.644   1.980   1.927
10487TIP3   OH231405   8.192   1.000   2.890
10487TIP3    H131406   8.134   1.057   2.940
10487TIP3    H231407   8.145   0.917   2.883
10488TIP3   OH231408   3.040   2.215   5.843
10488TIP3    H131409   3.128   2.207   5.805
10488TIP3    H231410   3.056   2.224   5.937
10489TIP3   OH231411   0.267   6.576   2.255
10489TIP3    H131412   0.259   6.587   2.160
10489TIP3    H231413   0.225   6.492   2.272
10490TIP3   OH231414   7.317   4.150   3.038
10490TIP3    H131415   7.276   4.064   3.036
10490TIP3    H231416   7.401   4.138   2.993
10491TIP3   OH231417   2.257   6.400   0.289
10491TIP3    H131418   2.182   6.417   0.346
10491TIP3    H231419   2.240   6.453   0.211
10492TIP3   OH231420   3.848   1.494   5.831
10492TIP3    H131421   3.767   1.532   5.866
10492TIP3    H231422   3.916   1.559   5.851
10493TIP3   OH231423   2.440   1.656   0.778
10493TIP3    H131424   2.388   1.695   0.848
10493TIP3    H231425   2.465   1.730   0.723
10494TIP3   OH231426   5.401   6.862   1.138
10494TIP3    H131427   5.406   6.789   1.199
10494TIP3    H231428   5.406   6.821   1.052
10495TIP3   OH231429   1.379   0.078   1.719
10495TIP3    H131430   1.310   0.068   1.654
10495TIP3    H231431   1.406   0.169   1.712
10496TIP3   OH231432   5.458   0.586   2.304
10496TIP3    H131433   5.446   0.497   2.269
10496TIP3    H231434   5.553   0.600   2.302
10497TIP3   OH231435   3.535   1.551   0.830
10497TIP3    H131436   3.473   1.540   0.758
10497TIP3    H231437   3.587   1.470   0.829
10498TIP3   OH231438   4.976   0.169   6.821
10498TIP3    H131439   4.985   0.263   6.806
10498TIP3    H231440   4.929   0.137   6.744
10499TIP3   OH231441   2.610   5.938  -0.009
10499TIP3    H131442   2.618   5.851   0.031
10499TIP3    H231443   2.608   5.998   0.065
10500TIP3   OH231444   4.110   4.538   6.565
10500TIP3    H131445   4.159   4.602   6.617
10500TIP3    H231446   4.085   4.470   6.628
10501TIP3   OH231447   0.661   2.730   1.763
10501TIP3    H131448   0.754   2.750   1.769
10501TIP3    H231449   0.630   2.733   1.853
10502TIP3   OH231450   1.162   5.749   1.134
10502TIP3    H131451   1.175   5.658   1.105
10502TIP3    H231452   1.097   5.784   1.073
10503TIP3   OH231453   5.806   7.813   2.382
10503TIP3    H131454   5.900   7.797   2.386
10503TIP3    H231455   5.798   7.909   2.378
10504TIP3   OH231456   8.184   6.056   6.351
10504TIP3    H131457   8.158   6.113   6.278
10504TIP3    H231458   8.259   6.102   6.390
10505TIP3   OH231459   2.181   1.672   5.942
10505TIP3    H131460   2.260   1.618   5.932
10505TIP3    H231461   2.174   1.718   5.858
10506TIP3   OH231462   6.625   2.242   1.547
10506TIP3    H131463   6.582   2.326   1.567
10506TIP3    H231464   6.696   2.236   1.612
10507TIP3   OH231465   5.904   2.168   5.749
10507TIP3    H131466   5.844   2.095   5.755
10507TIP3    H231467   5.967   2.142   5.681
10508TIP3   OH231468   2.986   0.320   6.757
10508TIP3    H131469   2.915   0.293   6.814
10508TIP3    H231470   3.013   0.240   6.711
10509TIP3   OH231471   2.611   5.628   1.744
10509TIP3    H131472   2.562   5.702   1.709
10509TIP3    H231473   2.566   5.605   1.826
10510TIP3   OH231474   5.469   2.988   1.856
10510TIP3    H131475   5.557   3.001   1.893
10510TIP3    H231476   5.475   2.903   1.811
10511TIP3   OH231477   7.094   0.925   1.631
10511TIP3    H131478   7.031   0.979   1.584
10511TIP3    H231479   7.158   0.987   1.666
10512TIP3   OH231480   3.750   0.055   0.717
10512TIP3    H131481   3.836   0.095   0.704
10512TIP3    H231482   3.748  -0.019   0.656
10513TIP3   OH231483   1.498   3.396   2.530
10513TIP3    H131484   1.492   3.462   2.599
10513TIP3    H231485   1.410   3.359   2.526
10514TIP3   OH231486   3.576   0.773   2.988
10514TIP3    H131487   3.613   0.859   3.009
10514TIP3    H231488   3.617   0.713   3.050
10515TIP3   OH231489   2.481   1.719   2.417
10515TIP3    H131490   2.477   1.625   2.401
10515TIP3    H231491   2.509   1.756   2.334
10516TIP3   OH231492   5.510   7.753   0.139
10516TIP3    H131493   5.422   7.762   0.175
10516TIP3    H231494   5.510   7.808   0.060
10517TIP3   OH231495   1.188   1.925  -0.039
10517TIP3    H131496   1.164   2.018  -0.045
10517TIP3    H231497   1.105   1.880  -0.028
10518TIP3   OH231498   8.009   3.396   0.516
10518TIP3    H131499   8.045   3.465   0.461
10518TIP3    H231500   7.973   3.332   0.454
10519TIP3   OH231501   2.096   4.556   4.587
10519TIP3    H131502   2.002   4.544   4.575
10519TIP3    H231503   2.105   4.601   4.671
10520TIP3   OH231504   0.618   5.580   1.822
10520TIP3    H131505   0.617   5.535   1.738
10520TIP3    H231506   0.527   5.606   1.837
10521TIP3   OH231507   1.624   5.572   5.658
10521TIP3    H131508   1.630   5.605   5.748
10521TIP3    H231509   1.618   5.651   5.604
10522TIP3   OH231510   6.389   5.989   3.326
10522TIP3    H131511   6.431   6.063   3.371
10522TIP3    H231512   6.397   6.010   3.233
10523TIP3   OH231513   2.930   6.325   5.993
10523TIP3    H131514   2.984   6.247   6.002
10523TIP3    H231515   2.978   6.381   5.932
10524TIP3   OH231516   4.735   7.273   4.599
10524TIP3    H131517   4.789   7.252   4.675
10524TIP3    H231518   4.776   7.352   4.562
10525TIP3   OH231519   1.353   0.635   3.022
10525TIP3    H131520   1.439   0.595   3.040
10525TIP3    H231521   1.369   0.729   3.026
10526TIP3   OH231522   5.369   4.973   3.249
10526TIP3    H131523   5.417   4.904   3.203
10526TIP3    H231524   5.296   4.995   3.191
10527TIP3   OH231525   7.112   0.721   2.177
10527TIP3    H131526   7.031   0.759   2.143
10527TIP3    H231527   7.083   0.646   2.230
10528TIP3   OH231528   3.647   2.166   3.561
10528TIP3    H131529   3.686   2.150   3.475
10528TIP3    H231530   3.711   2.134   3.624
10529TIP3   OH231531   3.540   3.234   5.784
10529TIP3    H131532   3.594   3.267   5.856
10529TIP3    H231533   3.452   3.230   5.820
10530TIP3   OH231534  -0.045   1.564   6.489
10530TIP3    H131535   0.002   1.643   6.464
10530TIP3    H231536  -0.032   1.557   6.584
10531TIP3   OH231537   4.356   2.653   6.688
10531TIP3    H131538   4.417   2.599   6.739
10531TIP3    H231539   4.408   2.683   6.613
10532TIP3   OH231540   6.962   6.664   5.336
10532TIP3    H131541   7.002   6.722   5.271
10532TIP3    H231542   6.973   6.576   5.300
10533TIP3   OH231543   5.609   0.330   5.407
10533TIP3    H131544   5.624   0.419   5.438
10533TIP3    H231545   5.533   0.299   5.456
10534TIP3   OH231546   7.230   0.300   3.432
10534TIP3    H131547   7.162   0.239   3.404
10534TIP3    H231548   7.187   0.385   3.431
10535TIP3   OH231549   2.610   6.774   4.714
10535TIP3    H131550   2.695   6.731   4.726
10535TIP3    H231551   2.585   6.802   4.802
10536TIP3   OH231552   7.769   4.754   4.001
10536TIP3    H131553   7.680   4.719   3.992
10536TIP3    H231554   7.789   4.745   4.094
10537TIP3   OH231555   2.928   4.209   6.319
10537TIP3    H131556   2.863   4.277   6.305
10537TIP3    H231557   2.884   4.128   6.295
10538TIP3   OH231558   4.993   4.630   0.223
10538TIP3    H131559   4.984   4.654   0.315
10538TIP3    H231560   4.959   4.705   0.175
10539TIP3   OH231561   7.361   4.899   4.876
10539TIP3    H131562   7.435   4.922   4.820
10539TIP3    H231563   7.345   4.806   4.857
10540TIP3   OH231564   4.511   3.142   0.526
10540TIP3    H131565   4.502   3.051   0.496
10540TIP3    H231566   4.587   3.175   0.479
10541TIP3   OH231567   1.884   0.979   1.253
10541TIP3    H131568   1.878   0.994   1.347
10541TIP3    H231569   1.796   0.995   1.220
10542TIP3   OH231570   4.195   0.782   6.650
10542TIP3    H131571   4.178   0.731   6.571
10542TIP3    H231572   4.265   0.734   6.695
10543TIP3   OH231573   2.352   0.378   6.573
10543TIP3    H131574   2.266   0.337   6.585
10543TIP3    H231575   2.407   0.338   6.641
10544TIP3   OH231576   2.771   2.882   1.606
10544TIP3    H131577   2.800   2.915   1.691
10544TIP3    H231578   2.812   2.796   1.598
10545TIP3   OH231579   4.322   2.641   3.774
10545TIP3    H131580   4.379   2.715   3.753
10545TIP3    H231581   4.275   2.668   3.852
10546TIP3   OH231582   0.650   5.553   5.645
10546TIP3    H131583   0.656   5.458   5.658
10546TIP3    H231584   0.629   5.588   5.731
10547TIP3   OH231585   6.161   0.292   1.112
10547TIP3    H131586   6.078   0.315   1.071
10547TIP3    H231587   6.164   0.196   1.109
10548TIP3   OH231588   8.063   3.981   4.803
10548TIP3    H131589   7.998   3.921   4.838
10548TIP3    H231590   8.015   4.034   4.739
10549TIP3   OH231591   7.851   4.865   3.108
10549TIP3    H131592   7.767   4.859   3.153
10549TIP3    H231593   7.886   4.951   3.133
10550TIP3   OH231594   6.447   0.704   3.957
10550TIP3    H131595   6.487   0.617   3.950
10550TIP3    H231596   6.381   0.706   3.888
10551TIP3   OH231597   5.828   1.784   0.829
10551TIP3    H131598   5.733   1.783   0.827
10551TIP3    H231599   5.852   1.722   0.897
10552TIP3   OH231600   6.123   1.904   5.966
10552TIP3    H131601   6.126   1.895   5.871
10552TIP3    H231602   6.108   1.998   5.981
10553TIP3   OH231603   1.385   7.730   6.453
10553TIP3    H131604   1.372   7.646   6.499
10553TIP3    H231605   1.337   7.793   6.506
10554TIP3   OH231606   3.677   5.095   3.434
10554TIP3    H131607   3.597   5.137   3.467
10554TIP3    H231608   3.740   5.105   3.506
10555TIP3   OH231609   7.290   7.756   2.056
10555TIP3    H131610   7.318   7.670   2.023
10555TIP3    H231611   7.215   7.780   2.001
10556TIP3   OH231612   7.250   6.833   0.185
10556TIP3    H131613   7.154   6.832   0.191
10556TIP3    H231614   7.272   6.926   0.181
10557TIP3   OH231615   5.276   7.650   0.324
10557TIP3    H131616   5.344   7.680   0.384
10557TIP3    H231617   5.199   7.639   0.379
10558TIP3   OH231618   6.035   1.744   2.115
10558TIP3    H131619   5.950   1.720   2.079
10558TIP3    H231620   6.098   1.717   2.049
10559TIP3   OH231621   4.006   3.048   5.156
10559TIP3    H131622   4.050   2.975   5.200
10559TIP3    H231623   4.001   3.116   5.223
10560TIP3   OH231624   1.432   4.882   1.546
10560TIP3    H131625   1.435   4.804   1.602
10560TIP3    H231626   1.340   4.892   1.523
10561TIP3   OH231627   7.729   7.584   2.930
10561TIP3    H131628   7.765   7.596   3.018
10561TIP3    H231629   7.774   7.651   2.877
10562TIP3   OH231630   3.918   4.672   3.330
10562TIP3    H131631   3.863   4.664   3.251
10562TIP3    H231632   3.931   4.581   3.358
10563TIP3   OH231633   5.605   1.470   3.224
10563TIP3    H131634   5.642   1.508   3.303
10563TIP3    H231635   5.634   1.379   3.225
10564TIP3   OH231636   6.530   0.533   1.011
10564TIP3    H131637   6.481   0.611   0.985
10564TIP3    H231638   6.469   0.460   0.998
10565TIP3   OH231639   1.080   7.669   3.415
10565TIP3    H131640   1.127   7.727   3.475
10565TIP3    H231641   1.003   7.719   3.389
10566TIP3   OH231642   5.996   3.033   3.792
10566TIP3    H131643   5.942   2.955   3.808
10566TIP3    H231644   6.078   2.999   3.757
10567TIP3   OH231645   5.137   6.251   5.041
10567TIP3    H131646   5.161   6.341   5.019
10567TIP3    H231647   5.212   6.198   5.014
10568TIP3   OH231648   1.089   6.118   5.108
10568TIP3    H131649   0.993   6.115   5.113
10568TIP3    H231650   1.113   6.190   5.165
10569TIP3   OH231651   3.002   4.586   2.794
10569TIP3    H131652   2.998   4.610   2.886
10569TIP3    H231653   2.926   4.531   2.780
10570TIP3   OH231654   4.911   5.161   0.759
10570TIP3    H131655   4.950   5.173   0.673
10570TIP3    H231656   4.842   5.096   0.745
10571TIP3   OH231657   0.683   4.032   2.082
10571TIP3    H131658   0.731   3.952   2.062
10571TIP3    H231659   0.600   4.022   2.036
10572TIP3   OH231660   7.580   6.507   3.451
10572TIP3    H131661   7.553   6.415   3.460
10572TIP3    H231662   7.603   6.534   3.540
10573TIP3   OH231663   1.433   7.640   1.694
10573TIP3    H131664   1.351   7.633   1.744
10573TIP3    H231665   1.482   7.561   1.718
10574TIP3   OH231666   3.064   6.685   2.440
10574TIP3    H131667   2.973   6.711   2.453
10574TIP3    H231668   3.113   6.739   2.501
10575TIP3   OH231669   0.122   2.333   4.291
10575TIP3    H131670   0.133   2.269   4.221
10575TIP3    H231671   0.105   2.416   4.245
10576TIP3   OH231672   5.895   0.963   5.727
10576TIP3    H131673   5.888   0.889   5.788
10576TIP3    H231674   5.845   0.935   5.650
10577TIP3   OH231675   6.568   2.809   5.065
10577TIP3    H131676   6.561   2.777   4.975
10577TIP3    H231677   6.629   2.749   5.108
10578TIP3   OH231678   5.138   2.200   0.800
10578TIP3    H131679   5.200   2.225   0.732
10578TIP3    H231680   5.079   2.275   0.808
10579TIP3   OH231681   3.720   0.693   5.244
10579TIP3    H131682   3.670   0.706   5.163
10579TIP3    H231683   3.680   0.617   5.286
10580TIP3   OH231684   0.351   0.470   1.243
10580TIP3    H131685   0.274   0.521   1.220
10580TIP3    H231686   0.340   0.450   1.336
10581TIP3   OH231687   1.196   6.966   1.428
10581TIP3    H131688   1.121   6.907   1.422
10581TIP3    H231689   1.269   6.916   1.392
10582TIP3   OH231690   5.974   4.057   4.595
10582TIP3    H131691   5.879   4.063   4.604
10582TIP3    H231692   6.005   4.037   4.683
10583TIP3   OH231693   3.533   4.340   1.043
10583TIP3    H131694   3.494   4.427   1.039
10583TIP3    H231695   3.627   4.355   1.043
10584TIP3   OH231696   1.317   3.785   1.921
10584TIP3    H131697   1.253   3.727   1.880
10584TIP3    H231698   1.298   3.871   1.884
10585TIP3   OH231699   2.262   6.245   2.181
10585TIP3    H131700   2.345   6.198   2.183
10585TIP3    H231701   2.206   6.198   2.243
10586TIP3   OH231702   5.772   1.103   6.561
10586TIP3    H131703   5.735   1.111   6.649
10586TIP3    H231704   5.718   1.037   6.518
10587TIP3   OH231705   1.466   6.630   5.920
10587TIP3    H131706   1.401   6.581   5.871
10587TIP3    H231707   1.550   6.607   5.879
10588TIP3   OH231708   0.674   7.487   0.077
10588TIP3    H131709   0.586   7.451   0.075
10588TIP3    H231710   0.696   7.500  -0.016
10589TIP3   OH231711   0.750   5.657   4.642
10589TIP3    H131712   0.799   5.654   4.724
10589TIP3    H231713   0.761   5.569   4.605
10590TIP3   OH231714   7.168   4.467   1.103
10590TIP3    H131715   7.073   4.472   1.115
10590TIP3    H231716   7.179   4.419   1.021
10591TIP3   OH231717   2.747   6.011   1.128
10591TIP3    H131718   2.718   5.968   1.208
10591TIP3    H231719   2.842   6.017   1.136
10592TIP3   OH231720   1.085   3.142   1.531
10592TIP3    H131721   1.015   3.150   1.467
10592TIP3    H231722   1.057   3.196   1.605
10593TIP3   OH231723   7.705   5.019   3.307
10593TIP3    H131724   7.642   4.949   3.291
10593TIP3    H231725   7.662   5.076   3.371
10594TIP3   OH231726   4.233   4.365   1.682
10594TIP3    H131727   4.293   4.431   1.714
10594TIP3    H231728   4.146   4.403   1.693
10595TIP3   OH231729   5.379   4.452   2.171
10595TIP3    H131730   5.391   4.375   2.114
10595TIP3    H231731   5.294   4.437   2.213
10596TIP3   OH231732   5.157   5.532   5.431
10596TIP3    H131733   5.240   5.506   5.470
10596TIP3    H231734   5.156   5.628   5.438
10597TIP3   OH231735   8.185   6.981   1.044
10597TIP3    H131736   8.232   6.946   1.120
10597TIP3    H231737   8.216   7.071   1.036
10598TIP3   OH231738   6.595   0.036   1.355
10598TIP3    H131739   6.660  -0.030   1.330
10598TIP3    H231740   6.646   0.106   1.396
10599TIP3   OH231741   2.245   6.850   6.785
10599TIP3    H131742   2.286   6.933   6.758
10599TIP3    H231743   2.314   6.785   6.772
10600TIP3   OH231744   3.934   1.498   4.202
10600TIP3    H131745   3.941   1.552   4.280
10600TIP3    H231746   3.865   1.434   4.223
10601TIP3   OH231747   1.236   5.353   1.631
10601TIP3    H131748   1.199   5.394   1.553
10601TIP3    H231749   1.328   5.337   1.609
10602TIP3   OH231750   0.551   5.120   2.649
10602TIP3    H131751   0.457   5.117   2.631
10602TIP3    H231752   0.558   5.095   2.741
10603TIP3   OH231753   6.919   6.413   6.563
10603TIP3    H131754   6.895   6.484   6.622
10603TIP3    H231755   6.970   6.353   6.618
10604TIP3   OH231756   1.095   0.440   4.622
10604TIP3    H131757   1.042   0.366   4.651
10604TIP3    H231758   1.041   0.517   4.636
10605TIP3   OH231759   6.658   0.843   1.309
10605TIP3    H131760   6.697   0.878   1.389
10605TIP3    H231761   6.732   0.819   1.255
10606TIP3   OH231762   1.017   4.985   3.397
10606TIP3    H131763   0.985   5.073   3.377
10606TIP3    H231764   0.963   4.928   3.342
10607TIP3   OH231765   4.312   3.466   2.461
10607TIP3    H131766   4.335   3.555   2.434
10607TIP3    H231767   4.224   3.453   2.425
10608TIP3   OH231768   7.862   7.033   4.675
10608TIP3    H131769   7.954   7.008   4.672
10608TIP3    H231770   7.860   7.114   4.725
10609TIP3   OH231771   6.505   0.877   3.573
10609TIP3    H131772   6.469   0.965   3.579
10609TIP3    H231773   6.579   0.877   3.634
10610TIP3   OH231774   6.849   6.096   6.540
10610TIP3    H131775   6.939   6.127   6.534
10610TIP3    H231776   6.799   6.173   6.568
10611TIP3   OH231777   3.326   4.445   0.761
10611TIP3    H131778   3.362   4.360   0.784
10611TIP3    H231779   3.260   4.427   0.694
10612TIP3   OH231780   4.626   0.196   5.219
10612TIP3    H131781   4.644   0.280   5.261
10612TIP3    H231782   4.535   0.202   5.191
10613TIP3   OH231783   4.131   3.497   6.731
10613TIP3    H131784   4.160   3.407   6.744
10613TIP3    H231785   4.119   3.531   6.820
10614TIP3   OH231786   6.035   6.472   0.793
10614TIP3    H131787   6.046   6.378   0.776
10614TIP3    H231788   6.082   6.488   0.874
10615TIP3   OH231789   5.678   5.744   0.723
10615TIP3    H131790   5.729   5.700   0.654
10615TIP3    H231791   5.738   5.809   0.759
10616TIP3   OH231792   4.144   7.372   1.599
10616TIP3    H131793   4.132   7.302   1.535
10616TIP3    H231794   4.220   7.421   1.567
10617TIP3   OH231795   0.180   5.620   4.569
10617TIP3    H131796   0.203   5.547   4.512
10617TIP3    H231797   0.250   5.621   4.635
10618TIP3   OH231798   0.841   4.039   1.237
10618TIP3    H131799   0.746   4.033   1.229
10618TIP3    H231800   0.856   4.073   1.325
10619TIP3   OH231801   4.105   5.106   0.453
10619TIP3    H131802   4.019   5.069   0.474
10619TIP3    H231803   4.096   5.200   0.472
10620TIP3   OH231804   5.924   5.295   0.685
10620TIP3    H131805   5.852   5.294   0.622
10620TIP3    H231806   5.917   5.380   0.728
10621TIP3   OH231807   1.559   0.520   6.511
10621TIP3    H131808   1.486   0.531   6.571
10621TIP3    H231809   1.538   0.576   6.437
10622TIP3   OH231810   3.258   6.868   3.773
10622TIP3    H131811   3.316   6.938   3.803
10622TIP3    H231812   3.308   6.824   3.704
10623TIP3   OH231813   2.307   3.724   3.465
10623TIP3    H131814   2.271   3.638   3.443
10623TIP3    H231815   2.281   3.780   3.392
10624TIP3   OH231816   5.114   2.436   6.438
10624TIP3    H131817   5.174   2.376   6.482
10624TIP3    H231818   5.146   2.442   6.348
10625TIP3   OH231819   8.192   1.707   3.175
10625TIP3    H131820   8.223   1.625   3.215
10625TIP3    H231821   8.110   1.683   3.132
10626TIP3   OH231822   4.674   3.429   3.378
10626TIP3    H131823   4.621   3.389   3.447
10626TIP3    H231824   4.647   3.384   3.298
10627TIP3   OH231825   4.266   4.191   2.016
10627TIP3    H131826   4.349   4.237   2.016
10627TIP3    H231827   4.286   4.105   1.977
10628TIP3   OH231828   8.082   6.796   5.506
10628TIP3    H131829   7.998   6.833   5.481
10628TIP3    H231830   8.082   6.708   5.468
10629TIP3   OH231831   6.076   4.893   4.086
10629TIP3    H131832   6.121   4.820   4.128
10629TIP3    H231833   5.989   4.858   4.066
10630TIP3   OH231834   1.157   0.052   6.107
10630TIP3    H131835   1.136   0.143   6.090
10630TIP3    H231836   1.098   0.026   6.178
10631TIP3   OH231837   1.537   6.159   0.850
10631TIP3    H131838   1.603   6.224   0.875
10631TIP3    H231839   1.466   6.211   0.813
10632TIP3   OH231840   1.557   3.321   4.136
10632TIP3    H131841   1.525   3.250   4.081
10632TIP3    H231842   1.498   3.321   4.212
10633TIP3   OH231843   2.538   6.458   4.588
10633TIP3    H131844   2.612   6.408   4.624
10633TIP3    H231845   2.480   6.391   4.551
10634TIP3   OH231846   0.947   7.740   6.097
10634TIP3    H131847   1.036   7.762   6.124
10634TIP3    H231848   0.894   7.814   6.125
10635TIP3   OH231849   6.623   3.196   5.561
10635TIP3    H131850   6.533   3.165   5.553
10635TIP3    H231851   6.640   3.200   5.655
10636TIP3   OH231852   4.208   2.204   0.955
10636TIP3    H131853   4.279   2.140   0.967
10636TIP3    H231854   4.241   2.264   0.889
10637TIP3   OH231855   0.623   7.583   3.076
10637TIP3    H131856   0.603   7.614   2.988
10637TIP3    H231857   0.716   7.602   3.088
10638TIP3   OH231858   6.385   4.938   4.864
10638TIP3    H131859   6.404   4.873   4.797
10638TIP3    H231860   6.471   4.966   4.896
10639TIP3   OH231861   0.669   4.196   2.305
10639TIP3    H131862   0.645   4.278   2.263
10639TIP3    H231863   0.678   4.133   2.233
10640TIP3   OH231864   1.664   7.777   1.666
10640TIP3    H131865   1.688   7.771   1.759
10640TIP3    H231866   1.582   7.728   1.659
10641TIP3   OH231867   7.809   3.479   0.262
10641TIP3    H131868   7.881   3.419   0.247
10641TIP3    H231869   7.805   3.533   0.183
10642TIP3   OH231870   6.433   2.481   1.236
10642TIP3    H131871   6.418   2.390   1.212
10642TIP3    H231872   6.467   2.522   1.156
10643TIP3   OH231873   5.874   2.343   0.818
10643TIP3    H131874   5.824   2.418   0.786
10643TIP3    H231875   5.934   2.380   0.882
10644TIP3   OH231876   4.541   0.203   0.650
10644TIP3    H131877   4.633   0.206   0.624
10644TIP3    H231878   4.528   0.114   0.685
10645TIP3   OH231879   7.583   2.301   6.410
10645TIP3    H131880   7.650   2.357   6.449
10645TIP3    H231881   7.558   2.346   6.329
10646TIP3   OH231882   3.983   6.761   2.581
10646TIP3    H131883   3.897   6.728   2.553
10646TIP3    H231884   3.988   6.849   2.543
10647TIP3   OH231885   2.876   3.872   4.126
10647TIP3    H131886   2.871   3.966   4.140
10647TIP3    H231887   2.843   3.833   4.207
10648TIP3   OH231888   5.681   1.593   2.548
10648TIP3    H131889   5.750   1.527   2.544
10648TIP3    H231890   5.666   1.607   2.642
10649TIP3   OH231891   6.093   2.047   5.295
10649TIP3    H131892   6.132   1.995   5.366
10649TIP3    H231893   6.027   2.100   5.339
10650TIP3   OH231894   0.408   1.421   4.521
10650TIP3    H131895   0.386   1.345   4.468
10650TIP3    H231896   0.489   1.454   4.483
10651TIP3   OH231897   0.709   3.419   3.818
10651TIP3    H131898   0.625   3.440   3.859
10651TIP3    H231899   0.689   3.405   3.726
10652TIP3   OH231900   2.545   5.613   4.964
10652TIP3    H131901   2.577   5.645   4.880
10652TIP3    H231902   2.542   5.518   4.954
10653TIP3   OH231903   6.151   1.686   0.848
10653TIP3    H131904   6.121   1.680   0.758
10653TIP3    H231905   6.080   1.648   0.900
10654TIP3   OH231906   0.292   1.680   1.744
10654TIP3    H131907   0.348   1.613   1.704
10654TIP3    H231908   0.318   1.681   1.836
10655TIP3   OH231909   0.035   0.219   0.150
10655TIP3    H131910   0.121   0.254   0.171
10655TIP3    H231911  -0.024   0.295   0.154
10656TIP3   OH231912   5.810   7.573   2.173
10656TIP3    H131913   5.816   7.668   2.183
10656TIP3    H231914   5.744   7.546   2.237
10657TIP3   OH231915   1.715   3.197   6.701
10657TIP3    H131916   1.728   3.221   6.793
10657TIP3    H231917   1.760   3.266   6.652
10658TIP3   OH231918   4.409   6.445   0.039
10658TIP3    H131919   4.491   6.396   0.029
10658TIP3    H231920   4.395   6.448   0.134
10659TIP3   OH231921   1.091   1.998   0.315
10659TIP3    H131922   1.120   2.075   0.267
10659TIP3    H231923   0.995   1.997   0.304
10660TIP3   OH231924   6.235   6.713   0.693
10660TIP3    H131925   6.182   6.745   0.766
10660TIP3    H231926   6.179   6.722   0.616
10661TIP3   OH231927   5.142   2.756   4.777
10661TIP3    H131928   5.156   2.831   4.835
10661TIP3    H231929   5.062   2.779   4.728
10662TIP3   OH231930   0.338   7.179   6.030
10662TIP3    H131931   0.399   7.251   6.048
10662TIP3    H231932   0.258   7.203   6.077
10663TIP3   OH231933   1.205   0.346   1.411
10663TIP3    H131934   1.170   0.408   1.347
10663TIP3    H231935   1.188   0.386   1.496
10664TIP3   OH231936   1.946   4.710   5.711
10664TIP3    H131937   2.029   4.756   5.698
10664TIP3    H231938   1.968   4.637   5.768
10665TIP3   OH231939   2.406   3.105   2.184
10665TIP3    H131940   2.401   3.160   2.106
10665TIP3    H231941   2.459   3.030   2.158
10666TIP3   OH231942   3.877   7.453   0.748
10666TIP3    H131943   3.785   7.432   0.738
10666TIP3    H231944   3.882   7.502   0.830
10667TIP3   OH231945   4.579   4.678   4.260
10667TIP3    H131946   4.589   4.771   4.278
10667TIP3    H231947   4.615   4.635   4.338
10668TIP3   OH231948   4.573   3.662   4.347
10668TIP3    H131949   4.649   3.655   4.288
10668TIP3    H231950   4.501   3.687   4.290
10669TIP3   OH231951   7.777   6.551   5.631
10669TIP3    H131952   7.812   6.640   5.632
10669TIP3    H231953   7.682   6.563   5.644
10670TIP3   OH231954   4.038   6.841   6.470
10670TIP3    H131955   4.066   6.914   6.415
10670TIP3    H231956   3.947   6.861   6.491
10671TIP3   OH231957   6.873   7.583   0.443
10671TIP3    H131958   6.941   7.638   0.481
10671TIP3    H231959   6.804   7.581   0.509
10672TIP3   OH231960   3.583   6.968   1.385
10672TIP3    H131961   3.652   6.905   1.401
10672TIP3    H231962   3.511   6.917   1.347
10673TIP3   OH231963   0.503   6.570   3.617
10673TIP3    H131964   0.539   6.505   3.678
10673TIP3    H231965   0.412   6.545   3.605
10674TIP3   OH231966   2.564   6.627   5.032
10674TIP3    H131967   2.577   6.542   4.990
10674TIP3    H231968   2.495   6.612   5.096
10675TIP3   OH231969   0.480   6.789   4.313
10675TIP3    H131970   0.554   6.749   4.357
10675TIP3    H231971   0.495   6.883   4.320
10676TIP3   OH231972   6.885   0.142   1.404
10676TIP3    H131973   6.901   0.064   1.458
10676TIP3    H231974   6.823   0.194   1.455
10677TIP3   OH231975   6.783   7.545   1.458
10677TIP3    H131976   6.846   7.594   1.406
10677TIP3    H231977   6.710   7.605   1.470
10678TIP3   OH231978   6.534   6.615   3.730
10678TIP3    H131979   6.569   6.530   3.703
10678TIP3    H231980   6.611   6.666   3.755
10679TIP3   OH231981   6.313   4.693   4.686
10679TIP3    H131982   6.326   4.723   4.596
10679TIP3    H231983   6.218   4.683   4.694
10680TIP3   OH231984   6.544   4.739   3.458
10680TIP3    H131985   6.552   4.793   3.379
10680TIP3    H231986   6.634   4.716   3.481
10681TIP3   OH231987   3.413   5.864   1.128
10681TIP3    H131988   3.427   5.926   1.056
10681TIP3    H231989   3.493   5.811   1.129
10682TIP3   OH231990   0.951   6.937   6.191
10682TIP3    H131991   0.886   6.898   6.132
10682TIP3    H231992   0.932   7.030   6.190
10683TIP3   OH231993   4.831   6.213   1.554
10683TIP3    H131994   4.924   6.207   1.576
10683TIP3    H231995   4.816   6.143   1.492
10684TIP3   OH231996   4.376   1.003   5.337
10684TIP3    H131997   4.442   0.951   5.383
10684TIP3    H231998   4.426   1.070   5.291
10685TIP3   OH231999   2.462   2.962   4.666
10685TIP3    H132000   2.373   2.994   4.672
10685TIP3    H232001   2.453   2.866   4.670
10686TIP3   OH232002   7.852   2.586   0.802
10686TIP3    H132003   7.932   2.629   0.833
10686TIP3    H232004   7.815   2.545   0.879
10687TIP3   OH232005   4.405   0.932   6.041
10687TIP3    H132006   4.392   0.873   5.967
10687TIP3    H232007   4.354   0.893   6.112
10688TIP3   OH232008   0.487   4.742   0.251
10688TIP3    H132009   0.510   4.790   0.331
10688TIP3    H232010   0.393   4.729   0.257
10689TIP3   OH232011   1.012   1.941   1.908
10689TIP3    H132012   0.977   1.936   1.819
10689TIP3    H232013   0.934   1.942   1.964
10690TIP3   OH232014   2.125   7.034   5.407
10690TIP3    H132015   2.220   7.034   5.399
10690TIP3    H232016   2.105   7.112   5.458
10691TIP3   OH232017   3.469   2.948   0.094
10691TIP3    H132018   3.423   2.865   0.107
10691TIP3    H232019   3.400   3.009   0.069
10692TIP3   OH232020   6.751   0.050   3.621
10692TIP3    H132021   6.773   0.142   3.635
10692TIP3    H232022   6.674   0.034   3.676
10693TIP3   OH232023   6.511   3.388   6.050
10693TIP3    H132024   6.549   3.356   6.132
10693TIP3    H232025   6.562   3.467   6.030
10694TIP3   OH232026   7.333   0.074   6.178
10694TIP3    H132027   7.371   0.068   6.091
10694TIP3    H232028   7.239   0.079   6.163
10695TIP3   OH232029   2.977   0.146   5.085
10695TIP3    H132030   2.951   0.131   5.176
10695TIP3    H232031   2.925   0.223   5.059
10696TIP3   OH232032   7.789   5.903   6.032
10696TIP3    H132033   7.800   5.835   5.965
10696TIP3    H232034   7.851   5.972   6.005
10697TIP3   OH232035   2.896   1.476   2.865
10697TIP3    H132036   2.927   1.566   2.853
10697TIP3    H232037   2.972   1.428   2.898
10698TIP3   OH232038   2.734   0.050   2.885
10698TIP3    H132039   2.667   0.046   2.953
10698TIP3    H232040   2.759   0.142   2.881
10699TIP3   OH232041   5.031   6.398   3.552
10699TIP3    H132042   5.008   6.328   3.492
10699TIP3    H232043   5.091   6.454   3.503
10700TIP3   OH232044   2.661   5.379   0.764
10700TIP3    H132045   2.688   5.332   0.685
10700TIP3    H232046   2.741   5.419   0.797
10701TIP3   OH232047   2.651   0.992   4.563
10701TIP3    H132048   2.716   1.030   4.504
10701TIP3    H232049   2.569   1.036   4.540
10702TIP3   OH232050   7.868   3.026   5.538
10702TIP3    H132051   7.855   3.100   5.598
10702TIP3    H232052   7.829   3.055   5.456
10703TIP3   OH232053   4.782   3.891   6.037
10703TIP3    H132054   4.764   3.860   6.125
10703TIP3    H232055   4.816   3.979   6.048
10704TIP3   OH232056   6.491   3.890   2.355
10704TIP3    H132057   6.439   3.905   2.433
10704TIP3    H232058   6.461   3.806   2.321
10705TIP3   OH232059   2.320   2.780   4.448
10705TIP3    H132060   2.258   2.838   4.402
10705TIP3    H232061   2.404   2.795   4.405
10706TIP3   OH232062   6.172   2.471   3.396
10706TIP3    H132063   6.258   2.428   3.393
10706TIP3    H232064   6.144   2.460   3.487
10707TIP3   OH232065   5.274   4.469   3.622
10707TIP3    H132066   5.224   4.550   3.610
10707TIP3    H232067   5.298   4.443   3.533
10708TIP3   OH232068   0.007   1.671   3.735
10708TIP3    H132069   0.020   1.766   3.727
10708TIP3    H232070   0.085   1.640   3.782
10709TIP3   OH232071   7.858   6.910   3.557
10709TIP3    H132072   7.804   6.840   3.520
10709TIP3    H232073   7.924   6.865   3.610
10710TIP3   OH232074   7.518   5.665   2.353
10710TIP3    H132075   7.510   5.757   2.329
10710TIP3    H232076   7.439   5.624   2.317
10711TIP3   OH232077   3.443   1.704   0.051
10711TIP3    H132078   3.534   1.680   0.031
10711TIP3    H232079   3.407   1.628   0.097
10712TIP3   OH232080   7.995   0.526   1.803
10712TIP3    H132081   7.941   0.572   1.868
10712TIP3    H232082   7.938   0.517   1.727
10713TIP3   OH232083   3.106   3.709   1.490
10713TIP3    H132084   3.171   3.770   1.527
10713TIP3    H232085   3.150   3.624   1.491
10714TIP3   OH232086   5.331   2.304   6.573
10714TIP3    H132087   5.413   2.259   6.594
10714TIP3    H232088   5.327   2.376   6.637
10715TIP3   OH232089   0.631   3.969   2.508
10715TIP3    H132090   0.602   3.920   2.431
10715TIP3    H232091   0.659   4.054   2.475
10716TIP3   OH232092   4.860   6.352   4.951
10716TIP3    H132093   4.949   6.333   4.981
10716TIP3    H232094   4.840   6.281   4.890
10717TIP3   OH232095   5.998   4.101   5.378
10717TIP3    H132096   5.955   4.018   5.396
10717TIP3    H232097   6.001   4.107   5.282
10718TIP3   OH232098   4.755   2.543   2.005
10718TIP3    H132099   4.820   2.473   2.011
10718TIP3    H232100   4.749   2.562   1.912
10719TIP3   OH232101   6.204   3.873   4.505
10719TIP3    H132102   6.237   3.927   4.576
10719TIP3    H232103   6.109   3.873   4.518
10720TIP3   OH232104   3.220   5.801   2.538
10720TIP3    H132105   3.174   5.721   2.511
10720TIP3    H232106   3.243   5.786   2.630
10721TIP3   OH232107   2.399   7.237   5.507
10721TIP3    H132108   2.492   7.223   5.524
10721TIP3    H232109   2.396   7.318   5.455
10722TIP3   OH232110   4.689   5.912   1.253
10722TIP3    H132111   4.777   5.950   1.251
10722TIP3    H232112   4.632   5.984   1.281
10723TIP3   OH232113   0.435   1.530   1.282
10723TIP3    H132114   0.408   1.446   1.319
10723TIP3    H232115   0.402   1.595   1.343
10724TIP3   OH232116   7.388   4.036   1.687
10724TIP3    H132117   7.434   4.096   1.628
10724TIP3    H232118   7.306   4.017   1.642
10725TIP3   OH232119   7.934   6.520   3.904
10725TIP3    H132120   7.948   6.485   3.816
10725TIP3    H232121   8.019   6.557   3.928
10726TIP3   OH232122   3.120   6.988   1.100
10726TIP3    H132123   3.028   7.013   1.091
10726TIP3    H232124   3.132   6.973   1.194
10727TIP3   OH232125   6.154   7.385   4.061
10727TIP3    H132126   6.088   7.356   3.998
10727TIP3    H232127   6.237   7.358   4.023
10728TIP3   OH232128   3.890   1.304   3.416
10728TIP3    H132129   3.813   1.291   3.361
10728TIP3    H232130   3.861   1.363   3.485
10729TIP3   OH232131   2.339   1.118   1.963
10729TIP3    H132132   2.399   1.191   1.978
10729TIP3    H232133   2.328   1.115   1.868
10730TIP3   OH232134   4.278   1.740   4.650
10730TIP3    H132135   4.226   1.678   4.701
10730TIP3    H232136   4.353   1.689   4.618
10731TIP3   OH232137   3.975   4.390   4.215
10731TIP3    H132138   4.062   4.414   4.245
10731TIP3    H232139   3.936   4.343   4.288
10732TIP3   OH232140   1.316   1.495   3.236
10732TIP3    H132141   1.281   1.550   3.305
10732TIP3    H232142   1.407   1.479   3.261
10733TIP3   OH232143   3.107   0.651   5.087
10733TIP3    H132144   3.115   0.611   5.173
10733TIP3    H232145   3.196   0.650   5.052
10734TIP3   OH232146   4.230   7.116   3.440
10734TIP3    H132147   4.143   7.116   3.401
10734TIP3    H232148   4.226   7.051   3.510
10735TIP3   OH232149   5.760   5.241   1.396
10735TIP3    H132150   5.697   5.236   1.468
10735TIP3    H232151   5.709   5.271   1.321
10736TIP3   OH232152   2.437   5.682   2.783
10736TIP3    H132153   2.374   5.742   2.823
10736TIP3    H232154   2.499   5.740   2.737
10737TIP3   OH232155   6.912   3.095   5.499
10737TIP3    H132156   6.971   3.160   5.539
10737TIP3    H232157   6.829   3.142   5.488
10738TIP3   OH232158   5.367   5.922   3.418
10738TIP3    H132159   5.301   5.922   3.349
10738TIP3    H232160   5.450   5.915   3.373
10739TIP3   OH232161   7.810   6.260   1.871
10739TIP3    H132162   7.899   6.273   1.903
10739TIP3    H232163   7.761   6.333   1.909
10740TIP3   OH232164   4.592   6.255   1.677
10740TIP3    H132165   4.675   6.268   1.631
10740TIP3    H232166   4.606   6.295   1.763
10741TIP3   OH232167   3.537   3.111   2.382
10741TIP3    H132168   3.494   3.069   2.308
10741TIP3    H232169   3.570   3.039   2.435
10742TIP3   OH232170   1.809   4.374   5.839
10742TIP3    H132171   1.783   4.282   5.849
10742TIP3    H232172   1.741   4.422   5.886
10743TIP3   OH232173   0.136   5.660   0.107
10743TIP3    H132174   0.209   5.609   0.141
10743TIP3    H232175   0.080   5.676   0.183
10744TIP3   OH232176   2.418   4.787   4.606
10744TIP3    H132177   2.408   4.712   4.548
10744TIP3    H232178   2.511   4.806   4.606
10745TIP3   OH232179   2.679   3.683   6.279
10745TIP3    H132180   2.714   3.641   6.358
10745TIP3    H232181   2.598   3.636   6.261
10746TIP3   OH232182   0.191   0.761   2.154
10746TIP3    H132183   0.152   0.753   2.241
10746TIP3    H232184   0.142   0.831   2.112
10747TIP3   OH232185   7.221   6.926   4.865
10747TIP3    H132186   7.246   6.982   4.938
10747TIP3    H232187   7.168   6.982   4.809
10748TIP3   OH232188   5.996   3.475   4.264
10748TIP3    H132189   5.993   3.570   4.277
10748TIP3    H232190   6.055   3.462   4.190
10749TIP3   OH232191   5.959   3.062   4.551
10749TIP3    H132192   5.903   3.011   4.493
10749TIP3    H232193   5.900   3.092   4.621
10750TIP3   OH232194   0.164   5.792   1.926
10750TIP3    H132195   0.090   5.736   1.949
10750TIP3    H232196   0.220   5.738   1.870
10751TIP3   OH232197   1.469   2.352   0.957
10751TIP3    H132198   1.448   2.441   0.986
10751TIP3    H232199   1.421   2.342   0.875
10752TIP3   OH232200   5.428   3.901   0.772
10752TIP3    H132201   5.411   3.975   0.830
10752TIP3    H232202   5.520   3.878   0.789
10753TIP3   OH232203   7.905   4.195   4.644
10753TIP3    H132204   7.856   4.139   4.584
10753TIP3    H232205   7.889   4.284   4.613
10754TIP3   OH232206   3.155   4.502   5.945
10754TIP3    H132207   3.115   4.434   6.000
10754TIP3    H232208   3.244   4.511   5.979
10755TIP3   OH232209   2.055   6.755   5.479
10755TIP3    H132210   2.081   6.697   5.408
10755TIP3    H232211   2.082   6.842   5.452
10756TIP3   OH232212   6.506   4.949   1.725
10756TIP3    H132213   6.587   4.914   1.689
10756TIP3    H232214   6.438   4.921   1.665
10757TIP3   OH232215   7.663   4.946   2.241
10757TIP3    H132216   7.683   4.876   2.179
10757TIP3    H232217   7.726   5.015   2.221
10758TIP3   OH232218   2.748   6.857   0.917
10758TIP3    H132219   2.717   6.871   1.006
10758TIP3    H232220   2.680   6.896   0.862
10759TIP3   OH232221   0.800   1.393   4.715
10759TIP3    H132222   0.739   1.359   4.780
10759TIP3    H232223   0.778   1.347   4.634
10760TIP3   OH232224   3.720   6.701   2.525
10760TIP3    H132225   3.698   6.714   2.617
10760TIP3    H232226   3.653   6.750   2.477
10761TIP3   OH232227   0.839   0.092   1.117
10761TIP3    H132228   0.926   0.131   1.122
10761TIP3    H232229   0.780   0.168   1.108
10762TIP3   OH232230   0.919   1.507   0.686
10762TIP3    H132231   1.012   1.484   0.697
10762TIP3    H232232   0.882   1.434   0.636
10763TIP3   OH232233   0.149   3.442   0.646
10763TIP3    H132234   0.082   3.510   0.653
10763TIP3    H232235   0.103   3.366   0.611
10764TIP3   OH232236   2.161   6.737   4.442
10764TIP3    H132237   2.224   6.717   4.373
10764TIP3    H232238   2.190   6.821   4.477
10765TIP3   OH232239   6.559   6.644   5.009
10765TIP3    H132240   6.567   6.664   5.103
10765TIP3    H232241   6.487   6.582   5.005
10766TIP3   OH232242   0.572   7.321   6.356
10766TIP3    H132243   0.648   7.343   6.410
10766TIP3    H232244   0.503   7.300   6.418
10767TIP3   OH232245   5.130   5.726   3.757
10767TIP3    H132246   5.039   5.721   3.730
10767TIP3    H232247   5.128   5.776   3.839
10768TIP3   OH232248   4.726   6.417   4.078
10768TIP3    H132249   4.778   6.345   4.044
10768TIP3    H232250   4.669   6.377   4.144
10769TIP3   OH232251   0.562   2.028   2.665
10769TIP3    H132252   0.585   1.936   2.677
10769TIP3    H232253   0.576   2.044   2.572
10770TIP3   OH232254   3.863   7.610   2.215
10770TIP3    H132255   3.949   7.644   2.192
10770TIP3    H232256   3.820   7.592   2.131
10771TIP3   OH232257   7.261   5.686   6.586
10771TIP3    H132258   7.333   5.651   6.533
10771TIP3    H232259   7.297   5.690   6.675
10772TIP3   OH232260   3.052   6.131   3.394
10772TIP3    H132261   3.134   6.082   3.383
10772TIP3    H232262   3.078   6.210   3.441
10773TIP3   OH232263   3.276   1.853   2.327
10773TIP3    H132264   3.269   1.803   2.246
10773TIP3    H232265   3.370   1.854   2.345
10774TIP3   OH232266   4.629   4.207   0.438
10774TIP3    H132267   4.544   4.177   0.470
10774TIP3    H232268   4.679   4.127   0.423
10775TIP3   OH232269   3.410   7.422   1.506
10775TIP3    H132270   3.370   7.445   1.590
10775TIP3    H232271   3.445   7.505   1.473
10776TIP3   OH232272   1.263   0.798   0.832
10776TIP3    H132273   1.205   0.741   0.782
10776TIP3    H232274   1.343   0.747   0.842
10777TIP3   OH232275   2.793   3.926   6.275
10777TIP3    H132276   2.860   3.928   6.344
10777TIP3    H232277   2.756   3.838   6.281
10778TIP3   OH232278   5.021   2.053   0.452
10778TIP3    H132279   5.033   2.068   0.359
10778TIP3    H232280   5.018   1.957   0.461
10779TIP3   OH232281   7.129   7.398   3.068
10779TIP3    H132282   7.131   7.330   3.001
10779TIP3    H232283   7.048   7.446   3.051
10780TIP3   OH232284   3.766   7.327   5.249
10780TIP3    H132285   3.727   7.256   5.199
10780TIP3    H232286   3.853   7.339   5.212
10781TIP3   OH232287   6.702   5.648   5.821
10781TIP3    H132288   6.691   5.596   5.900
10781TIP3    H232289   6.763   5.718   5.846
10782TIP3   OH232290   2.732   4.010   1.750
10782TIP3    H132291   2.749   3.938   1.812
10782TIP3    H232292   2.766   3.979   1.667
10783TIP3   OH232293   3.469   5.179   6.561
10783TIP3    H132294   3.506   5.163   6.648
10783TIP3    H232295   3.392   5.234   6.576
10784TIP3   OH232296   0.667   3.295   6.056
10784TIP3    H132297   0.698   3.263   6.141
10784TIP3    H232298   0.579   3.328   6.073
10785TIP3   OH232299   3.130   7.112   6.107
10785TIP3    H132300   3.059   7.049   6.113
10785TIP3    H232301   3.190   7.075   6.043
10786TIP3   OH232302   4.847   2.424   2.639
10786TIP3    H132303   4.766   2.465   2.668
10786TIP3    H232304   4.915   2.463   2.695
10787TIP3   OH232305   1.059   0.316   3.569
10787TIP3    H132306   1.037   0.396   3.616
10787TIP3    H232307   0.975   0.271   3.557
10788TIP3   OH232308   6.457   0.528   0.234
10788TIP3    H132309   6.383   0.472   0.258
10788TIP3    H232310   6.420   0.615   0.224
10789TIP3   OH232311   5.963   1.233   0.986
10789TIP3    H132312   5.879   1.193   1.008
10789TIP3    H232313   6.025   1.194   1.048
10790TIP3   OH232314   2.269   3.935   3.286
10790TIP3    H132315   2.265   3.942   3.191
10790TIP3    H232316   2.314   4.015   3.315
10791TIP3   OH232317   3.688   5.803   1.134
10791TIP3    H132318   3.746   5.728   1.149
10791TIP3    H232319   3.736   5.877   1.172
10792TIP3   OH232320   2.426   0.881   1.356
10792TIP3    H132321   2.380   0.888   1.439
10792TIP3    H232322   2.361   0.902   1.289
10793TIP3   OH232323   8.254   4.941   3.690
10793TIP3    H132324   8.186   4.944   3.758
10793TIP3    H232325   8.330   4.982   3.730
10794TIP3   OH232326   6.958   3.045   3.272
10794TIP3    H132327   6.919   3.051   3.359
10794TIP3    H232328   7.050   3.068   3.284
10795TIP3   OH232329   5.510   4.137   6.287
10795TIP3    H132330   5.574   4.094   6.343
10795TIP3    H232331   5.508   4.084   6.207
10796TIP3   OH232332   6.906   6.841   6.749
10796TIP3    H132333   6.955   6.874   6.674
10796TIP3    H232334   6.816   6.866   6.732
10797TIP3   OH232335   2.787   4.285   3.811
10797TIP3    H132336   2.763   4.329   3.892
10797TIP3    H232337   2.704   4.275   3.764
10798TIP3   OH232338   3.278   3.206   5.925
10798TIP3    H132339   3.188   3.230   5.901
10798TIP3    H232340   3.267   3.149   6.001
10799TIP3   OH232341   5.762   0.935   5.457
10799TIP3    H132342   5.811   0.939   5.374
10799TIP3    H232343   5.729   0.845   5.460
10800TIP3   OH232344   0.689   6.813   6.160
10800TIP3    H132345   0.644   6.844   6.081
10800TIP3    H232346   0.677   6.884   6.223
10801TIP3   OH232347   3.324   6.390   4.502
10801TIP3    H132348   3.372   6.361   4.580
10801TIP3    H232349   3.238   6.416   4.535
10802TIP3   OH232350   5.662   6.982   2.355
10802TIP3    H132351   5.595   7.044   2.385
10802TIP3    H232352   5.745   7.019   2.385
10803TIP3   OH232353   7.001   1.650   4.247
10803TIP3    H132354   6.978   1.719   4.309
10803TIP3    H232355   7.088   1.673   4.215
10804TIP3   OH232356   1.712   6.373   0.882
10804TIP3    H132357   1.688   6.387   0.790
10804TIP3    H232358   1.778   6.441   0.899
10805TIP3   OH232359   1.498   3.799   6.511
10805TIP3    H132360   1.587   3.788   6.478
10805TIP3    H232361   1.507   3.793   6.606
10806TIP3   OH232362   7.887   5.198   0.474
10806TIP3    H132363   7.853   5.167   0.390
10806TIP3    H232364   7.809   5.215   0.527
10807TIP3   OH232365   2.822   7.559   5.143
10807TIP3    H132366   2.734   7.550   5.179
10807TIP3    H232367   2.828   7.489   5.078
10808TIP3   OH232368   6.014   0.249   2.535
10808TIP3    H132369   5.973   0.304   2.602
10808TIP3    H232370   6.094   0.296   2.512
10809TIP3   OH232371   0.758   3.992   3.210
10809TIP3    H132372   0.722   4.029   3.291
10809TIP3    H232373   0.776   3.900   3.232
10810TIP3   OH232374   4.387   5.657   1.873
10810TIP3    H132375   4.329   5.699   1.809
10810TIP3    H232376   4.365   5.564   1.867
10811TIP3   OH232377   4.069   5.969   1.949
10811TIP3    H132378   4.060   5.908   2.022
10811TIP3    H232379   3.980   5.979   1.914
10812TIP3   OH232380   7.267   2.539   2.053
10812TIP3    H132381   7.329   2.485   2.101
10812TIP3    H232382   7.320   2.611   2.018
10813TIP3   OH232383   0.644   5.950   4.979
10813TIP3    H132384   0.643   5.855   4.977
10813TIP3    H232385   0.552   5.976   4.976
10814TIP3   OH232386   3.883   2.159   3.351
10814TIP3    H132387   3.957   2.218   3.362
10814TIP3    H232388   3.907   2.102   3.278
10815TIP3   OH232389   7.560   6.827   4.362
10815TIP3    H132390   7.610   6.881   4.423
10815TIP3    H232391   7.607   6.744   4.359
10816TIP3   OH232392   5.062   2.425   1.791
10816TIP3    H132393   5.074   2.342   1.746
10816TIP3    H232394   5.085   2.408   1.882
10817TIP3   OH232395   4.229   2.114   4.232
10817TIP3    H132396   4.316   2.120   4.193
10817TIP3    H232397   4.243   2.070   4.317
10818TIP3   OH232398   6.518   5.276   6.282
10818TIP3    H132399   6.612   5.273   6.296
10818TIP3    H232400   6.506   5.343   6.214
10819TIP3   OH232401   7.010   1.161   2.033
10819TIP3    H132402   7.033   1.254   2.027
10819TIP3    H232403   7.028   1.137   2.124
10820TIP3   OH232404   5.845   6.114   1.097
10820TIP3    H132405   5.815   6.040   1.043
10820TIP3    H232406   5.891   6.072   1.171
10821TIP3   OH232407   3.586   6.472   1.286
10821TIP3    H132408   3.643   6.429   1.351
10821TIP3    H232409   3.646   6.503   1.219
10822TIP3   OH232410   4.830   6.993   6.331
10822TIP3    H132411   4.796   6.949   6.253
10822TIP3    H232412   4.920   7.016   6.308
10823TIP3   OH232413   6.415   2.660   1.435
10823TIP3    H132414   6.420   2.594   1.367
10823TIP3    H232415   6.489   2.640   1.493
10824TIP3   OH232416   5.874   3.099   4.240
10824TIP3    H132417   5.874   3.154   4.161
10824TIP3    H232418   5.966   3.084   4.259
10825TIP3   OH232419   6.954   6.203   1.661
10825TIP3    H132420   6.981   6.246   1.580
10825TIP3    H232421   7.036   6.190   1.709
10826TIP3   OH232422   0.824   2.807   5.730
10826TIP3    H132423   0.907   2.855   5.729
10826TIP3    H232424   0.798   2.804   5.638
10827TIP3   OH232425   3.015   0.143   3.550
10827TIP3    H132426   2.955   0.096   3.608
10827TIP3    H232427   3.085   0.080   3.532
10828TIP3   OH232428   5.363   7.683   5.887
10828TIP3    H132429   5.363   7.769   5.929
10828TIP3    H232430   5.440   7.638   5.923
10829TIP3   OH232431   6.394   5.748   1.671
10829TIP3    H132432   6.351   5.738   1.586
10829TIP3    H232433   6.379   5.840   1.695
10830TIP3   OH232434   1.714   7.457   0.875
10830TIP3    H132435   1.641   7.412   0.919
10830TIP3    H232436   1.739   7.398   0.804
10831TIP3   OH232437   5.970   4.715   0.859
10831TIP3    H132438   5.911   4.691   0.788
10831TIP3    H232439   6.057   4.712   0.821
10832TIP3   OH232440   0.013   2.556   6.074
10832TIP3    H132441  -0.062   2.550   6.014
10832TIP3    H232442   0.078   2.608   6.026
10833TIP3   OH232443   7.417   0.083   4.405
10833TIP3    H132444   7.427   0.162   4.352
10833TIP3    H232445   7.384   0.114   4.489
10834TIP3   OH232446   7.154   0.704   5.281
10834TIP3    H132447   7.223   0.647   5.316
10834TIP3    H232448   7.087   0.705   5.350
10835TIP3   OH232449   2.761   6.351   5.616
10835TIP3    H132450   2.717   6.413   5.673
10835TIP3    H232451   2.798   6.286   5.675
10836TIP3   OH232452   3.011   6.418   2.386
10836TIP3    H132453   3.024   6.511   2.363
10836TIP3    H232454   2.989   6.420   2.479
10837TIP3   OH232455   4.466   7.048   0.945
10837TIP3    H132456   4.391   7.003   0.904
10837TIP3    H232457   4.530   7.056   0.874
10838TIP3   OH232458   3.859   7.474   1.442
10838TIP3    H132459   3.816   7.397   1.405
10838TIP3    H232460   3.932   7.438   1.493
10839TIP3   OH232461   5.537   1.325   0.779
10839TIP3    H132462   5.511   1.284   0.862
10839TIP3    H232463   5.454   1.348   0.737
10840TIP3   OH232464   4.332   1.013   1.722
10840TIP3    H132465   4.334   1.047   1.811
10840TIP3    H232466   4.381   1.078   1.671
10841TIP3   OH232467   3.210   2.596   5.765
10841TIP3    H132468   3.290   2.544   5.755
10841TIP3    H232469   3.201   2.609   5.860
10842TIP3   OH232470   4.962   6.299   3.125
10842TIP3    H132471   5.053   6.281   3.103
10842TIP3    H232472   4.956   6.395   3.127
10843TIP3   OH232473   4.524   5.609   3.411
10843TIP3    H132474   4.528   5.663   3.332
10843TIP3    H232475   4.430   5.595   3.425
10844TIP3   OH232476   6.967   0.502   6.005
10844TIP3    H132477   6.945   0.537   5.918
10844TIP3    H232478   6.982   0.579   6.059
10845TIP3   OH232479   4.662   7.538   6.441
10845TIP3    H132480   4.732   7.474   6.429
10845TIP3    H232481   4.584   7.486   6.461
10846TIP3   OH232482   5.224   0.366   1.110
10846TIP3    H132483   5.312   0.404   1.116
10846TIP3    H232484   5.192   0.392   1.024
10847TIP3   OH232485   3.022   2.716   5.593
10847TIP3    H132486   3.017   2.657   5.518
10847TIP3    H232487   3.079   2.671   5.655
10848TIP3   OH232488   1.345   0.923   2.305
10848TIP3    H132489   1.415   0.987   2.317
10848TIP3    H232490   1.318   0.900   2.394
10849TIP3   OH232491   7.398   5.317   2.659
10849TIP3    H132492   7.416   5.289   2.748
10849TIP3    H232493   7.479   5.300   2.611
10850TIP3   OH232494   5.822   6.837   0.412
10850TIP3    H132495   5.905   6.884   0.419
10850TIP3    H232496   5.840   6.751   0.451
10851TIP3   OH232497   8.247   0.982   4.467
10851TIP3    H132498   8.241   1.076   4.451
10851TIP3    H232499   8.333   0.970   4.507
10852TIP3   OH232500   3.289   3.370   1.053
10852TIP3    H132501   3.269   3.376   1.147
10852TIP3    H232502   3.298   3.461   1.025
10853TIP3   OH232503   2.029   5.258   6.288
10853TIP3    H132504   2.083   5.179   6.286
10853TIP3    H232505   1.963   5.243   6.220
10854TIP3   OH232506   1.881   5.332   5.050
10854TIP3    H132507   1.823   5.265   5.083
10854TIP3    H232508   1.955   5.284   5.012
10855TIP3   OH232509   3.370   7.555   0.861
10855TIP3    H132510   3.306   7.591   0.922
10855TIP3    H232511   3.392   7.469   0.897
10856TIP3   OH232512   6.446   3.018   3.068
10856TIP3    H132513   6.366   3.062   3.097
10856TIP3    H232514   6.418   2.963   2.995
10857TIP3   OH232515   0.810   3.105   3.842
10857TIP3    H132516   0.863   3.026   3.826
10857TIP3    H232517   0.872   3.177   3.836
10858TIP3   OH232518   2.715   6.261   4.653
10858TIP3    H132519   2.789   6.271   4.593
10858TIP3    H232520   2.700   6.166   4.655
10859TIP3   OH232521   2.475   2.030   2.533
10859TIP3    H132522   2.386   2.044   2.499
10859TIP3    H232523   2.490   1.936   2.522
10860TIP3   OH232524   3.218   3.766   5.203
10860TIP3    H132525   3.304   3.802   5.181
10860TIP3    H232526   3.174   3.836   5.251
10861TIP3   OH232527   4.641   6.694   0.462
10861TIP3    H132528   4.568   6.633   0.471
10861TIP3    H232529   4.700   6.672   0.534
10862TIP3   OH232530   6.935   1.972   1.888
10862TIP3    H132531   6.908   1.891   1.844
10862TIP3    H232532   7.024   1.954   1.917
10863TIP3   OH232533   5.625   1.427   1.053
10863TIP3    H132534   5.535   1.399   1.038
10863TIP3    H232535   5.678   1.350   1.030
10864TIP3   OH232536   4.829   7.341   6.369
10864TIP3    H132537   4.836   7.249   6.342
10864TIP3    H232538   4.795   7.386   6.292
10865TIP3   OH232539   6.040   7.139   6.322
10865TIP3    H132540   6.006   7.065   6.271
10865TIP3    H232541   6.115   7.103   6.369
10866TIP3   OH232542   5.990   2.720   5.843
10866TIP3    H132543   5.911   2.695   5.795
10866TIP3    H232544   5.965   2.714   5.935
10867TIP3   OH232545   3.671   2.738   4.117
10867TIP3    H132546   3.610   2.674   4.153
10867TIP3    H232547   3.686   2.708   4.027
10868TIP3   OH232548   8.317   6.303   0.215
10868TIP3    H132549   8.385   6.270   0.274
10868TIP3    H232550   8.284   6.382   0.258
10869TIP3   OH232551   2.028   0.841   4.619
10869TIP3    H132552   2.093   0.909   4.637
10869TIP3    H232553   2.062   0.795   4.542
10870TIP3   OH232554   8.046   0.748   5.313
10870TIP3    H132555   8.020   0.657   5.328
10870TIP3    H232556   7.964   0.795   5.305
10871TIP3   OH232557   4.737   7.242   6.801
10871TIP3    H132558   4.702   7.189   6.873
10871TIP3    H232559   4.727   7.187   6.724
10872TIP3   OH232560   0.709   0.317   2.582
10872TIP3    H132561   0.694   0.351   2.671
10872TIP3    H232562   0.676   0.386   2.524
10873TIP3   OH232563   5.451   5.376   4.226
10873TIP3    H132564   5.360   5.396   4.202
10873TIP3    H232565   5.449   5.284   4.253
10874TIP3   OH232566   6.522   0.167   5.798
10874TIP3    H132567   6.522   0.138   5.889
10874TIP3    H232568   6.584   0.240   5.796
10875TIP3   OH232569   3.272   4.038   1.734
10875TIP3    H132570   3.298   3.981   1.661
10875TIP3    H232571   3.262   3.978   1.808
10876TIP3   OH232572   4.119   3.933   5.265
10876TIP3    H132573   4.071   3.907   5.186
10876TIP3    H232574   4.210   3.935   5.237
10877TIP3   OH232575   3.394   3.202  -0.054
10877TIP3    H132576   3.304   3.228  -0.033
10877TIP3    H232577   3.441   3.210   0.028
10878TIP3   OH232578   5.223   3.779   3.613
10878TIP3    H132579   5.131   3.783   3.587
10878TIP3    H232580   5.220   3.750   3.704
10879TIP3   OH232581   3.012   4.467   6.275
10879TIP3    H132582   3.098   4.434   6.301
10879TIP3    H232583   2.985   4.410   6.203
10880TIP3   OH232584   6.683   6.307   4.811
10880TIP3    H132585   6.730   6.246   4.753
10880TIP3    H232586   6.664   6.255   4.889
10881TIP3   OH232587   1.162   6.323   4.860
10881TIP3    H132588   1.153   6.387   4.790
10881TIP3    H232589   1.074   6.287   4.871
10882TIP3   OH232590   2.715   5.685   1.218
10882TIP3    H132591   2.793   5.636   1.244
10882TIP3    H232592   2.704   5.750   1.288
10883TIP3   OH232593   2.069   5.170   5.665
10883TIP3    H132594   2.014   5.248   5.675
10883TIP3    H232595   2.016   5.098   5.698
10884TIP3   OH232596   4.407   2.545   5.580
10884TIP3    H132597   4.469   2.568   5.650
10884TIP3    H232598   4.322   2.543   5.623
10885TIP3   OH232599   4.855   5.666   3.697
10885TIP3    H132600   4.830   5.582   3.659
10885TIP3    H232601   4.830   5.731   3.631
10886TIP3   OH232602   3.252   4.231   5.898
10886TIP3    H132603   3.264   4.311   5.847
10886TIP3    H232604   3.166   4.241   5.939
10887TIP3   OH232605   5.150   1.095   4.738
10887TIP3    H132606   5.105   1.161   4.791
10887TIP3    H232607   5.218   1.061   4.797
10888TIP3   OH232608   3.318   1.748   2.070
10888TIP3    H132609   3.258   1.796   2.013
10888TIP3    H232610   3.324   1.660   2.032
10889TIP3   OH232611   6.215   2.481   2.403
10889TIP3    H132612   6.254   2.395   2.396
10889TIP3    H232613   6.290   2.541   2.406
10890TIP3   OH232614   0.721   2.780   2.810
10890TIP3    H132615   0.796   2.733   2.846
10890TIP3    H232616   0.759   2.843   2.749
10891TIP3   OH232617   5.318   0.104   1.592
10891TIP3    H132618   5.320   0.163   1.517
10891TIP3    H232619   5.331   0.017   1.554
10892TIP3   OH232620   0.439   2.746   4.612
10892TIP3    H132621   0.349   2.744   4.645
10892TIP3    H232622   0.483   2.675   4.658
10893TIP3   OH232623   8.203   5.392   4.877
10893TIP3    H132624   8.188   5.486   4.888
10893TIP3    H232625   8.167   5.353   4.957
10894TIP3   OH232626   8.206   6.885   0.683
10894TIP3    H132627   8.283   6.929   0.721
10894TIP3    H232628   8.131   6.936   0.716
10895TIP3   OH232629   2.012   1.895   3.879
10895TIP3    H132630   1.921   1.926   3.875
10895TIP3    H232631   2.058   1.963   3.929
10896TIP3   OH232632   6.427   2.445   5.134
10896TIP3    H132633   6.396   2.524   5.090
10896TIP3    H232634   6.437   2.380   5.064
10897TIP3   OH232635   2.105   7.166   1.158
10897TIP3    H132636   2.111   7.094   1.095
10897TIP3    H232637   2.103   7.245   1.104
10898TIP3   OH232638   0.404   3.588   2.855
10898TIP3    H132639   0.465   3.589   2.781
10898TIP3    H232640   0.454   3.622   2.929
10899TIP3   OH232641   2.754   7.707   6.537
10899TIP3    H132642   2.765   7.675   6.447
10899TIP3    H232643   2.840   7.743   6.560
10900TIP3   OH232644   8.221   5.891   0.874
10900TIP3    H132645   8.250   5.846   0.954
10900TIP3    H232646   8.281   5.965   0.865
10901TIP3   OH232647   0.157   7.474   3.137
10901TIP3    H132648   0.226   7.457   3.073
10901TIP3    H232649   0.194   7.538   3.197
10902TIP3   OH232650   4.469   6.724   0.021
10902TIP3    H132651   4.563   6.720   0.003
10902TIP3    H232652   4.439   6.633   0.019
10903TIP3   OH232653   3.506   2.566   4.687
10903TIP3    H132654   3.501   2.560   4.591
10903TIP3    H232655   3.560   2.643   4.704
10904TIP3   OH232656   5.078   2.803   1.628
10904TIP3    H132657   5.091   2.766   1.541
10904TIP3    H232658   5.143   2.759   1.683
10905TIP3   OH232659   7.525   2.378   3.443
10905TIP3    H132660   7.490   2.355   3.357
10905TIP3    H232661   7.511   2.300   3.496
10906TIP3   OH232662   8.155   1.829   4.249
10906TIP3    H132663   8.233   1.872   4.286
10906TIP3    H232664   8.120   1.893   4.187
10907TIP3   OH232665   3.158   5.152   2.821
10907TIP3    H132666   3.110   5.227   2.854
10907TIP3    H232667   3.250   5.179   2.822
10908TIP3   OH232668   8.042   0.858   1.421
10908TIP3    H132669   8.081   0.889   1.339
10908TIP3    H232670   8.027   0.765   1.407
10909TIP3   OH232671   4.925   7.373   2.114
10909TIP3    H132672   4.871   7.346   2.041
10909TIP3    H232673   5.013   7.384   2.077
10910TIP3   OH232674   6.862   3.467   6.033
10910TIP3    H132675   6.815   3.391   6.067
10910TIP3    H232676   6.798   3.511   5.977
10911TIP3   OH232677   2.339   6.713   0.972
10911TIP3    H132678   2.252   6.715   1.011
10911TIP3    H232679   2.398   6.729   1.046
10912TIP3   OH232680   4.255   1.933   0.857
10912TIP3    H132681   4.169   1.940   0.899
10912TIP3    H232682   4.236   1.915   0.765
10913TIP3   OH232683   2.042   7.049   0.675
10913TIP3    H132684   2.030   6.956   0.655
10913TIP3    H232685   2.021   7.094   0.593
10914TIP3   OH232686   2.799   2.696   3.119
10914TIP3    H132687   2.876   2.736   3.080
10914TIP3    H232688   2.812   2.602   3.106
10915TIP3   OH232689   0.465   6.222   4.025
10915TIP3    H132690   0.466   6.181   4.111
10915TIP3    H232691   0.551   6.202   3.988
10916TIP3   OH232692   2.368   4.518   4.843
10916TIP3    H132693   2.437   4.583   4.857
10916TIP3    H232694   2.287   4.562   4.869
10917TIP3   OH232695   2.149   5.779   6.449
10917TIP3    H132696   2.100   5.841   6.504
10917TIP3    H232697   2.081   5.730   6.402
10918TIP3   OH232698   7.090   1.629   2.142
10918TIP3    H132699   7.101   1.721   2.167
10918TIP3    H232700   7.136   1.579   2.209
10919TIP3   OH232701   7.367   2.940   1.020
10919TIP3    H132702   7.409   2.990   1.089
10919TIP3    H232703   7.366   2.998   0.944
10920TIP3   OH232704   3.076   3.281   1.264
10920TIP3    H132705   3.001   3.258   1.318
10920TIP3    H232706   3.152   3.256   1.316
10921TIP3   OH232707   7.779   1.151   1.147
10921TIP3    H132708   7.758   1.080   1.208
10921TIP3    H232709   7.871   1.135   1.123
10922TIP3   OH232710   5.087   0.718   1.543
10922TIP3    H132711   5.107   0.761   1.459
10922TIP3    H232712   5.119   0.629   1.532
10923TIP3   OH232713   2.292   1.174   6.109
10923TIP3    H132714   2.224   1.240   6.093
10923TIP3    H232715   2.374   1.223   6.108
10924TIP3   OH232716   0.669   1.151   6.511
10924TIP3    H132717   0.578   1.169   6.534
10924TIP3    H232718   0.663   1.093   6.435
10925TIP3   OH232719   0.172   5.127   3.737
10925TIP3    H132720   0.194   5.111   3.828
10925TIP3    H232721   0.252   5.108   3.689
10926TIP3   OH232722   5.265   6.892   1.566
10926TIP3    H132723   5.275   6.947   1.488
10926TIP3    H232724   5.332   6.824   1.555
10927TIP3   OH232725   4.112   3.403   0.605
10927TIP3    H132726   4.161   3.447   0.674
10927TIP3    H232727   4.073   3.327   0.648
10928TIP3   OH232728   6.186   2.845   0.105
10928TIP3    H132729   6.121   2.882   0.046
10928TIP3    H232730   6.172   2.891   0.188
10929TIP3   OH232731   4.040   2.980   0.365
10929TIP3    H132732   4.066   2.976   0.457
10929TIP3    H232733   3.981   2.907   0.353
10930TIP3   OH232734   4.093   1.626   5.828
10930TIP3    H132735   4.151   1.590   5.895
10930TIP3    H232736   4.099   1.721   5.840
10931TIP3   OH232737   4.661   4.941   4.040
10931TIP3    H132738   4.621   4.887   3.972
10931TIP3    H232739   4.603   4.932   4.116
10932TIP3   OH232740   7.145   7.507   4.245
10932TIP3    H132741   7.088   7.569   4.200
10932TIP3    H232742   7.163   7.547   4.329
10933TIP3   OH232743   7.587   2.803   3.464
10933TIP3    H132744   7.500   2.804   3.424
10933TIP3    H232745   7.571   2.825   3.556
10934TIP3   OH232746   2.214   2.656   0.568
10934TIP3    H132747   2.285   2.718   0.586
10934TIP3    H232748   2.254   2.570   0.582
10935TIP3   OH232749   4.881   0.992   1.444
10935TIP3    H132750   4.911   0.917   1.391
10935TIP3    H232751   4.924   0.980   1.529
10936TIP3   OH232752   3.720   3.552   6.405
10936TIP3    H132753   3.785   3.545   6.475
10936TIP3    H232754   3.665   3.474   6.415
10937TIP3   OH232755   1.704   1.147   1.756
10937TIP3    H132756   1.761   1.215   1.721
10937TIP3    H232757   1.621   1.192   1.774
10938TIP3   OH232758   6.850   3.941   4.773
10938TIP3    H132759   6.770   3.925   4.822
10938TIP3    H232760   6.916   3.885   4.815
10939TIP3   OH232761   3.448   0.352   5.962
10939TIP3    H132762   3.478   0.427   6.013
10939TIP3    H232763   3.438   0.387   5.873
10940TIP3   OH232764   6.747   5.017   0.693
10940TIP3    H132765   6.724   5.107   0.673
10940TIP3    H232766   6.681   4.988   0.756
10941TIP3   OH232767   3.150   6.409   1.861
10941TIP3    H132768   3.133   6.328   1.812
10941TIP3    H232769   3.096   6.400   1.940
10942TIP3   OH232770   3.151   4.591   2.108
10942TIP3    H132771   3.201   4.589   2.189
10942TIP3    H232772   3.201   4.649   2.050
10943TIP3   OH232773   5.142   0.599   5.721
10943TIP3    H132774   5.185   0.670   5.673
10943TIP3    H232775   5.089   0.643   5.787
10944TIP3   OH232776   2.050   2.130   6.155
10944TIP3    H132777   2.098   2.095   6.230
10944TIP3    H232778   2.110   2.119   6.081
10945TIP3   OH232779   1.953   1.870   0.509
10945TIP3    H132780   2.044   1.891   0.485
10945TIP3    H232781   1.952   1.774   0.515
10946TIP3   OH232782   7.182   2.349   3.552
10946TIP3    H132783   7.224   2.396   3.624
10946TIP3    H232784   7.176   2.259   3.583
10947TIP3   OH232785   6.697   1.465   6.219
10947TIP3    H132786   6.664   1.554   6.219
10947TIP3    H232787   6.791   1.474   6.200
10948TIP3   OH232788   2.162   3.672   2.470
10948TIP3    H132789   2.188   3.584   2.444
10948TIP3    H232790   2.105   3.702   2.400
10949TIP3   OH232791   3.979   4.934   0.758
10949TIP3    H132792   3.908   4.996   0.740
10949TIP3    H232793   3.959   4.858   0.703
10950TIP3   OH232794   3.411   0.573   5.497
10950TIP3    H132795   3.373   0.486   5.484
10950TIP3    H232796   3.506   0.558   5.490
10951TIP3   OH232797   4.889   1.396   5.608
10951TIP3    H132798   4.834   1.320   5.628
10951TIP3    H232799   4.891   1.400   5.512
10952TIP3   OH232800   3.058   3.580   3.767
10952TIP3    H132801   3.096   3.644   3.827
10952TIP3    H232802   3.051   3.627   3.684
10953TIP3   OH232803   3.721   1.827   0.741
10953TIP3    H132804   3.633   1.792   0.757
10953TIP3    H232805   3.778   1.774   0.796
10954TIP3   OH232806   5.913   3.902   4.830
10954TIP3    H132807   5.932   3.830   4.769
10954TIP3    H232808   5.835   3.873   4.877
10955TIP3   OH232809   5.909   1.634   3.145
10955TIP3    H132810   5.902   1.638   3.240
10955TIP3    H232811   5.843   1.696   3.113
10956TIP3   OH232812   1.733   4.334   2.500
10956TIP3    H132813   1.770   4.253   2.466
10956TIP3    H232814   1.804   4.398   2.493
10957TIP3   OH232815   7.203   0.379   6.080
10957TIP3    H132816   7.270   0.384   6.011
10957TIP3    H232817   7.120   0.394   6.034
10958TIP3   OH232818   1.054   2.835   2.230
10958TIP3    H132819   0.991   2.763   2.234
10958TIP3    H232820   1.051   2.874   2.317
10959TIP3   OH232821   3.307   7.393   6.402
10959TIP3    H132822   3.376   7.383   6.337
10959TIP3    H232823   3.235   7.436   6.355
10960TIP3   OH232824   0.256   7.498   1.704
10960TIP3    H132825   0.234   7.563   1.638
10960TIP3    H232826   0.319   7.541   1.761
10961TIP3   OH232827   5.279   0.034   2.203
10961TIP3    H132828   5.234  -0.005   2.128
10961TIP3    H232829   5.366  -0.005   2.202
10962TIP3   OH232830   0.549   7.578   6.634
10962TIP3    H132831   0.640   7.552   6.617
10962TIP3    H232832   0.496   7.506   6.600
10963TIP3   OH232833   6.540   4.849   0.506
10963TIP3    H132834   6.539   4.869   0.600
10963TIP3    H232835   6.474   4.780   0.496
10964TIP3   OH232836   0.444   1.291   6.519
10964TIP3    H132837   0.360   1.245   6.515
10964TIP3    H232838   0.424   1.378   6.485
10965TIP3   OH232839   4.411   7.465   1.478
10965TIP3    H132840   4.407   7.553   1.440
10965TIP3    H232841   4.501   7.436   1.464
10966TIP3   OH232842   2.496   1.361   1.774
10966TIP3    H132843   2.553   1.356   1.852
10966TIP3    H232844   2.409   1.379   1.809
10967TIP3   OH232845   3.641   6.604   3.033
10967TIP3    H132846   3.568   6.656   3.000
10967TIP3    H232847   3.625   6.598   3.128
10968TIP3   OH232848   4.900   4.493   3.466
10968TIP3    H132849   4.821   4.545   3.450
10968TIP3    H232850   4.970   4.558   3.474
10969TIP3   OH232851   4.795   3.373   1.969
10969TIP3    H132852   4.719   3.393   2.023
10969TIP3    H232853   4.759   3.353   1.883
10970TIP3   OH232854   5.705   6.618   3.629
10970TIP3    H132855   5.674   6.692   3.682
10970TIP3    H232856   5.761   6.659   3.562
10971TIP3   OH232857   8.123   7.102   3.204
10971TIP3    H132858   8.102   7.029   3.146
10971TIP3    H232859   8.179   7.159   3.151
10972TIP3   OH232860   6.047   4.686   4.766
10972TIP3    H132861   5.985   4.755   4.741
10972TIP3    H232862   5.994   4.606   4.768
10973TIP3   OH232863   4.656   5.703   4.392
10973TIP3    H132864   4.611   5.620   4.409
10973TIP3    H232865   4.696   5.691   4.306
10974TIP3   OH232866   3.898   5.925   1.672
10974TIP3    H132867   3.880   5.833   1.652
10974TIP3    H232868   3.872   5.935   1.763
10975TIP3   OH232869   0.610   3.757   3.008
10975TIP3    H132870   0.656   3.791   2.932
10975TIP3    H232871   0.679   3.743   3.073
10976TIP3   OH232872   2.429   3.339   4.185
10976TIP3    H132873   2.407   3.292   4.266
10976TIP3    H232874   2.378   3.296   4.117
10977TIP3   OH232875   8.070   4.231   4.362
10977TIP3    H132876   8.103   4.172   4.295
10977TIP3    H232877   8.145   4.249   4.418
10978TIP3   OH232878   5.501   1.493   1.427
10978TIP3    H132879   5.431   1.511   1.364
10978TIP3    H232880   5.470   1.416   1.475
10979TIP3   OH232881   3.690   2.964   2.825
10979TIP3    H132882   3.597   2.956   2.805
10979TIP3    H232883   3.716   3.049   2.789
10980TIP3   OH232884   1.856   2.858   5.234
10980TIP3    H132885   1.836   2.820   5.319
10980TIP3    H232886   1.771   2.866   5.191
10981TIP3   OH232887   4.629   4.046   2.141
10981TIP3    H132888   4.710   4.047   2.192
10981TIP3    H232889   4.640   3.974   2.079
10982TIP3   OH232890   6.721   0.592   0.404
10982TIP3    H132891   6.726   0.687   0.396
10982TIP3    H232892   6.781   0.571   0.475
10983TIP3   OH232893   7.860   1.150   0.069
10983TIP3    H132894   7.870   1.066   0.024
10983TIP3    H232895   7.870   1.215  -0.001
10984TIP3   OH232896   3.558   2.971   5.648
10984TIP3    H132897   3.590   3.053   5.687
10984TIP3    H232898   3.474   2.995   5.609
10985TIP3   OH232899   1.202   4.091   6.314
10985TIP3    H132900   1.122   4.099   6.262
10985TIP3    H232901   1.223   3.998   6.313
10986TIP3   OH232902   1.571   6.588   6.531
10986TIP3    H132903   1.611   6.563   6.615
10986TIP3    H232904   1.593   6.516   6.472
10987TIP3   OH232905   2.073   3.053   5.552
10987TIP3    H132906   1.996   3.087   5.506
10987TIP3    H232907   2.101   3.126   5.608
10988TIP3   OH232908   6.492   4.081   6.293
10988TIP3    H132909   6.551   4.073   6.369
10988TIP3    H232910   6.550   4.069   6.218
10989TIP3   OH232911   0.377   5.973   0.945
10989TIP3    H132912   0.400   6.005   1.032
10989TIP3    H232913   0.311   5.905   0.961
10990TIP3   OH232914   6.307   4.404   4.541
10990TIP3    H132915   6.358   4.349   4.602
10990TIP3    H232916   6.370   4.429   4.474
10991TIP3   OH232917   3.835   2.972   1.262
10991TIP3    H132918   3.867   2.999   1.348
10991TIP3    H232919   3.752   2.927   1.280
10992TIP3   OH232920   0.759   1.169   0.718
10992TIP3    H132921   0.695   1.235   0.746
10992TIP3    H232922   0.745   1.161   0.623
10993TIP3   OH232923   4.202   6.601   5.868
10993TIP3    H132924   4.296   6.587   5.857
10993TIP3    H232925   4.177   6.659   5.797
10994TIP3   OH232926   3.713   1.106   2.704
10994TIP3    H132927   3.749   1.072   2.622
10994TIP3    H232928   3.702   1.200   2.688
10995TIP3   OH232929   5.592   1.958   3.390
10995TIP3    H132930   5.549   1.907   3.321
10995TIP3    H232931   5.598   2.046   3.354
10996TIP3   OH232932   5.875   5.777   6.520
10996TIP3    H132933   5.941   5.831   6.564
10996TIP3    H232934   5.922   5.738   6.446
10997TIP3   OH232935   2.096   0.976   0.728
10997TIP3    H132936   2.111   0.967   0.634
10997TIP3    H232937   2.063   1.066   0.739
10998TIP3   OH232938   6.138   6.652   3.429
10998TIP3    H132939   6.194   6.667   3.505
10998TIP3    H232940   6.189   6.685   3.355
10999TIP3   OH232941   5.169   0.020   5.557
10999TIP3    H132942   5.081   0.011   5.594
10999TIP3    H232943   5.165  -0.027   5.473
11000TIP3   OH232944   8.023   4.790   6.704
11000TIP3    H132945   8.074   4.867   6.730
11000TIP3    H232946   7.998   4.749   6.787
11001TIP3   OH232947   2.991   0.204   3.943
11001TIP3    H132948   2.980   0.111   3.924
11001TIP3    H232949   2.985   0.209   4.039
11002TIP3   OH232950   1.963   3.372   2.530
11002TIP3    H132951   2.032   3.389   2.466
11002TIP3    H232952   1.979   3.436   2.599
11003TIP3   OH232953   3.966   1.122   3.968
11003TIP3    H132954   4.042   1.176   3.987
11003TIP3    H232955   3.897   1.158   4.023
11004TIP3   OH232956   7.878   5.193   1.797
11004TIP3    H132957   7.952   5.199   1.857
11004TIP3    H232958   7.917   5.162   1.715
11005TIP3   OH232959   7.941   5.390   0.742
11005TIP3    H132960   7.878   5.385   0.814
11005TIP3    H232961   7.886   5.399   0.663
11006TIP3   OH232962   6.307   4.798   5.456
11006TIP3    H132963   6.247   4.745   5.508
11006TIP3    H232964   6.312   4.753   5.372
11007TIP3   OH232965   1.910   0.052   6.549
11007TIP3    H132966   1.832   0.034   6.497
11007TIP3    H232967   1.880   0.050   6.640
11008TIP3   OH232968   5.378   3.701   5.735
11008TIP3    H132969   5.387   3.618   5.782
11008TIP3    H232970   5.456   3.705   5.679
11009TIP3   OH232971   4.656   1.930   4.897
11009TIP3    H132972   4.609   2.007   4.865
11009TIP3    H232973   4.592   1.884   4.952
11010TIP3   OH232974   0.620   5.852   4.309
11010TIP3    H132975   0.712   5.834   4.329
11010TIP3    H232976   0.577   5.766   4.310
11011TIP3   OH232977   0.861   5.342   2.273
11011TIP3    H132978   0.935   5.384   2.230
11011TIP3    H232979   0.806   5.414   2.305
11012TIP3   OH232980   4.307   3.719   1.358
11012TIP3    H132981   4.243   3.672   1.304
11012TIP3    H232982   4.361   3.650   1.397
11013TIP3   OH232983   0.609   2.934   5.833
11013TIP3    H132984   0.680   2.879   5.802
11013TIP3    H232985   0.547   2.936   5.760
11014TIP3   OH232986   5.863   3.683   6.243
11014TIP3    H132987   5.770   3.659   6.250
11014TIP3    H232988   5.886   3.717   6.330
11015TIP3   OH232989   1.222   6.781   4.759
11015TIP3    H132990   1.152   6.738   4.710
11015TIP3    H232991   1.280   6.816   4.691
11016TIP3   OH232992   0.935   3.803   6.404
11016TIP3    H132993   0.910   3.713   6.385
11016TIP3    H232994   1.014   3.795   6.457
11017TIP3   OH232995   1.091   6.050   0.321
11017TIP3    H132996   1.186   6.046   0.325
11017TIP3    H232997   1.073   6.131   0.273
11018TIP3   OH232998   1.985   7.296   3.986
11018TIP3    H132999   1.891   7.312   3.993
11018TIP3    H233000   1.997   7.259   3.898
11019TIP3   OH233001  -0.064   1.738   0.313
11019TIP3    H133002  -0.029   1.671   0.372
11019TIP3    H233003   0.014   1.787   0.285
11020TIP3   OH233004   7.764   7.350   4.413
11020TIP3    H133005   7.693   7.294   4.382
11020TIP3    H233006   7.827   7.290   4.451
11021TIP3   OH233007   4.005   1.856   2.251
11021TIP3    H133008   3.947   1.783   2.271
11021TIP3    H233009   3.950   1.918   2.204
11022TIP3   OH233010   0.582   4.365   0.134
11022TIP3    H133011   0.532   4.308   0.193
11022TIP3    H233012   0.606   4.309   0.061
11023TIP3   OH233013   8.197   0.359   2.276
11023TIP3    H133014   8.219   0.451   2.262
11023TIP3    H233015   8.176   0.325   2.189
11024TIP3   OH233016   0.291   6.670   5.474
11024TIP3    H133017   0.372   6.634   5.438
11024TIP3    H233018   0.296   6.764   5.456
11025TIP3   OH233019   0.500   2.629   3.810
11025TIP3    H133020   0.501   2.697   3.743
11025TIP3    H233021   0.407   2.609   3.821
11026TIP3   OH233022   7.236   3.732   5.085
11026TIP3    H133023   7.292   3.793   5.134
11026TIP3    H233024   7.189   3.788   5.023
11027TIP3   OH233025   6.622   4.229   1.585
11027TIP3    H133026   6.535   4.194   1.568
11027TIP3    H233027   6.651   4.265   1.502
11028TIP3   OH233028   4.187   0.203   4.883
11028TIP3    H133029   4.143   0.247   4.956
11028TIP3    H233030   4.147   0.241   4.804
11029TIP3   OH233031   2.367   6.840   2.237
11029TIP3    H133032   2.378   6.747   2.256
11029TIP3    H233033   2.368   6.882   2.323
11030TIP3   OH233034   2.766   1.202   2.235
11030TIP3    H133035   2.764   1.198   2.331
11030TIP3    H233036   2.725   1.120   2.207
11031TIP3   OH233037   1.761   3.739   1.494
11031TIP3    H133038   1.747   3.662   1.439
11031TIP3    H233039   1.767   3.812   1.433
11032TIP3   OH233040   5.808   4.660   0.249
11032TIP3    H133041   5.720   4.675   0.284
11032TIP3    H233042   5.795   4.600   0.176
11033TIP3   OH233043   3.175   5.238   1.895
11033TIP3    H133044   3.140   5.151   1.915
11033TIP3    H233045   3.139   5.260   1.809
11034TIP3   OH233046   6.201   4.581   5.624
11034TIP3    H133047   6.209   4.511   5.688
11034TIP3    H233048   6.149   4.542   5.553
11035TIP3   OH233049   7.767   0.754   3.558
11035TIP3    H133050   7.817   0.798   3.627
11035TIP3    H233051   7.829   0.693   3.518
11036TIP3   OH233052   6.729   1.394   5.185
11036TIP3    H133053   6.652   1.347   5.154
11036TIP3    H233054   6.803   1.350   5.144
11037TIP3   OH233055   1.723   5.220   2.914
11037TIP3    H133056   1.681   5.293   2.870
11037TIP3    H233057   1.714   5.240   3.007
11038TIP3   OH233058   1.195   6.861   5.026
11038TIP3    H133059   1.126   6.807   5.066
11038TIP3    H233060   1.220   6.813   4.947
11039TIP3   OH233061   4.483   1.278   4.870
11039TIP3    H133062   4.397   1.237   4.878
11039TIP3    H233063   4.468   1.369   4.898
11040TIP3   OH233064   6.938   6.719   5.595
11040TIP3    H133065   6.996   6.679   5.659
11040TIP3    H233066   6.965   6.682   5.511
11041TIP3   OH233067   1.783   7.361   4.425
11041TIP3    H133068   1.815   7.271   4.419
11041TIP3    H233069   1.698   7.359   4.381
11042TIP3   OH233070   2.251   5.626   1.570
11042TIP3    H133071   2.213   5.635   1.657
11042TIP3    H233072   2.332   5.678   1.573
11043TIP3   OH233073   2.259   0.929   3.334
11043TIP3    H133074   2.298   0.992   3.395
11043TIP3    H233075   2.194   0.980   3.285
11044TIP3   OH233076   7.715   5.576   1.621
11044TIP3    H133077   7.680   5.647   1.568
11044TIP3    H233078   7.770   5.525   1.560
11045TIP3   OH233079   5.135   5.235   1.718
11045TIP3    H133080   5.214   5.269   1.676
11045TIP3    H233081   5.073   5.308   1.716
11046TIP3   OH233082   3.981   1.773   0.384
11046TIP3    H133083   3.968   1.692   0.336
11046TIP3    H233084   3.894   1.796   0.417
11047TIP3   OH233085   7.655   7.457   5.147
11047TIP3    H133086   7.619   7.503   5.223
11047TIP3    H233087   7.661   7.524   5.079
11048TIP3   OH233088   2.586   2.150   2.758
11048TIP3    H133089   2.550   2.123   2.674
11048TIP3    H233090   2.657   2.210   2.735
11049TIP3   OH233091   0.510   7.236   4.767
11049TIP3    H133092   0.499   7.209   4.859
11049TIP3    H233093   0.422   7.226   4.729
11050TIP3   OH233094   2.456   2.422   2.566
11050TIP3    H133095   2.402   2.487   2.519
11050TIP3    H233096   2.542   2.428   2.524
11051TIP3   OH233097   3.340   1.242   0.954
11051TIP3    H133098   3.331   1.158   0.999
11051TIP3    H233099   3.402   1.292   1.007
11052TIP3   OH233100   1.828   2.111   3.784
11052TIP3    H133101   1.904   2.165   3.764
11052TIP3    H233102   1.817   2.055   3.707
11053TIP3   OH233103   6.992   2.015   4.788
11053TIP3    H133104   6.949   1.951   4.732
11053TIP3    H233105   6.930   2.029   4.860
11054TIP3   OH233106   8.264   7.255   0.144
11054TIP3    H133107   8.278   7.338   0.099
11054TIP3    H233108   8.177   7.262   0.183
11055TIP3   OH233109   0.240   7.291   2.056
11055TIP3    H133110   0.290   7.232   2.113
11055TIP3    H233111   0.251   7.377   2.096
11056TIP3   OH233112   0.033   1.510   2.296
11056TIP3    H133113   0.127   1.504   2.281
11056TIP3    H233114   0.021   1.474   2.385
11057TIP3   OH233115   0.193   0.255   2.095
11057TIP3    H133116   0.103   0.267   2.065
11057TIP3    H233117   0.208   0.160   2.089
11058TIP3   OH233118   7.527   0.379   0.172
11058TIP3    H133119   7.525   0.318   0.245
11058TIP3    H233120   7.587   0.449   0.201
11059TIP3   OH233121   1.815   4.868   5.218
11059TIP3    H133122   1.854   4.809   5.153
11059TIP3    H233123   1.730   4.893   5.180
11060TIP3   OH233124   0.315   7.420   5.816
11060TIP3    H133125   0.325   7.441   5.909
11060TIP3    H233126   0.228   7.381   5.810
11061TIP3   OH233127   0.324   4.967   0.164
11061TIP3    H133128   0.404   5.016   0.147
11061TIP3    H233129   0.333   4.887   0.112
11062TIP3   OH233130   5.179   1.103   3.641
11062TIP3    H133131   5.139   1.102   3.728
11062TIP3    H233132   5.216   1.191   3.633
11063TIP3   OH233133   3.136   0.348   0.341
11063TIP3    H133134   3.119   0.438   0.371
11063TIP3    H233135   3.084   0.339   0.262
11064TIP3   OH233136   3.001   6.304   0.585
11064TIP3    H133137   2.944   6.302   0.508
11064TIP3    H233138   3.063   6.375   0.567
11065TIP3   OH233139   5.394   6.594   1.745
11065TIP3    H133140   5.474   6.576   1.695
11065TIP3    H233141   5.416   6.670   1.799
11066TIP3   OH233142   0.908   6.651   0.448
11066TIP3    H133143   0.913   6.693   0.363
11066TIP3    H233144   0.993   6.609   0.460
11067TIP3   OH233145   6.805   3.617   0.134
11067TIP3    H133146   6.886   3.606   0.083
11067TIP3    H233147   6.793   3.532   0.177
11068TIP3   OH233148   2.828   7.382   0.327
11068TIP3    H133149   2.899   7.317   0.328
11068TIP3    H233150   2.783   7.369   0.411
11069TIP3   OH233151   2.542   6.768   6.175
11069TIP3    H133152   2.500   6.849   6.147
11069TIP3    H233153   2.469   6.711   6.201
11070TIP3   OH233154   5.727   5.526   6.721
11070TIP3    H133155   5.747   5.574   6.802
11070TIP3    H233156   5.773   5.443   6.731
11071TIP3   OH233157   1.753   3.052   3.305
11071TIP3    H133158   1.716   3.075   3.390
11071TIP3    H233159   1.797   3.131   3.275
11072TIP3   OH233160   4.078   0.844   3.083
11072TIP3    H133161   4.124   0.872   3.004
11072TIP3    H233162   4.147   0.828   3.147
11073TIP3   OH233163   2.467   4.020   2.349
11073TIP3    H133164   2.483   4.107   2.387
11073TIP3    H233165   2.431   3.969   2.421
11074TIP3   OH233166   6.011   4.809   0.151
11074TIP3    H133167   5.960   4.739   0.192
11074TIP3    H233168   6.054   4.766   0.077
11075TIP3   OH233169   0.447   7.372   4.041
11075TIP3    H133170   0.443   7.407   4.130
11075TIP3    H233171   0.377   7.307   4.038
11076TIP3   OH233172   7.145   3.042   0.832
11076TIP3    H133173   7.050   3.032   0.830
11076TIP3    H233174   7.179   2.956   0.805
11077TIP3   OH233175   4.782   5.859   6.377
11077TIP3    H133176   4.808   5.772   6.409
11077TIP3    H233177   4.863   5.910   6.379
11078TIP3   OH233178   6.202   5.193   5.312
11078TIP3    H133179   6.233   5.175   5.223
11078TIP3    H233180   6.256   5.267   5.341
11079TIP3   OH233181   0.210   3.795   2.937
11079TIP3    H133182   0.216   3.819   3.030
11079TIP3    H233183   0.231   3.702   2.935
11080TIP3   OH233184   2.000   4.796   3.842
11080TIP3    H133185   1.945   4.732   3.797
11080TIP3    H233186   1.967   4.881   3.811
11081TIP3   OH233187   6.678   2.253   3.679
11081TIP3    H133188   6.704   2.206   3.600
11081TIP3    H233189   6.678   2.186   3.748
11082TIP3   OH233190   1.367   4.342   3.731
11082TIP3    H133191   1.344   4.312   3.819
11082TIP3    H233192   1.284   4.344   3.683
11083TIP3   OH233193   4.897   3.430   0.614
11083TIP3    H133194   4.882   3.347   0.658
11083TIP3    H233195   4.881   3.497   0.681
11084TIP3   OH233196   3.354   7.075   5.272
11084TIP3    H133197   3.277   7.051   5.220
11084TIP3    H233198   3.426   7.076   5.209
11085TIP3   OH233199   2.426   0.228   5.596
11085TIP3    H133200   2.378   0.306   5.627
11085TIP3    H233201   2.461   0.189   5.676
11086TIP3   OH233202   1.885   7.723   6.444
11086TIP3    H133203   1.936   7.650   6.478
11086TIP3    H233204   1.821   7.681   6.386
11087TIP3   OH233205   3.281   6.233   4.789
11087TIP3    H133206   3.263   6.257   4.880
11087TIP3    H233207   3.369   6.268   4.773
11088TIP3   OH233208   2.576  -0.041   2.659
11088TIP3    H133209   2.572  -0.097   2.581
11088TIP3    H233210   2.581   0.048   2.625
11089TIP3   OH233211   4.941   5.181   0.144
11089TIP3    H133212   4.913   5.143   0.227
11089TIP3    H233213   5.018   5.234   0.166
11090TIP3   OH233214   7.813   4.024   1.694
11090TIP3    H133215   7.777   3.956   1.636
11090TIP3    H233216   7.904   4.033   1.667
11091TIP3   OH233217   7.632   6.515   1.694
11091TIP3    H133218   7.575   6.443   1.722
11091TIP3    H233219   7.605   6.533   1.604
11092TIP3   OH233220   4.772   5.614   0.052
11092TIP3    H133221   4.794   5.707   0.050
11092TIP3    H233222   4.712   5.605   0.126
11093TIP3   OH233223   3.373   7.056   3.040
11093TIP3    H133224   3.370   7.151   3.050
11093TIP3    H233225   3.304   7.037   2.977
11094TIP3   OH233226   7.503   4.774   5.571
11094TIP3    H133227   7.577   4.807   5.620
11094TIP3    H233228   7.491   4.837   5.499
11095TIP3   OH233229   7.132   0.214   4.004
11095TIP3    H133230   7.220   0.208   4.042
11095TIP3    H233231   7.147   0.228   3.910
11096TIP3   OH233232   4.003   2.975   4.729
11096TIP3    H133233   4.070   3.031   4.769
11096TIP3    H233234   3.953   3.035   4.673
11097TIP3   OH233235   5.688   2.960   4.654
11097TIP3    H133236   5.713   3.042   4.698
11097TIP3    H233237   5.615   2.927   4.707
11098TIP3   OH233238   7.111   2.985   5.852
11098TIP3    H133239   7.087   3.050   5.918
11098TIP3    H233240   7.206   2.995   5.843
11099TIP3   OH233241   2.136   0.632   4.907
11099TIP3    H133242   2.060   0.593   4.866
11099TIP3    H233243   2.108   0.651   4.997
11100TIP3   OH233244   4.932   7.659   3.008
11100TIP3    H133245   4.839   7.666   2.988
11100TIP3    H233246   4.941   7.577   3.057
11101TIP3   OH233247   3.794   6.247   0.034
11101TIP3    H133248   3.766   6.327   0.078
11101TIP3    H233249   3.861   6.276  -0.028
11102TIP3   OH233250   4.272   6.899   4.927
11102TIP3    H133251   4.367   6.895   4.916
11102TIP3    H233252   4.238   6.909   4.838
11103TIP3   OH233253   6.030   1.022   1.157
11103TIP3    H133254   6.044   0.956   1.225
11103TIP3    H233255   5.968   0.981   1.097
11104TIP3   OH233256   2.001   6.467   2.528
11104TIP3    H133257   1.935   6.452   2.596
11104TIP3    H233258   1.952   6.461   2.446
11105TIP3   OH233259   3.884   6.995   0.578
11105TIP3    H133260   3.805   6.956   0.616
11105TIP3    H233261   3.907   7.066   0.639
11106TIP3   OH233262   3.864   3.045   1.558
11106TIP3    H133263   3.778   3.002   1.564
11106TIP3    H233264   3.912   3.012   1.633
11107TIP3   OH233265   4.077   4.211   2.450
11107TIP3    H133266   4.066   4.125   2.409
11107TIP3    H233267   4.023   4.269   2.397
11108TIP3   OH233268   1.325   4.575   5.624
11108TIP3    H133269   1.338   4.643   5.558
11108TIP3    H233270   1.409   4.529   5.628
11109TIP3   OH233271   1.636   2.781   0.232
11109TIP3    H133272   1.597   2.863   0.202
11109TIP3    H233273   1.664   2.736   0.151
11110TIP3   OH233274   0.299   3.825   6.401
11110TIP3    H133275   0.289   3.849   6.309
11110TIP3    H233276   0.343   3.740   6.399
11111TIP3   OH233277   2.068   4.477   5.833
11111TIP3    H133278   1.985   4.430   5.835
11111TIP3    H233279   2.104   4.466   5.921
11112TIP3   OH233280   4.654   2.210   2.653
11112TIP3    H133281   4.641   2.116   2.644
11112TIP3    H233282   4.736   2.227   2.606
11113TIP3   OH233283   5.885   5.008   6.697
11113TIP3    H133284   5.860   5.026   6.606
11113TIP3    H233285   5.980   4.995   6.694
11114TIP3   OH233286   3.081   3.096   0.556
11114TIP3    H133287   3.039   3.083   0.641
11114TIP3    H233288   3.157   3.151   0.575
11115TIP3   OH233289   5.614   7.424   2.742
11115TIP3    H133290   5.536   7.480   2.741
11115TIP3    H233291   5.587   7.346   2.790
11116TIP3   OH233292   7.960   5.240   1.242
11116TIP3    H133293   7.993   5.230   1.153
11116TIP3    H233294   7.935   5.151   1.268
11117TIP3   OH233295   1.088   0.842   4.348
11117TIP3    H133296   1.085   0.927   4.303
11117TIP3    H233297   1.137   0.859   4.428
11118TIP3   OH233298   3.966   0.515   1.523
11118TIP3    H133299   3.918   0.553   1.450
11118TIP3    H233300   3.910   0.444   1.554
11119TIP3   OH233301   0.382   0.425   0.532
11119TIP3    H133302   0.400   0.351   0.474
11119TIP3    H233303   0.449   0.490   0.509
11120TIP3   OH233304   8.237   6.141   4.614
11120TIP3    H133305   8.142   6.124   4.613
11120TIP3    H233306   8.248   6.217   4.557
11121TIP3   OH233307   1.929   0.900   0.977
11121TIP3    H133308   1.937   0.947   1.060
11121TIP3    H233309   1.926   0.970   0.911
11122TIP3   OH233310   0.898   5.750   0.480
11122TIP3    H133311   0.976   5.697   0.461
11122TIP3    H233312   0.932   5.836   0.502
11123TIP3   OH233313   5.830   0.690   2.020
11123TIP3    H133314   5.885   0.652   1.950
11123TIP3    H233315   5.852   0.783   2.019
11124TIP3   OH233316   6.738   5.455   5.486
11124TIP3    H133317   6.792   5.388   5.528
11124TIP3    H233318   6.786   5.478   5.406
11125TIP3   OH233319   5.507   2.967   6.516
11125TIP3    H133320   5.534   2.947   6.426
11125TIP3    H233321   5.463   3.051   6.510
11126TIP3   OH233322   5.070   0.354   2.628
11126TIP3    H133323   4.977   0.341   2.649
11126TIP3    H233324   5.100   0.268   2.599
11127TIP3   OH233325   5.530   7.597   3.008
11127TIP3    H133326   5.622   7.617   2.992
11127TIP3    H233327   5.511   7.635   3.094
11128TIP3   OH233328   1.529   3.091   5.445
11128TIP3    H133329   1.588   3.118   5.376
11128TIP3    H233330   1.502   3.002   5.420
11129TIP3   OH233331   3.133   6.733   6.402
11129TIP3    H133332   3.100   6.644   6.392
11129TIP3    H233333   3.105   6.778   6.322
11130TIP3   OH233334   1.337   4.123  -0.037
11130TIP3    H133335   1.375   4.161  -0.116
11130TIP3    H233336   1.243   4.126  -0.052
11131TIP3   OH233337   4.554   2.971   5.949
11131TIP3    H133338   4.540   2.925   6.032
11131TIP3    H233339   4.637   2.937   5.917
11132TIP3   OH233340   2.129   4.586   1.426
11132TIP3    H133341   2.047   4.618   1.465
11132TIP3    H233342   2.102   4.546   1.343
11133TIP3   OH233343   4.436   4.058   2.321
11133TIP3    H133344   4.493   4.088   2.250
11133TIP3    H233345   4.496   4.030   2.390
11134TIP3   OH233346   2.171   0.908   1.205
11134TIP3    H133347   2.128   0.983   1.246
11134TIP3    H233348   2.189   0.936   1.115
11135TIP3   OH233349   7.712   2.344   2.790
11135TIP3    H133350   7.642   2.377   2.848
11135TIP3    H233351   7.696   2.389   2.707
11136TIP3   OH233352   0.958   5.400   0.864
11136TIP3    H133353   1.014   5.427   0.791
11136TIP3    H233354   0.915   5.321   0.834
11137TIP3   OH233355   2.182   6.239   2.956
11137TIP3    H133356   2.103   6.188   2.941
11137TIP3    H233357   2.233   6.186   3.018
11138TIP3   OH233358   0.341   1.825   2.664
11138TIP3    H133359   0.383   1.867   2.588
11138TIP3    H233360   0.329   1.734   2.637
11139TIP3   OH233361   8.319   4.255   0.762
11139TIP3    H133362   8.345   4.347   0.761
11139TIP3    H233363   8.226   4.257   0.787
11140TIP3   OH233364   4.186   3.058   5.599
11140TIP3    H133365   4.130   3.073   5.675
11140TIP3    H233366   4.232   3.141   5.586
11141TIP3   OH233367   2.475   2.865   2.068
11141TIP3    H133368   2.541   2.832   2.129
11141TIP3    H233369   2.424   2.787   2.044
11142TIP3   OH233370   1.388   1.821   5.677
11142TIP3    H133371   1.327   1.861   5.740
11142TIP3    H233372   1.474   1.856   5.702
11143TIP3   OH233373   1.028   1.549   2.838
11143TIP3    H133374   1.062   1.628   2.798
11143TIP3    H233375   1.099   1.517   2.894
11144TIP3   OH233376   7.135   0.946   0.201
11144TIP3    H133377   7.046   0.975   0.180
11144TIP3    H233378   7.167   0.906   0.120
11145TIP3   OH233379   4.651   3.133   4.386
11145TIP3    H133380   4.674   3.052   4.341
11145TIP3    H233381   4.634   3.105   4.476
11146TIP3   OH233382   6.519   1.792  -0.003
11146TIP3    H133383   6.486   1.871   0.040
11146TIP3    H233384   6.614   1.796   0.012
11147TIP3   OH233385   6.270   0.456   4.879
11147TIP3    H133386   6.268   0.551   4.893
11147TIP3    H233387   6.259   0.446   4.784
11148TIP3   OH233388   3.725   6.441   0.213
11148TIP3    H133389   3.778   6.508   0.256
11148TIP3    H233390   3.695   6.385   0.284
11149TIP3   OH233391   4.478   6.730   3.502
11149TIP3    H133392   4.562   6.699   3.470
11149TIP3    H233393   4.481   6.825   3.491
11150TIP3   OH233394   1.259   7.517   5.386
11150TIP3    H133395   1.194   7.578   5.351
11150TIP3    H233396   1.208   7.441   5.414
11151TIP3   OH233397   5.279   4.397   3.293
11151TIP3    H133398   5.299   4.310   3.327
11151TIP3    H233399   5.365   4.434   3.271
11152TIP3   OH233400   2.496   7.635   6.211
11152TIP3    H133401   2.461   7.723   6.199
11152TIP3    H233402   2.586   7.649   6.241
11153TIP3   OH233403   4.784   7.075   6.588
11153TIP3    H133404   4.823   7.002   6.636
11153TIP3    H233405   4.765   7.039   6.502
11154TIP3   OH233406   6.875   3.016   3.547
11154TIP3    H133407   6.895   3.009   3.640
11154TIP3    H233408   6.805   2.952   3.533
11155TIP3   OH233409   2.808   0.651   5.214
11155TIP3    H133410   2.885   0.707   5.220
11155TIP3    H233411   2.740   0.706   5.175
11156TIP3   OH233412   3.488   4.898   2.481
11156TIP3    H133413   3.489   4.913   2.576
11156TIP3    H233414   3.455   4.980   2.444
11157TIP3   OH233415   1.469   6.354   2.134
11157TIP3    H133416   1.554   6.322   2.165
11157TIP3    H233417   1.469   6.447   2.157
11158TIP3   OH233418   7.192   5.799   4.691
11158TIP3    H133419   7.121   5.741   4.719
11158TIP3    H233420   7.162   5.836   4.608
11159TIP3   OH233421   0.576   1.897   1.287
11159TIP3    H133422   0.511   1.897   1.216
11159TIP3    H233423   0.524   1.902   1.367
11160TIP3   OH233424   2.720   4.354   6.259
11160TIP3    H133425   2.717   4.364   6.354
11160TIP3    H233426   2.682   4.435   6.226
11161TIP3   OH233427   2.294   2.508   4.537
11161TIP3    H133428   2.323   2.585   4.488
11161TIP3    H233429   2.287   2.539   4.628
11162TIP3   OH233430   4.522   6.756   5.865
11162TIP3    H133431   4.540   6.796   5.780
11162TIP3    H233432   4.496   6.666   5.844
11163TIP3   OH233433   0.581   3.233   1.057
11163TIP3    H133434   0.581   3.142   1.088
11163TIP3    H233435   0.667   3.245   1.017
11164TIP3   OH233436   2.102   7.387   0.669
11164TIP3    H133437   2.135   7.466   0.626
11164TIP3    H233438   2.152   7.316   0.629
11165TIP3   OH233439   5.783   5.707   2.210
11165TIP3    H133440   5.869   5.666   2.217
11165TIP3    H233441   5.792   5.791   2.256
11166TIP3   OH233442   7.759   6.145   3.072
11166TIP3    H133443   7.801   6.137   2.986
11166TIP3    H233444   7.813   6.092   3.130
11167TIP3   OH233445   6.685   7.682   6.375
11167TIP3    H133446   6.613   7.739   6.402
11167TIP3    H233447   6.761   7.740   6.369
11168TIP3   OH233448   8.147   2.996   5.628
11168TIP3    H133449   8.058   2.996   5.593
11168TIP3    H233450   8.203   3.004   5.551
11169TIP3   OH233451   1.106   6.230   3.567
11169TIP3    H133452   1.114   6.325   3.559
11169TIP3    H233453   1.196   6.197   3.566
11170TIP3   OH233454   7.243   0.265   4.563
11170TIP3    H133455   7.150   0.284   4.555
11170TIP3    H233456   7.253   0.227   4.650
11171TIP3   OH233457   8.113   6.960   2.968
11171TIP3    H133458   8.099   6.867   2.950
11171TIP3    H233459   8.053   7.005   2.908
11172TIP3   OH233460   7.374   4.122   5.195
11172TIP3    H133461   7.403   4.050   5.250
11172TIP3    H233462   7.447   4.185   5.197
11173TIP3   OH233463   8.262   0.553   3.402
11173TIP3    H133464   8.319   0.512   3.467
11173TIP3    H233465   8.245   0.483   3.338
11174TIP3   OH233466   2.385   6.563   5.277
11174TIP3    H133467   2.289   6.558   5.276
11174TIP3    H233468   2.406   6.581   5.369
11175TIP3   OH233469   0.432   6.882   2.215
11175TIP3    H133470   0.443   6.797   2.259
11175TIP3    H233471   0.521   6.907   2.191
11176TIP3   OH233472   4.771   2.781   3.052
11176TIP3    H133473   4.692   2.736   3.023
11176TIP3    H233474   4.741   2.869   3.076
11177TIP3   OH233475   6.531   1.905   5.525
11177TIP3    H133476   6.451   1.939   5.564
11177TIP3    H233477   6.532   1.813   5.549
11178TIP3   OH233478   4.172   6.188   5.071
11178TIP3    H133479   4.111   6.116   5.089
11178TIP3    H233480   4.161   6.205   4.977
11179TIP3   OH233481   6.627   6.849   4.143
11179TIP3    H133482   6.675   6.926   4.114
11179TIP3    H233483   6.675   6.819   4.220
11180TIP3   OH233484   1.228   2.835   6.581
11180TIP3    H133485   1.289   2.868   6.647
11180TIP3    H233486   1.248   2.742   6.574
11181TIP3   OH233487   5.392   1.279   5.769
11181TIP3    H133488   5.424   1.361   5.733
11181TIP3    H233489   5.407   1.285   5.863
11182TIP3   OH233490   1.181   7.031   4.570
11182TIP3    H133491   1.130   7.012   4.649
11182TIP3    H233492   1.116   7.045   4.502
11183TIP3   OH233493   6.020   0.611   3.532
11183TIP3    H133494   6.075   0.619   3.454
11183TIP3    H233495   6.060   0.541   3.583
11184TIP3   OH233496   8.114   5.944   3.959
11184TIP3    H133497   8.125   6.028   3.915
11184TIP3    H233498   8.203   5.913   3.975
11185TIP3   OH233499   4.555   4.559   1.753
11185TIP3    H133500   4.563   4.535   1.661
11185TIP3    H233501   4.460   4.559   1.770
11186TIP3   OH233502   5.300   4.478   1.429
11186TIP3    H133503   5.360   4.442   1.363
11186TIP3    H233504   5.349   4.475   1.511
11187TIP3   OH233505   7.607   5.024   4.332
11187TIP3    H133506   7.517   5.044   4.307
11187TIP3    H233507   7.658   5.095   4.292
11188TIP3   OH233508   0.691   1.351   5.272
11188TIP3    H133509   0.785   1.369   5.268
11188TIP3    H233510   0.685   1.255   5.270
11189TIP3   OH233511   0.179   6.942   2.101
11189TIP3    H133512   0.228   6.963   2.021
11189TIP3    H233513   0.246   6.915   2.164
11190TIP3   OH233514   8.164   4.563   2.034
11190TIP3    H133515   8.258   4.550   2.044
11190TIP3    H233516   8.150   4.565   1.939
11191TIP3   OH233517   6.176   4.246   5.526
11191TIP3    H133518   6.125   4.207   5.455
11191TIP3    H233519   6.227   4.315   5.483
11192TIP3   OH233520   4.913   1.898   4.830
11192TIP3    H133521   4.922   1.958   4.755
11192TIP3    H233522   4.820   1.901   4.851
11193TIP3   OH233523   6.563   5.333   3.609
11193TIP3    H133524   6.540   5.403   3.547
11193TIP3    H233525   6.644   5.296   3.574
11194TIP3   OH233526  -0.029   3.884   3.021
11194TIP3    H133527  -0.003   3.809   3.074
11194TIP3    H233528   0.042   3.897   2.959
11195TIP3   OH233529   5.947   0.854   0.943
11195TIP3    H133530   5.992   0.776   0.911
11195TIP3    H233531   5.972   0.923   0.880
11196TIP3   OH233532   5.884   4.169   0.894
11196TIP3    H133533   5.906   4.208   0.809
11196TIP3    H233534   5.909   4.235   0.958
11197TIP3   OH233535   1.976   2.658   0.700
11197TIP3    H133536   1.891   2.664   0.656
11197TIP3    H233537   2.040   2.654   0.629
11198TIP3   OH233538   1.915   4.166   0.192
11198TIP3    H133539   1.836   4.186   0.242
11198TIP3    H233540   1.899   4.206   0.107
11199TIP3   OH233541   0.464   2.252   5.837
11199TIP3    H133542   0.422   2.336   5.854
11199TIP3    H233543   0.391   2.192   5.818
11200TIP3   OH233544   5.291   6.449   3.186
11200TIP3    H133545   5.379   6.425   3.215
11200TIP3    H233546   5.252   6.366   3.159
11201TIP3   OH233547   3.861   7.071   6.093
11201TIP3    H133548   3.914   7.109   6.022
11201TIP3    H233549   3.915   7.000   6.127
11202TIP3   OH233550   6.220   0.633   5.536
11202TIP3    H133551   6.222   0.708   5.596
11202TIP3    H233552   6.171   0.566   5.583
11203TIP3   OH233553   1.484   4.155   3.413
11203TIP3    H133554   1.431   4.076   3.423
11203TIP3    H233555   1.556   4.144   3.475
11204TIP3   OH233556   5.774   1.532   6.314
11204TIP3    H133557   5.853   1.586   6.323
11204TIP3    H233558   5.796   1.450   6.356
11205TIP3   OH233559   4.488   4.754   2.497
11205TIP3    H133560   4.484   4.672   2.546
11205TIP3    H233561   4.479   4.822   2.563
11206TIP3   OH233562   4.446   6.440   2.683
11206TIP3    H133563   4.474   6.355   2.649
11206TIP3    H233564   4.356   6.425   2.713
11207TIP3   OH233565   5.972   0.379   0.929
11207TIP3    H133566   5.985   0.316   0.859
11207TIP3    H233567   5.916   0.447   0.891
11208TIP3   OH233568   5.386   0.895   1.587
11208TIP3    H133569   5.324   0.893   1.660
11208TIP3    H233570   5.470   0.872   1.626
11209TIP3   OH233571   8.325   0.453   1.358
11209TIP3    H133572   8.247   0.407   1.327
11209TIP3    H233573   8.350   0.511   1.286
11210TIP3   OH233574   8.082   3.916   3.269
11210TIP3    H133575   8.148   3.852   3.243
11210TIP3    H233576   8.121   4.001   3.246
11211TIP3   OH233577   3.896   5.201   6.125
11211TIP3    H133578   3.952   5.131   6.094
11211TIP3    H233579   3.817   5.196   6.071
11212TIP3   OH233580   6.571   1.838   4.698
11212TIP3    H133581   6.572   1.774   4.769
11212TIP3    H233582   6.523   1.913   4.733
11213TIP3   OH233583   3.544   7.477   2.816
11213TIP3    H133584   3.607   7.537   2.776
11213TIP3    H233585   3.581   7.456   2.901
11214TIP3   OH233586   0.545   2.421   2.442
11214TIP3    H133587   0.596   2.485   2.391
11214TIP3    H233588   0.454   2.441   2.421
11215TIP3   OH233589   0.633   0.836   5.974
11215TIP3    H133590   0.682   0.796   6.045
11215TIP3    H233591   0.640   0.930   5.990
11216TIP3   OH233592   0.309   1.139   1.675
11216TIP3    H133593   0.338   1.137   1.766
11216TIP3    H233594   0.343   1.059   1.636
11217TIP3   OH233595   6.216   7.275   1.502
11217TIP3    H133596   6.133   7.321   1.510
11217TIP3    H233597   6.218   7.215   1.576
11218TIP3   OH233598   4.031   7.382   4.019
11218TIP3    H133599   4.081   7.316   4.068
11218TIP3    H233600   4.066   7.466   4.049
11219TIP3   OH233601   2.155   0.270   3.392
11219TIP3    H133602   2.153   0.364   3.372
11219TIP3    H233603   2.154   0.266   3.488
11220TIP3   OH233604   4.286   1.451   3.633
11220TIP3    H133605   4.295   1.493   3.548
11220TIP3    H233606   4.205   1.401   3.627
11221TIP3   OH233607   5.213   5.186   6.110
11221TIP3    H133608   5.250   5.170   6.023
11221TIP3    H233609   5.271   5.139   6.169
11222TIP3   OH233610   6.453   3.781   5.077
11222TIP3    H133611   6.445   3.686   5.091
11222TIP3    H233612   6.389   3.819   5.136
11223TIP3   OH233613   4.231   1.568   0.134
11223TIP3    H133614   4.281   1.490   0.109
11223TIP3    H233615   4.204   1.607   0.051
11224TIP3   OH233616   6.188   4.811   4.970
11224TIP3    H133617   6.226   4.875   4.910
11224TIP3    H233618   6.152   4.743   4.912
11225TIP3   OH233619   0.312   2.411   1.942
11225TIP3    H133620   0.342   2.357   1.870
11225TIP3    H233621   0.219   2.423   1.927
11226TIP3   OH233622   5.385   3.299   0.680
11226TIP3    H133623   5.474   3.283   0.648
11226TIP3    H233624   5.385   3.392   0.705
11227TIP3   OH233625   0.656   5.147   4.081
11227TIP3    H133626   0.706   5.227   4.090
11227TIP3    H233627   0.607   5.158   4.000
11228TIP3   OH233628   5.612   0.400   2.800
11228TIP3    H133629   5.582   0.344   2.871
11228TIP3    H233630   5.588   0.489   2.828
11229TIP3   OH233631   5.725   2.882   4.056
11229TIP3    H133632   5.642   2.908   4.016
11229TIP3    H233633   5.700   2.851   4.143
11230TIP3   OH233634   7.815   2.313   0.104
11230TIP3    H133635   7.885   2.253   0.077
11230TIP3    H233636   7.741   2.256   0.123
11231TIP3   OH233637   4.471   0.153   4.482
11231TIP3    H133638   4.431   0.117   4.561
11231TIP3    H233639   4.435   0.241   4.474
11232TIP3   OH233640   4.687   3.895   0.045
11232TIP3    H133641   4.745   3.956   0.089
11232TIP3    H233642   4.604   3.902   0.093
11233TIP3   OH233643   7.431   6.076   1.305
11233TIP3    H133644   7.444   6.001   1.247
11233TIP3    H233645   7.355   6.121   1.268
11234TIP3   OH233646   2.177   2.921   2.698
11234TIP3    H133647   2.251   2.898   2.641
11234TIP3    H233648   2.217   2.934   2.784
11235TIP3   OH233649   4.930   0.402   2.893
11235TIP3    H133650   4.945   0.371   2.982
11235TIP3    H233651   4.927   0.322   2.840
11236TIP3   OH233652   0.919   6.256   5.583
11236TIP3    H133653   1.013   6.245   5.596
11236TIP3    H233654   0.882   6.254   5.672
11237TIP3   OH233655   4.369   0.755   5.616
11237TIP3    H133656   4.437   0.820   5.605
11237TIP3    H233657   4.295   0.788   5.564
11238TIP3   OH233658   1.634   6.514   2.417
11238TIP3    H133659   1.721   6.497   2.381
11238TIP3    H233660   1.629   6.460   2.496
11239TIP3   OH233661   7.698   0.156   6.109
11239TIP3    H133662   7.699   0.240   6.155
11239TIP3    H233663   7.767   0.105   6.151
11240TIP3   OH233664   4.996   5.537   4.433
11240TIP3    H133665   4.936   5.499   4.499
11240TIP3    H233666   5.057   5.590   4.484
11241TIP3   OH233667   0.080   2.306   5.878
11241TIP3    H133668   0.015   2.373   5.899
11241TIP3    H233669   0.065   2.237   5.942
11242TIP3   OH233670   2.482   7.357   5.983
11242TIP3    H133671   2.421   7.428   6.003
11242TIP3    H233672   2.552   7.367   6.047
11243TIP3   OH233673   2.665   3.987   5.824
11243TIP3    H133674   2.586   4.037   5.838
11243TIP3    H233675   2.665   3.922   5.894
11244TIP3   OH233676   5.206   2.444   4.490
11244TIP3    H133677   5.263   2.379   4.448
11244TIP3    H233678   5.260   2.523   4.496
11245TIP3   OH233679   2.940   2.865   0.875
11245TIP3    H133680   2.858   2.886   0.831
11245TIP3    H233681   3.001   2.932   0.845
11246TIP3   OH233682   0.660   6.266   6.137
11246TIP3    H133683   0.645   6.240   6.228
11246TIP3    H233684   0.755   6.265   6.127
11247TIP3   OH233685   8.159   5.628   0.373
11247TIP3    H133686   8.111   5.587   0.445
11247TIP3    H233687   8.241   5.657   0.412
11248TIP3   OH233688   4.709   7.236   3.271
11248TIP3    H133689   4.755   7.152   3.271
11248TIP3    H233690   4.763   7.293   3.326
11249TIP3   OH233691   6.796   3.564   2.118
11249TIP3    H133692   6.773   3.494   2.178
11249TIP3    H233693   6.852   3.523   2.052
11250TIP3   OH233694   6.624   1.057   1.097
11250TIP3    H133695   6.676   1.099   1.028
11250TIP3    H233696   6.660   0.969   1.104
11251TIP3   OH233697   4.879   5.521   5.409
11251TIP3    H133698   4.973   5.502   5.417
11251TIP3    H233699   4.867   5.602   5.457
11252TIP3   OH233700   4.926   3.506   2.289
11252TIP3    H133701   4.948   3.514   2.196
11252TIP3    H233702   4.832   3.525   2.293
11253TIP3   OH233703   2.868   7.323   0.023
11253TIP3    H133704   2.831   7.323   0.112
11253TIP3    H233705   2.962   7.316   0.038
11254TIP3   OH233706   1.053   0.682   2.331
11254TIP3    H133707   1.048   0.620   2.405
11254TIP3    H233708   1.080   0.628   2.257
11255TIP3   OH233709   3.203   4.957   2.310
11255TIP3    H133710   3.186   5.034   2.364
11255TIP3    H233711   3.293   4.970   2.279
11256TIP3   OH233712   2.397   3.380   4.988
11256TIP3    H133713   2.398   3.474   5.002
11256TIP3    H233714   2.453   3.345   5.057
11257TIP3   OH233715   7.565   0.485   0.580
11257TIP3    H133716   7.522   0.530   0.653
11257TIP3    H233717   7.618   0.554   0.538
11258TIP3   OH233718   3.951   3.966   2.313
11258TIP3    H133719   3.906   3.997   2.234
11258TIP3    H233720   4.042   3.954   2.285
11259TIP3   OH233721   2.981   3.657   5.263
11259TIP3    H133722   3.070   3.686   5.241
11259TIP3    H233723   2.939   3.735   5.298
11260TIP3   OH233724   2.400   0.685   4.744
11260TIP3    H133725   2.308   0.703   4.764
11260TIP3    H233726   2.399   0.602   4.697
11261TIP3   OH233727   2.045   4.579  -0.023
11261TIP3    H133728   2.089   4.557   0.059
11261TIP3    H233729   2.098   4.650  -0.060
11262TIP3   OH233730   3.012   6.951   3.716
11262TIP3    H133731   3.096   6.907   3.726
11262TIP3    H233732   3.024   7.010   3.641
11263TIP3   OH233733   0.639   6.112   3.261
11263TIP3    H133734   0.585   6.191   3.252
11263TIP3    H233735   0.646   6.099   3.356
11264TIP3   OH233736   6.159   0.250   4.711
11264TIP3    H133737   6.178   0.241   4.804
11264TIP3    H233738   6.071   0.287   4.707
11265TIP3   OH233739   0.618   0.437   6.077
11265TIP3    H133740   0.668   0.371   6.126
11265TIP3    H233741   0.678   0.467   6.009
11266TIP3   OH233742   5.383   4.607   5.142
11266TIP3    H133743   5.330   4.544   5.191
11266TIP3    H233744   5.359   4.692   5.177
11267TIP3   OH233745   2.294   7.203   0.621
11267TIP3    H133746   2.221   7.142   0.613
11267TIP3    H233747   2.348   7.186   0.544
11268TIP3   OH233748   1.274   1.325   4.131
11268TIP3    H133749   1.344   1.380   4.095
11268TIP3    H233750   1.223   1.384   4.186
11269TIP3   OH233751   6.491   3.542   6.469
11269TIP3    H133752   6.562   3.590   6.512
11269TIP3    H233753   6.488   3.578   6.380
11270TIP3   OH233754   4.412   3.742   3.827
11270TIP3    H133755   4.398   3.777   3.739
11270TIP3    H233756   4.328   3.753   3.872
11271TIP3   OH233757   3.617   4.562   0.653
11271TIP3    H133758   3.685   4.517   0.702
11271TIP3    H233759   3.544   4.570   0.715
11272TIP3   OH233760   0.543   6.259   0.562
11272TIP3    H133761   0.570   6.277   0.652
11272TIP3    H233762   0.535   6.346   0.522
11273TIP3   OH233763   3.054   0.917   3.075
11273TIP3    H133764   3.004   0.909   2.994
11273TIP3    H233765   3.028   0.841   3.127
11274TIP3   OH233766   3.161   0.074   2.832
11274TIP3    H133767   3.114   0.057   2.914
11274TIP3    H233768   3.191   0.165   2.841
11275TIP3   OH233769   1.612   1.054   3.667
11275TIP3    H133770   1.539   1.066   3.728
11275TIP3    H233771   1.612   1.133   3.613
11276TIP3   OH233772   0.472   4.849   2.194
11276TIP3    H133773   0.523   4.899   2.131
11276TIP3    H233774   0.476   4.759   2.161
11277TIP3   OH233775   7.851   7.012   4.314
11277TIP3    H133776   7.791   7.011   4.240
11277TIP3    H233777   7.825   6.936   4.367
11278TIP3   OH233778   3.344   0.837   5.508
11278TIP3    H133779   3.365   0.744   5.498
11278TIP3    H233780   3.254   0.845   5.477
11279TIP3   OH233781   2.795   4.130   4.117
11279TIP3    H133782   2.787   4.206   4.175
11279TIP3    H233783   2.706   4.096   4.110
11280TIP3   OH233784   1.093   1.524   4.197
11280TIP3    H133785   1.109   1.618   4.196
11280TIP3    H233786   1.064   1.504   4.109
11281TIP3   OH233787   3.452   0.442   1.967
11281TIP3    H133788   3.404   0.378   2.020
11281TIP3    H233789   3.383   0.486   1.916
11282TIP3   OH233790   4.429   6.443   3.536
11282TIP3    H133791   4.487   6.374   3.567
11282TIP3    H233792   4.487   6.516   3.514
11283TIP3   OH233793   1.569   4.579   1.306
11283TIP3    H133794   1.627   4.548   1.375
11283TIP3    H233795   1.627   4.626   1.246
11284TIP3   OH233796   7.871   6.946   5.253
11284TIP3    H133797   7.775   6.942   5.249
11284TIP3    H233798   7.889   7.033   5.290
11285TIP3   OH233799   3.255   2.435   5.198
11285TIP3    H133800   3.176   2.392   5.166
11285TIP3    H233801   3.252   2.423   5.293
11286TIP3   OH233802   1.430   6.574   5.256
11286TIP3    H133803   1.430   6.669   5.249
11286TIP3    H233804   1.402   6.557   5.346
11287TIP3   OH233805   6.894   6.649   1.605
11287TIP3    H133806   6.871   6.577   1.663
11287TIP3    H233807   6.812   6.697   1.593
11288TIP3   OH233808   5.237   2.313   0.512
11288TIP3    H133809   5.316   2.332   0.461
11288TIP3    H233810   5.218   2.221   0.492
11289TIP3   OH233811   4.121   7.479   2.000
11289TIP3    H133812   4.144   7.390   1.973
11289TIP3    H233813   4.033   7.493   1.965
11290TIP3   OH233814   7.592   5.468   6.735
11290TIP3    H133815   7.652   5.401   6.769
11290TIP3    H233816   7.631   5.494   6.651
11291TIP3   OH233817   4.200   0.797   6.219
11291TIP3    H133818   4.109   0.825   6.211
11291TIP3    H233819   4.201   0.709   6.180
11292TIP3   OH233820   3.300   4.141   3.042
11292TIP3    H133821   3.392   4.116   3.040
11292TIP3    H233822   3.294   4.207   3.111
11293TIP3   OH233823   7.563   2.131   1.005
11293TIP3    H133824   7.522   2.087   1.079
11293TIP3    H233825   7.573   2.062   0.939
11294TIP3   OH233826   2.694   6.843   4.966
11294TIP3    H133827   2.630   6.775   4.985
11294TIP3    H233828   2.779   6.800   4.976
11295TIP3   OH233829   4.382   6.396   3.871
11295TIP3    H133830   4.287   6.394   3.863
11295TIP3    H233831   4.398   6.379   3.964
11296TIP3   OH233832   6.003   4.583   2.753
11296TIP3    H133833   6.082   4.628   2.783
11296TIP3    H233834   5.931   4.628   2.798
11297TIP3   OH233835   0.268   4.450   6.690
11297TIP3    H133836   0.334   4.381   6.685
11297TIP3    H233837   0.234   4.446   6.779
11298TIP3   OH233838   8.272   6.834   0.429
11298TIP3    H133839   8.253   6.922   0.398
11298TIP3    H233840   8.252   6.836   0.523
11299TIP3   OH233841   7.670   2.674   2.823
11299TIP3    H133842   7.660   2.618   2.900
11299TIP3    H233843   7.585   2.671   2.780
11300TIP3   OH233844   5.885   6.852   3.813
11300TIP3    H133845   5.944   6.925   3.835
11300TIP3    H233846   5.797   6.888   3.826
11301TIP3   OH233847   0.811   7.211   5.479
11301TIP3    H133848   0.716   7.226   5.485
11301TIP3    H233849   0.829   7.145   5.546
11302TIP3   OH233850   1.263   1.494   0.463
11302TIP3    H133851   1.259   1.579   0.420
11302TIP3    H233852   1.335   1.448   0.418
11303TIP3   OH233853   3.433   6.104   5.426
11303TIP3    H133854   3.368   6.061   5.481
11303TIP3    H233855   3.422   6.197   5.443
11304TIP3   OH233856   5.096   6.159   1.684
11304TIP3    H133857   5.057   6.073   1.704
11304TIP3    H233858   5.190   6.141   1.678
11305TIP3   OH233859   6.746   1.770   2.240
11305TIP3    H133860   6.815   1.827   2.276
11305TIP3    H233861   6.731   1.804   2.151
11306TIP3   OH233862   2.446   7.514   0.700
11306TIP3    H133863   2.398   7.450   0.753
11306TIP3    H233864   2.385   7.537   0.629
11307TIP3   OH233865   7.397   5.122   3.259
11307TIP3    H133866   7.454   5.046   3.271
11307TIP3    H233867   7.340   5.099   3.185
11308TIP3   OH233868   0.072   3.657   0.022
11308TIP3    H133869   0.099   3.646  -0.070
11308TIP3    H233870   0.152   3.642   0.072
11309TIP3   OH233871   5.621   4.206   1.492
11309TIP3    H133872   5.528   4.188   1.503
11309TIP3    H233873   5.663   4.120   1.489
11310TIP3   OH233874   1.327   3.979   5.723
11310TIP3    H133875   1.390   3.984   5.651
11310TIP3    H233876   1.249   4.024   5.690
11311TIP3   OH233877   5.047   4.922   6.514
11311TIP3    H133878   4.994   4.963   6.582
11311TIP3    H233879   5.135   4.921   6.550
11312TIP3   OH233880   1.175   4.742   1.638
11312TIP3    H133881   1.137   4.655   1.652
11312TIP3    H233882   1.234   4.754   1.713
11313TIP3   OH233883   3.536   3.561   3.497
11313TIP3    H133884   3.574   3.475   3.481
11313TIP3    H233885   3.448   3.543   3.531
11314TIP3   OH233886   2.854   7.316   6.665
11314TIP3    H133887   2.840   7.318   6.570
11314TIP3    H233888   2.942   7.352   6.676
11315TIP3   OH233889   3.708   0.222   5.932
11315TIP3    H133890   3.647   0.294   5.947
11315TIP3    H233891   3.740   0.200   6.020
11316TIP3   OH233892   2.385   6.967   5.410
11316TIP3    H133893   2.411   6.912   5.484
11316TIP3    H233894   2.409   7.056   5.436
11317TIP3   OH233895   1.913   3.559   0.396
11317TIP3    H133896   1.820   3.552   0.377
11317TIP3    H233897   1.929   3.494   0.463
11318TIP3   OH233898   7.018   0.631   4.658
11318TIP3    H133899   7.048   0.542   4.675
11318TIP3    H233900   6.962   0.623   4.580
11319TIP3   OH233901   1.276   4.961   5.131
11319TIP3    H133902   1.252   4.876   5.094
11319TIP3    H233903   1.345   4.993   5.074
11320TIP3   OH233904   1.292   7.586   4.826
11320TIP3    H133905   1.320   7.670   4.863
11320TIP3    H233906   1.223   7.556   4.884
11321TIP3   OH233907   5.810   3.196   4.728
11321TIP3    H133908   5.860   3.236   4.799
11321TIP3    H233909   5.760   3.268   4.690
11322TIP3   OH233910   3.084   2.197   0.323
11322TIP3    H133911   3.046   2.274   0.366
11322TIP3    H233912   3.152   2.167   0.384
11323TIP3   OH233913   2.523   5.209   3.059
11323TIP3    H133914   2.540   5.205   3.154
11323TIP3    H233915   2.473   5.289   3.047
11324TIP3   OH233916   0.789   1.597   1.864
11324TIP3    H133917   0.765   1.504   1.857
11324TIP3    H233918   0.742   1.628   1.942
11325TIP3   OH233919   5.417   2.309   4.838
11325TIP3    H133920   5.400   2.396   4.802
11325TIP3    H233921   5.464   2.326   4.920
11326TIP3   OH233922   6.886   2.631   2.537
11326TIP3    H133923   6.960   2.578   2.504
11326TIP3    H233924   6.818   2.567   2.556
11327TIP3   OH233925   5.333   3.004   5.441
11327TIP3    H133926   5.292   3.039   5.521
11327TIP3    H233927   5.354   3.081   5.389
11328TIP3   OH233928   3.112   5.615   2.188
11328TIP3    H133929   3.181   5.551   2.178
11328TIP3    H233930   3.111   5.664   2.106
11329TIP3   OH233931   5.860   4.227   6.438
11329TIP3    H133932   5.839   4.284   6.364
11329TIP3    H233933   5.813   4.146   6.419
11330TIP3   OH233934   6.594   1.580   1.719
11330TIP3    H133935   6.549   1.564   1.637
11330TIP3    H233936   6.546   1.528   1.784
11331TIP3   OH233937   1.442   7.503   5.176
11331TIP3    H133938   1.416   7.498   5.268
11331TIP3    H233939   1.417   7.591   5.149
11332TIP3   OH233940   7.196   1.610   6.647
11332TIP3    H133941   7.226   1.685   6.698
11332TIP3    H233942   7.101   1.610   6.657
11333TIP3   OH233943   6.512   3.705   6.003
11333TIP3    H133944   6.469   3.647   5.940
11333TIP3    H233945   6.443   3.764   6.033
11334TIP3   OH233946   0.221   5.968   1.605
11334TIP3    H133947   0.162   5.942   1.675
11334TIP3    H233948   0.184   6.049   1.570
11335TIP3   OH233949   0.814   5.237   2.027
11335TIP3    H133950   0.811   5.247   2.122
11335TIP3    H233951   0.845   5.322   1.995
11336TIP3   OH233952   7.018   0.759   6.108
11336TIP3    H133953   7.066   0.790   6.184
11336TIP3    H233954   7.054   0.808   6.035
11337TIP3   OH233955   0.305   1.121   2.618
11337TIP3    H133956   0.224   1.169   2.635
11337TIP3    H233957   0.366   1.155   2.684
11338TIP3   OH233958   7.759   2.708   3.248
11338TIP3    H133959   7.736   2.764   3.323
11338TIP3    H233960   7.676   2.675   3.216
11339TIP3   OH233961   1.108   4.944   6.381
11339TIP3    H133962   1.017   4.915   6.381
11339TIP3    H233963   1.158   4.867   6.355
11340TIP3   OH233964   4.970   2.115   3.649
11340TIP3    H133965   5.045   2.098   3.705
11340TIP3    H233966   4.987   2.064   3.570
11341TIP3   OH233967   0.850   3.789   2.018
11341TIP3    H133968   0.892   3.713   2.057
11341TIP3    H233969   0.922   3.840   1.982
11342TIP3   OH233970   7.934   4.395   6.466
11342TIP3    H133971   7.888   4.366   6.544
11342TIP3    H233972   7.977   4.477   6.493
11343TIP3   OH233973   6.384   7.158   3.241
11343TIP3    H133974   6.316   7.095   3.266
11343TIP3    H233975   6.456   7.103   3.209
11344TIP3   OH233976   0.774   1.865   6.761
11344TIP3    H133977   0.854   1.915   6.779
11344TIP3    H233978   0.790   1.822   6.678
11345TIP3   OH233979   6.303   1.863   3.157
11345TIP3    H133980   6.328   1.855   3.249
11345TIP3    H233981   6.219   1.908   3.158
11346TIP3   OH233982   2.200   3.322   0.196
11346TIP3    H133983   2.114   3.298   0.162
11346TIP3    H233984   2.220   3.406   0.154
11347TIP3   OH233985   2.827   3.603   2.781
11347TIP3    H133986   2.905   3.587   2.728
11347TIP3    H233987   2.815   3.698   2.779
11348TIP3   OH233988   4.645   6.682   6.408
11348TIP3    H133989   4.603   6.602   6.439
11348TIP3    H233990   4.639   6.677   6.313
11349TIP3   OH233991   6.806   0.391   1.518
11349TIP3    H133992   6.719   0.424   1.541
11349TIP3    H233993   6.865   0.434   1.581
11350TIP3   OH233994   0.871   7.534   5.300
11350TIP3    H133995   0.906   7.577   5.377
11350TIP3    H233996   0.887   7.596   5.228
11351TIP3   OH233997   6.468   7.617   1.224
11351TIP3    H133998   6.449   7.591   1.314
11351TIP3    H233999   6.553   7.577   1.205
11352TIP3   OH234000   1.126   4.546   4.747
11352TIP3    H134001   1.055   4.599   4.783
11352TIP3    H234002   1.092   4.456   4.749
11353TIP3   OH234003   7.115   0.968   3.297
11353TIP3    H134004   7.203   1.002   3.313
11353TIP3    H234005   7.062   1.045   3.279
11354TIP3   OH234006   8.330   4.276   1.886
11354TIP3    H134007   8.339   4.364   1.924
11354TIP3    H234008   8.331   4.291   1.791
11355TIP3   OH234009   2.707   1.634   3.430
11355TIP3    H134010   2.613   1.631   3.414
11355TIP3    H234011   2.716   1.676   3.516
11356TIP3   OH234012   4.588   6.957   0.491
11356TIP3    H134013   4.614   6.870   0.460
11356TIP3    H234014   4.525   6.987   0.426
11357TIP3   OH234015   4.933   6.648   2.142
11357TIP3    H134016   4.920   6.558   2.173
11357TIP3    H234017   4.965   6.695   2.218
11358TIP3   OH234018   2.019   5.285   1.023
11358TIP3    H134019   1.942   5.235   0.996
11358TIP3    H234020   1.998   5.318   1.110
11359TIP3   OH234021   6.744   5.123   5.223
11359TIP3    H134022   6.670   5.063   5.233
11359TIP3    H234023   6.703   5.209   5.209
11360TIP3   OH234024   7.282   7.715   0.916
11360TIP3    H134025   7.283   7.630   0.872
11360TIP3    H234026   7.221   7.703   0.988
11361TIP3   OH234027   7.965   6.655   1.389
11361TIP3    H134028   7.882   6.644   1.344
11361TIP3    H234029   7.961   6.593   1.462
11362TIP3   OH234030   7.140   5.829   6.355
11362TIP3    H134031   7.145   5.915   6.397
11362TIP3    H234032   7.174   5.768   6.421
11363TIP3   OH234033   6.433   7.192   4.188
11363TIP3    H134034   6.365   7.126   4.177
11363TIP3    H234035   6.426   7.247   4.110
11364TIP3   OH234036   2.469   0.121   0.339
11364TIP3    H134037   2.526   0.195   0.317
11364TIP3    H234038   2.400   0.123   0.273
11365TIP3   OH234039   6.800   7.395   5.664
11365TIP3    H134040   6.747   7.456   5.611
11365TIP3    H234041   6.762   7.309   5.645
11366TIP3   OH234042   6.442   5.136   2.368
11366TIP3    H134043   6.520   5.105   2.414
11366TIP3    H234044   6.405   5.203   2.425
11367TIP3   OH234045   1.902   0.795   6.652
11367TIP3    H134046   1.864   0.728   6.709
11367TIP3    H234047   1.848   0.872   6.667
11368TIP3   OH234048   6.800   7.106   2.883
11368TIP3    H134049   6.852   7.139   2.810
11368TIP3    H234050   6.826   7.014   2.892
11369TIP3   OH234051   2.695   2.220   3.265
11369TIP3    H134052   2.692   2.170   3.183
11369TIP3    H234053   2.788   2.220   3.289
11370TIP3   OH234054   1.676   4.385   4.772
11370TIP3    H134055   1.602   4.379   4.833
11370TIP3    H234056   1.639   4.425   4.693
11371TIP3   OH234057   5.047   6.540   0.226
11371TIP3    H134058   4.996   6.480   0.281
11371TIP3    H234059   5.006   6.625   0.238
11372TIP3   OH234060   1.806   2.776   1.488
11372TIP3    H134061   1.776   2.688   1.464
11372TIP3    H234062   1.744   2.805   1.554
11373TIP3   OH234063   6.059   7.092   1.651
11373TIP3    H134064   6.059   7.013   1.704
11373TIP3    H234065   6.050   7.163   1.714
11374TIP3   OH234066   5.233   4.607   0.722
11374TIP3    H134067   5.199   4.603   0.811
11374TIP3    H234068   5.270   4.520   0.706
11375TIP3   OH234069   1.722   5.930   4.386
11375TIP3    H134070   1.796   5.971   4.431
11375TIP3    H234071   1.666   5.898   4.457
11376TIP3   OH234072   0.753   2.842   0.539
11376TIP3    H134073   0.748   2.936   0.558
11376TIP3    H234074   0.665   2.820   0.507
11377TIP3   OH234075   2.616   1.081   1.247
11377TIP3    H134076   2.664   1.151   1.293
11377TIP3    H234077   2.625   1.005   1.304
11378TIP3   OH234078   5.251   0.250   1.822
11378TIP3    H134079   5.293   0.204   1.750
11378TIP3    H234080   5.191   0.312   1.779
11379TIP3   OH234081   5.446   7.420   1.941
11379TIP3    H134082   5.480   7.508   1.957
11379TIP3    H234083   5.503   7.384   1.873
11380TIP3   OH234084   7.244   4.930   2.215
11380TIP3    H134085   7.255   5.023   2.235
11380TIP3    H234086   7.293   4.918   2.134
11381TIP3   OH234087   5.484   0.309   6.277
11381TIP3    H134088   5.452   0.231   6.323
11381TIP3    H234089   5.526   0.361   6.346
11382TIP3   OH234090   4.002   0.900   4.129
11382TIP3    H134091   4.013   0.820   4.077
11382TIP3    H234092   3.966   0.964   4.067
11383TIP3   OH234093   2.139   0.675   0.298
11383TIP3    H134094   2.148   0.664   0.392
11383TIP3    H234095   2.169   0.592   0.261
11384TIP3   OH234096   7.217   2.829   0.677
11384TIP3    H134097   7.291   2.794   0.726
11384TIP3    H234098   7.255   2.862   0.596
11385TIP3   OH234099   7.571   0.651   1.883
11385TIP3    H134100   7.562   0.573   1.939
11385TIP3    H234101   7.491   0.651   1.830
11386TIP3   OH234102   8.128   1.751   5.521
11386TIP3    H134103   8.039   1.779   5.502
11386TIP3    H234104   8.182   1.827   5.498
11387TIP3   OH234105   4.001   2.026   6.324
11387TIP3    H134106   3.979   2.073   6.405
11387TIP3    H234107   3.996   2.092   6.255
11388TIP3   OH234108   5.701   1.050   1.584
11388TIP3    H134109   5.733   1.001   1.508
11388TIP3    H234110   5.632   1.106   1.548
11389TIP3   OH234111   7.538   5.132   2.412
11389TIP3    H134112   7.605   5.165   2.473
11389TIP3    H234113   7.587   5.081   2.348
11390TIP3   OH234114   7.541   1.776   2.670
11390TIP3    H134115   7.612   1.723   2.708
11390TIP3    H234116   7.586   1.853   2.634
11391TIP3   OH234117   6.555   1.008   4.210
11391TIP3    H134118   6.521   0.938   4.155
11391TIP3    H234119   6.586   1.074   4.148
11392TIP3   OH234120   1.740   2.232   3.448
11392TIP3    H134121   1.768   2.302   3.508
11392TIP3    H234122   1.773   2.259   3.363
11393TIP3   OH234123   8.260   1.088   2.470
11393TIP3    H134124   8.177   1.065   2.429
11393TIP3    H234125   8.277   1.016   2.532
11394TIP3   OH234126   0.232   2.851   2.997
11394TIP3    H134127   0.327   2.853   2.996
11394TIP3    H234128   0.210   2.804   3.078
11395TIP3   OH234129   3.005   0.252   4.204
11395TIP3    H134130   3.056   0.333   4.200
11395TIP3    H234131   3.000   0.232   4.298
11396TIP3   OH234132   8.164   6.437   1.026
11396TIP3    H134133   8.150   6.527   1.053
11396TIP3    H234134   8.179   6.442   0.931
11397TIP3   OH234135   5.068   3.886   0.791
11397TIP3    H134136   5.004   3.905   0.860
11397TIP3    H234137   5.147   3.860   0.837
11398TIP3   OH234138   3.917   0.496   5.984
11398TIP3    H134139   3.912   0.408   5.946
11398TIP3    H234140   3.916   0.555   5.908
11399TIP3   OH234141   1.945   1.580   2.020
11399TIP3    H134142   2.016   1.639   2.045
11399TIP3    H234143   1.968   1.551   1.932
11400TIP3   OH234144   1.804   6.729   4.657
11400TIP3    H134145   1.792   6.801   4.719
11400TIP3    H234146   1.851   6.662   4.707
11401TIP3   OH234147   1.557   3.793   2.080
11401TIP3    H134148   1.492   3.757   2.019
11401TIP3    H234149   1.552   3.887   2.066
11402TIP3   OH234150   2.130   3.151   6.265
11402TIP3    H134151   2.120   3.189   6.352
11402TIP3    H234152   2.155   3.060   6.281
11403TIP3   OH234153   3.831   7.572   3.738
11403TIP3    H134154   3.767   7.643   3.734
11403TIP3    H234155   3.908   7.611   3.779
11404TIP3   OH234156   6.707   0.370   5.785
11404TIP3    H134157   6.702   0.406   5.697
11404TIP3    H234158   6.670   0.437   5.841
11405TIP3   OH234159   4.767   6.725   1.714
11405TIP3    H134160   4.740   6.702   1.803
11405TIP3    H234161   4.861   6.738   1.719
11406TIP3   OH234162   1.307   4.281   6.470
11406TIP3    H134163   1.403   4.279   6.461
11406TIP3    H234164   1.277   4.204   6.421
11407TIP3   OH234165   5.864   5.254   0.327
11407TIP3    H134166   5.925   5.180   0.324
11407TIP3    H234167   5.801   5.231   0.395
11408TIP3   OH234168   4.186   4.512   0.833
11408TIP3    H134169   4.101   4.542   0.866
11408TIP3    H234170   4.241   4.591   0.834
11409TIP3   OH234171   5.606   5.784   1.121
11409TIP3    H134172   5.540   5.754   1.059
11409TIP3    H234173   5.690   5.760   1.081
11410TIP3   OH234174   7.561   3.892   4.681
11410TIP3    H134175   7.487   3.849   4.724
11410TIP3    H234176   7.572   3.844   4.599
11411TIP3   OH234177   4.461   6.211   4.457
11411TIP3    H134178   4.421   6.294   4.482
11411TIP3    H234179   4.497   6.176   4.538
11412TIP3   OH234180   8.097   3.627   3.012
11412TIP3    H134181   8.102   3.582   3.096
11412TIP3    H234182   8.130   3.715   3.029
11413TIP3   OH234183   6.802   5.228   6.277
11413TIP3    H134184   6.811   5.133   6.270
11413TIP3    H234185   6.888   5.258   6.307
11414TIP3   OH234186   0.109   0.351   5.118
11414TIP3    H134187   0.152   0.311   5.193
11414TIP3    H234188   0.140   0.442   5.118
11415TIP3   OH234189   2.593   0.494   1.046
11415TIP3    H134190   2.590   0.542   1.129
11415TIP3    H234191   2.621   0.406   1.070
11416TIP3   OH234192   6.595   3.631   0.536
11416TIP3    H134193   6.568   3.543   0.507
11416TIP3    H234194   6.666   3.615   0.598
11417TIP3   OH234195   4.973   4.188   6.420
11417TIP3    H134196   5.032   4.189   6.344
11417TIP3    H234197   4.915   4.263   6.407
11418TIP3   OH234198   5.106   6.949   5.353
11418TIP3    H134199   5.063   6.878   5.401
11418TIP3    H234200   5.049   7.024   5.364
11419TIP3   OH234201   0.800   7.040   5.711
11419TIP3    H134202   0.861   7.024   5.783
11419TIP3    H234203   0.713   7.034   5.751
11420TIP3   OH234204   5.902   2.427   6.616
11420TIP3    H134205   5.855   2.392   6.692
11420TIP3    H234206   5.962   2.356   6.591
11421TIP3   OH234207   5.916   2.950   5.244
11421TIP3    H134208   5.936   3.029   5.195
11421TIP3    H234209   5.938   2.971   5.334
11422TIP3   OH234210   2.263   5.526   5.127
11422TIP3    H134211   2.342   5.580   5.132
11422TIP3    H234212   2.239   5.528   5.034
11423TIP3   OH234213   3.922   6.387   6.142
11423TIP3    H134214   3.937   6.341   6.060
11423TIP3    H234215   3.990   6.454   6.145
11424TIP3   OH234216   6.480   4.730   0.996
11424TIP3    H134217   6.391   4.696   1.003
11424TIP3    H234218   6.530   4.678   1.059
11425TIP3   OH234219   3.549   0.974   1.158
11425TIP3    H134220   3.621   1.018   1.113
11425TIP3    H234221   3.552   0.884   1.126
11426TIP3   OH234222   7.811   6.023   4.840
11426TIP3    H134223   7.793   6.034   4.746
11426TIP3    H234224   7.768   6.097   4.882
11427TIP3   OH234225   6.844   3.323   2.964
11427TIP3    H134226   6.850   3.418   2.967
11427TIP3    H234227   6.918   3.293   3.017
11428TIP3   OH234228   6.694   7.330   3.777
11428TIP3    H134229   6.673   7.399   3.840
11428TIP3    H234230   6.706   7.376   3.694
11429TIP3   OH234231   2.639   6.831   0.566
11429TIP3    H134232   2.553   6.798   0.590
11429TIP3    H234233   2.692   6.753   0.552
11430TIP3   OH234234   4.521   0.785   1.961
11430TIP3    H134235   4.609   0.790   1.922
11430TIP3    H234236   4.466   0.751   1.890
11431TIP3   OH234237   0.196   0.218   5.366
11431TIP3    H134238   0.156   0.132   5.380
11431TIP3    H234239   0.278   0.215   5.414
11432TIP3   OH234240   6.220   5.920   3.769
11432TIP3    H134241   6.245   5.931   3.677
11432TIP3    H234242   6.128   5.948   3.772
11433TIP3   OH234243   1.044   5.308   2.598
11433TIP3    H134244   1.083   5.265   2.673
11433TIP3    H234245   1.073   5.256   2.523
11434TIP3   OH234246   5.822   1.430   4.804
11434TIP3    H134247   5.864   1.515   4.800
11434TIP3    H234248   5.753   1.434   4.738
11435TIP3   OH234249   0.909   4.955   0.586
11435TIP3    H134250   0.839   4.934   0.525
11435TIP3    H234251   0.937   4.871   0.621
11436TIP3   OH234252   3.747   2.719   6.657
11436TIP3    H134253   3.655   2.727   6.633
11436TIP3    H234254   3.788   2.798   6.623
11437TIP3   OH234255   1.179   4.957   0.842
11437TIP3    H134256   1.275   4.964   0.836
11437TIP3    H234257   1.147   5.024   0.781
11438TIP3   OH234258   3.957   2.973   6.775
11438TIP3    H134259   3.916   2.976   6.689
11438TIP3    H234260   3.919   2.896   6.817
11439TIP3   OH234261   0.236   1.756   6.326
11439TIP3    H134262   0.301   1.814   6.286
11439TIP3    H234263   0.182   1.726   6.253
11440TIP3   OH234264   5.586   5.454   0.693
11440TIP3    H134265   5.561   5.457   0.600
11440TIP3    H234266   5.520   5.508   0.737
11441TIP3   OH234267   2.210   4.134   5.382
11441TIP3    H134268   2.289   4.165   5.339
11441TIP3    H234269   2.139   4.185   5.342
11442TIP3   OH234270   1.929   7.612   0.851
11442TIP3    H134271   1.979   7.540   0.813
11442TIP3    H234272   1.839   7.580   0.853
11443TIP3   OH234273   7.447   3.326   3.690
11443TIP3    H134274   7.404   3.405   3.723
11443TIP3    H234275   7.411   3.256   3.744
11444TIP3   OH234276   6.203   1.656   6.008
11444TIP3    H134277   6.172   1.746   6.002
11444TIP3    H234278   6.265   1.647   5.936
11445TIP3   OH234279   7.778   0.687   1.001
11445TIP3    H134280   7.765   0.642   1.085
11445TIP3    H234281   7.759   0.779   1.020
11446TIP3   OH234282   6.851   0.840   2.143
11446TIP3    H134283   6.836   0.914   2.201
11446TIP3    H234284   6.841   0.876   2.055
11447TIP3   OH234285   0.450   0.658   2.807
11447TIP3    H134286   0.390   0.676   2.879
11447TIP3    H234287   0.436   0.730   2.746
11448TIP3   OH234288   7.505   5.023   5.822
11448TIP3    H134289   7.557   4.947   5.795
11448TIP3    H234290   7.502   5.018   5.917
11449TIP3   OH234291   3.690   1.928   3.273
11449TIP3    H134292   3.663   1.871   3.201
11449TIP3    H234293   3.715   1.867   3.343
11450TIP3   OH234294   8.258   1.174   6.443
11450TIP3    H134295   8.326   1.170   6.375
11450TIP3    H234296   8.221   1.086   6.444
11451TIP3   OH234297   6.061   4.898   2.594
11451TIP3    H134298   5.985   4.856   2.634
11451TIP3    H234299   6.061   4.867   2.503
11452TIP3   OH234300   1.084   0.074   2.552
11452TIP3    H134301   1.073   0.168   2.571
11452TIP3    H234302   1.117   0.037   2.634
11453TIP3   OH234303   0.171   1.696   4.616
11453TIP3    H134304   0.266   1.701   4.629
11453TIP3    H234305   0.138   1.659   4.698
11454TIP3   OH234306   4.031   7.378   4.737
11454TIP3    H134307   3.966   7.363   4.805
11454TIP3    H234308   4.110   7.334   4.768
11455TIP3   OH234309   6.452   1.164   2.805
11455TIP3    H134310   6.366   1.121   2.806
11455TIP3    H234311   6.487   1.143   2.718
11456TIP3   OH234312   6.010   6.915   1.329
11456TIP3    H134313   5.983   6.940   1.418
11456TIP3    H234314   5.984   6.823   1.321
11457TIP3   OH234315   7.238   1.475   6.013
11457TIP3    H134316   7.174   1.462   5.944
11457TIP3    H234317   7.298   1.542   5.978
11458TIP3   OH234318   6.108   6.434   3.989
11458TIP3    H134319   6.045   6.473   4.050
11458TIP3    H234320   6.116   6.498   3.919
11459TIP3   OH234321   2.672   4.714   2.708
11459TIP3    H134322   2.726   4.639   2.683
11459TIP3    H234323   2.624   4.736   2.628
11460TIP3   OH234324   0.035   5.732   1.429
11460TIP3    H134325   0.103   5.667   1.445
11460TIP3    H234326  -0.038   5.705   1.485
11461TIP3   OH234327   1.244   3.350   0.457
11461TIP3    H134328   1.203   3.433   0.482
11461TIP3    H234329   1.186   3.312   0.392
11462TIP3   OH234330   7.679   1.984   5.558
11462TIP3    H134331   7.592   1.950   5.537
11462TIP3    H234332   7.665   2.078   5.568
11463TIP3   OH234333   6.152   2.426   1.904
11463TIP3    H134334   6.074   2.431   1.849
11463TIP3    H234335   6.133   2.358   1.968
11464TIP3   OH234336   0.172   3.935   6.110
11464TIP3    H134337   0.186   3.942   6.016
11464TIP3    H234338   0.082   3.964   6.123
11465TIP3   OH234339   0.928   3.239   1.770
11465TIP3    H134340   0.946   3.267   1.860
11465TIP3    H234341   0.876   3.310   1.733
11466TIP3   OH234342   7.691   1.089   6.532
11466TIP3    H134343   7.627   1.073   6.463
11466TIP3    H234344   7.774   1.099   6.485
11467TIP3   OH234345   2.851   3.318   6.201
11467TIP3    H134346   2.774   3.334   6.146
11467TIP3    H234347   2.816   3.279   6.281
11468TIP3   OH234348   2.747   7.088   3.677
11468TIP3    H134349   2.841   7.072   3.670
11468TIP3    H234350   2.725   7.063   3.767
11469TIP3   OH234351   3.567   2.626   3.540
11469TIP3    H134352   3.571   2.713   3.580
11469TIP3    H234353   3.652   2.586   3.562
11470TIP3   OH234354   4.205   2.153   1.454
11470TIP3    H134355   4.253   2.072   1.469
11470TIP3    H234356   4.195   2.158   1.359
11471TIP3   OH234357   5.386   0.909   3.675
11471TIP3    H134358   5.315   0.972   3.679
11471TIP3    H234359   5.343   0.823   3.678
11472TIP3   OH234360   2.251   3.281   2.672
11472TIP3    H134361   2.304   3.202   2.661
11472TIP3    H234362   2.234   3.311   2.582
11473TIP3   OH234363   2.456   5.821   1.641
11473TIP3    H134364   2.501   5.858   1.565
11473TIP3    H234365   2.423   5.897   1.689
11474TIP3   OH234366   7.761   2.181   4.484
11474TIP3    H134367   7.842   2.180   4.433
11474TIP3    H234368   7.789   2.161   4.574
11475TIP3   OH234369   7.235   6.392   2.079
11475TIP3    H134370   7.287   6.455   2.029
11475TIP3    H234371   7.220   6.434   2.164
11476TIP3   OH234372   6.328   3.213   5.983
11476TIP3    H134373   6.396   3.274   6.010
11476TIP3    H234374   6.328   3.145   6.051
11477TIP3   OH234375   3.511   7.718   0.713
11477TIP3    H134376   3.456   7.665   0.770
11477TIP3    H234377   3.599   7.680   0.723
11478TIP3   OH234378   2.838   4.599   1.697
11478TIP3    H134379   2.802   4.638   1.777
11478TIP3    H234380   2.761   4.571   1.648
11479TIP3   OH234381   5.087   6.301   4.672
11479TIP3    H134382   5.014   6.363   4.671
11479TIP3    H234383   5.134   6.319   4.591
11480TIP3   OH234384   2.945   1.406   1.879
11480TIP3    H134385   2.918   1.498   1.875
11480TIP3    H234386   3.039   1.410   1.899
11481TIP3   OH234387   0.397   3.902   2.749
11481TIP3    H134388   0.489   3.908   2.774
11481TIP3    H234389   0.356   3.856   2.821
11482TIP3   OH234390   5.502   0.420   5.654
11482TIP3    H134391   5.575   0.370   5.691
11482TIP3    H234392   5.449   0.354   5.608
11483TIP3   OH234393   0.579   4.914   0.852
11483TIP3    H134394   0.595   4.921   0.758
11483TIP3    H234395   0.598   4.822   0.873
11484TIP3   OH234396   1.355   2.709   4.317
11484TIP3    H134397   1.297   2.714   4.241
11484TIP3    H234398   1.435   2.753   4.288
11485TIP3   OH234399   7.093   6.155   2.045
11485TIP3    H134400   7.065   6.137   2.135
11485TIP3    H234401   7.139   6.239   2.051
11486TIP3   OH234402   2.441   0.936   3.638
11486TIP3    H134403   2.535   0.928   3.652
11486TIP3    H234404   2.430   1.013   3.582
11487TIP3   OH234405   2.858   3.509   0.603
11487TIP3    H134406   2.775   3.553   0.622
11487TIP3    H234407   2.874   3.454   0.680
11488TIP3   OH234408   2.841   4.262   1.221
11488TIP3    H134409   2.931   4.285   1.243
11488TIP3    H234410   2.846   4.171   1.192
11489TIP3   OH234411   1.017   3.444   4.013
11489TIP3    H134412   0.922   3.436   4.018
11489TIP3    H234413   1.033   3.538   4.004
11490TIP3   OH234414   0.865   4.772   4.515
11490TIP3    H134415   0.879   4.850   4.569
11490TIP3    H234416   0.952   4.731   4.509
11491TIP3   OH234417   5.801   1.121   4.826
11491TIP3    H134418   5.830   1.212   4.824
11491TIP3    H234419   5.880   1.070   4.810
11492TIP3   OH234420   4.903   2.208   2.515
11492TIP3    H134421   4.967   2.154   2.561
11492TIP3    H234422   4.903   2.292   2.562
11493TIP3   OH234423   7.129   2.837   3.258
11493TIP3    H134424   7.084   2.757   3.229
11493TIP3    H234425   7.074   2.908   3.227
11494TIP3   OH234426   4.833   7.203   1.194
11494TIP3    H134427   4.788   7.191   1.111
11494TIP3    H234428   4.861   7.115   1.219
11495TIP3   OH234429   0.274   3.158   5.419
11495TIP3    H134430   0.271   3.235   5.362
11495TIP3    H234431   0.361   3.161   5.459
11496TIP3   OH234432   1.086   4.784   2.318
11496TIP3    H134433   1.162   4.841   2.310
11496TIP3    H234434   1.115   4.699   2.284
11497TIP3   OH234435   4.703   3.369   4.263
11497TIP3    H134436   4.680   3.368   4.170
11497TIP3    H234437   4.654   3.296   4.301
11498TIP3   OH234438   3.412   3.085   6.431
11498TIP3    H134439   3.322   3.053   6.435
11498TIP3    H234440   3.465   3.006   6.415
11499TIP3   OH234441   4.417   1.194   0.625
11499TIP3    H134442   4.407   1.099   0.633
11499TIP3    H234443   4.466   1.206   0.544
11500TIP3   OH234444   8.061   2.512   5.927
11500TIP3    H134445   8.044   2.448   5.857
11500TIP3    H234446   8.019   2.474   6.004
11501TIP3   OH234447   4.585   4.976   2.051
11501TIP3    H134448   4.592   4.954   1.958
11501TIP3    H234449   4.538   5.059   2.053
11502TIP3   OH234450   4.942   1.360   3.951
11502TIP3    H134451   4.933   1.426   4.021
11502TIP3    H234452   5.021   1.311   3.975
11503TIP3   OH234453   1.554   4.441   4.532
11503TIP3    H134454   1.595   4.484   4.458
11503TIP3    H234455   1.465   4.421   4.502
11504TIP3   OH234456   4.467   6.479   5.849
11504TIP3    H134457   4.532   6.443   5.910
11504TIP3    H234458   4.426   6.402   5.810
11505TIP3   OH234459   1.461   5.765   0.463
11505TIP3    H134460   1.498   5.741   0.548
11505TIP3    H234461   1.527   5.820   0.422
11506TIP3   OH234462   6.318   0.683   3.707
11506TIP3    H134463   6.367   0.733   3.642
11506TIP3    H234464   6.280   0.611   3.658
11507TIP3   OH234465   2.436   3.545   3.932
11507TIP3    H134466   2.469   3.573   3.847
11507TIP3    H234467   2.363   3.487   3.912
11508TIP3   OH234468   8.240   4.900   3.169
11508TIP3    H134469   8.222   4.913   3.263
11508TIP3    H234470   8.172   4.839   3.140
11509TIP3   OH234471   8.273   6.088  -0.015
11509TIP3    H134472   8.252   6.161   0.044
11509TIP3    H234473   8.344   6.042   0.030
11510TIP3   OH234474   1.300   1.963   6.089
11510TIP3    H134475   1.249   1.994   6.164
11510TIP3    H234476   1.386   2.003   6.100
11511TIP3   OH234477   0.937   5.961   2.918
11511TIP3    H134478   0.896   6.019   2.982
11511TIP3    H234479   0.868   5.944   2.853
11512TIP3   OH234480   7.353   6.724   5.391
11512TIP3    H134481   7.320   6.704   5.479
11512TIP3    H234482   7.358   6.639   5.348
11513TIP3   OH234483   4.203   6.777   5.622
11513TIP3    H134484   4.252   6.859   5.626
11513TIP3    H234485   4.147   6.786   5.545
11514TIP3   OH234486   2.905   7.354   5.460
11514TIP3    H134487   2.856   7.346   5.542
11514TIP3    H234488   2.994   7.325   5.482
11515TIP3   OH234489   3.121   6.712   2.169
11515TIP3    H134490   3.133   6.776   2.099
11515TIP3    H234491   3.051   6.747   2.223
11516TIP3   OH234492   7.737   0.532   4.482
11516TIP3    H134493   7.690   0.593   4.539
11516TIP3    H234494   7.675   0.461   4.465
11517TIP3   OH234495   8.028   1.246   4.715
11517TIP3    H134496   8.054   1.296   4.793
11517TIP3    H234497   7.936   1.224   4.732
11518TIP3   OH234498   4.877   1.817   5.683
11518TIP3    H134499   4.972   1.812   5.675
11518TIP3    H234500   4.848   1.864   5.605
11519TIP3   OH234501   5.095   4.438   2.628
11519TIP3    H134502   5.033   4.489   2.680
11519TIP3    H234503   5.118   4.494   2.555
11520TIP3   OH234504   6.963   6.407   5.208
11520TIP3    H134505   6.910   6.424   5.130
11520TIP3    H234506   6.903   6.366   5.270
11521TIP3   OH234507   3.694   0.346   3.814
11521TIP3    H134508   3.679   0.429   3.768
11521TIP3    H234509   3.721   0.286   3.744
11522TIP3   OH234510   6.457   7.716   6.544
11522TIP3    H134511   6.530   7.686   6.599
11522TIP3    H234512   6.424   7.636   6.504
11523TIP3   OH234513   2.413   6.794   1.522
11523TIP3    H134514   2.481   6.731   1.546
11523TIP3    H234515   2.335   6.763   1.569
11524TIP3   OH234516   5.339   0.952   4.381
11524TIP3    H134517   5.396   0.919   4.311
11524TIP3    H234518   5.351   1.047   4.379
11525TIP3   OH234519   7.435   1.556   4.933
11525TIP3    H134520   7.396   1.629   4.980
11525TIP3    H234521   7.406   1.568   4.842
11526TIP3   OH234522   1.704   5.332   3.161
11526TIP3    H134523   1.721   5.264   3.226
11526TIP3    H234524   1.787   5.381   3.155
11527TIP3   OH234525   6.346   6.116   6.120
11527TIP3    H134526   6.324   6.057   6.048
11527TIP3    H234527   6.279   6.099   6.186
11528TIP3   OH234528   7.384   5.371   3.540
11528TIP3    H134529   7.431   5.335   3.616
11528TIP3    H234530   7.454   5.406   3.485
11529TIP3   OH234531   5.314   1.667   1.696
11529TIP3    H134532   5.294   1.661   1.603
11529TIP3    H234533   5.229   1.657   1.740
11530TIP3   OH234534   4.838   5.226   5.625
11530TIP3    H134535   4.911   5.287   5.638
11530TIP3    H234536   4.877   5.139   5.633
11531TIP3   OH234537   1.447   3.274   0.301
11531TIP3    H134538   1.377   3.281   0.366
11531TIP3    H234539   1.429   3.345   0.239
11532TIP3   OH234540   6.852   4.948   1.471
11532TIP3    H134541   6.948   4.948   1.469
11532TIP3    H234542   6.829   4.899   1.550
11533TIP3   OH234543   4.571   0.049   2.759
11533TIP3    H134544   4.611   0.132   2.786
11533TIP3    H234545   4.488   0.075   2.719
11534TIP3   OH234546   6.429   6.080   4.750
11534TIP3    H134547   6.415   6.020   4.676
11534TIP3    H234548   6.479   6.153   4.713
11535TIP3   OH234549   5.745   7.054   3.494
11535TIP3    H134550   5.833   7.023   3.515
11535TIP3    H234551   5.757   7.144   3.464
11536TIP3   OH234552   6.010   7.496   2.764
11536TIP3    H134553   6.069   7.425   2.739
11536TIP3    H234554   6.061   7.550   2.823
11537TIP3   OH234555   7.203   4.355   0.839
11537TIP3    H134556   7.274   4.401   0.794
11537TIP3    H234557   7.231   4.264   0.841
11538TIP3   OH234558   5.919   6.041   2.132
11538TIP3    H134559   5.845   6.009   2.184
11538TIP3    H234560   5.945   6.122   2.175
11539TIP3   OH234561   8.026   1.711   0.838
11539TIP3    H134562   8.018   1.627   0.792
11539TIP3    H234563   8.075   1.691   0.917
11540TIP3   OH234564   3.901   2.136   5.458
11540TIP3    H134565   3.862   2.051   5.479
11540TIP3    H234566   3.829   2.185   5.418
11541TIP3   OH234567   1.055   5.460   4.487
11541TIP3    H134568   1.035   5.553   4.492
11541TIP3    H234569   1.050   5.429   4.577
11542TIP3   OH234570   7.785   7.394   1.796
11542TIP3    H134571   7.861   7.355   1.753
11542TIP3    H234572   7.751   7.457   1.733
11543TIP3   OH234573   0.777   7.305   2.235
11543TIP3    H134574   0.823   7.266   2.309
11543TIP3    H234575   0.701   7.349   2.272
11544TIP3   OH234576   2.097   5.083   3.996
11544TIP3    H134577   2.165   5.021   3.969
11544TIP3    H234578   2.036   5.031   4.048
11545TIP3   OH234579   5.562   1.052   6.351
11545TIP3    H134580   5.567   1.030   6.258
11545TIP3    H234581   5.521   1.139   6.353
11546TIP3   OH234582   3.742   5.621   2.494
11546TIP3    H134583   3.730   5.710   2.462
11546TIP3    H234584   3.662   5.601   2.542
11547TIP3   OH234585   5.657   2.472   3.040
11547TIP3    H134586   5.728   2.419   3.077
11547TIP3    H234587   5.687   2.492   2.951
11548TIP3   OH234588   6.778   6.916   1.262
11548TIP3    H134589   6.823   6.891   1.181
11548TIP3    H234590   6.718   6.843   1.279
11549TIP3   OH234591   4.773   2.484   2.382
11549TIP3    H134592   4.822   2.455   2.459
11549TIP3    H234593   4.839   2.497   2.314
11550TIP3   OH234594   4.942   4.844   3.210
11550TIP3    H134595   4.988   4.761   3.222
11550TIP3    H234596   4.938   4.882   3.297
11551TIP3   OH234597   0.190   2.958   0.819
11551TIP3    H134598   0.125   3.027   0.834
11551TIP3    H234599   0.271   3.004   0.802
11552TIP3   OH234600   2.913   4.141   0.607
11552TIP3    H134601   2.926   4.143   0.512
11552TIP3    H234602   2.845   4.207   0.622
11553TIP3   OH234603   6.100   3.284   5.857
11553TIP3    H134604   6.077   3.374   5.883
11553TIP3    H234605   6.176   3.263   5.912
11554TIP3   OH234606   4.904   7.255   0.377
11554TIP3    H134607   4.871   7.322   0.317
11554TIP3    H234608   4.914   7.301   0.461
11555TIP3   OH234609   6.935   4.180   4.009
11555TIP3    H134610   6.982   4.261   4.026
11555TIP3    H234611   6.908   4.150   4.096
11556TIP3   OH234612   1.075   0.408   5.512
11556TIP3    H134613   1.051   0.318   5.491
11556TIP3    H234614   1.016   0.462   5.460
11557TIP3   OH234615   5.504   2.156   1.014
11557TIP3    H134616   5.502   2.061   1.022
11557TIP3    H234617   5.566   2.173   0.944
11558TIP3   OH234618   7.113   7.551   2.722
11558TIP3    H134619   7.198   7.563   2.764
11558TIP3    H234620   7.050   7.546   2.795
11559TIP3   OH234621   6.065   7.646   6.036
11559TIP3    H134622   6.093   7.555   6.036
11559TIP3    H234623   6.030   7.661   5.948
11560TIP3   OH234624   2.332   1.151   3.490
11560TIP3    H134625   2.417   1.192   3.472
11560TIP3    H234626   2.272   1.224   3.504
11561TIP3   OH234627   4.171   0.522   0.798
11561TIP3    H134628   4.111   0.476   0.857
11561TIP3    H234629   4.244   0.461   0.787
11562TIP3   OH234630   3.218   6.865   4.087
11562TIP3    H134631   3.195   6.885   3.996
11562TIP3    H234632   3.136   6.869   4.135
11563TIP3   OH234633   3.356   2.819   6.324
11563TIP3    H134634   3.280   2.866   6.360
11563TIP3    H234635   3.324   2.730   6.311
11564TIP3   OH234636   2.837   0.940   5.387
11564TIP3    H134637   2.887   0.860   5.369
11564TIP3    H234638   2.753   0.927   5.343
11565TIP3   OH234639   7.832   4.441   0.552
11565TIP3    H134640   7.922   4.412   0.537
11565TIP3    H234641   7.838   4.500   0.627
11566TIP3   OH234642  -0.023   3.018   5.021
11566TIP3    H134643   0.072   3.030   5.014
11566TIP3    H234644  -0.034   2.952   5.089
11567TIP3   OH234645   7.685   0.054   5.171
11567TIP3    H134646   7.702  -0.039   5.152
11567TIP3    H234647   7.769   0.088   5.200
11568TIP3   OH234648   6.992   3.692   5.687
11568TIP3    H134649   7.060   3.648   5.635
11568TIP3    H234650   6.955   3.757   5.628
11569TIP3   OH234651   0.519   3.868   2.267
11569TIP3    H134652   0.578   3.890   2.194
11569TIP3    H234653   0.434   3.904   2.241
11570TIP3   OH234654   5.466   5.205   3.043
11570TIP3    H134655   5.403   5.215   3.114
11570TIP3    H234656   5.435   5.131   2.992
11571TIP3   OH234657   2.313   7.174   4.877
11571TIP3    H134658   2.220   7.153   4.877
11571TIP3    H234659   2.334   7.190   4.969
11572TIP3   OH234660   6.221   3.559   3.213
11572TIP3    H134661   6.221   3.653   3.230
11572TIP3    H234662   6.177   3.521   3.290
11573TIP3   OH234663   6.572   0.564   1.526
11573TIP3    H134664   6.634   0.619   1.574
11573TIP3    H234665   6.508   0.626   1.490
11574TIP3   OH234666   5.369   1.818   1.296
11574TIP3    H134667   5.286   1.860   1.319
11574TIP3    H234668   5.367   1.811   1.201
11575TIP3   OH234669   3.032   7.593   2.720
11575TIP3    H134670   3.114   7.594   2.769
11575TIP3    H234671   2.987   7.514   2.751
11576TIP3   OH234672   1.100   6.395   4.329
11576TIP3    H134673   1.155   6.373   4.405
11576TIP3    H234674   1.148   6.359   4.254
11577TIP3   OH234675   0.123   2.321   4.604
11577TIP3    H134676   0.052   2.340   4.665
11577TIP3    H234677   0.090   2.352   4.519
11578TIP3   OH234678   3.919   7.368   5.687
11578TIP3    H134679   3.847   7.375   5.624
11578TIP3    H234680   3.878   7.331   5.765
11579TIP3   OH234681   6.869   6.966   5.476
11579TIP3    H134682   6.804   7.018   5.522
11579TIP3    H234683   6.875   6.885   5.526
11580TIP3   OH234684   5.132   1.764   0.318
11580TIP3    H134685   5.082   1.748   0.238
11580TIP3    H234686   5.199   1.826   0.292
11581TIP3   OH234687   7.050   5.066   6.653
11581TIP3    H134688   6.959   5.067   6.622
11581TIP3    H234689   7.098   5.018   6.586
11582TIP3   OH234690   2.715   6.313   0.445
11582TIP3    H134691   2.759   6.233   0.420
11582TIP3    H234692   2.635   6.284   0.489
11583TIP3   OH234693   6.739   3.572   2.852
11583TIP3    H134694   6.815   3.603   2.804
11583TIP3    H234695   6.763   3.581   2.944
11584TIP3   OH234696   7.728   6.831   3.896
11584TIP3    H134697   7.817   6.863   3.881
11584TIP3    H234698   7.733   6.784   3.979
11585TIP3   OH234699   0.552   6.461   5.579
11585TIP3    H134700   0.606   6.531   5.617
11585TIP3    H234701   0.517   6.414   5.655
11586TIP3   OH234702   7.189   7.821   0.186
11586TIP3    H134703   7.162   7.841   0.096
11586TIP3    H234704   7.141   7.742   0.209
11587TIP3   OH234705   2.871   4.374   4.430
11587TIP3    H134706   2.866   4.286   4.393
11587TIP3    H234707   2.781   4.395   4.455
11588TIP3   OH234708   1.369   3.566   3.348
11588TIP3    H134709   1.357   3.564   3.253
11588TIP3    H234710   1.438   3.501   3.365
11589TIP3   OH234711   8.200   6.530   4.693
11589TIP3    H134712   8.257   6.480   4.752
11589TIP3    H234713   8.114   6.488   4.703
11590TIP3   OH234714   4.472   5.307   2.812
11590TIP3    H134715   4.518   5.348   2.738
11590TIP3    H234716   4.380   5.303   2.784
11591TIP3   OH234717   6.842   3.249   5.764
11591TIP3    H134718   6.934   3.251   5.738
11591TIP3    H234719   6.842   3.200   5.847
11592TIP3   OH234720   3.006   5.412   2.795
11592TIP3    H134721   3.098   5.396   2.777
11592TIP3    H234722   2.967   5.426   2.708
11593TIP3   OH234723   5.910   0.634   1.618
11593TIP3    H134724   5.929   0.545   1.588
11593TIP3    H234725   5.960   0.644   1.699
11594TIP3   OH234726   1.898   1.486   3.909
11594TIP3    H134727   1.842   1.459   3.982
11594TIP3    H234728   1.956   1.411   3.894
11595TIP3   OH234729   0.897   7.593   1.886
11595TIP3    H134730   0.904   7.509   1.933
11595TIP3    H234731   0.948   7.579   1.806
11596TIP3   OH234732   4.482   1.792   2.312
11596TIP3    H134733   4.500   1.788   2.406
11596TIP3    H234734   4.395   1.753   2.302
11597TIP3   OH234735   4.604   5.720   5.597
11597TIP3    H134736   4.591   5.630   5.628
11597TIP3    H234737   4.551   5.726   5.517
11598TIP3   OH234738   6.334   5.949   6.537
11598TIP3    H134739   6.357   5.879   6.475
11598TIP3    H234740   6.333   6.029   6.485
11599TIP3   OH234741   7.893   2.488   1.310
11599TIP3    H134742   7.833   2.511   1.238
11599TIP3    H234743   7.862   2.540   1.384
11600TIP3   OH234744   0.585   5.067   2.049
11600TIP3    H134745   0.556   5.113   2.127
11600TIP3    H234746   0.671   5.103   2.030
11601TIP3   OH234747   8.037   4.492   2.687
11601TIP3    H134748   7.949   4.481   2.723
11601TIP3    H234749   8.094   4.447   2.750
11602TIP3   OH234750   5.856   5.064   2.940
11602TIP3    H134751   5.831   5.123   3.012
11602TIP3    H234752   5.928   5.012   2.975
11603TIP3   OH234753   6.836   6.132   4.598
11603TIP3    H134754   6.768   6.135   4.531
11603TIP3    H234755   6.918   6.137   4.549
11604TIP3   OH234756   0.129   0.050   3.325
11604TIP3    H134757   0.078   0.122   3.287
11604TIP3    H234758   0.149   0.079   3.414
11605TIP3   OH234759   2.614   6.423   0.111
11605TIP3    H134760   2.549   6.354   0.099
11605TIP3    H234761   2.598   6.455   0.200
11606TIP3   OH234762   4.093   3.694   6.467
11606TIP3    H134763   4.047   3.614   6.489
11606TIP3    H234764   4.100   3.742   6.549
11607TIP3   OH234765   6.270   6.036   1.934
11607TIP3    H134766   6.212   5.990   1.995
11607TIP3    H234767   6.309   6.106   1.986
11608TIP3   OH234768   5.161   4.041  -0.062
11608TIP3    H134769   5.122   3.965  -0.105
11608TIP3    H234770   5.092   4.073  -0.003
11609TIP3   OH234771   0.400   6.342   1.295
11609TIP3    H134772   0.326   6.374   1.244
11609TIP3    H234773   0.402   6.248   1.277
11610TIP3   OH234774   2.660   3.459   4.264
11610TIP3    H134775   2.702   3.373   4.272
11610TIP3    H234776   2.566   3.439   4.262
11611TIP3   OH234777   7.692   5.856   1.498
11611TIP3    H134778   7.689   5.936   1.550
11611TIP3    H234779   7.778   5.858   1.456
11612TIP3   OH234780   2.488   1.456   3.258
11612TIP3    H134781   2.560   1.495   3.209
11612TIP3    H234782   2.525   1.440   3.345
11613TIP3   OH234783   6.192   0.973   5.322
11613TIP3    H134784   6.191   1.002   5.413
11613TIP3    H234785   6.282   0.943   5.307
11614TIP3   OH234786   2.185   6.173   4.501
11614TIP3    H134787   2.186   6.200   4.593
11614TIP3    H234788   2.258   6.112   4.492
11615TIP3   OH234789   6.032   5.824   2.011
11615TIP3    H134790   5.988   5.902   2.046
11615TIP3    H234791   6.052   5.772   2.088
11616TIP3   OH234792   7.980   6.467   5.957
11616TIP3    H134793   8.003   6.542   5.901
11616TIP3    H234794   7.908   6.424   5.910
11617TIP3   OH234795   2.762   7.006   4.645
11617TIP3    H134796   2.734   6.918   4.617
11617TIP3    H234797   2.701   7.029   4.716
11618TIP3   OH234798   7.805   1.020   2.896
11618TIP3    H134799   7.784   0.931   2.925
11618TIP3    H234800   7.725   1.070   2.914
11619TIP3   OH234801   1.461   6.812   1.607
11619TIP3    H134802   1.457   6.796   1.513
11619TIP3    H234803   1.370   6.802   1.636
11620TIP3   OH234804   4.401   1.708   0.581
11620TIP3    H134805   4.453   1.787   0.595
11620TIP3    H234806   4.310   1.738   0.579
11621TIP3   OH234807   5.495   5.123   1.019
11621TIP3    H134808   5.522   5.031   1.014
11621TIP3    H234809   5.573   5.172   0.991
11622TIP3   OH234810   1.085   1.741   5.008
11622TIP3    H134811   1.125   1.657   5.032
11622TIP3    H234812   1.151   1.784   4.954
11623TIP3   OH234813   5.790   5.258   5.973
11623TIP3    H134814   5.820   5.349   5.975
11623TIP3    H234815   5.807   5.229   5.883
11624TIP3   OH234816   7.981   6.354   4.724
11624TIP3    H134817   7.896   6.390   4.747
11624TIP3    H234818   7.997   6.288   4.792
11625TIP3   OH234819   0.024   7.801   1.917
11625TIP3    H134820   0.108   7.790   1.873
11625TIP3    H234821  -0.021   7.869   1.867
11626TIP3   OH234822   4.905   7.534   3.256
11626TIP3    H134823   4.997   7.555   3.270
11626TIP3    H234824   4.878   7.490   3.337
11627TIP3   OH234825   2.892   3.945   2.967
11627TIP3    H134826   2.966   3.914   2.915
11627TIP3    H234827   2.825   3.878   2.956
11628TIP3   OH234828   8.081   0.324   1.513
11628TIP3    H134829   8.074   0.286   1.600
11628TIP3    H234830   8.108   0.250   1.457
11629TIP3   OH234831   7.575   1.260   5.696
11629TIP3    H134832   7.653   1.226   5.740
11629TIP3    H234833   7.575   1.217   5.611
11630TIP3   OH234834   6.335   0.669   6.380
11630TIP3    H134835   6.301   0.588   6.341
11630TIP3    H234836   6.257   0.713   6.415
11631TIP3   OH234837   7.905   4.469   1.671
11631TIP3    H134838   7.944   4.439   1.753
11631TIP3    H234839   7.949   4.417   1.604
11632TIP3   OH234840   6.223   4.311   1.277
11632TIP3    H134841   6.220   4.244   1.208
11632TIP3    H234842   6.155   4.285   1.338
11633TIP3   OH234843   5.922   7.295   3.472
11633TIP3    H134844   6.014   7.290   3.498
11633TIP3    H234845   5.920   7.259   3.383
11634TIP3   OH234846   1.357   0.115   1.337
11634TIP3    H134847   1.334   0.207   1.327
11634TIP3    H234848   1.290   0.080   1.396
11635TIP3   OH234849   7.708   3.621   6.137
11635TIP3    H134850   7.706   3.674   6.216
11635TIP3    H234851   7.789   3.571   6.143
11636TIP3   OH234852   7.336   3.846   2.223
11636TIP3    H134853   7.270   3.865   2.156
11636TIP3    H234854   7.378   3.930   2.240
11637TIP3   OH234855   2.507   4.554   3.551
11637TIP3    H134856   2.427   4.584   3.593
11637TIP3    H234857   2.578   4.598   3.598
11638TIP3   OH234858   2.119   1.905   5.383
11638TIP3    H134859   2.202   1.892   5.336
11638TIP3    H234860   2.146   1.926   5.473
11639TIP3   OH234861   2.520   7.397   2.056
11639TIP3    H134862   2.554   7.485   2.041
11639TIP3    H234863   2.549   7.347   1.980
11640TIP3   OH234864   2.898   1.424   0.473
11640TIP3    H134865   2.883   1.517   0.492
11640TIP3    H234866   2.988   1.408   0.502
11641TIP3   OH234867   6.153   3.016   5.399
11641TIP3    H134868   6.124   2.946   5.457
11641TIP3    H234869   6.248   3.017   5.409
11642TIP3   OH234870   0.282   6.320   2.036
11642TIP3    H134871   0.259   6.390   1.975
11642TIP3    H234872   0.198   6.295   2.075
11643TIP3   OH234873   7.259   3.098   6.292
11643TIP3    H134874   7.286   3.094   6.384
11643TIP3    H234875   7.283   3.186   6.264
11644TIP3   OH234876   2.353   5.643   2.096
11644TIP3    H134877   2.445   5.638   2.123
11644TIP3    H234878   2.305   5.599   2.167
11645TIP3   OH234879   3.841   2.616   2.763
11645TIP3    H134880   3.798   2.535   2.790
11645TIP3    H234881   3.772   2.667   2.721
11646TIP3   OH234882   6.426   0.537   4.295
11646TIP3    H134883   6.439   0.615   4.349
11646TIP3    H234884   6.494   0.544   4.228
11647TIP3   OH234885   7.177   4.598   6.026
11647TIP3    H134886   7.166   4.689   5.999
11647TIP3    H234887   7.270   4.591   6.049
11648TIP3   OH234888   5.946   4.165   6.714
11648TIP3    H134889   5.865   4.195   6.755
11648TIP3    H234890   5.929   4.171   6.620
11649TIP3   OH234891   8.061   5.307   5.122
11649TIP3    H134892   7.999   5.315   5.050
11649TIP3    H234893   8.027   5.236   5.176
11650TIP3   OH234894   1.983   3.104   2.782
11650TIP3    H134895   2.041   3.179   2.765
11650TIP3    H234896   2.023   3.031   2.735
11651TIP3   OH234897   7.803   6.171   1.229
11651TIP3    H134898   7.730   6.194   1.286
11651TIP3    H234899   7.848   6.254   1.213
11652TIP3   OH234900   3.216   7.054   0.126
11652TIP3    H134901   3.132   7.035   0.086
11652TIP3    H234902   3.227   6.987   0.193
11653TIP3   OH234903   0.157   3.956   2.619
11653TIP3    H134904   0.218   3.985   2.551
11653TIP3    H234905   0.212   3.910   2.682
11654TIP3   OH234906   1.027   3.308   0.262
11654TIP3    H134907   1.041   3.223   0.220
11654TIP3    H234908   0.934   3.325   0.251
11655TIP3   OH234909   5.274   1.829   0.636
11655TIP3    H134910   5.316   1.914   0.632
11655TIP3    H234911   5.337   1.769   0.597
11656TIP3   OH234912   2.031   0.543   2.144
11656TIP3    H134913   2.066   0.625   2.177
11656TIP3    H234914   2.095   0.477   2.170
11657TIP3   OH234915   7.662   7.597   1.639
11657TIP3    H134916   7.736   7.649   1.608
11657TIP3    H234917   7.615   7.656   1.699
11658TIP3   OH234918   2.233   1.121   6.457
11658TIP3    H134919   2.295   1.155   6.392
11658TIP3    H234920   2.275   1.042   6.491
11659TIP3   OH234921   8.106   7.229   3.440
11659TIP3    H134922   8.119   7.171   3.365
11659TIP3    H234923   8.184   7.285   3.440
11660TIP3   OH234924   8.103   2.110   3.518
11660TIP3    H134925   8.104   2.038   3.455
11660TIP3    H234926   8.046   2.079   3.589
11661TIP3   OH234927   2.664   0.981   1.890
11661TIP3    H134928   2.587   1.036   1.901
11661TIP3    H234929   2.701   1.007   1.806
11662TIP3   OH234930   5.077   6.048   4.752
11662TIP3    H134931   5.110   6.017   4.668
11662TIP3    H234932   5.066   6.142   4.740
11663TIP3   OH234933   0.497   4.128   0.719
11663TIP3    H134934   0.472   4.205   0.667
11663TIP3    H234935   0.416   4.101   0.762
11664TIP3   OH234936   1.864   0.781   0.186
11664TIP3    H134937   1.800   0.740   0.243
11664TIP3    H234938   1.948   0.748   0.218
11665TIP3   OH234939   5.928   6.374   2.975
11665TIP3    H134940   5.994   6.429   3.017
11665TIP3    H234941   5.858   6.435   2.950
11666TIP3   OH234942   7.089   0.467   3.010
11666TIP3    H134943   7.045   0.469   2.925
11666TIP3    H234944   7.017   0.462   3.073
11667TIP3   OH234945   7.490   7.718   0.694
11667TIP3    H134946   7.421   7.733   0.758
11667TIP3    H234947   7.530   7.635   0.721
11668TIP3   OH234948   8.060   0.933   4.884
11668TIP3    H134949   8.006   0.863   4.923
11668TIP3    H234950   8.036   0.932   4.791
11669TIP3   OH234951   2.558   6.095   3.812
11669TIP3    H134952   2.492   6.129   3.873
11669TIP3    H234953   2.631   6.070   3.868
11670TIP3   OH234954   2.986   5.847   0.862
11670TIP3    H134955   2.908   5.801   0.892
11670TIP3    H234956   3.005   5.911   0.931
11671TIP3   OH234957   3.192   6.361   6.616
11671TIP3    H134958   3.228   6.353   6.704
11671TIP3    H234959   3.268   6.356   6.559
11672TIP3   OH234960   7.195   3.136   3.104
11672TIP3    H134961   7.134   3.063   3.097
11672TIP3    H234962   7.276   3.104   3.065
11673TIP3   OH234963   7.983   6.716   6.665
11673TIP3    H134964   7.917   6.774   6.628
11673TIP3    H234965   8.034   6.686   6.590
11674TIP3   OH234966   8.219   2.796   4.804
11674TIP3    H134967   8.184   2.709   4.783
11674TIP3    H234968   8.160   2.831   4.870
11675TIP3   OH234969   5.600   2.364   2.279
11675TIP3    H134970   5.629   2.448   2.244
11675TIP3    H234971   5.622   2.368   2.372
11676TIP3   OH234972   4.736   3.685   1.820
11676TIP3    H134973   4.742   3.604   1.771
11676TIP3    H234974   4.703   3.749   1.756
11677TIP3   OH234975   4.890   7.040   0.675
11677TIP3    H134976   4.802   7.078   0.681
11677TIP3    H234977   4.878   6.948   0.699
11678TIP3   OH234978   8.095   7.697   3.017
11678TIP3    H134979   8.095   7.616   2.965
11678TIP3    H234980   8.003   7.718   3.028
11679TIP3   OH234981   4.228   5.953   5.822
11679TIP3    H134982   4.176   5.994   5.753
11679TIP3    H234983   4.180   5.874   5.844
11680TIP3   OH234984   2.635   1.150   5.806
11680TIP3    H134985   2.704   1.133   5.741
11680TIP3    H234986   2.585   1.223   5.768
11681TIP3   OH234987   0.467   0.067   2.165
11681TIP3    H134988   0.383   0.032   2.136
11681TIP3    H234989   0.500   0.003   2.228
11682TIP3   OH234990   4.905   7.075   2.499
11682TIP3    H134991   4.915   7.167   2.472
11682TIP3    H234992   4.959   7.067   2.577
11683TIP3   OH234993   2.523   2.086   1.245
11683TIP3    H134994   2.477   2.003   1.259
11683TIP3    H234995   2.486   2.145   1.311
11684TIP3   OH234996   5.669   2.121   6.512
11684TIP3    H134997   5.757   2.152   6.536
11684TIP3    H234998   5.624   2.111   6.596
11685TIP3   OH234999   7.956   2.770   5.492
11685TIP3    H135000   7.909   2.852   5.508
11685TIP3    H235001   8.006   2.755   5.572
11686TIP3   OH235002   6.095   6.691   0.119
11686TIP3    H135003   6.014   6.738   0.137
11686TIP3    H235004   6.068   6.614   0.069
11687TIP3   OH235005   7.103   4.454   5.234
11687TIP3    H135006   7.174   4.506   5.198
11687TIP3    H235007   7.142   4.368   5.250
11688TIP3   OH235008   2.945   0.422   5.106
11688TIP3    H135009   2.985   0.508   5.093
11688TIP3    H235010   2.873   0.437   5.167
11689TIP3   OH235011   1.686   6.885   4.459
11689TIP3    H135012   1.716   6.834   4.534
11689TIP3    H235013   1.597   6.912   4.482
11690TIP3   OH235014   7.282   1.172   1.260
11690TIP3    H135015   7.348   1.205   1.200
11690TIP3    H235016   7.222   1.122   1.204
11691TIP3   OH235017   1.333   0.162   3.793
11691TIP3    H135018   1.307   0.191   3.706
11691TIP3    H235019   1.272   0.205   3.853
11692TIP3   OH235020   6.936   2.711   3.702
11692TIP3    H135021   7.009   2.771   3.712
11692TIP3    H235022   6.888   2.744   3.626
11693TIP3   OH235023   0.349   5.435   2.651
11693TIP3    H135024   0.374   5.414   2.741
11693TIP3    H235025   0.336   5.349   2.610
11694TIP3   OH235026   0.296   6.496   2.815
11694TIP3    H135027   0.330   6.483   2.726
11694TIP3    H235028   0.278   6.590   2.820
11695TIP3   OH235029   0.709   1.870   6.244
11695TIP3    H135030   0.724   1.798   6.184
11695TIP3    H235031   0.796   1.908   6.259
11696TIP3   OH235032   4.599   4.180   1.313
11696TIP3    H135033   4.554   4.168   1.230
11696TIP3    H235034   4.529   4.191   1.378
11697TIP3   OH235035   2.347   0.841   6.538
11697TIP3    H135036   2.433   0.848   6.581
11697TIP3    H235037   2.351   0.758   6.490
11698TIP3   OH235038   7.024   2.470   1.943
11698TIP3    H135039   7.073   2.428   1.872
11698TIP3    H235040   7.092   2.495   2.006
11699TIP3   OH235041   5.838   6.599   3.963
11699TIP3    H135042   5.855   6.679   3.913
11699TIP3    H235043   5.742   6.591   3.963
11700TIP3   OH235044   5.077   5.376   5.210
11700TIP3    H135045   5.102   5.415   5.294
11700TIP3    H235046   5.144   5.406   5.149
11701TIP3   OH235047   4.457   2.149   0.734
11701TIP3    H135048   4.534   2.149   0.792
11701TIP3    H235049   4.403   2.077   0.766
11702TIP3   OH235050   0.768   4.895   4.133
11702TIP3    H135051   0.849   4.934   4.166
11702TIP3    H235052   0.711   4.970   4.115
11703TIP3   OH235053   5.774   1.049   3.173
11703TIP3    H135054   5.756   1.034   3.081
11703TIP3    H235055   5.777   1.144   3.182
11704TIP3   OH235056   7.029   6.834   2.096
11704TIP3    H135057   7.114   6.878   2.096
11704TIP3    H235058   7.021   6.798   2.184
11705TIP3   OH235059   6.202   6.987   4.487
11705TIP3    H135060   6.146   7.000   4.411
11705TIP3    H235061   6.165   6.910   4.531
11706TIP3   OH235062   1.136   6.754   3.344
11706TIP3    H135063   1.187   6.765   3.424
11706TIP3    H235064   1.083   6.834   3.339
11707TIP3   OH235065   0.282   6.172   3.823
11707TIP3    H135066   0.206   6.205   3.870
11707TIP3    H235067   0.351   6.169   3.889
11708TIP3   OH235068   0.767   5.952   5.587
11708TIP3    H135069   0.712   6.029   5.603
11708TIP3    H235070   0.774   5.909   5.672
11709TIP3   OH235071   6.721   1.626   4.220
11709TIP3    H135072   6.700   1.559   4.155
11709TIP3    H235073   6.817   1.624   4.226
11710TIP3   OH235074   8.200   1.498   3.482
11710TIP3    H135075   8.109   1.518   3.502
11710TIP3    H235076   8.251   1.541   3.551
11711TIP3   OH235077   3.932   0.035   6.615
11711TIP3    H135078   3.927  -0.057   6.640
11711TIP3    H235079   3.858   0.076   6.660
11712TIP3   OH235080   8.182   6.535   2.123
11712TIP3    H135081   8.223   6.613   2.085
11712TIP3    H235082   8.187   6.550   2.218
11713TIP3   OH235083   1.704   7.064   1.690
11713TIP3    H135084   1.688   6.975   1.722
11713TIP3    H235085   1.799   7.068   1.678
11714TIP3   OH235086   4.347   4.560   5.742
11714TIP3    H135087   4.351   4.632   5.805
11714TIP3    H235088   4.258   4.527   5.749
11715TIP3   OH235089   6.760   5.689   2.795
11715TIP3    H135090   6.724   5.690   2.707
11715TIP3    H235091   6.844   5.735   2.787
11716TIP3   OH235092   6.186   1.678   5.709
11716TIP3    H135093   6.274   1.690   5.743
11716TIP3    H235094   6.186   1.589   5.672
11717TIP3   OH235095   2.765   0.200   4.658
11717TIP3    H135096   2.706   0.197   4.583
11717TIP3    H235097   2.764   0.291   4.686
11718TIP3   OH235098   6.831   6.422   3.397
11718TIP3    H135099   6.837   6.332   3.364
11718TIP3    H235100   6.737   6.438   3.403
11719TIP3   OH235101   0.859   2.429   2.997
11719TIP3    H135102   0.903   2.344   3.003
11719TIP3    H235103   0.848   2.445   2.904
11720TIP3   OH235104   5.454   3.805   5.243
11720TIP3    H135105   5.494   3.813   5.330
11720TIP3    H235106   5.397   3.728   5.251
11721TIP3   OH235107   5.491   5.486   5.885
11721TIP3    H135108   5.580   5.508   5.858
11721TIP3    H235109   5.492   5.390   5.892
11722TIP3   OH235110   2.055   3.914   6.357
11722TIP3    H135111   2.101   3.831   6.372
11722TIP3    H235112   2.123   3.975   6.331
11723TIP3   OH235113   4.879   3.926   1.036
11723TIP3    H135114   4.821   3.908   1.110
11723TIP3    H235115   4.841   4.003   0.994
11724TIP3   OH235116   3.206   0.317   5.040
11724TIP3    H135117   3.139   0.339   4.975
11724TIP3    H235118   3.164   0.250   5.094
11725TIP3   OH235119   8.021   4.185   0.862
11725TIP3    H135120   8.032   4.171   0.768
11725TIP3    H235121   7.952   4.125   0.888
11726TIP3   OH235122   2.503   6.205   5.800
11726TIP3    H135123   2.540   6.173   5.882
11726TIP3    H235124   2.408   6.210   5.817
11727TIP3   OH235125   7.654   2.176   1.874
11727TIP3    H135126   7.747   2.177   1.852
11727TIP3    H235127   7.645   2.243   1.942
11728TIP3   OH235128   2.599   1.199   0.224
11728TIP3    H135129   2.506   1.175   0.217
11728TIP3    H235130   2.614   1.208   0.318
11729TIP3   OH235131   2.363   1.646   3.625
11729TIP3    H135132   2.431   1.665   3.560
11729TIP3    H235133   2.321   1.566   3.593
11730TIP3   OH235134   3.889   0.811   3.884
11730TIP3    H135135   3.867   0.858   3.803
11730TIP3    H235136   3.984   0.819   3.891
11731TIP3   OH235137   1.377   7.491   0.452
11731TIP3    H135138   1.295   7.534   0.476
11731TIP3    H235139   1.398   7.435   0.528
11732TIP3   OH235140   1.600   6.146   1.940
11732TIP3    H135141   1.668   6.087   1.909
11732TIP3    H235142   1.624   6.165   2.030
11733TIP3   OH235143   1.763   1.020   6.737
11733TIP3    H135144   1.824   1.093   6.729
11733TIP3    H235145   1.677   1.058   6.715
11734TIP3   OH235146   4.705   1.468   5.167
11734TIP3    H135147   4.705   1.385   5.216
11734TIP3    H235148   4.612   1.489   5.155
11735TIP3   OH235149   0.909   5.094   2.412
11735TIP3    H135150   1.004   5.085   2.417
11735TIP3    H235151   0.896   5.181   2.374
11736TIP3   OH235152   3.324   4.664   2.333
11736TIP3    H135153   3.256   4.631   2.391
11736TIP3    H235154   3.341   4.753   2.364
11737TIP3   OH235155   5.960   3.402   2.233
11737TIP3    H135156   5.996   3.344   2.166
11737TIP3    H235157   6.035   3.424   2.288
11738TIP3   OH235158   4.386   4.891   4.412
11738TIP3    H135159   4.330   4.907   4.337
11738TIP3    H235160   4.471   4.929   4.387
11739TIP3   OH235161   2.507   2.838   1.339
11739TIP3    H135162   2.491   2.915   1.283
11739TIP3    H235163   2.488   2.869   1.427
11740TIP3   OH235164   0.762   0.331   5.598
11740TIP3    H135165   0.819   0.292   5.532
11740TIP3    H235166   0.698   0.262   5.618
11741TIP3   OH235167   1.859   0.389   6.561
11741TIP3    H135168   1.868   0.335   6.639
11741TIP3    H235169   1.930   0.453   6.568
11742TIP3   OH235170   5.033   2.253   5.552
11742TIP3    H135171   5.030   2.212   5.466
11742TIP3    H235172   5.126   2.266   5.570
11743TIP3   OH235173   7.740   0.157   0.228
11743TIP3    H135174   7.785   0.187   0.307
11743TIP3    H235175   7.651   0.139   0.257
11744TIP3   OH235176   2.235   6.627   1.781
11744TIP3    H135177   2.286   6.695   1.824
11744TIP3    H235178   2.145   6.645   1.806
11745TIP3   OH235179  -0.032   0.362   4.448
11745TIP3    H135180  -0.044   0.349   4.543
11745TIP3    H235181   0.015   0.445   4.441
11746TIP3   OH235182   3.504   2.518   5.345
11746TIP3    H135183   3.476   2.584   5.282
11746TIP3    H235184   3.515   2.567   5.427
11747TIP3   OH235185   2.097   2.096   4.048
11747TIP3    H135186   2.162   2.152   4.089
11747TIP3    H235187   2.016   2.113   4.096
11748TIP3   OH235188   2.155   0.065   3.073
11748TIP3    H135189   2.141   0.059   3.167
11748TIP3    H235190   2.186  -0.022   3.047
11749TIP3   OH235191   2.969   4.643   6.487
11749TIP3    H135192   3.018   4.608   6.561
11749TIP3    H235193   2.981   4.578   6.418
11750TIP3   OH235194   4.371   6.026   3.819
11750TIP3    H135195   4.336   6.028   3.730
11750TIP3    H235196   4.388   6.117   3.840
11751TIP3   OH235197   5.991   4.890   6.289
11751TIP3    H135198   5.932   4.908   6.362
11751TIP3    H235199   5.964   4.951   6.221
11752TIP3   OH235200   1.381   7.321   6.053
11752TIP3    H135201   1.336   7.404   6.071
11752TIP3    H235202   1.453   7.345   5.994
11753TIP3   OH235203   8.242  -0.045   0.463
11753TIP3    H135204   8.270   0.042   0.436
11753TIP3    H235205   8.213  -0.034   0.553
11754TIP3   OH235206   7.564   4.411   0.768
11754TIP3    H135207   7.587   4.345   0.703
11754TIP3    H235208   7.648   4.444   0.800
11755TIP3   OH235209   0.159   2.842   0.204
11755TIP3    H135210   0.226   2.822   0.139
11755TIP3    H235211   0.187   2.795   0.282
11756TIP3   OH235212   6.414   7.351   3.959
11756TIP3    H135213   6.488   7.412   3.955
11756TIP3    H235214   6.435   7.283   3.895
11757TIP3   OH235215   3.123   3.775   3.549
11757TIP3    H135216   3.038   3.803   3.517
11757TIP3    H235217   3.153   3.710   3.485
11758TIP3   OH235218   2.021   6.762   6.522
11758TIP3    H135219   2.081   6.704   6.569
11758TIP3    H235220   2.077   6.832   6.487
11759TIP3   OH235221   4.427   6.933   0.241
11759TIP3    H135222   4.476   6.881   0.178
11759TIP3    H235223   4.353   6.877   0.267
11760TIP3   OH235224   3.705   7.383   3.035
11760TIP3    H135225   3.707   7.288   3.046
11760TIP3    H235226   3.797   7.410   3.033
11761TIP3   OH235227   7.170   0.653   1.568
11761TIP3    H135228   7.173   0.746   1.590
11761TIP3    H235229   7.143   0.650   1.477
11762TIP3   OH235230   5.542   2.351   6.305
11762TIP3    H135231   5.600   2.419   6.339
11762TIP3    H235232   5.534   2.289   6.377
11763TIP3   OH235233   3.036   6.525   4.335
11763TIP3    H135234   2.983   6.513   4.257
11763TIP3    H235235   3.122   6.550   4.303
11764TIP3   OH235236   4.971   5.110   4.874
11764TIP3    H135237   4.889   5.108   4.825
11764TIP3    H235238   4.945   5.087   4.964
11765TIP3   OH235239   3.654   3.893   1.255
11765TIP3    H135240   3.613   3.960   1.200
11765TIP3    H235241   3.620   3.910   1.343
11766TIP3   OH235242   4.259   3.777   0.024
11766TIP3    H135243   4.189   3.741   0.079
11766TIP3    H235244   4.321   3.705   0.015
11767TIP3   OH235245   7.365   0.489   2.778
11767TIP3    H135246   7.432   0.523   2.838
11767TIP3    H235247   7.394   0.399   2.759
11768TIP3   OH235248   4.429   4.260   2.833
11768TIP3    H135249   4.389   4.177   2.860
11768TIP3    H235250   4.407   4.268   2.740
11769TIP3   OH235251   0.905   6.298   4.886
11769TIP3    H135252   0.832   6.271   4.830
11769TIP3    H235253   0.878   6.382   4.923
11770TIP3   OH235254   6.490   5.215   2.087
11770TIP3    H135255   6.407   5.253   2.060
11770TIP3    H235256   6.474   5.186   2.177
11771TIP3   OH235257   8.237   2.383   6.529
11771TIP3    H135258   8.283   2.458   6.567
11771TIP3    H235259   8.144   2.404   6.540
11772TIP3   OH235260   5.079   1.071   1.154
11772TIP3    H135261   5.062   1.153   1.201
11772TIP3    H235262   5.159   1.088   1.104
11773TIP3   OH235263   1.002   0.587   4.266
11773TIP3    H135264   0.927   0.565   4.322
11773TIP3    H235265   1.035   0.669   4.303
11774TIP3   OH235266   5.433   7.057   3.022
11774TIP3    H135267   5.459   7.004   3.097
11774TIP3    H235268   5.400   6.994   2.958
11775TIP3   OH235269   6.581   1.006   5.061
11775TIP3    H135270   6.664   1.053   5.059
11775TIP3    H235271   6.590   0.938   4.994
11776TIP3   OH235272   6.786   4.339   0.493
11776TIP3    H135273   6.843   4.368   0.563
11776TIP3    H235274   6.829   4.262   0.456
11777TIP3   OH235275   4.651   0.291   1.099
11777TIP3    H135276   4.586   0.220   1.103
11777TIP3    H235277   4.642   0.326   1.010
11778TIP3   OH235278   3.543   7.366   1.171
11778TIP3    H135279   3.516   7.458   1.172
11778TIP3    H235280   3.479   7.323   1.114
11779TIP3   OH235281   6.312   1.639   5.253
11779TIP3    H135282   6.309   1.734   5.264
11779TIP3    H235283   6.395   1.613   5.292
11780TIP3   OH235284   4.623   0.973   2.349
11780TIP3    H135285   4.541   0.990   2.302
11780TIP3    H235286   4.691   0.981   2.282
11781TIP3   OH235287   6.997   7.224   5.888
11781TIP3    H135288   6.930   7.226   5.819
11781TIP3    H235289   6.947   7.206   5.968
11782TIP3   OH235290   2.150   5.578   2.274
11782TIP3    H135291   2.162   5.662   2.319
11782TIP3    H235292   2.055   5.569   2.265
11783TIP3   OH235293   5.562   6.857   0.622
11783TIP3    H135294   5.526   6.778   0.584
11783TIP3    H235295   5.624   6.889   0.557
11784TIP3   OH235296   7.008   5.974   4.038
11784TIP3    H135297   7.082   5.989   4.097
11784TIP3    H235298   6.963   6.059   4.035
11785TIP3   OH235299   3.889   2.222   6.486
11785TIP3    H135300   3.961   2.218   6.549
11785TIP3    H235301   3.922   2.280   6.417
11786TIP3   OH235302   3.525   2.250   5.369
11786TIP3    H135303   3.519   2.345   5.356
11786TIP3    H235304   3.483   2.212   5.292
11787TIP3   OH235305   5.475   7.039   0.789
11787TIP3    H135306   5.431   7.072   0.710
11787TIP3    H235307   5.517   6.958   0.760
11788TIP3   OH235308   7.803   5.890   0.493
11788TIP3    H135309   7.839   5.851   0.572
11788TIP3    H235310   7.722   5.932   0.523
11789TIP3   OH235311   4.964   5.747   2.715
11789TIP3    H135312   4.983   5.834   2.679
11789TIP3    H235313   5.041   5.695   2.690
11790TIP3   OH235314   6.535   5.101   3.808
11790TIP3    H135315   6.537   5.067   3.897
11790TIP3    H235316   6.463   5.163   3.808
11791TIP3   OH235317   4.652   3.227   6.246
11791TIP3    H135318   4.591   3.154   6.248
11791TIP3    H235319   4.610   3.292   6.189
11792TIP3   OH235320   3.160   4.315   1.738
11792TIP3    H135321   3.105   4.315   1.816
11792TIP3    H235322   3.174   4.222   1.718
11793TIP3   OH235323   6.016   4.625   1.255
11793TIP3    H135324   6.012   4.531   1.270
11793TIP3    H235325   5.959   4.663   1.322
11794TIP3   OH235326   2.923   5.990   1.447
11794TIP3    H135327   2.959   5.968   1.361
11794TIP3    H235328   2.831   5.964   1.442
11795TIP3   OH235329   2.578   7.223   1.879
11795TIP3    H135330   2.552   7.170   1.954
11795TIP3    H235331   2.572   7.165   1.804
11796TIP3   OH235332   0.288   2.448   5.047
11796TIP3    H135333   0.383   2.454   5.037
11796TIP3    H235334   0.254   2.510   4.982
11797TIP3   OH235335   7.060   6.586   3.253
11797TIP3    H135336   7.069   6.660   3.192
11797TIP3    H235337   6.984   6.538   3.220
11798TIP3   OH235338   4.440   4.747   5.525
11798TIP3    H135339   4.403   4.681   5.583
11798TIP3    H235340   4.406   4.830   5.558
11799TIP3   OH235341   5.569   0.492   5.029
11799TIP3    H135342   5.565   0.400   5.055
11799TIP3    H235343   5.502   0.501   4.961
11800TIP3   OH235344   3.836   3.247   2.003
11800TIP3    H135345   3.806   3.160   2.029
11800TIP3    H235346   3.849   3.294   2.085
11801TIP3   OH235347   5.872   5.159   3.882
11801TIP3    H135348   5.929   5.092   3.845
11801TIP3    H235349   5.786   5.116   3.889
11802TIP3   OH235350   4.908   5.400   1.657
11802TIP3    H135351   4.884   5.381   1.566
11802TIP3    H235352   4.968   5.475   1.650
11803TIP3   OH235353   5.699   6.233   6.226
11803TIP3    H135354   5.685   6.223   6.132
11803TIP3    H235355   5.615   6.208   6.265
11804TIP3   OH235356   7.447   3.489   4.046
11804TIP3    H135357   7.526   3.495   3.993
11804TIP3    H235358   7.377   3.476   3.983
11805TIP3   OH235359   0.741   1.030   6.228
11805TIP3    H135360   0.811   0.983   6.274
11805TIP3    H235361   0.787   1.098   6.178
11806TIP3   OH235362   8.258   1.257   2.134
11806TIP3    H135363   8.275   1.321   2.065
11806TIP3    H235364   8.276   1.304   2.215
11807TIP3   OH235365   5.701   3.938   6.380
11807TIP3    H135366   5.664   3.854   6.352
11807TIP3    H235367   5.705   3.933   6.475
11808TIP3   OH235368   2.396   4.395   3.119
11808TIP3    H135369   2.307   4.430   3.122
11808TIP3    H235370   2.444   4.444   3.186
11809TIP3   OH235371   1.865   4.237   1.853
11809TIP3    H135372   1.852   4.166   1.790
11809TIP3    H235373   1.957   4.229   1.879
11810TIP3   OH235374   7.522   2.687   6.572
11810TIP3    H135375   7.563   2.773   6.564
11810TIP3    H235376   7.485   2.671   6.484
11811TIP3   OH235377   0.672   2.451   0.810
11811TIP3    H135378   0.689   2.411   0.895
11811TIP3    H235379   0.736   2.410   0.752
11812TIP3   OH235380   6.599   0.850   4.821
11812TIP3    H135381   6.562   0.787   4.760
11812TIP3    H235382   6.675   0.805   4.859
11813TIP3   OH235383   0.825   3.947   5.356
11813TIP3    H135384   0.733   3.959   5.333
11813TIP3    H235385   0.825   3.930   5.450
11814TIP3   OH235386   0.914   7.793   5.818
11814TIP3    H135387   0.919   7.754   5.905
11814TIP3    H235388   0.897   7.886   5.833
11815TIP3   OH235389   1.549   6.155   2.781
11815TIP3    H135390   1.454   6.139   2.783
11815TIP3    H235391   1.574   6.164   2.873
11816TIP3   OH235392   0.746   2.415   0.161
11816TIP3    H135393   0.840   2.412   0.144
11816TIP3    H235394   0.739   2.399   0.255
11817TIP3   OH235395   1.775   4.737   4.722
11817TIP3    H135396   1.862   4.728   4.683
11817TIP3    H235397   1.731   4.802   4.668
11818TIP3   OH235398   1.265   0.869   3.344
11818TIP3    H135399   1.262   0.886   3.250
11818TIP3    H235400   1.327   0.796   3.353
11819TIP3   OH235401   6.394   7.170   6.325
11819TIP3    H135402   6.359   7.087   6.359
11819TIP3    H235403   6.344   7.186   6.246
11820TIP3   OH235404   3.924   3.978   4.568
11820TIP3    H135405   3.989   3.927   4.521
11820TIP3    H235406   3.845   3.924   4.566
11821TIP3   OH235407   6.470   7.712   2.224
11821TIP3    H135408   6.560   7.736   2.200
11821TIP3    H235409   6.429   7.794   2.249
11822TIP3   OH235410   3.896   1.826   6.127
11822TIP3    H135411   3.946   1.752   6.162
11822TIP3    H235412   3.906   1.895   6.194
11823TIP3   OH235413   3.158   4.738   4.508
11823TIP3    H135414   3.172   4.645   4.486
11823TIP3    H235415   3.142   4.780   4.423
11824TIP3   OH235416   0.997   7.533   0.895
11824TIP3    H135417   1.033   7.510   0.810
11824TIP3    H235418   0.911   7.490   0.897
11825TIP3   OH235419   6.355   5.593   4.993
11825TIP3    H135420   6.354   5.658   5.064
11825TIP3    H235421   6.304   5.634   4.923
11826TIP3   OH235422   4.180   7.634   0.740
11826TIP3    H135423   4.152   7.542   0.742
11826TIP3    H235424   4.210   7.652   0.829
11827TIP3   OH235425   1.693   1.393   4.414
11827TIP3    H135426   1.612   1.414   4.368
11827TIP3    H235427   1.735   1.478   4.430
11828TIP3   OH235428   7.196   2.344   6.326
11828TIP3    H135429   7.149   2.300   6.256
11828TIP3    H235430   7.138   2.416   6.353
11829TIP3   OH235431   7.652   0.346   3.821
11829TIP3    H135432   7.603   0.404   3.763
11829TIP3    H235433   7.728   0.319   3.770
11830TIP3   OH235434   2.395   7.303   2.945
11830TIP3    H135435   2.313   7.265   2.916
11830TIP3    H235436   2.457   7.230   2.946
11831TIP3   OH235437   5.261   3.404   5.816
11831TIP3    H135438   5.187   3.370   5.866
11831TIP3    H235439   5.241   3.383   5.725
11832TIP3   OH235440   5.322   6.466   4.200
11832TIP3    H135441   5.375   6.445   4.123
11832TIP3    H235442   5.240   6.500   4.163
11833TIP3   OH235443   7.848   6.631   5.284
11833TIP3    H135444   7.939   6.636   5.255
11833TIP3    H235445   7.819   6.722   5.288
11834TIP3   OH235446   7.250   6.945   2.762
11834TIP3    H135447   7.276   6.931   2.671
11834TIP3    H235448   7.324   6.914   2.813
11835TIP3   OH235449   7.454   5.523   6.450
11835TIP3    H135450   7.436   5.463   6.377
11835TIP3    H235451   7.537   5.493   6.486
11836TIP3   OH235452   7.372   5.114   6.324
11836TIP3    H135453   7.410   5.066   6.397
11836TIP3    H235454   7.279   5.093   6.327
11837TIP3   OH235455   7.798   2.804   6.148
11837TIP3    H135456   7.790   2.885   6.097
11837TIP3    H235457   7.715   2.796   6.194
11838TIP3   OH235458   6.128   1.603   4.338
11838TIP3    H135459   6.122   1.697   4.322
11838TIP3    H235460   6.115   1.593   4.432
11839TIP3   OH235461   0.626   6.134   6.425
11839TIP3    H135462   0.714   6.096   6.422
11839TIP3    H235463   0.584   6.090   6.499
11840TIP3   OH235464   2.275   0.260   1.158
11840TIP3    H135465   2.280   0.166   1.141
11840TIP3    H235466   2.281   0.300   1.071
11841TIP3   OH235467   5.291   1.851   2.263
11841TIP3    H135468   5.373   1.804   2.252
11841TIP3    H235469   5.290   1.915   2.191
11842TIP3   OH235470   4.336   4.750   0.805
11842TIP3    H135471   4.366   4.698   0.731
11842TIP3    H235472   4.299   4.829   0.766
11843TIP3   OH235473   5.595   7.464   4.985
11843TIP3    H135474   5.626   7.447   4.896
11843TIP3    H235475   5.499   7.465   4.977
11844TIP3   OH235476   5.210   4.602   2.983
11844TIP3    H135477   5.288   4.628   2.935
11844TIP3    H235478   5.157   4.554   2.919
11845TIP3   OH235479   0.367   6.215   6.070
11845TIP3    H135480   0.273   6.212   6.053
11845TIP3    H235481   0.406   6.174   5.993
11846TIP3   OH235482   0.186   6.292   4.152
11846TIP3    H135483   0.228   6.327   4.231
11846TIP3    H235484   0.248   6.313   4.081
11847TIP3   OH235485   1.558   0.817   0.604
11847TIP3    H135486   1.468   0.809   0.572
11847TIP3    H235487   1.572   0.738   0.656
11848TIP3   OH235488   3.880   1.439   3.643
11848TIP3    H135489   3.934   1.368   3.677
11848TIP3    H235490   3.936   1.517   3.651
11849TIP3   OH235491   1.282   0.590   3.678
11849TIP3    H135492   1.286   0.605   3.773
11849TIP3    H235493   1.191   0.563   3.663
11850TIP3   OH235494   5.253   5.006   2.628
11850TIP3    H135495   5.174   5.011   2.680
11850TIP3    H235496   5.222   5.003   2.537
11851TIP3   OH235497   1.352   1.044   4.470
11851TIP3    H135498   1.410   1.009   4.402
11851TIP3    H235499   1.323   1.128   4.436
11852TIP3   OH235500   3.955   6.812   3.421
11852TIP3    H135501   4.050   6.815   3.424
11852TIP3    H235502   3.929   6.894   3.378
11853TIP3   OH235503   4.137   1.158   5.255
11853TIP3    H135504   4.044   1.179   5.251
11853TIP3    H235505   4.162   1.145   5.164
11854TIP3   OH235506   3.819   2.382   4.940
11854TIP3    H135507   3.886   2.440   4.975
11854TIP3    H235508   3.747   2.387   5.004
11855TIP3   OH235509   4.603   0.859   5.433
11855TIP3    H135510   4.633   0.784   5.381
11855TIP3    H235511   4.681   0.892   5.477
11856TIP3   OH235512   1.967   1.365   2.194
11856TIP3    H135513   1.936   1.424   2.262
11856TIP3    H235514   1.955   1.414   2.112
11857TIP3   OH235515   6.018   7.699   3.371
11857TIP3    H135516   6.034   7.684   3.278
11857TIP3    H235517   6.044   7.790   3.386
11858TIP3   OH235518   4.846   6.525   0.615
11858TIP3    H135519   4.844   6.505   0.708
11858TIP3    H235520   4.939   6.533   0.594
11859TIP3   OH235521   5.557   7.167   4.080
11859TIP3    H135522   5.586   7.170   4.172
11859TIP3    H235523   5.636   7.185   4.030
11860TIP3   OH235524   1.765   5.867   3.005
11860TIP3    H135525   1.792   5.789   3.054
11860TIP3    H235526   1.715   5.919   3.068
11861TIP3   OH235527   1.976   1.355   6.306
11861TIP3    H135528   2.036   1.342   6.379
11861TIP3    H235529   2.029   1.338   6.228
11862TIP3   OH235530   3.252   6.178   0.633
11862TIP3    H135531   3.159   6.190   0.652
11862TIP3    H235532   3.270   6.088   0.659
11863TIP3   OH235533   3.294   3.455   3.594
11863TIP3    H135534   3.291   3.479   3.686
11863TIP3    H235535   3.277   3.361   3.593
11864TIP3   OH235536   3.044   0.218   4.496
11864TIP3    H135537   3.137   0.239   4.500
11864TIP3    H235538   3.018   0.207   4.587
11865TIP3   OH235539   2.564   3.120   0.216
11865TIP3    H135540   2.475   3.109   0.251
11865TIP3    H235541   2.621   3.110   0.293
11866TIP3   OH235542   3.658   4.692   0.114
11866TIP3    H135543   3.635   4.666   0.203
11866TIP3    H235544   3.574   4.714   0.073
11867TIP3   OH235545   1.051   6.631   5.976
11867TIP3    H135546   1.095   6.666   5.899
11867TIP3    H235547   1.120   6.620   6.041
11868TIP3   OH235548   8.139   0.813   0.606
11868TIP3    H135549   8.216   0.836   0.657
11868TIP3    H235550   8.070   0.800   0.671
11869TIP3   OH235551   6.493   6.772   5.452
11869TIP3    H135552   6.439   6.803   5.380
11869TIP3    H235553   6.465   6.682   5.467
11870TIP3   OH235554   4.550   2.299   4.242
11870TIP3    H135555   4.519   2.380   4.201
11870TIP3    H235556   4.521   2.230   4.183
11871TIP3   OH235557   6.808   4.720   3.111
11871TIP3    H135558   6.855   4.799   3.138
11871TIP3    H235559   6.723   4.752   3.081
11872TIP3   OH235560   4.968   3.409   4.375
11872TIP3    H135561   5.041   3.378   4.322
11872TIP3    H235562   4.890   3.394   4.321
11873TIP3   OH235563   0.904   1.918   5.092
11873TIP3    H135564   0.911   1.905   5.186
11873TIP3    H235565   0.978   1.869   5.055
11874TIP3   OH235566   4.137   2.024   5.373
11874TIP3    H135567   4.144   2.054   5.282
11874TIP3    H235568   4.059   2.068   5.407
11875TIP3   OH235569   5.999   6.458   3.317
11875TIP3    H135570   6.034   6.479   3.230
11875TIP3    H235571   6.043   6.519   3.376
11876TIP3   OH235572   6.100   3.110   6.383
11876TIP3    H135573   6.101   3.146   6.295
11876TIP3    H235574   6.183   3.064   6.392
11877TIP3   OH235575   7.645   3.760   1.294
11877TIP3    H135576   7.594   3.697   1.345
11877TIP3    H235577   7.692   3.707   1.230
11878TIP3   OH235578   4.943   0.395   6.674
11878TIP3    H135579   4.931   0.322   6.613
11878TIP3    H235580   4.879   0.460   6.646
11879TIP3   OH235581   6.766   6.061   1.384
11879TIP3    H135582   6.707   6.049   1.459
11879TIP3    H235583   6.767   6.155   1.369
11880TIP3   OH235584   7.988   4.645   6.152
11880TIP3    H135585   7.935   4.574   6.117
11880TIP3    H235586   7.951   4.663   6.239
11881TIP3   OH235587   2.865   4.153   0.333
11881TIP3    H135588   2.942   4.137   0.278
11881TIP3    H235589   2.794   4.167   0.270
11882TIP3   OH235590   2.746   2.212   6.659
11882TIP3    H135591   2.795   2.283   6.618
11882TIP3    H235592   2.658   2.220   6.624
11883TIP3   OH235593   4.330   2.452   0.807
11883TIP3    H135594   4.381   2.425   0.731
11883TIP3    H235595   4.379   2.419   0.883
11884TIP3   OH235596   4.482   7.354   6.477
11884TIP3    H135597   4.482   7.262   6.502
11884TIP3    H235598   4.443   7.355   6.389
11885TIP3   OH235599   2.757   2.445   6.517
11885TIP3    H135600   2.812   2.514   6.554
11885TIP3    H235601   2.687   2.433   6.581
11886TIP3   OH235602   4.511   6.273   6.143
11886TIP3    H135603   4.474   6.191   6.109
11886TIP3    H235604   4.436   6.324   6.170
11887TIP3   OH235605   8.034   0.970   5.894
11887TIP3    H135606   8.129   0.959   5.899
11887TIP3    H235607   8.000   0.883   5.916
11888TIP3   OH235608   1.407   7.041   5.979
11888TIP3    H135609   1.333   7.045   6.040
11888TIP3    H235610   1.442   7.130   5.978
11889TIP3   OH235611   7.222   6.635   3.838
11889TIP3    H135612   7.130   6.625   3.815
11889TIP3    H235613   7.267   6.643   3.754
11890TIP3   OH235614   2.637   0.540   6.750
11890TIP3    H135615   2.569   0.570   6.690
11890TIP3    H235616   2.695   0.487   6.696
11891TIP3   OH235617   4.774   2.724   2.213
11891TIP3    H135618   4.753   2.676   2.133
11891TIP3    H235619   4.705   2.701   2.275
11892TIP3   OH235620   1.828   5.017   5.684
11892TIP3    H135621   1.861   4.951   5.624
11892TIP3    H235622   1.771   4.970   5.744
11893TIP3   OH235623   3.917   7.032   2.954
11893TIP3    H135624   3.889   6.951   2.995
11893TIP3    H235625   3.843   7.060   2.901
11894TIP3   OH235626   1.984   3.555   4.230
11894TIP3    H135627   1.972   3.465   4.261
11894TIP3    H235628   1.909   3.572   4.174
11895TIP3   OH235629   5.964   5.710   5.057
11895TIP3    H135630   6.057   5.715   5.079
11895TIP3    H235631   5.949   5.618   5.037
11896TIP3   OH235632   2.682   4.195   1.451
11896TIP3    H135633   2.666   4.240   1.367
11896TIP3    H235634   2.751   4.246   1.493
11897TIP3   OH235635   4.861   2.064   3.958
11897TIP3    H135636   4.950   2.055   3.923
11897TIP3    H235637   4.853   2.157   3.980
11898TIP3   OH235638   3.054   7.001   3.230
11898TIP3    H135639   3.133   6.948   3.241
11898TIP3    H235640   3.078   7.087   3.264
11899TIP3   OH235641   0.272   3.397   2.320
11899TIP3    H135642   0.346   3.439   2.363
11899TIP3    H235643   0.198   3.414   2.378
11900TIP3   OH235644   2.728   3.070   5.341
11900TIP3    H135645   2.782   3.118   5.279
11900TIP3    H235646   2.779   3.070   5.423
11901TIP3   OH235647   2.885   4.555   4.180
11901TIP3    H135648   2.803   4.508   4.163
11901TIP3    H235649   2.922   4.511   4.256
11902TIP3   OH235650   5.028   1.704   0.078
11902TIP3    H135651   4.947   1.660   0.053
11902TIP3    H235652   5.096   1.638   0.068
11903TIP3   OH235653   5.569   2.306   0.037
11903TIP3    H135654   5.657   2.331   0.063
11903TIP3    H235655   5.526   2.389   0.015
11904TIP3   OH235656   0.913   5.612   5.466
11904TIP3    H135657   0.819   5.632   5.466
11904TIP3    H235658   0.955   5.696   5.445
11905TIP3   OH235659   3.049   7.837   5.406
11905TIP3    H135660   3.050   7.775   5.332
11905TIP3    H235661   3.003   7.791   5.476
11906TIP3   OH235662   4.275   5.632   0.329
11906TIP3    H135663   4.312   5.571   0.265
11906TIP3    H235664   4.263   5.713   0.279
11907TIP3   OH235665   7.406   6.530   1.074
11907TIP3    H135666   7.460   6.587   1.019
11907TIP3    H235667   7.406   6.446   1.027
11908TIP3   OH235668   6.342   6.012   1.677
11908TIP3    H135669   6.308   6.094   1.642
11908TIP3    H235670   6.312   6.011   1.768
11909TIP3   OH235671   7.901   5.590   2.728
11909TIP3    H135672   7.861   5.589   2.641
11909TIP3    H235673   7.883   5.678   2.762
11910TIP3   OH235674   6.307   5.053   0.780
11910TIP3    H135675   6.225   5.072   0.733
11910TIP3    H235676   6.335   5.138   0.815
11911TIP3   OH235677   3.745   1.812   1.549
11911TIP3    H135678   3.760   1.752   1.476
11911TIP3    H235679   3.817   1.795   1.610
11912TIP3   OH235680   3.168   3.288   3.326
11912TIP3    H135681   3.116   3.306   3.247
11912TIP3    H235682   3.258   3.279   3.294
11913TIP3   OH235683   3.431   0.068   6.070
11913TIP3    H135684   3.442   0.159   6.043
11913TIP3    H235685   3.412   0.021   5.989
11914TIP3   OH235686   1.316   5.569   4.659
11914TIP3    H135687   1.410   5.570   4.639
11914TIP3    H235688   1.312   5.561   4.754
11915TIP3   OH235689   6.327   0.677   3.038
11915TIP3    H135690   6.268   0.751   3.021
11915TIP3    H235691   6.356   0.690   3.128
11916TIP3   OH235692   3.750   6.789   4.956
11916TIP3    H135693   3.790   6.771   4.871
11916TIP3    H235694   3.823   6.813   5.013
11917TIP3   OH235695   7.416   1.816   2.233
11917TIP3    H135696   7.454   1.888   2.284
11917TIP3    H235697   7.327   1.807   2.267
11918TIP3   OH235698   7.809   6.694   4.131
11918TIP3    H135699   7.885   6.751   4.130
11918TIP3    H235700   7.823   6.636   4.206
11919TIP3   OH235701   0.418   2.767   2.510
11919TIP3    H135702   0.423   2.797   2.420
11919TIP3    H235703   0.373   2.682   2.505
11920TIP3   OH235704   6.261   3.742   1.259
11920TIP3    H135705   6.202   3.814   1.281
11920TIP3    H235706   6.309   3.772   1.182
11921TIP3   OH235707   2.455   3.029   6.180
11921TIP3    H135708   2.480   2.938   6.163
11921TIP3    H235709   2.360   3.029   6.176
11922TIP3   OH235710   0.983   0.338   6.728
11922TIP3    H135711   0.967   0.346   6.822
11922TIP3    H235712   0.937   0.413   6.689
11923TIP3   OH235713   1.985   4.132   2.684
11923TIP3    H135714   1.933   4.171   2.754
11923TIP3    H235715   2.036   4.205   2.648
11924TIP3   OH235716   6.174   2.681   1.061
11924TIP3    H135717   6.253   2.731   1.081
11924TIP3    H235718   6.163   2.690   0.966
11925TIP3   OH235719   1.709   5.559   2.697
11925TIP3    H135720   1.659   5.539   2.776
11925TIP3    H235721   1.700   5.654   2.687
11926TIP3   OH235722   6.585   7.760   5.325
11926TIP3    H135723   6.636   7.710   5.388
11926TIP3    H235724   6.649   7.795   5.264
11927TIP3   OH235725   7.884   4.820   1.714
11927TIP3    H135726   7.940   4.868   1.653
11927TIP3    H235727   7.931   4.739   1.732
11928TIP3   OH235728   6.872   4.286   0.206
11928TIP3    H135729   6.940   4.345   0.175
11928TIP3    H235730   6.917   4.202   0.220
11929TIP3   OH235731   4.608   1.629   4.283
11929TIP3    H135732   4.701   1.636   4.304
11929TIP3    H235733   4.604   1.632   4.188
11930TIP3   OH235734   0.248   7.331   0.533
11930TIP3    H135735   0.217   7.375   0.454
11930TIP3    H235736   0.190   7.363   0.603
11931TIP3   OH235737   0.625   3.907   0.853
11931TIP3    H135738   0.542   3.889   0.809
11931TIP3    H235739   0.640   4.001   0.839
11932TIP3   OH235740   7.876   1.820   4.299
11932TIP3    H135741   7.948   1.757   4.296
11932TIP3    H235742   7.888   1.874   4.221
11933TIP3   OH235743   5.778   1.658   2.036
11933TIP3    H135744   5.751   1.736   1.987
11933TIP3    H235745   5.717   1.590   2.007
11934TIP3   OH235746   5.533   6.975   6.495
11934TIP3    H135747   5.525   7.068   6.476
11934TIP3    H235748   5.498   6.965   6.584
11935TIP3   OH235749   2.576   0.173   0.850
11935TIP3    H135750   2.592   0.177   0.944
11935TIP3    H235751   2.484   0.144   0.843
11936TIP3   OH235752   7.480   4.879   5.297
11936TIP3    H135753   7.511   4.860   5.209
11936TIP3    H235754   7.431   4.960   5.289
11937TIP3   OH235755   3.459   7.359   3.866
11937TIP3    H135756   3.427   7.277   3.904
11937TIP3    H235757   3.547   7.338   3.834
11938TIP3   OH235758   2.395   2.473   6.301
11938TIP3    H135759   2.308   2.445   6.274
11938TIP3    H235760   2.440   2.493   6.219
11939TIP3   OH235761   1.470   0.126   0.714
11939TIP3    H135762   1.526   0.178   0.771
11939TIP3    H235763   1.529   0.061   0.675
11940TIP3   OH235764   2.308   7.541   6.048
11940TIP3    H135765   2.276   7.614   5.995
11940TIP3    H235766   2.367   7.582   6.112
11941TIP3   OH235767   7.923   0.410   3.125
11941TIP3    H135768   7.974   0.342   3.168
11941TIP3    H235769   7.941   0.399   3.032
11942TIP3   OH235770   3.809   3.734   3.220
11942TIP3    H135771   3.742   3.739   3.152
11942TIP3    H235772   3.767   3.771   3.298
11943TIP3   OH235773   2.299   6.166   5.082
11943TIP3    H135774   2.336   6.248   5.048
11943TIP3    H235775   2.366   6.100   5.066
11944TIP3   OH235776   0.073   3.321   2.148
11944TIP3    H135777   0.133   3.383   2.189
11944TIP3    H235778   0.109   3.308   2.060
11945TIP3   OH235779   4.557   2.451   3.221
11945TIP3    H135780   4.561   2.371   3.272
11945TIP3    H235781   4.613   2.512   3.267
11946TIP3   OH235782   0.435   1.867   6.695
11946TIP3    H135783   0.346   1.853   6.665
11946TIP3    H235784   0.489   1.813   6.638
11947TIP3   OH235785   6.698   1.127   0.442
11947TIP3    H135786   6.624   1.140   0.502
11947TIP3    H235787   6.678   1.184   0.368
11948TIP3   OH235788   1.890   2.121   1.070
11948TIP3    H135789   1.810   2.152   1.027
11948TIP3    H235790   1.959   2.143   1.008
11949TIP3   OH235791   1.438   5.110   6.675
11949TIP3    H135792   1.381   5.035   6.695
11949TIP3    H235793   1.460   5.147   6.761
11950TIP3   OH235794   0.678   0.692   3.559
11950TIP3    H135795   0.662   0.730   3.645
11950TIP3    H235796   0.703   0.766   3.504
11951TIP3   OH235797   1.631   3.689   2.470
11951TIP3    H135798   1.540   3.672   2.447
11951TIP3    H235799   1.680   3.672   2.390
11952TIP3   OH235800   6.615   0.477   6.679
11952TIP3    H135801   6.707   0.494   6.700
11952TIP3    H235802   6.613   0.388   6.645
11953TIP3   OH235803   0.160   2.005   0.913
11953TIP3    H135804   0.114   2.029   0.993
11953TIP3    H235805   0.169   2.087   0.864
11954TIP3   OH235806   4.849   4.442   6.365
11954TIP3    H135807   4.871   4.490   6.445
11954TIP3    H235808   4.826   4.510   6.302
11955TIP3   OH235809   2.333   6.057   2.558
11955TIP3    H135810   2.382   6.120   2.611
11955TIP3    H235811   2.249   6.101   2.541
11956TIP3   OH235812   1.670   6.707   2.703
11956TIP3    H135813   1.660   6.626   2.652
11956TIP3    H235814   1.595   6.706   2.763
11957TIP3   OH235815   4.277   0.419   5.109
11957TIP3    H135816   4.283   0.476   5.186
11957TIP3    H235817   4.227   0.470   5.045
11958TIP3   OH235818   1.216   5.979   4.534
11958TIP3    H135819   1.139   6.031   4.558
11958TIP3    H235820   1.285   6.044   4.519
11959TIP3   OH235821   6.799   4.196   2.456
11959TIP3    H135822   6.776   4.129   2.392
11959TIP3    H235823   6.747   4.272   2.430
11960TIP3   OH235824   0.659   4.499   0.438
11960TIP3    H135825   0.754   4.507   0.442
11960TIP3    H235826   0.638   4.499   0.345
11961TIP3   OH235827   6.159   1.367   1.989
11961TIP3    H135828   6.149   1.448   1.940
11961TIP3    H235829   6.075   1.322   1.980
11962TIP3   OH235830   0.372   3.571   6.335
11962TIP3    H135831   0.340   3.483   6.317
11962TIP3    H235832   0.453   3.558   6.383
11963TIP3   OH235833   2.584   5.539   3.386
11963TIP3    H135834   2.587   5.556   3.480
11963TIP3    H235835   2.672   5.562   3.355
11964TIP3   OH235836   2.458   1.325   2.844
11964TIP3    H135837   2.430   1.246   2.891
11964TIP3    H235838   2.391   1.390   2.865
11965TIP3   OH235839   7.687   3.068   4.321
11965TIP3    H135840   7.750   3.068   4.249
11965TIP3    H235841   7.672   3.160   4.340
11966TIP3   OH235842   0.798   2.409   3.265
11966TIP3    H135843   0.707   2.392   3.289
11966TIP3    H235844   0.795   2.423   3.170
11967TIP3   OH235845   7.707   1.416   2.930
11967TIP3    H135846   7.685   1.430   3.022
11967TIP3    H235847   7.636   1.362   2.896
11968TIP3   OH235848   3.332   6.611   1.809
11968TIP3    H135849   3.285   6.674   1.864
11968TIP3    H235850   3.269   6.542   1.792
11969TIP3   OH235851   3.549   0.105   3.200
11969TIP3    H135852   3.542   0.187   3.153
11969TIP3    H235853   3.611   0.053   3.149
11970TIP3   OH235854   7.693   4.344   4.519
11970TIP3    H135855   7.601   4.355   4.541
11970TIP3    H235856   7.697   4.355   4.424
11971TIP3   OH235857   6.356   4.199   6.629
11971TIP3    H135858   6.273   4.192   6.582
11971TIP3    H235859   6.386   4.288   6.610
11972TIP3   OH235860   5.122   5.381   3.516
11972TIP3    H135861   5.051   5.323   3.489
11972TIP3    H235862   5.202   5.336   3.489
11973TIP3   OH235863   7.358   1.408   5.693
11973TIP3    H135864   7.433   1.348   5.697
11973TIP3    H235865   7.282   1.354   5.713
11974TIP3   OH235866   0.341   0.066   2.736
11974TIP3    H135867   0.257   0.104   2.710
11974TIP3    H235868   0.320  -0.024   2.762
11975TIP3   OH235869   4.145   4.635   1.217
11975TIP3    H135870   4.080   4.633   1.147
11975TIP3    H235871   4.226   4.662   1.174
11976TIP3   OH235872   4.793   3.291   1.298
11976TIP3    H135873   4.865   3.227   1.296
11976TIP3    H235874   4.836   3.375   1.311
11977TIP3   OH235875   7.552   2.802   6.277
11977TIP3    H135876   7.480   2.854   6.241
11977TIP3    H235877   7.522   2.712   6.272
11978TIP3   OH235878   6.656   7.521   2.476
11978TIP3    H135879   6.642   7.497   2.385
11978TIP3    H235880   6.666   7.617   2.475
11979TIP3   OH235881   2.747   6.580   0.940
11979TIP3    H135882   2.778   6.671   0.936
11979TIP3    H235883   2.735   6.563   1.034
11980TIP3   OH235884   0.567   6.263   5.092
11980TIP3    H135885   0.513   6.185   5.076
11980TIP3    H235886   0.534   6.299   5.174
11981TIP3   OH235887   5.993   2.932   2.103
11981TIP3    H135888   6.071   2.877   2.100
11981TIP3    H235889   5.943   2.907   2.025
11982TIP3   OH235890   8.077   7.634   6.661
11982TIP3    H135891   8.117   7.691   6.596
11982TIP3    H235892   7.985   7.660   6.664
11983TIP3   OH235893   6.777   2.033   0.804
11983TIP3    H135894   6.802   2.125   0.800
11983TIP3    H235895   6.708   2.030   0.871
11984TIP3   OH235896   1.081   1.361   4.791
11984TIP3    H135897   0.992   1.365   4.757
11984TIP3    H235898   1.134   1.403   4.723
11985TIP3   OH235899   5.629   6.801   0.201
11985TIP3    H135900   5.661   6.711   0.209
11985TIP3    H235901   5.690   6.853   0.255
11986TIP3   OH235902   5.696   0.775   4.573
11986TIP3    H135903   5.702   0.706   4.639
11986TIP3    H235904   5.607   0.809   4.582
11987TIP3   OH235905   6.723   3.314   5.335
11987TIP3    H135906   6.679   3.241   5.291
11987TIP3    H235907   6.674   3.326   5.416
11988TIP3   OH235908   6.210   5.744   5.180
11988TIP3    H135909   6.261   5.819   5.209
11988TIP3    H235910   6.156   5.721   5.256
11989TIP3   OH235911   4.582   5.664   0.596
11989TIP3    H135912   4.674   5.647   0.575
11989TIP3    H235913   4.566   5.615   0.676
11990TIP3   OH235914   1.137   6.538   3.507
11990TIP3    H135915   1.094   6.567   3.426
11990TIP3    H235916   1.215   6.593   3.515
11991TIP3   OH235917   1.524   0.476   5.844
11991TIP3    H135918   1.481   0.477   5.758
11991TIP3    H235919   1.517   0.385   5.873
11992TIP3   OH235920   0.869   7.505   6.286
11992TIP3    H135921   0.812   7.492   6.362
11992TIP3    H235922   0.841   7.588   6.249
11993TIP3   OH235923   2.773   1.423   0.227
11993TIP3    H135924   2.832   1.410   0.302
11993TIP3    H235925   2.726   1.340   0.219
11994TIP3   OH235926   7.439   6.774   6.121
11994TIP3    H135927   7.439   6.867   6.098
11994TIP3    H235928   7.413   6.772   6.213
11995TIP3   OH235929   2.803   3.783   4.357
11995TIP3    H135930   2.889   3.793   4.400
11995TIP3    H235931   2.762   3.710   4.403
11996TIP3   OH235932   4.536   2.850   5.575
11996TIP3    H135933   4.540   2.802   5.492
11996TIP3    H235934   4.451   2.826   5.612
11997TIP3   OH235935   5.668   2.860   0.711
11997TIP3    H135936   5.576   2.884   0.718
11997TIP3    H235937   5.688   2.817   0.794
11998TIP3   OH235938   3.189   4.519   3.842
11998TIP3    H135939   3.219   4.428   3.836
11998TIP3    H235940   3.244   4.558   3.910
11999TIP3   OH235941   6.989   6.352   3.604
11999TIP3    H135942   6.955   6.383   3.688
11999TIP3    H235943   6.921   6.375   3.540
12000TIP3   OH235944   3.167   1.568   2.713
12000TIP3    H135945   3.099   1.520   2.665
12000TIP3    H235946   3.125   1.649   2.740
12001TIP3   OH235947   2.441   6.077   4.832
12001TIP3    H135948   2.444   6.172   4.841
12001TIP3    H235949   2.499   6.045   4.901
12002TIP3   OH235950   0.018   5.136   6.544
12002TIP3    H135951   0.051   5.103   6.627
12002TIP3    H235952  -0.025   5.061   6.503
12003TIP3   OH235953   4.173   7.380   2.765
12003TIP3    H135954   4.160   7.286   2.765
12003TIP3    H235955   4.210   7.399   2.851
12004TIP3   OH235956   1.841   6.393   3.422
12004TIP3    H135957   1.865   6.396   3.330
12004TIP3    H235958   1.924   6.402   3.469
12005TIP3   OH235959   4.830   3.873   5.725
12005TIP3    H135960   4.759   3.894   5.785
12005TIP3    H235961   4.891   3.946   5.733
12006TIP3   OH235962   5.609   7.439   2.367
12006TIP3    H135963   5.593   7.530   2.392
12006TIP3    H235964   5.684   7.412   2.419
12007TIP3   OH235965   3.966   2.943   2.676
12007TIP3    H135966   4.029   2.904   2.736
12007TIP3    H235967   3.898   2.980   2.733
12008TIP3   OH235968   8.083   0.129   5.956
12008TIP3    H135969   8.005   0.133   6.011
12008TIP3    H235970   8.149   0.177   6.005
12009TIP3   OH235971   4.920   6.580   3.112
12009TIP3    H135972   4.951   6.618   3.194
12009TIP3    H235973   4.825   6.587   3.117
12010TIP3   OH235974   8.109   0.501   3.926
12010TIP3    H135975   8.085   0.593   3.927
12010TIP3    H235976   8.202   0.500   3.900
12011TIP3   OH235977   0.947   1.373   5.723
12011TIP3    H135978   0.867   1.414   5.756
12011TIP3    H235979   1.017   1.409   5.779
12012TIP3   OH235980   0.889   1.100   1.745
12012TIP3    H135981   0.798   1.074   1.733
12012TIP3    H235982   0.906   1.086   1.838
12013TIP3   OH235983   7.987   3.275   0.255
12013TIP3    H135984   7.914   3.217   0.275
12013TIP3    H235985   8.063   3.217   0.247
12014TIP3   OH235986   7.881   7.475   1.296
12014TIP3    H135987   7.912   7.454   1.208
12014TIP3    H235988   7.820   7.404   1.318
12015TIP3   OH235989   3.442   0.086   3.639
12015TIP3    H135990   3.387   0.164   3.643
12015TIP3    H235991   3.389   0.018   3.681
12016TIP3   OH235992   7.073   5.983   3.743
12016TIP3    H135993   7.052   5.993   3.836
12016TIP3    H235994   7.167   5.967   3.742
12017TIP3   OH235995   0.951   3.398   2.001
12017TIP3    H135996   0.981   3.476   2.048
12017TIP3    H235997   0.887   3.358   2.060
12018TIP3   OH235998   1.140   3.693   1.746
12018TIP3    H135999   1.079   3.701   1.673
12018TIP3    H236000   1.158   3.600   1.752
12019TIP3   OH236001   5.035   1.562   1.193
12019TIP3    H136002   5.103   1.550   1.126
12019TIP3    H236003   4.953   1.555   1.144
12020TIP3   OH236004   4.683   1.887   2.153
12020TIP3    H136005   4.590   1.861   2.151
12020TIP3    H236006   4.685   1.965   2.209
12021TIP3   OH236007   3.024   6.074   5.060
12021TIP3    H136008   3.087   6.017   5.017
12021TIP3    H236009   3.074   6.119   5.128
12022TIP3   OH236010   1.668   2.641   2.366
12022TIP3    H136011   1.707   2.630   2.279
12022TIP3    H236012   1.664   2.552   2.402
12023TIP3   OH236013   0.666   0.266   6.335
12023TIP3    H136014   0.594   0.288   6.393
12023TIP3    H236015   0.685   0.174   6.353
12024TIP3   OH236016   4.723   5.833   4.627
12024TIP3    H136017   4.703   5.800   4.539
12024TIP3    H236018   4.770   5.761   4.669
12025TIP3   OH236019   4.400   5.757   2.677
12025TIP3    H136020   4.311   5.761   2.642
12025TIP3    H236021   4.389   5.774   2.770
12026TIP3   OH236022   2.016   1.378   1.359
12026TIP3    H136023   2.099   1.418   1.335
12026TIP3    H236024   1.963   1.450   1.394
12027TIP3   OH236025   1.651   1.352   2.330
12027TIP3    H136026   1.670   1.417   2.397
12027TIP3    H236027   1.608   1.401   2.260
12028TIP3   OH236028   7.990   0.532   1.315
12028TIP3    H136029   8.002   0.477   1.393
12028TIP3    H236030   8.050   0.496   1.250
12029TIP3   OH236031   7.846   3.902   0.666
12029TIP3    H136032   7.814   3.857   0.744
12029TIP3    H236033   7.834   3.839   0.595
12030TIP3   OH236034   2.084   7.499   6.477
12030TIP3    H136035   2.068   7.415   6.519
12030TIP3    H236036   2.077   7.481   6.383
12031TIP3   OH236037   4.164   7.315   3.797
12031TIP3    H136038   4.247   7.311   3.844
12031TIP3    H236039   4.105   7.363   3.856
12032TIP3   OH236040   5.516   4.710   0.442
12032TIP3    H136041   5.445   4.701   0.378
12032TIP3    H236042   5.539   4.620   0.465
12033TIP3   OH236043   4.404   0.485   6.261
12033TIP3    H136044   4.321   0.441   6.240
12033TIP3    H236045   4.429   0.449   6.346
12034TIP3   OH236046   0.884   1.843   2.978
12034TIP3    H136047   0.911   1.811   3.064
12034TIP3    H236048   0.963   1.883   2.941
12035TIP3   OH236049   6.849   1.751   3.564
12035TIP3    H136050   6.914   1.735   3.495
12035TIP3    H236051   6.880   1.699   3.638
12036TIP3   OH236052   4.779   1.328   6.553
12036TIP3    H136053   4.696   1.284   6.535
12036TIP3    H236054   4.832   1.311   6.476
12037TIP3   OH236055   3.522   5.332   5.062
12037TIP3    H136056   3.586   5.261   5.069
12037TIP3    H236057   3.453   5.307   5.124
12038TIP3   OH236058   3.775   6.110   5.301
12038TIP3    H136059   3.706   6.057   5.262
12038TIP3    H236060   3.854   6.085   5.252
12039TIP3   OH236061   6.298   2.985   4.101
12039TIP3    H136062   6.354   3.036   4.043
12039TIP3    H236063   6.257   2.920   4.044
12040TIP3   OH236064   7.553   6.873   0.208
12040TIP3    H136065   7.462   6.856   0.183
12040TIP3    H236066   7.558   6.968   0.215
12041TIP3   OH236067   0.845   2.943   4.667
12041TIP3    H136068   0.913   2.876   4.677
12041TIP3    H236069   0.784   2.906   4.603
12042TIP3   OH236070   5.790   3.710   5.174
12042TIP3    H136071   5.726   3.779   5.160
12042TIP3    H236072   5.765   3.670   5.258
12043TIP3   OH236073   5.820   7.243   3.985
12043TIP3    H136074   5.871   7.169   3.950
12043TIP3    H236075   5.859   7.320   3.945
12044TIP3   OH236076   1.098   0.511   2.104
12044TIP3    H136077   1.135   0.511   2.015
12044TIP3    H236078   1.028   0.446   2.101
12045TIP3   OH236079   3.160   7.064   4.497
12045TIP3    H136080   3.210   7.138   4.532
12045TIP3    H236081   3.091   7.105   4.444
12046TIP3   OH236082   5.739   1.460   3.912
12046TIP3    H136083   5.698   1.520   3.974
12046TIP3    H236084   5.748   1.510   3.832
12047TIP3   OH236085   0.790   7.433   6.523
12047TIP3    H136086   0.835   7.355   6.555
12047TIP3    H236087   0.816   7.502   6.584
12048TIP3   OH236088   6.384   5.972   1.295
12048TIP3    H136089   6.386   5.905   1.226
12048TIP3    H236090   6.434   6.045   1.259
12049TIP3   OH236091   7.043   6.842   5.936
12049TIP3    H136092   7.100   6.766   5.923
12049TIP3    H236093   7.098   6.908   5.978
12050TIP3   OH236094   3.546   6.908   2.461
12050TIP3    H136095   3.571   6.977   2.522
12050TIP3    H236096   3.558   6.948   2.374
12051TIP3   OH236097   3.430   6.903   1.607
12051TIP3    H136098   3.517   6.937   1.589
12051TIP3    H236099   3.442   6.842   1.680
12052TIP3   OH236100   5.027   1.111   1.917
12052TIP3    H136101   4.974   1.084   1.992
12052TIP3    H236102   5.117   1.092   1.944
12053TIP3   OH236103   3.445   6.101   4.563
12053TIP3    H136104   3.425   6.116   4.656
12053TIP3    H236105   3.361   6.114   4.519
12054TIP3   OH236106   0.906   3.713   4.792
12054TIP3    H136107   0.814   3.697   4.772
12054TIP3    H236108   0.906   3.752   4.879
12055TIP3   OH236109   7.449   6.112   3.898
12055TIP3    H136110   7.463   6.136   3.990
12055TIP3    H236111   7.501   6.033   3.886
12056TIP3   OH236112   5.111   6.995   5.730
12056TIP3    H136113   5.103   6.939   5.807
12056TIP3    H236114   5.204   6.991   5.707
12057TIP3   OH236115   7.842   2.198   5.330
12057TIP3    H136116   7.794   2.256   5.271
12057TIP3    H236117   7.880   2.131   5.272
12058TIP3   OH236118   2.146   7.374   6.211
12058TIP3    H136119   2.155   7.423   6.129
12058TIP3    H236120   2.234   7.375   6.250
12059TIP3   OH236121   8.096   2.284   4.631
12059TIP3    H136122   8.081   2.271   4.538
12059TIP3    H236123   8.049   2.212   4.673
12060TIP3   OH236124   2.667   5.928   0.573
12060TIP3    H136125   2.762   5.929   0.562
12060TIP3    H236126   2.652   5.976   0.654
12061TIP3   OH236127   1.998   0.159   5.833
12061TIP3    H136128   1.965   0.249   5.832
12061TIP3    H236129   1.984   0.128   5.744
12062TIP3   OH236130   7.787   6.830   0.345
12062TIP3    H136131   7.702   6.845   0.303
12062TIP3    H236132   7.766   6.779   0.423
12063TIP3   OH236133   5.937   0.800   4.447
12063TIP3    H136134   5.966   0.720   4.491
12063TIP3    H236135   5.857   0.825   4.493
12064TIP3   OH236136   0.298   4.797   4.455
12064TIP3    H136137   0.387   4.814   4.424
12064TIP3    H236138   0.279   4.708   4.426
12065TIP3   OH236139   5.243   7.224   5.446
12065TIP3    H136140   5.327   7.201   5.486
12065TIP3    H236141   5.192   7.144   5.449
12066TIP3   OH236142   7.107   1.285   5.743
12066TIP3    H136143   7.050   1.269   5.669
12066TIP3    H236144   7.051   1.274   5.820
12067TIP3   OH236145   1.557   2.945   4.939
12067TIP3    H136146   1.600   2.994   4.869
12067TIP3    H236147   1.484   3.001   4.965
12068TIP3   OH236148   3.245   4.683   3.623
12068TIP3    H136149   3.325   4.732   3.635
12068TIP3    H236150   3.220   4.656   3.712
12069TIP3   OH236151   0.844   2.322   0.617
12069TIP3    H136152   0.929   2.364   0.631
12069TIP3    H236153   0.857   2.232   0.647
12070TIP3   OH236154   2.237   3.690   6.460
12070TIP3    H136155   2.304   3.743   6.417
12070TIP3    H236156   2.284   3.637   6.524
12071TIP3   OH236157   3.858   0.458   5.127
12071TIP3    H136158   3.853   0.535   5.070
12071TIP3    H236159   3.855   0.493   5.216
12072TIP3   OH236160   5.710   3.485   4.337
12072TIP3    H136161   5.797   3.479   4.298
12072TIP3    H236162   5.701   3.577   4.363
12073TIP3   OH236163   1.719   2.033   2.228
12073TIP3    H136164   1.629   2.058   2.247
12073TIP3    H236165   1.746   2.093   2.159
12074TIP3   OH236166   4.078   6.397   0.154
12074TIP3    H136167   4.032   6.340   0.217
12074TIP3    H236168   4.168   6.401   0.187
12075TIP3   OH236169   3.765   5.487   5.601
12075TIP3    H136170   3.722   5.441   5.673
12075TIP3    H236171   3.693   5.522   5.549
12076TIP3   OH236172   1.740   5.141   4.843
12076TIP3    H136173   1.691   5.092   4.910
12076TIP3    H236174   1.804   5.079   4.810
12077TIP3   OH236175   5.339   3.476   0.463
12077TIP3    H136176   5.366   3.432   0.383
12077TIP3    H236177   5.245   3.459   0.469
12078TIP3   OH236178   5.953   6.424   6.271
12078TIP3    H136179   5.913   6.349   6.227
12078TIP3    H236180   6.041   6.395   6.294
12079TIP3   OH236181   6.290  -0.053   5.765
12079TIP3    H136182   6.263  -0.115   5.698
12079TIP3    H236183   6.330   0.020   5.717
12080TIP3   OH236184   0.093   0.608   4.511
12080TIP3    H136185   0.114   0.702   4.516
12080TIP3    H236186   0.118   0.574   4.597
12081TIP3   OH236187   7.220   4.577   6.340
12081TIP3    H136188   7.306   4.620   6.344
12081TIP3    H236189   7.180   4.613   6.260
12082TIP3   OH236190   1.730   2.429   4.376
12082TIP3    H136191   1.715   2.508   4.324
12082TIP3    H236192   1.712   2.455   4.466
12083TIP3   OH236193   5.516   1.016   0.652
12083TIP3    H136194   5.514   0.963   0.731
12083TIP3    H236195   5.430   1.059   0.649
12084TIP3   OH236196   2.337   4.589   4.442
12084TIP3    H136197   2.252   4.549   4.462
12084TIP3    H236198   2.336   4.601   4.347
12085TIP3   OH236199   6.246   1.974   5.533
12085TIP3    H136200   6.167   1.956   5.583
12085TIP3    H236201   6.291   2.042   5.583
12086TIP3   OH236202   0.348   6.002   6.230
12086TIP3    H136203   0.415   5.946   6.192
12086TIP3    H236204   0.363   6.088   6.191
12087TIP3   OH236205   5.253   2.813   5.933
12087TIP3    H136206   5.220   2.723   5.935
12087TIP3    H236207   5.179   2.865   5.901
12088TIP3   OH236208   4.025   2.677   0.526
12088TIP3    H136209   4.054   2.639   0.443
12088TIP3    H236210   3.998   2.602   0.579
12089TIP3   OH236211   7.407   6.088   3.636
12089TIP3    H136212   7.398   6.100   3.731
12089TIP3    H236213   7.355   6.158   3.598
12090TIP3   OH236214   5.074   2.601   1.393
12090TIP3    H136215   4.984   2.598   1.361
12090TIP3    H236216   5.120   2.536   1.340
12091TIP3   OH236217   1.403   2.617   6.001
12091TIP3    H136218   1.473   2.557   6.025
12091TIP3    H236219   1.323   2.565   6.011
12092TIP3   OH236220   3.224   2.970   1.584
12092TIP3    H136221   3.195   2.920   1.660
12092TIP3    H236222   3.197   3.060   1.603
12093TIP3   OH236223   8.149   2.322   2.612
12093TIP3    H136224   8.103   2.380   2.552
12093TIP3    H236225   8.082   2.291   2.673
12094TIP3   OH236226   5.018   7.097   2.963
12094TIP3    H136227   5.055   7.163   3.021
12094TIP3    H236228   4.989   7.146   2.886
12095TIP3   OH236229   0.333   7.482   3.532
12095TIP3    H136230   0.347   7.433   3.451
12095TIP3    H236231   0.347   7.417   3.601
12096TIP3   OH236232   0.736   3.541   5.107
12096TIP3    H136233   0.673   3.609   5.128
12096TIP3    H236234   0.808   3.555   5.169
12097TIP3   OH236235   6.139   0.628   0.981
12097TIP3    H136236   6.106   0.617   0.891
12097TIP3    H236237   6.234   0.636   0.971
12098TIP3   OH236238   0.117   4.343   5.735
12098TIP3    H136239   0.068   4.382   5.807
12098TIP3    H236240   0.055   4.284   5.692
12099TIP3   OH236241   7.455   7.371   0.839
12099TIP3    H136242   7.376   7.385   0.787
12099TIP3    H236243   7.437   7.292   0.890
12100TIP3   OH236244   0.450   6.584   6.639
12100TIP3    H136245   0.414   6.498   6.617
12100TIP3    H236246   0.538   6.583   6.602
12101TIP3   OH236247   5.789   6.577   4.422
12101TIP3    H136248   5.727   6.557   4.492
12101TIP3    H236249   5.753   6.533   4.345
12102TIP3   OH236250   6.905   7.727   3.245
12102TIP3    H136251   6.830   7.670   3.229
12102TIP3    H236252   6.948   7.688   3.321
12103TIP3   OH236253   0.243   3.872   3.196
12103TIP3    H136254   0.222   3.951   3.246
12103TIP3    H236255   0.321   3.837   3.241
12104TIP3   OH236256   5.015   7.816   1.184
12104TIP3    H136257   4.986   7.749   1.246
12104TIP3    H236258   4.973   7.791   1.101
12105TIP3   OH236259   5.897   3.149   1.685
12105TIP3    H136260   5.826   3.171   1.745
12105TIP3    H236261   5.875   3.062   1.652
12106TIP3   OH236262   7.244   6.849   3.280
12106TIP3    H136263   7.222   6.838   3.188
12106TIP3    H236264   7.282   6.765   3.306
12107TIP3   OH236265   2.810   0.566   2.949
12107TIP3    H136266   2.716   0.579   2.933
12107TIP3    H236267   2.830   0.482   2.908
12108TIP3   OH236268   3.495   5.388   4.230
12108TIP3    H136269   3.425   5.410   4.168
12108TIP3    H236270   3.507   5.294   4.220
12109TIP3   OH236271   5.115   0.944   3.418
12109TIP3    H136272   5.145   1.003   3.487
12109TIP3    H236273   5.163   0.863   3.434
12110TIP3   OH236274   2.553   5.580   3.662
12110TIP3    H136275   2.637   5.585   3.708
12110TIP3    H236276   2.490   5.555   3.730
12111TIP3   OH236277   1.947   3.127   0.215
12111TIP3    H136278   1.905   3.085   0.289
12111TIP3    H236279   2.018   3.068   0.190
12112TIP3   OH236280   4.522   5.310   3.093
12112TIP3    H136281   4.508   5.215   3.094
12112TIP3    H236282   4.528   5.332   3.000
12113TIP3   OH236283   6.424   6.551   1.394
12113TIP3    H136284   6.396   6.504   1.316
12113TIP3    H236285   6.480   6.621   1.361
12114TIP3   OH236286   4.267   0.677   1.263
12114TIP3    H136287   4.271   0.692   1.169
12114TIP3    H236288   4.302   0.757   1.302
12115TIP3   OH236289   7.433   5.007   1.800
12115TIP3    H136290   7.424   4.956   1.881
12115TIP3    H236291   7.528   5.008   1.783
12116TIP3   OH236292   1.559   5.254   2.546
12116TIP3    H136293   1.631   5.302   2.588
12116TIP3    H236294   1.498   5.236   2.617
12117TIP3   OH236295   1.918   7.701   4.057
12117TIP3    H136296   1.964   7.744   4.129
12117TIP3    H236297   1.838   7.665   4.098
12118TIP3   OH236298   1.695   7.512   3.259
12118TIP3    H136299   1.784   7.524   3.290
12118TIP3    H236300   1.640   7.528   3.336
12119TIP3   OH236301   7.434   6.919   1.267
12119TIP3    H136302   7.432   6.831   1.230
12119TIP3    H236303   7.518   6.955   1.239
12120TIP3   OH236304   5.676   2.578   0.807
12120TIP3    H136305   5.671   2.620   0.721
12120TIP3    H236306   5.585   2.559   0.830
12121TIP3   OH236307   5.496   2.957   5.181
12121TIP3    H136308   5.589   2.941   5.164
12121TIP3    H236309   5.493   2.995   5.268
12122TIP3   OH236310   2.981   6.157   2.796
12122TIP3    H136311   3.000   6.138   2.888
12122TIP3    H236312   3.011   6.079   2.749
12123TIP3   OH236313   1.368   3.381   4.345
12123TIP3    H136314   1.320   3.380   4.428
12123TIP3    H236315   1.307   3.342   4.282
12124TIP3   OH236316   0.146   2.241   1.487
12124TIP3    H136317   0.206   2.303   1.528
12124TIP3    H236318   0.072   2.295   1.458
12125TIP3   OH236319   2.104   6.581   5.278
12125TIP3    H136320   2.117   6.486   5.273
12125TIP3    H236321   2.034   6.599   5.216
12126TIP3   OH236322   4.884   1.017   5.784
12126TIP3    H136323   4.924   1.096   5.820
12126TIP3    H236324   4.884   0.955   5.857
12127TIP3   OH236325   0.644   1.241   0.314
12127TIP3    H136326   0.553   1.214   0.328
12127TIP3    H236327   0.680   1.175   0.255
12128TIP3   OH236328   1.866   0.132   3.976
12128TIP3    H136329   1.958   0.128   4.004
12128TIP3    H236330   1.835   0.041   3.982
12129TIP3   OH236331   0.922   0.342   6.286
12129TIP3    H136332   0.836   0.364   6.323
12129TIP3    H236333   0.984   0.362   6.357
12130TIP3   OH236334   3.757   6.121   3.949
12130TIP3    H136335   3.844   6.082   3.956
12130TIP3    H236336   3.708   6.061   3.892
12131TIP3   OH236337   5.727   3.449   1.630
12131TIP3    H136338   5.645   3.404   1.608
12131TIP3    H236339   5.713   3.484   1.718
12132TIP3   OH236340   3.492   1.883   1.624
12132TIP3    H136341   3.435   1.932   1.565
12132TIP3    H236342   3.580   1.912   1.601
12133TIP3   OH236343   2.902   4.356   2.442
12133TIP3    H136344   2.844   4.388   2.511
12133TIP3    H236345   2.979   4.323   2.489
12134TIP3   OH236346   3.350   3.324   4.708
12134TIP3    H136347   3.371   3.379   4.784
12134TIP3    H236348   3.432   3.282   4.685
12135TIP3   OH236349   3.581   5.080   5.347
12135TIP3    H136350   3.544   5.138   5.414
12135TIP3    H236351   3.507   5.032   5.312
12136TIP3   OH236352   7.718   4.762   4.800
12136TIP3    H136353   7.709   4.748   4.706
12136TIP3    H236354   7.706   4.856   4.812
12137TIP3   OH236355   1.015   1.471   6.760
12137TIP3    H136356   0.980   1.425   6.683
12137TIP3    H236357   0.940   1.519   6.795
12138TIP3   OH236358   6.936   5.891   2.887
12138TIP3    H136359   6.991   5.843   2.948
12138TIP3    H236360   6.995   5.914   2.815
12139TIP3   OH236361   0.989   4.594   6.683
12139TIP3    H136362   1.032   4.557   6.606
12139TIP3    H236363   0.898   4.564   6.677
12140TIP3   OH236364   0.911   6.689   2.433
12140TIP3    H136365   0.827   6.688   2.478
12140TIP3    H236366   0.953   6.606   2.458
12141TIP3   OH236367   0.825   4.042   4.162
12141TIP3    H136368   0.854   3.973   4.222
12141TIP3    H236369   0.732   4.053   4.181
12142TIP3   OH236370   2.985   7.190   2.089
12142TIP3    H136371   3.005   7.276   2.127
12142TIP3    H236372   3.055   7.176   2.025
12143TIP3   OH236373   2.891   1.294   6.502
12143TIP3    H136374   2.946   1.288   6.424
12143TIP3    H236375   2.889   1.205   6.536
12144TIP3   OH236376   1.135   2.911   0.408
12144TIP3    H136377   1.125   2.962   0.327
12144TIP3    H236378   1.101   2.968   0.477
12145TIP3   OH236379   4.627   2.646   4.309
12145TIP3    H136380   4.660   2.650   4.399
12145TIP3    H236381   4.535   2.671   4.316
12146TIP3   OH236382   3.075   0.812   1.514
12146TIP3    H136383   3.063   0.904   1.491
12146TIP3    H236384   2.988   0.783   1.542
12147TIP3   OH236385   3.224   2.632   3.704
12147TIP3    H136386   3.229   2.589   3.789
12147TIP3    H236387   3.243   2.724   3.722
12148TIP3   OH236388   7.457   3.386   1.627
12148TIP3    H136389   7.384   3.324   1.622
12148TIP3    H236390   7.508   3.357   1.702
12149TIP3   OH236391   5.839   4.623   0.629
12149TIP3    H136392   5.914   4.573   0.598
12149TIP3    H236393   5.777   4.556   0.660
12150TIP3   OH236394   6.504   1.240   6.352
12150TIP3    H136395   6.418   1.250   6.312
12150TIP3    H236396   6.554   1.315   6.320
12151TIP3   OH236397   4.210   0.036   6.048
12151TIP3    H136398   4.196  -0.054   6.019
12151TIP3    H236399   4.290   0.064   6.002
12152TIP3   OH236400   1.425   5.019   6.292
12152TIP3    H136401   1.505   4.969   6.310
12152TIP3    H236402   1.358   4.953   6.277
12153TIP3   OH236403   8.165   7.217   0.579
12153TIP3    H136404   8.191   7.158   0.508
12153TIP3    H236405   8.238   7.278   0.587
12154TIP3   OH236406   3.368   0.795   6.353
12154TIP3    H136407   3.393   0.801   6.261
12154TIP3    H236408   3.444   0.757   6.397
12155TIP3   OH236409   7.356   7.070   4.552
12155TIP3    H136410   7.404   7.119   4.486
12155TIP3    H236411   7.425   7.029   4.606
12156TIP3   OH236412   3.385   6.216   0.124
12156TIP3    H136413   3.315   6.191   0.064
12156TIP3    H236414   3.388   6.312   0.119
12157TIP3   OH236415   7.224   7.739   6.447
12157TIP3    H136416   7.167   7.673   6.486
12157TIP3    H236417   7.267   7.695   6.374
12158TIP3   OH236418   4.082   1.476   0.594
12158TIP3    H136419   4.064   1.487   0.501
12158TIP3    H236420   4.003   1.435   0.629
12159TIP3   OH236421   2.342   5.294   5.618
12159TIP3    H136422   2.340   5.379   5.573
12159TIP3    H236423   2.250   5.272   5.632
12160TIP3   OH236424   2.066   5.228   3.756
12160TIP3    H136425   2.047   5.223   3.849
12160TIP3    H236426   2.145   5.175   3.744
12161TIP3   OH236427   3.106   4.717   1.401
12161TIP3    H136428   3.175   4.714   1.467
12161TIP3    H236429   3.030   4.676   1.444
12162TIP3   OH236430   1.546   1.814   0.661
12162TIP3    H136431   1.545   1.721   0.683
12162TIP3    H236432   1.527   1.816   0.567
12163TIP3   OH236433   5.568   7.357   1.123
12163TIP3    H136434   5.525   7.272   1.114
12163TIP3    H236435   5.531   7.411   1.053
12164TIP3   OH236436   5.099   2.697   5.650
12164TIP3    H136437   5.143   2.655   5.576
12164TIP3    H236438   5.035   2.632   5.680
12165TIP3   OH236439   7.677   6.791   3.355
12165TIP3    H136440   7.603   6.847   3.330
12165TIP3    H236441   7.638   6.705   3.371
12166TIP3   OH236442   6.719   5.674   6.427
12166TIP3    H136443   6.749   5.756   6.466
12166TIP3    H236444   6.796   5.636   6.386
12167TIP3   OH236445   2.345   0.783   0.787
12167TIP3    H136446   2.362   0.860   0.842
12167TIP3    H236447   2.269   0.808   0.735
12168TIP3   OH236448   1.935   4.925   4.150
12168TIP3    H136449   1.897   4.961   4.230
12168TIP3    H236450   1.971   4.840   4.177
12169TIP3   OH236451   1.715   6.416   0.597
12169TIP3    H136452   1.770   6.349   0.555
12169TIP3    H236453   1.745   6.498   0.558
12170TIP3   OH236454   7.720   2.982   6.422
12170TIP3    H136455   7.652   2.926   6.385
12170TIP3    H236456   7.791   2.923   6.445
12171TIP3   OH236457   4.555   6.842   3.173
12171TIP3    H136458   4.483   6.905   3.185
12171TIP3    H236459   4.606   6.878   3.101
12172TIP3   OH236460   2.945   1.484   1.370
12172TIP3    H136461   3.040   1.468   1.371
12172TIP3    H236462   2.925   1.501   1.278
12173TIP3   OH236463   2.038   5.505   6.572
12173TIP3    H136464   2.082   5.572   6.520
12173TIP3    H236465   1.945   5.517   6.553
12174TIP3   OH236466   5.672   5.243   0.846
12174TIP3    H136467   5.631   5.315   0.800
12174TIP3    H236468   5.623   5.165   0.819
12175TIP3   OH236469   7.047   4.434   5.866
12175TIP3    H136470   7.022   4.464   5.779
12175TIP3    H236471   7.092   4.508   5.905
12176TIP3   OH236472   5.288   4.420   5.338
12176TIP3    H136473   5.274   4.333   5.301
12176TIP3    H236474   5.347   4.406   5.412
12177TIP3   OH236475   5.072   0.417   3.525
12177TIP3    H136476   5.047   0.506   3.499
12177TIP3    H236477   4.996   0.385   3.573
12178TIP3   OH236478   6.271   5.458   5.349
12178TIP3    H136479   6.364   5.464   5.326
12178TIP3    H236480   6.256   5.530   5.410
12179TIP3   OH236481   7.710   2.502   6.580
12179TIP3    H136482   7.654   2.575   6.606
12179TIP3    H236483   7.706   2.441   6.654
12180TIP3   OH236484   3.787   6.308   3.347
12180TIP3    H136485   3.746   6.274   3.426
12180TIP3    H236486   3.783   6.403   3.356
12181TIP3   OH236487   3.594   6.791   4.625
12181TIP3    H136488   3.687   6.804   4.646
12181TIP3    H236489   3.570   6.867   4.573
12182TIP3   OH236490   2.511   1.442   6.485
12182TIP3    H136491   2.470   1.529   6.480
12182TIP3    H236492   2.603   1.460   6.505
12183TIP3   OH236493   5.093   0.077   0.290
12183TIP3    H136494   5.183   0.079   0.258
12183TIP3    H236495   5.054  -0.001   0.250
12184TIP3   OH236496   7.894   7.693   6.298
12184TIP3    H136497   7.900   7.684   6.203
12184TIP3    H236498   7.947   7.622   6.333
12185TIP3   OH236499   1.298   5.284   4.041
12185TIP3    H136500   1.223   5.229   4.065
12185TIP3    H236501   1.368   5.221   4.022
12186TIP3   OH236502   7.059   3.227   4.779
12186TIP3    H136503   7.090   3.206   4.691
12186TIP3    H236504   7.130   3.277   4.818
12187TIP3   OH236505   3.221   5.015   3.222
12187TIP3    H136506   3.200   4.952   3.291
12187TIP3    H236507   3.249   4.962   3.148
12188TIP3   OH236508   5.539   4.421   1.198
12188TIP3    H136509   5.526   4.507   1.157
12188TIP3    H236510   5.631   4.421   1.225
12189TIP3   OH236511   4.603   6.218   3.795
12189TIP3    H136512   4.632   6.197   3.707
12189TIP3    H236513   4.551   6.297   3.785
12190TIP3   OH236514   4.031   3.650   0.132
12190TIP3    H136515   4.048   3.585   0.201
12190TIP3    H236516   3.963   3.706   0.169
12191TIP3   OH236517   2.432   7.736   4.253
12191TIP3    H136518   2.507   7.682   4.228
12191TIP3    H236519   2.467   7.825   4.259
12192TIP3   OH236520   4.387   1.302   4.183
12192TIP3    H136521   4.473   1.261   4.189
12192TIP3    H236522   4.400   1.377   4.125
12193TIP3   OH236523   5.253   2.883   3.361
12193TIP3    H136524   5.189   2.929   3.415
12193TIP3    H236525   5.291   2.818   3.420
12194TIP3   OH236526   2.469   4.194   6.252
12194TIP3    H136527   2.416   4.265   6.287
12194TIP3    H236528   2.545   4.237   6.213
12195TIP3   OH236529   2.587   2.270   1.694
12195TIP3    H136530   2.631   2.189   1.719
12195TIP3    H236531   2.655   2.337   1.697
12196TIP3   OH236532   6.282   6.836   0.236
12196TIP3    H136533   6.331   6.876   0.165
12196TIP3    H236534   6.229   6.768   0.194
12197TIP3   OH236535   5.540   4.698   4.670
12197TIP3    H136536   5.457   4.692   4.717
12197TIP3    H236537   5.516   4.724   4.582
12198TIP3   OH236538   7.769   3.898   6.113
12198TIP3    H136539   7.747   3.965   6.049
12198TIP3    H236540   7.804   3.826   6.061
12199TIP3   OH236541   3.064   5.604   1.072
12199TIP3    H136542   3.091   5.685   1.030
12199TIP3    H236543   3.144   5.552   1.080
12200TIP3   OH236544   1.152   5.235   6.058
12200TIP3    H136545   1.127   5.240   6.150
12200TIP3    H236546   1.245   5.258   6.057
12201TIP3   OH236547   6.877   3.936   1.897
12201TIP3    H136548   6.887   4.018   1.848
12201TIP3    H236549   6.817   3.883   1.845
12202TIP3   OH236550   5.134   0.694   3.700
12202TIP3    H136551   5.195   0.707   3.772
12202TIP3    H236552   5.052   0.670   3.743
12203TIP3   OH236553   3.806   0.380   6.703
12203TIP3    H136554   3.828   0.355   6.793
12203TIP3    H236555   3.786   0.473   6.708
12204TIP3   OH236556   6.902   5.953   1.173
12204TIP3    H136557   6.844   5.883   1.143
12204TIP3    H236558   6.859   5.989   1.250
12205TIP3   OH236559   8.196   4.265   5.606
12205TIP3    H136560   8.115   4.310   5.580
12205TIP3    H236561   8.167   4.177   5.631
12206TIP3   OH236562   5.983   1.516   0.993
12206TIP3    H136563   5.989   1.566   1.074
12206TIP3    H236564   5.989   1.424   1.021
12207TIP3   OH236565   1.808   0.411   3.248
12207TIP3    H136566   1.817   0.430   3.341
12207TIP3    H236567   1.737   0.347   3.243
12208TIP3   OH236568   1.663   0.637   0.343
12208TIP3    H136569   1.676   0.650   0.437
12208TIP3    H236570   1.627   0.548   0.336
12209TIP3   OH236571   7.086   4.457   0.001
12209TIP3    H136572   7.151   4.390  -0.021
12209TIP3    H236573   7.011   4.438  -0.055
12210TIP3   OH236574   8.291   4.102   2.348
12210TIP3    H136575   8.319   4.023   2.394
12210TIP3    H236576   8.225   4.072   2.286
12211TIP3   OH236577   4.953   2.528   5.126
12211TIP3    H136578   5.048   2.520   5.113
12211TIP3    H236579   4.915   2.471   5.059
12212TIP3   OH236580   4.592   4.806   0.184
12212TIP3    H136581   4.578   4.872   0.116
12212TIP3    H236582   4.587   4.723   0.137
12213TIP3   OH236583   7.110   0.244   5.735
12213TIP3    H136584   7.035   0.208   5.783
12213TIP3    H236585   7.100   0.212   5.646
12214TIP3   OH236586   0.114   5.463   2.812
12214TIP3    H136587   0.116   5.546   2.860
12214TIP3    H236588   0.176   5.475   2.740
12215TIP3   OH236589   5.551   4.100   3.301
12215TIP3    H136590   5.533   4.006   3.291
12215TIP3    H236591   5.487   4.131   3.364
12216TIP3   OH236592   1.554   3.428   1.813
12216TIP3    H136593   1.624   3.481   1.776
12216TIP3    H236594   1.582   3.413   1.904
12217TIP3   OH236595   7.491   7.248   2.112
12217TIP3    H136596   7.470   7.251   2.205
12217TIP3    H236597   7.417   7.201   2.073
12218TIP3   OH236598   4.619   3.463   4.569
12218TIP3    H136599   4.698   3.410   4.579
12218TIP3    H236600   4.632   3.509   4.487
12219TIP3   OH236601   7.982   2.517   2.337
12219TIP3    H136602   8.050   2.535   2.272
12219TIP3    H236603   7.974   2.422   2.338
12220TIP3   OH236604   8.195   3.775   4.580
12220TIP3    H136605   8.178   3.866   4.604
12220TIP3    H236606   8.197   3.776   4.484
12221TIP3   OH236607   7.474   0.072   1.755
12221TIP3    H136608   7.441  -0.016   1.739
12221TIP3    H236609   7.397   0.123   1.778
12222TIP3   OH236610   3.627   3.071   3.917
12222TIP3    H136611   3.631   2.987   3.871
12222TIP3    H236612   3.717   3.085   3.948
12223TIP3   OH236613   2.787   1.894   4.760
12223TIP3    H136614   2.721   1.832   4.731
12223TIP3    H236615   2.832   1.921   4.681
12224TIP3   OH236616   1.266   3.566   3.875
12224TIP3    H136617   1.212   3.619   3.933
12224TIP3    H236618   1.355   3.600   3.886
12225TIP3   OH236619   7.303   2.666   4.068
12225TIP3    H136620   7.395   2.642   4.057
12225TIP3    H236621   7.293   2.747   4.019
12226TIP3   OH236622   5.690   0.702   0.549
12226TIP3    H136623   5.662   0.737   0.633
12226TIP3    H236624   5.709   0.610   0.567
12227TIP3   OH236625   5.200   3.826   2.330
12227TIP3    H136626   5.143   3.835   2.255
12227TIP3    H236627   5.250   3.908   2.333
12228TIP3   OH236628   6.709   7.489   3.546
12228TIP3    H136629   6.687   7.457   3.458
12228TIP3    H236630   6.684   7.581   3.545
12229TIP3   OH236631   4.013   7.079   6.357
12229TIP3    H136632   4.047   7.154   6.307
12229TIP3    H236633   3.954   7.118   6.421
12230TIP3   OH236634   3.419   1.509   3.122
12230TIP3    H136635   3.356   1.463   3.177
12230TIP3    H236636   3.503   1.466   3.140
12231TIP3   OH236637   0.807   5.977   5.942
12231TIP3    H136638   0.757   6.032   6.002
12231TIP3    H236639   0.870   5.932   5.997
12232TIP3   OH236640   6.783   2.866   0.097
12232TIP3    H136641   6.751   2.868   0.007
12232TIP3    H236642   6.879   2.862   0.088
12233TIP3   OH236643   0.743   7.329   3.708
12233TIP3    H136644   0.777   7.241   3.695
12233TIP3    H236645   0.705   7.353   3.624
12234TIP3   OH236646   5.115   5.356   4.729
12234TIP3    H136647   5.115   5.302   4.809
12234TIP3    H236648   5.180   5.314   4.673
12235TIP3   OH236649   7.086   6.326   6.356
12235TIP3    H136650   7.140   6.399   6.327
12235TIP3    H236651   7.040   6.359   6.432
12236TIP3   OH236652   4.752   3.720   3.019
12236TIP3    H136653   4.810   3.654   3.055
12236TIP3    H236654   4.666   3.678   3.018
12237TIP3   OH236655   7.848   1.210   2.594
12237TIP3    H136656   7.852   1.162   2.676
12237TIP3    H236657   7.758   1.242   2.588
12238TIP3   OH236658   6.336   3.415   4.628
12238TIP3    H136659   6.306   3.472   4.699
12238TIP3    H236660   6.255   3.385   4.586
12239TIP3   OH236661   7.963   6.622   4.956
12239TIP3    H136662   7.950   6.717   4.949
12239TIP3    H236663   7.939   6.588   4.870
12240TIP3   OH236664   5.529   3.242   6.126
12240TIP3    H136665   5.607   3.203   6.166
12240TIP3    H236666   5.490   3.170   6.076
12241TIP3   OH236667   7.017   5.693   5.528
12241TIP3    H136668   7.111   5.712   5.519
12241TIP3    H236669   7.014   5.603   5.561
12242TIP3   OH236670   1.890   3.399   1.920
12242TIP3    H136671   1.930   3.333   1.865
12242TIP3    H236672   1.845   3.458   1.859
12243TIP3   OH236673   0.412   3.157   6.229
12243TIP3    H136674   0.339   3.098   6.245
12243TIP3    H236675   0.374   3.232   6.183
12244TIP3   OH236676   7.050   5.083   3.969
12244TIP3    H136677   7.043   5.163   3.918
12244TIP3    H236678   7.091   5.020   3.909
12245TIP3   OH236679   5.214   5.985   2.426
12245TIP3    H136680   5.250   5.923   2.362
12245TIP3    H236681   5.225   6.071   2.385
12246TIP3   OH236682   8.150   3.688   3.634
12246TIP3    H136683   8.201   3.678   3.715
12246TIP3    H236684   8.216   3.707   3.567
12247TIP3   OH236685   1.957   7.721   1.381
12247TIP3    H136686   1.903   7.751   1.308
12247TIP3    H236687   1.947   7.626   1.382
12248TIP3   OH236688   8.201   1.941   6.107
12248TIP3    H136689   8.148   1.939   6.187
12248TIP3    H236690   8.161   1.876   6.050
12249TIP3   OH236691   2.571   5.394   5.950
12249TIP3    H136692   2.662   5.370   5.936
12249TIP3    H236693   2.556   5.469   5.891
12250TIP3   OH236694   4.627   1.213   0.435
12250TIP3    H136695   4.615   1.298   0.391
12250TIP3    H236696   4.607   1.148   0.367
12251TIP3   OH236697   3.412   0.325   0.379
12251TIP3    H136698   3.328   0.297   0.343
12251TIP3    H236699   3.389   0.382   0.452
12252TIP3   OH236700   4.413   2.917   0.988
12252TIP3    H136701   4.474   2.990   0.996
12252TIP3    H236702   4.341   2.938   1.047
12253TIP3   OH236703   1.608   5.571   1.921
12253TIP3    H136704   1.616   5.484   1.960
12253TIP3    H236705   1.517   5.596   1.937
12254TIP3   OH236706   5.367   0.067   4.049
12254TIP3    H136707   5.452   0.039   4.015
12254TIP3    H236708   5.309  -0.008   4.035
12255TIP3   OH236709   4.848   6.333   4.466
12255TIP3    H136710   4.854   6.247   4.507
12255TIP3    H236711   4.777   6.325   4.403
12256TIP3   OH236712   0.800   2.020   5.962
12256TIP3    H136713   0.747   2.022   6.042
12256TIP3    H236714   0.786   1.932   5.927
12257TIP3   OH236715   5.886   7.560   5.290
12257TIP3    H136716   5.974   7.522   5.289
12257TIP3    H236717   5.882   7.612   5.210
12258TIP3   OH236718   4.763   5.316   2.644
12258TIP3    H136719   4.745   5.319   2.738
12258TIP3    H236720   4.852   5.284   2.637
12259TIP3   OH236721   4.037   7.789   3.363
12259TIP3    H136722   4.035   7.693   3.363
12259TIP3    H236723   4.022   7.813   3.455
12260TIP3   OH236724   3.380   7.691   0.137
12260TIP3    H136725   3.449   7.624   0.130
12260TIP3    H236726   3.299   7.641   0.130
12261TIP3   OH236727   0.425   0.265   6.105
12261TIP3    H136728   0.372   0.255   6.026
12261TIP3    H236729   0.493   0.328   6.080
12262TIP3   OH236730   3.527   1.249   2.074
12262TIP3    H136731   3.529   1.193   1.997
12262TIP3    H236732   3.506   1.190   2.146
12263TIP3   OH236733   4.931   0.323   1.141
12263TIP3    H136734   4.974   0.387   1.085
12263TIP3    H236735   4.838   0.329   1.118
12264TIP3   OH236736   2.854   4.468   6.765
12264TIP3    H136737   2.791   4.397   6.752
12264TIP3    H236738   2.931   4.442   6.715
12265TIP3   OH236739   5.097   5.036   3.678
12265TIP3    H136740   5.087   4.988   3.760
12265TIP3    H236741   5.181   5.005   3.642
12266TIP3   OH236742   3.155   4.202   4.653
12266TIP3    H136743   3.229   4.168   4.603
12266TIP3    H236744   3.116   4.268   4.595
12267TIP3   OH236745   3.165   3.716   0.168
12267TIP3    H136746   3.162   3.786   0.234
12267TIP3    H236747   3.105   3.746   0.100
12268TIP3   OH236748   0.863   6.364   3.316
12268TIP3    H136749   0.844   6.344   3.408
12268TIP3    H236750   0.777   6.380   3.277
12269TIP3   OH236751   7.607   4.335   5.046
12269TIP3    H136752   7.591   4.293   4.962
12269TIP3    H236753   7.699   4.362   5.043
12270TIP3   OH236754   3.089   1.110   1.528
12270TIP3    H136755   3.164   1.116   1.585
12270TIP3    H236756   3.036   1.188   1.547
12271TIP3   OH236757   7.927   2.686   4.745
12271TIP3    H136758   7.898   2.604   4.786
12271TIP3    H236759   7.950   2.742   4.819
12272TIP3   OH236760   0.065   1.854   2.650
12272TIP3    H136761   0.157   1.882   2.652
12272TIP3    H236762   0.059   1.784   2.714
12273TIP3   OH236763   7.711   0.673   0.414
12273TIP3    H136764   7.727   0.667   0.320
12273TIP3    H236765   7.781   0.729   0.447
12274TIP3   OH236766   7.347   4.886   0.999
12274TIP3    H136767   7.348   4.981   1.014
12274TIP3    H236768   7.275   4.873   0.937
12275TIP3   OH236769   4.550   0.358   5.745
12275TIP3    H136770   4.575   0.425   5.809
12275TIP3    H236771   4.522   0.407   5.668
12276TIP3   OH236772   2.136   5.464   4.178
12276TIP3    H136773   2.149   5.407   4.253
12276TIP3    H236774   2.163   5.412   4.102
12277TIP3   OH236775   2.174   3.522   6.249
12277TIP3    H136776   2.181   3.564   6.335
12277TIP3    H236777   2.124   3.442   6.266
12278TIP3   OH236778   5.297   4.704   1.733
12278TIP3    H136779   5.257   4.692   1.819
12278TIP3    H236780   5.335   4.619   1.712
12279TIP3   OH236781   8.212   4.924   6.416
12279TIP3    H136782   8.263   4.864   6.470
12279TIP3    H236783   8.222   4.891   6.327
12280TIP3   OH236784   3.907   1.264   0.597
12280TIP3    H136785   3.899   1.231   0.508
12280TIP3    H236786   3.992   1.233   0.626
12281TIP3   OH236787   6.928   7.678   1.238
12281TIP3    H136788   6.944   7.766   1.273
12281TIP3    H236789   6.997   7.665   1.172
12282TIP3   OH236790   4.698   4.136   0.977
12282TIP3    H136791   4.748   4.205   1.021
12282TIP3    H236792   4.619   4.127   1.030
12283TIP3   OH236793   5.500   2.057   1.861
12283TIP3    H136794   5.565   2.113   1.820
12283TIP3    H236795   5.446   2.027   1.788
12284TIP3   OH236796   5.930   1.267   3.805
12284TIP3    H136797   5.885   1.344   3.838
12284TIP3    H236798   5.935   1.207   3.880
12285TIP3   OH236799   5.825   4.935   4.375
12285TIP3    H136800   5.789   4.996   4.310
12285TIP3    H236801   5.822   4.849   4.333
12286TIP3   OH236802   7.454   6.001   3.365
12286TIP3    H136803   7.460   6.009   3.460
12286TIP3    H236804   7.360   6.005   3.347
12287TIP3   OH236805   1.260   3.044   2.466
12287TIP3    H136806   1.283   3.069   2.377
12287TIP3    H236807   1.178   2.995   2.457
12288TIP3   OH236808   3.470   1.502   1.800
12288TIP3    H136809   3.455   1.536   1.712
12288TIP3    H236810   3.555   1.458   1.794
12289TIP3   OH236811   2.749   2.667   1.324
12289TIP3    H136812   2.706   2.749   1.349
12289TIP3    H236813   2.770   2.678   1.232
12290TIP3   OH236814   1.536   4.839   2.851
12290TIP3    H136815   1.614   4.894   2.855
12290TIP3    H236816   1.562   4.763   2.799
12291TIP3   OH236817   5.940   4.514   1.564
12291TIP3    H136818   5.984   4.519   1.649
12291TIP3    H236819   5.929   4.605   1.537
12292TIP3   OH236820   1.755   3.539   1.295
12292TIP3    H136821   1.774   3.562   1.204
12292TIP3    H236822   1.835   3.497   1.327
12293TIP3   OH236823   6.324   6.002   2.700
12293TIP3    H136824   6.231   6.014   2.682
12293TIP3    H236825   6.345   6.070   2.763
12294TIP3   OH236826   3.718   0.908   2.474
12294TIP3    H136827   3.749   0.843   2.537
12294TIP3    H236828   3.623   0.905   2.481
12295TIP3   OH236829   7.147   7.537   6.094
12295TIP3    H136830   7.169   7.473   6.026
12295TIP3    H236831   7.065   7.504   6.132
12296TIP3   OH236832   2.208   5.930   3.872
12296TIP3    H136833   2.227   6.021   3.892
12296TIP3    H236834   2.273   5.880   3.923
12297TIP3   OH236835   4.402   3.305   4.963
12297TIP3    H136836   4.494   3.293   4.940
12297TIP3    H236837   4.369   3.216   4.977
12298TIP3   OH236838   3.704   2.327   5.712
12298TIP3    H136839   3.659   2.257   5.760
12298TIP3    H236840   3.797   2.304   5.718
12299TIP3   OH236841   1.808   7.287   0.664
12299TIP3    H136842   1.896   7.323   0.649
12299TIP3    H236843   1.774   7.270   0.576
12300TIP3   OH236844   4.361   7.549   5.782
12300TIP3    H136845   4.415   7.610   5.731
12300TIP3    H236846   4.358   7.588   5.870
12301TIP3   OH236847   3.178   1.068   5.906
12301TIP3    H136848   3.170   1.054   5.812
12301TIP3    H236849   3.153   0.985   5.945
12302TIP3   OH236850   2.553   5.214   0.175
12302TIP3    H136851   2.470   5.167   0.163
12302TIP3    H236852   2.618   5.156   0.135
12303TIP3   OH236853   3.156   6.626   3.646
12303TIP3    H136854   3.115   6.598   3.727
12303TIP3    H236855   3.084   6.636   3.584
12304TIP3   OH236856   1.613   5.217   0.665
12304TIP3    H136857   1.547   5.170   0.614
12304TIP3    H236858   1.672   5.149   0.698
12305TIP3   OH236859   2.074   1.664   2.886
12305TIP3    H136860   1.987   1.691   2.915
12305TIP3    H236861   2.109   1.740   2.840
12306TIP3   OH236862   3.453   2.939   2.741
12306TIP3    H136863   3.382   2.876   2.751
12306TIP3    H236864   3.409   3.023   2.731
12307TIP3   OH236865   2.868   4.295   2.164
12307TIP3    H136866   2.889   4.347   2.242
12307TIP3    H236867   2.781   4.324   2.137
12308TIP3   OH236868   1.129   6.543   5.538
12308TIP3    H136869   1.126   6.619   5.479
12308TIP3    H236870   1.044   6.543   5.581
12309TIP3   OH236871   5.510   0.684   0.041
12309TIP3    H136872   5.523   0.762   0.096
12309TIP3    H236873   5.426   0.699  -0.001
12310TIP3   OH236874   5.750   6.152   1.608
12310TIP3    H136875   5.812   6.182   1.542
12310TIP3    H236876   5.804   6.121   1.680
12311TIP3   OH236877   6.403   1.599   0.167
12311TIP3    H136878   6.354   1.527   0.128
12311TIP3    H236879   6.457   1.632   0.096
12312TIP3   OH236880   3.109   4.341   0.578
12312TIP3    H136881   3.090   4.435   0.575
12312TIP3    H236882   3.025   4.301   0.601
12313TIP3   OH236883   3.200   0.399   2.859
12313TIP3    H136884   3.252   0.440   2.790
12313TIP3    H236885   3.183   0.469   2.922
12314TIP3   OH236886   1.988   6.400   4.940
12314TIP3    H136887   1.981   6.465   4.870
12314TIP3    H236888   1.917   6.422   5.000
12315TIP3   OH236889   4.472   0.249   1.949
12315TIP3    H136890   4.515   0.330   1.924
12315TIP3    H236891   4.380   0.262   1.925
12316TIP3   OH236892   7.236   7.281   1.221
12316TIP3    H136893   7.169   7.301   1.287
12316TIP3    H236894   7.229   7.186   1.208
12317TIP3   OH236895   3.964   1.452   0.958
12317TIP3    H136896   4.052   1.445   0.922
12317TIP3    H236897   3.951   1.372   1.009
12318TIP3   OH236898   1.157   6.002   1.340
12318TIP3    H136899   1.178   5.914   1.312
12318TIP3    H236900   1.188   6.006   1.431
12319TIP3   OH236901   4.347   1.461   0.486
12319TIP3    H136902   4.367   1.552   0.509
12319TIP3    H236903   4.265   1.442   0.532
12320TIP3   OH236904   4.227   6.321   2.829
12320TIP3    H136905   4.159   6.322   2.761
12320TIP3    H236906   4.248   6.228   2.840
12321TIP3   OH236907   8.088   7.564   3.715
12321TIP3    H136908   8.177   7.528   3.712
12321TIP3    H236909   8.037   7.496   3.759
12322TIP3   OH236910   7.374   0.318   0.483
12322TIP3    H136911   7.455   0.358   0.516
12322TIP3    H236912   7.305   0.357   0.537
12323TIP3   OH236913   0.299   4.344   5.990
12323TIP3    H136914   0.213   4.304   6.005
12323TIP3    H236915   0.309   4.344   5.895
12324TIP3   OH236916   3.208   0.561   4.300
12324TIP3    H136917   3.240   0.633   4.355
12324TIP3    H236918   3.276   0.551   4.233
12325TIP3   OH236919   3.449   0.103   2.176
12325TIP3    H136920   3.453   0.030   2.114
12325TIP3    H236921   3.366   0.147   2.156
12326TIP3   OH236922   3.679   1.368   2.660
12326TIP3    H136923   3.600   1.409   2.695
12326TIP3    H236924   3.746   1.436   2.665
12327TIP3   OH236925   0.642   3.026   4.042
12327TIP3    H136926   0.711   3.047   3.979
12327TIP3    H236927   0.633   3.105   4.095
12328TIP3   OH236928   2.116   3.711   6.063
12328TIP3    H136929   2.197   3.737   6.019
12328TIP3    H236930   2.145   3.663   6.141
12329TIP3   OH236931   4.328   1.798   6.629
12329TIP3    H136932   4.323   1.782   6.534
12329TIP3    H236933   4.420   1.783   6.651
12330TIP3   OH236934   4.828   0.642   2.523
12330TIP3    H136935   4.823   0.572   2.458
12330TIP3    H236936   4.742   0.685   2.519
12331TIP3   OH236937   5.670   1.170   2.184
12331TIP3    H136938   5.616   1.095   2.159
12331TIP3    H236939   5.611   1.245   2.179
12332TIP3   OH236940   4.826   2.586   1.244
12332TIP3    H136941   4.808   2.672   1.208
12332TIP3    H236942   4.825   2.527   1.168
12333TIP3   OH236943   5.934   7.381   4.251
12333TIP3    H136944   5.894   7.334   4.178
12333TIP3    H236945   6.014   7.417   4.215
12334TIP3   OH236946   4.330   7.369   6.256
12334TIP3    H136947   4.346   7.433   6.188
12334TIP3    H236948   4.247   7.329   6.233
12335TIP3   OH236949   4.335   1.647   1.804
12335TIP3    H136950   4.390   1.709   1.852
12335TIP3    H236951   4.253   1.644   1.853
12336TIP3   OH236952   5.862   0.754   5.926
12336TIP3    H136953   5.930   0.690   5.946
12336TIP3    H236954   5.840   0.792   6.011
12337TIP3   OH236955   3.665   0.259   0.414
12337TIP3    H136956   3.586   0.300   0.378
12337TIP3    H236957   3.631   0.190   0.471
12338TIP3   OH236958   7.052   7.457   2.163
12338TIP3    H136959   7.077   7.378   2.116
12338TIP3    H236960   7.121   7.469   2.229
12339TIP3   OH236961   3.531   6.551   4.449
12339TIP3    H136962   3.520   6.603   4.528
12339TIP3    H236963   3.473   6.475   4.462
12340TIP3   OH236964   2.474   5.858   2.313
12340TIP3    H136965   2.473   5.954   2.313
12340TIP3    H236966   2.520   5.834   2.233
12341TIP3   OH236967   2.383   6.989   6.088
12341TIP3    H136968   2.348   7.064   6.039
12341TIP3    H236969   2.306   6.941   6.116
12342TIP3   OH236970   0.422   5.560   0.186
12342TIP3    H136971   0.487   5.623   0.218
12342TIP3    H236972   0.452   5.538   0.097
12343TIP3   OH236973   6.185   3.045   1.751
12343TIP3    H136974   6.207   2.988   1.678
12343TIP3    H236975   6.089   3.048   1.750
12344TIP3   OH236976   1.424   2.560   0.198
12344TIP3    H136977   1.372   2.592   0.271
12344TIP3    H236978   1.476   2.636   0.170
12345TIP3   OH236979   3.499   6.695   1.005
12345TIP3    H136980   3.458   6.618   0.965
12345TIP3    H236981   3.461   6.769   0.958
12346TIP3   OH236982   0.635   5.870   1.263
12346TIP3    H136983   0.728   5.850   1.260
12346TIP3    H236984   0.605   5.861   1.173
12347TIP3   OH236985   4.702   1.238   2.643
12347TIP3    H136986   4.648   1.271   2.571
12347TIP3    H236987   4.774   1.301   2.649
12348TIP3   OH236988   4.322   6.783   1.247
12348TIP3    H136989   4.320   6.752   1.337
12348TIP3    H236990   4.305   6.705   1.194
12349TIP3   OH236991  -0.013   4.277   4.524
12349TIP3    H136992   0.045   4.217   4.570
12349TIP3    H236993  -0.047   4.335   4.593
12350TIP3   OH236994   3.109   1.413   5.595
12350TIP3    H136995   3.069   1.451   5.673
12350TIP3    H236996   3.203   1.420   5.610
12351TIP3   OH236997   4.976   2.825   2.596
12351TIP3    H136998   4.987   2.833   2.501
12351TIP3    H236999   4.937   2.908   2.623
12352TIP3   OH237000   4.217   6.391   2.265
12352TIP3    H137001   4.157   6.462   2.286
12352TIP3    H237002   4.171   6.312   2.293
12353TIP3   OH237003   0.611   3.496   0.884
12353TIP3    H137004   0.534   3.494   0.828
12353TIP3    H237005   0.651   3.409   0.874
12354TIP3   OH237006   8.250   3.695   3.252
12354TIP3    H137007   8.208   3.610   3.264
12354TIP3    H237008   8.321   3.696   3.316
12355TIP3   OH237009   0.896   2.080   0.739
12355TIP3    H137010   0.846   2.038   0.810
12355TIP3    H237011   0.985   2.046   0.750
12356TIP3   OH237012   0.524   0.937   3.262
12356TIP3    H137013   0.539   0.917   3.169
12356TIP3    H237014   0.492   0.854   3.298
12357TIP3   OH237015   0.042   7.586   5.103
12357TIP3    H137016   0.050   7.640   5.025
12357TIP3    H237017   0.005   7.504   5.072
12358TIP3   OH237018   0.500   3.764   6.109
12358TIP3    H137019   0.499   3.688   6.168
12358TIP3    H237020   0.570   3.819   6.143
12359TIP3   OH237021   0.530   7.397   5.027
12359TIP3    H137022   0.598   7.350   4.979
12359TIP3    H237023   0.554   7.387   5.119
12360TIP3   OH237024   5.730   0.037   6.637
12360TIP3    H137025   5.656   0.089   6.666
12360TIP3    H237026   5.765   0.084   6.561
12361TIP3   OH237027   1.219   3.377   4.589
12361TIP3    H137028   1.156   3.326   4.639
12361TIP3    H237029   1.165   3.424   4.525
12362TIP3   OH237030   6.966   5.645   6.654
12362TIP3    H137031   6.894   5.708   6.649
12362TIP3    H237032   7.039   5.690   6.611
12363TIP3   OH237033   4.351   3.494   4.227
12363TIP3    H137034   4.280   3.436   4.198
12363TIP3    H237035   4.419   3.485   4.160
12364TIP3   OH237036   3.347   7.157   1.436
12364TIP3    H137037   3.375   7.248   1.449
12364TIP3    H237038   3.424   7.105   1.460
12365TIP3   OH237039   0.763   3.244   2.109
12365TIP3    H137040   0.669   3.251   2.127
12365TIP3    H237041   0.785   3.153   2.128
12366TIP3   OH237042   7.097   4.576   3.912
12366TIP3    H137043   7.124   4.493   3.952
12366TIP3    H237044   7.150   4.642   3.954
12367TIP3   OH237045   4.539   7.333   3.559
12367TIP3    H137046   4.506   7.258   3.608
12367TIP3    H237047   4.533   7.407   3.619
12368TIP3   OH237048   2.295   7.466   1.771
12368TIP3    H137049   2.229   7.504   1.828
12368TIP3    H237050   2.314   7.380   1.810
12369TIP3   OH237051   3.537   6.604   3.287
12369TIP3    H137052   3.529   6.559   3.371
12369TIP3    H237053   3.545   6.696   3.310
12370TIP3   OH237054   0.715   2.086   0.261
12370TIP3    H137055   0.767   2.048   0.332
12370TIP3    H237056   0.625   2.059   0.281
12371TIP3   OH237057   4.152   2.678   6.273
12371TIP3    H137058   4.077   2.681   6.215
12371TIP3    H237059   4.132   2.741   6.342
12372TIP3   OH237060   5.096   5.376   5.714
12372TIP3    H137061   5.126   5.387   5.623
12372TIP3    H237062   5.157   5.312   5.751
12373TIP3   OH237063   3.781   3.521   1.570
12373TIP3    H137064   3.874   3.518   1.591
12373TIP3    H237065   3.761   3.432   1.538
12374TIP3   OH237066   2.829   5.266   0.355
12374TIP3    H137067   2.841   5.279   0.261
12374TIP3    H237068   2.888   5.195   0.378
12375TIP3   OH237069   5.441   1.292   5.177
12375TIP3    H137070   5.505   1.360   5.158
12375TIP3    H237071   5.385   1.330   5.245
12376TIP3   OH237072   3.693   7.271   1.382
12376TIP3    H137073   3.640   7.306   1.311
12376TIP3    H237074   3.682   7.176   1.378
12377TIP3   OH237075   5.509   0.961   4.152
12377TIP3    H137076   5.507   0.934   4.060
12377TIP3    H237077   5.560   1.043   4.151
12378TIP3   OH237078   2.867   5.545   1.806
12378TIP3    H137079   2.780   5.565   1.772
12378TIP3    H237080   2.851   5.496   1.887
12379TIP3   OH237081   1.184   6.588   3.788
12379TIP3    H137082   1.173   6.677   3.821
12379TIP3    H237083   1.193   6.598   3.694
12380TIP3   OH237084   4.241   7.251   4.850
12380TIP3    H137085   4.247   7.170   4.800
12380TIP3    H237086   4.329   7.263   4.886
12381TIP3   OH237087   1.737   2.460   2.802
12381TIP3    H137088   1.651   2.426   2.781
12381TIP3    H237089   1.733   2.483   2.895
12382TIP3   OH237090   3.028   4.158   3.962
12382TIP3    H137091   3.027   4.115   3.877
12382TIP3    H237092   2.944   4.136   4.001
12383TIP3   OH237093   2.717   0.383   4.245
12383TIP3    H137094   2.650   0.447   4.267
12383TIP3    H237095   2.799   0.433   4.248
12384TIP3   OH237096   4.631   0.103   0.332
12384TIP3    H137097   4.555   0.153   0.364
12384TIP3    H237098   4.650   0.139   0.246
12385TIP3   OH237099   1.737   6.206   0.046
12385TIP3    H137100   1.793   6.136   0.080
12385TIP3    H237101   1.768   6.220  -0.043
12386TIP3   OH237102   5.653   5.377   2.128
12386TIP3    H137103   5.655   5.382   2.033
12386TIP3    H237104   5.745   5.379   2.154
12387TIP3   OH237105   0.671   1.190   2.274
12387TIP3    H137106   0.588   1.232   2.295
12387TIP3    H237107   0.718   1.253   2.219
12388TIP3   OH237108   6.370   5.392   4.267
12388TIP3    H137109   6.313   5.455   4.310
12388TIP3    H237110   6.413   5.443   4.198
12389TIP3   OH237111   5.740   4.300   4.049
12389TIP3    H137112   5.834   4.288   4.036
12389TIP3    H237113   5.711   4.348   3.971
12390TIP3   OH237114   4.542   7.759   5.669
12390TIP3    H137115   4.556   7.815   5.745
12390TIP3    H237116   4.630   7.737   5.638
12391TIP3   OH237117   7.253   2.069   4.737
12391TIP3    H137118   7.173   2.063   4.790
12391TIP3    H237119   7.234   2.018   4.658
12392TIP3   OH237120   8.309   0.611   6.284
12392TIP3    H137121   8.386   0.604   6.228
12392TIP3    H237122   8.241   0.646   6.227
12393TIP3   OH237123   6.119   4.226   4.439
12393TIP3    H137124   6.084   4.169   4.507
12393TIP3    H237125   6.162   4.296   4.487
12394TIP3   OH237126   4.095   0.028   1.168
12394TIP3    H137127   4.030  -0.014   1.112
12394TIP3    H237128   4.097  -0.025   1.247
12395TIP3   OH237129   7.299   6.223   5.000
12395TIP3    H137130   7.323   6.265   4.918
12395TIP3    H237131   7.274   6.134   4.976
12396TIP3   OH237132   7.112   2.116   5.188
12396TIP3    H137133   7.123   2.201   5.146
12396TIP3    H237134   7.047   2.071   5.135
12397TIP3   OH237135   4.853   5.558   6.571
12397TIP3    H137136   4.937   5.513   6.559
12397TIP3    H237137   4.797   5.493   6.613
12398TIP3   OH237138   4.444   2.371   1.362
12398TIP3    H137139   4.372   2.355   1.423
12398TIP3    H237140   4.467   2.284   1.329
12399TIP3   OH237141   4.142   1.787   2.628
12399TIP3    H137142   4.086   1.718   2.593
12399TIP3    H237143   4.163   1.759   2.717
12400TIP3   OH237144   3.850   1.066   1.755
12400TIP3    H137145   3.904   1.144   1.746
12400TIP3    H237146   3.867   1.035   1.845
12401TIP3   OH237147   0.541   0.427   3.194
12401TIP3    H137148   0.562   0.516   3.221
12401TIP3    H237149   0.454   0.433   3.155
12402TIP3   OH237150   1.449   1.342   0.364
12402TIP3    H137151   1.534   1.379   0.342
12402TIP3    H237152   1.469   1.256   0.402
12403TIP3   OH237153   0.793   5.252   1.263
12403TIP3    H137154   0.759   5.178   1.213
12403TIP3    H237155   0.773   5.329   1.209
12404TIP3   OH237156   6.650   5.662   1.698
12404TIP3    H137157   6.627   5.580   1.742
12404TIP3    H237158   6.568   5.694   1.662
12405TIP3   OH237159   3.589   3.069   4.916
12405TIP3    H137160   3.608   3.106   4.829
12405TIP3    H237161   3.656   3.003   4.929
12406TIP3   OH237162   5.088   1.072   6.534
12406TIP3    H137163   5.149   1.141   6.507
12406TIP3    H237164   5.048   1.042   6.452
12407TIP3   OH237165   4.547   7.155   4.185
12407TIP3    H137166   4.594   7.140   4.267
12407TIP3    H237167   4.526   7.068   4.152
12408TIP3   OH237168   2.301   3.333   1.069
12408TIP3    H137169   2.322   3.387   1.146
12408TIP3    H237170   2.387   3.306   1.035
12409TIP3   OH237171   3.874   5.454   0.533
12409TIP3    H137172   3.859   5.446   0.439
12409TIP3    H237173   3.805   5.402   0.573
12410TIP3   OH237174   1.838   6.300   3.166
12410TIP3    H137175   1.897   6.230   3.195
12410TIP3    H237176   1.763   6.255   3.128
12411TIP3   OH237177   2.964   5.789   1.758
12411TIP3    H137178   2.912   5.711   1.778
12411TIP3    H237179   3.016   5.765   1.682
12412TIP3   OH237180   2.002   1.145   6.693
12412TIP3    H137181   2.056   1.147   6.772
12412TIP3    H237182   1.962   1.232   6.689
12413TIP3   OH237183   7.938   7.568   4.389
12413TIP3    H137184   7.864   7.507   4.394
12413TIP3    H237185   7.899   7.654   4.401
12414TIP3   OH237186   6.237   2.805   3.900
12414TIP3    H137187   6.165   2.763   3.947
12414TIP3    H237188   6.309   2.743   3.905
12415TIP3   OH237189   3.223   6.951   4.758
12415TIP3    H137190   3.141   6.960   4.806
12415TIP3    H237191   3.200   6.964   4.666
12416TIP3   OH237192   0.354   3.914   1.270
12416TIP3    H137193   0.361   3.970   1.347
12416TIP3    H237194   0.269   3.936   1.232
12417TIP3   OH237195   7.654   6.871   6.687
12417TIP3    H137196   7.693   6.957   6.698
12417TIP3    H237197   7.629   6.844   6.776
12418TIP3   OH237198   7.014   1.952   2.526
12418TIP3    H137199   6.948   1.967   2.593
12418TIP3    H237200   7.092   1.997   2.558
12419TIP3   OH237201   1.899   1.925   4.559
12419TIP3    H137202   1.872   1.930   4.467
12419TIP3    H237203   1.887   2.013   4.592
12420TIP3   OH237204   6.191   5.737   0.292
12420TIP3    H137205   6.176   5.655   0.246
12420TIP3    H237206   6.266   5.777   0.247
12421TIP3   OH237207   0.671   3.878   2.770
12421TIP3    H137208   0.647   3.922   2.688
12421TIP3    H237209   0.744   3.929   2.804
12422TIP3   OH237210   2.516   4.473   0.741
12422TIP3    H137211   2.431   4.436   0.766
12422TIP3    H237212   2.549   4.513   0.822
12423TIP3   OH237213   0.320   3.697   2.031
12423TIP3    H137214   0.376   3.626   2.063
12423TIP3    H237215   0.250   3.653   1.982
12424TIP3   OH237216   1.047   7.682   5.461
12424TIP3    H137217   1.098   7.754   5.497
12424TIP3    H237218   1.050   7.614   5.528
12425TIP3   OH237219   4.517   1.396   3.053
12425TIP3    H137220   4.549   1.320   3.005
12425TIP3    H237221   4.550   1.384   3.142
12426TIP3   OH237222   1.970   6.212   5.980
12426TIP3    H137223   1.981   6.307   5.975
12426TIP3    H237224   1.911   6.191   5.907
12427TIP3   OH237225   4.683   5.971   5.949
12427TIP3    H137226   4.613   5.956   5.885
12427TIP3    H237227   4.659   5.918   6.024
12428TIP3   OH237228   6.740   5.416   1.015
12428TIP3    H137229   6.738   5.384   1.105
12428TIP3    H237230   6.651   5.448   0.999
12429TIP3   OH237231   1.604   5.472   1.305
12429TIP3    H137232   1.522   5.494   1.348
12429TIP3    H237233   1.611   5.536   1.234
12430TIP3   OH237234   1.654   1.857   3.152
12430TIP3    H137235   1.561   1.837   3.142
12430TIP3    H237236   1.675   1.911   3.076
12431TIP3   OH237237   7.313   3.796   4.814
12431TIP3    H137238   7.267   3.875   4.785
12431TIP3    H237239   7.331   3.813   4.907
12432TIP3   OH237240   2.826   5.520   2.100
12432TIP3    H137241   2.736   5.553   2.109
12432TIP3    H237242   2.879   5.581   2.151
12433TIP3   OH237243   2.752   6.579   3.193
12433TIP3    H137244   2.687   6.600   3.126
12433TIP3    H237245   2.725   6.630   3.270
12434TIP3   OH237246   1.041   6.661   6.594
12434TIP3    H137247   1.111   6.603   6.624
12434TIP3    H237248   1.076   6.702   6.515
12435TIP3   OH237249   7.757   4.538   0.904
12435TIP3    H137250   7.688   4.560   0.966
12435TIP3    H237251   7.796   4.623   0.881
12436TIP3   OH237252   5.608   6.357   1.462
12436TIP3    H137253   5.646   6.283   1.509
12436TIP3    H237254   5.642   6.349   1.373
12437TIP3   OH237255   5.218   6.538   6.369
12437TIP3    H137256   5.151   6.595   6.332
12437TIP3    H237257   5.168   6.469   6.414
12438TIP3   OH237258   6.996   4.785   2.170
12438TIP3    H137259   6.965   4.738   2.247
12438TIP3    H237260   7.080   4.821   2.196
12439TIP3   OH237261   6.539   1.837   2.708
12439TIP3    H137262   6.577   1.834   2.621
12439TIP3    H237263   6.445   1.825   2.694
12440TIP3   OH237264   8.222   0.777   4.234
12440TIP3    H137265   8.143   0.723   4.227
12440TIP3    H237266   8.205   0.836   4.306
12441TIP3   OH237267   0.795   3.273   5.321
12441TIP3    H137268   0.846   3.306   5.396
12441TIP3    H237269   0.838   3.190   5.298
12442TIP3   OH237270   7.936   4.885   0.522
12442TIP3    H137271   7.899   4.966   0.488
12442TIP3    H237272   7.895   4.816   0.471
12443TIP3   OH237273   8.224   1.250   5.311
12443TIP3    H137274   8.201   1.339   5.285
12443TIP3    H237275   8.169   1.194   5.257
12444TIP3   OH237276   0.064   6.131   0.866
12444TIP3    H137277   0.142   6.182   0.846
12444TIP3    H237278  -0.008   6.183   0.830
12445TIP3   OH237279   6.465   2.891   3.573
12445TIP3    H137280   6.463   2.819   3.511
12445TIP3    H237281   6.541   2.873   3.629
12446TIP3   OH237282   5.837   2.666   2.567
12446TIP3    H137283   5.817   2.758   2.547
12446TIP3    H237284   5.752   2.625   2.580
12447TIP3   OH237285   0.504   6.866   2.982
12447TIP3    H137286   0.477   6.877   2.891
12447TIP3    H237287   0.595   6.839   2.978
12448TIP3   OH237288   0.668   6.494   0.420
12448TIP3    H137289   0.711   6.409   0.430
12448TIP3    H237290   0.736   6.558   0.442
12449TIP3   OH237291   6.430   3.890   3.037
12449TIP3    H137292   6.523   3.911   3.025
12449TIP3    H237293   6.430   3.818   3.100
12450TIP3   OH237294   1.528   5.889   6.643
12450TIP3    H137295   1.491   5.846   6.566
12450TIP3    H237296   1.615   5.919   6.614
12451TIP3   OH237297   5.916   4.614   6.358
12451TIP3    H137298   5.957   4.693   6.323
12451TIP3    H237299   5.862   4.581   6.286
12452TIP3   OH237300   7.293   2.184   0.662
12452TIP3    H137301   7.295   2.095   0.696
12452TIP3    H237302   7.384   2.213   0.666
12453TIP3   OH237303   5.890   0.404   3.744
12453TIP3    H137304   5.928   0.317   3.756
12453TIP3    H237305   5.909   0.449   3.827
12454TIP3   OH237306   6.225   5.189   6.698
12454TIP3    H137307   6.214   5.273   6.744
12454TIP3    H237308   6.318   5.168   6.709
12455TIP3   OH237309   1.266   4.749   3.440
12455TIP3    H137310   1.283   4.659   3.469
12455TIP3    H237311   1.175   4.766   3.464
12456TIP3   OH237312   7.903   7.065   5.780
12456TIP3    H137313   7.905   7.151   5.739
12456TIP3    H237314   7.977   7.018   5.742
12457TIP3   OH237315   2.993   4.507   5.239
12457TIP3    H137316   2.947   4.504   5.155
12457TIP3    H237317   2.924   4.520   5.303
12458TIP3   OH237318   0.195   0.229   3.852
12458TIP3    H137319   0.199   0.196   3.942
12458TIP3    H237320   0.177   0.151   3.799
12459TIP3   OH237321   2.532   2.583   0.732
12459TIP3    H137322   2.566   2.549   0.815
12459TIP3    H237323   2.457   2.527   0.712
12460TIP3   OH237324   0.394   3.730   5.427
12460TIP3    H137325   0.467   3.668   5.416
12460TIP3    H237326   0.375   3.727   5.521
12461TIP3   OH237327   6.940   5.354   0.748
12461TIP3    H137328   7.020   5.345   0.697
12461TIP3    H237329   6.879   5.399   0.689
12462TIP3   OH237330   5.317   2.842   0.138
12462TIP3    H137331   5.266   2.857   0.059
12462TIP3    H237332   5.296   2.753   0.164
12463TIP3   OH237333   1.874   4.303   2.861
12463TIP3    H137334   1.782   4.299   2.886
12463TIP3    H237335   1.886   4.390   2.823
12464TIP3   OH237336   8.179   6.631   2.389
12464TIP3    H137337   8.174   6.714   2.343
12464TIP3    H237338   8.115   6.639   2.460
12465TIP3   OH237339   8.245   5.876   4.377
12465TIP3    H137340   8.302   5.881   4.454
12465TIP3    H237341   8.285   5.936   4.314
12466TIP3   OH237342   1.304   6.002   6.346
12466TIP3    H137343   1.272   6.010   6.436
12466TIP3    H237344   1.394   6.033   6.350
12467TIP3   OH237345   0.497   2.552   0.640
12467TIP3    H137346   0.527   2.487   0.577
12467TIP3    H237347   0.560   2.547   0.712
12468TIP3   OH237348   0.159   4.555   2.044
12468TIP3    H137349   0.202   4.626   1.996
12468TIP3    H237350   0.207   4.477   2.018
12469TIP3   OH237351   6.805   5.878   4.692
12469TIP3    H137352   6.730   5.849   4.640
12469TIP3    H237353   6.849   5.942   4.636
12470TIP3   OH237354   5.965   0.277   0.282
12470TIP3    H137355   6.055   0.270   0.249
12470TIP3    H237356   5.911   0.242   0.212
12471TIP3   OH237357   6.153   3.284   5.444
12471TIP3    H137358   6.175   3.219   5.377
12471TIP3    H237359   6.135   3.364   5.395
12472TIP3   OH237360   1.587   1.070   2.605
12472TIP3    H137361   1.622   0.981   2.591
12472TIP3    H237362   1.659   1.118   2.646
12473TIP3   OH237363   2.786   2.878   4.858
12473TIP3    H137364   2.726   2.951   4.843
12473TIP3    H237365   2.873   2.915   4.843
12474TIP3   OH237366   1.600   0.235   3.302
12474TIP3    H137367   1.510   0.234   3.269
12474TIP3    H237368   1.606   0.156   3.356
12475TIP3   OH237369   6.863   1.399   1.378
12475TIP3    H137370   6.898   1.470   1.324
12475TIP3    H237371   6.838   1.332   1.314
12476TIP3   OH237372   8.064   2.940   1.140
12476TIP3    H137373   8.145   2.955   1.091
12476TIP3    H237374   8.006   3.011   1.113
12477TIP3   OH237375   4.657   4.109   4.690
12477TIP3    H137376   4.565   4.131   4.702
12477TIP3    H237377   4.656   4.021   4.654
12478TIP3   OH237378   2.889   1.495   1.105
12478TIP3    H137379   2.907   1.541   1.024
12478TIP3    H237380   2.853   1.411   1.078
12479TIP3   OH237381   1.827   5.271   1.228
12479TIP3    H137382   1.785   5.208   1.169
12479TIP3    H237383   1.754   5.321   1.265
12480TIP3   OH237384   4.801   4.130   0.150
12480TIP3    H137385   4.794   4.080   0.231
12480TIP3    H237386   4.846   4.210   0.175
12481TIP3   OH237387   2.570   6.338   2.323
12481TIP3    H137388   2.490   6.316   2.372
12481TIP3    H237389   2.623   6.259   2.328
12482TIP3   OH237390   4.786   7.024   5.864
12482TIP3    H137391   4.806   6.936   5.895
12482TIP3    H237392   4.712   7.053   5.918
12483TIP3   OH237393   2.592   1.958   2.995
12483TIP3    H137394   2.678   2.000   3.001
12483TIP3    H237395   2.572   1.959   2.901
12484TIP3   OH237396   5.603   6.740   4.098
12484TIP3    H137397   5.686   6.776   4.128
12484TIP3    H237398   5.540   6.765   4.166
12485TIP3   OH237399   3.712   1.496   5.399
12485TIP3    H137400   3.725   1.571   5.457
12485TIP3    H237401   3.799   1.477   5.365
12486TIP3   OH237402   0.519   2.295   1.788
12486TIP3    H137403   0.612   2.273   1.797
12486TIP3    H237404   0.474   2.211   1.790
12487TIP3   OH237405   1.738   4.424   2.032
12487TIP3    H137406   1.643   4.420   2.022
12487TIP3    H237407   1.772   4.369   1.961
12488TIP3   OH237408   5.000   7.474   1.513
12488TIP3    H137409   4.989   7.379   1.513
12488TIP3    H237410   4.998   7.499   1.605
12489TIP3   OH237411   3.533   4.393   5.788
12489TIP3    H137412   3.544   4.299   5.772
12489TIP3    H237413   3.501   4.428   5.705
12490TIP3   OH237414   6.524   1.439   1.203
12490TIP3    H137415   6.455   1.379   1.174
12490TIP3    H237416   6.566   1.470   1.123
12491TIP3   OH237417   7.548   0.532   2.248
12491TIP3    H137418   7.576   0.494   2.165
12491TIP3    H237419   7.606   0.607   2.262
12492TIP3   OH237420   0.057   6.183   1.146
12492TIP3    H137421   0.060   6.134   1.064
12492TIP3    H237422  -0.035   6.183   1.171
12493TIP3   OH237423   6.268   0.287   0.201
12493TIP3    H137424   6.233   0.254   0.118
12493TIP3    H237425   6.280   0.209   0.255
12494TIP3   OH237426   4.054   3.449   1.597
12494TIP3    H137427   4.080   3.541   1.589
12494TIP3    H237428   4.091   3.407   1.519
12495TIP3   OH237429   4.446   2.394   3.678
12495TIP3    H137430   4.400   2.469   3.715
12495TIP3    H237431   4.398   2.318   3.712
12496TIP3   OH237432   2.184   3.380   2.923
12496TIP3    H137433   2.199   3.337   2.839
12496TIP3    H237434   2.254   3.348   2.980
12497TIP3   OH237435   7.513   7.332   4.786
12497TIP3    H137436   7.538   7.242   4.764
12497TIP3    H237437   7.542   7.383   4.710
12498TIP3   OH237438   1.682   0.061   6.174
12498TIP3    H137439   1.756   0.002   6.157
12498TIP3    H237440   1.621   0.044   6.101
12499TIP3   OH237441   3.624   5.664   4.724
12499TIP3    H137442   3.636   5.719   4.646
12499TIP3    H237443   3.646   5.722   4.797
12500TIP3   OH237444   4.153   6.640   5.189
12500TIP3    H137445   4.138   6.667   5.279
12500TIP3    H237446   4.196   6.555   5.197
12501TIP3   OH237447   6.640   6.238   2.899
12501TIP3    H137448   6.709   6.188   2.942
12501TIP3    H237449   6.647   6.214   2.806
12502TIP3   OH237450   4.963   5.339   3.918
12502TIP3    H137451   4.983   5.342   4.011
12502TIP3    H237452   5.034   5.387   3.876
12503TIP3   OH237453   3.831   4.073   1.037
12503TIP3    H137454   3.812   4.166   1.020
12503TIP3    H237455   3.747   4.036   1.063
12504TIP3   OH237456   5.402   4.398   4.462
12504TIP3    H137457   5.445   4.314   4.444
12504TIP3    H237458   5.378   4.393   4.554
12505TIP3   OH237459   4.275   0.045   0.619
12505TIP3    H137460   4.301  -0.008   0.543
12505TIP3    H237461   4.339   0.024   0.686
12506TIP3   OH237462   1.270   4.745   0.628
12506TIP3    H137463   1.180   4.763   0.653
12506TIP3    H237464   1.284   4.797   0.549
12507TIP3   OH237465   0.884   1.568   0.962
12507TIP3    H137466   0.872   1.473   0.964
12507TIP3    H237467   0.903   1.587   0.870
12508TIP3   OH237468   0.678   0.000   6.447
12508TIP3    H137469   0.759  -0.050   6.463
12508TIP3    H237470   0.608  -0.061   6.468
12509TIP3   OH237471   4.576   7.571   6.195
12509TIP3    H137472   4.593   7.579   6.289
12509TIP3    H237473   4.613   7.651   6.158
12510TIP3   OH237474   6.627   2.546   3.661
12510TIP3    H137475   6.635   2.451   3.647
12510TIP3    H237476   6.533   2.563   3.656
12511TIP3   OH237477   7.636   6.647   3.713
12511TIP3    H137478   7.668   6.713   3.774
12511TIP3    H237479   7.685   6.568   3.735
12512TIP3   OH237480   0.786   7.789   0.455
12512TIP3    H137481   0.697   7.822   0.465
12512TIP3    H237482   0.781   7.697   0.479
12513TIP3   OH237483   7.359   7.656   6.223
12513TIP3    H137484   7.295   7.624   6.160
12513TIP3    H237485   7.443   7.645   6.179
12514TIP3   OH237486   3.801   4.046   6.481
12514TIP3    H137487   3.774   3.958   6.452
12514TIP3    H237488   3.888   4.058   6.442
12515TIP3   OH237489   7.656   7.118   0.246
12515TIP3    H137490   7.675   7.209   0.222
12515TIP3    H237491   7.693   7.109   0.334
12516TIP3   OH237492   5.825   0.997   2.305
12516TIP3    H137493   5.784   1.067   2.254
12516TIP3    H237494   5.787   1.006   2.393
12517TIP3   OH237495   0.750   3.719   1.759
12517TIP3    H137496   0.785   3.721   1.848
12517TIP3    H237497   0.742   3.626   1.739
12518TIP3   OH237498   4.191   5.030   4.657
12518TIP3    H137499   4.140   5.074   4.724
12518TIP3    H237500   4.196   5.092   4.585
12519TIP3   OH237501   3.073   7.632   5.220
12519TIP3    H137502   2.982   7.611   5.199
12519TIP3    H237503   3.117   7.547   5.226
12520TIP3   OH237504   5.889   2.903   3.383
12520TIP3    H137505   5.924   2.817   3.402
12520TIP3    H237506   5.851   2.933   3.466
12521TIP3   OH237507   3.229   7.273   2.688
12521TIP3    H137508   3.320   7.269   2.718
12521TIP3    H237509   3.235   7.296   2.595
12522TIP3   OH237510   2.419   2.996   3.344
12522TIP3    H137511   2.482   3.066   3.357
12522TIP3    H237512   2.462   2.934   3.285
12523TIP3   OH237513   2.261   0.003   1.886
12523TIP3    H137514   2.185   0.002   1.828
12523TIP3    H237515   2.300  -0.084   1.878
12524TIP3   OH237516   2.956   6.836   6.221
12524TIP3    H137517   2.888   6.839   6.289
12524TIP3    H237518   2.921   6.888   6.149
12525TIP3   OH237519   5.455   6.050   5.389
12525TIP3    H137520   5.496   6.035   5.474
12525TIP3    H237521   5.411   6.134   5.398
12526TIP3   OH237522   3.470   6.481   0.061
12526TIP3    H137523   3.495   6.519  -0.023
12526TIP3    H237524   3.553   6.453   0.100
12527TIP3   OH237525   5.535   5.235   3.742
12527TIP3    H137526   5.563   5.154   3.784
12527TIP3    H237527   5.499   5.206   3.658
12528TIP3   OH237528   6.341   1.102   1.752
12528TIP3    H137529   6.374   1.090   1.663
12528TIP3    H237530   6.393   1.174   1.787
12529TIP3   OH237531   1.628   3.924   2.606
12529TIP3    H137532   1.652   3.836   2.579
12529TIP3    H237533   1.532   3.926   2.600
12530TIP3   OH237534   0.496   4.717   0.545
12530TIP3    H137535   0.509   4.716   0.640
12530TIP3    H237536   0.551   4.646   0.513
12531TIP3   OH237537   4.256   5.856   1.747
12531TIP3    H137538   4.310   5.932   1.724
12531TIP3    H237539   4.195   5.890   1.813
12532TIP3   OH237540   6.785   4.874   5.413
12532TIP3    H137541   6.815   4.784   5.404
12532TIP3    H237542   6.697   4.867   5.451
12533TIP3   OH237543   4.969   3.206   0.987
12533TIP3    H137544   4.889   3.256   1.004
12533TIP3    H237545   5.035   3.246   1.044
12534TIP3   OH237546   7.804   4.147   0.352
12534TIP3    H137547   7.845   4.209   0.292
12534TIP3    H237548   7.771   4.201   0.424
12535TIP3   OH237549   8.058   5.232   2.554
12535TIP3    H137550   8.078   5.319   2.589
12535TIP3    H237551   8.104   5.172   2.613
12536TIP3   OH237552   6.626   0.397   2.747
12536TIP3    H137553   6.698   0.435   2.696
12536TIP3    H237554   6.582   0.472   2.785
12537TIP3   OH237555   3.107   5.437   0.450
12537TIP3    H137556   3.122   5.508   0.512
12537TIP3    H237557   3.045   5.379   0.495
12538TIP3   OH237558   0.960   4.134   3.099
12538TIP3    H137559   0.874   4.092   3.104
12538TIP3    H237560   1.003   4.110   3.180
12539TIP3   OH237561   2.802   2.023   4.255
12539TIP3    H137562   2.858   1.980   4.189
12539TIP3    H237563   2.818   2.116   4.243
12540TIP3   OH237564   2.985   4.577   4.707
12540TIP3    H137565   3.045   4.614   4.642
12540TIP3    H237566   2.957   4.494   4.669
12541TIP3   OH237567   6.624   2.519   2.283
12541TIP3    H137568   6.660   2.441   2.325
12541TIP3    H237569   6.585   2.568   2.355
12542TIP3   OH237570   4.061   2.274   0.159
12542TIP3    H137571   4.063   2.276   0.063
12542TIP3    H237572   4.033   2.185   0.181
12543TIP3   OH237573   0.030   3.019   5.415
12543TIP3    H137574   0.084   3.098   5.416
12543TIP3    H237575   0.057   2.973   5.336
12544TIP3   OH237576   1.088   6.323   1.572
12544TIP3    H137577   1.099   6.368   1.656
12544TIP3    H237578   0.994   6.303   1.568
12545TIP3   OH237579   2.402   3.276   6.239
12545TIP3    H137580   2.452   3.196   6.222
12545TIP3    H237581   2.312   3.252   6.218
12546TIP3   OH237582   4.963   0.529   4.773
12546TIP3    H137583   4.952   0.607   4.827
12546TIP3    H237584   4.892   0.533   4.709
12547TIP3   OH237585   0.278   0.763   0.557
12547TIP3    H137586   0.235   0.679   0.539
12547TIP3    H237587   0.298   0.799   0.471
12548TIP3   OH237588   4.837   1.534   3.589
12548TIP3    H137589   4.748   1.565   3.576
12548TIP3    H237590   4.877   1.599   3.647
12549TIP3   OH237591   1.737   1.217   6.303
12549TIP3    H137592   1.687   1.202   6.384
12549TIP3    H237593   1.802   1.283   6.327
12550TIP3   OH237594   3.466   5.927   0.421
12550TIP3    H137595   3.377   5.893   0.408
12550TIP3    H237596   3.487   5.972   0.340
12551TIP3   OH237597   8.054   7.690   5.739
12551TIP3    H137598   7.962   7.696   5.712
12551TIP3    H237599   8.076   7.780   5.765
12552TIP3   OH237600   5.950   4.857   5.979
12552TIP3    H137601   5.963   4.825   5.889
12552TIP3    H237602   6.038   4.876   6.010
12553TIP3   OH237603   1.972   1.470   6.642
12553TIP3    H137604   2.056   1.471   6.596
12553TIP3    H237605   1.985   1.528   6.717
12554TIP3   OH237606   1.904   5.123   3.559
12554TIP3    H137607   1.966   5.173   3.613
12554TIP3    H237608   1.859   5.066   3.621
12555TIP3   OH237609   4.143   0.586   6.442
12555TIP3    H137610   4.122   0.515   6.503
12555TIP3    H237611   4.236   0.577   6.425
12556TIP3   OH237612   5.625   1.236   0.507
12556TIP3    H137613   5.586   1.305   0.560
12556TIP3    H237614   5.593   1.155   0.547
12557TIP3   OH237615   5.946   6.292   1.429
12557TIP3    H137616   6.030   6.261   1.394
12557TIP3    H237617   5.887   6.292   1.353
12558TIP3   OH237618   2.190   2.260   4.886
12558TIP3    H137619   2.225   2.271   4.974
12558TIP3    H237620   2.170   2.166   4.880
12559TIP3   OH237621   6.149   3.101   4.304
12559TIP3    H137622   6.222   3.077   4.247
12559TIP3    H237623   6.172   3.066   4.390
12560TIP3   OH237624   2.645   3.715   1.637
12560TIP3    H137625   2.679   3.796   1.599
12560TIP3    H237626   2.551   3.729   1.642
12561TIP3   OH237627   1.404   4.311   3.216
12561TIP3    H137628   1.384   4.245   3.151
12561TIP3    H237629   1.442   4.262   3.290
12562TIP3   OH237630   1.770   0.866   5.722
12562TIP3    H137631   1.843   0.805   5.727
12562TIP3    H237632   1.798   0.941   5.776
12563TIP3   OH237633   3.541   1.361   3.625
12563TIP3    H137634   3.501   1.329   3.706
12563TIP3    H237635   3.593   1.287   3.593
12564TIP3   OH237636   1.022   3.854   1.156
12564TIP3    H137637   0.986   3.776   1.198
12564TIP3    H237638   0.962   3.925   1.179
12565TIP3   OH237639   1.080   1.880   0.858
12565TIP3    H137640   1.097   1.848   0.769
12565TIP3    H237641   1.099   1.804   0.914
12566TIP3   OH237642   7.802   2.938   2.793
12566TIP3    H137643   7.759   2.873   2.848
12566TIP3    H237644   7.894   2.937   2.821
12567TIP3   OH237645   0.887   3.242   4.314
12567TIP3    H137646   0.863   3.237   4.406
12567TIP3    H237647   0.845   3.323   4.282
12568TIP3   OH237648   3.288   2.727   0.966
12568TIP3    H137649   3.213   2.749   1.021
12568TIP3    H237650   3.286   2.791   0.895
12569TIP3   OH237651   2.184   3.029   5.930
12569TIP3    H137652   2.269   3.026   5.885
12569TIP3    H237653   2.173   2.941   5.966
12570TIP3   OH237654   5.082   7.269   1.089
12570TIP3    H137655   5.087   7.188   1.036
12570TIP3    H237656   4.992   7.272   1.119
12571TIP3   OH237657   5.471   5.561   3.998
12571TIP3    H137658   5.477   5.503   4.074
12571TIP3    H237659   5.561   5.565   3.964
12572TIP3   OH237660   1.181   2.883   5.870
12572TIP3    H137661   1.106   2.864   5.926
12572TIP3    H237662   1.214   2.797   5.844
12573TIP3   OH237663   2.334   2.175   3.772
12573TIP3    H137664   2.240   2.191   3.764
12573TIP3    H237665   2.356   2.209   3.859
12574TIP3   OH237666   6.361   2.239   5.338
12574TIP3    H137667   6.373   2.301   5.266
12574TIP3    H237668   6.437   2.181   5.333
12575TIP3   OH237669   4.620   1.027   1.257
12575TIP3    H137670   4.687   1.027   1.189
12575TIP3    H237671   4.658   1.079   1.328
12576TIP3   OH237672   4.930   4.474   1.523
12576TIP3    H137673   4.944   4.541   1.589
12576TIP3    H237674   4.839   4.486   1.495
12577TIP3   OH237675   3.164   6.823   1.863
12577TIP3    H137676   3.178   6.894   1.801
12577TIP3    H237677   3.087   6.777   1.830
12578TIP3   OH237678   5.293   4.295   2.978
12578TIP3    H137679   5.227   4.278   3.045
12578TIP3    H237680   5.262   4.374   2.933
12579TIP3   OH237681   7.723   5.650   3.867
12579TIP3    H137682   7.817   5.661   3.847
12579TIP3    H237683   7.709   5.555   3.864
12580TIP3   OH237684   6.620   5.977   2.660
12580TIP3    H137685   6.526   5.960   2.667
12580TIP3    H237686   6.654   5.902   2.611
12581TIP3   OH237687   4.955   2.474   0.284
12581TIP3    H137688   4.951   2.550   0.342
12581TIP3    H237689   4.913   2.403   0.333
12582TIP3   OH237690   4.906   0.147   6.569
12582TIP3    H137691   4.821   0.107   6.590
12582TIP3    H237692   4.926   0.115   6.481
12583TIP3   OH237693   2.478   3.115   2.621
12583TIP3    H137694   2.482   3.022   2.597
12583TIP3    H237695   2.551   3.127   2.682
12584TIP3   OH237696   2.699   0.233   1.836
12584TIP3    H137697   2.610   0.209   1.864
12584TIP3    H237698   2.686   0.308   1.779
12585TIP3   OH237699   4.439   2.064   6.723
12585TIP3    H137700   4.445   1.980   6.676
12585TIP3    H237701   4.528   2.081   6.752
12586TIP3   OH237702   6.462   1.169   3.071
12586TIP3    H137703   6.555   1.152   3.087
12586TIP3    H237704   6.455   1.172   2.976
12587TIP3   OH237705   0.353   3.745   4.757
12587TIP3    H137706   0.341   3.653   4.734
12587TIP3    H237707   0.326   3.751   4.848
12588TIP3   OH237708   5.204   7.813   4.089
12588TIP3    H137709   5.262   7.765   4.030
12588TIP3    H237710   5.116   7.788   4.061
12589TIP3   OH237711   0.143   4.919   4.002
12589TIP3    H137712   0.207   4.973   4.047
12589TIP3    H237713   0.180   4.830   4.006
12590TIP3   OH237714   0.667   2.244   5.557
12590TIP3    H137715   0.658   2.149   5.561
12590TIP3    H237716   0.732   2.265   5.623
12591TIP3   OH237717   0.650   2.440   1.203
12591TIP3    H137718   0.556   2.453   1.209
12591TIP3    H237719   0.673   2.391   1.282
12592TIP3   OH237720   6.835   3.048   5.081
12592TIP3    H137721   6.821   3.077   4.991
12592TIP3    H237722   6.762   3.087   5.130
12593TIP3   OH237723   6.282   7.121   5.709
12593TIP3    H137724   6.227   7.093   5.782
12593TIP3    H237725   6.359   7.159   5.751
12594TIP3   OH237726   0.931   5.339   5.581
12594TIP3    H137727   0.926   5.435   5.582
12594TIP3    H237728   0.847   5.311   5.618
12595TIP3   OH237729   2.330   4.010   0.543
12595TIP3    H137730   2.332   3.928   0.593
12595TIP3    H237731   2.422   4.037   0.539
12596TIP3   OH237732   1.605   2.506   3.598
12596TIP3    H137733   1.656   2.588   3.592
12596TIP3    H237734   1.642   2.460   3.673
12597TIP3   OH237735   7.525   5.839   6.274
12597TIP3    H137736   7.610   5.829   6.317
12597TIP3    H237737   7.502   5.750   6.246
12598TIP3   OH237738   7.863   0.291   5.457
12598TIP3    H137739   7.767   0.294   5.458
12598TIP3    H237740   7.886   0.253   5.542
12599TIP3   OH237741   5.732   5.377   4.250
12599TIP3    H137742   5.646   5.418   4.238
12599TIP3    H237743   5.754   5.393   4.342
12600TIP3   OH237744   5.363   3.188   1.701
12600TIP3    H137745   5.372   3.118   1.765
12600TIP3    H237746   5.269   3.192   1.683
12601TIP3   OH237747   2.043   2.363   5.424
12601TIP3    H137748   2.112   2.330   5.481
12601TIP3    H237749   2.002   2.283   5.389
12602TIP3   OH237750   0.974   3.370   0.647
12602TIP3    H137751   0.897   3.409   0.605
12602TIP3    H237752   1.034   3.443   0.661
12603TIP3   OH237753   3.335   2.262   3.011
12603TIP3    H137754   3.356   2.176   2.974
12603TIP3    H237755   3.396   2.272   3.084
12604TIP3   OH237756   7.399   3.131   2.619
12604TIP3    H137757   7.324   3.190   2.627
12604TIP3    H237758   7.435   3.148   2.532
12605TIP3   OH237759   4.087   4.493   4.517
12605TIP3    H137760   4.120   4.505   4.429
12605TIP3    H237761   4.126   4.564   4.568
12606TIP3   OH237762   6.062   2.587   3.974
12606TIP3    H137763   6.018   2.576   4.058
12606TIP3    H237764   6.120   2.511   3.968
12607TIP3   OH237765   0.265   4.727   6.753
12607TIP3    H137766   0.323   4.662   6.713
12607TIP3    H237767   0.308   4.750   6.835
12608TIP3   OH237768   0.365   7.118   2.580
12608TIP3    H137769   0.436   7.127   2.517
12608TIP3    H237770   0.288   7.095   2.528
12609TIP3   OH237771   4.057   1.152   2.882
12609TIP3    H137772   4.079   1.061   2.899
12609TIP3    H237773   3.961   1.155   2.884
12610TIP3   OH237774   7.598   7.113   5.610
12610TIP3    H137775   7.526   7.059   5.643
12610TIP3    H237776   7.592   7.194   5.661
12611TIP3   OH237777   7.342   1.089   5.566
12611TIP3    H137778   7.329   1.162   5.506
12611TIP3    H237779   7.282   1.106   5.639
12612TIP3   OH237780   4.115   7.816   0.023
12612TIP3    H137781   4.105   7.822   0.118
12612TIP3    H237782   4.045   7.757  -0.004
12613TIP3   OH237783   8.179   0.111   2.421
12613TIP3    H137784   8.127   0.049   2.370
12613TIP3    H237785   8.198   0.182   2.360
12614TIP3   OH237786   0.747   7.410   0.884
12614TIP3    H137787   0.670   7.434   0.832
12614TIP3    H237788   0.713   7.394   0.972
12615TIP3   OH237789   8.100   2.480   0.048
12615TIP3    H137790   8.079   2.491  -0.044
12615TIP3    H237791   8.051   2.401   0.074
12616TIP3   OH237792   7.634   6.729   0.541
12616TIP3    H137793   7.689   6.677   0.600
12616TIP3    H237794   7.548   6.729   0.583
12617TIP3   OH237795   1.378   3.407   2.048
12617TIP3    H137796   1.401   3.497   2.026
12617TIP3    H237797   1.381   3.404   2.144
12618TIP3   OH237798   4.183   2.684   5.374
12618TIP3    H137799   4.249   2.614   5.380
12618TIP3    H237800   4.136   2.679   5.457
12619TIP3   OH237801   5.906   7.435   4.752
12619TIP3    H137802   5.863   7.516   4.723
12619TIP3    H237803   5.836   7.386   4.795
12620TIP3   OH237804   3.586   4.597   0.374
12620TIP3    H137805   3.498   4.569   0.349
12620TIP3    H237806   3.596   4.563   0.463
12621TIP3   OH237807   3.134   1.338   0.581
12621TIP3    H137808   3.079   1.259   0.575
12621TIP3    H237809   3.148   1.350   0.675
12622TIP3   OH237810   4.349   3.740   2.366
12622TIP3    H137811   4.409   3.808   2.397
12622TIP3    H237812   4.304   3.780   2.292
12623TIP3   OH237813   4.904   7.430   5.583
12623TIP3    H137814   4.812   7.408   5.570
12623TIP3    H237815   4.935   7.368   5.649
12624TIP3   OH237816   7.531   3.685   5.955
12624TIP3    H137817   7.520   3.767   6.004
12624TIP3    H237818   7.576   3.627   6.017
12625TIP3   OH237819   2.547   4.343   5.888
12625TIP3    H137820   2.504   4.264   5.855
12625TIP3    H237821   2.493   4.415   5.854
12626TIP3   OH237822   5.499   6.570   5.809
12626TIP3    H137823   5.409   6.595   5.786
12626TIP3    H237824   5.554   6.633   5.764
12627TIP3   OH237825   5.884   4.780   1.459
12627TIP3    H137826   5.794   4.794   1.490
12627TIP3    H237827   5.939   4.809   1.532
12628TIP3   OH237828   0.980   6.912   3.617
12628TIP3    H137829   0.958   6.820   3.630
12628TIP3    H237830   0.895   6.956   3.614
12629TIP3   OH237831   6.400   6.196   5.658
12629TIP3    H137832   6.390   6.226   5.748
12629TIP3    H237833   6.328   6.134   5.645
12630TIP3   OH237834   2.480   6.543   0.347
12630TIP3    H137835   2.399   6.492   0.347
12630TIP3    H237836   2.500   6.556   0.440
12631TIP3   OH237837   0.936   3.693   2.926
12631TIP3    H137838   0.939   3.782   2.891
12631TIP3    H237839   0.920   3.704   3.019
12632TIP3   OH237840   2.613   6.617   4.114
12632TIP3    H137841   2.550   6.689   4.112
12632TIP3    H237842   2.612   6.582   4.025
12633TIP3   OH237843   2.266   7.360   0.357
12633TIP3    H137844   2.214   7.394   0.284
12633TIP3    H237845   2.265   7.430   0.422
12634TIP3   OH237846   5.278   3.745   0.485
12634TIP3    H137847   5.190   3.739   0.522
12634TIP3    H237848   5.301   3.655   0.464
12635TIP3   OH237849   3.766   0.351   0.958
12635TIP3    H137850   3.744   0.354   0.865
12635TIP3    H237851   3.715   0.278   0.992
12636TIP3   OH237852   5.128   2.293   3.027
12636TIP3    H137853   5.143   2.358   2.958
12636TIP3    H237854   5.033   2.287   3.034
12637TIP3   OH237855   2.601   2.716   5.579
12637TIP3    H137856   2.536   2.785   5.575
12637TIP3    H237857   2.597   2.674   5.494
12638TIP3   OH237858   7.788   0.247   1.275
12638TIP3    H137859   7.775   0.152   1.282
12638TIP3    H237860   7.790   0.277   1.366
12639TIP3   OH237861   0.918   6.933   2.283
12639TIP3    H137862   0.911   6.843   2.315
12639TIP3    H237863   0.857   6.982   2.338
12640TIP3   OH237864   6.663   2.752   4.463
12640TIP3    H137865   6.732   2.772   4.400
12640TIP3    H237866   6.588   2.805   4.435
12641TIP3   OH237867   7.879   3.166   5.781
12641TIP3    H137868   7.909   3.198   5.865
12641TIP3    H237869   7.864   3.244   5.728
12642TIP3   OH237870   6.239   3.922   5.876
12642TIP3    H137871   6.263   3.861   5.946
12642TIP3    H237872   6.229   3.867   5.799
12643TIP3   OH237873   6.156   4.208   0.223
12643TIP3    H137874   6.184   4.120   0.195
12643TIP3    H237875   6.236   4.251   0.252
12644TIP3   OH237876   7.146   1.217   0.401
12644TIP3    H137877   7.170   1.251   0.488
12644TIP3    H237878   7.218   1.245   0.344
12645TIP3   OH237879   7.256   1.367   2.325
12645TIP3    H137880   7.330   1.426   2.309
12645TIP3    H237881   7.233   1.382   2.417
12646TIP3   OH237882   8.249   2.900   0.599
12646TIP3    H137883   8.335   2.936   0.578
12646TIP3    H237884   8.217   2.865   0.516
12647TIP3   OH237885   0.718   1.826   0.673
12647TIP3    H137886   0.712   1.740   0.632
12647TIP3    H237887   0.695   1.810   0.765
12648TIP3   OH237888   3.581   4.718   1.721
12648TIP3    H137889   3.565   4.791   1.781
12648TIP3    H237890   3.545   4.746   1.637
12649TIP3   OH237891   7.487   2.732   1.295
12649TIP3    H137892   7.541   2.810   1.283
12649TIP3    H237893   7.544   2.671   1.342
12650TIP3   OH237894   6.590   0.476   3.737
12650TIP3    H137895   6.651   0.430   3.794
12650TIP3    H237896   6.541   0.406   3.694
12651TIP3   OH237897   1.295   3.192   3.016
12651TIP3    H137898   1.376   3.207   3.066
12651TIP3    H237899   1.287   3.097   3.011
12652TIP3   OH237900   1.721   1.592  -0.040
12652TIP3    H137901   1.797   1.540  -0.065
12652TIP3    H237902   1.758   1.672  -0.002
12653TIP3   OH237903   0.035   6.632   5.499
12653TIP3    H137904   0.001   6.712   5.459
12653TIP3    H237905   0.130   6.638   5.488
12654TIP3   OH237906   3.183   6.839   0.298
12654TIP3    H137907   3.219   6.757   0.266
12654TIP3    H237908   3.111   6.814   0.355
12655TIP3   OH237909   4.352   5.251   6.439
12655TIP3    H137910   4.440   5.263   6.475
12655TIP3    H237911   4.365   5.252   6.344
12656TIP3   OH237912   1.319   6.518   4.630
12656TIP3    H137913   1.276   6.444   4.588
12656TIP3    H237914   1.254   6.553   4.691
12657TIP3   OH237915   5.826   6.815   1.163
12657TIP3    H137916   5.738   6.851   1.174
12657TIP3    H237917   5.878   6.888   1.130
12658TIP3   OH237918   2.617   5.464   1.083
12658TIP3    H137919   2.648   5.377   1.107
12658TIP3    H237920   2.669   5.524   1.136
12659TIP3   OH237921   3.036   0.112   0.831
12659TIP3    H137922   2.986   0.089   0.752
12659TIP3    H237923   3.037   0.032   0.883
12660TIP3   OH237924   5.546   1.704   0.434
12660TIP3    H137925   5.577   1.665   0.516
12660TIP3    H237926   5.610   1.773   0.414
12661TIP3   OH237927   0.114   6.066   1.887
12661TIP3    H137928   0.122   5.971   1.897
12661TIP3    H237929   0.085   6.096   1.973
12662TIP3   OH237930   5.902   0.846   6.267
12662TIP3    H137931   5.957   0.925   6.271
12662TIP3    H237932   5.944   0.791   6.201
12663TIP3   OH237933   7.609   1.347   2.570
12663TIP3    H137934   7.647   1.385   2.491
12663TIP3    H237935   7.517   1.334   2.549
12664TIP3   OH237936   1.190   2.791   3.508
12664TIP3    H137937   1.128   2.719   3.521
12664TIP3    H237938   1.167   2.855   3.575
12665TIP3   OH237939   3.538   0.480   4.800
12665TIP3    H137940   3.555   0.494   4.894
12665TIP3    H237941   3.525   0.386   4.792
12666TIP3   OH237942   7.476   2.773   2.119
12666TIP3    H137943   7.565   2.771   2.084
12666TIP3    H237944   7.488   2.790   2.213
12667TIP3   OH237945   1.936   5.948   4.151
12667TIP3    H137946   1.856   5.937   4.203
12667TIP3    H237947   1.972   5.860   4.141
12668TIP3   OH237948   4.513   7.325   4.832
12668TIP3    H137949   4.575   7.258   4.861
12668TIP3    H237950   4.562   7.407   4.837
12669TIP3   OH237951   6.406   0.224   3.968
12669TIP3    H137952   6.437   0.298   4.021
12669TIP3    H237953   6.311   0.225   3.980
12670TIP3   OH237954   6.638   6.361   3.660
12670TIP3    H137955   6.603   6.384   3.574
12670TIP3    H237956   6.563   6.323   3.707
12671TIP3   OH237957   7.928   3.105   1.905
12671TIP3    H137958   7.942   3.011   1.890
12671TIP3    H237959   8.006   3.133   1.954
12672TIP3   OH237960   1.837   4.761   0.832
12672TIP3    H137961   1.914   4.763   0.889
12672TIP3    H237962   1.807   4.671   0.835
12673TIP3   OH237963   7.204   6.206   1.784
12673TIP3    H137964   7.297   6.221   1.769
12673TIP3    H237965   7.197   6.189   1.878
12674TIP3   OH237966   0.005   0.069   1.461
12674TIP3    H137967  -0.070   0.078   1.402
12674TIP3    H237968   0.009  -0.025   1.480
12675TIP3   OH237969   5.206   2.746   1.042
12675TIP3    H137970   5.255   2.718   0.965
12675TIP3    H237971   5.132   2.796   1.006
12676TIP3   OH237972   1.733   1.877   6.318
12676TIP3    H137973   1.643   1.900   6.341
12676TIP3    H237974   1.784   1.902   6.395
12677TIP3   OH237975   1.282   5.950   3.438
12677TIP3    H137976   1.269   5.951   3.533
12677TIP3    H237977   1.254   5.863   3.411
12678TIP3   OH237978   1.942   6.993   4.537
12678TIP3    H137979   1.984   6.969   4.454
12678TIP3    H237980   1.850   6.970   4.524
12679TIP3   OH237981   0.137   3.330   1.891
12679TIP3    H137982   0.055   3.338   1.842
12679TIP3    H237983   0.206   3.341   1.826
12680TIP3   OH237984   5.992   2.087   6.758
12680TIP3    H137985   6.037   2.104   6.675
12680TIP3    H237986   6.043   2.136   6.823
12681TIP3   OH237987   1.372   2.843   3.898
12681TIP3    H137988   1.389   2.918   3.840
12681TIP3    H237989   1.353   2.771   3.839
12682TIP3   OH237990   5.994   1.580   0.646
12682TIP3    H137991   5.912   1.577   0.694
12682TIP3    H237992   5.970   1.560   0.556
12683TIP3   OH237993   2.336   4.613   2.862
12683TIP3    H137994   2.397   4.565   2.806
12683TIP3    H237995   2.289   4.544   2.909
12684TIP3   OH237996   2.247   4.051   2.708
12684TIP3    H137997   2.285   4.089   2.787
12684TIP3    H237998   2.157   4.084   2.707
12685TIP3   OH237999   5.556   7.342   5.363
12685TIP3    H138000   5.607   7.261   5.373
12685TIP3    H238001   5.528   7.363   5.452
12686TIP3   OH238002   1.606   2.476   6.149
12686TIP3    H138003   1.675   2.469   6.083
12686TIP3    H238004   1.652   2.505   6.228
12687TIP3   OH238005   3.606   0.691   6.464
12687TIP3    H138006   3.583   0.607   6.503
12687TIP3    H238007   3.689   0.676   6.419
12688TIP3   OH238008   7.072   3.475   3.091
12688TIP3    H138009   7.028   3.558   3.108
12688TIP3    H238010   7.109   3.449   3.175
12689TIP3   OH238011   1.647   7.156   4.214
12689TIP3    H138012   1.689   7.194   4.137
12689TIP3    H238013   1.636   7.063   4.192
12690TIP3   OH238014   2.733   0.586   6.259
12690TIP3    H138015   2.689   0.528   6.197
12690TIP3    H238016   2.669   0.653   6.280
12691TIP3   OH238017   2.764   4.947   2.649
12691TIP3    H138018   2.744   4.987   2.734
12691TIP3    H238019   2.751   4.853   2.663
12692TIP3   OH238020   6.845   3.774   3.328
12692TIP3    H138021   6.878   3.691   3.362
12692TIP3    H238022   6.895   3.789   3.248
12693TIP3   OH238023   7.673   3.778   4.011
12693TIP3    H138024   7.710   3.811   3.929
12693TIP3    H238025   7.630   3.854   4.050
12694TIP3   OH238026   2.673   3.217   0.468
12694TIP3    H138027   2.707   3.270   0.540
12694TIP3    H238028   2.600   3.169   0.506
12695TIP3   OH238029   5.487   3.410   5.574
12695TIP3    H138030   5.525   3.375   5.654
12695TIP3    H238031   5.393   3.391   5.582
12696TIP3   OH238032   3.157   3.076   1.985
12696TIP3    H138033   3.151   3.112   2.074
12696TIP3    H238034   3.189   2.987   1.997
12697TIP3   OH238035   6.625   2.246   5.858
12697TIP3    H138036   6.630   2.205   5.944
12697TIP3    H238037   6.687   2.319   5.863
12698TIP3   OH238038   2.506   2.545   6.055
12698TIP3    H138039   2.504   2.640   6.042
12698TIP3    H238040   2.555   2.512   5.980
12699TIP3   OH238041   1.672   2.366   2.452
12699TIP3    H138042   1.712   2.285   2.483
12699TIP3    H238043   1.578   2.351   2.461
12700TIP3   OH238044   7.339   3.374   2.376
12700TIP3    H138045   7.422   3.420   2.390
12700TIP3    H238046   7.301   3.364   2.463
12701TIP3   OH238047   0.308   7.044   4.010
12701TIP3    H138048   0.286   6.961   4.052
12701TIP3    H238049   0.257   7.109   4.058
12702TIP3   OH238050   2.198   7.392   4.145
12702TIP3    H138051   2.269   7.441   4.103
12702TIP3    H238052   2.138   7.372   4.073
12703TIP3   OH238053   2.022   6.162   6.553
12703TIP3    H138054   2.032   6.240   6.498
12703TIP3    H238055   2.108   6.121   6.551
12704TIP3   OH238056   5.682   0.456   3.091
12704TIP3    H138057   5.724   0.521   3.147
12704TIP3    H238058   5.589   0.468   3.106
12705TIP3   OH238059   0.286   2.063   2.365
12705TIP3    H138060   0.337   1.986   2.337
12705TIP3    H238061   0.217   2.071   2.298
12706TIP3   OH238062   1.035   5.091   6.604
12706TIP3    H138063   1.078   5.051   6.528
12706TIP3    H238064   0.951   5.046   6.610
12707TIP3   OH238065   5.811   0.767   3.650
12707TIP3    H138066   5.868   0.703   3.605
12707TIP3    H238067   5.869   0.811   3.712
12708TIP3   OH238068   6.262   1.254   6.164
12708TIP3    H138069   6.208   1.331   6.148
12708TIP3    H238070   6.280   1.218   6.077
12709TIP3   OH238071   2.812   6.624   4.827
12709TIP3    H138072   2.894   6.600   4.871
12709TIP3    H238073   2.774   6.540   4.801
12710TIP3   OH238074   4.140   4.787   1.692
12710TIP3    H138075   4.057   4.761   1.652
12710TIP3    H238076   4.196   4.811   1.618
12711TIP3   OH238077   3.869   6.781   4.714
12711TIP3    H138078   3.952   6.748   4.678
12711TIP3    H238079   3.864   6.871   4.683
12712TIP3   OH238080   4.733   7.705   3.373
12712TIP3    H138081   4.665   7.639   3.385
12712TIP3    H238082   4.793   7.667   3.310
12713TIP3   OH238083   5.711   0.599   6.153
12713TIP3    H138084   5.728   0.508   6.127
12713TIP3    H238085   5.771   0.614   6.226
12714TIP3   OH238086   0.754   1.762   1.464
12714TIP3    H138087   0.712   1.807   1.391
12714TIP3    H238088   0.722   1.808   1.542
12715TIP3   OH238089   5.407   3.052   0.546
12715TIP3    H138090   5.423   3.036   0.639
12715TIP3    H238091   5.391   3.146   0.540
12716TIP3   OH238092   2.794   1.621   1.589
12716TIP3    H138093   2.778   1.707   1.550
12716TIP3    H238094   2.820   1.566   1.515
12717TIP3   OH238095   6.726   2.532   5.855
12717TIP3    H138096   6.639   2.570   5.846
12717TIP3    H238097   6.783   2.605   5.880
12718TIP3   OH238098   4.617   3.251   4.014
12718TIP3    H138099   4.599   3.340   3.981
12718TIP3    H238100   4.578   3.193   3.948
12719TIP3   OH238101   1.500   5.420   2.130
12719TIP3    H138102   1.577   5.366   2.112
12719TIP3    H238103   1.441   5.402   2.058
12720TIP3   OH238104   2.323   3.512   1.314
12720TIP3    H138105   2.376   3.455   1.369
12720TIP3    H238106   2.387   3.559   1.259
12721TIP3   OH238107   3.605   6.416   2.403
12721TIP3    H138108   3.567   6.490   2.451
12721TIP3    H238109   3.622   6.350   2.470
12722TIP3   OH238110   2.583   7.641   2.459
12722TIP3    H138111   2.523   7.680   2.522
12722TIP3    H238112   2.528   7.616   2.385
12723TIP3   OH238113  -0.012   0.291   0.758
12723TIP3    H138114  -0.078   0.358   0.775
12723TIP3    H238115   0.068   0.340   0.741
12724TIP3   OH238116   1.635   3.310   1.571
12724TIP3    H138117   1.654   3.349   1.657
12724TIP3    H238118   1.554   3.261   1.584
12725TIP3   OH238119   2.482   3.903   5.376
12725TIP3    H138120   2.539   3.865   5.443
12725TIP3    H238121   2.395   3.872   5.399
12726TIP3   OH238122   5.478   6.348   6.752
12726TIP3    H138123   5.415   6.284   6.720
12726TIP3    H238124   5.464   6.425   6.696
12727TIP3   OH238125   2.015   3.814   3.469
12727TIP3    H138126   2.038   3.869   3.544
12727TIP3    H238127   2.061   3.854   3.395
12728TIP3   OH238128   2.161   4.467   1.158
12728TIP3    H138129   2.225   4.535   1.135
12728TIP3    H238130   2.100   4.467   1.084
12729TIP3   OH238131   1.222   3.316   2.481
12729TIP3    H138132   1.239   3.224   2.458
12729TIP3    H238133   1.177   3.311   2.566
12730TIP3   OH238134   6.961   3.801   4.183
12730TIP3    H138135   6.945   3.791   4.277
12730TIP3    H238136   7.033   3.740   4.164
12731TIP3   OH238137   6.435   7.408   6.698
12731TIP3    H138138   6.350   7.423   6.740
12731TIP3    H238139   6.420   7.430   6.606
12732TIP3   OH238140   7.771   1.850   6.716
12732TIP3    H138141   7.836   1.845   6.646
12732TIP3    H238142   7.716   1.772   6.702
12733TIP3   OH238143   5.094   1.231   4.202
12733TIP3    H138144   5.077   1.148   4.247
12733TIP3    H238145   5.172   1.214   4.150
12734TIP3   OH238146   7.501   4.623   6.029
12734TIP3    H138147   7.522   4.697   5.973
12734TIP3    H238148   7.584   4.577   6.040
12735TIP3   OH238149   7.595   0.333   1.002
12735TIP3    H138150   7.665   0.292   0.950
12735TIP3    H238151   7.523   0.345   0.939
12736TIP3   OH238152   5.739   0.285   6.122
12736TIP3    H138153   5.768   0.219   6.186
12736TIP3    H238154   5.649   0.305   6.149
12737TIP3   OH238155   1.497   5.035   0.503
12737TIP3    H138156   1.589   5.009   0.505
12737TIP3    H238157   1.448   4.953   0.494
12738TIP3   OH238158   7.748   6.604   6.265
12738TIP3    H138159   7.683   6.554   6.315
12738TIP3    H238160   7.717   6.599   6.174
12739TIP3   OH238161   5.711   3.560   5.799
12739TIP3    H138162   5.687   3.631   5.858
12739TIP3    H238163   5.733   3.487   5.857
12740TIP3   OH238164   4.143   4.676   0.248
12740TIP3    H138165   4.210   4.729   0.292
12740TIP3    H238166   4.062   4.727   0.258
12741TIP3   OH238167   4.466   4.581   6.329
12741TIP3    H138168   4.494   4.643   6.262
12741TIP3    H238169   4.547   4.558   6.376
12742TIP3   OH238170   6.123   4.268   2.960
12742TIP3    H138171   6.040   4.270   3.007
12742TIP3    H238172   6.184   4.226   3.021
12743TIP3   OH238173   0.367   0.442   1.518
12743TIP3    H138174   0.336   0.522   1.560
12743TIP3    H238175   0.392   0.384   1.590
12744TIP3   OH238176   1.037   1.444   5.067
12744TIP3    H138177   1.023   1.418   4.976
12744TIP3    H238178   1.008   1.368   5.118
12745TIP3   OH238179   0.847   1.367   6.554
12745TIP3    H138180   0.791   1.289   6.554
12745TIP3    H238181   0.884   1.371   6.466
12746TIP3   OH238182   0.407   2.187   6.741
12746TIP3    H138183   0.360   2.139   6.809
12746TIP3    H238184   0.339   2.234   6.694
12747TIP3   OH238185   3.745   4.521   2.161
12747TIP3    H138186   3.748   4.593   2.098
12747TIP3    H238187   3.659   4.482   2.149
12748TIP3   OH238188   5.139   6.323   6.567
12748TIP3    H138189   5.069   6.387   6.578
12748TIP3    H238190   5.142   6.275   6.650
12749TIP3   OH238191   4.701   0.784   0.811
12749TIP3    H138192   4.767   0.717   0.794
12749TIP3    H238193   4.697   0.836   0.731
12750TIP3   OH238194   6.514   4.561   3.119
12750TIP3    H138195   6.491   4.477   3.078
12750TIP3    H238196   6.589   4.540   3.174
12751TIP3   OH238197   1.070   5.452   6.588
12751TIP3    H138198   1.062   5.421   6.678
12751TIP3    H238199   0.984   5.437   6.549
12752TIP3   OH238200   6.287   6.758   4.871
12752TIP3    H138201   6.357   6.817   4.899
12752TIP3    H238202   6.303   6.744   4.778
12753TIP3   OH238203   2.207   7.726   0.095
12753TIP3    H138204   2.284   7.670   0.102
12753TIP3    H238205   2.202   7.748   0.002
12754TIP3   OH238206   3.390   7.329   3.102
12754TIP3    H138207   3.411   7.421   3.089
12754TIP3    H238208   3.409   7.312   3.194
12755TIP3   OH238209   6.727   2.270   0.275
12755TIP3    H138210   6.666   2.344   0.268
12755TIP3    H238211   6.672   2.196   0.301
12756TIP3   OH238212   4.541   3.306   5.365
12756TIP3    H138213   4.457   3.296   5.320
12756TIP3    H238214   4.604   3.263   5.307
12757TIP3   OH238215   7.692   5.246   2.104
12757TIP3    H138216   7.675   5.255   2.010
12757TIP3    H238217   7.761   5.180   2.110
12758TIP3   OH238218   1.226   1.618   0.988
12758TIP3    H138219   1.259   1.537   1.028
12758TIP3    H238220   1.298   1.680   0.995
12759TIP3   OH238221   7.407   6.350   6.749
12759TIP3    H138222   7.475   6.284   6.763
12759TIP3    H238223   7.435   6.399   6.672
12760TIP3   OH238224   2.368   3.514   0.087
12760TIP3    H138225   2.368   3.467   0.004
12760TIP3    H238226   2.454   3.496   0.126
12761TIP3   OH238227   6.102   5.855   4.291
12761TIP3    H138228   6.079   5.916   4.220
12761TIP3    H238229   6.024   5.854   4.347
12762TIP3   OH238230   5.332   3.971   5.839
12762TIP3    H138231   5.340   3.878   5.817
12762TIP3    H238232   5.312   4.014   5.755
12763TIP3   OH238233   3.758   0.065   4.931
12763TIP3    H138234   3.767   0.005   4.856
12763TIP3    H238235   3.685   0.029   4.981
12764TIP3   OH238236   3.495   0.995   2.240
12764TIP3    H138237   3.404   1.014   2.217
12764TIP3    H238238   3.492   0.965   2.331
12765TIP3   OH238239   4.607   2.055   4.587
12765TIP3    H138240   4.529   2.077   4.638
12765TIP3    H238241   4.672   2.120   4.613
12766TIP3   OH238242   8.049   0.456   0.873
12766TIP3    H138243   8.018   0.484   0.787
12766TIP3    H238244   8.036   0.531   0.930
12767TIP3   OH238245   1.191   7.637   5.903
12767TIP3    H138246   1.249   7.583   5.850
12767TIP3    H238247   1.183   7.590   5.986
12768TIP3   OH238248   1.474   2.821   2.859
12768TIP3    H138249   1.493   2.855   2.772
12768TIP3    H238250   1.538   2.751   2.872
12769TIP3   OH238251   6.392   6.125   3.618
12769TIP3    H138252   6.452   6.057   3.650
12769TIP3    H238253   6.393   6.192   3.686
12770TIP3   OH238254   1.123   5.210   3.117
12770TIP3    H138255   1.197   5.229   3.175
12770TIP3    H238256   1.107   5.293   3.071
12771TIP3   OH238257   1.023   5.190   0.071
12771TIP3    H138258   1.042   5.277   0.104
12771TIP3    H238259   1.096   5.136   0.102
12772TIP3   OH238260   7.100   5.203   1.869
12772TIP3    H138261   7.109   5.118   1.912
12772TIP3    H238262   7.008   5.210   1.846
12773TIP3   OH238263   7.386   2.993   1.821
12773TIP3    H138264   7.407   3.086   1.818
12773TIP3    H238265   7.336   2.982   1.902
12774TIP3   OH238266   7.343   0.323   6.460
12774TIP3    H138267   7.285   0.247   6.468
12774TIP3    H238268   7.420   0.290   6.413
12775TIP3   OH238269   3.577   4.559   3.356
12775TIP3    H138270   3.648   4.600   3.406
12775TIP3    H238271   3.590   4.591   3.266
12776TIP3   OH238272   5.662   4.991   1.577
12776TIP3    H138273   5.640   4.953   1.492
12776TIP3    H238274   5.592   4.961   1.635
12777TIP3   OH238275   2.278   7.190   0.103
12777TIP3    H138276   2.349   7.135   0.069
12777TIP3    H238277   2.278   7.267   0.046
12778TIP3   OH238278   2.465   3.502   0.480
12778TIP3    H138279   2.378   3.465   0.491
12778TIP3    H238280   2.521   3.451   0.538
12779TIP3   OH238281   3.754   6.681   5.295
12779TIP3    H138282   3.733   6.654   5.384
12779TIP3    H238283   3.672   6.673   5.247
12780TIP3   OH238284   1.094   6.541   1.778
12780TIP3    H138285   1.013   6.527   1.827
12780TIP3    H238286   1.084   6.628   1.739
12781TIP3   OH238287   3.105   7.425   6.643
12781TIP3    H138288   3.140   7.514   6.647
12781TIP3    H238289   3.109   7.402   6.550
12782TIP3   OH238290   2.168   2.903   4.678
12782TIP3    H138291   2.096   2.843   4.697
12782TIP3    H238292   2.195   2.880   4.589
12783TIP3   OH238293   7.126   1.055   4.712
12783TIP3    H138294   7.174   1.095   4.640
12783TIP3    H238295   7.042   1.101   4.714
12784TIP3   OH238296   6.049   0.049   1.622
12784TIP3    H138297   6.015   0.059   1.711
12784TIP3    H238298   6.136   0.091   1.624
12785TIP3   OH238299   2.560   4.268   3.670
12785TIP3    H138300   2.511   4.186   3.664
12785TIP3    H238301   2.517   4.327   3.608
12786TIP3   OH238302   0.943   2.429   0.367
12786TIP3    H138303   0.937   2.517   0.405
12786TIP3    H238304   0.999   2.380   0.428
12787TIP3   OH238305   6.658   2.658   1.589
12787TIP3    H138306   6.728   2.665   1.524
12787TIP3    H238307   6.690   2.593   1.651
12788TIP3   OH238308   7.978   5.516   6.293
12788TIP3    H138309   8.008   5.604   6.314
12788TIP3    H238310   7.981   5.513   6.197
12789TIP3   OH238311   7.897   5.054   2.119
12789TIP3    H138312   7.959   5.092   2.181
12789TIP3    H238313   7.946   4.983   2.078
12790TIP3   OH238314   0.702   1.181   5.619
12790TIP3    H138315   0.744   1.196   5.704
12790TIP3    H238316   0.651   1.260   5.603
12791TIP3   OH238317   5.533   1.602   5.539
12791TIP3    H138318   5.534   1.654   5.619
12791TIP3    H238319   5.580   1.522   5.561
12792TIP3   OH238320   1.878   4.484   3.075
12792TIP3    H138321   1.813   4.441   3.020
12792TIP3    H238322   1.864   4.578   3.061
12793TIP3   OH238323   4.737   5.584   3.958
12793TIP3    H138324   4.790   5.594   3.879
12793TIP3    H238325   4.647   5.576   3.925
12794TIP3   OH238326   0.886   5.257   0.449
12794TIP3    H138327   0.836   5.190   0.495
12794TIP3    H238328   0.973   5.218   0.436
12795TIP3   OH238329   7.221   0.111   0.096
12795TIP3    H138330   7.207   0.057   0.174
12795TIP3    H238331   7.181   0.195   0.118
12796TIP3   OH238332   6.971   0.964   2.496
12796TIP3    H138333   6.926   1.028   2.552
12796TIP3    H238334   7.000   1.014   2.420
12797TIP3   OH238335   0.062   1.799   2.277
12797TIP3    H138336  -0.013   1.742   2.292
12797TIP3    H238337   0.138   1.740   2.276
12798TIP3   OH238338   5.087   5.694   5.007
12798TIP3    H138339   5.150   5.622   5.018
12798TIP3    H238340   5.141   5.773   5.007
12799TIP3   OH238341   5.932   7.138   3.260
12799TIP3    H138342   6.020   7.099   3.256
12799TIP3    H238343   5.872   7.065   3.252
12800TIP3   OH238344   0.450   2.278   4.058
12800TIP3    H138345   0.375   2.256   4.002
12800TIP3    H238346   0.460   2.372   4.049
12801TIP3   OH238347   5.702   1.041   6.057
12801TIP3    H138348   5.622   1.010   6.016
12801TIP3    H238349   5.744   1.096   5.990
12802TIP3   OH238350   0.169   6.486   5.106
12802TIP3    H138351   0.236   6.543   5.144
12802TIP3    H238352   0.104   6.475   5.175
12803TIP3   OH238353   1.991   3.702   5.290
12803TIP3    H138354   1.925   3.714   5.222
12803TIP3    H238355   1.944   3.719   5.372
12804TIP3   OH238356   4.592   2.812   6.706
12804TIP3    H138357   4.538   2.824   6.784
12804TIP3    H238358   4.679   2.791   6.741
12805TIP3   OH238359   6.269   1.384   6.473
12805TIP3    H138360   6.333   1.410   6.539
12805TIP3    H238361   6.261   1.461   6.416
12806TIP3   OH238362   4.749   6.194   5.756
12806TIP3    H138363   4.676   6.160   5.704
12806TIP3    H238364   4.746   6.143   5.837
12807TIP3   OH238365   0.739   5.441   0.345
12807TIP3    H138366   0.680   5.461   0.418
12807TIP3    H238367   0.795   5.370   0.377
12808TIP3   OH238368   2.155   5.865   3.115
12808TIP3    H138369   2.214   5.939   3.107
12808TIP3    H238370   2.168   5.815   3.035
12809TIP3   OH238371   4.058   6.058   6.060
12809TIP3    H138372   4.078   6.144   6.023
12809TIP3    H238373   4.135   6.035   6.112
12810TIP3   OH238374   7.066   4.005   1.614
12810TIP3    H138375   6.996   4.053   1.660
12810TIP3    H238376   7.071   4.046   1.528
12811TIP3   OH238377   4.038   2.409   0.787
12811TIP3    H138378   4.096   2.363   0.849
12811TIP3    H238379   4.033   2.498   0.821
12812TIP3   OH238380   7.952   2.096   5.569
12812TIP3    H138381   7.877   2.036   5.572
12812TIP3    H238382   7.942   2.144   5.487
12813TIP3   OH238383   0.455   5.947   1.737
12813TIP3    H138384   0.365   5.952   1.705
12813TIP3    H238385   0.496   5.881   1.682
12814TIP3   OH238386   4.071   0.733   0.333
12814TIP3    H138387   4.078   0.782   0.416
12814TIP3    H238388   3.993   0.768   0.291
12815TIP3   OH238389   7.585   4.530   0.241
12815TIP3    H138390   7.578   4.437   0.218
12815TIP3    H238391   7.494   4.558   0.252
12816TIP3   OH238392   4.497   4.736   4.907
12816TIP3    H138393   4.547   4.771   4.981
12816TIP3    H238394   4.467   4.814   4.860
12817TIP3   OH238395   6.499   7.581   4.310
12817TIP3    H138396   6.511   7.675   4.296
12817TIP3    H238397   6.406   7.566   4.289
12818TIP3   OH238398   1.918   0.107   5.259
12818TIP3    H138399   1.865   0.038   5.300
12818TIP3    H238400   1.959   0.064   5.185
12819TIP3   OH238401   6.837   7.231   0.277
12819TIP3    H138402   6.922   7.188   0.286
12819TIP3    H238403   6.793   7.183   0.206
12820TIP3   OH238404   2.252   3.340   0.623
12820TIP3    H138405   2.255   3.413   0.685
12820TIP3    H238406   2.162   3.308   0.628
12821TIP3   OH238407   5.989   3.155   5.082
12821TIP3    H138408   6.022   3.123   4.998
12821TIP3    H238409   6.064   3.201   5.121
12822TIP3   OH238410   2.565   3.996   4.070
12822TIP3    H138411   2.606   3.909   4.079
12822TIP3    H238412   2.500   3.998   4.140
12823TIP3   OH238413   8.050   6.918   6.355
12823TIP3    H138414   7.970   6.889   6.400
12823TIP3    H238415   8.095   6.973   6.419
12824TIP3   OH238416   0.831   6.264   1.557
12824TIP3    H138417   0.799   6.277   1.646
12824TIP3    H238418   0.762   6.215   1.513
12825TIP3   OH238419   3.458   2.070   3.246
12825TIP3    H138420   3.547   2.044   3.268
12825TIP3    H238421   3.418   2.094   3.329
12826TIP3   OH238422   0.460   0.494   5.023
12826TIP3    H138423   0.460   0.400   5.005
12826TIP3    H238424   0.392   0.506   5.089
12827TIP3   OH238425   7.129   5.654   3.348
12827TIP3    H138426   7.115   5.727   3.409
12827TIP3    H238427   7.043   5.638   3.310
12828TIP3   OH238428   1.438   1.114   3.213
12828TIP3    H138429   1.478   1.192   3.176
12828TIP3    H238430   1.462   1.116   3.305
12829TIP3   OH238431   1.649   4.174   1.029
12829TIP3    H138432   1.592   4.150   0.956
12829TIP3    H238433   1.637   4.268   1.039
12830TIP3   OH238434   6.601   4.301   2.039
12830TIP3    H138435   6.585   4.230   2.101
12830TIP3    H238436   6.690   4.329   2.058
12831TIP3   OH238437   5.701   5.722   1.681
12831TIP3    H138438   5.699   5.790   1.615
12831TIP3    H238439   5.661   5.762   1.759
12832TIP3   OH238440   5.095   0.933   5.434
12832TIP3    H138441   5.073   0.987   5.358
12832TIP3    H238442   5.159   0.986   5.482
12833TIP3   OH238443   0.062   5.127   1.295
12833TIP3    H138444   0.013   5.177   1.362
12833TIP3    H238445   0.077   5.042   1.335
12834TIP3   OH238446   4.577   1.405   5.528
12834TIP3    H138447   4.591   1.409   5.623
12834TIP3    H238448   4.499   1.349   5.519
12835TIP3   OH238449   3.008   0.381   3.715
12835TIP3    H138450   3.028   0.333   3.635
12835TIP3    H238451   3.003   0.315   3.783
12836TIP3   OH238452   2.961   3.741   2.367
12836TIP3    H138453   2.891   3.724   2.304
12836TIP3    H238454   2.921   3.800   2.431
12837TIP3   OH238455   4.625   1.319   1.915
12837TIP3    H138456   4.677   1.385   1.960
12837TIP3    H238457   4.687   1.249   1.894
12838TIP3   OH238458   6.105   0.743   6.505
12838TIP3    H138459   6.052   0.823   6.513
12838TIP3    H238460   6.121   0.715   6.595
12839TIP3   OH238461   6.042   0.903   0.217
12839TIP3    H138462   6.078   0.951   0.143
12839TIP3    H238463   6.090   0.935   0.293
12840TIP3   OH238464   0.860   4.822   6.405
12840TIP3    H138465   0.785   4.794   6.352
12840TIP3    H238466   0.879   4.747   6.462
12841TIP3   OH238467   4.288   7.309   5.890
12841TIP3    H138468   4.363   7.250   5.887
12841TIP3    H238469   4.314   7.384   5.837
12842TIP3   OH238470   4.341   6.365   6.682
12842TIP3    H138471   4.383   6.300   6.738
12842TIP3    H238472   4.250   6.368   6.713
12843TIP3   OH238473   2.718   5.268   1.408
12843TIP3    H138474   2.636   5.220   1.402
12843TIP3    H238475   2.693   5.360   1.397
12844TIP3   OH238476   4.554   3.369   2.586
12844TIP3    H138477   4.605   3.346   2.509
12844TIP3    H238478   4.484   3.303   2.590
12845TIP3   OH238479   5.642   5.920   6.252
12845TIP3    H138480   5.699   5.894   6.324
12845TIP3    H238481   5.693   5.904   6.173
12846TIP3   OH238482   6.596   5.800   2.189
12846TIP3    H138483   6.597   5.888   2.227
12846TIP3    H238484   6.530   5.753   2.240
12847TIP3   OH238485   8.007   2.680   0.465
12847TIP3    H138486   8.051   2.751   0.418
12847TIP3    H238487   8.059   2.602   0.446
12848TIP3   OH238488   4.806   4.524   4.352
12848TIP3    H138489   4.833   4.568   4.271
12848TIP3    H238490   4.845   4.437   4.345
12849TIP3   OH238491   4.353   7.581  -0.020
12849TIP3    H138492   4.276   7.527  -0.035
12849TIP3    H238493   4.321   7.654   0.034
12850TIP3   OH238494   3.139   2.632   2.037
12850TIP3    H138495   3.082   2.560   2.010
12850TIP3    H238496   3.196   2.594   2.104
12851TIP3   OH238497   7.979   2.607   2.026
12851TIP3    H138498   8.068   2.593   2.059
12851TIP3    H238499   7.972   2.548   1.951
12852TIP3   OH238500   7.114   4.038   6.793
12852TIP3    H138501   7.033   4.044   6.844
12852TIP3    H238502   7.099   3.966   6.732
12853TIP3   OH238503   6.655   5.802   4.194
12853TIP3    H138504   6.691   5.867   4.133
12853TIP3    H238505   6.562   5.824   4.200
12854TIP3   OH238506   2.603   3.847   1.127
12854TIP3    H138507   2.524   3.863   1.076
12854TIP3    H238508   2.665   3.914   1.098
12855TIP3   OH238509   6.243   1.703   6.742
12855TIP3    H138510   6.296   1.624   6.732
12855TIP3    H238511   6.245   1.721   6.836
12856TIP3   OH238512   1.585   3.417   4.924
12856TIP3    H138513   1.616   3.403   4.834
12856TIP3    H238514   1.665   3.435   4.974
12857TIP3   OH238515   1.627   4.627   2.691
12857TIP3    H138516   1.584   4.543   2.676
12857TIP3    H238517   1.575   4.690   2.640
12858TIP3   OH238518   1.868   7.181   6.345
12858TIP3    H138519   1.928   7.148   6.279
12858TIP3    H238520   1.922   7.198   6.422
12859TIP3   OH238521   8.182   0.759   5.648
12859TIP3    H138522   8.105   0.711   5.617
12859TIP3    H238523   8.215   0.707   5.721
12860TIP3   OH238524   1.406   0.712   0.272
12860TIP3    H138525   1.492   0.710   0.314
12860TIP3    H238526   1.421   0.677   0.184
12861TIP3   OH238527   5.719   3.227   6.452
12861TIP3    H138528   5.786   3.279   6.407
12861TIP3    H238529   5.698   3.156   6.392
12862TIP3   OH238530   8.293   7.332   2.268
12862TIP3    H138531   8.213   7.379   2.246
12862TIP3    H238532   8.288   7.252   2.215
12863TIP3   OH238533   0.156   3.632   4.250
12863TIP3    H138534   0.138   3.549   4.207
12863TIP3    H238535   0.118   3.622   4.337
12864TIP3   OH238536   7.396   6.615   4.117
12864TIP3    H138537   7.395   6.709   4.134
12864TIP3    H238538   7.365   6.606   4.027
12865TIP3   OH238539   5.477   1.655   3.769
12865TIP3    H138540   5.506   1.613   3.850
12865TIP3    H238541   5.557   1.660   3.715
12866TIP3   OH238542   4.249   4.317   3.092
12866TIP3    H138543   4.177   4.258   3.075
12866TIP3    H238544   4.307   4.308   3.016
12867TIP3   OH238545   5.160   3.000   3.139
12867TIP3    H138546   5.236   3.056   3.128
12867TIP3    H238547   5.185   2.937   3.207
12868TIP3   OH238548   0.343   2.872   3.783
12868TIP3    H138549   0.296   2.951   3.754
12868TIP3    H238550   0.376   2.894   3.870
12869TIP3   OH238551   2.027   0.857   5.411
12869TIP3    H138552   2.051   0.855   5.504
12869TIP3    H238553   2.010   0.949   5.392
12870TIP3   OH238554   0.506   4.559   6.537
12870TIP3    H138555   0.523   4.505   6.460
12870TIP3    H238556   0.417   4.535   6.564
12871TIP3   OH238557   0.278   1.516   2.592
12871TIP3    H138558   0.337   1.494   2.664
12871TIP3    H238559   0.212   1.447   2.594
12872TIP3   OH238560   6.463   3.919   5.451
12872TIP3    H138561   6.544   3.967   5.432
12872TIP3    H238562   6.396   3.962   5.399
12873TIP3   OH238563   6.889   4.539   5.023
12873TIP3    H138564   6.821   4.514   4.960
12873TIP3    H238565   6.871   4.486   5.101
12874TIP3   OH238566   5.886   6.765   1.560
12874TIP3    H138567   5.831   6.831   1.602
12874TIP3    H238568   5.849   6.681   1.588
12875TIP3   OH238569   5.062   3.219   2.596
12875TIP3    H138570   5.067   3.233   2.691
12875TIP3    H238571   5.135   3.161   2.576
12876TIP3   OH238572   5.616   7.652   6.030
12876TIP3    H138573   5.642   7.659   5.938
12876TIP3    H238574   5.668   7.579   6.064
12877TIP3   OH238575   3.918   0.894   0.530
12877TIP3    H138576   3.843   0.874   0.473
12877TIP3    H238577   3.961   0.968   0.488
12878TIP3   OH238578   0.488   7.176   1.913
12878TIP3    H138579   0.539   7.203   1.837
12878TIP3    H238580   0.400   7.160   1.879
12879TIP3   OH238581   1.265   6.695   0.527
12879TIP3    H138582   1.346   6.663   0.568
12879TIP3    H238583   1.206   6.620   0.529
12880TIP3   OH238584   6.341   4.731   5.191
12880TIP3    H138585   6.302   4.774   5.115
12880TIP3    H238586   6.315   4.640   5.184
12881TIP3   OH238587   2.793   5.884   3.184
12881TIP3    H138588   2.765   5.930   3.263
12881TIP3    H238589   2.833   5.952   3.130
12882TIP3   OH238590   7.410   4.788   1.977
12882TIP3    H138591   7.502   4.805   2.000
12882TIP3    H238592   7.401   4.693   1.984
12883TIP3   OH238593   4.929   7.601   6.230
12883TIP3    H138594   4.875   7.657   6.285
12883TIP3    H238595   5.000   7.573   6.287
12884TIP3   OH238596   7.607   0.406   1.992
12884TIP3    H138597   7.655   0.325   2.008
12884TIP3    H238598   7.526   0.378   1.950
12885TIP3   OH238599   6.637   6.640   4.752
12885TIP3    H138600   6.561   6.684   4.713
12885TIP3    H238601   6.620   6.643   4.846
12886TIP3   OH238602   3.805   6.582   3.407
12886TIP3    H138603   3.719   6.612   3.377
12886TIP3    H238604   3.855   6.662   3.419
12887TIP3   OH238605   4.311   4.883   1.524
12887TIP3    H138606   4.256   4.957   1.495
12887TIP3    H238607   4.385   4.884   1.464
12888TIP3   OH238608   4.748   0.209   4.677
12888TIP3    H138609   4.664   0.226   4.720
12888TIP3    H238610   4.747   0.266   4.600
12889TIP3   OH238611   3.436   5.561   3.945
12889TIP3    H138612   3.475   5.618   3.878
12889TIP3    H238613   3.511   5.520   3.987
12890TIP3   OH238614   7.840   0.411   3.587
12890TIP3    H138615   7.886   0.350   3.529
12890TIP3    H238616   7.867   0.498   3.555
12891TIP3   OH238617   6.240   7.505   0.727
12891TIP3    H138618   6.157   7.543   0.757
12891TIP3    H238619   6.274   7.458   0.803
12892TIP3   OH238620   4.896   6.145   6.434
12892TIP3    H138621   4.858   6.212   6.491
12892TIP3    H238622   4.833   6.133   6.364
12893TIP3   OH238623   1.073   0.130   0.380
12893TIP3    H138624   1.034   0.053   0.340
12893TIP3    H238625   1.030   0.204   0.337
12894TIP3   OH238626   6.039   5.239   1.415
12894TIP3    H138627   5.943   5.239   1.422
12894TIP3    H238628   6.063   5.331   1.425
12895TIP3   OH238629   1.040   4.398   6.471
12895TIP3    H138630   1.124   4.354   6.483
12895TIP3    H238631   1.000   4.353   6.397
12896TIP3   OH238632   1.493   2.234   4.346
12896TIP3    H138633   1.572   2.288   4.343
12896TIP3    H238634   1.421   2.296   4.349
12897TIP3   OH238635   6.257   0.727   4.922
12897TIP3    H138636   6.273   0.758   4.833
12897TIP3    H238637   6.206   0.797   4.964
12898TIP3   OH238638   4.186   6.258   1.764
12898TIP3    H138639   4.091   6.255   1.755
12898TIP3    H238640   4.202   6.325   1.832
12899TIP3   OH238641   7.476   5.052   6.713
12899TIP3    H138642   7.463   5.004   6.631
12899TIP3    H238643   7.522   4.990   6.770
12900TIP3   OH238644   3.155   4.361   4.082
12900TIP3    H138645   3.096   4.306   4.030
12900TIP3    H238646   3.236   4.310   4.088
12901TIP3   OH238647   0.696   6.718   3.479
12901TIP3    H138648   0.623   6.674   3.522
12901TIP3    H238649   0.773   6.695   3.532
12902TIP3   OH238650   7.604   2.431   4.535
12902TIP3    H138651   7.691   2.393   4.523
12902TIP3    H238652   7.548   2.355   4.553
12903TIP3   OH238653   4.171   5.942   3.141
12903TIP3    H138654   4.209   5.992   3.214
12903TIP3    H238655   4.098   5.894   3.180
12904TIP3   OH238656   7.002   1.141   6.457
12904TIP3    H138657   7.044   1.190   6.528
12904TIP3    H238658   6.992   1.204   6.386
12905TIP3   OH238659   2.027   5.728   3.354
12905TIP3    H138660   2.076   5.802   3.318
12905TIP3    H238661   2.094   5.672   3.393
12906TIP3   OH238662   7.643   4.059   4.069
12906TIP3    H138663   7.635   4.138   4.015
12906TIP3    H238664   7.710   4.081   4.134
12907TIP3   OH238665   4.209   6.798   3.356
12907TIP3    H138666   4.247   6.761   3.435
12907TIP3    H238667   4.251   6.883   3.346
12908TIP3   OH238668   5.832   2.708   4.685
12908TIP3    H138669   5.807   2.795   4.655
12908TIP3    H238670   5.913   2.688   4.636
12909TIP3   OH238671   3.257   2.696   3.248
12909TIP3    H138672   3.258   2.664   3.158
12909TIP3    H238673   3.299   2.626   3.299
12910TIP3   OH238674   2.903   0.645   4.880
12910TIP3    H138675   2.905   0.649   4.784
12910TIP3    H238676   2.961   0.573   4.902
12911TIP3   OH238677   6.334   4.984   1.060
12911TIP3    H138678   6.403   5.050   1.051
12911TIP3    H238679   6.374   4.904   1.027
12912TIP3   OH238680   6.593   5.104   0.110
12912TIP3    H138681   6.546   5.021   0.108
12912TIP3    H238682   6.592   5.130   0.202
12913TIP3   OH238683   7.437   1.519   0.743
12913TIP3    H138684   7.510   1.579   0.760
12913TIP3    H238685   7.422   1.475   0.826
12914TIP3   OH238686   1.360   1.660   4.835
12914TIP3    H138687   1.358   1.625   4.924
12914TIP3    H238688   1.438   1.621   4.796
12915TIP3   OH238689   0.250   1.419   0.573
12915TIP3    H138690   0.168   1.457   0.542
12915TIP3    H238691   0.312   1.492   0.573
12916TIP3   OH238692   7.923   2.466   3.781
12916TIP3    H138693   7.847   2.409   3.763
12916TIP3    H238694   7.999   2.409   3.768
12917TIP3   OH238695   1.602   0.571   3.926
12917TIP3    H138696   1.589   0.498   3.865
12917TIP3    H238697   1.570   0.539   4.010
12918TIP3   OH238698   2.396   4.301   5.603
12918TIP3    H138699   2.313   4.316   5.558
12918TIP3    H238700   2.397   4.366   5.673
12919TIP3   OH238701   6.663   5.744   2.530
12919TIP3    H138702   6.689   5.654   2.511
12919TIP3    H238703   6.573   5.737   2.559
12920TIP3   OH238704   7.884   5.592   4.987
12920TIP3    H138705   7.970   5.632   4.988
12920TIP3    H238706   7.832   5.650   4.931
12921TIP3   OH238707   7.537   3.336   4.253
12921TIP3    H138708   7.621   3.352   4.211
12921TIP3    H238709   7.472   3.359   4.186
12922TIP3   OH238710   7.942   6.152   5.229
12922TIP3    H138711   7.938   6.207   5.307
12922TIP3    H238712   7.886   6.196   5.165
12923TIP3   OH238713   5.479   5.963   3.661
12923TIP3    H138714   5.481   6.059   3.672
12923TIP3    H238715   5.463   5.950   3.567
12924TIP3   OH238716   7.018   3.714   1.524
12924TIP3    H138717   7.047   3.800   1.555
12924TIP3    H238718   6.923   3.719   1.525
12925TIP3   OH238719   7.596   6.818   1.022
12925TIP3    H138720   7.662   6.881   0.992
12925TIP3    H238721   7.618   6.737   0.976
12926TIP3   OH238722   6.041   3.488   0.302
12926TIP3    H138723   5.994   3.571   0.302
12926TIP3    H238724   6.027   3.452   0.390
12927TIP3   OH238725   2.117   4.905   6.057
12927TIP3    H138726   2.039   4.851   6.067
12927TIP3    H238727   2.097   4.965   5.985
12928TIP3   OH238728   4.913   7.393   6.627
12928TIP3    H138729   4.893   7.365   6.537
12928TIP3    H238730   4.857   7.338   6.682
12929TIP3   OH238731   5.642   1.347   5.542
12929TIP3    H138732   5.716   1.301   5.580
12929TIP3    H238733   5.566   1.292   5.562
12930TIP3   OH238734   5.555   4.575   5.399
12930TIP3    H138735   5.474   4.587   5.349
12930TIP3    H238736   5.583   4.663   5.422
12931TIP3   OH238737   6.505   1.231   0.649
12931TIP3    H138738   6.448   1.259   0.577
12931TIP3    H238739   6.511   1.307   0.707
12932TIP3   OH238740   4.495   2.413   2.779
12932TIP3    H138741   4.562   2.355   2.744
12932TIP3    H238742   4.414   2.384   2.737
12933TIP3   OH238743   1.727   3.621   2.729
12933TIP3    H138744   1.709   3.634   2.636
12933TIP3    H238745   1.784   3.694   2.753
12934TIP3   OH238746   3.320   3.720   5.506
12934TIP3    H138747   3.312   3.649   5.569
12934TIP3    H238748   3.230   3.735   5.476
12935TIP3   OH238749   4.118   0.379   2.407
12935TIP3    H138750   4.059   0.453   2.391
12935TIP3    H238751   4.059   0.307   2.430
12936TIP3   OH238752   3.448   1.518   2.720
12936TIP3    H138753   3.355   1.518   2.743
12936TIP3    H238754   3.484   1.596   2.763
12937TIP3   OH238755   0.248   1.162   2.310
12937TIP3    H138756   0.296   1.141   2.390
12937TIP3    H238757   0.160   1.185   2.341
12938TIP3   OH238758   1.088   0.783   5.732
12938TIP3    H138759   1.087   0.691   5.759
12938TIP3    H238760   1.177   0.812   5.750
12939TIP3   OH238761   6.780   4.671   4.364
12939TIP3    H138762   6.866   4.651   4.326
12939TIP3    H238763   6.772   4.610   4.437
12940TIP3   OH238764   5.072   1.408   2.384
12940TIP3    H138765   5.144   1.461   2.417
12940TIP3    H238766   5.015   1.396   2.460
12941TIP3   OH238767   5.073   5.030   4.603
12941TIP3    H138768   5.092   5.056   4.693
12941TIP3    H238769   4.986   5.066   4.585
12942TIP3   OH238770   3.681   4.291   0.224
12942TIP3    H138771   3.601   4.239   0.236
12942TIP3    H238772   3.661   4.374   0.267
12943TIP3   OH238773   7.659   1.499   1.160
12943TIP3    H138774   7.717   1.549   1.216
12943TIP3    H238775   7.680   1.408   1.178
12944TIP3   OH238776   4.096   1.584   4.761
12944TIP3    H138777   4.089   1.489   4.757
12944TIP3    H238778   4.033   1.610   4.829
12945TIP3   OH238779   0.761   2.117  -0.016
12945TIP3    H138780   0.774   2.153   0.071
12945TIP3    H238781   0.711   2.037  -0.003
12946TIP3   OH238782   4.554   1.572   6.146
12946TIP3    H138783   4.551   1.479   6.165
12946TIP3    H238784   4.625   1.606   6.202
12947TIP3   OH238785   4.783   7.816   4.769
12947TIP3    H138786   4.845   7.759   4.814
12947TIP3    H238787   4.835   7.889   4.736
12948TIP3   OH238788   6.927   2.276   6.017
12948TIP3    H138789   6.987   2.211   6.055
12948TIP3    H238790   6.950   2.277   5.924
12949TIP3   OH238791   5.169   2.435   3.897
12949TIP3    H138792   5.100   2.498   3.878
12949TIP3    H238793   5.127   2.371   3.955
12950TIP3   OH238794   8.155   0.108   1.081
12950TIP3    H138795   8.115   0.132   0.997
12950TIP3    H238796   8.238   0.065   1.057
12951TIP3   OH238797   2.683   7.310   2.591
12951TIP3    H138798   2.602   7.351   2.619
12951TIP3    H238799   2.743   7.322   2.665
12952TIP3   OH238800   7.463   7.351   1.514
12952TIP3    H138801   7.444   7.437   1.475
12952TIP3    H238802   7.477   7.369   1.607
12953TIP3   OH238803   3.124   4.428   4.501
12953TIP3    H138804   3.195   4.439   4.438
12953TIP3    H238805   3.045   4.424   4.447
12954TIP3   OH238806   4.257   7.063   3.935
12954TIP3    H138807   4.218   7.017   4.009
12954TIP3    H238808   4.183   7.085   3.878
12955TIP3   OH238809   4.084   2.511   1.052
12955TIP3    H138810   4.141   2.494   1.128
12955TIP3    H238811   4.076   2.606   1.049
12956TIP3   OH238812   1.102   7.224   5.847
12956TIP3    H138813   1.186   7.246   5.809
12956TIP3    H238814   1.107   7.129   5.864
12957TIP3   OH238815   1.359   3.611   0.862
12957TIP3    H138816   1.280   3.613   0.808
12957TIP3    H238817   1.337   3.550   0.934
12958TIP3   OH238818   2.452   0.183   1.550
12958TIP3    H138819   2.395   0.225   1.615
12958TIP3    H238820   2.444   0.238   1.472
12959TIP3   OH238821   6.889   7.555   2.966
12959TIP3    H138822   6.882   7.651   2.968
12959TIP3    H238823   6.832   7.529   2.894
12960TIP3   OH238824   1.876   5.691   0.749
12960TIP3    H138825   1.947   5.754   0.744
12960TIP3    H238826   1.919   5.608   0.771
12961TIP3   OH238827   3.295   6.044   2.735
12961TIP3    H138828   3.383   6.017   2.712
12961TIP3    H238829   3.267   6.099   2.662
12962TIP3   OH238830   6.724   6.637   4.355
12962TIP3    H138831   6.804   6.686   4.373
12962TIP3    H238832   6.709   6.586   4.434
12963TIP3   OH238833   5.943   6.745   3.033
12963TIP3    H138834   5.883   6.752   2.959
12963TIP3    H238835   5.890   6.769   3.110
12964TIP3   OH238836   1.670   2.990   2.732
12964TIP3    H138837   1.624   2.992   2.816
12964TIP3    H238838   1.675   3.082   2.705
12965TIP3   OH238839   5.483   1.384   0.214
12965TIP3    H138840   5.409   1.419   0.262
12965TIP3    H238841   5.473   1.289   0.220
12966TIP3   OH238842   1.864   0.071   2.868
12966TIP3    H138843   1.938   0.129   2.848
12966TIP3    H238844   1.847   0.085   2.961
12967TIP3   OH238845   0.988   5.266   4.304
12967TIP3    H138846   1.013   5.326   4.374
12967TIP3    H238847   0.920   5.314   4.256
12968TIP3   OH238848   4.161   4.277   5.973
12968TIP3    H138849   4.175   4.198   6.025
12968TIP3    H238850   4.130   4.342   6.036
12969TIP3   OH238851   0.461   1.570   3.723
12969TIP3    H138852   0.476   1.605   3.811
12969TIP3    H238853   0.437   1.646   3.670
12970TIP3   OH238854   7.762   0.416   4.076
12970TIP3    H138855   7.734   0.396   3.986
12970TIP3    H238856   7.727   0.504   4.092
12971TIP3   OH238857   3.952   6.237   0.349
12971TIP3    H138858   3.876   6.247   0.407
12971TIP3    H238859   4.024   6.280   0.396
12972TIP3   OH238860   0.687   0.496   0.136
12972TIP3    H138861   0.685   0.496   0.041
12972TIP3    H238862   0.610   0.446   0.162
12973TIP3   OH238863   1.988   2.253   0.115
12973TIP3    H138864   1.896   2.248   0.089
12973TIP3    H238865   2.037   2.224   0.038
12974TIP3   OH238866   6.644   2.302   5.543
12974TIP3    H138867   6.670   2.267   5.628
12974TIP3    H238868   6.682   2.240   5.479
12975TIP3   OH238869   4.374   4.202   1.477
12975TIP3    H138870   4.357   4.113   1.509
12975TIP3    H238871   4.346   4.259   1.549
12976TIP3   OH238872   1.755   5.993   4.793
12976TIP3    H138873   1.829   5.982   4.733
12976TIP3    H238874   1.776   5.937   4.867
12977TIP3   OH238875   5.356   0.285   2.895
12977TIP3    H138876   5.267   0.261   2.919
12977TIP3    H238877   5.347   0.368   2.849
12978TIP3   OH238878   1.357   2.870   1.145
12978TIP3    H138879   1.401   2.819   1.213
12978TIP3    H238880   1.266   2.844   1.150
12979TIP3   OH238881   0.103   5.419   6.313
12979TIP3    H138882   0.042   5.459   6.375
12979TIP3    H238883   0.174   5.483   6.305
12980TIP3   OH238884   4.775   0.518   6.130
12980TIP3    H138885   4.813   0.565   6.204
12980TIP3    H238886   4.694   0.565   6.112
12981TIP3   OH238887   1.962   4.574   6.560
12981TIP3    H138888   2.043   4.561   6.609
12981TIP3    H238889   1.892   4.553   6.623
12982TIP3   OH238890   6.355   2.369   2.141
12982TIP3    H138891   6.337   2.462   2.152
12982TIP3    H238892   6.353   2.355   2.047
12983TIP3   OH238893   5.422   0.438   3.145
12983TIP3    H138894   5.424   0.445   3.049
12983TIP3    H238895   5.380   0.354   3.162
12984TIP3   OH238896   4.811   5.716   1.738
12984TIP3    H138897   4.776   5.632   1.711
12984TIP3    H238898   4.738   5.777   1.730
12985TIP3   OH238899   5.122   3.255   0.340
12985TIP3    H138900   5.089   3.343   0.352
12985TIP3    H238901   5.212   3.267   0.309
12986TIP3   OH238902   4.391   1.014   3.994
12986TIP3    H138903   4.424   1.048   4.078
12986TIP3    H238904   4.470   0.988   3.947
12987TIP3   OH238905   7.959   2.845   4.957
12987TIP3    H138906   7.911   2.923   4.931
12987TIP3    H238907   7.964   2.849   5.052
12988TIP3   OH238908   0.156   2.371   3.614
12988TIP3    H138909   0.182   2.379   3.522
12988TIP3    H238910   0.060   2.371   3.612
12989TIP3   OH238911   7.263   3.539   0.495
12989TIP3    H138912   7.325   3.608   0.517
12989TIP3    H238913   7.315   3.459   0.492
12990TIP3   OH238914   2.805   4.901   5.249
12990TIP3    H138915   2.753   4.830   5.211
12990TIP3    H238916   2.804   4.884   5.343
12991TIP3   OH238917   6.253   1.587   1.292
12991TIP3    H138918   6.345   1.588   1.318
12991TIP3    H238919   6.229   1.679   1.285
12992TIP3   OH238920   7.944   1.970   2.015
12992TIP3    H138921   7.913   2.001   1.930
12992TIP3    H238922   8.014   2.030   2.039
12993TIP3   OH238923   2.129   1.389   6.071
12993TIP3    H138924   2.128   1.467   6.126
12993TIP3    H238925   2.167   1.418   5.988
12994TIP3   OH238926   6.004   7.705   4.291
12994TIP3    H138927   6.043   7.792   4.284
12994TIP3    H238928   6.078   7.646   4.305
12995TIP3   OH238929   1.320   4.464   3.486
12995TIP3    H138930   1.382   4.393   3.471
12995TIP3    H238931   1.234   4.423   3.475
12996TIP3   OH238932   0.464   1.040   3.566
12996TIP3    H138933   0.543   1.043   3.511
12996TIP3    H238934   0.455   1.130   3.598
12997TIP3   OH238935   5.245   5.926   4.568
12997TIP3    H138936   5.248   5.836   4.597
12997TIP3    H238937   5.211   5.921   4.478
12998TIP3   OH238938   1.209   6.020   5.893
12998TIP3    H138939   1.300   5.992   5.906
12998TIP3    H238940   1.166   5.944   5.854
12999TIP3   OH238941   5.744   3.161   3.412
12999TIP3    H138942   5.731   3.099   3.483
12999TIP3    H238943   5.837   3.154   3.391
13000TIP3   OH238944   6.679   4.329   3.493
13000TIP3    H138945   6.701   4.377   3.573
13000TIP3    H238946   6.695   4.390   3.422
13001TIP3   OH238947   7.539   4.972   0.126
13001TIP3    H138948   7.587   4.902   0.081
13001TIP3    H238949   7.545   5.046   0.065
13002TIP3   OH238950   2.399   5.585   6.107
13002TIP3    H138951   2.429   5.500   6.076
13002TIP3    H238952   2.447   5.599   6.189
13003TIP3   OH238953   6.591   3.072   4.255
13003TIP3    H138954   6.592   3.031   4.168
13003TIP3    H238955   6.556   3.159   4.240
13004TIP3   OH238956   5.567   5.085   6.027
13004TIP3    H138957   5.640   5.147   6.033
13004TIP3    H238958   5.542   5.069   6.118
13005TIP3   OH238959   0.354   4.301   5.454
13005TIP3    H138960   0.393   4.238   5.394
13005TIP3    H238961   0.260   4.290   5.442
13006TIP3   OH238962   0.910   2.113   6.682
13006TIP3    H138963   0.826   2.112   6.637
13006TIP3    H238964   0.908   2.192   6.736
13007TIP3   OH238965   2.555   0.661   1.262
13007TIP3    H138966   2.505   0.734   1.299
13007TIP3    H238967   2.627   0.647   1.323
13008TIP3   OH238968   6.216   7.668   4.004
13008TIP3    H138969   6.283   7.610   3.968
13008TIP3    H238970   6.190   7.627   4.086
13009TIP3   OH238971   0.612   0.170   3.197
13009TIP3    H138972   0.585   0.262   3.201
13009TIP3    H238973   0.587   0.142   3.109
13010TIP3   OH238974   0.149   5.191   0.071
13010TIP3    H138975   0.163   5.268   0.127
13010TIP3    H238976   0.208   5.125   0.106
13011TIP3   OH238977   5.692   7.535   3.901
13011TIP3    H138978   5.768   7.567   3.948
13011TIP3    H238979   5.628   7.514   3.969
13012TIP3   OH238980   7.121   0.340   2.769
13012TIP3    H138981   7.185   0.376   2.830
13012TIP3    H238982   7.150   0.372   2.683
13013TIP3   OH238983   4.959   5.046   5.966
13013TIP3    H138984   4.893   5.078   6.027
13013TIP3    H238985   5.039   5.094   5.990
13014TIP3   OH238986   7.098   4.450   1.545
13014TIP3    H138987   7.173   4.460   1.486
13014TIP3    H238988   7.128   4.389   1.612
13015TIP3   OH238989   7.562   3.688   3.511
13015TIP3    H138990   7.621   3.613   3.515
13015TIP3    H238991   7.524   3.693   3.599
13016TIP3   OH238992   3.281   5.697   0.851
13016TIP3    H138993   3.304   5.608   0.823
13016TIP3    H238994   3.361   5.731   0.891
13017TIP3   OH238995   6.215   6.204   5.363
13017TIP3    H138996   6.221   6.274   5.428
13017TIP3    H238997   6.163   6.242   5.292
13018TIP3   OH238998   1.206   7.816   3.605
13018TIP3    H138999   1.216   7.825   3.699
13018TIP3    H239000   1.289   7.847   3.568
13019TIP3   OH239001   4.393   0.495   2.463
13019TIP3    H139002   4.454   0.425   2.439
13019TIP3    H239003   4.315   0.450   2.494
13020TIP3   OH239004   7.844   3.490   6.687
13020TIP3    H139005   7.858   3.544   6.610
13020TIP3    H239006   7.749   3.478   6.692
13021TIP3   OH239007   2.570   5.906   2.609
13021TIP3    H139008   2.605   5.982   2.564
13021TIP3    H239009   2.482   5.896   2.575
13022TIP3   OH239010   1.990   5.698   5.883
13022TIP3    H139011   2.000   5.729   5.973
13022TIP3    H239012   1.904   5.730   5.856
13023TIP3   OH239013   4.335   4.218   5.453
13023TIP3    H139014   4.428   4.229   5.435
13023TIP3    H239015   4.310   4.297   5.501
13024TIP3   OH239016   5.602   4.319   5.227
13024TIP3    H139017   5.561   4.232   5.222
13024TIP3    H239018   5.532   4.375   5.262
13025TIP3   OH239019   5.178   2.648   0.778
13025TIP3    H139020   5.117   2.575   0.763
13025TIP3    H239021   5.157   2.710   0.708
13026TIP3   OH239022   1.583   4.759   3.536
13026TIP3    H139023   1.491   4.780   3.521
13026TIP3    H239024   1.580   4.685   3.597
13027TIP3   OH239025   5.693   3.477   1.331
13027TIP3    H139026   5.646   3.401   1.364
13027TIP3    H239027   5.755   3.499   1.400
13028TIP3   OH239028   0.979   4.229   1.841
13028TIP3    H139029   0.977   4.237   1.746
13028TIP3    H239030   0.888   4.225   1.868
13029TIP3   OH239031   5.808   5.500   3.475
13029TIP3    H139032   5.751   5.512   3.551
13029TIP3    H239033   5.893   5.477   3.513
13030TIP3   OH239034   6.722   3.258   2.119
13030TIP3    H139035   6.690   3.294   2.201
13030TIP3    H239036   6.815   3.241   2.134
13031TIP3   OH239037   4.941   6.672   3.358
13031TIP3    H139038   5.025   6.632   3.378
13031TIP3    H239039   4.935   6.747   3.417
13032TIP3   OH239040   2.099   0.245   6.647
13032TIP3    H139041   2.082   0.241   6.741
13032TIP3    H239042   2.040   0.180   6.609
13033TIP3   OH239043   2.362   1.713   4.113
13033TIP3    H139044   2.286   1.711   4.170
13033TIP3    H239045   2.334   1.764   4.037
13034TIP3   OH239046   6.816   1.948   6.104
13034TIP3    H139047   6.888   1.973   6.162
13034TIP3    H239048   6.854   1.950   6.016
13035TIP3   OH239049   2.922   6.900   5.519
13035TIP3    H139050   2.842   6.937   5.557
13035TIP3    H239051   2.899   6.881   5.428
13036TIP3   OH239052   3.758   6.312   4.152
13036TIP3    H139053   3.762   6.262   4.233
13036TIP3    H239054   3.778   6.248   4.083
13037TIP3   OH239055   0.242   7.859   5.759
13037TIP3    H139056   0.279   7.852   5.848
13037TIP3    H239057   0.153   7.825   5.767
13038TIP3   OH239058   6.242   0.116   0.583
13038TIP3    H139059   6.235   0.080   0.494
13038TIP3    H239060   6.260   0.040   0.638
13039TIP3   OH239061   5.374   0.310   2.550
13039TIP3    H139062   5.302   0.248   2.542
13039TIP3    H239063   5.450   0.256   2.574
13040TIP3   OH239064   4.570   3.316   3.124
13040TIP3    H139065   4.612   3.373   3.060
13040TIP3    H239066   4.501   3.370   3.162
13041TIP3   OH239067   4.828   2.587   4.117
13041TIP3    H139068   4.756   2.600   4.178
13041TIP3    H239069   4.804   2.638   4.039
13042TIP3   OH239070   6.848   5.212   0.329
13042TIP3    H139071   6.854   5.196   0.235
13042TIP3    H239072   6.790   5.142   0.361
13043TIP3   OH239073   8.260   3.843   4.941
13043TIP3    H139074   8.205   3.906   4.894
13043TIP3    H239075   8.223   3.758   4.920
13044TIP3   OH239076   5.438   3.986   0.510
13044TIP3    H139077   5.414   3.971   0.601
13044TIP3    H239078   5.411   3.907   0.464
13045TIP3   OH239079   7.186   1.401   0.981
13045TIP3    H139080   7.147   1.342   0.916
13045TIP3    H239081   7.280   1.391   0.968
13046TIP3   OH239082   0.384   4.264   3.057
13046TIP3    H139083   0.332   4.342   3.079
13046TIP3    H239084   0.351   4.236   2.972
13047TIP3   OH239085   2.019   3.736   2.234
13047TIP3    H139086   2.078   3.732   2.159
13047TIP3    H239087   1.991   3.827   2.239
13048TIP3   OH239088   0.063   4.713   6.526
13048TIP3    H139089   0.108   4.704   6.611
13048TIP3    H239090   0.125   4.677   6.463
13049TIP3   OH239091   2.583   3.356   0.700
13049TIP3    H139092   2.538   3.423   0.752
13049TIP3    H239093   2.657   3.330   0.754
13050TIP3   OH239094   4.179   7.587   4.114
13050TIP3    H139095   4.251   7.639   4.078
13050TIP3    H239096   4.220   7.530   4.179
13051TIP3   OH239097   6.014   3.456   2.578
13051TIP3    H139098   6.094   3.450   2.630
13051TIP3    H239099   6.044   3.473   2.489
13052TIP3   OH239100   2.217   1.421   3.529
13052TIP3    H139101   2.168   1.367   3.592
13052TIP3    H239102   2.149   1.469   3.481
13053TIP3   OH239103   4.444   4.069   3.948
13053TIP3    H139104   4.522   4.090   4.000
13053TIP3    H239105   4.469   3.994   3.895
13054TIP3   OH239106   6.132   2.691   0.786
13054TIP3    H139107   6.119   2.769   0.733
13054TIP3    H239108   6.217   2.656   0.758
13055TIP3   OH239109   0.359   1.094   1.257
13055TIP3    H139110   0.330   1.126   1.172
13055TIP3    H239111   0.407   1.014   1.238
13056TIP3   OH239112   6.516   3.978   1.232
13056TIP3    H139113   6.470   3.935   1.160
13056TIP3    H239114   6.548   4.060   1.194
13057TIP3   OH239115   1.291   0.823   2.570
13057TIP3    H139116   1.355   0.752   2.567
13057TIP3    H239117   1.207   0.781   2.553
13058TIP3   OH239118   2.028   3.586   2.713
13058TIP3    H139119   2.074   3.631   2.642
13058TIP3    H239120   1.980   3.656   2.758
13059TIP3   OH239121   1.234   4.086   0.254
13059TIP3    H139122   1.232   4.073   0.160
13059TIP3    H239123   1.167   4.154   0.270
13060TIP3   OH239124   0.809   6.474   0.754
13060TIP3    H139125   0.722   6.510   0.736
13060TIP3    H239126   0.866   6.551   0.758
13061TIP3   OH239127   2.953   2.030   3.333
13061TIP3    H139128   2.925   1.996   3.248
13061TIP3    H239129   3.048   2.014   3.335
13062TIP3   OH239130   7.664   4.446   1.460
13062TIP3    H139131   7.606   4.507   1.413
13062TIP3    H239132   7.739   4.500   1.486
13063TIP3   OH239133   6.393   5.493   2.750
13063TIP3    H139134   6.317   5.508   2.806
13063TIP3    H239135   6.468   5.510   2.807
13064TIP3   OH239136   0.443   1.923   6.228
13064TIP3    H139137   0.428   2.012   6.196
13064TIP3    H239138   0.536   1.907   6.212
13065TIP3   OH239139   0.246   4.748   1.200
13065TIP3    H139140   0.151   4.743   1.200
13065TIP3    H239141   0.268   4.798   1.280
13066TIP3   OH239142   3.112   5.228   5.924
13066TIP3    H139143   3.046   5.295   5.906
13066TIP3    H239144   3.066   5.164   5.978
13067TIP3   OH239145   5.362   5.272   5.313
13067TIP3    H139146   5.444   5.225   5.327
13067TIP3    H239147   5.383   5.336   5.244
13068TIP3   OH239148   5.419   0.377   0.175
13068TIP3    H139149   5.419   0.347   0.266
13068TIP3    H239150   5.479   0.452   0.174
13069TIP3   OH239151   2.478   0.838   0.373
13069TIP3    H139152   2.398   0.825   0.423
13069TIP3    H239153   2.481   0.764   0.312
13070TIP3   OH239154   0.495   5.636   3.130
13070TIP3    H139155   0.491   5.708   3.193
13070TIP3    H239156   0.539   5.565   3.177
13071TIP3   OH239157   6.858   1.646   5.004
13071TIP3    H139158   6.895   1.726   5.040
13071TIP3    H239159   6.926   1.580   5.015
13072TIP3   OH239160   2.785   3.963   2.437
13072TIP3    H139161   2.718   3.939   2.373
13072TIP3    H239162   2.857   3.998   2.384
13073TIP3   OH239163   2.136   5.176   0.149
13073TIP3    H139164   2.227   5.157   0.126
13073TIP3    H239165   2.128   5.271   0.139
13074TIP3   OH239166   4.190   6.661   0.625
13074TIP3    H139167   4.261   6.668   0.561
13074TIP3    H239168   4.117   6.708   0.584
13075TIP3   OH239169   2.947   0.331   5.706
13075TIP3    H139170   3.030   0.289   5.731
13075TIP3    H239171   2.939   0.314   5.612
13076TIP3   OH239172   7.478   5.610   2.870
13076TIP3    H139173   7.417   5.600   2.797
13076TIP3    H239174   7.496   5.704   2.873
13077TIP3   OH239175   2.435   3.294   3.043
13077TIP3    H139176   2.485   3.214   3.027
13077TIP3    H239177   2.488   3.364   3.006
13078TIP3   OH239178   0.456   0.709   1.029
13078TIP3    H139179   0.425   0.618   1.026
13078TIP3    H239180   0.477   0.730   0.938
13079TIP3   OH239181   7.037   0.054   6.081
13079TIP3    H139182   7.018   0.062   5.988
13079TIP3    H239183   6.975   0.114   6.123
13080TIP3   OH239184   6.629   5.298   1.240
13080TIP3    H139185   6.704   5.302   1.301
13080TIP3    H239186   6.566   5.360   1.276
13081TIP3   OH239187   6.112   0.822   0.540
13081TIP3    H139188   6.169   0.746   0.553
13081TIP3    H239189   6.151   0.892   0.592
13082TIP3   OH239190   5.446   5.490   4.741
13082TIP3    H139191   5.369   5.524   4.787
13082TIP3    H239192   5.489   5.433   4.804
13083TIP3   OH239193   5.528   3.586   3.286
13083TIP3    H139194   5.551   3.678   3.272
13083TIP3    H239195   5.508   3.580   3.379
13084TIP3   OH239196   1.024   7.100   1.601
13084TIP3    H139197   1.070   7.183   1.587
13084TIP3    H239198   1.067   7.039   1.540
13085TIP3   OH239199   0.410   1.838   1.533
13085TIP3    H139200   0.336   1.804   1.585
13085TIP3    H239201   0.373   1.914   1.487
13086TIP3   OH239202   4.007   7.801   4.748
13086TIP3    H139203   4.035   7.727   4.694
13086TIP3    H239204   3.925   7.830   4.708
13087TIP3   OH239205   2.042   6.430   1.167
13087TIP3    H139206   2.016   6.473   1.248
13087TIP3    H239207   2.028   6.337   1.182
13088TIP3   OH239208   3.240   1.312   1.282
13088TIP3    H139209   3.271   1.231   1.323
13088TIP3    H239210   3.312   1.340   1.226
13089TIP3   OH239211   2.648   6.740   5.303
13089TIP3    H139212   2.636   6.710   5.212
13089TIP3    H239213   2.718   6.684   5.337
13090TIP3   OH239214   2.725   7.227   4.036
13090TIP3    H139215   2.692   7.185   4.115
13090TIP3    H239216   2.785   7.163   3.998
13091TIP3   OH239217   6.042   2.007   3.113
13091TIP3    H139218   5.989   1.971   3.185
13091TIP3    H239219   5.995   1.982   3.034
13092TIP3   OH239220   1.909   5.468   2.214
13092TIP3    H139221   1.919   5.485   2.121
13092TIP3    H239222   1.913   5.373   2.222
13093TIP3   OH239223   3.789   4.997   1.230
13093TIP3    H139224   3.824   4.953   1.152
13093TIP3    H239225   3.839   5.079   1.235
13094TIP3   OH239226   3.650   3.909   0.087
13094TIP3    H139227   3.653   3.889  -0.007
13094TIP3    H239228   3.727   3.964   0.102
13095TIP3   OH239229   4.563   1.680   3.031
13095TIP3    H139230   4.538   1.589   3.021
13095TIP3    H239231   4.659   1.680   3.023
13096TIP3   OH239232   8.265   1.513   5.935
13096TIP3    H139233   8.213   1.541   5.861
13096TIP3    H239234   8.340   1.467   5.896
13097TIP3   OH239235   3.534   5.961   6.028
13097TIP3    H139236   3.492   5.997   5.950
13097TIP3    H239237   3.521   6.029   6.095
13098TIP3   OH239238   4.241   7.422   3.514
13098TIP3    H139239   4.205   7.423   3.603
13098TIP3    H239240   4.281   7.335   3.506
13099TIP3   OH239241   6.036   6.809   5.577
13099TIP3    H139242   6.122   6.770   5.590
13099TIP3    H239243   5.976   6.749   5.622
13100TIP3   OH239244   5.442   5.751   5.774
13100TIP3    H139245   5.456   5.657   5.778
13100TIP3    H239246   5.393   5.772   5.854
13101TIP3   OH239247   6.815   3.895   2.374
13101TIP3    H139248   6.785   3.881   2.285
13101TIP3    H239249   6.738   3.879   2.429
13102TIP3   OH239250   7.105   5.670   2.950
13102TIP3    H139251   7.148   5.589   2.977
13102TIP3    H239252   7.076   5.654   2.860
13103TIP3   OH239253   5.357   6.708   2.593
13103TIP3    H139254   5.321   6.797   2.596
13103TIP3    H239255   5.412   6.708   2.514
13104TIP3   OH239256   6.766   2.732   0.621
13104TIP3    H139257   6.752   2.734   0.527
13104TIP3    H239258   6.678   2.727   0.658
13105TIP3   OH239259   5.333   5.032   6.354
13105TIP3    H139260   5.358   5.079   6.434
13105TIP3    H239261   5.380   4.949   6.360
13106TIP3   OH239262   4.787   1.241   1.456
13106TIP3    H139263   4.812   1.278   1.541
13106TIP3    H239264   4.836   1.159   1.450
13107TIP3   OH239265   2.762   0.984   4.251
13107TIP3    H139266   2.794   1.056   4.305
13107TIP3    H239267   2.670   1.004   4.237
13108TIP3   OH239268   7.794   5.792   6.317
13108TIP3    H139269   7.795   5.831   6.229
13108TIP3    H239270   7.886   5.792   6.344
13109TIP3   OH239271   1.344   0.915   5.010
13109TIP3    H139272   1.401   0.959   5.073
13109TIP3    H239273   1.404   0.881   4.944
13110TIP3   OH239274   0.700   1.393   2.664
13110TIP3    H139275   0.722   1.458   2.731
13110TIP3    H239276   0.662   1.445   2.593
13111TIP3   OH239277   0.022   2.865   2.281
13111TIP3    H139278   0.012   2.770   2.279
13111TIP3    H239279   0.038   2.890   2.190
13112TIP3   OH239280   0.373   6.889   4.813
13112TIP3    H139281   0.331   6.975   4.803
13112TIP3    H239282   0.300   6.829   4.831
13113TIP3   OH239283   5.834   5.966   0.821
13113TIP3    H139284   5.864   6.045   0.775
13113TIP3    H239285   5.915   5.918   0.842
13114TIP3   OH239286   2.923   0.125   6.242
13114TIP3    H139287   2.835   0.098   6.218
13114TIP3    H239288   2.914   0.216   6.270
13115TIP3   OH239289   3.502   1.106   2.883
13115TIP3    H139290   3.439   1.174   2.859
13115TIP3    H239291   3.578   1.123   2.827
13116TIP3   OH239292   5.150   2.944   4.107
13116TIP3    H139293   5.118   2.902   4.027
13116TIP3    H239294   5.223   2.998   4.078
13117TIP3   OH239295   7.359   6.650   3.620
13117TIP3    H139296   7.441   6.661   3.669
13117TIP3    H239297   7.369   6.565   3.577
13118TIP3   OH239298   6.613   1.149   4.439
13118TIP3    H139299   6.610   1.098   4.359
13118TIP3    H239300   6.587   1.237   4.413
13119TIP3   OH239301   4.938   5.537   5.891
13119TIP3    H139302   4.975   5.480   5.958
13119TIP3    H239303   4.993   5.522   5.814
13120TIP3   OH239304   7.105   5.067   6.266
13120TIP3    H139305   7.084   5.157   6.288
13120TIP3    H239306   7.107   5.065   6.170
13121TIP3   OH239307   6.020   1.269   0.641
13121TIP3    H139308   5.954   1.288   0.574
13121TIP3    H239309   6.042   1.354   0.678
13122TIP3   OH239310   4.630   7.488   2.107
13122TIP3    H139311   4.641   7.460   2.197
13122TIP3    H239312   4.667   7.416   2.055
13123TIP3   OH239313   4.713   5.649   1.393
13123TIP3    H139314   4.618   5.653   1.385
13123TIP3    H239315   4.744   5.726   1.345
13124TIP3   OH239316   1.581   2.843   5.206
13124TIP3    H139317   1.573   2.893   5.125
13124TIP3    H239318   1.493   2.845   5.245
13125TIP3   OH239319   3.276   0.230   3.894
13125TIP3    H139320   3.186   0.247   3.923
13125TIP3    H239321   3.284   0.135   3.893
13126TIP3   OH239322   2.601   4.234   4.526
13126TIP3    H139323   2.582   4.141   4.514
13126TIP3    H239324   2.515   4.276   4.530
13127TIP3   OH239325   5.750   4.927   5.797
13127TIP3    H139326   5.818   4.925   5.865
13127TIP3    H239327   5.757   5.014   5.759
13128TIP3   OH239328   0.427   1.278   1.918
13128TIP3    H139329   0.497   1.213   1.926
13128TIP3    H239330   0.463   1.345   1.861
13129TIP3   OH239331   8.092   0.623   2.112
13129TIP3    H139332   8.033   0.552   2.087
13129TIP3    H239333   8.154   0.629   2.039
13130TIP3   OH239334   0.178   4.958   4.659
13130TIP3    H139335   0.168   4.904   4.737
13130TIP3    H239336   0.236   4.907   4.602
13131TIP3   OH239337   2.462   3.779   0.642
13131TIP3    H139338   2.507   3.831   0.709
13131TIP3    H239339   2.531   3.754   0.581
13132TIP3   OH239340   2.218   2.651   2.903
13132TIP3    H139341   2.250   2.741   2.912
13132TIP3    H239342   2.133   2.651   2.947
13133TIP3   OH239343   7.271   7.415   3.936
13133TIP3    H139344   7.307   7.425   3.848
13133TIP3    H239345   7.339   7.369   3.985
13134TIP3   OH239346   0.706   6.879   3.265
13134TIP3    H139347   0.727   6.823   3.190
13134TIP3    H239348   0.714   6.821   3.341
13135TIP3   OH239349   4.595   4.166   3.324
13135TIP3    H139350   4.666   4.155   3.387
13135TIP3    H239351   4.611   4.099   3.257
13136TIP3   OH239352   3.594   4.642   2.405
13136TIP3    H139353   3.579   4.732   2.434
13136TIP3    H239354   3.515   4.619   2.355
13137TIP3   OH239355   0.210   2.978   2.510
13137TIP3    H139356   0.248   3.066   2.504
13137TIP3    H239357   0.280   2.925   2.548
13138TIP3   OH239358   2.559   5.505   6.349
13138TIP3    H139359   2.499   5.564   6.395
13138TIP3    H239360   2.631   5.491   6.410
13139TIP3   OH239361   0.466   1.111   6.108
13139TIP3    H139362   0.499   1.048   6.172
13139TIP3    H239363   0.407   1.060   6.053
13140TIP3   OH239364   3.139   3.435   2.887
13140TIP3    H139365   3.200   3.500   2.852
13140TIP3    H239366   3.062   3.442   2.831
13141TIP3   OH239367   7.690   6.882   1.963
13141TIP3    H139368   7.672   6.883   1.869
13141TIP3    H239369   7.750   6.809   1.975
13142TIP3   OH239370   2.310   0.166   0.623
13142TIP3    H139371   2.269   0.148   0.539
13142TIP3    H239372   2.249   0.131   0.688
13143TIP3   OH239373   5.298   6.453   0.324
13143TIP3    H139374   5.216   6.500   0.310
13143TIP3    H239375   5.300   6.438   0.419
13144TIP3   OH239376   1.075   3.165   2.255
13144TIP3    H139377   1.163   3.161   2.219
13144TIP3    H239378   1.021   3.119   2.190
13145TIP3   OH239379   4.288   5.575   1.108
13145TIP3    H139380   4.342   5.636   1.058
13145TIP3    H239381   4.216   5.553   1.049
13146TIP3   OH239382   5.847   6.833   0.821
13146TIP3    H139383   5.849   6.921   0.784
13146TIP3    H239384   5.921   6.830   0.882
13147TIP3   OH239385   1.966   0.460   1.365
13147TIP3    H139386   2.054   0.496   1.349
13147TIP3    H239387   1.911   0.537   1.378
13148TIP3   OH239388   2.259   4.233   2.331
13148TIP3    H139389   2.298   4.317   2.355
13148TIP3    H239390   2.322   4.168   2.363
13149TIP3   OH239391   5.245   6.020   1.461
13149TIP3    H139392   5.248   6.114   1.475
13149TIP3    H239393   5.328   5.999   1.419
13150TIP3   OH239394   6.736   0.471   5.477
13150TIP3    H139395   6.664   0.532   5.494
13150TIP3    H239396   6.752   0.478   5.383
13151TIP3   OH239397   1.836   4.002   3.270
13151TIP3    H139398   1.840   4.073   3.334
13151TIP3    H239399   1.763   3.947   3.299
13152TIP3   OH239400   2.117   5.232   5.221
13152TIP3    H139401   2.110   5.317   5.263
13152TIP3    H239402   2.054   5.177   5.268
13153TIP3   OH239403   4.636   3.259   1.758
13153TIP3    H139404   4.673   3.175   1.787
13153TIP3    H239405   4.544   3.254   1.781
13154TIP3   OH239406   0.182   0.691   0.917
13154TIP3    H139407   0.274   0.701   0.939
13154TIP3    H239408   0.178   0.614   0.860
13155TIP3   OH239409   6.051   5.820   0.837
13155TIP3    H139410   6.045   5.772   0.755
13155TIP3    H239411   6.141   5.803   0.868
13156TIP3   OH239412   5.169   3.924   5.068
13156TIP3    H139413   5.245   3.926   5.127
13156TIP3    H239414   5.143   4.016   5.059
13157TIP3   OH239415   3.729   3.659   0.651
13157TIP3    H139416   3.766   3.645   0.738
13157TIP3    H239417   3.805   3.666   0.593
13158TIP3   OH239418   8.027   1.469   1.117
13158TIP3    H139419   7.932   1.482   1.117
13158TIP3    H239420   8.061   1.540   1.171
13159TIP3   OH239421   2.730   1.977   3.981
13159TIP3    H139422   2.787   1.940   3.913
13159TIP3    H239423   2.680   1.902   4.013
13160TIP3   OH239424   4.515   5.238   5.573
13160TIP3    H139425   4.582   5.170   5.573
13160TIP3    H239426   4.510   5.268   5.482
13161TIP3   OH239427   2.048   3.313   1.118
13161TIP3    H139428   1.987   3.241   1.098
13161TIP3    H239429   2.134   3.276   1.099
13162TIP3   OH239430   5.758   4.772   3.653
13162TIP3    H139431   5.826   4.762   3.586
13162TIP3    H239432   5.799   4.827   3.720
13163TIP3   OH239433   6.922   1.206   5.560
13163TIP3    H139434   6.861   1.133   5.574
13163TIP3    H239435   6.952   1.196   5.470
13164TIP3   OH239436   0.628   1.220   1.041
13164TIP3    H139437   0.711   1.212   1.087
13164TIP3    H239438   0.568   1.256   1.106
13165TIP3   OH239439   0.643   2.944   4.483
13165TIP3    H139440   0.603   3.028   4.462
13165TIP3    H239441   0.576   2.897   4.533
13166TIP3   OH239442   2.350   5.833   0.824
13166TIP3    H139443   2.399   5.845   0.905
13166TIP3    H239444   2.373   5.745   0.795
13167TIP3   OH239445   5.413   6.678   3.576
13167TIP3    H139446   5.453   6.765   3.585
13167TIP3    H239447   5.484   6.617   3.590
13168TIP3   OH239448   4.270   7.620   1.832
13168TIP3    H139449   4.359   7.624   1.868
13168TIP3    H239450   4.226   7.553   1.884
13169TIP3   OH239451   0.430   4.368   1.772
13169TIP3    H139452   0.495   4.434   1.747
13169TIP3    H239453   0.423   4.377   1.867
13170TIP3   OH239454   3.070   7.381   6.083
13170TIP3    H139455   3.106   7.295   6.105
13170TIP3    H239456   3.063   7.427   6.167
13171TIP3   OH239457   0.699   4.984   3.487
13171TIP3    H139458   0.656   4.899   3.486
13171TIP3    H239459   0.747   4.988   3.403
13172TIP3   OH239460   8.161   5.036   0.145
13172TIP3    H139461   8.210   5.086   0.081
13172TIP3    H239462   8.166   5.088   0.226
13173TIP3   OH239463   7.012   2.309   0.183
13173TIP3    H139464   7.066   2.285   0.259
13173TIP3    H239465   6.922   2.304   0.216
13174TIP3   OH239466   4.427   3.136   2.665
13174TIP3    H139467   4.350   3.105   2.618
13174TIP3    H239468   4.495   3.072   2.645
13175TIP3   OH239469   1.012   5.910   6.435
13175TIP3    H139470   1.092   5.960   6.418
13175TIP3    H239471   0.957   5.970   6.486
13176TIP3   OH239472   6.553   6.308   1.690
13176TIP3    H139473   6.525   6.276   1.775
13176TIP3    H239474   6.486   6.371   1.664
13177TIP3   OH239475   0.752   0.994   3.540
13177TIP3    H139476   0.762   1.052   3.616
13177TIP3    H239477   0.842   0.981   3.509
13178TIP3   OH239478   3.336   5.384   5.787
13178TIP3    H139479   3.308   5.447   5.854
13178TIP3    H239480   3.263   5.382   5.726
13179TIP3   OH239481   6.330   6.192   2.894
13179TIP3    H139482   6.237   6.181   2.913
13179TIP3    H239483   6.373   6.177   2.978
13180TIP3   OH239484   5.878   0.252   3.157
13180TIP3    H139485   5.804   0.311   3.140
13180TIP3    H239486   5.907   0.225   3.070
13181TIP3   OH239487   3.638   6.652   5.542
13181TIP3    H139488   3.596   6.575   5.503
13181TIP3    H239489   3.589   6.668   5.623
13182TIP3   OH239490   7.154   1.656   3.454
13182TIP3    H139491   7.213   1.706   3.398
13182TIP3    H239492   7.184   1.673   3.543
13183TIP3   OH239493   8.099   5.952   5.340
13183TIP3    H139494   8.187   5.978   5.314
13183TIP3    H239495   8.042   6.019   5.302
13184TIP3   OH239496   2.264   4.480   3.860
13184TIP3    H139497   2.235   4.513   3.774
13184TIP3    H239498   2.197   4.416   3.884
13185TIP3   OH239499   3.823   0.151   2.338
13185TIP3    H139500   3.869   0.144   2.254
13185TIP3    H239501   3.752   0.213   2.322
13186TIP3   OH239502   3.177   1.778   5.654
13186TIP3    H139503   3.266   1.758   5.625
13186TIP3    H239504   3.146   1.698   5.696
13187TIP3   OH239505   7.705   5.598   4.305
13187TIP3    H139506   7.703   5.665   4.374
13187TIP3    H239507   7.650   5.634   4.236
13188TIP3   OH239508   0.112   2.107   6.630
13188TIP3    H139509   0.152   2.117   6.717
13188TIP3    H239510   0.030   2.062   6.646
13189TIP3   OH239511   3.260   4.561   5.523
13189TIP3    H139512   3.194   4.497   5.550
13189TIP3    H239513   3.343   4.513   5.529
13190TIP3   OH239514   2.773   5.171   3.440
13190TIP3    H139515   2.694   5.144   3.393
13190TIP3    H239516   2.782   5.264   3.419
13191TIP3   OH239517   7.879   5.060   3.646
13191TIP3    H139518   7.946   5.104   3.594
13191TIP3    H239519   7.916   4.973   3.664
13192TIP3   OH239520   2.551   2.644   2.761
13192TIP3    H139521   2.564   2.560   2.716
13192TIP3    H239522   2.524   2.620   2.849
13193TIP3   OH239523   3.550   4.084   1.423
13193TIP3    H139524   3.616   4.139   1.464
13193TIP3    H239525   3.488   4.146   1.384
13194TIP3   OH239526   3.305   5.660   1.374
13194TIP3    H139527   3.373   5.642   1.309
13194TIP3    H239528   3.292   5.576   1.419
13195TIP3   OH239529   7.888   4.382   5.629
13195TIP3    H139530   7.911   4.362   5.720
13195TIP3    H239531   7.804   4.339   5.615
13196TIP3   OH239532   7.021   1.587   5.863
13196TIP3    H139533   7.055   1.676   5.866
13196TIP3    H239534   7.043   1.556   5.775
13197TIP3   OH239535   7.016   7.776   4.791
13197TIP3    H139536   7.018   7.782   4.695
13197TIP3    H239537   7.037   7.685   4.809
13198TIP3   OH239538   5.556   3.869   5.512
13198TIP3    H139539   5.507   3.942   5.552
13198TIP3    H239540   5.648   3.895   5.520
13199TIP3   OH239541   1.665   4.433   5.149
13199TIP3    H139542   1.632   4.462   5.234
13199TIP3    H239543   1.717   4.355   5.168
13200TIP3   OH239544   6.007   7.071   1.075
13200TIP3    H139545   6.008   7.051   1.169
13200TIP3    H239546   5.921   7.110   1.059
13201TIP3   OH239547   8.227   0.567   5.896
13201TIP3    H139548   8.306   0.562   5.950
13201TIP3    H239549   8.157   0.587   5.958
13202TIP3   OH239550   6.842   4.722   1.289
13202TIP3    H139551   6.843   4.808   1.331
13202TIP3    H239552   6.831   4.659   1.360
13203TIP3   OH239553   5.022   0.841   4.643
13203TIP3    H139554   5.079   0.908   4.681
13203TIP3    H239555   4.986   0.794   4.718
13204TIP3   OH239556   2.595   4.565   4.360
13204TIP3    H139557   2.502   4.546   4.376
13204TIP3    H239558   2.602   4.660   4.373
13205TIP3   OH239559   7.330   5.077   1.537
13205TIP3    H139560   7.319   5.087   1.631
13205TIP3    H239561   7.425   5.082   1.523
13206TIP3   OH239562   1.315   7.282   4.543
13206TIP3    H139563   1.313   7.275   4.447
13206TIP3    H239564   1.309   7.192   4.574
13207TIP3   OH239565   5.015   4.877   2.942
13207TIP3    H139566   4.977   4.895   3.028
13207TIP3    H239567   5.065   4.796   2.954
13208TIP3   OH239568   6.852   1.894   2.758
13208TIP3    H139569   6.919   1.879   2.825
13208TIP3    H239570   6.769   1.897   2.806
13209TIP3   OH239571   7.061   7.248   4.424
13209TIP3    H139572   7.075   7.251   4.329
13209TIP3    H239573   7.125   7.311   4.459
13210TIP3   OH239574   1.625   5.069   2.337
13210TIP3    H139575   1.556   5.069   2.270
13210TIP3    H239576   1.595   5.131   2.403
13211TIP3   OH239577   8.263   2.130   2.440
13211TIP3    H139578   8.241   2.178   2.520
13211TIP3    H239579   8.222   2.045   2.452
13212TIP3   OH239580   5.888   2.386   3.151
13212TIP3    H139581   5.960   2.342   3.106
13212TIP3    H239582   5.881   2.341   3.235
13213TIP3   OH239583   0.628   3.473   6.376
13213TIP3    H139584   0.619   3.378   6.366
13213TIP3    H239585   0.709   3.495   6.331
13214TIP3   OH239586   3.934   2.911   3.262
13214TIP3    H139587   4.024   2.879   3.253
13214TIP3    H239588   3.880   2.833   3.248
13215TIP3   OH239589   1.778   2.229   6.201
13215TIP3    H139590   1.852   2.167   6.207
13215TIP3    H239591   1.782   2.261   6.111
13216TIP3   OH239592   4.450   5.683   6.079
13216TIP3    H139593   4.490   5.765   6.106
13216TIP3    H239594   4.516   5.642   6.023
13217TIP3   OH239595   1.592   6.272   3.390
13217TIP3    H139596   1.685   6.283   3.409
13217TIP3    H239597   1.590   6.225   3.307
13218TIP3   OH239598   7.448   6.924   5.758
13218TIP3    H139599   7.504   6.950   5.832
13218TIP3    H239600   7.359   6.944   5.787
13219TIP3   OH239601   4.257   0.292   2.201
13219TIP3    H139602   4.210   0.328   2.276
13219TIP3    H239603   4.252   0.197   2.214
13220TIP3   OH239604   0.324   1.642   4.298
13220TIP3    H139605   0.403   1.606   4.337
13220TIP3    H239606   0.331   1.737   4.314
13221TIP3   OH239607   2.837   4.872   1.518
13221TIP3    H139608   2.794   4.821   1.587
13221TIP3    H239609   2.784   4.856   1.440
13222TIP3   OH239610   8.060   1.963   4.798
13222TIP3    H139611   8.093   1.926   4.880
13222TIP3    H239612   8.138   1.972   4.743
13223TIP3   OH239613   7.267   7.129   1.980
13223TIP3    H139614   7.292   7.067   1.912
13223TIP3    H239615   7.199   7.183   1.940
13224TIP3   OH239616   4.126   7.779   3.060
13224TIP3    H139617   4.201   7.770   3.119
13224TIP3    H239618   4.063   7.713   3.091
13225TIP3   OH239619   8.138   3.819   0.616
13225TIP3    H139620   8.117   3.790   0.527
13225TIP3    H239621   8.069   3.882   0.638
13226TIP3   OH239622   3.661   4.642   5.352
13226TIP3    H139623   3.689   4.676   5.267
13226TIP3    H239624   3.727   4.672   5.413
13227TIP3   OH239625   4.846   2.079   5.926
13227TIP3    H139626   4.834   2.154   5.984
13227TIP3    H239627   4.846   2.116   5.838
13228TIP3   OH239628   6.591   4.239   6.799
13228TIP3    H139629   6.631   4.261   6.715
13228TIP3    H239630   6.499   4.224   6.780
13229TIP3   OH239631   1.979   6.088   1.190
13229TIP3    H139632   1.952   6.126   1.273
13229TIP3    H239633   1.909   6.112   1.129
13230TIP3   OH239634   2.886   6.906   2.207
13230TIP3    H139635   2.932   6.977   2.162
13230TIP3    H239636   2.873   6.939   2.296
13231TIP3   OH239637   2.749   5.188   6.187
13231TIP3    H139638   2.809   5.184   6.262
13231TIP3    H239639   2.691   5.114   6.200
13232TIP3   OH239640   2.905   1.052   6.642
13232TIP3    H139641   2.970   1.004   6.591
13232TIP3    H239642   2.941   1.054   6.731
13233TIP3   OH239643   6.020   7.064   3.939
13233TIP3    H139644   6.060   7.112   3.866
13233TIP3    H239645   6.091   7.057   4.004
13234TIP3   OH239646   2.972   6.578   4.056
13234TIP3    H139647   2.925   6.502   4.021
13234TIP3    H239648   3.057   6.576   4.012
13235TIP3   OH239649   5.830   5.191   5.703
13235TIP3    H139650   5.919   5.218   5.726
13235TIP3    H239651   5.794   5.266   5.657
13236TIP3   OH239652   4.806   2.947   5.586
13236TIP3    H139653   4.845   2.898   5.514
13236TIP3    H239654   4.713   2.951   5.565
13237TIP3   OH239655   5.776   6.580   2.132
13237TIP3    H139656   5.724   6.608   2.207
13237TIP3    H239657   5.780   6.656   2.075
13238TIP3   OH239658   3.972   6.107   6.346
13238TIP3    H139659   4.026   6.121   6.424
13238TIP3    H239660   4.034   6.105   6.274
13239TIP3   OH239661   3.160   5.501   3.935
13239TIP3    H139662   3.125   5.540   4.015
13239TIP3    H239663   3.254   5.496   3.950
13240TIP3   OH239664   6.193   2.251   3.598
13240TIP3    H139665   6.111   2.223   3.638
13240TIP3    H239666   6.199   2.198   3.518
13241TIP3   OH239667   4.623   2.592   4.992
13241TIP3    H139668   4.615   2.567   5.084
13241TIP3    H239669   4.601   2.513   4.943
13242TIP3   OH239670   8.272   6.412   5.296
13242TIP3    H139671   8.245   6.489   5.346
13242TIP3    H239672   8.200   6.397   5.235
13243TIP3   OH239673   7.753   1.612   2.746
13243TIP3    H139674   7.732   1.540   2.806
13243TIP3    H239675   7.766   1.569   2.662
13244TIP3   OH239676   3.469   1.526   5.327
13244TIP3    H139677   3.564   1.526   5.336
13244TIP3    H239678   3.446   1.435   5.313
13245TIP3   OH239679   5.812   0.085   6.306
13245TIP3    H139680   5.799  -0.008   6.323
13245TIP3    H239681   5.883   0.111   6.365
13246TIP3   OH239682   4.354   3.038   2.036
13246TIP3    H139683   4.422   3.005   2.095
13246TIP3    H239684   4.285   2.971   2.040
13247TIP3   OH239685   6.398   7.258   1.195
13247TIP3    H139686   6.429   7.298   1.276
13247TIP3    H239687   6.453   7.179   1.186
13248TIP3   OH239688   1.084   7.219   1.020
13248TIP3    H139689   1.124   7.303   0.996
13248TIP3    H239690   1.123   7.198   1.105
13249TIP3   OH239691   0.423   0.770   2.324
13249TIP3    H139692   0.492   0.811   2.273
13249TIP3    H239693   0.350   0.760   2.263
13250TIP3   OH239694   5.915   6.153   5.340
13250TIP3    H139695   6.010   6.169   5.348
13250TIP3    H239696   5.875   6.215   5.400
13251TIP3   OH239697   2.314   5.976   0.113
13251TIP3    H139698   2.307   5.924   0.193
13251TIP3    H239699   2.304   5.912   0.042
13252TIP3   OH239700   8.223   0.874   5.146
13252TIP3    H139701   8.201   0.825   5.226
13252TIP3    H239702   8.139   0.909   5.117
13253TIP3   OH239703   3.127   0.507   2.270
13253TIP3    H139704   3.192   0.551   2.325
13253TIP3    H239705   3.107   0.571   2.202
13254TIP3   OH239706   2.215   0.893   1.521
13254TIP3    H139707   2.155   0.824   1.551
13254TIP3    H239708   2.169   0.937   1.450
13255TIP3   OH239709   1.420   3.222   0.655
13255TIP3    H139710   1.345   3.267   0.617
13255TIP3    H239711   1.495   3.275   0.628
13256TIP3   OH239712   7.232   5.210   0.682
13256TIP3    H139713   7.153   5.157   0.670
13256TIP3    H239714   7.301   5.163   0.636
13257TIP3   OH239715   2.807   6.585   5.442
13257TIP3    H139716   2.886   6.603   5.492
13257TIP3    H239717   2.774   6.502   5.478
13258TIP3   OH239718   3.525   7.184   0.582
13258TIP3    H139719   3.565   7.101   0.609
13258TIP3    H239720   3.443   7.158   0.539
13259TIP3   OH239721   7.747   7.143   6.654
13259TIP3    H139722   7.734   7.238   6.657
13259TIP3    H239723   7.776   7.125   6.564
13260TIP3   OH239724   7.383   7.253   3.425
13260TIP3    H139725   7.356   7.169   3.463
13260TIP3    H239726   7.310   7.277   3.368
13261TIP3   OH239727   0.634   6.369   4.313
13261TIP3    H139728   0.662   6.296   4.368
13261TIP3    H239729   0.558   6.406   4.359
13262TIP3   OH239730   1.533   3.765   3.982
13262TIP3    H139731   1.598   3.702   4.014
13262TIP3    H239732   1.464   3.762   4.049
13263TIP3   OH239733   7.785   6.615   2.766
13263TIP3    H139734   7.858   6.664   2.728
13263TIP3    H239735   7.764   6.661   2.847
13264TIP3   OH239736   4.704   0.888   0.531
13264TIP3    H139737   4.609   0.882   0.542
13264TIP3    H239738   4.717   0.888   0.436
13265TIP3   OH239739   5.805   1.290   5.942
13265TIP3    H139740   5.750   1.351   5.893
13265TIP3    H239741   5.893   1.305   5.908
13266TIP3   OH239742   7.162   5.751   0.298
13266TIP3    H139743   7.253   5.775   0.281
13266TIP3    H239744   7.114   5.833   0.291
13267TIP3   OH239745   7.775   2.566   5.393
13267TIP3    H139746   7.729   2.553   5.476
13267TIP3    H239747   7.833   2.641   5.409
13268TIP3   OH239748   1.718   5.501   3.511
13268TIP3    H139749   1.805   5.472   3.536
13268TIP3    H239750   1.697   5.570   3.575
13269TIP3   OH239751   5.007   1.769   0.569
13269TIP3    H139752   5.023   1.722   0.487
13269TIP3    H239753   5.094   1.799   0.596
13270TIP3   OH239754   5.735   1.656   5.189
13270TIP3    H139755   5.800   1.727   5.186
13270TIP3    H239756   5.769   1.595   5.254
13271TIP3   OH239757   0.085   3.246   0.176
13271TIP3    H139758   0.095   3.241   0.081
13271TIP3    H239759   0.174   3.258   0.209
13272TIP3   OH239760   4.648   3.496   1.645
13272TIP3    H139761   4.646   3.408   1.681
13272TIP3    H239762   4.586   3.495   1.573
13273TIP3   OH239763   6.327   7.638   1.517
13273TIP3    H139764   6.236   7.610   1.504
13273TIP3    H239765   6.355   7.591   1.595
13274TIP3   OH239766   2.054   4.287   6.050
13274TIP3    H139767   2.072   4.341   6.127
13274TIP3    H239768   1.960   4.299   6.034
13275TIP3   OH239769   0.074   4.146   5.179
13275TIP3    H139770   0.002   4.209   5.182
13275TIP3    H239771   0.031   4.060   5.180
13276TIP3   OH239772   4.678   5.085   1.743
13276TIP3    H139773   4.682   5.124   1.831
13276TIP3    H239774   4.594   5.114   1.708
13277TIP3   OH239775   6.469   3.315   3.634
13277TIP3    H139776   6.398   3.252   3.621
13277TIP3    H239777   6.531   3.296   3.563
13278TIP3   OH239778   4.358   7.591   0.961
13278TIP3    H139779   4.297   7.591   1.035
13278TIP3    H239780   4.395   7.503   0.960
13279TIP3   OH239781   7.095   7.311   1.857
13279TIP3    H139782   7.033   7.382   1.838
13279TIP3    H239783   7.138   7.293   1.773
13280TIP3   OH239784   7.671   3.823   0.866
13280TIP3    H139785   7.597   3.876   0.836
13280TIP3    H239786   7.630   3.746   0.907
13281TIP3   OH239787   3.720   6.325   1.467
13281TIP3    H139788   3.687   6.243   1.506
13281TIP3    H239789   3.815   6.316   1.470
13282TIP3   OH239790   3.498   3.829   4.216
13282TIP3    H139791   3.449   3.845   4.136
13282TIP3    H239792   3.511   3.734   4.219
13283TIP3   OH239793   1.071   0.808   3.840
13283TIP3    H139794   1.119   0.833   3.919
13283TIP3    H239795   1.010   0.740   3.870
13284TIP3   OH239796   6.513   6.812   1.271
13284TIP3    H139797   6.433   6.820   1.219
13284TIP3    H239798   6.513   6.890   1.327
13285TIP3   OH239799   2.861   4.789   0.617
13285TIP3    H139800   2.892   4.815   0.530
13285TIP3    H239801   2.780   4.741   0.600
13286TIP3   OH239802   1.097   6.508   0.855
13286TIP3    H139803   1.057   6.462   0.929
13286TIP3    H239804   1.082   6.601   0.874
13287TIP3   OH239805   4.528   2.011   0.071
13287TIP3    H139806   4.580   2.056   0.138
13287TIP3    H239807   4.560   1.921   0.073
13288TIP3   OH239808   0.806   0.564   5.944
13288TIP3    H139809   0.899   0.553   5.967
13288TIP3    H239810   0.806   0.576   5.849
13289TIP3   OH239811   8.189   4.658   1.747
13289TIP3    H139812   8.246   4.632   1.675
13289TIP3    H239813   8.235   4.731   1.789
13290TIP3   OH239814   1.958   4.762   2.898
13290TIP3    H139815   1.950   4.728   2.809
13290TIP3    H239816   1.881   4.727   2.943
13291TIP3   OH239817   5.060   0.772   6.311
13291TIP3    H139818   4.980   0.734   6.346
13291TIP3    H239819   5.065   0.738   6.221
13292TIP3   OH239820   2.714   4.527   5.363
13292TIP3    H139821   2.695   4.435   5.381
13292TIP3    H239822   2.646   4.555   5.301
13293TIP3   OH239823   0.995   0.564   3.630
13293TIP3    H139824   0.911   0.584   3.671
13293TIP3    H239825   0.987   0.597   3.541
13294TIP3   OH239826   7.913   7.811   0.969
13294TIP3    H139827   7.926   7.802   1.064
13294TIP3    H239828   7.937   7.726   0.933
13295TIP3   OH239829   4.673   7.070   1.408
13295TIP3    H139830   4.715   6.984   1.418
13295TIP3    H239831   4.598   7.053   1.351
13296TIP3   OH239832   1.871   7.080   3.493
13296TIP3    H139833   1.874   7.151   3.429
13296TIP3    H239834   1.888   7.001   3.441
13297TIP3   OH239835   8.261   4.521   3.065
13297TIP3    H139836   8.187   4.579   3.082
13297TIP3    H239837   8.224   4.449   3.014
13298TIP3   OH239838   4.647   6.267   4.272
13298TIP3    H139839   4.582   6.261   4.342
13298TIP3    H239840   4.663   6.177   4.245
13299TIP3   OH239841   6.889   3.335   2.683
13299TIP3    H139842   6.905   3.430   2.685
13299TIP3    H239843   6.878   3.312   2.775
13300TIP3   OH239844   3.103   2.380   6.329
13300TIP3    H139845   3.150   2.332   6.397
13300TIP3    H239846   3.127   2.472   6.343
13301TIP3   OH239847   4.097   1.093   4.280
13301TIP3    H139848   4.192   1.104   4.271
13301TIP3    H239849   4.074   1.024   4.218
13302TIP3   OH239850   5.068   5.937   2.958
13302TIP3    H139851   5.004   6.005   2.936
13302TIP3    H239852   5.129   5.937   2.884
13303TIP3   OH239853   3.217   7.129   1.942
13303TIP3    H139854   3.303   7.170   1.945
13303TIP3    H239855   3.204   7.107   1.849
13304TIP3   OH239856   0.120   5.511   1.086
13304TIP3    H139857   0.134   5.443   1.020
13304TIP3    H239858   0.136   5.467   1.170
13305TIP3   OH239859   4.121   1.061   1.929
13305TIP3    H139860   4.108   0.978   1.883
13305TIP3    H239861   4.138   1.035   2.020
13306TIP3   OH239862   2.610   1.502   5.956
13306TIP3    H139863   2.696   1.513   5.996
13306TIP3    H239864   2.595   1.585   5.910
13307TIP3   OH239865   2.177   4.453   0.264
13307TIP3    H139866   2.191   4.541   0.298
13307TIP3    H239867   2.236   4.398   0.315
13308TIP3   OH239868   4.933   6.423   6.261
13308TIP3    H139869   4.881   6.389   6.188
13308TIP3    H239870   4.956   6.345   6.312
13309TIP3   OH239871   6.468   5.547   6.730
13309TIP3    H139872   6.432   5.517   6.646
13309TIP3    H239873   6.487   5.640   6.716
13310TIP3   OH239874   4.388   2.391   1.987
13310TIP3    H139875   4.406   2.463   2.048
13310TIP3    H239876   4.298   2.407   1.957
13311TIP3   OH239877   2.949   1.506   5.414
13311TIP3    H139878   3.000   1.445   5.468
13311TIP3    H239879   3.015   1.556   5.366
13312TIP3   OH239880   7.499   1.267   2.789
13312TIP3    H139881   7.562   1.287   2.720
13312TIP3    H239882   7.458   1.185   2.761
13313TIP3   OH239883   2.967   4.930   6.595
13313TIP3    H139884   2.911   4.881   6.534
13313TIP3    H239885   3.056   4.911   6.566
13314TIP3   OH239886   3.417   0.335   3.054
13314TIP3    H139887   3.438   0.390   3.129
13314TIP3    H239888   3.341   0.377   3.014
13315TIP3   OH239889   2.301   1.114   5.516
13315TIP3    H139890   2.369   1.171   5.480
13315TIP3    H239891   2.349   1.047   5.564
13316TIP3   OH239892   5.347   5.606   2.264
13316TIP3    H139893   5.364   5.615   2.170
13316TIP3    H239894   5.303   5.688   2.287
13317TIP3   OH239895   4.436   2.856   3.482
13317TIP3    H139896   4.351   2.878   3.444
13317TIP3    H239897   4.488   2.936   3.474
13318TIP3   OH239898   4.050   3.188   5.779
13318TIP3    H139899   4.036   3.269   5.828
13318TIP3    H239900   3.965   3.170   5.738
13319TIP3   OH239901   3.981   1.216   4.496
13319TIP3    H139902   4.024   1.198   4.412
13319TIP3    H239903   4.013   1.302   4.521
13320TIP3   OH239904   5.813   1.317   1.472
13320TIP3    H139905   5.782   1.404   1.498
13320TIP3    H239906   5.819   1.269   1.554
13321TIP3   OH239907   3.801   3.538   6.137
13321TIP3    H139908   3.763   3.509   6.220
13321TIP3    H239909   3.859   3.610   6.161
13322TIP3   OH239910   6.612   0.547   1.876
13322TIP3    H139911   6.546   0.478   1.866
13322TIP3    H239912   6.675   0.511   1.939
13323TIP3   OH239913   1.417   0.948   1.007
13323TIP3    H139914   1.362   1.026   1.013
13323TIP3    H239915   1.376   0.894   0.939
13324TIP3   OH239916   3.816   3.659   1.293
13324TIP3    H139917   3.780   3.747   1.284
13324TIP3    H239918   3.804   3.637   1.385
13325TIP3   OH239919   5.343   6.180   2.886
13325TIP3    H139920   5.353   6.271   2.855
13325TIP3    H239921   5.288   6.139   2.819
13326TIP3   OH239922   5.902   0.660   2.936
13326TIP3    H139923   5.946   0.620   3.011
13326TIP3    H239924   5.903   0.592   2.868
13327TIP3   OH239925   0.397   1.647   0.504
13327TIP3    H139926   0.397   1.734   0.464
13327TIP3    H239927   0.487   1.635   0.536
13328TIP3   OH239928   2.159   2.658   1.300
13328TIP3    H139929   2.250   2.640   1.323
13328TIP3    H239930   2.118   2.682   1.382
13329TIP3   OH239931   1.718   0.918   4.541
13329TIP3    H139932   1.769   0.855   4.592
13329TIP3    H239933   1.665   0.864   4.482
13330TIP3   OH239934   4.410   3.685   1.962
13330TIP3    H139935   4.505   3.685   1.954
13330TIP3    H239936   4.390   3.598   1.998
13331TIP3   OH239937   4.342   0.975   4.264
13331TIP3    H139938   4.430   1.001   4.289
13331TIP3    H239939   4.339   0.881   4.282
13332TIP3   OH239940   4.305   4.949   5.669
13332TIP3    H139941   4.386   4.956   5.719
13332TIP3    H239942   4.282   5.039   5.646
13333TIP3   OH239943   7.547   7.028   3.751
13333TIP3    H139944   7.628   6.977   3.760
13333TIP3    H239945   7.577   7.118   3.741
13334TIP3   OH239946   3.306   7.456   5.916
13334TIP3    H139947   3.229   7.463   5.973
13334TIP3    H239948   3.305   7.537   5.865
13335TIP3   OH239949   0.654   1.956   5.318
13335TIP3    H139950   0.741   1.916   5.327
13335TIP3    H239951   0.620   1.959   5.408
13336TIP3   OH239952   1.565   1.496   1.440
13336TIP3    H139953   1.548   1.410   1.402
13336TIP3    H239954   1.484   1.518   1.487
13337TIP3   OH239955   0.405   0.067   6.315
13337TIP3    H139956   0.420  -0.022   6.347
13337TIP3    H239957   0.490   0.095   6.281
13338TIP3   OH239958   3.401   0.895   1.828
13338TIP3    H139959   3.456   0.885   1.750
13338TIP3    H239960   3.464   0.906   1.899
13339TIP3   OH239961   3.638   4.662   1.319
13339TIP3    H139962   3.710   4.611   1.356
13339TIP3    H239963   3.679   4.716   1.251
13340TIP3   OH239964   5.053   1.241   5.749
13340TIP3    H139965   5.072   1.277   5.836
13340TIP3    H239966   4.997   1.306   5.707
13341TIP3   OH239967   2.180   7.518   2.620
13341TIP3    H139968   2.116   7.589   2.606
13341TIP3    H239969   2.126   7.441   2.636
13342TIP3   OH239970   8.270   7.446   1.377
13342TIP3    H139971   8.235   7.534   1.392
13342TIP3    H239972   8.318   7.453   1.295
13343TIP3   OH239973   6.651   2.033   1.360
13343TIP3    H139974   6.730   2.021   1.308
13343TIP3    H239975   6.683   2.056   1.448
13344TIP3   OH239976   4.982   2.685   6.065
13344TIP3    H139977   5.036   2.643   5.998
13344TIP3    H239978   4.974   2.620   6.134
13345TIP3   OH239979   7.785   1.143   4.802
13345TIP3    H139980   7.775   1.077   4.733
13345TIP3    H239981   7.724   1.113   4.871
13346TIP3   OH239982   3.767   4.830   6.370
13346TIP3    H139983   3.814   4.816   6.289
13346TIP3    H239984   3.772   4.925   6.385
13347TIP3   OH239985   1.290   2.522   3.064
13347TIP3    H139986   1.340   2.583   3.117
13347TIP3    H239987   1.207   2.511   3.111
13348TIP3   OH239988   4.297   6.095   4.264
13348TIP3    H139989   4.320   6.002   4.267
13348TIP3    H239990   4.330   6.131   4.346
13349TIP3   OH239991   2.639   4.761   0.856
13349TIP3    H139992   2.655   4.843   0.902
13349TIP3    H239993   2.591   4.707   0.919
13350TIP3   OH239994   2.549   5.707   0.484
13350TIP3    H139995   2.599   5.784   0.513
13350TIP3    H239996   2.596   5.633   0.523
13351TIP3   OH239997   4.117   7.188   1.350
13351TIP3    H139998   4.091   7.256   1.288
13351TIP3    H239999   4.176   7.131   1.301
13352TIP3   OH240000   2.313   5.077   2.309
13352TIP3    H140001   2.364   5.092   2.388
13352TIP3    H240002   2.369   5.021   2.255
13353TIP3   OH240003   4.104   7.596   4.588
13353TIP3    H140004   4.171   7.565   4.527
13353TIP3    H240005   4.072   7.517   4.632
13354TIP3   OH240006   7.334   4.795   6.809
13354TIP3    H140007   7.301   4.839   6.730
13354TIP3    H240008   7.336   4.702   6.785
13355TIP3   OH240009   6.602   6.974   2.502
13355TIP3    H140010   6.546   6.995   2.577
13355TIP3    H240011   6.598   6.878   2.496
13356TIP3   OH240012   6.865   1.986   5.051
13356TIP3    H140013   6.853   1.944   5.136
13356TIP3    H240014   6.794   2.050   5.046
13357TIP3   OH240015   1.794   1.677   1.726
13357TIP3    H140016   1.761   1.728   1.799
13357TIP3    H240017   1.740   1.704   1.651
13358TIP3   OH240018   4.938   3.398   5.090
13358TIP3    H140019   4.932   3.493   5.088
13358TIP3    H240020   5.032   3.380   5.096
13359TIP3   OH240021   2.592   2.182   4.395
13359TIP3    H140022   2.644   2.103   4.379
13359TIP3    H240023   2.506   2.162   4.359
13360TIP3   OH240024   1.318   4.531   5.930
13360TIP3    H140025   1.242   4.561   5.979
13360TIP3    H240026   1.297   4.550   5.838
13361TIP3   OH240027   3.404   1.554   4.012
13361TIP3    H140028   3.350   1.586   4.084
13361TIP3    H240029   3.389   1.616   3.941
13362TIP3   OH240030   6.241   3.930   0.232
13362TIP3    H140031   6.266   3.842   0.207
13362TIP3    H240032   6.323   3.980   0.226
13363TIP3   OH240033   6.551   2.594   1.947
13363TIP3    H140034   6.602   2.565   1.872
13363TIP3    H240035   6.486   2.654   1.910
13364TIP3   OH240036   5.892   2.497   0.502
13364TIP3    H140037   5.934   2.411   0.500
13364TIP3    H240038   5.961   2.557   0.531
13365TIP3   OH240039   1.678   2.697   4.332
13365TIP3    H140040   1.647   2.747   4.256
13365TIP3    H240041   1.623   2.727   4.405
13366TIP3   OH240042   8.157   7.320   2.507
13366TIP3    H140043   8.148   7.358   2.420
13366TIP3    H240044   8.141   7.226   2.494
13367TIP3   OH240045   0.018   1.599   1.695
13367TIP3    H140046  -0.030   1.593   1.778
13367TIP3    H240047   0.107   1.625   1.721
13368TIP3   OH240048   1.039   2.610   5.112
13368TIP3    H140049   1.129   2.582   5.129
13368TIP3    H240050   1.004   2.544   5.052
13369TIP3   OH240051   1.487   4.888   4.040
13369TIP3    H140052   1.479   4.898   3.945
13369TIP3    H240053   1.447   4.967   4.076
13370TIP3   OH240054   2.267   1.988   0.731
13370TIP3    H140055   2.285   1.950   0.817
13370TIP3    H240056   2.351   1.983   0.685
13371TIP3   OH240057   8.130   4.450   0.552
13371TIP3    H140058   8.193   4.453   0.480
13371TIP3    H240059   8.160   4.517   0.614
13372TIP3   OH240060   4.634   3.047   4.650
13372TIP3    H140061   4.608   3.105   4.722
13372TIP3    H240062   4.728   3.036   4.661
13373TIP3   OH240063   2.809   2.832   0.456
13373TIP3    H140064   2.816   2.886   0.535
13373TIP3    H240065   2.776   2.747   0.488
13374TIP3   OH240066   2.484   0.305   4.003
13374TIP3    H140067   2.478   0.265   4.089
13374TIP3    H240068   2.576   0.331   3.995
13375TIP3   OH240069   3.695   5.870   6.615
13375TIP3    H140070   3.631   5.918   6.668
13375TIP3    H240071   3.708   5.926   6.538
13376TIP3   OH240072   3.483   1.348   1.163
13376TIP3    H140073   3.568   1.311   1.187
13376TIP3    H240074   3.490   1.441   1.185
13377TIP3   OH240075   0.921   2.974   1.809
13377TIP3    H140076   0.928   2.984   1.903
13377TIP3    H240077   0.931   3.063   1.775
13378TIP3   OH240078   5.239   4.882   4.738
13378TIP3    H140079   5.256   4.791   4.713
13378TIP3    H240080   5.166   4.909   4.682
13379TIP3   OH240081   1.827   6.339   4.658
13379TIP3    H140082   1.819   6.325   4.753
13379TIP3    H240083   1.752   6.393   4.635
13380TIP3   OH240084   4.180   2.826   3.390
13380TIP3    H140085   4.160   2.756   3.452
13380TIP3    H240086   4.242   2.785   3.329
13381TIP3   OH240087   6.668   1.226   1.309
13381TIP3    H140088   6.675   1.158   1.242
13381TIP3    H240089   6.610   1.292   1.271
13382TIP3   OH240090   2.193   4.598   0.798
13382TIP3    H140091   2.255   4.614   0.869
13382TIP3    H240092   2.201   4.505   0.778
13383TIP3   OH240093   3.693   4.181   5.453
13383TIP3    H140094   3.634   4.140   5.389
13383TIP3    H240095   3.643   4.183   5.534
13384TIP3   OH240096   2.979   4.732   5.835
13384TIP3    H140097   2.984   4.637   5.822
13384TIP3    H240098   2.995   4.743   5.929
13385TIP3   OH240099   2.066   4.182   2.142
13385TIP3    H140100   2.139   4.178   2.203
13385TIP3    H240101   2.105   4.211   2.060
13386TIP3   OH240102   5.968   5.400   1.917
13386TIP3    H140103   6.023   5.339   1.868
13386TIP3    H240104   5.970   5.481   1.865
13387TIP3   OH240105   0.571   1.054   5.297
13387TIP3    H140106   0.537   0.964   5.305
13387TIP3    H240107   0.657   1.051   5.338
13388TIP3   OH240108   1.845   0.491   5.393
13388TIP3    H140109   1.897   0.506   5.472
13388TIP3    H240110   1.756   0.517   5.417
13389TIP3   OH240111   6.959   1.601   6.135
13389TIP3    H140112   6.969   1.585   6.041
13389TIP3    H240113   7.013   1.679   6.151
13390TIP3   OH240114   0.594   0.984   5.030
13390TIP3    H140115   0.670   0.957   5.082
13390TIP3    H240116   0.520   0.977   5.090
13391TIP3   OH240117   4.842   0.387   1.625
13391TIP3    H140118   4.792   0.363   1.547
13391TIP3    H240119   4.849   0.305   1.675
13392TIP3   OH240120   6.277   4.372   4.183
13392TIP3    H140121   6.304   4.435   4.250
13392TIP3    H240122   6.336   4.388   4.110
13393TIP3   OH240123   5.654   3.300   0.598
13393TIP3    H140124   5.724   3.362   0.621
13393TIP3    H240125   5.686   3.257   0.519
13394TIP3   OH240126   5.536   0.717   5.892
13394TIP3    H140127   5.496   0.796   5.855
13394TIP3    H240128   5.555   0.739   5.983
13395TIP3   OH240129   4.007   4.182   6.671
13395TIP3    H140130   3.926   4.232   6.662
13395TIP3    H240131   4.037   4.169   6.581
13396TIP3   OH240132   6.977   3.414   1.946
13396TIP3    H140133   6.923   3.424   1.868
13396TIP3    H240134   7.045   3.351   1.921
13397TIP3   OH240135   6.504   0.691   0.671
13397TIP3    H140136   6.463   0.605   0.677
13397TIP3    H240137   6.597   0.675   0.682
13398TIP3   OH240138   1.624   7.368   2.123
13398TIP3    H140139   1.627   7.297   2.058
13398TIP3    H240140   1.563   7.431   2.086
13399TIP3   OH240141   6.052   0.272   3.386
13399TIP3    H140142   6.111   0.344   3.366
13399TIP3    H240143   6.012   0.249   3.302
13400TIP3   OH240144   6.511   5.180   3.182
13400TIP3    H140145   6.583   5.166   3.120
13400TIP3    H240146   6.434   5.146   3.137
13401TIP3   OH240147   7.112   3.041   2.728
13401TIP3    H140148   7.038   2.980   2.726
13401TIP3    H240149   7.072   3.125   2.750
13402TIP3   OH240150   1.244   6.264   2.304
13402TIP3    H140151   1.257   6.318   2.382
13402TIP3    H240152   1.311   6.294   2.242
13403TIP3   OH240153   0.483   1.505   2.908
13403TIP3    H140154   0.437   1.513   2.992
13403TIP3    H240155   0.572   1.533   2.927
13404TIP3   OH240156   4.580   6.426   5.479
13404TIP3    H140157   4.504   6.473   5.512
13404TIP3    H240158   4.602   6.471   5.397
13405TIP3   OH240159   7.070   7.222   6.322
13405TIP3    H140160   6.993   7.218   6.265
13405TIP3    H240161   7.035   7.243   6.408
13406TIP3   OH240162   4.054   6.378   2.628
13406TIP3    H140163   3.963   6.401   2.650
13406TIP3    H240164   4.047   6.331   2.545
13407TIP3   OH240165   5.739   3.962   1.527
13407TIP3    H140166   5.740   3.877   1.570
13407TIP3    H240167   5.766   3.943   1.437
13408TIP3   OH240168   2.887   5.705   3.467
13408TIP3    H140169   2.861   5.681   3.556
13408TIP3    H240170   2.862   5.797   3.459
13409TIP3   OH240171   3.402   4.641   3.155
13409TIP3    H140172   3.396   4.572   3.089
13409TIP3    H240173   3.442   4.597   3.231
13410TIP3   OH240174   0.321   1.495   6.397
13410TIP3    H140175   0.328   1.585   6.364
13410TIP3    H240176   0.307   1.442   6.318
13411TIP3   OH240177   1.462   5.258   6.442
13411TIP3    H140178   1.450   5.188   6.377
13411TIP3    H240179   1.444   5.215   6.525
13412TIP3   OH240180   4.246   3.459   2.018
13412TIP3    H140181   4.198   3.432   1.940
13412TIP3    H240182   4.205   3.411   2.090
13413TIP3   OH240183   5.131   3.572   0.952
13413TIP3    H140184   5.076   3.496   0.932
13413TIP3    H240185   5.105   3.598   1.040
13414TIP3   OH240186   2.826   5.123   3.699
13414TIP3    H140187   2.820   5.147   3.606
13414TIP3    H240188   2.884   5.190   3.736
13415TIP3   OH240189   4.593   1.637   3.539
13415TIP3    H140190   4.538   1.703   3.496
13415TIP3    H240191   4.558   1.630   3.627
13416TIP3   OH240192   6.468   1.623   3.090
13416TIP3    H140193   6.556   1.657   3.107
13416TIP3    H240194   6.410   1.692   3.122
13417TIP3   OH240195   6.436   2.316   4.898
13417TIP3    H140196   6.502   2.319   4.829
13417TIP3    H240197   6.354   2.298   4.851
13418TIP3   OH240198   4.612   1.260   4.366
13418TIP3    H140199   4.667   1.227   4.437
13418TIP3    H240200   4.525   1.271   4.406
13419TIP3   OH240201   6.806   5.917   5.794
13419TIP3    H140202   6.745   5.989   5.803
13419TIP3    H240203   6.783   5.877   5.710
13420TIP3   OH240204   0.995   6.879   3.123
13420TIP3    H140205   0.925   6.815   3.135
13420TIP3    H240206   0.964   6.958   3.167
13421TIP3   OH240207   5.702   0.631   2.568
13421TIP3    H140208   5.711   0.656   2.476
13421TIP3    H240209   5.632   0.687   2.601
13422TIP3   OH240210   4.565   6.596   1.314
13422TIP3    H140211   4.632   6.540   1.353
13422TIP3    H240212   4.560   6.672   1.371
13423TIP3   OH240213   5.493   7.205   6.208
13423TIP3    H140214   5.588   7.213   6.223
13423TIP3    H240215   5.484   7.125   6.156
13424TIP3   OH240216   6.669   2.333   4.757
13424TIP3    H140217   6.740   2.324   4.693
13424TIP3    H240218   6.713   2.326   4.842
13425TIP3   OH240219   2.958   2.415   1.995
13425TIP3    H140220   2.944   2.334   1.946
13425TIP3    H240221   3.052   2.414   2.016
13426TIP3   OH240222   4.740   6.669   0.037
13426TIP3    H140223   4.743   6.754  -0.006
13426TIP3    H240224   4.810   6.672   0.103
13427TIP3   OH240225   0.527   2.786   3.579
13427TIP3    H140226   0.529   2.815   3.488
13427TIP3    H240227   0.466   2.846   3.622
13428TIP3   OH240228   7.310   0.868   0.381
13428TIP3    H140229   7.263   0.910   0.309
13428TIP3    H240230   7.318   0.777   0.354
13429TIP3   OH240231   2.110   4.011   4.009
13429TIP3    H140232   2.037   3.997   4.069
13429TIP3    H240233   2.169   3.938   4.026
13430TIP3   OH240234   6.617   2.179   5.122
13430TIP3    H140235   6.658   2.258   5.085
13430TIP3    H240236   6.545   2.159   5.063
13431TIP3   OH240237   0.837   7.530   0.559
13431TIP3    H140238   0.757   7.505   0.605
13431TIP3    H240239   0.830   7.487   0.474
13432TIP3   OH240240   4.103   6.091   4.773
13432TIP3    H140241   4.073   6.008   4.809
13432TIP3    H240242   4.185   6.070   4.729
13433TIP3   OH240243   8.049   6.233   1.686
13433TIP3    H140244   8.052   6.137   1.687
13433TIP3    H240245   8.131   6.259   1.728
13434TIP3   OH240246   6.160   4.409   2.075
13434TIP3    H140247   6.199   4.322   2.073
13434TIP3    H240248   6.079   4.398   2.124
13435TIP3   OH240249   2.604   0.121   4.202
13435TIP3    H140250   2.653   0.199   4.225
13435TIP3    H240251   2.629   0.056   4.268
13436TIP3   OH240252   7.509   0.095   1.144
13436TIP3    H140253   7.567   0.162   1.108
13436TIP3    H240254   7.440   0.145   1.188
13437TIP3   OH240255   2.366   0.334   4.295
13437TIP3    H140256   2.392   0.423   4.319
13437TIP3    H240257   2.270   0.337   4.296
13438TIP3   OH240258   6.249   3.972   6.341
13438TIP3    H140259   6.213   4.033   6.405
13438TIP3    H240260   6.341   3.996   6.335
13439TIP3   OH240261   0.587   7.251   4.317
13439TIP3    H140262   0.530   7.328   4.315
13439TIP3    H240263   0.648   7.266   4.244
13440TIP3   OH240264   7.635   6.928   5.001
13440TIP3    H140265   7.620   7.021   5.020
13440TIP3    H240266   7.590   6.882   5.072
13441TIP3   OH240267   3.400   7.042   6.017
13441TIP3    H140268   3.409   6.948   6.002
13441TIP3    H240269   3.486   7.070   6.049
13442TIP3   OH240270   7.091   5.250   2.472
13442TIP3    H140271   7.176   5.206   2.475
13442TIP3    H240272   7.076   5.268   2.380
13443TIP3   OH240273   1.300   4.369   0.953
13443TIP3    H140274   1.260   4.359   1.039
13443TIP3    H240275   1.237   4.422   0.904
13444TIP3   OH240276   7.032   1.283   3.778
13444TIP3    H140277   7.072   1.197   3.764
13444TIP3    H240278   6.980   1.299   3.699
13445TIP3   OH240279   7.342   0.601   5.471
13445TIP3    H140280   7.357   0.634   5.560
13445TIP3    H240281   7.330   0.506   5.482
13446TIP3   OH240282   8.159   5.506   4.177
13446TIP3    H140283   8.243   5.550   4.163
13446TIP3    H240284   8.104   5.573   4.218
13447TIP3   OH240285   2.278   1.994   1.598
13447TIP3    H140286   2.192   1.952   1.588
13447TIP3    H240287   2.291   2.000   1.692
13448TIP3   OH240288   4.980   0.299   0.207
13448TIP3    H140289   5.010   0.212   0.233
13448TIP3    H240290   4.885   0.292   0.200
13449TIP3   OH240291   5.035   7.011   2.214
13449TIP3    H140292   5.058   6.982   2.302
13449TIP3    H240293   5.119   7.027   2.172
13450TIP3   OH240294   8.103   4.662   5.711
13450TIP3    H140295   8.119   4.607   5.787
13450TIP3    H240296   8.143   4.615   5.638
13451TIP3   OH240297   8.273   1.696   2.848
13451TIP3    H140298   8.259   1.607   2.817
13451TIP3    H240299   8.191   1.742   2.829
13452TIP3   OH240300   1.919   5.614   3.903
13452TIP3    H140301   1.897   5.667   3.979
13452TIP3    H240302   1.859   5.540   3.907
13453TIP3   OH240303   4.112   4.398   5.692
13453TIP3    H140304   4.024   4.424   5.716
13453TIP3    H240305   4.136   4.332   5.758
13454TIP3   OH240306   7.420   1.085   2.611
13454TIP3    H140307   7.335   1.129   2.618
13454TIP3    H240308   7.464   1.129   2.539
13455TIP3   OH240309   2.669   3.103   6.679
13455TIP3    H140310   2.679   3.008   6.680
13455TIP3    H240311   2.626   3.121   6.595
13456TIP3   OH240312   4.756   5.283   5.380
13456TIP3    H140313   4.809   5.362   5.385
13456TIP3    H240314   4.777   5.234   5.459
13457TIP3   OH240315   0.935   6.666   4.479
13457TIP3    H140316   0.945   6.652   4.385
13457TIP3    H240317   0.840   6.678   4.492
13458TIP3   OH240318   1.826   1.492   5.262
13458TIP3    H140319   1.879   1.412   5.260
13458TIP3    H240320   1.837   1.526   5.351
13459TIP3   OH240321   1.940   2.336   1.362
13459TIP3    H140322   2.028   2.358   1.392
13459TIP3    H240323   1.941   2.356   1.269
13460TIP3   OH240324   5.428   1.320   4.855
13460TIP3    H140325   5.478   1.382   4.909
13460TIP3    H240326   5.494   1.281   4.797
13461TIP3   OH240327   1.885   2.051   5.627
13461TIP3    H140328   1.851   1.962   5.621
13461TIP3    H240329   1.840   2.099   5.558
13462TIP3   OH240330   5.720   1.620   3.624
13462TIP3    H140331   5.771   1.581   3.553
13462TIP3    H240332   5.737   1.714   3.617
13463TIP3   OH240333   3.971   0.058   5.861
13463TIP3    H140334   3.920   0.106   5.926
13463TIP3    H240335   3.947  -0.034   5.874
13464TIP3   OH240336   6.319   6.758   3.246
13464TIP3    H140337   6.387   6.730   3.307
13464TIP3    H240338   6.351   6.732   3.159
13465TIP3   OH240339   5.623   4.517   3.359
13465TIP3    H140340   5.604   4.471   3.277
13465TIP3    H240341   5.553   4.581   3.368
13466TIP3   OH240342   6.363   3.121   1.934
13466TIP3    H140343   6.297   3.111   1.865
13466TIP3    H240344   6.441   3.151   1.889
13467TIP3   OH240345   1.447   1.519   0.679
13467TIP3    H140346   1.434   1.425   0.690
13467TIP3    H240347   1.418   1.537   0.589
13468TIP3   OH240348   1.998   1.260   5.190
13468TIP3    H140349   2.093   1.265   5.195
13468TIP3    H240350   1.976   1.310   5.111
13469TIP3   OH240351   7.185   4.547   1.805
13469TIP3    H140352   7.105   4.556   1.752
13469TIP3    H240353   7.252   4.593   1.755
13470TIP3   OH240354   6.855   0.985   6.630
13470TIP3    H140355   6.883   1.053   6.569
13470TIP3    H240356   6.917   0.913   6.616
13471TIP3   OH240357   0.054   2.656   0.777
13471TIP3    H140358  -0.027   2.644   0.826
13471TIP3    H240359   0.042   2.739   0.731
13472TIP3   OH240360   3.572   2.698   2.615
13472TIP3    H140361   3.568   2.780   2.664
13472TIP3    H240362   3.514   2.712   2.540
13473TIP3   OH240363   7.387   5.804   3.661
13473TIP3    H140364   7.376   5.880   3.603
13473TIP3    H240365   7.446   5.835   3.730
13474TIP3   OH240366   3.517   1.798   4.424
13474TIP3    H140367   3.470   1.850   4.359
13474TIP3    H240368   3.519   1.709   4.388
13475TIP3   OH240369   5.899   1.291   6.366
13475TIP3    H140370   5.840   1.232   6.414
13475TIP3    H240371   5.962   1.233   6.324
13476TIP3   OH240372   2.314   0.138   5.037
13476TIP3    H140373   2.367   0.103   5.108
13476TIP3    H240374   2.249   0.069   5.019
13477TIP3   OH240375   8.157   5.857   3.297
13477TIP3    H140376   8.172   5.903   3.380
13477TIP3    H240377   8.178   5.766   3.316
13478TIP3   OH240378   3.089   1.017   5.636
13478TIP3    H140379   3.057   1.077   5.570
13478TIP3    H240380   3.010   0.986   5.682
13479TIP3   OH240381   5.506   3.967   4.898
13479TIP3    H140382   5.492   3.873   4.900
13479TIP3    H240383   5.483   3.993   4.809
13480TIP3   OH240384   8.030   5.198   3.444
13480TIP3    H140385   8.062   5.287   3.460
13480TIP3    H240386   7.946   5.211   3.399
13481TIP3   OH240387   5.472   3.845   1.713
13481TIP3    H140388   5.429   3.846   1.627
13481TIP3    H240389   5.557   3.804   1.695
13482TIP3   OH240390   1.951   0.234   6.190
13482TIP3    H140391   1.865   0.226   6.233
13482TIP3    H240392   2.006   0.170   6.235
13483TIP3   OH240393   5.905   1.692   5.704
13483TIP3    H140394   5.997   1.699   5.729
13483TIP3    H240395   5.900   1.608   5.657
13484TIP3   OH240396   2.123   4.952   5.111
13484TIP3    H140397   2.169   4.949   5.027
13484TIP3    H240398   2.124   5.044   5.135
13485TIP3   OH240399   3.575   6.973   0.302
13485TIP3    H140400   3.577   6.880   0.325
13485TIP3    H240401   3.658   7.008   0.335
13486TIP3   OH240402   5.483   0.070   6.055
13486TIP3    H140403   5.476   0.088   5.961
13486TIP3    H240404   5.392   0.063   6.084
13487TIP3   OH240405   5.598   4.693   0.844
13487TIP3    H140406   5.578   4.602   0.863
13487TIP3    H240407   5.585   4.702   0.750
13488TIP3   OH240408   0.395   5.160   1.034
13488TIP3    H140409   0.426   5.094   0.972
13488TIP3    H240410   0.300   5.149   1.035
13489TIP3   OH240411   6.084   7.680   5.520
13489TIP3    H140412   6.016   7.614   5.537
13489TIP3    H240413   6.118   7.658   5.433
13490TIP3   OH240414   1.754   1.722   5.006
13490TIP3    H140415   1.715   1.803   5.039
13490TIP3    H240416   1.832   1.750   4.959
13491TIP3   OH240417   3.669   3.335   5.988
13491TIP3    H140418   3.740   3.272   5.979
13491TIP3    H240419   3.712   3.417   6.012
13492TIP3   OH240420   7.109   6.792   1.559
13492TIP3    H140421   7.027   6.746   1.580
13492TIP3    H240422   7.081   6.876   1.524
13493TIP3   OH240423   6.117   0.124   5.975
13493TIP3    H140424   6.053   0.107   5.906
13493TIP3    H240425   6.112   0.048   6.032
13494TIP3   OH240426   0.163   6.338   1.501
13494TIP3    H140427   0.180   6.370   1.413
13494TIP3    H240428   0.125   6.251   1.488
13495TIP3   OH240429   2.675   0.818   1.018
13495TIP3    H140430   2.621   0.773   1.083
13495TIP3    H240431   2.760   0.831   1.061
13496TIP3   OH240432   1.638   3.427   5.732
13496TIP3    H140433   1.649   3.347   5.784
13496TIP3    H240434   1.650   3.398   5.641
13497TIP3   OH240435   2.942   6.351   4.518
13497TIP3    H140436   2.963   6.407   4.443
13497TIP3    H240437   3.010   6.284   4.518
13498TIP3   OH240438   1.867   5.027   1.599
13498TIP3    H140439   1.892   5.082   1.525
13498TIP3    H240440   1.945   5.027   1.656
13499TIP3   OH240441   1.070   6.529   2.950
13499TIP3    H140442   1.091   6.473   3.025
13499TIP3    H240443   1.066   6.617   2.986
13500TIP3   OH240444   6.977   1.569   2.533
13500TIP3    H140445   6.956   1.564   2.440
13500TIP3    H240446   7.072   1.555   2.537
13501TIP3   OH240447   6.301   2.313   0.921
13501TIP3    H140448   6.265   2.263   0.848
13501TIP3    H240449   6.383   2.350   0.888
13502TIP3   OH240450   7.228   3.934   2.765
13502TIP3    H140451   7.311   3.970   2.734
13502TIP3    H240452   7.231   3.842   2.742
13503TIP3   OH240453   4.968   4.888   3.473
13503TIP3    H140454   4.874   4.870   3.472
13503TIP3    H240455   4.976   4.965   3.529
13504TIP3   OH240456   2.781   2.482   4.848
13504TIP3    H140457   2.697   2.528   4.851
13504TIP3    H240458   2.758   2.391   4.864
13505TIP3   OH240459   3.286   6.374   1.579
13505TIP3    H140460   3.269   6.280   1.571
13505TIP3    H240461   3.242   6.413   1.503
13506TIP3   OH240462   3.151   6.602   2.713
13506TIP3    H140463   3.095   6.679   2.720
13506TIP3    H240464   3.100   6.540   2.662
13507TIP3   OH240465   5.438   7.620   2.683
13507TIP3    H140466   5.520   7.653   2.645
13507TIP3    H240467   5.372   7.635   2.615
13508TIP3   OH240468   1.069   1.050   5.010
13508TIP3    H140469   0.995   1.024   4.955
13508TIP3    H240470   1.145   1.008   4.971
13509TIP3   OH240471   5.875   3.033   2.330
13509TIP3    H140472   5.790   3.076   2.320
13509TIP3    H240473   5.894   2.998   2.242
13510TIP3   OH240474   2.908   0.694   3.176
13510TIP3    H140475   2.910   0.628   3.245
13510TIP3    H240476   2.858   0.654   3.105
13511TIP3   OH240477   2.584   5.577   4.178
13511TIP3    H140478   2.492   5.577   4.204
13511TIP3    H240479   2.623   5.649   4.227
13512TIP3   OH240480   7.726   2.525   3.563
13512TIP3    H140481   7.651   2.499   3.509
13512TIP3    H240482   7.719   2.621   3.567
13513TIP3   OH240483   6.498   2.766   5.568
13513TIP3    H140484   6.494   2.720   5.652
13513TIP3    H240485   6.514   2.697   5.504
13514TIP3   OH240486   7.535   2.472   0.230
13514TIP3    H140487   7.612   2.529   0.225
13514TIP3    H240488   7.466   2.527   0.266
13515TIP3   OH240489   7.760   5.725   3.492
13515TIP3    H140490   7.819   5.790   3.531
13515TIP3    H240491   7.799   5.641   3.515
13516TIP3   OH240492   6.732   4.350   6.567
13516TIP3    H140493   6.662   4.389   6.515
13516TIP3    H240494   6.810   4.402   6.546
13517TIP3   OH240495   5.341   6.837   2.873
13517TIP3    H140496   5.253   6.826   2.910
13517TIP3    H240497   5.393   6.766   2.911
13518TIP3   OH240498   8.040   2.746   5.791
13518TIP3    H140499   8.123   2.788   5.811
13518TIP3    H240500   8.041   2.666   5.843
13519TIP3   OH240501   5.105   5.677   6.392
13519TIP3    H140502   5.091   5.668   6.297
13519TIP3    H240503   5.199   5.693   6.401
13520TIP3   OH240504   2.525   0.958   2.543
13520TIP3    H140505   2.545   0.876   2.588
13520TIP3    H240506   2.450   0.993   2.590
13521TIP3   OH240507   7.443   4.497   3.163
13521TIP3    H140508   7.460   4.527   3.252
13521TIP3    H240509   7.347   4.486   3.160
13522TIP3   OH240510   7.140   7.372   1.606
13522TIP3    H140511   7.091   7.341   1.530
13522TIP3    H240512   7.114   7.464   1.615
13523TIP3   OH240513   1.118   1.886   2.840
13523TIP3    H140514   1.191   1.831   2.871
13523TIP3    H240515   1.108   1.861   2.748
13524TIP3   OH240516   7.965   3.253   4.293
13524TIP3    H140517   8.022   3.185   4.258
13524TIP3    H240518   8.015   3.293   4.364
13525TIP3   OH240519   0.236   1.576   4.036
13525TIP3    H140520   0.275   1.648   3.986
13525TIP3    H240521   0.270   1.588   4.125
13526TIP3   OH240522   5.925   3.003   6.057
13526TIP3    H140523   5.955   2.914   6.075
13526TIP3    H240524   6.004   3.049   6.028
13527TIP3   OH240525   7.914   7.094   2.811
13527TIP3    H140526   7.834   7.093   2.864
13527TIP3    H240527   7.913   7.180   2.769
13528TIP3   OH240528   6.980   3.314   5.193
13528TIP3    H140529   6.965   3.405   5.170
13528TIP3    H240530   6.902   3.289   5.243
13529TIP3   OH240531   3.037   1.266   2.232
13529TIP3    H140532   3.047   1.361   2.223
13529TIP3    H240533   2.942   1.252   2.236
13530TIP3   OH240534   6.278   4.549   2.915
13530TIP3    H140535   6.361   4.518   2.878
13530TIP3    H240536   6.301   4.580   3.003
13531TIP3   OH240537   1.221   2.418   4.071
13531TIP3    H140538   1.236   2.387   4.161
13531TIP3    H240539   1.128   2.403   4.056
13532TIP3   OH240540   6.973   3.596   2.713
13532TIP3    H140541   6.973   3.635   2.626
13532TIP3    H240542   7.058   3.622   2.750
13533TIP3   OH240543   8.254   7.092   2.134
13533TIP3    H140544   8.211   7.111   2.050
13533TIP3    H240545   8.329   7.038   2.110
13534TIP3   OH240546   1.877   5.274   6.067
13534TIP3    H140547   1.796   5.237   6.033
13534TIP3    H240548   1.946   5.233   6.014
13535TIP3   OH240549   2.075   1.393   5.559
13535TIP3    H140550   2.162   1.412   5.523
13535TIP3    H240551   2.049   1.312   5.516
13536TIP3   OH240552   3.766   1.883   4.529
13536TIP3    H140553   3.738   1.960   4.578
13536TIP3    H240554   3.686   1.853   4.484
13537TIP3   OH240555   6.511   3.528   5.458
13537TIP3    H140556   6.471   3.489   5.536
13537TIP3    H240557   6.576   3.589   5.493
13538TIP3   OH240558   4.781   1.670   2.705
13538TIP3    H140559   4.793   1.715   2.622
13538TIP3    H240560   4.780   1.577   2.682
13539TIP3   OH240561   3.339   2.939   5.041
13539TIP3    H140562   3.411   2.878   5.051
13539TIP3    H240563   3.317   2.935   4.948
13540TIP3   OH240564   5.123   4.638   0.966
13540TIP3    H140565   5.153   4.581   1.037
13540TIP3    H240566   5.063   4.699   1.009
13541TIP3   OH240567   6.782   2.495   6.363
13541TIP3    H140568   6.755   2.408   6.392
13541TIP3    H240569   6.714   2.554   6.395
13542TIP3   OH240570   5.513   1.390   2.248
13542TIP3    H140571   5.457   1.419   2.176
13542TIP3    H240572   5.461   1.325   2.295
13543TIP3   OH240573   7.111   3.110   5.046
13543TIP3    H140574   7.067   3.191   5.073
13543TIP3    H240575   7.041   3.046   5.038
13544TIP3   OH240576   7.312   6.157   4.536
13544TIP3    H140577   7.241   6.176   4.475
13544TIP3    H240578   7.371   6.100   4.486
13545TIP3   OH240579   8.109   4.970   3.925
13545TIP3    H140580   8.151   5.032   3.984
13545TIP3    H240581   8.019   4.963   3.958
13546TIP3   OH240582   6.653   5.822   3.365
13546TIP3    H140583   6.601   5.836   3.444
13546TIP3    H240584   6.719   5.757   3.392
13547TIP3   OH240585   7.131   2.831   3.582
13547TIP3    H140586   7.119   2.806   3.490
13547TIP3    H240587   7.201   2.773   3.613
13548TIP3   OH240588   7.447   3.165   5.942
13548TIP3    H140589   7.385   3.200   6.006
13548TIP3    H240590   7.533   3.178   5.982
13549TIP3   OH240591   7.915   5.953   3.723
13549TIP3    H140592   7.968   5.873   3.731
13549TIP3    H240593   7.879   5.966   3.811
13550TIP3   OH240594   4.363   6.731   4.655
13550TIP3    H140595   4.294   6.699   4.713
13550TIP3    H240596   4.340   6.822   4.638
13551TIP3   OH240597   0.087   1.942   3.665
13551TIP3    H140598   0.150   1.963   3.596
13551TIP3    H240599   0.015   2.004   3.651
13552TIP3   OH240600   1.798   2.779   5.851
13552TIP3    H140601   1.844   2.695   5.858
13552TIP3    H240602   1.829   2.817   5.769
13553TIP3   OH240603   2.019   0.283   2.821
13553TIP3    H140604   1.992   0.303   2.910
13553TIP3    H240605   2.084   0.349   2.799
13554TIP3   OH240606   0.640   4.320   4.750
13554TIP3    H140607   0.697   4.245   4.764
13554TIP3    H240608   0.637   4.364   4.836
13555TIP3   OH240609   4.671   0.644   5.838
13555TIP3    H140610   4.637   0.627   5.926
13555TIP3    H240611   4.640   0.732   5.817
13556TIP3   OH240612   0.828   4.080   3.876
13556TIP3    H140613   0.821   4.068   3.971
13556TIP3    H240614   0.759   4.144   3.855
13557TIP3   OH240615   6.397   6.633   0.967
13557TIP3    H140616   6.402   6.729   0.965
13557TIP3    H240617   6.489   6.605   0.971
13558TIP3   OH240618   2.955   0.398   1.147
13558TIP3    H140619   2.926   0.447   1.069
13558TIP3    H240620   3.044   0.370   1.126
13559TIP3   OH240621   3.501   3.814   3.261
13559TIP3    H140622   3.561   3.821   3.335
13559TIP3    H240623   3.455   3.897   3.259
13560TIP3   OH240624   7.973   7.024   0.244
13560TIP3    H140625   7.963   7.058   0.156
13560TIP3    H240626   7.902   6.961   0.255
13561TIP3   OH240627   8.043   0.935   2.364
13561TIP3    H140628   7.948   0.943   2.374
13561TIP3    H240629   8.061   0.843   2.383
13562TIP3   OH240630   2.135   1.108   1.372
13562TIP3    H140631   2.209   1.160   1.403
13562TIP3    H240632   2.074   1.173   1.337
13563TIP3   OH240633   6.354   2.869   2.552
13563TIP3    H140634   6.394   2.952   2.578
13563TIP3    H240635   6.303   2.890   2.474
13564TIP3   OH240636   2.593   6.179   3.162
13564TIP3    H140637   2.650   6.107   3.133
13564TIP3    H240638   2.639   6.218   3.236
13565TIP3   OH240639   2.311   2.140   3.346
13565TIP3    H140640   2.220   2.113   3.358
13565TIP3    H240641   2.319   2.155   3.252
13566TIP3   OH240642   2.173   1.014   5.148
13566TIP3    H140643   2.217   1.099   5.148
13566TIP3    H240644   2.220   0.963   5.083
13567TIP3   OH240645   1.209   1.150   0.981
13567TIP3    H140646   1.178   1.157   0.891
13567TIP3    H240647   1.130   1.137   1.033
13568TIP3   OH240648   0.015   5.571   6.562
13568TIP3    H140649  -0.008   5.490   6.608
13568TIP3    H240650  -0.017   5.641   6.618
13569TIP3   OH240651   3.311   7.744   6.173
13569TIP3    H140652   3.377   7.714   6.235
13569TIP3    H240653   3.231   7.699   6.199
13570TIP3   OH240654   8.194   0.046   0.723
13570TIP3    H140655   8.238   0.131   0.714
13570TIP3    H240656   8.244   0.000   0.790
13571TIP3   OH240657   0.628   3.473   3.563
13571TIP3    H140658   0.593   3.553   3.522
13571TIP3    H240659   0.629   3.409   3.493
13572TIP3   OH240660   7.472   3.284   5.669
13572TIP3    H140661   7.428   3.214   5.718
13572TIP3    H240662   7.526   3.328   5.734
13573TIP3   OH240663   3.065   1.083   4.417
13573TIP3    H140664   3.094   1.174   4.422
13573TIP3    H240665   3.100   1.052   4.334
13574TIP3   OH240666   5.474   2.109   0.321
13574TIP3    H140667   5.446   2.196   0.294
13574TIP3    H240668   5.569   2.109   0.312
13575TIP3   OH240669   6.172   7.227   4.843
13575TIP3    H140670   6.092   7.214   4.794
13575TIP3    H240671   6.172   7.157   4.908
13576TIP3   OH240672   6.721   0.778   4.074
13576TIP3    H140673   6.641   0.763   4.025
13576TIP3    H240674   6.773   0.836   4.019
13577TIP3   OH240675   6.271   0.518   1.684
13577TIP3    H140676   6.337   0.453   1.663
13577TIP3    H240677   6.293   0.593   1.629
13578TIP3   OH240678   4.836   0.106   3.829
13578TIP3    H140679   4.909   0.155   3.865
13578TIP3    H240680   4.868   0.073   3.745
13579TIP3   OH240681   7.735   3.540   1.956
13579TIP3    H140682   7.661   3.568   2.010
13579TIP3    H240683   7.723   3.588   1.873
13580TIP3   OH240684   3.566   3.896   1.887
13580TIP3    H140685   3.534   3.907   1.976
13580TIP3    H240686   3.634   3.829   1.894
13581TIP3   OH240687   7.608   0.218   5.861
13581TIP3    H140688   7.613   0.195   5.954
13581TIP3    H240689   7.652   0.146   5.816
13582TIP3   OH240690   7.723   6.086   0.019
13582TIP3    H140691   7.808   6.129   0.007
13582TIP3    H240692   7.722   6.059   0.110
13583TIP3   OH240693   0.286   7.481   2.692
13583TIP3    H140694   0.248   7.412   2.637
13583TIP3    H240695   0.287   7.559   2.636
13584TIP3   OH240696   6.609   1.939   1.003
13584TIP3    H140697   6.530   1.912   0.955
13584TIP3    H240698   6.581   1.941   1.094
13585TIP3   OH240699   3.305   0.591   5.809
13585TIP3    H140700   3.213   0.563   5.813
13585TIP3    H240701   3.343   0.539   5.739
13586TIP3   OH240702   2.457   6.424   1.797
13586TIP3    H140703   2.437   6.456   1.885
13586TIP3    H240704   2.376   6.436   1.748
13587TIP3   OH240705   6.909   3.621   0.465
13587TIP3    H140706   6.963   3.560   0.414
13587TIP3    H240707   6.902   3.699   0.409
13588TIP3   OH240708   2.687   2.450   2.435
13588TIP3    H140709   2.738   2.500   2.498
13588TIP3    H240710   2.722   2.476   2.350
13589TIP3   OH240711   2.114   0.133   4.073
13589TIP3    H140712   2.200   0.108   4.106
13589TIP3    H240713   2.081   0.196   4.136
13590TIP3   OH240714   4.536   5.558   0.829
13590TIP3    H140715   4.554   5.525   0.917
13590TIP3    H240716   4.458   5.510   0.800
13591TIP3   OH240717   7.126   4.301   0.346
13591TIP3    H140718   7.057   4.343   0.398
13591TIP3    H240719   7.116   4.208   0.363
13592TIP3   OH240720   2.011   0.735   0.761
13592TIP3    H140721   2.042   0.816   0.721
13592TIP3    H240722   1.965   0.763   0.840
13593TIP3   OH240723   2.443   1.901   5.447
13593TIP3    H140724   2.514   1.961   5.426
13593TIP3    H240725   2.433   1.846   5.369
13594TIP3   OH240726   7.627   0.877   2.067
13594TIP3    H140727   7.641   0.784   2.088
13594TIP3    H240728   7.555   0.878   2.005
13595TIP3   OH240729   0.983   1.449   1.256
13595TIP3    H140730   0.892   1.449   1.285
13595TIP3    H240731   0.994   1.366   1.210
13596TIP3   OH240732   0.493   3.546   1.745
13596TIP3    H140733   0.432   3.619   1.734
13596TIP3    H240734   0.441   3.468   1.723
13597TIP3   OH240735   0.142   5.753   5.065
13597TIP3    H140736   0.172   5.662   5.068
13597TIP3    H240737   0.221   5.804   5.049
13598TIP3   OH240738   7.837   3.061   4.082
13598TIP3    H140739   7.879   2.977   4.063
13598TIP3    H240740   7.908   3.125   4.075
13599TIP3   OH240741   1.388   0.838   1.382
13599TIP3    H140742   1.435   0.774   1.330
13599TIP3    H240743   1.326   0.786   1.435
13600TIP3   OH240744   3.829   3.050   5.407
13600TIP3    H140745   3.735   3.034   5.398
13600TIP3    H240746   3.868   2.963   5.415
13601TIP3   OH240747   3.000   6.409   2.081
13601TIP3    H140748   2.944   6.486   2.094
13601TIP3    H240749   3.039   6.393   2.167
13602TIP3   OH240750   6.731   0.240   1.135
13602TIP3    H140751   6.660   0.286   1.179
13602TIP3    H240752   6.810   0.270   1.180
13603TIP3   OH240753   2.390   4.827   6.026
13603TIP3    H140754   2.404   4.773   6.104
13603TIP3    H240755   2.297   4.846   6.026
13604TIP3   OH240756   5.867   7.375   1.501
13604TIP3    H140757   5.773   7.392   1.502
13604TIP3    H240758   5.883   7.334   1.416
13605TIP3   OH240759   3.863   0.729   5.560
13605TIP3    H140760   3.810   0.651   5.576
13605TIP3    H240761   3.804   0.803   5.579
13606TIP3   OH240762   3.973   7.018   3.981
13606TIP3    H140763   3.979   6.962   4.058
13606TIP3    H240764   3.902   7.080   4.002
13607TIP3   OH240765   6.826   1.175   3.530
13607TIP3    H140766   6.820   1.080   3.523
13607TIP3    H240767   6.794   1.208   3.446
13608TIP3   OH240768   1.780   5.319   6.678
13608TIP3    H140769   1.832   5.251   6.721
13608TIP3    H240770   1.724   5.354   6.747
13609TIP3   OH240771   6.154   6.122   1.338
13609TIP3    H140772   6.235   6.073   1.349
13609TIP3    H240773   6.086   6.054   1.333
13610TIP3   OH240774   5.608   6.649   0.870
13610TIP3    H140775   5.528   6.697   0.892
13610TIP3    H240776   5.661   6.713   0.822
13611TIP3   OH240777   3.451   3.889   2.131
13611TIP3    H140778   3.372   3.914   2.179
13611TIP3    H240779   3.519   3.947   2.166
13612TIP3   OH240780   7.255   3.995   4.071
13612TIP3    H140781   7.331   3.961   4.119
13612TIP3    H240782   7.247   4.086   4.100
13613TIP3   OH240783   0.621   7.711   5.529
13613TIP3    H140784   0.585   7.691   5.443
13613TIP3    H240785   0.604   7.632   5.581
13614TIP3   OH240786   1.381   5.711   3.878
13614TIP3    H140787   1.343   5.693   3.964
13614TIP3    H240788   1.309   5.747   3.827
13615TIP3   OH240789   5.170   6.702   4.592
13615TIP3    H140790   5.117   6.622   4.601
13615TIP3    H240791   5.189   6.707   4.498
13616TIP3   OH240792   5.942   3.774   4.491
13616TIP3    H140793   5.871   3.825   4.530
13616TIP3    H240794   5.958   3.703   4.554
13617TIP3   OH240795   2.570   1.319   3.502
13617TIP3    H140796   2.663   1.314   3.480
13617TIP3    H240797   2.569   1.349   3.593
13618TIP3   OH240798   3.591   3.193   4.668
13618TIP3    H140799   3.587   3.119   4.607
13618TIP3    H240800   3.673   3.237   4.646
13619TIP3   OH240801   2.329   7.108   1.666
13619TIP3    H140802   2.287   7.162   1.599
13619TIP3    H240803   2.405   7.070   1.621
13620TIP3   OH240804   4.173   0.543   0.123
13620TIP3    H140805   4.085   0.516   0.096
13620TIP3    H240806   4.160   0.588   0.206
13621TIP3   OH240807   8.021   2.074   6.517
13621TIP3    H140808   8.061   2.051   6.601
13621TIP3    H240809   8.036   2.169   6.510
13622TIP3   OH240810   4.849   0.910   6.538
13622TIP3    H140811   4.931   0.937   6.581
13622TIP3    H240812   4.806   0.854   6.603
13623TIP3   OH240813   5.111   1.509   5.861
13623TIP3    H140814   5.066   1.535   5.942
13623TIP3    H240815   5.119   1.591   5.812
13624TIP3   OH240816   1.919   1.688   3.716
13624TIP3    H140817   1.987   1.751   3.738
13624TIP3    H240818   1.924   1.622   3.786
13625TIP3   OH240819   3.865   0.458   0.264
13625TIP3    H140820   3.811   0.535   0.246
13625TIP3    H240821   3.848   0.399   0.192
13626TIP3   OH240822   1.340   0.397   2.072
13626TIP3    H140823   1.402   0.468   2.054
13626TIP3    H240824   1.257   0.443   2.090
13627TIP3   OH240825   7.588   0.867   5.320
13627TIP3    H140826   7.557   0.873   5.410
13627TIP3    H240827   7.556   0.948   5.279
13628TIP3   OH240828   0.697   0.321   1.059
13628TIP3    H140829   0.682   0.379   1.134
13628TIP3    H240830   0.698   0.379   0.983
13629TIP3   OH240831   4.591   7.190   2.750
13629TIP3    H140832   4.587   7.130   2.676
13629TIP3    H240833   4.549   7.270   2.719
13630TIP3   OH240834   1.729   1.568   5.772
13630TIP3    H140835   1.635   1.555   5.782
13630TIP3    H240836   1.767   1.524   5.848
13631TIP3   OH240837   1.646   7.123   5.000
13631TIP3    H140838   1.559   7.161   4.999
13631TIP3    H240839   1.682   7.147   5.086
13632TIP3   OH240840   4.402   2.184   4.713
13632TIP3    H140841   4.452   2.197   4.794
13632TIP3    H240842   4.311   2.178   4.742
13633TIP3   OH240843   5.414   7.170   3.320
13633TIP3    H140844   5.488   7.222   3.288
13633TIP3    H240845   5.442   7.079   3.308
13634TIP3   OH240846   1.094   1.329   3.215
13634TIP3    H140847   1.176   1.280   3.206
13634TIP3    H240848   1.121   1.420   3.229
13635TIP3   OH240849   2.162   0.553   1.621
13635TIP3    H140850   2.097   0.622   1.632
13635TIP3    H240851   2.188   0.559   1.529
13636TIP3   OH240852   7.642   5.915   2.716
13636TIP3    H140853   7.694   5.870   2.782
13636TIP3    H240854   7.552   5.905   2.745
13637TIP3   OH240855   2.149   2.228   0.879
13637TIP3    H140856   2.200   2.153   0.848
13637TIP3    H240857   2.097   2.254   0.803
13638TIP3   OH240858   4.963   2.918   1.843
13638TIP3    H140859   5.027   2.958   1.903
13638TIP3    H240860   5.016   2.885   1.770
13639TIP3   OH240861   5.723   5.318   4.507
13639TIP3    H140862   5.664   5.253   4.545
13639TIP3    H240863   5.785   5.338   4.577
13640TIP3   OH240864   3.775   3.949   6.744
13640TIP3    H140865   3.851   3.992   6.784
13640TIP3    H240866   3.773   3.983   6.654
13641TIP3   OH240867   6.765   6.066   3.266
13641TIP3    H140868   6.723   5.980   3.263
13641TIP3    H240869   6.781   6.082   3.359
13642TIP3   OH240870   7.358   6.743   0.687
13642TIP3    H140871   7.302   6.794   0.629
13642TIP3    H240872   7.407   6.810   0.736
13643TIP3   OH240873   2.199   0.918   6.799
13643TIP3    H140874   2.254   0.907   6.722
13643TIP3    H240875   2.110   0.928   6.764
13644TIP3   OH240876   6.419   4.077   1.463
13644TIP3    H140877   6.448   4.013   1.399
13644TIP3    H240878   6.367   4.140   1.413
13645TIP3   OH240879   6.751   3.363   0.226
13645TIP3    H140880   6.797   3.344   0.307
13645TIP3    H240881   6.663   3.390   0.254
13646TIP3   OH240882   0.464   6.518   0.223
13646TIP3    H140883   0.376   6.531   0.257
13646TIP3    H240884   0.517   6.501   0.301
13647TIP3   OH240885   1.658   3.326   0.560
13647TIP3    H140886   1.731   3.386   0.569
13647TIP3    H240887   1.657   3.302   0.467
13648TIP3   OH240888   4.673   7.603   2.974
13648TIP3    H140889   4.602   7.660   3.003
13648TIP3    H240890   4.639   7.514   2.988
13649TIP3   OH240891   7.062   7.107   0.240
13649TIP3    H140892   7.137   7.153   0.203
13649TIP3    H240893   7.012   7.077   0.164
13650TIP3   OH240894   0.737   3.405   1.638
13650TIP3    H140895   0.690   3.484   1.663
13650TIP3    H240896   0.681   3.364   1.572
13651TIP3   OH240897   2.383   6.846   4.910
13651TIP3    H140898   2.356   6.832   5.000
13651TIP3    H240899   2.315   6.902   4.872
13652TIP3   OH240900   4.198   6.374   3.425
13652TIP3    H140901   4.286   6.397   3.454
13652TIP3    H240902   4.149   6.361   3.507
13653TIP3   OH240903   1.442   4.646   4.161
13653TIP3    H140904   1.457   4.726   4.111
13653TIP3    H240905   1.356   4.616   4.133
13654TIP3   OH240906   0.684   4.091   3.455
13654TIP3    H140907   0.712   4.175   3.492
13654TIP3    H240908   0.707   4.027   3.522
13655TIP3   OH240909   3.564   7.042   4.488
13655TIP3    H140910   3.485   7.093   4.508
13655TIP3    H240911   3.603   7.087   4.412
13656TIP3   OH240912   6.978   6.894   2.809
13656TIP3    H140913   7.066   6.925   2.786
13656TIP3    H240914   6.956   6.831   2.740
13657TIP3   OH240915   7.125   6.079   6.464
13657TIP3    H140916   7.124   6.166   6.424
13657TIP3    H240917   7.208   6.075   6.512
13658TIP3   OH240918   5.167   1.414   0.985
13658TIP3    H140919   5.220   1.336   0.994
13658TIP3    H240920   5.080   1.382   0.961
13659TIP3   OH240921   1.701   7.180   1.942
13659TIP3    H140922   1.660   7.158   1.858
13659TIP3    H240923   1.760   7.253   1.922
13660TIP3   OH240924   4.264   4.282   0.736
13660TIP3    H140925   4.250   4.372   0.763
13660TIP3    H240926   4.183   4.237   0.760
13661TIP3   OH240927   8.217   4.024   0.997
13661TIP3    H140928   8.175   3.996   0.915
13661TIP3    H240929   8.241   4.116   0.980
13662TIP3   OH240930   5.321   4.285   1.890
13662TIP3    H140931   5.239   4.277   1.938
13662TIP3    H240932   5.351   4.195   1.878
13663TIP3   OH240933   4.082   5.423   4.905
13663TIP3    H140934   4.030   5.403   4.983
13663TIP3    H240935   4.147   5.486   4.936
13664TIP3   OH240936   5.975   7.415   1.036
13664TIP3    H140937   6.020   7.393   1.118
13664TIP3    H240938   5.989   7.338   0.980
13665TIP3   OH240939   4.510   3.554   2.961
13665TIP3    H140940   4.479   3.582   3.048
13665TIP3    H240941   4.458   3.606   2.900
13666TIP3   OH240942   6.460   4.800   4.480
13666TIP3    H140943   6.393   4.847   4.431
13666TIP3    H240944   6.515   4.868   4.518
13667TIP3   OH240945   6.790   1.117   6.157
13667TIP3    H140946   6.781   1.178   6.231
13667TIP3    H240947   6.775   1.031   6.196
13668TIP3   OH240948   7.304   5.399   4.460
13668TIP3    H140949   7.225   5.451   4.443
13668TIP3    H240950   7.337   5.434   4.543
13669TIP3   OH240951   4.014   6.476   5.013
13669TIP3    H140952   4.029   6.528   5.092
13669TIP3    H240953   3.921   6.491   4.992
13670TIP3   OH240954   5.920   4.514   2.491
13670TIP3    H140955   5.954   4.520   2.580
13670TIP3    H240956   5.889   4.602   2.470
13671TIP3   OH240957  -0.010   1.752   5.264
13671TIP3    H140958   0.071   1.747   5.212
13671TIP3    H240959   0.012   1.808   5.338
13672TIP3   OH240960   6.788   7.849   0.157
13672TIP3    H140961   6.744   7.805   0.230
13672TIP3    H240962   6.825   7.777   0.104
13673TIP3   OH240963   3.683   1.820   1.851
13673TIP3    H140964   3.728   1.749   1.898
13673TIP3    H240965   3.660   1.782   1.766
13674TIP3   OH240966   5.683   5.465   3.809
13674TIP3    H140967   5.741   5.432   3.878
13674TIP3    H240968   5.612   5.402   3.805
13675TIP3   OH240969   3.324   6.940   0.923
13675TIP3    H140970   3.233   6.953   0.951
13675TIP3    H240971   3.377   6.980   0.991
13676TIP3   OH240972   7.465   2.911   4.842
13676TIP3    H140973   7.499   2.908   4.931
13676TIP3    H240974   7.511   2.985   4.801
13677TIP3   OH240975   2.515   6.716   1.225
13677TIP3    H140976   2.559   6.795   1.192
13677TIP3    H240977   2.493   6.737   1.315
13678TIP3   OH240978   4.866   7.555   5.930
13678TIP3    H140979   4.955   7.587   5.914
13678TIP3    H240980   4.861   7.545   6.025
13679TIP3   OH240981   2.595   7.120   2.360
13679TIP3    H140982   2.582   7.107   2.266
13679TIP3    H240983   2.514   7.091   2.401
13680TIP3   OH240984   4.678   4.539   5.275
13680TIP3    H140985   4.726   4.548   5.358
13680TIP3    H240986   4.713   4.459   5.236
13681TIP3   OH240987   1.247   0.000   0.596
13681TIP3    H140988   1.333   0.023   0.631
13681TIP3    H240989   1.245   0.044   0.510
13682TIP3   OH240990   2.345   6.092   3.118
13682TIP3    H140991   2.354   6.080   3.213
13682TIP3    H240992   2.433   6.119   3.090
13683TIP3   OH240993   3.989   5.003   3.876
13683TIP3    H140994   3.970   4.946   3.950
13683TIP3    H240995   4.045   4.950   3.819
13684TIP3   OH240996   1.380   3.836   3.409
13684TIP3    H140997   1.379   3.747   3.372
13684TIP3    H240998   1.461   3.840   3.460
13685TIP3   OH240999   3.046   5.007   3.577
13685TIP3    H141000   3.113   5.057   3.623
13685TIP3    H241001   2.974   5.000   3.639
13686TIP3   OH241002   6.123   1.272   5.286
13686TIP3    H141003   6.075   1.283   5.204
13686TIP3    H241004   6.080   1.198   5.329
13687TIP3   OH241005   2.663   1.893   0.415
13687TIP3    H141006   2.757   1.887   0.435
13687TIP3    H241007   2.660   1.922   0.324
13688TIP3   OH241008   1.105   4.997   5.334
13688TIP3    H141009   1.178   4.987   5.273
13688TIP3    H241010   1.061   5.078   5.308
13689TIP3   OH241011   4.896   2.776   4.662
13689TIP3    H141012   4.827   2.714   4.638
13689TIP3    H241013   4.861   2.861   4.638
13690TIP3   OH241014   7.704   1.170   0.295
13690TIP3    H141015   7.777   1.139   0.241
13690TIP3    H241016   7.652   1.091   0.313
13691TIP3   OH241017   1.576   2.058   3.595
13691TIP3    H141018   1.500   2.110   3.621
13691TIP3    H241019   1.637   2.121   3.556
13692TIP3   OH241020   7.353   4.501   2.026
13692TIP3    H141021   7.284   4.512   1.960
13692TIP3    H241022   7.307   4.507   2.110
13693TIP3   OH241023   4.099   6.541   6.377
13693TIP3    H141024   4.031   6.554   6.310
13693TIP3    H241025   4.118   6.630   6.409
13694TIP3   OH241026   4.927   2.146   1.230
13694TIP3    H141027   4.870   2.140   1.153
13694TIP3    H241028   5.016   2.146   1.195
13695TIP3   OH241029   6.478   3.933   3.642
13695TIP3    H141030   6.510   3.988   3.713
13695TIP3    H241031   6.533   3.854   3.646
13696TIP3   OH241032   2.195   3.026   5.304
13696TIP3    H141033   2.141   3.010   5.382
13696TIP3    H241034   2.241   3.108   5.324
13697TIP3   OH241035   6.809   7.209   3.142
13697TIP3    H141036   6.888   7.163   3.171
13697TIP3    H241037   6.791   7.174   3.055
13698TIP3   OH241038   6.863   0.791   1.142
13698TIP3    H141039   6.873   0.727   1.072
13698TIP3    H241040   6.884   0.875   1.100
13699TIP3   OH241041   7.058   2.598   3.114
13699TIP3    H141042   7.036   2.508   3.137
13699TIP3    H241043   7.022   2.610   3.027
13700TIP3   OH241044   0.457   5.203   1.304
13700TIP3    H141045   0.547   5.236   1.308
13700TIP3    H241046   0.441   5.188   1.211
13701TIP3   OH241047   4.683   1.593   2.260
13701TIP3    H141048   4.619   1.663   2.248
13701TIP3    H241049   4.768   1.637   2.258
13702TIP3   OH241050   0.085   7.737   2.603
13702TIP3    H141051   0.081   7.694   2.518
13702TIP3    H241052   0.173   7.775   2.607
13703TIP3   OH241053   6.605   4.074   2.775
13703TIP3    H141054   6.607   4.139   2.704
13703TIP3    H241055   6.514   4.046   2.778
13704TIP3   OH241056   4.148   7.746   6.408
13704TIP3    H141057   4.147   7.806   6.483
13704TIP3    H241058   4.117   7.799   6.335
13705TIP3   OH241059   6.016   6.000   2.557
13705TIP3    H141060   5.977   5.923   2.599
13705TIP3    H241061   6.083   5.964   2.500
13706TIP3   OH241062   6.129   6.621   5.039
13706TIP3    H141063   6.201   6.658   4.988
13706TIP3    H241064   6.113   6.686   5.108
13707TIP3   OH241065   4.800   7.469   1.286
13707TIP3    H141066   4.811   7.389   1.234
13707TIP3    H241067   4.875   7.471   1.345
13708TIP3   OH241068   1.244   0.326   2.427
13708TIP3    H141069   1.195   0.308   2.507
13708TIP3    H241070   1.176   0.340   2.361
13709TIP3   OH241071   1.779   4.134   4.795
13709TIP3    H141072   1.873   4.115   4.794
13709TIP3    H241073   1.773   4.227   4.817
13710TIP3   OH241074   1.126   0.468   5.817
13710TIP3    H141075   1.180   0.432   5.747
13710TIP3    H241076   1.116   0.395   5.879
13711TIP3   OH241077   0.712   0.747   1.229
13711TIP3    H141078   0.783   0.690   1.196
13711TIP3    H241079   0.711   0.821   1.168
13712TIP3   OH241080   1.628   7.092   5.640
13712TIP3    H141081   1.600   7.149   5.568
13712TIP3    H241082   1.661   7.153   5.706
13713TIP3   OH241083   1.778   0.329   0.452
13713TIP3    H141084   1.758   0.364   0.365
13713TIP3    H241085   1.785   0.234   0.439
13714TIP3   OH241086   4.393   6.228   5.786
13714TIP3    H141087   4.429   6.174   5.856
13714TIP3    H241088   4.310   6.187   5.763
13715TIP3   OH241089   4.094   7.230   3.094
13715TIP3    H141090   4.038   7.207   3.169
13715TIP3    H241091   4.062   7.175   3.022
13716TIP3   OH241092   7.895   5.844   2.848
13716TIP3    H141093   7.952   5.868   2.921
13716TIP3    H241094   7.912   5.911   2.782
13717TIP3   OH241095   0.716   6.324   3.571
13717TIP3    H141096   0.717   6.366   3.656
13717TIP3    H241097   0.624   6.299   3.558
13718TIP3   OH241098   8.279   5.674   5.381
13718TIP3    H141099   8.247   5.585   5.365
13718TIP3    H241100   8.200   5.726   5.395
13719TIP3   OH241101   2.496   6.915   3.657
13719TIP3    H141102   2.589   6.912   3.633
13719TIP3    H241103   2.492   6.978   3.729
13720TIP3   OH241104   7.766   6.205   6.306
13720TIP3    H141105   7.754   6.110   6.300
13720TIP3    H241106   7.698   6.241   6.249
13721TIP3   OH241107   2.307   4.948   6.515
13721TIP3    H141108   2.402   4.960   6.516
13721TIP3    H241109   2.295   4.854   6.526
13722TIP3   OH241110   6.578   7.269   2.806
13722TIP3    H141111   6.635   7.204   2.845
13722TIP3    H241112   6.633   7.346   2.793
13723TIP3   OH241113   2.166   3.949   0.857
13723TIP3    H141114   2.141   4.036   0.826
13723TIP3    H241115   2.142   3.890   0.785
13724TIP3   OH241116   0.796   1.021   0.273
13724TIP3    H141117   0.757   0.946   0.228
13724TIP3    H241118   0.885   1.025   0.239
13725TIP3   OH241119   0.134   5.248   1.051
13725TIP3    H141120   0.080   5.198   0.991
13725TIP3    H241121   0.101   5.225   1.138
13726TIP3   OH241122   3.559   5.526   4.437
13726TIP3    H141123   3.539   5.465   4.366
13726TIP3    H241124   3.559   5.612   4.395
13727TIP3   OH241125   3.612   1.281   5.084
13727TIP3    H141126   3.702   1.306   5.063
13727TIP3    H241127   3.618   1.188   5.108
13728TIP3   OH241128   7.169   6.222   0.581
13728TIP3    H141129   7.145   6.236   0.489
13728TIP3    H241130   7.135   6.299   0.627
13729TIP3   OH241131   3.909   0.008   1.586
13729TIP3    H141132   3.947   0.050   1.663
13729TIP3    H241133   3.835   0.063   1.562
13730TIP3   OH241134   0.929   2.496   4.114
13730TIP3    H141135   0.836   2.480   4.099
13730TIP3    H241136   0.931   2.567   4.178
13731TIP3   OH241137   3.752   7.326   6.142
13731TIP3    H141138   3.764   7.231   6.144
13731TIP3    H241139   3.822   7.360   6.197
13732TIP3   OH241140   8.108   4.568   3.643
13732TIP3    H141141   8.126   4.619   3.722
13732TIP3    H241142   8.191   4.525   3.623
13733TIP3   OH241143   7.838   0.891   5.256
13733TIP3    H141144   7.752   0.899   5.297
13733TIP3    H241145   7.819   0.874   5.163
13734TIP3   OH241146   5.991   1.678   4.028
13734TIP3    H141147   5.950   1.747   3.976
13734TIP3    H241148   6.063   1.646   3.973
13735TIP3   OH241149   2.467   6.943   2.825
13735TIP3    H141150   2.382   6.965   2.864
13735TIP3    H241151   2.526   7.011   2.858
13736TIP3   OH241152   3.304   3.035   5.487
13736TIP3    H141153   3.233   2.997   5.436
13736TIP3    H241154   3.262   3.100   5.543
13737TIP3   OH241155   4.049   7.816   0.576
13737TIP3    H141156   4.075   7.746   0.636
13737TIP3    H241157   4.063   7.897   0.626
13738TIP3   OH241158   8.154   0.428   5.028
13738TIP3    H141159   8.116   0.462   5.110
13738TIP3    H241160   8.245   0.408   5.050
13739TIP3   OH241161   4.072   5.773   2.151
13739TIP3    H141162   4.152   5.742   2.193
13739TIP3    H241163   4.039   5.697   2.103
13740TIP3   OH241164   7.544   4.935   6.100
13740TIP3    H141165   7.631   4.895   6.097
13740TIP3    H241166   7.548   4.996   6.173
13741TIP3   OH241167   2.510   1.666   1.693
13741TIP3    H141168   2.597   1.636   1.670
13741TIP3    H241169   2.454   1.589   1.680
13742TIP3   OH241170   0.456   2.862   5.347
13742TIP3    H141171   0.503   2.908   5.278
13742TIP3    H241172   0.377   2.829   5.304
13743TIP3   OH241173   0.166   2.687   4.026
13743TIP3    H141174   0.195   2.620   3.965
13743TIP3    H241175   0.240   2.700   4.085
13744TIP3   OH241176   5.271   5.486   4.982
13744TIP3    H141177   5.252   5.396   4.958
13744TIP3    H241178   5.341   5.480   5.047
13745TIP3   OH241179   5.830   6.330   4.027
13745TIP3    H141180   5.895   6.396   4.000
13745TIP3    H241181   5.768   6.327   3.955
13746TIP3   OH241182   4.460   7.097   5.352
13746TIP3    H141183   4.443   7.189   5.331
13746TIP3    H241184   4.390   7.049   5.307
13747TIP3   OH241185   5.036   0.879   0.277
13747TIP3    H141186   5.015   0.805   0.334
13747TIP3    H241187   5.096   0.933   0.329
13748TIP3   OH241188   6.491   0.161   2.154
13748TIP3    H141189   6.449   0.128   2.233
13748TIP3    H241190   6.479   0.091   2.090
13749TIP3   OH241191   0.393   6.071   1.227
13749TIP3    H141192   0.314   6.016   1.232
13749TIP3    H241193   0.465   6.012   1.248
13750TIP3   OH241194   5.752   6.678   5.287
13750TIP3    H141195   5.801   6.659   5.367
13750TIP3    H241196   5.775   6.607   5.227
13751TIP3   OH241197   3.041   5.005   1.335
13751TIP3    H141198   3.038   4.940   1.404
13751TIP3    H241199   3.009   4.959   1.257
13752TIP3   OH241200   4.609   0.444   3.100
13752TIP3    H141201   4.625   0.434   3.006
13752TIP3    H241202   4.568   0.530   3.109
13753TIP3   OH241203   1.122   1.992   3.158
13753TIP3    H141204   1.118   1.896   3.153
13753TIP3    H241205   1.059   2.015   3.225
13754TIP3   OH241206   2.361   5.950   5.709
13754TIP3    H141207   2.367   5.874   5.768
13754TIP3    H241208   2.442   5.998   5.724
13755TIP3   OH241209   3.779   0.431   0.662
13755TIP3    H141210   3.711   0.382   0.617
13755TIP3    H241211   3.861   0.394   0.629
13756TIP3   OH241212   7.585   3.609   6.474
13756TIP3    H141213   7.582   3.591   6.568
13756TIP3    H241214   7.591   3.522   6.434
13757TIP3   OH241215   5.911   6.659   0.617
13757TIP3    H141216   5.897   6.718   0.691
13757TIP3    H241217   5.964   6.588   0.654
13758TIP3   OH241218   6.425   0.773   1.146
13758TIP3    H141219   6.498   0.819   1.185
13758TIP3    H241220   6.370   0.842   1.108
13759TIP3   OH241221   2.331   0.875   4.573
13759TIP3    H141222   2.351   0.968   4.579
13759TIP3    H241223   2.401   0.832   4.621
13760TIP3   OH241224   4.785   5.987   0.861
13760TIP3    H141225   4.861   5.986   0.804
13760TIP3    H241226   4.768   5.895   0.881
13761TIP3   OH241227   0.393   3.851   5.068
13761TIP3    H141228   0.305   3.814   5.058
13761TIP3    H241229   0.396   3.924   5.006
13762TIP3   OH241230   3.345   3.971   5.568
13762TIP3    H141231   3.313   4.016   5.489
13762TIP3    H241232   3.365   3.882   5.539
13763TIP3   OH241233   7.747   2.934   3.079
13763TIP3    H141234   7.803   2.945   3.155
13763TIP3    H241235   7.682   2.868   3.105
13764TIP3   OH241236   1.647   6.534   4.301
13764TIP3    H141237   1.567   6.526   4.250
13764TIP3    H241238   1.706   6.585   4.247
13765TIP3   OH241239   5.377   3.928   4.317
13765TIP3    H141240   5.389   3.879   4.236
13765TIP3    H241241   5.288   3.904   4.345
13766TIP3   OH241242   0.766   7.194   5.048
13766TIP3    H141243   0.824   7.230   5.114
13766TIP3    H241244   0.806   7.110   5.024
13767TIP3   OH241245   1.787   2.163   1.538
13767TIP3    H141246   1.834   2.223   1.480
13767TIP3    H241247   1.698   2.160   1.502
13768TIP3   OH241248   0.933   4.097   6.143
13768TIP3    H141249   0.876   4.135   6.077
13768TIP3    H241250   0.881   4.097   6.223
13769TIP3   OH241251   3.320   6.558   5.242
13769TIP3    H141252   3.398   6.593   5.199
13769TIP3    H241253   3.254   6.627   5.231
13770TIP3   OH241254   5.896   0.131   1.237
13770TIP3    H141255   5.900   0.060   1.173
13770TIP3    H241256   5.817   0.113   1.287
13771TIP3   OH241257   6.382   6.971   2.931
13771TIP3    H141258   6.452   6.998   2.991
13771TIP3    H241259   6.384   6.875   2.934
13772TIP3   OH241260   5.643   3.788   3.038
13772TIP3    H141261   5.560   3.797   2.990
13772TIP3    H241262   5.643   3.697   3.068
13773TIP3   OH241263   2.569   5.497   1.501
13773TIP3    H141264   2.498   5.459   1.553
13773TIP3    H241265   2.627   5.537   1.566
13774TIP3   OH241266   2.414   0.460   3.386
13774TIP3    H141267   2.359   0.407   3.445
13774TIP3    H241268   2.353   0.491   3.319
13775TIP3   OH241269   0.613   5.946   4.045
13775TIP3    H141270   0.613   5.897   4.128
13775TIP3    H241271   0.657   6.028   4.066
13776TIP3   OH241272   7.899   0.948   3.299
13776TIP3    H141273   7.847   1.001   3.359
13776TIP3    H241274   7.848   0.868   3.287
13777TIP3   OH241275   1.740   6.307   4.141
13777TIP3    H141276   1.693   6.228   4.169
13777TIP3    H241277   1.688   6.379   4.175
13778TIP3   OH241278   6.618   7.158   6.164
13778TIP3    H141279   6.540   7.118   6.202
13778TIP3    H241280   6.595   7.251   6.155
13779TIP3   OH241281   0.642   1.962   4.581
13779TIP3    H141282   0.643   1.915   4.664
13779TIP3    H241283   0.691   2.043   4.599
13780TIP3   OH241284   2.306   0.627   1.038
13780TIP3    H141285   2.394   0.594   1.058
13780TIP3    H241286   2.321   0.695   0.972
13781TIP3   OH241287   8.059   3.663   1.727
13781TIP3    H141288   8.097   3.580   1.755
13781TIP3    H241289   7.964   3.649   1.733
13782TIP3   OH241290   7.663   5.437   3.471
13782TIP3    H141291   7.720   5.454   3.396
13782TIP3    H241292   7.690   5.350   3.501
13783TIP3   OH241293   4.796   2.659   0.668
13783TIP3    H141294   4.713   2.614   0.652
13783TIP3    H241295   4.861   2.589   0.671
13784TIP3   OH241296   5.701   0.239   0.978
13784TIP3    H141297   5.782   0.290   0.971
13784TIP3    H241298   5.728   0.157   1.019
13785TIP3   OH241299   0.596   3.482   4.613
13785TIP3    H141300   0.562   3.431   4.687
13785TIP3    H241301   0.536   3.463   4.542
13786TIP3   OH241302   0.637   2.372   0.440
13786TIP3    H141303   0.600   2.291   0.403
13786TIP3    H241304   0.709   2.342   0.496
13787TIP3   OH241305   7.270   7.619   0.410
13787TIP3    H141306   7.322   7.542   0.433
13787TIP3    H241307   7.237   7.601   0.322
13788TIP3   OH241308   3.561   6.001   2.687
13788TIP3    H141309   3.537   5.965   2.602
13788TIP3    H241310   3.622   5.937   2.724
13789TIP3   OH241311   3.380   6.478   0.876
13789TIP3    H141312   3.387   6.391   0.915
13789TIP3    H241313   3.446   6.478   0.806
13790TIP3   OH241314   0.653   1.290   1.518
13790TIP3    H141315   0.684   1.338   1.441
13790TIP3    H241316   0.661   1.198   1.494
13791TIP3   OH241317   8.011   0.741   0.820
13791TIP3    H141318   7.920   0.746   0.791
13791TIP3    H241319   8.006   0.742   0.915
13792TIP3   OH241320   3.087   1.168   3.153
13792TIP3    H141321   3.009   1.195   3.201
13792TIP3    H241322   3.070   1.077   3.130
13793TIP3   OH241323   0.634   5.886   0.953
13793TIP3    H141324   0.543   5.899   0.926
13793TIP3    H241325   0.686   5.917   0.879
13794TIP3   OH241326   7.143   1.147   6.113
13794TIP3    H141327   7.098   1.170   6.031
13794TIP3    H241328   7.218   1.095   6.085
13795TIP3   OH241329   4.267   3.189   2.966
13795TIP3    H141330   4.361   3.204   2.967
13795TIP3    H241331   4.256   3.112   2.909
13796TIP3   OH241332   6.235   7.324   2.685
13796TIP3    H141333   6.311   7.322   2.743
13796TIP3    H241334   6.271   7.344   2.598
13797TIP3   OH241335   1.052   3.055   0.139
13797TIP3    H141336   1.132   3.069   0.088
13797TIP3    H241337   0.995   3.004   0.081
13798TIP3   OH241338   6.952   0.595   4.087
13798TIP3    H141339   6.982   0.566   4.001
13798TIP3    H241340   6.921   0.684   4.072
13799TIP3   OH241341   4.186   7.132   1.826
13799TIP3    H141342   4.163   7.097   1.740
13799TIP3    H241343   4.104   7.170   1.859
13800TIP3   OH241344   3.904   4.038   0.110
13800TIP3    H141345   3.992   4.010   0.133
13800TIP3    H241346   3.913   4.131   0.086
13801TIP3   OH241347   7.719   4.157   3.523
13801TIP3    H141348   7.725   4.244   3.484
13801TIP3    H241349   7.628   4.150   3.552
13802TIP3   OH241350   0.222   1.632   0.218
13802TIP3    H141351   0.259   1.705   0.268
13802TIP3    H241352   0.297   1.576   0.198
13803TIP3   OH241353   2.603   4.292   2.396
13803TIP3    H141354   2.697   4.287   2.409
13803TIP3    H241355   2.592   4.350   2.320
13804TIP3   OH241356   6.196   0.436   3.107
13804TIP3    H141357   6.231   0.523   3.128
13804TIP3    H241358   6.104   0.440   3.130
13805TIP3   OH241359   6.611   3.040   0.866
13805TIP3    H141360   6.613   2.951   0.900
13805TIP3    H241361   6.556   3.088   0.929
13806TIP3   OH241362   6.242   2.058   4.244
13806TIP3    H141363   6.156   2.076   4.284
13806TIP3    H241364   6.228   2.076   4.151
13807TIP3   OH241365   0.196   5.665   6.130
13807TIP3    H141366   0.283   5.696   6.153
13807TIP3    H241367   0.211   5.600   6.061
13808TIP3   OH241368   3.997   3.706   1.566
13808TIP3    H141369   4.001   3.799   1.543
13808TIP3    H241370   3.992   3.706   1.662
13809TIP3   OH241371   7.294   0.175   4.812
13809TIP3    H141372   7.262   0.151   4.899
13809TIP3    H241373   7.387   0.155   4.815
13810TIP3   OH241374   6.158   5.473   0.190
13810TIP3    H141375   6.227   5.414   0.219
13810TIP3    H241376   6.163   5.472   0.095
13811TIP3   OH241377   1.073   0.674   1.370
13811TIP3    H141378   1.043   0.607   1.432
13811TIP3    H241379   1.059   0.635   1.284
13812TIP3   OH241380   3.854   0.601   3.508
13812TIP3    H141381   3.877   0.685   3.547
13812TIP3    H241382   3.765   0.583   3.540
13813TIP3   OH241383   1.221   4.065   2.996
13813TIP3    H141384   1.236   4.063   3.091
13813TIP3    H241385   1.151   4.003   2.981
13814TIP3   OH241386   5.905   2.765   3.043
13814TIP3    H141387   5.850   2.843   3.052
13814TIP3    H241388   5.875   2.706   3.112
13815TIP3   OH241389   7.467   3.955   2.627
13815TIP3    H141390   7.497   4.029   2.679
13815TIP3    H241391   7.513   3.963   2.544
13816TIP3   OH241392   2.438   3.666   5.017
13816TIP3    H141393   2.396   3.751   5.005
13816TIP3    H241394   2.480   3.648   4.933
13817TIP3   OH241395   5.256   0.277   4.874
13817TIP3    H141396   5.170   0.249   4.845
13817TIP3    H241397   5.244   0.296   4.968
13818TIP3   OH241398   0.131   0.869   1.331
13818TIP3    H141399   0.213   0.821   1.344
13818TIP3    H241400   0.157   0.952   1.292
13819TIP3   OH241401   1.257   2.592   1.472
13819TIP3    H141402   1.320   2.635   1.531
13819TIP3    H241403   1.192   2.660   1.454
13820TIP3   OH241404   0.733   7.066   1.561
13820TIP3    H141405   0.818   7.096   1.595
13820TIP3    H241406   0.733   6.972   1.576
13821TIP3   OH241407   7.181   1.961   4.163
13821TIP3    H141408   7.150   2.042   4.205
13821TIP3    H241409   7.260   1.938   4.212
13822TIP3   OH241410   3.999   6.243   2.349
13822TIP3    H141411   3.944   6.240   2.270
13822TIP3    H241412   3.980   6.160   2.394
13823TIP3   OH241413   3.450   7.204   3.374
13823TIP3    H141414   3.523   7.173   3.321
13823TIP3    H241415   3.457   7.155   3.456
13824TIP3   OH241416   2.578   7.493   3.436
13824TIP3    H141417   2.642   7.522   3.370
13824TIP3    H241418   2.561   7.572   3.488
13825TIP3   OH241419   7.584   3.454   6.713
13825TIP3    H141420   7.531   3.496   6.782
13825TIP3    H241421   7.579   3.360   6.734
13826TIP3   OH241422   3.721   0.174   1.473
13826TIP3    H141423   3.774   0.245   1.509
13826TIP3    H241424   3.747   0.170   1.381
13827TIP3   OH241425   2.954   0.882   0.494
13827TIP3    H141426   3.016   0.871   0.566
13827TIP3    H241427   2.928   0.974   0.498
13828TIP3   OH241428   5.473   7.599   4.637
13828TIP3    H141429   5.443   7.634   4.721
13828TIP3    H241430   5.401   7.544   4.607
13829TIP3   OH241431   1.562   0.384   0.285
13829TIP3    H141432   1.538   0.374   0.377
13829TIP3    H241433   1.497   0.333   0.237
13830TIP3   OH241434   7.393   7.682   3.940
13830TIP3    H141435   7.476   7.635   3.936
13830TIP3    H241436   7.329   7.615   3.964
13831TIP3   OH241437   0.133   6.309   4.764
13831TIP3    H141438   0.142   6.275   4.854
13831TIP3    H241439   0.055   6.266   4.730
13832TIP3   OH241440   7.950   2.235   2.338
13832TIP3    H141441   7.927   2.190   2.419
13832TIP3    H241442   8.000   2.171   2.288
13833TIP3   OH241443   5.689  -0.061   1.913
13833TIP3    H141444   5.726  -0.053   2.001
13833TIP3    H241445   5.638   0.019   1.902
13834TIP3   OH241446   7.241   4.611   0.171
13834TIP3    H141447   7.196   4.539   0.126
13834TIP3    H241448   7.190   4.624   0.251
13835TIP3   OH241449   2.438   2.011   2.022
13835TIP3    H141450   2.363   2.071   2.017
13835TIP3    H241451   2.447   1.977   1.933
13836TIP3   OH241452   5.636   7.326   4.327
13836TIP3    H141453   5.722   7.361   4.304
13836TIP3    H241454   5.580   7.403   4.334
13837TIP3   OH241455   3.745   3.575   4.016
13837TIP3    H141456   3.751   3.563   4.111
13837TIP3    H241457   3.661   3.537   3.993
13838TIP3   OH241458   1.205   1.911   5.416
13838TIP3    H141459   1.219   2.005   5.406
13838TIP3    H241460   1.271   1.884   5.479
13839TIP3   OH241461   2.993   0.901   2.784
13839TIP3    H141462   2.985   0.823   2.728
13839TIP3    H241463   3.078   0.938   2.762
13840TIP3   OH241464   5.668   7.457   6.641
13840TIP3    H141465   5.619   7.376   6.626
13840TIP3    H241466   5.687   7.491   6.554
13841TIP3   OH241467   0.192   4.109   3.913
13841TIP3    H141468   0.182   4.109   4.008
13841TIP3    H241469   0.111   4.069   3.880
13842TIP3   OH241470   2.133   2.638   6.409
13842TIP3    H141471   2.107   2.631   6.317
13842TIP3    H241472   2.227   2.621   6.408
13843TIP3   OH241473   1.539   2.456   1.594
13843TIP3    H141474   1.528   2.508   1.674
13843TIP3    H241475   1.466   2.395   1.594
13844TIP3   OH241476   6.768   4.107   5.855
13844TIP3    H141477   6.729   4.021   5.869
13844TIP3    H241478   6.803   4.103   5.766
13845TIP3   OH241479   7.101   2.285   0.473
13845TIP3    H141480   7.028   2.225   0.489
13845TIP3    H241481   7.165   2.264   0.541
13846TIP3   OH241482   4.382   5.096   6.198
13846TIP3    H141483   4.393   5.123   6.107
13846TIP3    H241484   4.471   5.074   6.227
13847TIP3   OH241485   2.065   3.281   3.305
13847TIP3    H141486   2.071   3.285   3.401
13847TIP3    H241487   2.116   3.357   3.276
13848TIP3   OH241488   4.977   7.661   4.888
13848TIP3    H141489   4.974   7.652   4.983
13848TIP3    H241490   5.057   7.710   4.871
13849TIP3   OH241491   7.807   1.804   1.088
13849TIP3    H141492   7.833   1.743   1.157
13849TIP3    H241493   7.752   1.868   1.132
13850TIP3   OH241494   4.640   3.670   1.035
13850TIP3    H141495   4.590   3.751   1.048
13850TIP3    H241496   4.576   3.600   1.051
13851TIP3   OH241497   2.317   6.655   6.537
13851TIP3    H141498   2.289   6.648   6.445
13851TIP3    H241499   2.412   6.644   6.534
13852TIP3   OH241500   4.844   3.118   5.808
13852TIP3    H141501   4.810   3.194   5.761
13852TIP3    H241502   4.822   3.044   5.751
13853TIP3   OH241503   5.150   2.927   0.577
13853TIP3    H141504   5.229   2.980   0.574
13853TIP3    H241505   5.088   2.979   0.630
13854TIP3   OH241506   5.223   3.380   5.142
13854TIP3    H141507   5.238   3.314   5.210
13854TIP3    H241508   5.285   3.450   5.163
13855TIP3   OH241509   1.054   5.785   5.144
13855TIP3    H141510   1.029   5.692   5.148
13855TIP3    H241511   1.008   5.825   5.217
13856TIP3   OH241512   4.170   5.448   5.559
13856TIP3    H141513   4.097   5.493   5.601
13856TIP3    H241514   4.131   5.369   5.522
13857TIP3   OH241515   1.894   4.659   2.645
13857TIP3    H141516   1.896   4.731   2.582
13857TIP3    H241517   1.801   4.640   2.657
13858TIP3   OH241518   5.692   6.328  -0.022
13858TIP3    H141519   5.618   6.268  -0.016
13858TIP3    H241520   5.768   6.271  -0.039
13859TIP3   OH241521   3.754   6.980   5.336
13859TIP3    H141522   3.815   7.026   5.279
13859TIP3    H241523   3.750   6.891   5.301
13860TIP3   OH241524   5.030   4.653   0.502
13860TIP3    H141525   5.055   4.724   0.562
13860TIP3    H241526   5.113   4.613   0.476
13861TIP3   OH241527   0.047   4.658   4.081
13861TIP3    H141528   0.053   4.562   4.080
13861TIP3    H241529   0.007   4.679   4.166
13862TIP3   OH241530   3.200   6.800   4.405
13862TIP3    H141531   3.205   6.891   4.436
13862TIP3    H241532   3.142   6.756   4.467
13863TIP3   OH241533   5.598   4.247   5.859
13863TIP3    H141534   5.606   4.315   5.925
13863TIP3    H241535   5.688   4.231   5.829
13864TIP3   OH241536   2.719   5.489   6.597
13864TIP3    H141537   2.644   5.509   6.653
13864TIP3    H241538   2.788   5.547   6.629
13865TIP3   OH241539   7.452   6.948   0.830
13865TIP3    H141540   7.467   6.886   0.902
13865TIP3    H241541   7.423   7.029   0.874
13866TIP3   OH241542   5.161   5.118   3.073
13866TIP3    H141543   5.082   5.096   3.024
13866TIP3    H241544   5.144   5.206   3.107
13867TIP3   OH241545   0.427   3.958   1.987
13867TIP3    H141546   0.420   3.863   1.996
13867TIP3    H241547   0.337   3.988   1.976
13868TIP3   OH241548   0.824   5.619   3.422
13868TIP3    H141549   0.860   5.654   3.340
13868TIP3    H241550   0.891   5.639   3.488
13869TIP3   OH241551   2.066   0.680   5.153
13869TIP3    H141552   1.990   0.676   5.211
13869TIP3    H241553   2.115   0.756   5.183
13870TIP3   OH241554   4.138   2.613   4.379
13870TIP3    H141555   4.098   2.645   4.460
13870TIP3    H241556   4.224   2.656   4.376
13871TIP3   OH241557   4.892   5.190   2.940
13871TIP3    H141558   4.853   5.145   2.865
13871TIP3    H241559   4.834   5.169   3.014
13872TIP3   OH241560   5.574   1.727   4.851
13872TIP3    H141561   5.573   1.642   4.896
13872TIP3    H241562   5.592   1.791   4.919
13873TIP3   OH241563   2.051   7.250   5.564
13873TIP3    H141564   2.029   7.303   5.488
13873TIP3    H241565   2.120   7.299   5.609
13874TIP3   OH241566   3.689   2.091   1.486
13874TIP3    H141567   3.749   2.041   1.429
13874TIP3    H241568   3.654   2.160   1.429
13875TIP3   OH241569   4.611   5.816   3.215
13875TIP3    H141570   4.679   5.779   3.159
13875TIP3    H241571   4.589   5.899   3.173
13876TIP3   OH241572   5.700   3.063   6.209
13876TIP3    H141573   5.779   3.028   6.166
13876TIP3    H241574   5.639   2.990   6.207
13877TIP3   OH241575   8.240   0.299   2.010
13877TIP3    H141576   8.259   0.379   1.962
13877TIP3    H241577   8.171   0.255   1.959
13878TIP3   OH241578   7.178   6.720   1.208
13878TIP3    H141579   7.148   6.701   1.119
13878TIP3    H241580   7.220   6.638   1.238
13879TIP3   OH241581   7.085   4.810   5.032
13879TIP3    H141582   7.059   4.779   4.946
13879TIP3    H241583   7.002   4.833   5.075
13880TIP3   OH241584   4.284   0.401   1.770
13880TIP3    H141585   4.249   0.367   1.687
13880TIP3    H241586   4.378   0.409   1.756
13881TIP3   OH241587   6.766   1.625   2.684
13881TIP3    H141588   6.829   1.638   2.614
13881TIP3    H241589   6.702   1.695   2.673
13882TIP3   OH241590   0.653   4.776   2.524
13882TIP3    H141591   0.704   4.786   2.444
13882TIP3    H241592   0.630   4.865   2.550
13883TIP3   OH241593   2.304   2.655   2.371
13883TIP3    H141594   2.222   2.613   2.394
13883TIP3    H241595   2.281   2.746   2.352
13884TIP3   OH241596   1.163   5.080   4.860
13884TIP3    H141597   1.191   4.998   4.901
13884TIP3    H241598   1.244   5.129   4.847
13885TIP3   OH241599   0.677   0.159   0.805
13885TIP3    H141600   0.692   0.187   0.895
13885TIP3    H241601   0.585   0.133   0.803
13886TIP3   OH241602   4.925   6.538   4.610
13886TIP3    H141603   4.905   6.465   4.550
13886TIP3    H241604   4.867   6.608   4.581
13887TIP3   OH241605   5.705   7.905   6.175
13887TIP3    H141606   5.790   7.923   6.214
13887TIP3    H241607   5.709   7.812   6.150
13888TIP3   OH241608   3.232   5.748   0.437
13888TIP3    H141609   3.297   5.678   0.445
13888TIP3    H241610   3.208   5.749   0.344
13889TIP3   OH241611   5.175   7.330   6.588
13889TIP3    H141612   5.231   7.368   6.520
13889TIP3    H241613   5.093   7.379   6.582
13890TIP3   OH241614   3.467   1.630   4.866
13890TIP3    H141615   3.490   1.695   4.932
13890TIP3    H241616   3.446   1.680   4.788
13891TIP3   OH241617   8.002   4.666   3.399
13891TIP3    H141618   8.053   4.636   3.474
13891TIP3    H241619   8.006   4.761   3.403
13892TIP3   OH241620   2.289   0.703   2.703
13892TIP3    H141621   2.368   0.682   2.653
13892TIP3    H241622   2.236   0.755   2.644
13893TIP3   OH241623   0.477   3.167   4.417
13893TIP3    H141624   0.525   3.201   4.342
13893TIP3    H241625   0.406   3.229   4.431
13894TIP3   OH241626   5.745   0.781   5.009
13894TIP3    H141627   5.807   0.792   4.937
13894TIP3    H241628   5.660   0.804   4.971
13895TIP3   OH241629   1.060   1.687   6.273
13895TIP3    H141630   1.111   1.607   6.285
13895TIP3    H241631   1.036   1.686   6.180
13896TIP3   OH241632   7.475   5.704   5.019
13896TIP3    H141633   7.519   5.787   5.004
13896TIP3    H241634   7.538   5.638   4.989
13897TIP3   OH241635   2.111   6.908   0.254
13897TIP3    H141636   2.122   7.000   0.277
13897TIP3    H241637   2.171   6.894   0.182
13898TIP3   OH241638   2.940   0.517   0.156
13898TIP3    H141639   2.985   0.573   0.220
13898TIP3    H241640   2.896   0.579   0.098
13899TIP3   OH241641   2.764   4.928   1.023
13899TIP3    H141642   2.705   4.949   1.096
13899TIP3    H241643   2.849   4.912   1.064
13900TIP3   OH241644   0.402   5.500   6.358
13900TIP3    H141645   0.444   5.523   6.275
13900TIP3    H241646   0.449   5.423   6.389
13901TIP3   OH241647   2.960   4.281   3.595
13901TIP3    H141648   2.886   4.303   3.539
13901TIP3    H241649   2.921   4.262   3.680
13902TIP3   OH241650   1.740   2.515   1.424
13902TIP3    H141651   1.696   2.477   1.500
13902TIP3    H241652   1.816   2.459   1.409
13903TIP3   OH241653   3.376   3.589   0.779
13903TIP3    H141654   3.429   3.582   0.858
13903TIP3    H241655   3.437   3.623   0.713
13904TIP3   OH241656   3.581   0.747   5.009
13904TIP3    H141657   3.510   0.702   5.055
13904TIP3    H241658   3.538   0.792   4.936
13905TIP3   OH241659   2.899   4.483   4.964
13905TIP3    H141660   2.950   4.502   4.885
13905TIP3    H241661   2.820   4.441   4.932
13906TIP3   OH241662   1.261   4.546   3.205
13906TIP3    H141663   1.317   4.473   3.230
13906TIP3    H241664   1.288   4.618   3.262
13907TIP3   OH241665   7.074   6.379   4.759
13907TIP3    H141666   7.117   6.296   4.779
13907TIP3    H241667   7.146   6.442   4.750
13908TIP3   OH241668   5.436   5.009   2.240
13908TIP3    H141669   5.419   4.916   2.251
13908TIP3    H241670   5.507   5.013   2.176
13909TIP3   OH241671   4.211   6.902   3.634
13909TIP3    H141672   4.130   6.889   3.683
13909TIP3    H241673   4.280   6.886   3.697
13910TIP3   OH241674   7.707   5.434   6.009
13910TIP3    H141675   7.706   5.375   6.085
13910TIP3    H241676   7.693   5.376   5.934
13911TIP3   OH241677   1.820   1.179   5.708
13911TIP3    H141678   1.870   1.162   5.629
13911TIP3    H241679   1.885   1.207   5.773
13912TIP3   OH241680   3.153   1.386   4.092
13912TIP3    H141681   3.150   1.291   4.099
13912TIP3    H241682   3.224   1.412   4.150
13913TIP3   OH241683   5.800   2.135   0.361
13913TIP3    H141684   5.815   2.136   0.455
13913TIP3    H241685   5.863   2.198   0.326
13914TIP3   OH241686   0.580   3.527   0.063
13914TIP3    H141687   0.514   3.468   0.025
13914TIP3    H241688   0.628   3.472   0.125
13915TIP3   OH241689   2.216   1.896   3.514
13915TIP3    H141690   2.274   1.973   3.522
13915TIP3    H241691   2.275   1.821   3.517
13916TIP3   OH241692   2.036   5.460   5.759
13916TIP3    H141693   2.016   5.529   5.821
13916TIP3    H241694   2.113   5.491   5.711
13917TIP3   OH241695   7.534   0.554   3.689
13917TIP3    H141696   7.520   0.548   3.594
13917TIP3    H241697   7.604   0.619   3.698
13918TIP3   OH241698   2.135   0.902   4.135
13918TIP3    H141699   2.158   0.952   4.057
13918TIP3    H241700   2.061   0.950   4.173
13919TIP3   OH241701   7.675   2.060   2.801
13919TIP3    H141702   7.708   2.034   2.715
13919TIP3    H241703   7.680   2.156   2.800
13920TIP3   OH241704   7.805   3.700   0.016
13920TIP3    H141705   7.834   3.768   0.077
13920TIP3    H241706   7.822   3.737  -0.071
13921TIP3   OH241707   3.699   2.367   2.310
13921TIP3    H141708   3.794   2.363   2.307
13921TIP3    H241709   3.670   2.290   2.261
13922TIP3   OH241710   3.212   5.394   4.673
13922TIP3    H141711   3.223   5.306   4.637
13922TIP3    H241712   3.297   5.415   4.711
13923TIP3   OH241713   0.765   0.789   3.934
13923TIP3    H141714   0.691   0.814   3.879
13923TIP3    H241715   0.758   0.694   3.942
13924TIP3   OH241716   2.155  -0.027   2.189
13924TIP3    H141717   2.118   0.011   2.109
13924TIP3    H241718   2.086  -0.018   2.254
13925TIP3   OH241719   0.255   6.453   5.884
13925TIP3    H141720   0.215   6.372   5.851
13925TIP3    H241721   0.191   6.521   5.863
13926TIP3   OH241722   0.105   4.398   4.898
13926TIP3    H141723   0.082   4.483   4.860
13926TIP3    H241724   0.184   4.416   4.950
13927TIP3   OH241725   4.638   0.686   4.309
13927TIP3    H141726   4.715   0.735   4.340
13927TIP3    H241727   4.642   0.693   4.214
13928TIP3   OH241728   0.885   0.213   5.137
13928TIP3    H141729   0.906   0.140   5.079
13928TIP3    H241730   0.789   0.213   5.142
13929TIP3   OH241731   1.332   5.322   1.909
13929TIP3    H141732   1.312   5.233   1.881
13929TIP3    H241733   1.355   5.368   1.827
13930TIP3   OH241734   8.193   6.248   4.356
13930TIP3    H141735   8.235   6.184   4.298
13930TIP3    H241736   8.219   6.333   4.321
13931TIP3   OH241737   4.182   0.887   5.448
13931TIP3    H141738   4.229   0.938   5.382
13931TIP3    H241739   4.151   0.952   5.511
13932TIP3   OH241740   4.527   6.974   4.852
13932TIP3    H141741   4.604   7.032   4.852
13932TIP3    H241742   4.469   7.011   4.787
13933TIP3   OH241743   2.800   1.574   2.201
13933TIP3    H141744   2.889   1.589   2.169
13933TIP3    H241745   2.754   1.656   2.181
13934TIP3   OH241746   4.293   7.623   3.258
13934TIP3    H141747   4.205   7.589   3.274
13934TIP3    H241748   4.350   7.571   3.315
13935TIP3   OH241749   8.033   4.578   1.269
13935TIP3    H141750   8.031   4.545   1.359
13935TIP3    H241751   8.100   4.525   1.226
13936TIP3   OH241752   4.287   0.647   5.288
13936TIP3    H141753   4.371   0.676   5.325
13936TIP3    H241754   4.229   0.721   5.302
13937TIP3   OH241755   3.908   2.304   4.686
13937TIP3    H141756   3.999   2.280   4.703
13937TIP3    H241757   3.868   2.310   4.772
13938TIP3   OH241758   4.418   5.480   2.559
13938TIP3    H141759   4.364   5.427   2.618
13938TIP3    H241760   4.379   5.568   2.563
13939TIP3   OH241761   0.006   3.864   4.011
13939TIP3    H141762   0.099   3.884   4.022
13939TIP3    H241763   0.002   3.801   3.939
13940TIP3   OH241764   6.327   5.087   5.085
13940TIP3    H141765   6.320   5.007   5.033
13940TIP3    H241766   6.353   5.154   5.022
13941TIP3   OH241767   0.363   3.391   3.780
13941TIP3    H141768   0.311   3.338   3.720
13941TIP3    H241769   0.406   3.456   3.725
13942TIP3   OH241770   4.122   0.814   0.684
13942TIP3    H141771   4.111   0.719   0.683
13942TIP3    H241772   4.048   0.847   0.633
13943TIP3   OH241773   3.040   6.584   5.593
13943TIP3    H141774   3.008   6.611   5.680
13943TIP3    H241775   3.131   6.613   5.592
13944TIP3   OH241776   4.177   5.857   5.312
13944TIP3    H141777   4.245   5.864   5.245
13944TIP3    H241778   4.224   5.829   5.390
13945TIP3   OH241779   4.567   7.323   2.363
13945TIP3    H141780   4.644   7.269   2.344
13945TIP3    H241781   4.493   7.268   2.339
13946TIP3   OH241782   3.935   7.159   3.702
13946TIP3    H141783   4.017   7.193   3.738
13946TIP3    H241784   3.945   7.167   3.607
13947TIP3   OH241785   7.102   0.792   3.876
13947TIP3    H141786   7.151   0.804   3.794
13947TIP3    H241787   7.164   0.818   3.944
13948TIP3   OH241788   7.194   1.411   4.109
13948TIP3    H141789   7.215   1.505   4.108
13948TIP3    H241790   7.278   1.367   4.108
13949TIP3   OH241791   3.820   4.432   5.726
13949TIP3    H141792   3.814   4.504   5.664
13949TIP3    H241793   3.742   4.380   5.710
13950TIP3   OH241794   4.867   7.666   0.157
13950TIP3    H141795   4.862   7.757   0.128
13950TIP3    H241796   4.780   7.645   0.189
13951TIP3   OH241797   3.729   7.316   3.754
13951TIP3    H141798   3.773   7.399   3.735
13951TIP3    H241799   3.793   7.249   3.730
13952TIP3   OH241800   1.866   6.356   5.599
13952TIP3    H141801   1.951   6.319   5.621
13952TIP3    H241802   1.877   6.450   5.614
13953TIP3   OH241803   8.151   4.821   4.248
13953TIP3    H141804   8.190   4.908   4.243
13953TIP3    H241805   8.069   4.828   4.199
13954TIP3   OH241806   4.794   5.965   3.657
13954TIP3    H141807   4.723   5.900   3.659
13954TIP3    H241808   4.760   6.035   3.602
13955TIP3   OH241809   6.753   3.567   5.222
13955TIP3    H141810   6.834   3.555   5.172
13955TIP3    H241811   6.746   3.489   5.276
13956TIP3   OH241812   3.362   2.847   1.975
13956TIP3    H141813   3.428   2.800   1.924
13956TIP3    H241814   3.339   2.787   2.046
13957TIP3   OH241815   6.972   0.624   0.541
13957TIP3    H141816   7.044   0.687   0.542
13957TIP3    H241817   7.003   0.553   0.485
13958TIP3   OH241818   0.265   1.311   4.134
13958TIP3    H141819   0.286   1.379   4.071
13958TIP3    H241820   0.346   1.297   4.183
13959TIP3   OH241821   4.258   1.838   5.983
13959TIP3    H141822   4.335   1.789   5.954
13959TIP3    H241823   4.282   1.872   6.069
13960TIP3   OH241824   5.746   1.840   5.918
13960TIP3    H141825   5.793   1.775   5.866
13960TIP3    H241826   5.807   1.863   5.988
13961TIP3   OH241827   3.147   0.040   2.310
13961TIP3    H141828   3.056   0.056   2.284
13961TIP3    H241829   3.177   0.125   2.343
13962TIP3   OH241830   4.667   2.538   6.280
13962TIP3    H141831   4.752   2.574   6.306
13962TIP3    H241832   4.642   2.480   6.352
13963TIP3   OH241833   5.293   6.307   1.475
13963TIP3    H141834   5.210   6.329   1.517
13963TIP3    H241835   5.341   6.390   1.471
13964TIP3   OH241836   2.150   2.759   5.980
13964TIP3    H141837   2.091   2.700   6.026
13964TIP3    H241838   2.211   2.702   5.933
13965TIP3   OH241839   1.832   3.554   4.938
13965TIP3    H141840   1.923   3.522   4.934
13965TIP3    H241841   1.840   3.645   4.966
13966TIP3   OH241842   7.399   0.234   1.440
13966TIP3    H141843   7.436   0.306   1.388
13966TIP3    H241844   7.309   0.260   1.456
13967TIP3   OH241845   7.322   2.883   2.637
13967TIP3    H141846   7.360   2.971   2.625
13967TIP3    H241847   7.230   2.899   2.654
13968TIP3   OH241848   2.484   5.917   3.624
13968TIP3    H141849   2.501   5.988   3.686
13968TIP3    H241850   2.518   5.839   3.667
13969TIP3   OH241851   2.067   1.234   3.661
13969TIP3    H141852   1.974   1.214   3.671
13969TIP3    H241853   2.111   1.151   3.682
13970TIP3   OH241854   0.142   3.634   2.698
13970TIP3    H141855   0.163   3.605   2.787
13970TIP3    H241856   0.202   3.707   2.682
13971TIP3   OH241857   6.609   4.648   6.691
13971TIP3    H141858   6.559   4.608   6.619
13971TIP3    H241859   6.629   4.736   6.661
13972TIP3   OH241860   8.181   6.914   3.503
13972TIP3    H141861   8.087   6.910   3.481
13972TIP3    H241862   8.200   7.008   3.507
13973TIP3   OH241863   4.599   2.647   5.740
13973TIP3    H141864   4.595   2.722   5.682
13973TIP3    H241865   4.607   2.684   5.828
13974TIP3   OH241866   8.099   3.204   5.357
13974TIP3    H141867   8.008   3.183   5.338
13974TIP3    H241868   8.148   3.128   5.327
13975TIP3   OH241869   5.385   7.048   3.879
13975TIP3    H141870   5.430   7.072   3.960
13975TIP3    H241871   5.370   7.132   3.834
13976TIP3   OH241872   4.485   5.847   5.019
13976TIP3    H141873   4.529   5.913   4.966
13976TIP3    H241874   4.542   5.770   5.016
13977TIP3   OH241875   1.531   4.924   0.146
13977TIP3    H141876   1.544   4.832   0.122
13977TIP3    H241877   1.607   4.970   0.110
13978TIP3   OH241878   2.061   0.739   3.393
13978TIP3    H141879   2.125   0.802   3.425
13978TIP3    H241880   1.995   0.792   3.347
13979TIP3   OH241881   8.267   1.782   0.982
13979TIP3    H141882   8.243   1.747   1.067
13979TIP3    H241883   8.236   1.873   0.983
13980TIP3   OH241884   5.375   3.028   1.338
13980TIP3    H141885   5.287   3.004   1.367
13980TIP3    H241886   5.364   3.113   1.296
13981TIP3   OH241887   2.445   0.675   2.455
13981TIP3    H141888   2.430   0.594   2.406
13981TIP3    H241889   2.532   0.665   2.493
13982TIP3   OH241890   7.321   5.630   5.538
13982TIP3    H141891   7.381   5.702   5.517
13982TIP3    H241892   7.327   5.622   5.634
13983TIP3   OH241893   0.041   7.118   1.293
13983TIP3    H141894   0.043   7.213   1.285
13983TIP3    H241895   0.114   7.087   1.239
13984TIP3   OH241896   6.672   1.768   0.760
13984TIP3    H141897   6.718   1.851   0.745
13984TIP3    H241898   6.589   1.794   0.801
13985TIP3   OH241899   3.683   1.083   0.925
13985TIP3    H141900   3.682   1.152   0.859
13985TIP3    H241901   3.726   1.009   0.883
13986TIP3   OH241902   0.027   4.215   3.502
13986TIP3    H141903   0.066   4.231   3.416
13986TIP3    H241904  -0.066   4.202   3.485
13987TIP3   OH241905   7.127   1.835   5.016
13987TIP3    H141906   7.041   1.848   4.974
13987TIP3    H241907   7.113   1.861   5.107
13988TIP3   OH241908   0.982   0.459   2.479
13988TIP3    H141909   0.974   0.389   2.415
13988TIP3    H241910   1.019   0.416   2.557
13989TIP3   OH241911   3.854   1.923   6.632
13989TIP3    H141912   3.902   1.849   6.669
13989TIP3    H241913   3.894   2.000   6.672
13990TIP3   OH241914   4.754   7.324   5.855
13990TIP3    H141915   4.829   7.271   5.828
13990TIP3    H241916   4.790   7.413   5.863
13991TIP3   OH241917   8.219   3.439   5.316
13991TIP3    H141918   8.199   3.347   5.296
13991TIP3    H241919   8.314   3.446   5.303
13992TIP3   OH241920   7.218   2.860   3.892
13992TIP3    H141921   7.304   2.892   3.867
13992TIP3    H241922   7.156   2.920   3.849
13993TIP3   OH241923   0.091   7.551   3.687
13993TIP3    H141924   0.095   7.474   3.630
13993TIP3    H241925   0.158   7.610   3.653
13994TIP3   OH241926   3.891   6.956   2.221
13994TIP3    H141927   3.810   7.007   2.224
13994TIP3    H241928   3.912   6.939   2.313
13995TIP3   OH241929   2.581   6.967   6.528
13995TIP3    H141930   2.555   6.967   6.436
13995TIP3    H241931   2.500   6.984   6.576
13996TIP3   OH241932   4.752   5.054   3.503
13996TIP3    H141933   4.785   5.115   3.569
13996TIP3    H241934   4.783   5.090   3.420
13997TIP3   OH241935   3.126   0.822   5.988
13997TIP3    H141936   3.070   0.793   6.061
13997TIP3    H241937   3.104   0.763   5.916
13998TIP3   OH241938   8.074   1.556   3.838
13998TIP3    H141939   8.155   1.602   3.817
13998TIP3    H241940   8.100   1.488   3.900
13999TIP3   OH241941   3.861   5.630   5.939
13999TIP3    H141942   3.933   5.665   5.887
13999TIP3    H241943   3.811   5.707   5.967
14000TIP3   OH241944   3.710   7.356   5.507
14000TIP3    H141945   3.620   7.325   5.518
14000TIP3    H241946   3.733   7.329   5.418
14001TIP3   OH241947   5.037   0.322   2.185
14001TIP3    H141948   5.088   0.356   2.112
14001TIP3    H241949   5.057   0.380   2.258
14002TIP3   OH241950   0.927   1.901   2.344
14002TIP3    H141951   0.908   1.820   2.391
14002TIP3    H241952   0.994   1.944   2.396
14003TIP3   OH241953   2.019   0.390   3.619
14003TIP3    H141954   1.933   0.410   3.582
14003TIP3    H241955   2.003   0.385   3.714
14004TIP3   OH241956   0.687   7.629   4.912
14004TIP3    H141957   0.648   7.546   4.884
14004TIP3    H241958   0.635   7.696   4.868
14005TIP3   OH241959   7.533   2.335   0.728
14005TIP3    H141960   7.605   2.297   0.678
14005TIP3    H241961   7.508   2.413   0.680
14006TIP3   OH241962   2.751   0.345   4.906
14006TIP3    H141963   2.717   0.322   4.993
14006TIP3    H241964   2.844   0.364   4.921
14007TIP3   OH241965   5.256   6.329   4.424
14007TIP3    H141966   5.280   6.249   4.376
14007TIP3    H241967   5.299   6.400   4.376
14008TIP3   OH241968   1.212   5.967   5.427
14008TIP3    H141969   1.217   5.885   5.475
14008TIP3    H241970   1.131   5.961   5.378
14009TIP3   OH241971   5.038   2.977   0.237
14009TIP3    H141972   4.987   3.016   0.308
14009TIP3    H241973   5.129   3.001   0.256
14010TIP3   OH241974   2.624   1.645   0.170
14010TIP3    H141975   2.677   1.566   0.169
14010TIP3    H241976   2.607   1.662   0.263
14011TIP3   OH241977   3.674   0.653   1.740
14011TIP3    H141978   3.721   0.736   1.748
14011TIP3    H241979   3.592   0.675   1.696
14012TIP3   OH241980   0.880   3.889   6.707
14012TIP3    H141981   0.851   3.817   6.650
14012TIP3    H241982   0.883   3.965   6.649
14013TIP3   OH241983   0.557   5.091   4.505
14013TIP3    H141984   0.621   5.135   4.561
14013TIP3    H241985   0.472   5.117   4.541
14014TIP3   OH241986   1.093   7.192   2.455
14014TIP3    H141987   1.180   7.158   2.475
14014TIP3    H241988   1.035   7.144   2.514
14015TIP3   OH241989   2.525   1.278   5.451
14015TIP3    H141990   2.592   1.322   5.399
14015TIP3    H241991   2.558   1.282   5.541
14016TIP3   OH241992   3.890   4.541   5.181
14016TIP3    H141993   3.931   4.488   5.249
14016TIP3    H241994   3.805   4.500   5.167
14017TIP3   OH241995   0.292   6.940   5.436
14017TIP3    H141996   0.384   6.966   5.431
14017TIP3    H241997   0.259   6.950   5.347
14018TIP3   OH241998   4.597   4.565   0.746
14018TIP3    H141999   4.551   4.556   0.662
14018TIP3    H242000   4.680   4.606   0.724
14019TIP3   OH242001   3.949   5.855   0.945
14019TIP3    H142002   4.044   5.858   0.952
14019TIP3    H242003   3.923   5.781   1.000
14020TIP3   OH242004   2.760   1.100   4.995
14020TIP3    H142005   2.816   1.036   5.038
14020TIP3    H242006   2.681   1.051   4.971
14021TIP3   OH242007   5.335   3.408   2.874
14021TIP3    H142008   5.400   3.431   2.807
14021TIP3    H242009   5.367   3.448   2.954
14022TIP3   OH242010   6.348   0.063   1.181
14022TIP3    H142011   6.270   0.066   1.237
14022TIP3    H242012   6.419   0.093   1.237
14023TIP3   OH242013   2.172   6.852   5.854
14023TIP3    H142014   2.164   6.872   5.947
14023TIP3    H242015   2.235   6.780   5.851
14024TIP3   OH242016   6.476   3.187   1.060
14024TIP3    H142017   6.440   3.214   1.144
14024TIP3    H242018   6.565   3.224   1.058
14025TIP3   OH242019   5.613   2.029   5.649
14025TIP3    H142020   5.601   2.024   5.744
14025TIP3    H242021   5.526   2.051   5.615
14026TIP3   OH242022   5.174   0.691   0.506
14026TIP3    H142023   5.160   0.617   0.446
14026TIP3    H242024   5.269   0.701   0.509
14027TIP3   OH242025   6.491   0.084   3.769
14027TIP3    H142026   6.404   0.049   3.749
14027TIP3    H242027   6.476   0.146   3.840
14028TIP3   OH242028   2.171   7.360   3.764
14028TIP3    H142029   2.204   7.402   3.685
14028TIP3    H242030   2.126   7.281   3.733
14029TIP3   OH242031   3.645   5.590   0.680
14029TIP3    H142032   3.622   5.659   0.742
14029TIP3    H242033   3.652   5.634   0.596
14030TIP3   OH242034   7.168   4.805   3.019
14030TIP3    H142035   7.156   4.710   3.016
14030TIP3    H242036   7.102   4.836   3.081
14031TIP3   OH242037   5.836   4.832   2.736
14031TIP3    H142038   5.767   4.779   2.695
14031TIP3    H242039   5.789   4.889   2.796
14032TIP3   OH242040   4.075   5.504   0.940
14032TIP3    H142041   4.042   5.538   0.856
14032TIP3    H242042   4.085   5.410   0.925
14033TIP3   OH242043   2.875   7.731   2.397
14033TIP3    H142044   2.799   7.709   2.450
14033TIP3    H242045   2.839   7.770   2.318
14034TIP3   OH242046   2.553   3.069   6.441
14034TIP3    H142047   2.512   2.997   6.488
14034TIP3    H242048   2.525   3.058   6.350
14035TIP3   OH242049   2.709   6.245   2.674
14035TIP3    H142050   2.805   6.245   2.674
14035TIP3    H242051   2.685   6.335   2.692
14036TIP3   OH242052   7.032   5.352   2.145
14036TIP3    H142053   7.087   5.409   2.092
14036TIP3    H242054   7.052   5.264   2.114
14037TIP3   OH242055   6.482   5.094   6.010
14037TIP3    H142056   6.453   5.068   6.097
14037TIP3    H242057   6.444   5.180   5.997
14038TIP3   OH242058   7.981   3.915   3.579
14038TIP3    H142059   7.974   3.927   3.484
14038TIP3    H242060   8.053   3.852   3.589
14039TIP3   OH242061   6.877   7.084   1.765
14039TIP3    H142062   6.848   7.169   1.732
14039TIP3    H242063   6.901   7.035   1.686
14040TIP3   OH242064   5.318   3.893   6.363
14040TIP3    H142065   5.355   3.981   6.369
14040TIP3    H242066   5.259   3.887   6.438
14041TIP3   OH242067   1.702   7.088   1.061
14041TIP3    H142068   1.726   7.162   1.115
14041TIP3    H242069   1.612   7.068   1.085
14042TIP3   OH242070   7.525   0.171   3.996
14042TIP3    H142071   7.540   0.111   3.924
14042TIP3    H242072   7.562   0.254   3.966
14043TIP3   OH242073   7.568   0.674   1.337
14043TIP3    H142074   7.578   0.646   1.427
14043TIP3    H242075   7.622   0.614   1.286
14044TIP3   OH242076   0.536   6.871   0.821
14044TIP3    H142077   0.473   6.802   0.843
14044TIP3    H242078   0.608   6.824   0.780
14045TIP3   OH242079   8.258   1.371   6.248
14045TIP3    H142080   8.276   1.450   6.298
14045TIP3    H242081   8.235   1.306   6.314
14046TIP3   OH242082   6.623   4.753   4.748
14046TIP3    H142083   6.641   4.830   4.694
14046TIP3    H242084   6.632   4.679   4.688
14047TIP3   OH242085   3.474   1.281   3.905
14047TIP3    H142086   3.455   1.375   3.902
14047TIP3    H242087   3.430   1.250   3.984
14048TIP3   OH242088   3.299   6.829   2.563
14048TIP3    H142089   3.350   6.895   2.517
14048TIP3    H242090   3.357   6.797   2.632
14049TIP3   OH242091   5.557   1.798   5.349
14049TIP3    H142092   5.563   1.747   5.430
14049TIP3    H242093   5.613   1.751   5.287
14050TIP3   OH242094   4.516   4.298   3.746
14050TIP3    H142095   4.608   4.279   3.728
14050TIP3    H242096   4.467   4.242   3.685
14051TIP3   OH242097   4.648   0.411   3.727
14051TIP3    H142098   4.626   0.371   3.643
14051TIP3    H242099   4.630   0.343   3.791
14052TIP3   OH242100   0.193   0.275   1.702
14052TIP3    H142101   0.154   0.271   1.615
14052TIP3    H242102   0.159   0.356   1.740
14053TIP3   OH242103   0.853   5.371   6.425
14053TIP3    H142104   0.769   5.337   6.457
14053TIP3    H242105   0.841   5.379   6.331
14054TIP3   OH242106   6.670   0.319   3.429
14054TIP3    H142107   6.757   0.306   3.467
14054TIP3    H242108   6.674   0.405   3.388
14055TIP3   OH242109   6.901   5.551   3.978
14055TIP3    H142110   6.817   5.506   3.970
14055TIP3    H242111   6.945   5.506   4.050
14056TIP3   OH242112   1.956   6.797   2.608
14056TIP3    H142113   1.930   6.813   2.517
14056TIP3    H242114   1.878   6.760   2.649
14057TIP3   OH242115   3.695   1.135   5.896
14057TIP3    H142116   3.691   1.182   5.980
14057TIP3    H242117   3.620   1.168   5.846
14058TIP3   OH242118   4.133   3.247   4.737
14058TIP3    H142119   4.155   3.255   4.644
14058TIP3    H242120   4.178   3.321   4.779
14059TIP3   OH242121   7.529   1.712   6.403
14059TIP3    H142122   7.603   1.698   6.344
14059TIP3    H242123   7.562   1.686   6.489
14060TIP3   OH242124   0.506   5.820   3.363
14060TIP3    H142125   0.578   5.871   3.400
14060TIP3    H242126   0.444   5.885   3.329
14061TIP3   OH242127   6.689   7.779   2.089
14061TIP3    H142128   6.765   7.834   2.108
14061TIP3    H242129   6.713   7.692   2.120
14062TIP3   OH242130   3.316   0.661   2.416
14062TIP3    H142131   3.395   0.658   2.361
14062TIP3    H242132   3.287   0.752   2.411
14063TIP3   OH242133   5.069   7.015   3.421
14063TIP3    H142134   5.006   7.046   3.356
14063TIP3    H242135   5.146   6.990   3.370
14064TIP3   OH242136   5.412   2.553   0.909
14064TIP3    H142137   5.385   2.494   0.980
14064TIP3    H242138   5.333   2.568   0.858
14065TIP3   OH242139   5.493   2.815   0.384
14065TIP3    H142140   5.416   2.777   0.342
14065TIP3    H242141   5.463   2.901   0.413
14066TIP3   OH242142   2.394   7.520   5.464
14066TIP3    H142143   2.448   7.597   5.481
14066TIP3    H242144   2.322   7.551   5.409
14067TIP3   OH242145   6.664   1.841   0.398
14067TIP3    H142146   6.745   1.893   0.390
14067TIP3    H242147   6.694   1.756   0.431
14068TIP3   OH242148   1.099   5.244   6.330
14068TIP3    H142149   1.040   5.277   6.397
14068TIP3    H242150   1.125   5.157   6.361
14069TIP3   OH242151   1.707   2.549   6.400
14069TIP3    H142152   1.758   2.552   6.481
14069TIP3    H242153   1.723   2.634   6.358
14070TIP3   OH242154   3.691   2.529   6.261
14070TIP3    H142155   3.679   2.617   6.227
14070TIP3    H242156   3.643   2.528   6.344
14071TIP3   OH242157   1.245   7.342   3.676
14071TIP3    H142158   1.279   7.269   3.624
14071TIP3    H242159   1.274   7.420   3.629
14072TIP3   OH242160   4.542   2.391   5.847
14072TIP3    H142161   4.574   2.477   5.820
14072TIP3    H242162   4.605   2.361   5.912
14073TIP3   OH242163   1.235   2.033   1.279
14073TIP3    H142164   1.169   2.014   1.213
14073TIP3    H242165   1.304   2.078   1.231
14074TIP3   OH242166   2.332   3.892   2.129
14074TIP3    H142167   2.393   3.940   2.073
14074TIP3    H242168   2.345   3.930   2.216
14075TIP3   OH242169   4.155   1.176   0.671
14075TIP3    H142170   4.244   1.197   0.644
14075TIP3    H242171   4.164   1.144   0.761
14076TIP3   OH242172   4.476   3.978   4.343
14076TIP3    H142173   4.489   3.929   4.425
14076TIP3    H242174   4.429   3.917   4.286
14077TIP3   OH242175   0.389   4.587   4.837
14077TIP3    H142176   0.370   4.520   4.771
14077TIP3    H242177   0.483   4.604   4.828
14078TIP3   OH242178   4.324   7.133   2.428
14078TIP3    H142179   4.380   7.120   2.505
14078TIP3    H242180   4.243   7.168   2.464
14079TIP3   OH242181   2.315   0.091   0.105
14079TIP3    H142182   2.306   0.154   0.034
14079TIP3    H242183   2.229   0.090   0.147
14080TIP3   OH242184   6.370   2.027   5.024
14080TIP3    H142185   6.382   1.994   5.113
14080TIP3    H242186   6.277   2.049   5.020
14081TIP3   OH242187   2.651   6.376   4.908
14081TIP3    H142188   2.674   6.327   4.829
14081TIP3    H242189   2.719   6.353   4.971
14082TIP3   OH242190   6.388   2.957   0.668
14082TIP3    H142191   6.430   3.037   0.698
14082TIP3    H242192   6.319   2.940   0.732
14083TIP3   OH242193   2.619   3.092   4.833
14083TIP3    H142194   2.598   3.184   4.849
14083TIP3    H242195   2.549   3.061   4.776
14084TIP3   OH242196   4.398   3.576   0.679
14084TIP3    H142197   4.455   3.640   0.636
14084TIP3    H242198   4.310   3.612   0.671
14085TIP3   OH242199   2.435   2.932   5.523
14085TIP3    H142200   2.447   2.968   5.435
14085TIP3    H242201   2.459   3.003   5.582
14086TIP3   OH242202   5.347   2.730   5.420
14086TIP3    H142203   5.288   2.793   5.460
14086TIP3    H242204   5.418   2.783   5.382
14087TIP3   OH242205   3.183   3.326   5.431
14087TIP3    H142206   3.209   3.287   5.348
14087TIP3    H242207   3.247   3.396   5.445
14088TIP3   OH242208   7.781   6.080   0.291
14088TIP3    H142209   7.787   6.010   0.357
14088TIP3    H242210   7.871   6.090   0.259
14089TIP3   OH242211   6.255   3.573   0.868
14089TIP3    H142212   6.273   3.652   0.818
14089TIP3    H242213   6.277   3.596   0.959
14090TIP3   OH242214   6.253   1.115   5.586
14090TIP3    H142215   6.333   1.100   5.636
14090TIP3    H242216   6.224   1.203   5.613
14091TIP3   OH242217   6.986   3.006   3.805
14091TIP3    H142218   7.010   3.093   3.773
14091TIP3    H242219   6.910   3.021   3.861
14092TIP3   OH242220   4.155   4.784   3.793
14092TIP3    H142221   4.201   4.700   3.794
14092TIP3    H242222   4.216   4.844   3.750
14093TIP3   OH242223   0.360   4.776   5.038
14093TIP3    H142224   0.434   4.836   5.048
14093TIP3    H242225   0.398   4.700   4.992
14094TIP3   OH242226   4.682   1.740   4.587
14094TIP3    H142227   4.671   1.834   4.593
14094TIP3    H242228   4.731   1.716   4.667
14095TIP3   OH242229   5.448   4.778   4.420
14095TIP3    H142230   5.513   4.721   4.380
14095TIP3    H242231   5.386   4.798   4.350
14096TIP3   OH242232   1.840   0.737   4.779
14096TIP3    H142233   1.867   0.648   4.801
14096TIP3    H242234   1.919   0.780   4.748
14097TIP3   OH242235   0.840   1.738   6.515
14097TIP3    H142236   0.860   1.737   6.422
14097TIP3    H242237   0.744   1.729   6.520
14098TIP3   OH242238   5.496   6.990   2.722
14098TIP3    H142239   5.429   7.056   2.736
14098TIP3    H242240   5.467   6.914   2.773
14099TIP3   OH242241   2.642   6.226   1.432
14099TIP3    H142242   2.626   6.134   1.414
14099TIP3    H242243   2.641   6.232   1.528
14100TIP3   OH242244   7.115   0.678   4.994
14100TIP3    H142245   7.185   0.677   5.059
14100TIP3    H242246   7.157   0.707   4.913
14101TIP3   OH242247   3.249   2.898   0.734
14101TIP3    H142248   3.250   2.992   0.749
14101TIP3    H242249   3.245   2.888   0.639
14102TIP3   OH242250   4.560   0.745   6.534
14102TIP3    H142251   4.588   0.805   6.602
14102TIP3    H242252   4.518   0.801   6.468
14103TIP3   OH242253   4.922   0.662   4.459
14103TIP3    H142254   4.962   0.728   4.517
14103TIP3    H242255   4.992   0.639   4.398
14104TIP3   OH242256   0.113   3.705   3.522
14104TIP3    H142257   0.176   3.737   3.586
14104TIP3    H242258   0.155   3.628   3.484
14105TIP3   OH242259   0.166   2.785   1.458
14105TIP3    H142260   0.172   2.808   1.366
14105TIP3    H242261   0.180   2.868   1.504
14106TIP3   OH242262   7.722   6.792   4.774
14106TIP3    H142263   7.734   6.839   4.857
14106TIP3    H242264   7.770   6.844   4.710
14107TIP3   OH242265   6.758   5.621   0.008
14107TIP3    H142266   6.853   5.623   0.016
14107TIP3    H242267   6.727   5.683   0.074
14108TIP3   OH242268   4.421   7.300   4.535
14108TIP3    H142269   4.388   7.292   4.625
14108TIP3    H242270   4.453   7.212   4.514
14109TIP3   OH242271   5.279   4.870   6.643
14109TIP3    H142272   5.356   4.903   6.689
14109TIP3    H242273   5.306   4.786   6.608
14110TIP3   OH242274   4.401   3.790   3.355
14110TIP3    H142275   4.397   3.874   3.309
14110TIP3    H242276   4.351   3.804   3.435
14111TIP3   OH242277   2.397   4.872   2.876
14111TIP3    H142278   2.462   4.876   2.947
14111TIP3    H242279   2.367   4.782   2.876
14112TIP3   OH242280   3.256   7.703   5.813
14112TIP3    H142281   3.339   7.749   5.806
14112TIP3    H242282   3.189   7.771   5.803
14113TIP3   OH242283   3.583   2.761   6.160
14113TIP3    H142284   3.539   2.748   6.076
14113TIP3    H242285   3.521   2.812   6.212
14114TIP3   OH242286   2.553   1.880   4.557
14114TIP3    H142287   2.575   1.842   4.472
14114TIP3    H242288   2.542   1.805   4.615
14115TIP3   OH242289   2.530   0.262   4.516
14115TIP3    H142290   2.589   0.337   4.526
14115TIP3    H242291   2.491   0.274   4.429
14116TIP3   OH242292   7.075   4.372   4.127
14116TIP3    H142293   7.161   4.347   4.162
14116TIP3    H242294   7.021   4.385   4.205
14117TIP3   OH242295   0.240   3.160   3.597
14117TIP3    H142296   0.311   3.150   3.533
14117TIP3    H242297   0.173   3.098   3.567
14118TIP3   OH242298   1.371   5.956   1.756
14118TIP3    H142299   1.334   5.975   1.670
14118TIP3    H242300   1.296   5.963   1.816
14119TIP3   OH242301   1.513   2.763   1.336
14119TIP3    H142302   1.573   2.816   1.388
14119TIP3    H242303   1.519   2.675   1.374
14120TIP3   OH242304   4.505   6.026   0.317
14120TIP3    H142305   4.531   5.980   0.396
14120TIP3    H242306   4.529   6.118   0.333
14121TIP3   OH242307   2.024   4.106   5.605
14121TIP3    H142308   2.071   4.093   5.687
14121TIP3    H242309   2.092   4.128   5.541
14122TIP3   OH242310   0.139   6.258   5.703
14122TIP3    H142311   0.050   6.271   5.736
14122TIP3    H242312   0.174   6.185   5.754
14123TIP3   OH242313   1.792   0.930   1.555
14123TIP3    H142314   1.812   0.980   1.634
14123TIP3    H242315   1.697   0.936   1.546
14124TIP3   OH242316   8.117   0.993   1.181
14124TIP3    H142317   8.165   0.969   1.102
14124TIP3    H242318   8.143   1.083   1.199
14125TIP3   OH242319   3.305   0.974   1.040
14125TIP3    H142320   3.387   0.991   1.085
14125TIP3    H242321   3.278   0.887   1.070
14126TIP3   OH242322   0.191   0.860   5.071
14126TIP3    H142323   0.168   0.872   4.978
14126TIP3    H242324   0.108   0.868   5.117
14127TIP3   OH242325   6.496   3.128   3.896
14127TIP3    H142326   6.480   3.133   3.802
14127TIP3    H242327   6.447   3.201   3.933
14128TIP3   OH242328   6.754   7.479   2.192
14128TIP3    H142329   6.847   7.497   2.207
14128TIP3    H242330   6.745   7.385   2.208
14129TIP3   OH242331   7.336   5.219   0.041
14129TIP3    H142332   7.327   5.181  -0.046
14129TIP3    H242333   7.247   5.220   0.076
14130TIP3   OH242334   6.026   5.404   4.950
14130TIP3    H142335   6.116   5.413   4.919
14130TIP3    H242336   6.035   5.377   5.041
14131TIP3   OH242337   4.175   5.822   6.552
14131TIP3    H142338   4.082   5.817   6.574
14131TIP3    H242339   4.203   5.730   6.542
14132TIP3   OH242340   7.728   1.875   0.423
14132TIP3    H142341   7.649   1.829   0.449
14132TIP3    H242342   7.733   1.950   0.483
14133TIP3   OH242343   2.820   2.401   1.400
14133TIP3    H142344   2.806   2.494   1.386
14133TIP3    H242345   2.914   2.392   1.410
14134TIP3   OH242346   3.738   1.347   0.792
14134TIP3    H142347   3.805   1.390   0.845
14134TIP3    H242348   3.786   1.306   0.720
14135TIP3   OH242349   2.594   1.111   6.637
14135TIP3    H142350   2.690   1.116   6.640
14135TIP3    H242351   2.573   1.104   6.544
14136TIP3   OH242352   7.662   5.811  -0.069
14136TIP3    H142353   7.722   5.879  -0.038
14136TIP3    H242354   7.609   5.789   0.007
14137TIP3   OH242355   5.165   6.017   2.708
14137TIP3    H142356   5.101   6.080   2.676
14137TIP3    H242357   5.208   5.984   2.629
14138TIP3   OH242358   2.802   6.688   6.743
14138TIP3    H142359   2.896   6.702   6.736
14138TIP3    H242360   2.777   6.736   6.822
14139TIP3   OH242361   1.358   1.375   6.038
14139TIP3    H142362   1.447   1.348   6.063
14139TIP3    H242363   1.371   1.434   5.965
14140TIP3   OH242364   4.312   5.483   6.220
14140TIP3    H142365   4.334   5.562   6.170
14140TIP3    H242366   4.236   5.508   6.272
14141TIP3   OH242367   7.564   0.947   0.412
14141TIP3    H142368   7.620   0.874   0.438
14141TIP3    H242369   7.481   0.931   0.455
14142TIP3   OH242370   6.380   4.523   3.963
14142TIP3    H142371   6.434   4.601   3.973
14142TIP3    H242372   6.406   4.487   3.878
14143TIP3   OH242373   0.440   1.386   2.261
14143TIP3    H142374   0.387   1.307   2.258
14143TIP3    H242375   0.383   1.452   2.299
14144TIP3   OH242376   7.705   7.525   2.575
14144TIP3    H142377   7.643   7.560   2.511
14144TIP3    H242378   7.706   7.590   2.645
14145TIP3   OH242379   7.586   5.401   3.042
14145TIP3    H142380   7.547   5.472   2.991
14145TIP3    H242381   7.680   5.422   3.043
14146TIP3   OH242382   6.111   2.694   1.817
14146TIP3    H142383   6.127   2.661   1.728
14146TIP3    H242384   6.130   2.619   1.874
14147TIP3   OH242385   5.602   0.195   4.163
14147TIP3    H142386   5.513   0.165   4.146
14147TIP3    H242387   5.605   0.208   4.258
14148TIP3   OH242388   6.961   0.235   4.627
14148TIP3    H142389   6.880   0.281   4.650
14148TIP3    H242390   6.987   0.190   4.707
14149TIP3   OH242391   1.601   2.438   0.434
14149TIP3    H142392   1.515   2.433   0.474
14149TIP3    H242393   1.604   2.524   0.392
14150TIP3   OH242394   7.224   4.287   4.806
14150TIP3    H142395   7.196   4.373   4.836
14150TIP3    H242396   7.269   4.305   4.723
14151TIP3   OH242397   3.611   5.171   2.555
14151TIP3    H142398   3.538   5.176   2.493
14151TIP3    H242399   3.689   5.164   2.500
14152TIP3   OH242400   6.341   2.567   0.592
14152TIP3    H142401   6.340   2.502   0.522
14152TIP3    H242402   6.276   2.632   0.564
14153TIP3   OH242403   4.285   3.862   0.893
14153TIP3    H142404   4.257   3.851   0.802
14153TIP3    H242405   4.235   3.936   0.926
14154TIP3   OH242406   2.842   5.844   2.238
14154TIP3    H142407   2.819   5.936   2.227
14154TIP3    H242408   2.934   5.838   2.215
14155TIP3   OH242409   1.432   6.252   5.374
14155TIP3    H142410   1.506   6.311   5.389
14155TIP3    H242411   1.470   6.164   5.377
14156TIP3   OH242412   5.483   0.977   2.110
14156TIP3    H142413   5.436   0.934   2.181
14156TIP3    H242414   5.500   0.907   2.046
14157TIP3   OH242415   1.555   0.347   3.761
14157TIP3    H142416   1.496   0.276   3.786
14157TIP3    H242417   1.546   0.353   3.665
14158TIP3   OH242418   5.471   3.083   0.169
14158TIP3    H142419   5.427   2.999   0.151
14158TIP3    H242420   5.545   3.085   0.108
14159TIP3   OH242421   7.241   7.215   2.865
14159TIP3    H142422   7.276   7.200   2.953
14159TIP3    H242423   7.234   7.128   2.827
14160TIP3   OH242424   8.085   2.666   0.915
14160TIP3    H142425   8.127   2.656   1.001
14160TIP3    H242426   8.104   2.756   0.889
14161TIP3   OH242427   5.662   4.921   0.394
14161TIP3    H142428   5.616   4.840   0.415
14161TIP3    H242429   5.737   4.922   0.454
14162TIP3   OH242430   4.709   5.992   3.931
14162TIP3    H142431   4.768   5.952   3.866
14162TIP3    H242432   4.649   6.045   3.879
14163TIP3   OH242433   2.622   0.881   5.239
14163TIP3    H142434   2.533   0.901   5.268
14163TIP3    H242435   2.610   0.821   5.165
14164TIP3   OH242436   4.047   0.291   1.206
14164TIP3    H142437   4.080   0.202   1.219
14164TIP3    H242438   4.126   0.344   1.195
14165TIP3   OH242439   3.660   2.047   2.547
14165TIP3    H142440   3.615   2.111   2.601
14165TIP3    H242441   3.745   2.035   2.589
14166TIP3   OH242442   1.853   6.863   2.362
14166TIP3    H142443   1.777   6.901   2.318
14166TIP3    H242444   1.896   6.811   2.294
14167TIP3   OH242445   2.472   6.354   6.560
14167TIP3    H142446   2.498   6.376   6.471
14167TIP3    H242447   2.378   6.336   6.554
14168TIP3   OH242448   6.790   3.785   4.439
14168TIP3    H142449   6.867   3.738   4.472
14168TIP3    H242450   6.800   3.874   4.472
14169TIP3   OH242451   5.753   5.551   5.809
14169TIP3    H142452   5.749   5.640   5.774
14169TIP3    H242453   5.819   5.556   5.878
14170TIP3   OH242454   5.354   1.148   1.932
14170TIP3    H142455   5.367   1.241   1.915
14170TIP3    H242456   5.420   1.127   1.998
14171TIP3   OH242457   4.941   5.737   6.087
14171TIP3    H142458   4.871   5.716   6.149
14171TIP3    H242459   4.952   5.657   6.035
14172TIP3   OH242460   3.606   2.579   0.028
14172TIP3    H142461   3.529   2.629  -0.001
14172TIP3    H242462   3.580   2.488   0.018
14173TIP3   OH242463   7.708   5.789   4.493
14173TIP3    H142464   7.787   5.815   4.539
14173TIP3    H242465   7.637   5.826   4.546
14174TIP3   OH242466   7.881   3.532   6.365
14174TIP3    H142467   7.961   3.567   6.324
14174TIP3    H242468   7.837   3.609   6.400
14175TIP3   OH242469   2.358   3.857   2.527
14175TIP3    H142470   2.294   3.787   2.531
14175TIP3    H242471   2.333   3.917   2.598
14176TIP3   OH242472   5.833   2.918   5.645
14176TIP3    H142473   5.902   2.985   5.643
14176TIP3    H242474   5.784   2.937   5.725
14177TIP3   OH242475   5.437   6.684   3.079
14177TIP3    H142476   5.519   6.642   3.103
14177TIP3    H242477   5.374   6.612   3.075
14178TIP3   OH242478   3.923   3.544   2.886
14178TIP3    H142479   3.891   3.577   2.802
14178TIP3    H242480   3.965   3.620   2.927
14179TIP3   OH242481   4.656   3.275   3.699
14179TIP3    H142482   4.640   3.369   3.689
14179TIP3    H242483   4.726   3.256   3.636
14180TIP3   OH242484   0.221   5.985   3.645
14180TIP3    H142485   0.252   6.049   3.708
14180TIP3    H242486   0.278   5.909   3.658
14181TIP3   OH242487   6.358   5.685   2.268
14181TIP3    H142488   6.338   5.639   2.187
14181TIP3    H242489   6.400   5.619   2.323
14182TIP3   OH242490   1.235   1.050   0.712
14182TIP3    H142491   1.217   0.972   0.765
14182TIP3    H242492   1.189   1.034   0.630
14183TIP3   OH242493   0.555   7.470   1.484
14183TIP3    H142494   0.524   7.392   1.438
14183TIP3    H242495   0.590   7.526   1.415
14184TIP3   OH242496   3.363   7.504   1.783
14184TIP3    H142497   3.281   7.468   1.748
14184TIP3    H242498   3.402   7.431   1.831
14185TIP3   OH242499   1.086   3.614   0.799
14185TIP3    H142500   1.009   3.667   0.778
14185TIP3    H242501   1.067   3.577   0.885
14186TIP3   OH242502   2.737   2.957   2.566
14186TIP3    H142503   2.679   2.905   2.510
14186TIP3    H242504   2.771   3.025   2.507
14187TIP3   OH242505   8.260   1.037   0.034
14187TIP3    H142506   8.233   1.108  -0.024
14187TIP3    H242507   8.205   1.047   0.112
14188TIP3   OH242508   4.213   4.237   0.247
14188TIP3    H142509   4.192   4.144   0.238
14188TIP3    H242510   4.129   4.281   0.238
14189TIP3   OH242511   1.603   3.812   3.070
14189TIP3    H142512   1.621   3.748   3.139
14189TIP3    H242513   1.520   3.782   3.031
14190TIP3   OH242514   7.359   4.134   0.602
14190TIP3    H142515   7.284   4.075   0.608
14190TIP3    H242516   7.385   4.149   0.693
14191TIP3   OH242517   2.370   1.712   5.648
14191TIP3    H142518   2.398   1.790   5.600
14191TIP3    H242519   2.275   1.716   5.648
14192TIP3   OH242520   7.528   6.798   2.158
14192TIP3    H142521   7.585   6.848   2.099
14192TIP3    H242522   7.570   6.712   2.165
14193TIP3   OH242523   3.959   6.656   3.981
14193TIP3    H142524   3.888   6.697   4.030
14193TIP3    H242525   4.038   6.675   4.032
14194TIP3   OH242526   1.813   7.155   2.872
14194TIP3    H142527   1.902   7.121   2.873
14194TIP3    H242528   1.757   7.077   2.874
14195TIP3   OH242529   1.323   2.680   0.471
14195TIP3    H142530   1.370   2.704   0.550
14195TIP3    H242531   1.259   2.750   0.458
14196TIP3   OH242532   5.506   0.894   3.252
14196TIP3    H142533   5.560   0.864   3.325
14196TIP3    H242534   5.502   0.989   3.262
14197TIP3   OH242535   6.163   2.594   3.063
14197TIP3    H142536   6.076   2.623   3.090
14197TIP3    H242537   6.177   2.512   3.112
14198TIP3   OH242538   2.959   3.421   1.032
14198TIP3    H142539   3.032   3.389   1.085
14198TIP3    H242540   3.000   3.480   0.968
14199TIP3   OH242541   6.057   1.805   1.784
14199TIP3    H142542   6.131   1.828   1.728
14199TIP3    H242543   6.075   1.716   1.813
14200TIP3   OH242544   3.827   2.310   4.408
14200TIP3    H142545   3.830   2.219   4.379
14200TIP3    H242546   3.872   2.309   4.493
14201TIP3   OH242547   7.040   1.546   0.422
14201TIP3    H142548   7.108   1.480   0.408
14201TIP3    H242549   7.064   1.617   0.363
14202TIP3   OH242550   1.576   4.756   6.272
14202TIP3    H142551   1.666   4.752   6.304
14202TIP3    H242552   1.584   4.785   6.181
14203TIP3   OH242553   3.755   1.636   5.146
14203TIP3    H142554   3.772   1.619   5.239
14203TIP3    H242555   3.795   1.562   5.101
14204TIP3   OH242556   5.842   1.013   5.148
14204TIP3    H142557   5.784   1.085   5.124
14204TIP3    H242558   5.805   0.936   5.104
14205TIP3   OH242559   4.307   6.950   5.891
14205TIP3    H142560   4.360   6.871   5.895
14205TIP3    H242561   4.323   6.986   5.804
14206TIP3   OH242562   4.556   1.116   6.162
14206TIP3    H142563   4.522   1.041   6.111
14206TIP3    H242564   4.649   1.096   6.174
14207TIP3   OH242565   1.428   2.585   1.070
14207TIP3    H142566   1.498   2.650   1.058
14207TIP3    H242567   1.454   2.537   1.148
14208TIP3   OH242568   6.882   4.068   0.715
14208TIP3    H142569   6.790   4.070   0.740
14208TIP3    H242570   6.930   4.077   0.798
14209TIP3   OH242571   6.996   3.857   0.587
14209TIP3    H142572   6.954   3.780   0.625
14209TIP3    H242573   6.962   3.931   0.637
14210TIP3   OH242574   5.760   6.396   3.438
14210TIP3    H142575   5.848   6.410   3.402
14210TIP3    H242576   5.749   6.467   3.502
14211TIP3   OH242577   4.167   5.295   3.684
14211TIP3    H142578   4.186   5.378   3.728
14211TIP3    H242579   4.079   5.307   3.648
14212TIP3   OH242580   0.443   5.221   4.281
14212TIP3    H142581   0.523   5.265   4.251
14212TIP3    H242582   0.463   5.193   4.370
14213TIP3   OH242583   5.104   6.914   4.230
14213TIP3    H142584   5.130   6.824   4.210
14213TIP3    H242585   5.158   6.938   4.305
14214TIP3   OH242586   0.573   3.776   0.080
14214TIP3    H142587   0.594   3.683   0.089
14214TIP3    H242588   0.512   3.780   0.007
14215TIP3   OH242589   8.030   6.064   6.584
14215TIP3    H142590   8.087   6.056   6.507
14215TIP3    H242591   7.983   6.146   6.571
14216TIP3   OH242592   0.574   7.608   1.045
14216TIP3    H142593   0.638   7.548   1.084
14216TIP3    H242594   0.525   7.554   0.983
14217TIP3   OH242595   0.567   6.654   2.343
14217TIP3    H142596   0.549   6.587   2.410
14217TIP3    H242597   0.620   6.719   2.389
14218TIP3   OH242598   0.215   4.883   3.222
14218TIP3    H142599   0.127   4.895   3.188
14218TIP3    H242600   0.206   4.883   3.317
14219TIP3   OH242601   2.978   7.629   0.498
14219TIP3    H142602   3.037   7.705   0.502
14219TIP3    H242603   2.926   7.635   0.578
14220TIP3   OH242604   3.871   1.146   5.308
14220TIP3    H142605   3.823   1.132   5.226
14220TIP3    H242606   3.803   1.166   5.372
14221TIP3   OH242607   2.008   7.185   0.426
14221TIP3    H142608   1.923   7.205   0.387
14221TIP3    H242609   2.069   7.245   0.383
14222TIP3   OH242610   4.531   7.545   4.614
14222TIP3    H142611   4.534   7.587   4.528
14222TIP3    H242612   4.513   7.453   4.595
14223TIP3   OH242613   5.734   0.209   5.194
14223TIP3    H142614   5.692   0.260   5.263
14223TIP3    H242615   5.775   0.136   5.240
14224TIP3   OH242616   1.557   0.678   6.026
14224TIP3    H142617   1.507   0.612   5.977
14224TIP3    H242618   1.520   0.761   5.998
14225TIP3   OH242619   5.996   2.229   1.992
14225TIP3    H142620   6.008   2.234   2.087
14225TIP3    H242621   5.914   2.277   1.976
14226TIP3   OH242622   7.379   1.925   3.921
14226TIP3    H142623   7.335   1.999   3.963
14226TIP3    H242624   7.471   1.952   3.916
14227TIP3   OH242625   3.168   7.249   3.296
14227TIP3    H142626   3.173   7.339   3.329
14227TIP3    H242627   3.255   7.213   3.314
14228TIP3   OH242628   1.003   1.617   0.187
14228TIP3    H142629   0.920   1.600   0.233
14228TIP3    H242630   1.016   1.540   0.132
14229TIP3   OH242631   3.189   1.312   6.035
14229TIP3    H142632   3.179   1.230   5.986
14229TIP3    H242633   3.277   1.307   6.073
14230TIP3   OH242634   6.345   0.298   5.571
14230TIP3    H142635   6.402   0.225   5.598
14230TIP3    H242636   6.368   0.369   5.631
14231TIP3   OH242637   0.685   0.713   5.491
14231TIP3    H142638   0.698   0.804   5.516
14231TIP3    H242639   0.739   0.663   5.553
14232TIP3   OH242640   4.939   2.634   2.868
14232TIP3    H142641   4.917   2.701   2.804
14232TIP3    H242642   4.875   2.645   2.938
14233TIP3   OH242643   5.528   2.810   6.188
14233TIP3    H142644   5.585   2.734   6.198
14233TIP3    H242645   5.517   2.820   6.094
14234TIP3   OH242646   4.931   1.258   6.336
14234TIP3    H142647   5.023   1.277   6.356
14234TIP3    H242648   4.908   1.322   6.268
14235TIP3   OH242649   3.353   2.749   4.162
14235TIP3    H142650   3.409   2.679   4.195
14235TIP3    H242651   3.332   2.723   4.072
14236TIP3   OH242652   0.894   5.773   3.670
14236TIP3    H142653   0.886   5.840   3.738
14236TIP3    H242654   0.922   5.821   3.592
14237TIP3   OH242655   6.614   6.182   5.047
14237TIP3    H142656   6.648   6.204   5.134
14237TIP3    H242657   6.684   6.131   5.006
14238TIP3   OH242658   3.638   0.426   2.768
14238TIP3    H142659   3.562   0.461   2.722
14238TIP3    H242660   3.611   0.340   2.799
14239TIP3   OH242661   7.965   3.255   3.101
14239TIP3    H142662   7.899   3.201   3.145
14239TIP3    H242663   7.923   3.283   3.019
14240TIP3   OH242664   6.108   1.058   4.767
14240TIP3    H142665   6.184   1.046   4.824
14240TIP3    H242666   6.144   1.054   4.678
14241TIP3   OH242667   0.287   6.630   1.404
14241TIP3    H142668   0.257   6.559   1.348
14241TIP3    H242669   0.214   6.648   1.463
14242TIP3   OH242670   7.972   7.580   4.028
14242TIP3    H142671   7.934   7.650   4.080
14242TIP3    H242672   7.951   7.500   4.077
14243TIP3   OH242673   2.126   0.078   0.806
14243TIP3    H142674   2.158   0.099   0.893
14243TIP3    H242675   2.100  -0.014   0.811
14244TIP3   OH242676   4.845   1.898   2.521
14244TIP3    H142677   4.901   1.963   2.564
14244TIP3    H242678   4.759   1.912   2.560
14245TIP3   OH242679   2.858   7.023   3.949
14245TIP3    H142680   2.878   6.955   4.014
14245TIP3    H242681   2.928   7.015   3.884
14246TIP3   OH242682   6.045   6.603   1.320
14246TIP3    H142683   6.046   6.610   1.224
14246TIP3    H242684   6.077   6.515   1.338
14247TIP3   OH242685   1.636   3.719   5.260
14247TIP3    H142686   1.567   3.659   5.287
14247TIP3    H242687   1.692   3.727   5.337
14248TIP3   OH242688   4.005   2.105   0.471
14248TIP3    H142689   4.000   2.200   0.460
14248TIP3    H242690   3.974   2.090   0.560
14249TIP3   OH242691   3.771   4.938   1.502
14249TIP3    H142692   3.789   4.954   1.409
14249TIP3    H242693   3.827   4.864   1.525
14250TIP3   OH242694   8.080   1.265   4.310
14250TIP3    H142695   8.162   1.248   4.264
14250TIP3    H242696   8.040   1.179   4.322
14251TIP3   OH242697   2.054   0.192   1.301
14251TIP3    H142698   2.133   0.239   1.277
14251TIP3    H242699   2.056   0.113   1.247
14252TIP3   OH242700   6.643   7.653   1.705
14252TIP3    H142701   6.687   7.596   1.768
14252TIP3    H242702   6.555   7.615   1.696
14253TIP3   OH242703   7.143   5.306   0.371
14253TIP3    H142704   7.084   5.256   0.427
14253TIP3    H242705   7.107   5.295   0.283
14254TIP3   OH242706   7.236   7.456   4.567
14254TIP3    H142707   7.177   7.464   4.642
14254TIP3    H242708   7.248   7.545   4.536
14255TIP3   OH242709   6.833   4.672   6.200
14255TIP3    H142710   6.898   4.602   6.191
14255TIP3    H242711   6.786   4.673   6.117
14256TIP3   OH242712   5.159   4.882   0.190
14256TIP3    H142713   5.189   4.966   0.156
14256TIP3    H242714   5.079   4.864   0.141
14257TIP3   OH242715   8.280   5.435   2.132
14257TIP3    H142716   8.325   5.479   2.204
14257TIP3    H242717   8.242   5.506   2.080
14258TIP3   OH242718   2.784   5.720   4.339
14258TIP3    H142719   2.748   5.786   4.398
14258TIP3    H242720   2.867   5.693   4.379
14259TIP3   OH242721   1.678   3.821   4.793
14259TIP3    H142722   1.763   3.814   4.749
14259TIP3    H242723   1.614   3.802   4.724
14260TIP3   OH242724   5.815   4.457   4.802
14260TIP3    H142725   5.736   4.429   4.848
14260TIP3    H242726   5.795   4.444   4.709
14261TIP3   OH242727   3.090   4.302   1.291
14261TIP3    H142728   3.168   4.355   1.278
14261TIP3    H242729   3.121   4.225   1.338
14262TIP3   OH242730   7.869   3.806   6.366
14262TIP3    H142731   7.845   3.842   6.280
14262TIP3    H242732   7.965   3.803   6.365
14263TIP3   OH242733   4.412   0.880   1.361
14263TIP3    H142734   4.455   0.877   1.446
14263TIP3    H242735   4.477   0.921   1.303
14264TIP3   OH242736   0.878   2.270   1.740
14264TIP3    H142737   0.937   2.315   1.680
14264TIP3    H242738   0.899   2.178   1.730
14265TIP3   OH242739   6.601   5.793   4.527
14265TIP3    H142740   6.555   5.779   4.610
14265TIP3    H242741   6.537   5.837   4.471
14266TIP3   OH242742   6.676   2.145   2.606
14266TIP3    H142743   6.653   2.052   2.616
14266TIP3    H242744   6.591   2.190   2.605
14267TIP3   OH242745   0.654   6.632   4.510
14267TIP3    H142746   0.667   6.556   4.567
14267TIP3    H242747   0.634   6.704   4.570
14268TIP3   OH242748   0.719   3.998   4.494
14268TIP3    H142749   0.633   3.995   4.536
14268TIP3    H242750   0.736   4.091   4.480
14269TIP3   OH242751   5.238   7.095   2.027
14269TIP3    H142752   5.332   7.089   2.046
14269TIP3    H242753   5.231   7.076   1.933
14270TIP3   OH242754   6.755   5.977   3.775
14270TIP3    H142755   6.729   5.977   3.867
14270TIP3    H242756   6.836   5.927   3.772
14271TIP3   OH242757   2.592   3.691   3.730
14271TIP3    H142758   2.607   3.629   3.660
14271TIP3    H242759   2.607   3.777   3.690
14272TIP3   OH242760   8.350   4.227   6.058
14272TIP3    H142761   8.324   4.234   6.149
14272TIP3    H242762   8.289   4.165   6.019
14273TIP3   OH242763   4.595   5.362   4.763
14273TIP3    H142764   4.543   5.315   4.698
14273TIP3    H242765   4.684   5.360   4.728
14274TIP3   OH242766   3.920   0.630   2.500
14274TIP3    H142767   3.901   0.663   2.412
14274TIP3    H242768   3.854   0.672   2.555
14275TIP3   OH242769   2.956   1.076   6.253
14275TIP3    H142770   2.989   1.028   6.329
14275TIP3    H242771   3.005   1.159   6.254
14276TIP3   OH242772   7.938   0.111   5.236
14276TIP3    H142773   7.949   0.033   5.290
14276TIP3    H242774   7.923   0.182   5.299
14277TIP3   OH242775   1.977   2.722   4.302
14277TIP3    H142776   1.926   2.694   4.378
14277TIP3    H242777   1.933   2.801   4.271
14278TIP3   OH242778   5.070   5.934   0.809
14278TIP3    H142779   5.083   5.936   0.904
14278TIP3    H242780   5.040   5.846   0.790
14279TIP3   OH242781   4.127   3.349   0.061
14279TIP3    H142782   4.051   3.371   0.115
14279TIP3    H242783   4.155   3.264   0.094
14280TIP3   OH242784   4.270   4.555   0.039
14280TIP3    H142785   4.221   4.604   0.105
14280TIP3    H242786   4.205   4.496   0.000
14281TIP3   OH242787   0.656   1.567   0.579
14281TIP3    H142788   0.629   1.516   0.656
14281TIP3    H242789   0.746   1.538   0.562
14282TIP3   OH242790   3.290   0.456   0.648
14282TIP3    H142791   3.323   0.535   0.690
14282TIP3    H242792   3.200   0.477   0.622
14283TIP3   OH242793   0.821   0.285   0.611
14283TIP3    H142794   0.806   0.379   0.603
14283TIP3    H242795   0.771   0.259   0.688
14284TIP3   OH242796   3.238   0.887   0.181
14284TIP3    H142797   3.154   0.875   0.135
14284TIP3    H242798   3.302   0.897   0.110
14285TIP3   OH242799   7.919   7.097   1.084
14285TIP3    H142800   7.925   7.057   1.171
14285TIP3    H242801   8.001   7.071   1.040
14286TIP3   OH242802   1.164   1.776   4.176
14286TIP3    H142803   1.229   1.822   4.228
14286TIP3    H242804   1.092   1.839   4.165
14287TIP3   OH242805   1.447   6.455   4.135
14287TIP3    H142806   1.414   6.376   4.177
14287TIP3    H242807   1.440   6.438   4.042
14288TIP3   OH242808   4.187   2.942   5.357
14288TIP3    H142809   4.190   2.976   5.447
14288TIP3    H242810   4.203   2.848   5.367
14289TIP3   OH242811   3.782   6.395   6.841
14289TIP3    H142812   3.761   6.487   6.821
14289TIP3    H242813   3.833   6.365   6.766
14290TIP3   OH242814   3.819   4.677   5.584
14290TIP3    H142815   3.904   4.720   5.574
14290TIP3    H242816   3.767   4.738   5.636
14291TIP3   OH242817   4.740   1.213   5.346
14291TIP3    H142818   4.780   1.130   5.370
14291TIP3    H242819   4.704   1.247   5.428
14292TIP3   OH242820   6.939   1.535   1.776
14292TIP3    H142821   6.983   1.598   1.718
14292TIP3    H242822   6.869   1.586   1.818
14293TIP3   OH242823   7.931   6.020   3.238
14293TIP3    H142824   8.006   5.962   3.250
14293TIP3    H242825   7.884   6.017   3.321
14294TIP3   OH242826   3.140   6.142   4.539
14294TIP3    H142827   3.147   6.052   4.506
14294TIP3    H242828   3.159   6.135   4.633
14295TIP3   OH242829   0.849   3.171   3.003
14295TIP3    H142830   0.847   3.225   3.081
14295TIP3    H242831   0.933   3.192   2.962
14296TIP3   OH242832   2.317   7.345   6.707
14296TIP3    H142833   2.400   7.364   6.665
14296TIP3    H242834   2.281   7.430   6.730
14297TIP3   OH242835   1.387   5.776   2.489
14297TIP3    H142836   1.459   5.752   2.431
14297TIP3    H242837   1.348   5.693   2.515
14298TIP3   OH242838   4.535   7.162   5.822
14298TIP3    H142839   4.611   7.107   5.802
14298TIP3    H242840   4.568   7.251   5.817
14299TIP3   OH242841   5.538   6.360   2.249
14299TIP3    H142842   5.512   6.316   2.168
14299TIP3    H242843   5.535   6.453   2.228
14300TIP3   OH242844   8.145   0.966   3.547
14300TIP3    H142845   8.185   0.951   3.461
14300TIP3    H242846   8.217   0.951   3.609
14301TIP3   OH242847   3.097   5.586   4.226
14301TIP3    H142848   3.068   5.569   4.316
14301TIP3    H242849   3.149   5.666   4.233
14302TIP3   OH242850   0.558   7.451   2.357
14302TIP3    H142851   0.471   7.418   2.381
14302TIP3    H242852   0.548   7.482   2.267
14303TIP3   OH242853   4.420   1.320   1.449
14303TIP3    H142854   4.465   1.239   1.474
14303TIP3    H242855   4.414   1.370   1.530
14304TIP3   OH242856   4.828   1.920   1.336
14304TIP3    H142857   4.800   1.894   1.248
14304TIP3    H242858   4.874   2.003   1.323
14305TIP3   OH242859   6.352   1.506   5.022
14305TIP3    H142860   6.293   1.537   4.954
14305TIP3    H242861   6.349   1.573   5.090
14306TIP3   OH242862   2.434   4.904   4.348
14306TIP3    H142863   2.389   4.829   4.310
14306TIP3    H242864   2.410   4.903   4.440
14307TIP3   OH242865   6.612   2.867   4.062
14307TIP3    H142866   6.698   2.827   4.046
14307TIP3    H242867   6.549   2.799   4.040
14308TIP3   OH242868   6.535   3.275   4.496
14308TIP3    H142869   6.492   3.249   4.415
14308TIP3    H242870   6.464   3.313   4.549
14309TIP3   OH242871   7.095   7.431   5.280
14309TIP3    H142872   7.184   7.409   5.252
14309TIP3    H242873   7.041   7.361   5.243
14310TIP3   OH242874   4.155   0.649   1.687
14310TIP3    H142875   4.086   0.617   1.629
14310TIP3    H242876   4.184   0.571   1.734
14311TIP3   OH242877   8.099   3.674   6.255
14311TIP3    H142878   8.181   3.722   6.272
14311TIP3    H242879   8.095   3.667   6.160
14312TIP3   OH242880   6.247   6.345   1.259
14312TIP3    H142881   6.322   6.311   1.209
14312TIP3    H242882   6.205   6.266   1.294
14313TIP3   OH242883   0.479   6.244   2.460
14313TIP3    H142884   0.468   6.275   2.370
14313TIP3    H242885   0.498   6.151   2.451
14314TIP3   OH242886   6.809   0.549   6.354
14314TIP3    H142887   6.904   0.544   6.344
14314TIP3    H242888   6.786   0.476   6.411
14315TIP3   OH242889   5.153   0.478   3.871
14315TIP3    H142890   5.115   0.486   3.783
14315TIP3    H242891   5.224   0.542   3.873
14316TIP3   OH242892   3.600   4.810   5.686
14316TIP3    H142893   3.619   4.867   5.612
14316TIP3    H242894   3.505   4.800   5.685
14317TIP3   OH242895   5.704   3.899   3.751
14317TIP3    H142896   5.663   3.931   3.831
14317TIP3    H242897   5.636   3.906   3.684
14318TIP3   OH242898   0.311   0.871   6.279
14318TIP3    H142899   0.344   0.899   6.364
14318TIP3    H242900   0.365   0.796   6.256
14319TIP3   OH242901   6.499   4.074   0.801
14319TIP3    H142902   6.519   4.095   0.710
14319TIP3    H242903   6.561   4.004   0.824
14320TIP3   OH242904   1.295   4.974   2.659
14320TIP3    H142905   1.318   4.881   2.667
14320TIP3    H242906   1.320   5.013   2.743
14321TIP3   OH242907   2.986   1.779   2.059
14321TIP3    H142908   3.037   1.859   2.075
14321TIP3    H242909   2.975   1.777   1.964
14322TIP3   OH242910   7.853   2.599   1.708
14322TIP3    H142911   7.911   2.524   1.726
14322TIP3    H242912   7.778   2.585   1.766
14323TIP3   OH242913   0.266   5.541   5.606
14323TIP3    H142914   0.242   5.578   5.521
14323TIP3    H242915   0.332   5.475   5.585
14324TIP3   OH242916   5.593   3.735   4.390
14324TIP3    H142917   5.505   3.771   4.397
14324TIP3    H242918   5.646   3.791   4.449
14325TIP3   OH242919   6.592   6.502   0.505
14325TIP3    H142920   6.534   6.525   0.578
14325TIP3    H242921   6.659   6.571   0.506
14326TIP3   OH242922   5.904   2.282   3.421
14326TIP3    H142923   5.945   2.266   3.506
14326TIP3    H242924   5.878   2.196   3.389
14327TIP3   OH242925   5.431   4.670   6.187
14327TIP3    H142926   5.391   4.661   6.100
14327TIP3    H242927   5.362   4.644   6.248
14328TIP3   OH242928   3.520   6.406   3.475
14328TIP3    H142929   3.469   6.325   3.473
14328TIP3    H242930   3.597   6.386   3.528
14329TIP3   OH242931   3.053   5.107   0.350
14329TIP3    H142932   3.118   5.116   0.420
14329TIP3    H242933   3.089   5.039   0.293
14330TIP3   OH242934   4.839   0.906   5.114
14330TIP3    H142935   4.867   0.820   5.147
14330TIP3    H242936   4.920   0.956   5.108
14331TIP3   OH242937   5.538   4.098   1.845
14331TIP3    H142938   5.621   4.112   1.799
14331TIP3    H242939   5.516   4.007   1.827
14332TIP3   OH242940   3.700   1.367   1.727
14332TIP3    H142941   3.785   1.364   1.682
14332TIP3    H242942   3.658   1.284   1.704
14333TIP3   OH242943   3.554   6.172   1.887
14333TIP3    H142944   3.533   6.256   1.847
14333TIP3    H242945   3.477   6.151   1.941
14334TIP3   OH242946   4.526   0.056   5.435
14334TIP3    H142947   4.452   0.097   5.479
14334TIP3    H242948   4.553   0.118   5.368
14335TIP3   OH242949   6.510   1.380   1.902
14335TIP3    H142950   6.592   1.331   1.911
14335TIP3    H242951   6.465   1.368   1.985
14336TIP3   OH242952   0.798   7.264   2.787
14336TIP3    H142953   0.828   7.354   2.779
14336TIP3    H242954   0.705   7.267   2.762
14337TIP3   OH242955   1.921   2.618   6.567
14337TIP3    H142956   2.001   2.640   6.520
14337TIP3    H242957   1.938   2.644   6.657
14338TIP3   OH242958   5.375   0.577   4.853
14338TIP3    H142959   5.297   0.539   4.893
14338TIP3    H242960   5.342   0.621   4.774
14339TIP3   OH242961   7.916   0.700   4.291
14339TIP3    H142962   7.888   0.716   4.381
14339TIP3    H242963   7.840   0.660   4.249
14340TIP3   OH242964   2.356   0.835   5.334
14340TIP3    H142965   2.335   0.782   5.411
14340TIP3    H242966   2.277   0.888   5.320
14341TIP3   OH242967   4.587   1.946   2.957
14341TIP3    H142968   4.588   1.853   2.981
14341TIP3    H242969   4.612   1.991   3.038
14342TIP3   OH242970   6.288   5.941   5.345
14342TIP3    H142971   6.264   6.033   5.340
14342TIP3    H242972   6.383   5.941   5.355
14343TIP3   OH242973   0.255   3.287   0.995
14343TIP3    H142974   0.329   3.330   0.951
14343TIP3    H242975   0.275   3.294   1.088
14344TIP3   OH242976   6.612   1.106   4.710
14344TIP3    H142977   6.597   1.017   4.741
14344TIP3    H242978   6.588   1.104   4.617
14345TIP3   OH242979   3.445   3.931   4.631
14345TIP3    H142980   3.433   4.019   4.595
14345TIP3    H242981   3.512   3.941   4.699
14346TIP3   OH242982   2.522   6.101   2.109
14346TIP3    H142983   2.527   6.041   2.034
14346TIP3    H242984   2.613   6.119   2.133
14347TIP3   OH242985   5.617   1.410   6.146
14347TIP3    H142986   5.684   1.349   6.118
14347TIP3    H242987   5.664   1.475   6.199
14348TIP3   OH242988   4.085   1.270   6.210
14348TIP3    H142989   4.115   1.219   6.285
14348TIP3    H242990   4.030   1.209   6.161
14349TIP3   OH242991   3.577   4.379   4.509
14349TIP3    H142992   3.562   4.381   4.415
14349TIP3    H242993   3.650   4.439   4.523
14350TIP3   OH242994   7.856   7.547   4.894
14350TIP3    H142995   7.773   7.587   4.918
14350TIP3    H242996   7.905   7.617   4.851
14351TIP3   OH242997   8.220   2.537   2.191
14351TIP3    H142998   8.283   2.465   2.197
14351TIP3    H242999   8.260   2.598   2.129
14352TIP3   OH243000   1.842   1.593   6.265
14352TIP3    H143001   1.799   1.586   6.350
14352TIP3    H243002   1.899   1.516   6.260
14353TIP3   OH243003   7.633   5.476   5.644
14353TIP3    H143004   7.691   5.459   5.570
14353TIP3    H243005   7.632   5.394   5.693
14354TIP3   OH243006   6.978   7.808   6.332
14354TIP3    H143007   7.073   7.806   6.344
14354TIP3    H243008   6.965   7.826   6.239
14355TIP3   OH243009   5.532   5.313   4.932
14355TIP3    H143010   5.582   5.322   5.013
14355TIP3    H243011   5.585   5.256   4.877
14356TIP3   OH243012   0.839   5.903   4.519
14356TIP3    H143013   0.866   5.825   4.471
14356TIP3    H243014   0.799   5.870   4.600
14357TIP3   OH243015   0.933   1.057   3.215
14357TIP3    H143016   0.925   0.964   3.193
14357TIP3    H243017   0.940   1.059   3.310
14358TIP3   OH243018   1.621   4.152   6.237
14358TIP3    H143019   1.553   4.113   6.181
14358TIP3    H243020   1.694   4.091   6.232
14359TIP3   OH243021   1.958   0.468   2.463
14359TIP3    H143022   1.919   0.392   2.419
14359TIP3    H243023   1.975   0.530   2.392
14360TIP3   OH243024   1.735   4.013   0.612
14360TIP3    H143025   1.724   3.963   0.531
14360TIP3    H243026   1.672   4.085   0.604
14361TIP3   OH243027   2.002   4.879   6.583
14361TIP3    H143028   2.014   4.790   6.618
14361TIP3    H243029   2.065   4.933   6.632
14362TIP3   OH243030   7.246   1.813   5.332
14362TIP3    H143031   7.250   1.900   5.293
14362TIP3    H243032   7.178   1.820   5.399
14363TIP3   OH243033   1.682   6.330   2.620
14363TIP3    H143034   1.764   6.323   2.669
14363TIP3    H243035   1.621   6.276   2.670
14364TIP3   OH243036   7.760   3.358   2.544
14364TIP3    H143037   7.786   3.410   2.621
14364TIP3    H243038   7.721   3.279   2.581
14365TIP3   OH243039   8.254   5.602   3.839
14365TIP3    H143040   8.322   5.640   3.895
14365TIP3    H243041   8.299   5.532   3.791
14366TIP3   OH243042   0.031   4.443   1.285
14366TIP3    H143043  -0.022   4.380   1.235
14366TIP3    H243044   0.117   4.401   1.292
14367TIP3   OH243045   4.880   0.552   3.736
14367TIP3    H143046   4.812   0.484   3.737
14367TIP3    H243047   4.831   0.634   3.726
14368TIP3   OH243048   0.802   4.264   2.545
14368TIP3    H143049   0.742   4.267   2.471
14368TIP3    H243050   0.746   4.280   2.621
14369TIP3   OH243051   1.299   4.987   4.248
14369TIP3    H143052   1.330   5.077   4.259
14369TIP3    H243053   1.368   4.933   4.287
14370TIP3   OH243054   4.143   5.781   2.580
14370TIP3    H143055   4.099   5.715   2.633
14370TIP3    H243056   4.073   5.828   2.536
14371TIP3   OH243057   0.734   6.215   2.115
14371TIP3    H143058   0.657   6.225   2.172
14371TIP3    H243059   0.809   6.229   2.173
14372TIP3   OH243060   1.035   7.563   5.703
14372TIP3    H143061   1.097   7.575   5.774
14372TIP3    H243062   0.975   7.637   5.710
14373TIP3   OH243063   5.961   0.384   1.527
14373TIP3    H143064   5.898   0.314   1.514
14373TIP3    H243065   6.046   0.344   1.507
14374TIP3   OH243066   2.121   6.930   1.541
14374TIP3    H143067   2.203   6.969   1.511
14374TIP3    H243068   2.121   6.842   1.503
14375TIP3   OH243069   5.189   3.036   1.921
14375TIP3    H143070   5.184   3.124   1.959
14375TIP3    H243071   5.282   3.014   1.924
14376TIP3   OH243072   2.112   4.983   1.718
14376TIP3    H143073   2.191   4.968   1.666
14376TIP3    H243074   2.140   5.042   1.788
14377TIP3   OH243075   5.199   0.137   2.460
14377TIP3    H143076   5.218   0.111   2.370
14377TIP3    H243077   5.162   0.059   2.501
14378TIP3   OH243078   5.425   2.239   4.093
14378TIP3    H143079   5.510   2.217   4.130
14378TIP3    H243080   5.433   2.220   4.000
14379TIP3   OH243081   0.981   7.393   1.291
14379TIP3    H143082   1.032   7.323   1.331
14379TIP3    H243083   1.003   7.471   1.342
14380TIP3   OH243084   2.266   7.542   1.116
14380TIP3    H143085   2.185   7.535   1.167
14380TIP3    H243086   2.284   7.636   1.112
14381TIP3   OH243087   2.000   2.811   3.885
14381TIP3    H143088   1.959   2.728   3.863
14381TIP3    H243089   2.094   2.796   3.873
14382TIP3   OH243090   2.555   6.290   4.229
14382TIP3    H143091   2.521   6.378   4.210
14382TIP3    H243092   2.512   6.234   4.164
14383TIP3   OH243093   7.483   2.392   6.163
14383TIP3    H143094   7.419   2.371   6.095
14383TIP3    H243095   7.568   2.392   6.118
14384TIP3   OH243096   0.836   5.535   3.083
14384TIP3    H143097   0.791   5.589   3.017
14384TIP3    H243098   0.882   5.599   3.138
14385TIP3   OH243099   7.021   5.629   0.083
14385TIP3    H143100   7.062   5.682   0.150
14385TIP3    H243101   7.058   5.661   0.000
14386TIP3   OH243102   5.030   1.934   4.420
14386TIP3    H143103   4.987   1.983   4.350
14386TIP3    H243104   5.005   1.980   4.500
14387TIP3   OH243105   4.465   3.115   3.746
14387TIP3    H143106   4.530   3.179   3.716
14387TIP3    H243107   4.386   3.167   3.761
14388TIP3   OH243108   3.651   6.756   2.767
14388TIP3    H143109   3.562   6.746   2.799
14388TIP3    H243110   3.704   6.767   2.847
14389TIP3   OH243111   2.797   3.319   0.857
14389TIP3    H143112   2.811   3.225   0.875
14389TIP3    H243113   2.829   3.363   0.936
14390TIP3   OH243114   7.113   1.812   6.192
14390TIP3    H143115   7.169   1.782   6.263
14390TIP3    H243116   7.160   1.885   6.153
14391TIP3   OH243117   1.749   3.593   1.722
14391TIP3    H143118   1.761   3.666   1.783
14391TIP3    H243119   1.736   3.635   1.637
14392TIP3   OH243120   3.266   6.721   1.474
14392TIP3    H143121   3.320   6.787   1.518
14392TIP3    H243122   3.179   6.730   1.513
14393TIP3   OH243123   3.504   6.724   0.436
14393TIP3    H143124   3.550   6.707   0.518
14393TIP3    H243125   3.428   6.666   0.438
14394TIP3   OH243126   3.160   0.911   5.258
14394TIP3    H143127   3.092   0.931   5.322
14394TIP3    H243128   3.168   0.991   5.206
14395TIP3   OH243129   7.643   3.355   4.661
14395TIP3    H143130   7.685   3.401   4.588
14395TIP3    H243131   7.612   3.424   4.718
14396TIP3   OH243132   0.237   6.956   5.158
14396TIP3    H143133   0.289   7.033   5.179
14396TIP3    H243134   0.302   6.886   5.146
14397TIP3   OH243135   0.128   3.312   6.143
14397TIP3    H143136   0.100   3.402   6.125
14397TIP3    H243137   0.087   3.291   6.227
14398TIP3   OH243138   6.187   2.134   3.349
14398TIP3    H143139   6.283   2.127   3.348
14398TIP3    H243140   6.162   2.138   3.257
14399TIP3   OH243141   1.856   2.084   3.143
14399TIP3    H143142   1.793   2.066   3.073
14399TIP3    H243143   1.922   2.139   3.102
14400TIP3   OH243144   0.551   0.480   6.628
14400TIP3    H143145   0.470   0.529   6.637
14400TIP3    H243146   0.524   0.397   6.589
14401TIP3   OH243147   3.999   0.335   0.486
14401TIP3    H143148   4.087   0.373   0.476
14401TIP3    H243149   3.948   0.375   0.416
14402TIP3   OH243150   6.744   7.546   5.158
14402TIP3    H143151   6.785   7.633   5.154
14402TIP3    H243152   6.777   7.501   5.080
14403TIP3   OH243153   7.921   7.746   3.595
14403TIP3    H143154   7.998   7.694   3.618
14403TIP3    H243155   7.873   7.755   3.678
14404TIP3   OH243156   7.051   2.147   6.722
14404TIP3    H143157   7.095   2.116   6.643
14404TIP3    H243158   7.116   2.202   6.766
14405TIP3   OH243159   2.263   0.763   3.021
14405TIP3    H143160   2.288   0.757   2.929
14405TIP3    H243161   2.334   0.813   3.062
14406TIP3   OH243162   0.856   0.782   2.183
14406TIP3    H143163   0.922   0.741   2.239
14406TIP3    H243164   0.872   0.745   2.096
14407TIP3   OH243165   4.428   7.023   1.612
14407TIP3    H143166   4.437   7.018   1.708
14407TIP3    H243167   4.337   7.048   1.598
14408TIP3   OH243168   2.500   5.262   3.370
14408TIP3    H143169   2.465   5.252   3.458
14408TIP3    H243170   2.518   5.356   3.362
14409TIP3   OH243171   4.982   1.878   3.479
14409TIP3    H143172   4.958   1.931   3.403
14409TIP3    H243173   4.939   1.794   3.464
14410TIP3   OH243174   0.621   7.089   1.021
14410TIP3    H143175   0.540   7.115   0.978
14410TIP3    H243176   0.673   7.049   0.952
14411TIP3   OH243177   6.377   5.357   6.028
14411TIP3    H143178   6.316   5.417   6.072
14411TIP3    H243179   6.405   5.405   5.950
14412TIP3   OH243180   0.031   7.833   3.210
14412TIP3    H143181  -0.038   7.792   3.158
14412TIP3    H243182   0.060   7.766   3.271
14413TIP3   OH243183   0.732   5.314   5.097
14413TIP3    H143184   0.743   5.225   5.130
14413TIP3    H243185   0.734   5.305   5.002
14414TIP3   OH243186   0.296   4.537   2.336
14414TIP3    H143187   0.377   4.539   2.386
14414TIP3    H243188   0.324   4.550   2.245
14415TIP3   OH243189   6.769   0.687   0.745
14415TIP3    H143190   6.839   0.654   0.688
14415TIP3    H243191   6.794   0.777   0.764
14416TIP3   OH243192   1.365   5.093   2.908
14416TIP3    H143193   1.363   5.118   3.000
14416TIP3    H243194   1.410   5.009   2.906
14417TIP3   OH243195   4.971   4.021   0.556
14417TIP3    H143196   4.894   4.069   0.588
14417TIP3    H243197   4.996   3.965   0.630
14418TIP3   OH243198   0.428   6.288   3.594
14418TIP3    H143199   0.373   6.249   3.526
14418TIP3    H243200   0.389   6.259   3.676
14419TIP3   OH243201   0.077   2.523   1.775
14419TIP3    H143202   0.009   2.464   1.740
14419TIP3    H243203   0.143   2.526   1.706
14420TIP3   OH243204   5.777   6.079   3.721
14420TIP3    H143205   5.837   6.150   3.746
14420TIP3    H243206   5.820   6.037   3.647
14421TIP3   OH243207   3.706   7.457   2.400
14421TIP3    H143208   3.737   7.538   2.360
14421TIP3    H243209   3.625   7.482   2.446
14422TIP3   OH243210   8.013   1.528   1.811
14422TIP3    H143211   7.961   1.558   1.737
14422TIP3    H243212   7.956   1.464   1.856
14423TIP3   OH243213   5.255   5.018   4.386
14423TIP3    H143214   5.266   4.924   4.399
14423TIP3    H243215   5.221   5.050   4.469
14424TIP3   OH243216   3.796   4.007   4.116
14424TIP3    H143217   3.800   3.921   4.075
14424TIP3    H243218   3.886   4.025   4.144
14425TIP3   OH243219   6.850   4.572   0.826
14425TIP3    H143220   6.862   4.662   0.795
14425TIP3    H243221   6.755   4.565   0.839
14426TIP3   OH243222   7.747   5.521   6.470
14426TIP3    H143223   7.731   5.593   6.408
14426TIP3    H243224   7.841   5.501   6.460
14427TIP3   OH243225   4.073   0.120   1.778
14427TIP3    H143226   4.154   0.083   1.814
14427TIP3    H243227   4.045   0.186   1.841
14428TIP3   OH243228   6.172   7.130   3.706
14428TIP3    H143229   6.176   7.210   3.654
14428TIP3    H243230   6.259   7.092   3.697
14429TIP3   OH243231   5.183   7.716   4.614
14429TIP3    H143232   5.165   7.698   4.522
14429TIP3    H243233   5.097   7.735   4.652
14430TIP3   OH243234   5.089   3.896   2.099
14430TIP3    H143235   5.175   3.899   2.056
14430TIP3    H243236   5.027   3.889   2.026
14431TIP3   OH243237   3.565   2.669   1.883
14431TIP3    H143238   3.576   2.580   1.849
14431TIP3    H243239   3.651   2.710   1.873
14432TIP3   OH243240   8.226   7.436   4.035
14432TIP3    H143241   8.144   7.482   4.016
14432TIP3    H243242   8.210   7.346   4.006
14433TIP3   OH243243   3.478   3.256   6.720
14433TIP3    H143244   3.522   3.314   6.659
14433TIP3    H243245   3.542   3.186   6.736
14434TIP3   OH243246   4.103   0.346   1.973
14434TIP3    H143247   4.155   0.357   2.052
14434TIP3    H243248   4.166   0.353   1.901
14435TIP3   OH243249   3.776   4.666   6.597
14435TIP3    H143250   3.779   4.729   6.525
14435TIP3    H243251   3.844   4.695   6.658
14436TIP3   OH243252   4.490   1.882   6.403
14436TIP3    H143253   4.569   1.910   6.357
14436TIP3    H243254   4.419   1.900   6.341
14437TIP3   OH243255   1.454   7.266   6.403
14437TIP3    H143256   1.514   7.192   6.404
14437TIP3    H243257   1.377   7.234   6.357
14438TIP3   OH243258   4.312   2.448   5.984
14438TIP3    H143259   4.390   2.434   5.930
14438TIP3    H243260   4.329   2.531   6.029
14439TIP3   OH243261   4.491   2.859   4.036
14439TIP3    H143262   4.498   2.854   3.941
14439TIP3    H243263   4.430   2.789   4.059
14440TIP3   OH243264   0.986   0.925   2.736
14440TIP3    H143265   1.019   0.839   2.765
14440TIP3    H243266   1.018   0.934   2.646
14441TIP3   OH243267   0.266   6.610   3.434
14441TIP3    H143268   0.292   6.685   3.488
14441TIP3    H243269   0.302   6.629   3.348
14442TIP3   OH243270   3.414   5.282   3.887
14442TIP3    H143271   3.420   5.377   3.884
14442TIP3    H243272   3.505   5.252   3.898
14443TIP3   OH243273   5.428   2.788   2.497
14443TIP3    H143274   5.400   2.697   2.504
14443TIP3    H243275   5.370   2.827   2.431
14444TIP3   OH243276   8.092   5.204   2.276
14444TIP3    H143277   8.188   5.208   2.280
14444TIP3    H243278   8.064   5.221   2.365
14445TIP3   OH243279   7.950   5.029   6.406
14445TIP3    H143280   8.043   5.030   6.429
14445TIP3    H243281   7.944   5.086   6.329
14446TIP3   OH243282   3.797   0.143   3.993
14446TIP3    H143283   3.873   0.195   4.021
14446TIP3    H243284   3.756   0.196   3.925
14447TIP3   OH243285   6.439   0.974   6.365
14447TIP3    H143286   6.494   0.909   6.409
14447TIP3    H243287   6.489   1.056   6.374
14448TIP3   OH243288   0.863   2.100   1.468
14448TIP3    H143289   0.849   2.053   1.386
14448TIP3    H243290   0.933   2.162   1.449
14449TIP3   OH243291   6.046   4.525   5.417
14449TIP3    H143292   6.051   4.494   5.327
14449TIP3    H243293   6.001   4.609   5.411
14450TIP3   OH243294   3.459   4.620   0.969
14450TIP3    H143295   3.409   4.676   1.029
14450TIP3    H243296   3.393   4.566   0.926
14451TIP3   OH243297   5.771   5.572   3.207
14451TIP3    H143298   5.717   5.647   3.234
14451TIP3    H243299   5.808   5.538   3.289
14452TIP3   OH243300   4.757   3.791   0.600
14452TIP3    H143301   4.671   3.817   0.631
14452TIP3    H243302   4.806   3.771   0.680
14453TIP3   OH243303   3.715   6.564   3.756
14453TIP3    H143304   3.700   6.609   3.840
14453TIP3    H243305   3.799   6.599   3.726
14454TIP3   OH243306   1.419   7.652   5.559
14454TIP3    H143307   1.367   7.600   5.497
14454TIP3    H243308   1.367   7.731   5.574
14455TIP3   OH243309   4.840   3.258   2.994
14455TIP3    H143310   4.927   3.266   2.953
14455TIP3    H243311   4.779   3.270   2.921
14456TIP3   OH243312   4.950   1.789   1.549
14456TIP3    H143313   4.861   1.758   1.569
14456TIP3    H243314   4.940   1.841   1.469
14457TIP3   OH243315   3.172   0.106   0.540
14457TIP3    H143316   3.164   0.027   0.486
14457TIP3    H243317   3.169   0.178   0.477
14458TIP3   OH243318   0.240   0.741   5.748
14458TIP3    H143319   0.206   0.669   5.800
14458TIP3    H243320   0.331   0.751   5.777
14459TIP3   OH243321   2.725   6.172   3.615
14459TIP3    H143322   2.659   6.167   3.684
14459TIP3    H243323   2.741   6.266   3.605
14460TIP3   OH243324   0.768   1.565   2.894
14460TIP3    H143325   0.779   1.589   2.985
14460TIP3    H243326   0.857   1.566   2.858
14461TIP3   OH243327   3.731   1.882   5.829
14461TIP3    H143328   3.825   1.900   5.819
14461TIP3    H243329   3.726   1.787   5.837
14462TIP3   OH243330   2.902   1.484   4.165
14462TIP3    H143331   2.837   1.423   4.130
14462TIP3    H243332   2.986   1.445   4.142
14463TIP3   OH243333   8.202   5.176   5.655
14463TIP3    H143334   8.281   5.198   5.606
14463TIP3    H243335   8.140   5.147   5.588
14464TIP3   OH243336   3.284   5.400   3.574
14464TIP3    H143337   3.196   5.374   3.599
14464TIP3    H243338   3.273   5.486   3.533
14465TIP3   OH243339   2.640   6.502   2.758
14465TIP3    H143340   2.693   6.502   2.838
14465TIP3    H243341   2.580   6.576   2.770
14466TIP3   OH243342   7.008   6.111   2.333
14466TIP3    H143343   6.962   6.032   2.361
14466TIP3    H243344   6.945   6.182   2.346
14467TIP3   OH243345   1.301   2.441   4.352
14467TIP3    H143346   1.217   2.475   4.383
14467TIP3    H243347   1.358   2.518   4.346
14468TIP3   OH243348   2.437   2.808  -0.062
14468TIP3    H143349   2.407   2.790   0.027
14468TIP3    H243350   2.497   2.882  -0.053
14469TIP3   OH243351   4.212   3.561   5.649
14469TIP3    H143352   4.233   3.478   5.605
14469TIP3    H243353   4.188   3.620   5.578
14470TIP3   OH243354   5.290   1.351   6.037
14470TIP3    H143355   5.269   1.386   6.124
14470TIP3    H243356   5.238   1.404   5.977
14471TIP3   OH243357   4.228   6.752   2.702
14471TIP3    H143358   4.141   6.743   2.663
14471TIP3    H243359   4.224   6.698   2.781
14472TIP3   OH243360   0.290   2.541   2.427
14472TIP3    H143361   0.267   2.494   2.347
14472TIP3    H243362   0.223   2.514   2.490
14473TIP3   OH243363   7.409   1.761   1.534
14473TIP3    H143364   7.360   1.681   1.520
14473TIP3    H243365   7.342   1.828   1.550
14474TIP3   OH243366   5.210   0.217   6.584
14474TIP3    H143367   5.193   0.289   6.523
14474TIP3    H243368   5.123   0.188   6.611
14475TIP3   OH243369   2.960   7.518   2.176
14475TIP3    H143370   3.039   7.560   2.143
14475TIP3    H243371   2.933   7.572   2.251
14476TIP3   OH243372   1.749   5.754   4.986
14476TIP3    H143373   1.833   5.710   4.996
14476TIP3    H243374   1.684   5.683   4.983
14477TIP3   OH243375   7.913   5.591   5.628
14477TIP3    H143376   7.906   5.596   5.533
14477TIP3    H243377   7.919   5.498   5.648
14478TIP3   OH243378   7.871   1.809   5.488
14478TIP3    H143379   7.829   1.758   5.419
14478TIP3    H243380   7.814   1.885   5.500
14479TIP3   OH243381   0.750   1.796   3.621
14479TIP3    H143382   0.698   1.857   3.673
14479TIP3    H243383   0.687   1.730   3.592
14480TIP3   OH243384   8.177   7.532   2.743
14480TIP3    H143385   8.225   7.449   2.749
14480TIP3    H243386   8.102   7.513   2.686
14481TIP3   OH243387   5.891   6.287   0.346
14481TIP3    H143388   5.959   6.350   0.321
14481TIP3    H243389   5.914   6.263   0.436
14482TIP3   OH243390   6.519   3.608   3.165
14482TIP3    H143391   6.453   3.559   3.117
14482TIP3    H243392   6.488   3.608   3.256
14483TIP3   OH243393   6.171   5.608   4.007
14483TIP3    H143394   6.097   5.656   3.970
14483TIP3    H243395   6.131   5.533   4.051
14484TIP3   OH243396   4.890   0.927   2.807
14484TIP3    H143397   4.923   0.837   2.805
14484TIP3    H243398   4.821   0.928   2.741
14485TIP3   OH243399   3.530   3.791   3.660
14485TIP3    H143400   3.451   3.834   3.695
14485TIP3    H243401   3.497   3.714   3.614
14486TIP3   OH243402   2.887   7.121   1.085
14486TIP3    H143403   2.849   7.203   1.054
14486TIP3    H243404   2.877   7.061   1.010
14487TIP3   OH243405   0.705   5.345   4.824
14487TIP3    H143406   0.714   5.360   4.730
14487TIP3    H243407   0.631   5.285   4.832
14488TIP3   OH243408   6.262   5.005   2.797
14488TIP3    H143409   6.212   5.085   2.811
14488TIP3    H243410   6.210   4.953   2.737
14489TIP3   OH243411   4.119   0.617   2.709
14489TIP3    H143412   4.046   0.617   2.647
14489TIP3    H243413   4.078   0.637   2.794
14490TIP3   OH243414   1.701   0.167   5.536
14490TIP3    H143415   1.724   0.259   5.545
14490TIP3    H243416   1.777   0.120   5.569
14491TIP3   OH243417   0.319   1.143   6.756
14491TIP3    H143418   0.281   1.224   6.722
14491TIP3    H243419   0.244   1.088   6.779
14492TIP3   OH243420   6.974   3.329   3.395
14492TIP3    H143421   7.050   3.333   3.337
14492TIP3    H243422   6.962   3.420   3.424
14493TIP3   OH243423   0.421   0.502   3.854
14493TIP3    H143424   0.408   0.430   3.793
14493TIP3    H243425   0.510   0.490   3.886
14494TIP3   OH243426   6.623   4.865   2.304
14494TIP3    H143427   6.564   4.895   2.235
14494TIP3    H243428   6.633   4.771   2.289
14495TIP3   OH243429   5.815   6.299   5.565
14495TIP3    H143430   5.834   6.227   5.625
14495TIP3    H243431   5.724   6.323   5.585
14496TIP3   OH243432   6.251   4.423   2.386
14496TIP3    H143433   6.166   4.423   2.342
14496TIP3    H243434   6.300   4.494   2.344
14497TIP3   OH243435   7.438   5.417   3.986
14497TIP3    H143436   7.462   5.504   4.016
14497TIP3    H243437   7.345   5.409   4.005
14498TIP3   OH243438   0.367   3.639   3.525
14498TIP3    H143439   0.406   3.702   3.587
14498TIP3    H243440   0.371   3.684   3.440
14499TIP3   OH243441   3.619   7.870   2.726
14499TIP3    H143442   3.525   7.866   2.743
14499TIP3    H243443   3.651   7.937   2.787
14500TIP3   OH243444   6.504   2.364   6.668
14500TIP3    H143445   6.454   2.284   6.653
14500TIP3    H243446   6.526   2.396   6.581
14501TIP3   OH243447   7.552   7.615   5.826
14501TIP3    H143448   7.551   7.698   5.875
14501TIP3    H243449   7.463   7.605   5.794
14502TIP3   OH243450   6.693   1.534   3.483
14502TIP3    H143451   6.724   1.616   3.521
14502TIP3    H243452   6.772   1.479   3.479
14503TIP3   OH243453   6.812   4.736   3.569
14503TIP3    H143454   6.808   4.830   3.585
14503TIP3    H243455   6.883   4.725   3.506
14504TIP3   OH243456   1.590   4.867   1.220
14504TIP3    H143457   1.557   4.918   1.293
14504TIP3    H243458   1.555   4.778   1.234
14505TIP3   OH243459   6.501   5.219   2.794
14505TIP3    H143460   6.474   5.307   2.768
14505TIP3    H243461   6.429   5.188   2.849
14506TIP3   OH243462   7.268   7.656   2.367
14506TIP3    H143463   7.266   7.678   2.274
14506TIP3    H243464   7.246   7.738   2.411
14507TIP3   OH243465   3.049   3.853   5.787
14507TIP3    H143466   3.138   3.853   5.821
14507TIP3    H243467   2.999   3.803   5.852
14508TIP3   OH243468   2.744  -0.029   3.560
14508TIP3    H143469   2.676   0.037   3.576
14508TIP3    H243470   2.728  -0.096   3.627
14509TIP3   OH243471   5.295   7.608   3.900
14509TIP3    H143472   5.341   7.556   3.834
14509TIP3    H243473   5.206   7.575   3.899
14510TIP3   OH243474   2.785   6.672   2.566
14510TIP3    H143475   2.717   6.624   2.613
14510TIP3    H243476   2.779   6.640   2.476
14511TIP3   OH243477   2.298   4.959   4.881
14511TIP3    H143478   2.328   5.036   4.930
14511TIP3    H243479   2.301   4.988   4.789
14512TIP3   OH243480   6.272   6.371   6.247
14512TIP3    H143481   6.333   6.297   6.249
14512TIP3    H243482   6.315   6.435   6.190
14513TIP3   OH243483   4.720   3.873   5.474
14513TIP3    H143484   4.726   3.876   5.570
14513TIP3    H243485   4.738   3.963   5.447
14514TIP3   OH243486   6.164   1.068   5.984
14514TIP3    H143487   6.201   1.012   6.052
14514TIP3    H243488   6.080   1.098   6.019
14515TIP3   OH243489   6.806   1.408   3.071
14515TIP3    H143490   6.759   1.367   2.998
14515TIP3    H243491   6.897   1.414   3.041
14516TIP3   OH243492   2.613   1.722   4.029
14516TIP3    H143493   2.631   1.640   3.984
14516TIP3    H243494   2.520   1.718   4.051
14517TIP3   OH243495   1.487   1.742   1.105
14517TIP3    H143496   1.543   1.810   1.068
14517TIP3    H243497   1.493   1.754   1.199
14518TIP3   OH243498   6.651   1.732   6.169
14518TIP3    H143499   6.713   1.803   6.187
14518TIP3    H243500   6.687   1.688   6.091
14519TIP3   OH243501   3.951   5.261   0.153
14519TIP3    H143502   3.966   5.328   0.218
14519TIP3    H243503   3.890   5.300   0.091
14520TIP3   OH243504   2.320   6.347   3.365
14520TIP3    H143505   2.306   6.406   3.291
14520TIP3    H243506   2.258   6.276   3.351
14521TIP3   OH243507   6.751   5.748   1.082
14521TIP3    H143508   6.799   5.665   1.083
14521TIP3    H243509   6.691   5.743   1.157
14522TIP3   OH243510   3.792   3.678   4.987
14522TIP3    H143511   3.859   3.652   5.050
14522TIP3    H243512   3.820   3.639   4.904
14523TIP3   OH243513   5.042   5.659   3.018
14523TIP3    H143514   5.049   5.753   3.001
14523TIP3    H243515   5.048   5.619   2.931
14524TIP3   OH243516   6.041   3.910   6.670
14524TIP3    H143517   6.004   3.997   6.683
14524TIP3    H243518   6.133   3.918   6.694
14525TIP3   OH243519   8.100   0.439   4.212
14525TIP3    H143520   8.116   0.459   4.120
14525TIP3    H243521   8.047   0.512   4.243
14526TIP3   OH243522   1.289  -0.012   5.680
14526TIP3    H143523   1.232   0.040   5.737
14526TIP3    H243524   1.331   0.052   5.623
14527TIP3   OH243525   7.649   1.908   6.158
14527TIP3    H143526   7.646   1.832   6.215
14527TIP3    H243527   7.722   1.960   6.192
14528TIP3   OH243528   5.203   7.311   4.978
14528TIP3    H143529   5.164   7.258   4.909
14528TIP3    H243530   5.246   7.247   5.036
14529TIP3   OH243531   2.949   3.462   3.428
14529TIP3    H143532   3.026   3.513   3.402
14529TIP3    H243533   2.960   3.378   3.385
14530TIP3   OH243534   3.733   5.465   3.605
14530TIP3    H143535   3.727   5.369   3.608
14530TIP3    H243536   3.694   5.488   3.521
14531TIP3   OH243537   2.900   4.566   3.754
14531TIP3    H143538   2.869   4.478   3.778
14531TIP3    H243539   2.978   4.579   3.808
14532TIP3   OH243540   0.418   4.746   3.723
14532TIP3    H143541   0.333   4.701   3.725
14532TIP3    H243542   0.473   4.690   3.668
14533TIP3   OH243543   3.522   6.207   6.189
14533TIP3    H143544   3.602   6.254   6.213
14533TIP3    H243545   3.507   6.231   6.097
14534TIP3   OH243546   5.625   0.475   1.243
14534TIP3    H143547   5.718   0.457   1.250
14534TIP3    H243548   5.619   0.570   1.235
14535TIP3   OH243549   3.294   0.267   4.761
14535TIP3    H143550   3.309   0.317   4.681
14535TIP3    H243551   3.376   0.220   4.776
14536TIP3   OH243552   4.607   2.645   6.038
14536TIP3    H143553   4.637   2.621   6.125
14536TIP3    H243554   4.512   2.659   6.048
14537TIP3   OH243555   1.550   7.280   5.415
14537TIP3    H143556   1.461   7.249   5.400
14537TIP3    H243557   1.599   7.252   5.338
14538TIP3   OH243558   2.811   1.740   2.580
14538TIP3    H143559   2.737   1.746   2.640
14538TIP3    H243560   2.796   1.659   2.531
14539TIP3   OH243561   7.275   4.327   6.455
14539TIP3    H143562   7.203   4.291   6.403
14539TIP3    H243563   7.265   4.422   6.447
14540TIP3   OH243564   4.220   7.269   5.415
14540TIP3    H143565   4.172   7.334   5.466
14540TIP3    H243566   4.156   7.199   5.399
14541TIP3   OH243567   7.446   6.327   6.458
14541TIP3    H143568   7.440   6.233   6.440
14541TIP3    H243569   7.368   6.364   6.417
14542TIP3   OH243570   1.474   3.611   2.854
14542TIP3    H143571   1.561   3.618   2.814
14542TIP3    H243572   1.436   3.698   2.843
14543TIP3   OH243573   1.941   2.739   4.717
14543TIP3    H143574   1.893   2.656   4.710
14543TIP3    H243575   1.923   2.770   4.805
14544TIP3   OH243576   6.902   3.907   3.940
14544TIP3    H143577   6.906   3.871   4.028
14544TIP3    H243578   6.923   4.000   3.951
14545TIP3   OH243579   6.239   0.083   2.323
14545TIP3    H143580   6.190   0.149   2.274
14545TIP3    H243581   6.182   0.059   2.395
14546TIP3   OH243582   2.695   6.064   0.837
14546TIP3    H143583   2.717   6.017   0.917
14546TIP3    H243584   2.716   6.156   0.856
14547TIP3   OH243585   0.159   0.407   2.842
14547TIP3    H143586   0.233   0.424   2.900
14547TIP3    H243587   0.089   0.462   2.874
14548TIP3   OH243588   7.648   3.152   1.448
14548TIP3    H143589   7.615   3.240   1.433
14548TIP3    H243590   7.697   3.158   1.531
14549TIP3   OH243591   6.868   7.135   4.865
14549TIP3    H143592   6.952   7.123   4.821
14549TIP3    H243593   6.808   7.078   4.816
14550TIP3   OH243594   6.029   6.820   2.496
14550TIP3    H143595   6.040   6.830   2.402
14550TIP3    H243596   5.938   6.794   2.508
14551TIP3   OH243597   5.836   5.270   6.762
14551TIP3    H143598   5.854   5.260   6.856
14551TIP3    H243599   5.845   5.181   6.726
14552TIP3   OH243600   5.365   3.729   4.741
14552TIP3    H143601   5.296   3.714   4.806
14552TIP3    H243602   5.336   3.806   4.693
14553TIP3   OH243603   2.917   4.165   5.371
14553TIP3    H143604   2.842   4.223   5.364
14553TIP3    H243605   2.948   4.176   5.461
14554TIP3   OH243606   7.983   6.612   0.182
14554TIP3    H143607   7.968   6.674   0.111
14554TIP3    H243608   7.913   6.630   0.245
14555TIP3   OH243609   0.371   5.832   0.398
14555TIP3    H143610   0.449   5.810   0.449
14555TIP3    H243611   0.380   5.926   0.380
14556TIP3   OH243612   7.812   4.235   6.715
14556TIP3    H143613   7.879   4.170   6.730
14556TIP3    H243614   7.778   4.256   6.802
14557TIP3   OH243615   4.455   2.466   0.151
14557TIP3    H143616   4.417   2.542   0.106
14557TIP3    H243617   4.536   2.447   0.102
14558TIP3   OH243618   0.281   5.609   1.768
14558TIP3    H143619   0.250   5.558   1.842
14558TIP3    H243620   0.231   5.575   1.693
14559TIP3   OH243621   1.839   3.969   6.198
14559TIP3    H143622   1.812   3.879   6.184
14559TIP3    H243623   1.923   3.962   6.244
14560TIP3   OH243624   2.557   7.035   3.271
14560TIP3    H143625   2.480   7.080   3.235
14560TIP3    H243626   2.632   7.078   3.230
14561TIP3   OH243627   4.738   5.568   2.314
14561TIP3    H143628   4.820   5.519   2.316
14561TIP3    H243629   4.726   5.600   2.403
14562TIP3   OH243630   2.443   7.639   0.354
14562TIP3    H143631   2.411   7.600   0.273
14562TIP3    H243632   2.538   7.638   0.346
14563TIP3   OH243633   0.192   6.958   2.402
14563TIP3    H143634   0.135   6.928   2.473
14563TIP3    H243635   0.137   6.959   2.325
14564TIP3   OH243636   5.809   1.696   4.653
14564TIP3    H143637   5.748   1.727   4.720
14564TIP3    H243638   5.757   1.695   4.572
14565TIP3   OH243639   3.463   7.718   6.405
14565TIP3    H143640   3.476   7.809   6.429
14565TIP3    H243641   3.448   7.673   6.489
14566TIP3   OH243642   3.337   2.877   1.349
14566TIP3    H143643   3.257   2.848   1.306
14566TIP3    H243644   3.309   2.902   1.437
14567TIP3   OH243645   6.507   0.428   6.145
14567TIP3    H143646   6.526   0.404   6.236
14567TIP3    H243647   6.455   0.354   6.112
14568TIP3   OH243648   0.172   2.747   1.027
14568TIP3    H143649   0.162   2.798   0.946
14568TIP3    H243650   0.178   2.656   0.996
14569TIP3   OH243651   2.332   4.125   4.521
14569TIP3    H143652   2.272   4.133   4.447
14569TIP3    H243653   2.299   4.187   4.586
14570TIP3   OH243654   7.053   7.290   0.916
14570TIP3    H143655   6.974   7.319   0.871
14570TIP3    H243656   7.022   7.236   0.988
14571TIP3   OH243657   1.305   5.710   5.201
14571TIP3    H143658   1.258   5.630   5.224
14571TIP3    H243659   1.238   5.768   5.164
14572TIP3   OH243660   1.203   6.079   3.198
14572TIP3    H143661   1.217   6.031   3.280
14572TIP3    H243662   1.243   6.024   3.131
14573TIP3   OH243663   5.094   2.140   5.054
14573TIP3    H143664   5.185   2.113   5.038
14573TIP3    H243665   5.058   2.071   5.110
14574TIP3   OH243666   1.029   1.344   1.693
14574TIP3    H143667   1.013   1.280   1.624
14574TIP3    H243668   0.966   1.414   1.676
14575TIP3   OH243669   6.887   4.077   4.410
14575TIP3    H143670   6.803   4.095   4.367
14575TIP3    H243671   6.878   4.115   4.498
14576TIP3   OH243672   3.103   3.179   0.079
14576TIP3    H143673   3.065   3.254   0.125
14576TIP3    H243674   3.061   3.103   0.118
14577TIP3   OH243675   1.347   6.372   0.857
14577TIP3    H143676   1.384   6.366   0.946
14577TIP3    H243677   1.270   6.427   0.867
14578TIP3   OH243678   4.235   4.427   6.360
14578TIP3    H143679   4.305   4.491   6.359
14578TIP3    H243680   4.182   4.449   6.437
14579TIP3   OH243681   6.681   2.226   4.016
14579TIP3    H143682   6.677   2.257   4.106
14579TIP3    H243683   6.714   2.136   4.023
14580TIP3   OH243684   0.844   6.521   1.439
14580TIP3    H143685   0.849   6.440   1.489
14580TIP3    H243686   0.755   6.524   1.405
14581TIP3   OH243687   0.357   1.062   3.998
14581TIP3    H143688   0.313   1.108   4.070
14581TIP3    H243689   0.347   0.969   4.021
14582TIP3   OH243690   1.176   2.268   5.553
14582TIP3    H143691   1.172   2.258   5.458
14582TIP3    H243692   1.142   2.184   5.587
14583TIP3   OH243693   7.757   0.378   6.251
14583TIP3    H143694   7.665   0.405   6.245
14583TIP3    H243695   7.779   0.388   6.344
14584TIP3   OH243696   6.234   5.674   6.540
14584TIP3    H143697   6.186   5.690   6.621
14584TIP3    H243698   6.166   5.658   6.474
14585TIP3   OH243699   7.123   3.386   5.903
14585TIP3    H143700   7.031   3.383   5.930
14585TIP3    H243701   7.123   3.351   5.814
14586TIP3   OH243702   5.739   5.618   6.133
14586TIP3    H143703   5.834   5.613   6.138
14586TIP3    H243704   5.710   5.598   6.222
14587TIP3   OH243705   6.380   6.020   3.955
14587TIP3    H143706   6.369   5.948   4.017
14587TIP3    H243707   6.323   5.997   3.882
14588TIP3   OH243708   3.250   3.486   6.116
14588TIP3    H143709   3.296   3.495   6.032
14588TIP3    H243710   3.229   3.393   6.121
14589TIP3   OH243711   1.916   2.141   5.312
14589TIP3    H143712   1.877   2.114   5.229
14589TIP3    H243713   1.963   2.063   5.343
14590TIP3   OH243714   5.545   4.387   3.069
14590TIP3    H143715   5.454   4.367   3.049
14590TIP3    H243716   5.594   4.311   3.036
14591TIP3   OH243717   5.514   6.968   3.611
14591TIP3    H143718   5.588   7.000   3.559
14591TIP3    H243719   5.534   6.999   3.700
14592TIP3   OH243720   3.201   5.909   1.286
14592TIP3    H143721   3.277   5.889   1.232
14592TIP3    H243722   3.203   5.844   1.356
14593TIP3   OH243723   3.798   0.738   0.189
14593TIP3    H143724   3.812   0.741   0.095
14593TIP3    H243725   3.704   0.751   0.200
14594TIP3   OH243726   1.257   6.200   0.591
14594TIP3    H143727   1.256   6.148   0.672
14594TIP3    H243728   1.278   6.137   0.522
14595TIP3   OH243729   0.024   2.494   1.366
14595TIP3    H143730  -0.028   2.574   1.369
14595TIP3    H243731   0.093   2.511   1.302
14596TIP3   OH243732   8.026   1.024   0.251
14596TIP3    H143733   8.003   1.112   0.219
14596TIP3    H243734   8.022   0.969   0.173
14597TIP3   OH243735   6.722   1.666   3.164
14597TIP3    H143736   6.747   1.575   3.152
14597TIP3    H243737   6.793   1.705   3.215
14598TIP3   OH243738   8.183   0.356   6.147
14598TIP3    H143739   8.209   0.362   6.239
14598TIP3    H243740   8.263   0.328   6.101
14599TIP3   OH243741   6.451   2.646   3.434
14599TIP3    H143742   6.365   2.642   3.392
14599TIP3    H243743   6.511   2.668   3.363
14600TIP3   OH243744   1.219   3.766   4.800
14600TIP3    H143745   1.302   3.737   4.840
14600TIP3    H243746   1.154   3.703   4.833
14601TIP3   OH243747   1.586   3.234   4.493
14601TIP3    H143748   1.533   3.306   4.460
14601TIP3    H243749   1.536   3.155   4.471
14602TIP3   OH243750   3.251   7.598   2.872
14602TIP3    H143751   3.275   7.652   2.947
14602TIP3    H243752   3.335   7.577   2.831
14603TIP3   OH243753   3.453   4.262   5.275
14603TIP3    H143754   3.368   4.283   5.237
14603TIP3    H243755   3.466   4.169   5.255
14604TIP3   OH243756   0.930   1.194   6.061
14604TIP3    H143757   1.007   1.144   6.035
14604TIP3    H243758   0.872   1.188   5.985
14605TIP3   OH243759   6.474   1.293   5.106
14605TIP3    H143760   6.438   1.374   5.070
14605TIP3    H243761   6.433   1.223   5.055
14606TIP3   OH243762   1.446   5.610   6.734
14606TIP3    H143763   1.482   5.696   6.713
14606TIP3    H243764   1.418   5.575   6.650
14607TIP3   OH243765   6.303   5.883   0.557
14607TIP3    H143766   6.218   5.839   0.562
14607TIP3    H243767   6.282   5.976   0.568
14608TIP3   OH243768   7.457   4.160   6.584
14608TIP3    H143769   7.548   4.175   6.559
14608TIP3    H243770   7.410   4.236   6.550
14609TIP3   OH243771   2.729   0.135   5.615
14609TIP3    H143772   2.653   0.171   5.661
14609TIP3    H243773   2.802   0.189   5.645
14610TIP3   OH243774   0.104   0.191   0.470
14610TIP3    H143775   0.042   0.202   0.543
14610TIP3    H243776   0.129   0.281   0.447
14611TIP3   OH243777   3.310   3.562   6.514
14611TIP3    H143778   3.358   3.603   6.586
14611TIP3    H243779   3.270   3.636   6.467
14612TIP3   OH243780   7.361   5.848   2.492
14612TIP3    H143781   7.285   5.819   2.441
14612TIP3    H243782   7.419   5.772   2.493
14613TIP3   OH243783   1.287   1.214   2.939
14613TIP3    H143784   1.289   1.139   2.880
14613TIP3    H243785   1.377   1.222   2.970
14614TIP3   OH243786   7.422   1.972   1.190
14614TIP3    H143787   7.352   2.017   1.143
14614TIP3    H243788   7.440   2.027   1.266
14615TIP3   OH243789   3.197   5.127   3.768
14615TIP3    H143790   3.145   5.115   3.848
14615TIP3    H243791   3.247   5.207   3.784
14616TIP3   OH243792   5.993   3.570   5.912
14616TIP3    H143793   5.913   3.527   5.942
14616TIP3    H243794   5.974   3.596   5.822
14617TIP3   OH243795   2.815   1.072   2.902
14617TIP3    H143796   2.791   1.145   2.845
14617TIP3    H243797   2.890   1.031   2.859
14618TIP3   OH243798   3.880   1.082   6.281
14618TIP3    H143799   3.906   1.018   6.348
14618TIP3    H243800   3.787   1.064   6.266
14619TIP3   OH243801   1.365   6.004   2.052
14619TIP3    H143802   1.439   6.045   2.008
14619TIP3    H243803   1.385   6.011   2.146
14620TIP3   OH243804  -0.086   3.065   3.510
14620TIP3    H143805  -0.080   3.141   3.452
14620TIP3    H243806  -0.101   2.991   3.452
14621TIP3   OH243807   3.522   5.300   1.094
14621TIP3    H143808   3.530   5.209   1.065
14621TIP3    H243809   3.560   5.300   1.182
14622TIP3   OH243810   6.774   5.409   4.807
14622TIP3    H143811   6.856   5.429   4.762
14622TIP3    H243812   6.752   5.490   4.853
14623TIP3   OH243813   5.682   6.509   0.499
14623TIP3    H143814   5.752   6.535   0.560
14623TIP3    H243815   5.638   6.436   0.544
14624TIP3   OH243816   1.339   7.100   2.542
14624TIP3    H143817   1.379   7.015   2.560
14624TIP3    H243818   1.297   7.125   2.625
14625TIP3   OH243819   3.862   1.370   2.419
14625TIP3    H143820   3.774   1.335   2.427
14625TIP3    H243821   3.909   1.336   2.496
14626TIP3   OH243822   7.081   1.193   2.755
14626TIP3    H143823   7.068   1.253   2.828
14626TIP3    H243824   6.994   1.159   2.734
14627TIP3   OH243825   0.998   4.702   3.197
14627TIP3    H143826   0.944   4.705   3.275
14627TIP3    H243827   1.012   4.793   3.173
14628TIP3   OH243828   5.120   4.599   3.222
14628TIP3    H143829   5.156   4.617   3.136
14628TIP3    H243830   5.150   4.511   3.243
14629TIP3   OH243831   3.906   4.000   1.563
14629TIP3    H143832   3.902   4.050   1.645
14629TIP3    H243833   3.816   3.968   1.551
14630TIP3   OH243834   4.588   5.908   6.201
14630TIP3    H143835   4.653   5.872   6.261
14630TIP3    H243836   4.525   5.952   6.258
14631TIP3   OH243837   0.800   5.972   0.136
14631TIP3    H143838   0.896   5.966   0.134
14631TIP3    H243839   0.780   6.013   0.220
14632TIP3   OH243840   7.590   2.026   6.446
14632TIP3    H143841   7.661   1.975   6.406
14632TIP3    H243842   7.620   2.117   6.441
14633TIP3   OH243843   6.756   0.686   1.681
14633TIP3    H143844   6.672   0.692   1.727
14633TIP3    H243845   6.821   0.673   1.751
14634TIP3   OH243846   7.213   0.489   5.752
14634TIP3    H143847   7.140   0.549   5.765
14634TIP3    H243848   7.173   0.402   5.752
14635TIP3   OH243849   1.742   1.326   6.582
14635TIP3    H143850   1.819   1.377   6.606
14635TIP3    H243851   1.714   1.284   6.664
14636TIP3   OH243852   3.859   5.511   0.266
14636TIP3    H143853   3.904   5.595   0.264
14636TIP3    H243854   3.792   5.518   0.198
14637TIP3   OH243855   1.352   6.243   4.287
14637TIP3    H143856   1.383   6.243   4.377
14637TIP3    H243857   1.341   6.151   4.265
14638TIP3   OH243858   8.017   4.142   0.582
14638TIP3    H143859   8.075   4.188   0.521
14638TIP3    H243860   7.945   4.110   0.527
14639TIP3   OH243861   0.394   0.040   4.710
14639TIP3    H143862   0.338   0.116   4.693
14639TIP3    H243863   0.333  -0.032   4.724
14640TIP3   OH243864   5.876   5.749   1.036
14640TIP3    H143865   5.935   5.793   0.975
14640TIP3    H243866   5.925   5.674   1.068
14641TIP3   OH243867   6.080   1.286   5.823
14641TIP3    H143868   6.134   1.358   5.857
14641TIP3    H243869   6.129   1.207   5.847
14642TIP3   OH243870   6.889   3.055   0.765
14642TIP3    H143871   6.885   3.008   0.682
14642TIP3    H243872   6.797   3.063   0.792
14643TIP3   OH243873   6.422   4.368   0.886
14643TIP3    H143874   6.436   4.273   0.887
14643TIP3    H243875   6.326   4.377   0.890
14644TIP3   OH243876   2.062   7.058   4.790
14644TIP3    H143877   2.052   6.965   4.813
14644TIP3    H243878   2.000   7.071   4.718
14645TIP3   OH243879   7.062   5.910   4.438
14645TIP3    H143880   7.099   5.984   4.389
14645TIP3    H243881   7.033   5.849   4.370
14646TIP3   OH243882   8.034   2.132   4.416
14646TIP3    H143883   8.059   2.072   4.345
14646TIP3    H243884   8.084   2.100   4.492
14647TIP3   OH243885   3.456   7.077   1.117
14647TIP3    H143886   3.455   6.999   1.172
14647TIP3    H243887   3.446   7.150   1.178
14648TIP3   OH243888   1.124   1.213   3.890
14648TIP3    H143889   1.041   1.260   3.899
14648TIP3    H243890   1.187   1.265   3.939
14649TIP3   OH243891   6.883   0.237   2.644
14649TIP3    H143892   6.869   0.316   2.592
14649TIP3    H243893   6.948   0.262   2.709
14650TIP3   OH243894   0.444   1.885   0.361
14650TIP3    H143895   0.473   1.865   0.273
14650TIP3    H243896   0.427   1.979   0.361
14651TIP3   OH243897   3.540   4.067   1.072
14651TIP3    H143898   3.452   4.043   1.044
14651TIP3    H243899   3.543   4.162   1.063
14652TIP3   OH243900   2.600   5.762   3.050
14652TIP3    H143901   2.664   5.813   3.101
14652TIP3    H243902   2.561   5.827   2.991
14653TIP3   OH243903   1.319   5.371   5.421
14653TIP3    H143904   1.320   5.380   5.517
14653TIP3    H243905   1.322   5.277   5.406
14654TIP3   OH243906   6.565   6.192   1.967
14654TIP3    H143907   6.519   6.276   1.970
14654TIP3    H243908   6.655   6.213   1.994
14655TIP3   OH243909   3.524   3.066   2.097
14655TIP3    H143910   3.609   3.030   2.121
14655TIP3    H243911   3.478   2.993   2.055
14656TIP3   OH243912   0.106   1.917   1.891
14656TIP3    H143913   0.126   1.923   1.798
14656TIP3    H243914   0.081   1.825   1.904
14657TIP3   OH243915   6.155   2.323   5.501
14657TIP3    H143916   6.233   2.301   5.450
14657TIP3    H243917   6.084   2.276   5.458
14658TIP3   OH243918   5.884   3.678   5.582
14658TIP3    H143919   5.841   3.761   5.560
14658TIP3    H243920   5.813   3.622   5.613
14659TIP3   OH243921   1.236   3.048   0.809
14659TIP3    H143922   1.299   2.997   0.859
14659TIP3    H243923   1.289   3.109   0.759
14660TIP3   OH243924   0.683   6.437   6.455
14660TIP3    H143925   0.669   6.349   6.420
14660TIP3    H243926   0.612   6.489   6.417
14661TIP3   OH243927   7.508   6.535   1.344
14661TIP3    H143928   7.434   6.567   1.396
14661TIP3    H243929   7.475   6.532   1.255
14662TIP3   OH243930   6.289   7.543   2.340
14662TIP3    H143931   6.331   7.485   2.404
14662TIP3    H243932   6.362   7.589   2.298
14663TIP3   OH243933   7.878   2.050   3.196
14663TIP3    H143934   7.945   1.999   3.242
14663TIP3    H243935   7.884   2.022   3.105
14664TIP3   OH243936   3.457   0.133   5.466
14664TIP3    H143937   3.438   0.040   5.482
14664TIP3    H243938   3.513   0.133   5.388
14665TIP3   OH243939   3.650   3.906   4.861
14665TIP3    H143940   3.672   3.994   4.890
14665TIP3    H243941   3.725   3.853   4.890
14666TIP3   OH243942   0.096   3.898   1.771
14666TIP3    H143943   0.098   3.943   1.856
14666TIP3    H243944   0.031   3.945   1.720
14667TIP3   OH243945   2.195   1.859   3.240
14667TIP3    H143946   2.181   1.889   3.330
14667TIP3    H243947   2.109   1.827   3.212
14668TIP3   OH243948   7.635   7.012   4.547
14668TIP3    H143949   7.589   7.008   4.631
14668TIP3    H243950   7.727   7.022   4.570
14669TIP3   OH243951   6.645   6.754   1.543
14669TIP3    H143952   6.613   6.842   1.525
14669TIP3    H243953   6.568   6.706   1.575
14670TIP3   OH243954   2.636   7.659   1.437
14670TIP3    H143955   2.712   7.675   1.381
14670TIP3    H243956   2.576   7.610   1.382
14671TIP3   OH243957   1.591   0.575   4.501
14671TIP3    H143958   1.497   0.588   4.511
14671TIP3    H243959   1.616   0.635   4.430
14672TIP3   OH243960   6.592   1.686   5.029
14672TIP3    H143961   6.685   1.665   5.022
14672TIP3    H243962   6.548   1.626   4.970
14673TIP3   OH243963   1.878   1.070   3.782
14673TIP3    H143964   1.792   1.047   3.749
14673TIP3    H243965   1.903   0.996   3.838
14674TIP3   OH243966   4.563   7.358   3.085
14674TIP3    H143967   4.601   7.302   3.154
14674TIP3    H243968   4.491   7.306   3.049
14675TIP3   OH243969   6.282   2.536   4.674
14675TIP3    H143970   6.205   2.480   4.669
14675TIP3    H243971   6.275   2.580   4.759
14676TIP3   OH243972   4.217   1.419   0.870
14676TIP3    H143973   4.244   1.327   0.867
14676TIP3    H243974   4.203   1.442   0.778
14677TIP3   OH243975   4.533   3.367   6.043
14677TIP3    H143976   4.463   3.356   5.979
14677TIP3    H243977   4.609   3.395   5.992
14678TIP3   OH243978   8.158   7.213   5.967
14678TIP3    H143979   8.133   7.298   5.931
14678TIP3    H243980   8.079   7.180   6.009
14679TIP3   OH243981   2.575   2.028   3.437
14679TIP3    H143982   2.496   2.077   3.457
14679TIP3    H243983   2.607   2.066   3.355
14680TIP3   OH243984   2.140   0.977   0.462
14680TIP3    H143985   2.058   1.025   0.449
14680TIP3    H243986   2.149   0.924   0.383
14681TIP3   OH243987   7.062   5.319   6.330
14681TIP3    H143988   7.104   5.352   6.409
14681TIP3    H243989   7.075   5.388   6.265
14682TIP3   OH243990   1.279   1.341   2.344
14682TIP3    H143991   1.304   1.391   2.422
14682TIP3    H243992   1.347   1.274   2.337
14683TIP3   OH243993   6.358   7.320   5.242
14683TIP3    H143994   6.350   7.395   5.183
14683TIP3    H243995   6.421   7.262   5.197
14684TIP3   OH243996   0.502   3.279   6.644
14684TIP3    H143997   0.475   3.241   6.728
14684TIP3    H243998   0.502   3.373   6.660
14685TIP3   OH243999   5.132   6.859   6.487
14685TIP3    H144000   5.049   6.816   6.467
14685TIP3    H244001   5.164   6.814   6.565
14686TIP3   OH244002   2.166   6.974   3.448
14686TIP3    H144003   2.207   7.053   3.482
14686TIP3    H244004   2.204   6.903   3.500
14687TIP3   OH244005   2.221   2.598  -0.064
14687TIP3    H144006   2.266   2.670  -0.108
14687TIP3    H244007   2.155   2.568  -0.126
14688TIP3   OH244008   0.757   4.174   0.997
14688TIP3    H144009   0.836   4.158   1.048
14688TIP3    H244010   0.688   4.126   1.043
14689TIP3   OH244011   6.770   7.102   5.700
14689TIP3    H144012   6.675   7.099   5.686
14689TIP3    H244013   6.788   7.033   5.763
14690TIP3   OH244014   7.118   5.869   1.007
14690TIP3    H144015   7.046   5.900   1.063
14690TIP3    H244016   7.089   5.889   0.918
14691TIP3   OH244017   4.105   2.898   3.783
14691TIP3    H144018   4.064   2.968   3.733
14691TIP3    H244019   4.132   2.940   3.865
14692TIP3   OH244020   2.120   3.958   1.742
14692TIP3    H144021   2.153   3.875   1.707
14692TIP3    H244022   2.054   3.933   1.807
14693TIP3   OH244023   5.064   7.741   1.459
14693TIP3    H144024   5.028   7.654   1.437
14693TIP3    H244025   5.048   7.750   1.553
14694TIP3   OH244026   3.192   1.419   1.529
14694TIP3    H144027   3.209   1.394   1.439
14694TIP3    H244028   3.248   1.361   1.581
14695TIP3   OH244029   5.114   2.852   1.289
14695TIP3    H144030   5.113   2.763   1.323
14695TIP3    H244031   5.097   2.842   1.195
14696TIP3   OH244032   4.347   3.053   1.219
14696TIP3    H144033   4.258   3.077   1.194
14696TIP3    H244034   4.383   3.132   1.261
14697TIP3   OH244035   0.959   6.325   2.771
14697TIP3    H144036   0.963   6.410   2.814
14697TIP3    H244037   1.039   6.280   2.797
14698TIP3   OH244038  -0.075   6.906   5.923
14698TIP3    H144039  -0.097   6.953   5.842
14698TIP3    H244040  -0.077   6.974   5.991
14699TIP3   OH244041   4.798   5.252   6.423
14699TIP3    H144042   4.780   5.161   6.400
14699TIP3    H244043   4.883   5.270   6.382
14700TIP3   OH244044  -0.022   5.946   2.778
14700TIP3    H144045  -0.073   5.871   2.809
14700TIP3    H244046   0.001   5.994   2.857
14701TIP3   OH244047   4.679   4.872   0.909
14701TIP3    H144048   4.623   4.950   0.909
14701TIP3    H244049   4.618   4.799   0.926
14702TIP3   OH244050   0.683   1.756   0.932
14702TIP3    H144051   0.600   1.711   0.945
14702TIP3    H244052   0.747   1.701   0.978
14703TIP3   OH244053   1.543   0.141   5.284
14703TIP3    H144054   1.623   0.107   5.326
14703TIP3    H244055   1.551   0.113   5.193
14704TIP3   OH244056   1.981   6.552   0.377
14704TIP3    H144057   2.000   6.477   0.433
14704TIP3    H244058   1.950   6.514   0.295
14705TIP3   OH244059   1.236   6.071   6.611
14705TIP3    H144060   1.144   6.091   6.592
14705TIP3    H244061   1.233   6.013   6.688
14706TIP3   OH244062   5.120   7.476   5.444
14706TIP3    H144063   5.034   7.470   5.486
14706TIP3    H244064   5.158   7.389   5.455
14707TIP3   OH244065   0.766   3.436   5.796
14707TIP3    H144066   0.743   3.524   5.824
14707TIP3    H244067   0.717   3.378   5.854
14708TIP3   OH244068   7.475   1.869   4.221
14708TIP3    H144069   7.481   1.865   4.317
14708TIP3    H244070   7.541   1.807   4.190
14709TIP3   OH244071   1.151   2.070   3.981
14709TIP3    H144072   1.164   1.993   3.925
14709TIP3    H244073   1.086   2.042   4.046
14710TIP3   OH244074   6.362   3.237   2.196
14710TIP3    H144075   6.388   3.181   2.123
14710TIP3    H244076   6.428   3.220   2.264
14711TIP3   OH244077   4.238   6.824   2.370
14711TIP3    H144078   4.312   6.789   2.420
14711TIP3    H244079   4.261   6.915   2.354
14712TIP3   OH244080   4.909   1.799   2.267
14712TIP3    H144081   4.859   1.842   2.198
14712TIP3    H244082   4.873   1.833   2.348
14713TIP3   OH244083   7.611   0.124   2.096
14713TIP3    H144084   7.602   0.041   2.049
14713TIP3    H244085   7.534   0.127   2.152
14714TIP3   OH244086   5.920   6.944   1.852
14714TIP3    H144087   5.856   6.904   1.912
14714TIP3    H244088   5.992   6.971   1.909
14715TIP3   OH244089   1.963   5.366   3.053
14715TIP3    H144090   1.940   5.304   2.984
14715TIP3    H244091   1.992   5.313   3.126
14716TIP3   OH244092   5.931   0.419   4.391
14716TIP3    H144093   5.835   0.419   4.384
14716TIP3    H244094   5.949   0.486   4.457
14717TIP3   OH244095   3.320   6.811   0.664
14717TIP3    H144096   3.267   6.853   0.597
14717TIP3    H244097   3.303   6.863   0.743
14718TIP3   OH244098   4.112   5.083   1.400
14718TIP3    H144099   4.152   5.083   1.313
14718TIP3    H244100   4.068   5.168   1.406
14719TIP3   OH244101   5.297   7.545   1.628
14719TIP3    H144102   5.238   7.584   1.564
14719TIP3    H244103   5.292   7.451   1.611
14720TIP3   OH244104   8.119   4.365   1.546
14720TIP3    H144105   8.152   4.275   1.538
14720TIP3    H244106   8.197   4.416   1.568
14721TIP3   OH244107   0.333   3.095   1.559
14721TIP3    H144108   0.323   3.077   1.465
14721TIP3    H244109   0.379   3.019   1.593
14722TIP3   OH244110   0.484   1.232   4.328
14722TIP3    H144111   0.565   1.239   4.277
14722TIP3    H244112   0.499   1.159   4.387
14723TIP3   OH244113   1.317   0.724   1.689
14723TIP3    H144114   1.232   0.764   1.703
14723TIP3    H244115   1.374   0.762   1.756
14724TIP3   OH244116   8.036   1.303   4.007
14724TIP3    H144117   8.004   1.269   4.090
14724TIP3    H244118   8.099   1.371   4.032
14725TIP3   OH244119   5.371   2.260   4.389
14725TIP3    H144120   5.399   2.248   4.298
14725TIP3    H244121   5.356   2.172   4.422
14726TIP3   OH244122   5.361   0.346   4.022
14726TIP3    H144123   5.329   0.385   3.940
14726TIP3    H244124   5.334   0.254   4.017
14727TIP3   OH244125   7.843   3.731   0.437
14727TIP3    H144126   7.927   3.694   0.409
14727TIP3    H244127   7.804   3.765   0.357
14728TIP3   OH244128   7.584   0.561   5.669
14728TIP3    H144129   7.574   0.496   5.600
14728TIP3    H244130   7.648   0.523   5.729
14729TIP3   OH244131   5.542   5.443   0.419
14729TIP3    H144132   5.581   5.472   0.336
14729TIP3    H244133   5.452   5.474   0.414
14730TIP3   OH244134   5.643   3.184   0.904
14730TIP3    H144135   5.649   3.261   0.961
14730TIP3    H244136   5.634   3.221   0.816
14731TIP3   OH244137   5.089   4.818   5.844
14731TIP3    H144138   5.103   4.752   5.911
14731TIP3    H244139   5.047   4.891   5.890
14732TIP3   OH244140   6.275   6.821   5.300
14732TIP3    H144141   6.285   6.901   5.350
14732TIP3    H244142   6.183   6.820   5.273
14733TIP3   OH244143   3.521   4.168   6.006
14733TIP3    H144144   3.438   4.202   5.974
14733TIP3    H244145   3.535   4.213   6.090
14734TIP3   OH244146   6.588   7.238   0.655
14734TIP3    H144147   6.583   7.310   0.592
14734TIP3    H244148   6.498   7.205   0.660
14735TIP3   OH244149   2.856   6.499   2.949
14735TIP3    H144150   2.934   6.446   2.967
14735TIP3    H244151   2.822   6.522   3.036
14736TIP3   OH244152   8.049   3.432   1.872
14736TIP3    H144153   7.954   3.434   1.888
14736TIP3    H244154   8.078   3.349   1.908
14737TIP3   OH244155   1.870   5.837   1.464
14737TIP3    H144156   1.871   5.743   1.483
14737TIP3    H244157   1.960   5.866   1.480
14738TIP3   OH244158   1.913   6.790   1.290
14738TIP3    H144159   1.914   6.884   1.309
14738TIP3    H244160   1.913   6.748   1.376
14739TIP3   OH244161   4.858   0.963   0.085
14739TIP3    H144162   4.779   0.916   0.113
14739TIP3    H244163   4.920   0.949   0.157
14740TIP3   OH244164   1.140   6.682   2.599
14740TIP3    H144165   1.080   6.746   2.560
14740TIP3    H244166   1.194   6.733   2.659
14741TIP3   OH244167   6.170   2.411   6.475
14741TIP3    H144168   6.222   2.460   6.539
14741TIP3    H244169   6.156   2.326   6.517
14742TIP3   OH244170   0.588   3.458   3.167
14742TIP3    H144171   0.622   3.386   3.221
14742TIP3    H244172   0.500   3.430   3.143
14743TIP3   OH244173   6.637   4.171   4.416
14743TIP3    H144174   6.625   4.168   4.511
14743TIP3    H244175   6.551   4.193   4.381
14744TIP3   OH244176   2.296   6.472   6.046
14744TIP3    H144177   2.391   6.465   6.057
14744TIP3    H244178   2.267   6.383   6.030
14745TIP3   OH244179   8.066   4.565   4.335
14745TIP3    H144180   8.103   4.650   4.311
14745TIP3    H244181   8.084   4.509   4.259
14746TIP3   OH244182   7.856   3.003   4.563
14746TIP3    H144183   7.791   3.011   4.633
14746TIP3    H244184   7.806   3.013   4.482
14747TIP3   OH244185   1.033   6.952   5.871
14747TIP3    H144186   1.038   6.928   5.964
14747TIP3    H244187   1.068   6.876   5.825
14748TIP3   OH244188   3.732   7.551   4.009
14748TIP3    H144189   3.758   7.527   3.920
14748TIP3    H244190   3.814   7.565   4.055
14749TIP3   OH244191   5.399   5.498   5.574
14749TIP3    H144192   5.476   5.555   5.571
14749TIP3    H244193   5.416   5.437   5.645
14750TIP3   OH244194   8.075   2.318   4.999
14750TIP3    H144195   8.148   2.270   4.960
14750TIP3    H244196   8.021   2.251   5.039
14751TIP3   OH244197   6.992   5.293   3.783
14751TIP3    H144198   6.914   5.338   3.816
14751TIP3    H244199   7.055   5.363   3.767
14752TIP3   OH244200   4.302   6.002   0.609
14752TIP3    H144201   4.279   5.948   0.685
14752TIP3    H244202   4.220   6.011   0.561
14753TIP3   OH244203   0.496   5.625   4.341
14753TIP3    H144204   0.479   5.579   4.424
14753TIP3    H244205   0.530   5.557   4.283
14754TIP3   OH244206   2.898   7.061   4.394
14754TIP3    H144207   2.872   7.070   4.486
14754TIP3    H244208   2.914   6.967   4.383
14755TIP3   OH244209   0.852   5.426   1.830
14755TIP3    H144210   0.786   5.494   1.846
14755TIP3    H244211   0.824   5.385   1.748
14756TIP3   OH244212   0.441   0.768   1.324
14756TIP3    H144213   0.400   0.720   1.252
14756TIP3    H244214   0.535   0.761   1.306
14757TIP3   OH244215   7.142   4.523   4.907
14757TIP3    H144216   7.048   4.525   4.929
14757TIP3    H244217   7.179   4.597   4.955
14758TIP3   OH244218   4.078   2.670  -0.004
14758TIP3    H144219   4.129   2.626   0.064
14758TIP3    H244220   4.116   2.758  -0.010
14759TIP3   OH244221   6.696   6.707   0.757
14759TIP3    H144222   6.617   6.761   0.752
14759TIP3    H244223   6.725   6.698   0.666
14760TIP3   OH244224   3.543   3.059   1.488
14760TIP3    H144225   3.575   2.969   1.479
14760TIP3    H244226   3.528   3.070   1.582
14761TIP3   OH244227   7.323   7.478   1.969
14761TIP3    H144228   7.245   7.443   1.925
14761TIP3    H244229   7.395   7.424   1.937
14762TIP3   OH244230   0.173   7.767   3.906
14762TIP3    H144231   0.220   7.686   3.887
14762TIP3    H244232   0.091   7.759   3.858
14763TIP3   OH244233   0.637   4.949   0.105
14763TIP3    H144234   0.623   4.856   0.087
14763TIP3    H244235   0.650   4.953   0.200
14764TIP3   OH244236   4.192   5.416   2.700
14764TIP3    H144237   4.200   5.442   2.792
14764TIP3    H244238   4.106   5.449   2.673
14765TIP3   OH244239   6.991   1.628   2.853
14765TIP3    H144240   6.976   1.689   2.925
14765TIP3    H244241   6.906   1.621   2.810
14766TIP3   OH244242   7.827   5.455   5.350
14766TIP3    H144243   7.743   5.493   5.326
14766TIP3    H244244   7.891   5.523   5.331
14767TIP3   OH244245   2.847   6.040   1.773
14767TIP3    H144246   2.827   6.043   1.680
14767TIP3    H244247   2.889   5.955   1.786
14768TIP3   OH244248   1.096   6.353   3.161
14768TIP3    H144249   1.016   6.356   3.213
14768TIP3    H244250   1.135   6.268   3.182
14769TIP3   OH244251   6.430   2.669   4.060
14769TIP3    H144252   6.472   2.584   4.074
14769TIP3    H244253   6.370   2.678   4.135
14770TIP3   OH244254   1.627   4.104   2.065
14770TIP3    H144255   1.567   4.176   2.045
14770TIP3    H244256   1.710   4.148   2.083
14771TIP3   OH244257   5.156   0.616   4.368
14771TIP3    H144258   5.225   0.576   4.315
14771TIP3    H244259   5.177   0.593   4.458
14772TIP3   OH244260   2.384   0.174   2.538
14772TIP3    H144261   2.318   0.243   2.535
14772TIP3    H244262   2.393   0.146   2.447
14773TIP3   OH244263   0.474   4.308   5.718
14773TIP3    H144264   0.413   4.304   5.644
14773TIP3    H244265   0.490   4.402   5.730
14774TIP3   OH244266   3.488   7.145   0.103
14774TIP3    H144267   3.398   7.112   0.102
14774TIP3    H244268   3.533   7.092   0.168
14775TIP3   OH244269   0.303   7.068   3.002
14775TIP3    H144270   0.335   7.138   3.059
14775TIP3    H244271   0.378   7.010   2.992
14776TIP3   OH244272   7.943   0.419   6.046
14776TIP3    H144273   8.028   0.409   6.088
14776TIP3    H244274   7.881   0.380   6.108
14777TIP3   OH244275   5.200   6.594   3.381
14777TIP3    H144276   5.280   6.605   3.434
14777TIP3    H244277   5.226   6.534   3.311
14778TIP3   OH244278   0.724   4.258   1.925
14778TIP3    H144279   0.717   4.185   1.986
14778TIP3    H244280   0.704   4.336   1.977
14779TIP3   OH244281   7.330   2.671   4.359
14779TIP3    H144282   7.415   2.629   4.371
14779TIP3    H244283   7.324   2.687   4.265
14780TIP3   OH244284   2.334   1.569   2.960
14780TIP3    H144285   2.247   1.605   2.941
14780TIP3    H244286   2.356   1.604   3.046
14781TIP3   OH244287   2.795  -0.003   5.245
14781TIP3    H144288   2.824  -0.093   5.233
14781TIP3    H244289   2.749  -0.004   5.330
14782TIP3   OH244290   6.144   2.299   4.000
14782TIP3    H144291   6.166   2.206   3.998
14782TIP3    H244292   6.226   2.343   4.022
14783TIP3   OH244293   5.355   3.627   0.775
14783TIP3    H144294   5.262   3.622   0.798
14783TIP3    H244295   5.367   3.716   0.743
14784TIP3   OH244296   0.126   5.061   1.934
14784TIP3    H144297   0.212   5.097   1.914
14784TIP3    H244298   0.143   4.989   1.995
14785TIP3   OH244299   4.899   2.246   6.456
14785TIP3    H144300   4.950   2.174   6.493
14785TIP3    H244301   4.961   2.317   6.445
14786TIP3   OH244302   4.693   6.672   4.607
14786TIP3    H144303   4.628   6.649   4.540
14786TIP3    H244304   4.641   6.692   4.685
14787TIP3   OH244305   4.866   0.772   4.871
14787TIP3    H144306   4.788   0.789   4.819
14787TIP3    H244307   4.864   0.839   4.940
14788TIP3   OH244308   1.683   1.818   1.509
14788TIP3    H144309   1.617   1.837   1.442
14788TIP3    H244310   1.635   1.826   1.592
14789TIP3   OH244311   5.902   7.666   0.442
14789TIP3    H144312   5.867   7.579   0.422
14789TIP3    H244313   5.841   7.727   0.400
14790TIP3   OH244314   2.978   2.879   6.204
14790TIP3    H144315   3.058   2.852   6.158
14790TIP3    H244316   2.924   2.921   6.136
14791TIP3   OH244317   4.383   3.780   4.171
14791TIP3    H144318   4.318   3.801   4.103
14791TIP3    H244319   4.397   3.686   4.162
14792TIP3   OH244320   4.717   1.580   5.760
14792TIP3    H144321   4.658   1.527   5.813
14792TIP3    H244322   4.791   1.523   5.741
14793TIP3   OH244323   5.802   4.382   4.550
14793TIP3    H144324   5.848   4.453   4.505
14793TIP3    H244325   5.763   4.330   4.480
14794TIP3   OH244326   1.209   5.573   5.862
14794TIP3    H144327   1.282   5.541   5.808
14794TIP3    H244328   1.228   5.540   5.950
14795TIP3   OH244329   2.988   3.869   0.525
14795TIP3    H144330   2.991   3.965   0.521
14795TIP3    H244331   3.067   3.841   0.479
14796TIP3   OH244332   1.722   6.255   4.898
14796TIP3    H144333   1.732   6.165   4.867
14796TIP3    H244334   1.724   6.249   4.994
14797TIP3   OH244335   0.687   0.773   5.211
14797TIP3    H144336   0.592   0.766   5.203
14797TIP3    H244337   0.706   0.744   5.300
14798TIP3   OH244338   6.084   4.131   4.862
14798TIP3    H144339   6.045   4.201   4.913
14798TIP3    H244340   6.061   4.051   4.908
14799TIP3   OH244341   1.923   0.503   1.864
14799TIP3    H144342   1.868   0.575   1.893
14799TIP3    H244343   1.987   0.492   1.934
14800TIP3   OH244344   5.961   3.483   3.632
14800TIP3    H144345   5.878   3.466   3.588
14800TIP3    H244346   5.942   3.476   3.725
14801TIP3   OH244347   3.772   7.745   6.646
14801TIP3    H144348   3.818   7.713   6.724
14801TIP3    H244349   3.722   7.669   6.616
14802TIP3   OH244350   2.226   3.401   2.402
14802TIP3    H144351   2.189   3.401   2.314
14802TIP3    H244352   2.313   3.362   2.391
14803TIP3   OH244353   4.760   4.770   0.410
14803TIP3    H144354   4.763   4.674   0.413
14803TIP3    H244355   4.691   4.791   0.347
14804TIP3   OH244356   5.983   6.308   6.565
14804TIP3    H144357   5.939   6.341   6.487
14804TIP3    H244358   5.912   6.273   6.619
14805TIP3   OH244359   1.612   5.660   0.666
14805TIP3    H144360   1.572   5.706   0.740
14805TIP3    H244361   1.706   5.667   0.682
14806TIP3   OH244362   0.782   4.546   2.917
14806TIP3    H144363   0.739   4.608   2.976
14806TIP3    H244364   0.823   4.602   2.850
14807TIP3   OH244365   2.550   1.298   0.500
14807TIP3    H144366   2.493   1.352   0.446
14807TIP3    H244367   2.602   1.361   0.550
14808TIP3   OH244368   5.128   5.135   4.163
14808TIP3    H144369   5.052   5.080   4.183
14808TIP3    H244370   5.193   5.109   4.229
14809TIP3   OH244371   4.947   6.184   4.082
14809TIP3    H144372   4.869   6.135   4.056
14809TIP3    H244373   4.987   6.210   3.999
14810TIP3   OH244374   1.835   1.338   1.598
14810TIP3    H144375   1.803   1.422   1.564
14810TIP3    H244376   1.907   1.315   1.540
14811TIP3   OH244377   5.305   1.630   0.027
14811TIP3    H144378   5.374   1.570  -0.001
14811TIP3    H244379   5.336   1.666   0.110
14812TIP3   OH244380   7.628   6.899   2.489
14812TIP3    H144381   7.672   6.983   2.480
14812TIP3    H244382   7.680   6.839   2.434
14813TIP3   OH244383   7.638   0.657   4.711
14813TIP3    H144384   7.554   0.692   4.682
14813TIP3    H244385   7.615   0.583   4.767
14814TIP3   OH244386   2.853   2.218   2.754
14814TIP3    H144387   2.838   2.195   2.662
14814TIP3    H244388   2.905   2.298   2.749
14815TIP3   OH244389   7.803   3.356   2.913
14815TIP3    H144390   7.713   3.376   2.936
14815TIP3    H244391   7.834   3.434   2.867
14816TIP3   OH244392   1.672   3.620   5.915
14816TIP3    H144393   1.650   3.554   5.849
14816TIP3    H244394   1.767   3.612   5.925
14817TIP3   OH244395   3.749   3.843   6.319
14817TIP3    H144396   3.733   3.749   6.334
14817TIP3    H244397   3.676   3.872   6.265
14818TIP3   OH244398   3.341   0.705   1.072
14818TIP3    H144399   3.335   0.647   1.148
14818TIP3    H244400   3.413   0.669   1.020
14819TIP3   OH244401   2.519   2.498   1.919
14819TIP3    H144402   2.458   2.504   1.992
14819TIP3    H244403   2.483   2.429   1.863
14820TIP3   OH244404   4.896   0.714   4.010
14820TIP3    H144405   4.880   0.631   4.054
14820TIP3    H244406   4.838   0.776   4.054
14821TIP3   OH244407   0.604   6.757   4.759
14821TIP3    H144408   0.519   6.798   4.774
14821TIP3    H244409   0.593   6.666   4.789
14822TIP3   OH244410   1.093   2.840   1.145
14822TIP3    H144411   1.078   2.750   1.117
14822TIP3    H244412   1.025   2.891   1.100
14823TIP3   OH244413   3.497   3.656   5.043
14823TIP3    H144414   3.590   3.676   5.028
14823TIP3    H244415   3.451   3.730   5.003
14824TIP3   OH244416   4.314   6.144   3.300
14824TIP3    H144417   4.341   6.190   3.220
14824TIP3    H244418   4.267   6.210   3.351
14825TIP3   OH244419   6.410   4.212   5.068
14825TIP3    H144420   6.388   4.272   4.996
14825TIP3    H244421   6.503   4.194   5.056
14826TIP3   OH244422   2.922   2.850   1.943
14826TIP3    H144423   3.000   2.800   1.965
14826TIP3    H244424   2.856   2.784   1.923
14827TIP3   OH244425   0.537   0.159   2.926
14827TIP3    H144426   0.571   0.240   2.888
14827TIP3    H244427   0.453   0.145   2.883
14828TIP3   OH244428   3.519   3.352   2.134
14828TIP3    H144429   3.586   3.375   2.198
14828TIP3    H244430   3.524   3.256   2.128
14829TIP3   OH244431   3.367   1.852   6.335
14829TIP3    H144432   3.393   1.902   6.257
14829TIP3    H244433   3.287   1.895   6.365
14830TIP3   OH244434   3.756   6.717   0.326
14830TIP3    H144435   3.660   6.723   0.329
14830TIP3    H244436   3.778   6.722   0.233
14831TIP3   OH244437   0.588   4.914   1.769
14831TIP3    H144438   0.575   4.914   1.864
14831TIP3    H244439   0.667   4.967   1.756
14832TIP3   OH244440   2.715   7.380   6.124
14832TIP3    H144441   2.799   7.356   6.085
14832TIP3    H244442   2.726   7.472   6.149
14833TIP3   OH244443   5.065   2.125   6.204
14833TIP3    H144444   5.073   2.033   6.180
14833TIP3    H244445   5.070   2.126   6.300
14834TIP3   OH244446   1.967   3.866   1.042
14834TIP3    H144447   2.052   3.860   0.998
14834TIP3    H244448   1.931   3.950   1.012
14835TIP3   OH244449   0.990   2.921   4.033
14835TIP3    H144450   0.987   2.972   4.114
14835TIP3    H244451   1.010   2.832   4.062
14836TIP3   OH244452   1.289   0.897   3.698
14836TIP3    H144453   1.313   0.813   3.659
14836TIP3    H244454   1.202   0.881   3.736
14837TIP3   OH244455   7.896   2.565   6.200
14837TIP3    H144456   7.838   2.513   6.144
14837TIP3    H244457   7.868   2.655   6.186
14838TIP3   OH244458   7.807   5.240   0.960
14838TIP3    H144459   7.755   5.298   1.016
14838TIP3    H244460   7.897   5.249   0.994
14839TIP3   OH244461   0.591   5.179   2.362
14839TIP3    H144462   0.685   5.197   2.365
14839TIP3    H244463   0.561   5.194   2.452
   8.29964   7.82498   6.77662   0.00000   0.00000  -2.76654   0.00000  -2.76654  -3.91249
