Title t= 188.00000 step= 94000
44463
    1GLY      N    1   2.560   3.237   3.985
    1GLY    HT1    2   2.541   3.217   4.085
    1GLY    HT2    3   2.507   3.323   3.960
    1GLY    HT3    4   2.662   3.251   3.976
    1GLY     CA    5   2.517   3.125   3.892
    1GLY    HA1    6   2.576   3.144   3.803
    1GLY    HA2    7   2.413   3.141   3.866
    1GLY      C    8   2.530   2.990   3.949
    1GLY      O    9   2.547   2.978   4.069
    2PRO      N   10   2.499   2.888   3.867
    2PRO     CD   11   2.441   2.907   3.732
    2PRO    HD1   12   2.512   2.937   3.652
    2PRO    HD2   13   2.360   2.982   3.737
    2PRO     CA   14   2.522   2.750   3.902
    2PRO     HA   15   2.448   2.722   3.976
    2PRO     CB   16   2.496   2.686   3.766
    2PRO    HB1   17   2.453   2.586   3.789
    2PRO    HB2   18   2.589   2.673   3.707
    2PRO     CG   19   2.396   2.769   3.687
    2PRO    HG1   20   2.408   2.751   3.578
    2PRO    HG2   21   2.294   2.744   3.723
    2PRO      C   22   2.656   2.714   3.958
    2PRO      O   23   2.754   2.775   3.915
    3GLY      N   24   2.668   2.608   4.044
    3GLY     HN   25   2.582   2.563   4.065
    3GLY     CA   26   2.787   2.563   4.117
    3GLY    HA1   27   2.753   2.477   4.172
    3GLY    HA2   28   2.822   2.643   4.180
    3GLY      C   29   2.909   2.524   4.034
    3GLY      O   30   2.907   2.514   3.909
    4ASP      N   31   3.021   2.488   4.102
    4ASP     HN   32   3.019   2.496   4.201
    4ASP     CA   33   3.130   2.420   4.040
    4ASP     HA   34   3.144   2.469   3.944
    4ASP     CB   35   3.255   2.427   4.143
    4ASP    HB1   36   3.330   2.350   4.118
    4ASP    HB2   37   3.205   2.404   4.240
    4ASP     CG   38   3.314   2.564   4.160
    4ASP    OD1   39   3.391   2.589   4.254
    4ASP    OD2   40   3.284   2.654   4.080
    4ASP      C   41   3.103   2.266   4.010
    4ASP      O   42   3.018   2.209   4.079
    5PRO      N   43   3.181   2.200   3.929
    5PRO     CD   44   3.259   2.260   3.821
    5PRO    HD1   45   3.341   2.313   3.872
    5PRO    HD2   46   3.200   2.331   3.759
    5PRO     CA   47   3.202   2.056   3.935
    5PRO     HA   48   3.115   2.020   3.882
    5PRO     CB   49   3.336   2.043   3.858
    5PRO    HB1   50   3.362   1.941   3.823
    5PRO    HB2   51   3.422   2.070   3.924
    5PRO     CG   52   3.324   2.143   3.745
    5PRO    HG1   53   3.421   2.179   3.705
    5PRO    HG2   54   3.258   2.095   3.670
    5PRO      C   55   3.208   1.995   4.079
    5PRO      O   56   3.256   2.062   4.170
    6GLY      N   57   3.146   1.875   4.091
    6GLY     HN   58   3.116   1.825   4.010
    6GLY     CA   59   3.117   1.808   4.217
    6GLY    HA1   60   3.067   1.714   4.197
    6GLY    HA2   61   3.058   1.864   4.288
    6GLY      C   62   3.251   1.755   4.283
    6GLY      O   63   3.353   1.744   4.214
    7PRO      N   64   3.246   1.701   4.397
    7PRO     CD   65   3.144   1.722   4.501
    7PRO    HD1   66   3.046   1.704   4.452
    7PRO    HD2   67   3.144   1.821   4.552
    7PRO     CA   68   3.357   1.611   4.445
    7PRO     HA   69   3.451   1.652   4.411
    7PRO     CB   70   3.330   1.600   4.597
    7PRO    HB1   71   3.385   1.677   4.656
    7PRO    HB2   72   3.350   1.504   4.650
    7PRO     CG   73   3.176   1.618   4.613
    7PRO    HG1   74   3.128   1.519   4.592
    7PRO    HG2   75   3.148   1.651   4.715
    7PRO      C   76   3.343   1.476   4.380
    7PRO      O   77   3.236   1.422   4.361
    8GLY      N   78   3.455   1.415   4.346
    8GLY     HN   79   3.538   1.469   4.359
    8GLY     CA   80   3.476   1.290   4.273
    8GLY    HA1   81   3.459   1.210   4.343
    8GLY    HA2   82   3.575   1.303   4.233
    8GLY      C   83   3.383   1.257   4.152
    8GLY      O   84   3.354   1.346   4.067
    9ASP      N   85   3.337   1.130   4.135
    9ASP     HN   86   3.347   1.064   4.209
    9ASP     CA   87   3.266   1.075   4.029
    9ASP     HA   88   3.337   1.068   3.947
    9ASP     CB   89   3.219   0.923   4.041
    9ASP    HB1   90   3.169   0.902   3.944
    9ASP    HB2   91   3.145   0.904   4.122
    9ASP     CG   92   3.333   0.821   4.047
    9ASP    OD1   93   3.453   0.863   4.045
    9ASP    OD2   94   3.311   0.700   4.039
    9ASP      C   95   3.137   1.158   3.984
    9ASP      O   96   3.043   1.171   4.061
   10PRO      N   97   3.137   1.207   3.861
   10PRO     CD   98   3.258   1.224   3.775
   10PRO    HD1   99   3.280   1.129   3.721
   10PRO    HD2  100   3.344   1.253   3.840
   10PRO     CA  101   3.008   1.240   3.796
   10PRO     HA  102   2.963   1.316   3.858
   10PRO     CB  103   3.067   1.280   3.655
   10PRO    HB1  104   3.009   1.358   3.602
   10PRO    HB2  105   3.055   1.187   3.595
   10PRO     CG  106   3.212   1.324   3.676
   10PRO    HG1  107   3.273   1.312   3.584
   10PRO    HG2  108   3.220   1.430   3.706
   10PRO      C  109   2.907   1.116   3.800
   10PRO      O  110   2.933   1.004   3.760
   11GLY      N  111   2.784   1.137   3.846
   11GLY     HN  112   2.755   1.224   3.886
   11GLY     CA  113   2.679   1.038   3.860
   11GLY    HA1  114   2.712   0.937   3.879
   11GLY    HA2  115   2.626   1.050   3.766
   11GLY      C  116   2.577   1.074   3.963
   11GLY      O  117   2.607   1.165   4.038
   12PRO      N  118   2.454   1.006   3.970
   12PRO     CD  119   2.421   0.897   3.874
   12PRO    HD1  120   2.488   0.809   3.884
   12PRO    HD2  121   2.443   0.938   3.773
   12PRO     CA  122   2.341   1.036   4.058
   12PRO     HA  123   2.300   1.130   4.025
   12PRO     CB  124   2.242   0.923   4.039
   12PRO    HB1  125   2.136   0.958   4.046
   12PRO    HB2  126   2.270   0.841   4.108
   12PRO     CG  127   2.275   0.873   3.899
   12PRO    HG1  128   2.250   0.766   3.887
   12PRO    HG2  129   2.214   0.922   3.820
   12PRO      C  130   2.387   1.074   4.197
   12PRO      O  131   2.470   1.000   4.254
   13GLY      N  132   2.335   1.186   4.251
   13GLY     HN  133   2.255   1.217   4.199
   13GLY     CA  134   2.351   1.253   4.375
   13GLY    HA1  135   2.299   1.347   4.370
   13GLY    HA2  136   2.454   1.252   4.407
   13GLY      C  137   2.280   1.175   4.481
   13GLY      O  138   2.206   1.081   4.456
   14ASP      N  139   2.292   1.226   4.597
   14ASP     HN  140   2.360   1.298   4.609
   14ASP     CA  141   2.214   1.193   4.718
   14ASP     HA  142   2.205   1.086   4.718
   14ASP     CB  143   2.273   1.244   4.854
   14ASP    HB1  144   2.205   1.236   4.942
   14ASP    HB2  145   2.311   1.346   4.835
   14ASP     CG  146   2.390   1.158   4.887
   14ASP    OD1  147   2.474   1.199   4.975
   14ASP    OD2  148   2.406   1.049   4.830
   14ASP      C  149   2.074   1.261   4.700
   14ASP      O  150   2.072   1.383   4.670
   15PRO      N  151   1.956   1.200   4.732
   15PRO     CD  152   1.951   1.058   4.787
   15PRO    HD1  153   1.973   1.039   4.894
   15PRO    HD2  154   2.019   0.989   4.733
   15PRO     CA  155   1.824   1.251   4.732
   15PRO     HA  156   1.817   1.294   4.633
   15PRO     CB  157   1.728   1.134   4.752
   15PRO    HB1  158   1.631   1.150   4.701
   15PRO    HB2  159   1.702   1.128   4.859
   15PRO     CG  160   1.816   1.015   4.736
   15PRO    HG1  161   1.773   0.928   4.791
   15PRO    HG2  162   1.836   0.981   4.632
   15PRO      C  163   1.813   1.375   4.825
   15PRO    OT1  164   1.827   1.362   4.952
   15PRO    OT2  165   1.781   1.491   4.785
   16LIT    LIT  166   1.732   1.532   4.982
   17LIT    LIT  167   2.045   1.854   5.756
   18LIT    LIT  168   2.983   6.484   2.493
   19LIT    LIT  169   5.524   4.816   1.408
   20LIT    LIT  170   1.810   5.734   3.276
   21LIT    LIT  171   0.079   2.465   2.648
   22LIT    LIT  172   0.058   1.123   4.444
   23LIT    LIT  173   1.202   1.677   3.429
   24LIT    LIT  174   1.258   0.836   5.082
   25LIT    LIT  175   5.291   0.147   5.093
   26LIT    LIT  176   7.335   2.738   1.805
   27LIT    LIT  177   0.582   3.521   6.068
   28LIT    LIT  178   5.386   1.168   5.116
   29LIT    LIT  179   2.549   5.164   0.765
   30LIT    LIT  180   3.364   3.437   0.308
   31LIT    LIT  181   6.577   5.892   5.886
   32LIT    LIT  182   4.439   4.665   0.345
   33LIT    LIT  183   7.900   2.387   1.125
   34LIT    LIT  184   5.100   7.276   3.278
   35LIT    LIT  185   1.442   3.431   0.579
   36LIT    LIT  186   3.598   0.447   4.008
   37LIT    LIT  187   0.221   6.523   1.799
   38LIT    LIT  188   5.156   7.308   4.164
   39LIT    LIT  189   0.279   7.032   2.980
   40LIT    LIT  190   0.756   0.380   1.169
   41LIT    LIT  191   1.787   7.003   4.316
   42LIT    LIT  192   6.193   0.498   0.460
   43LIT    LIT  193   5.893   2.895   0.305
   44LIT    LIT  194   6.614   2.548   4.959
   45LIT    LIT  195   7.496   5.929   3.852
   46LIT    LIT  196   7.083   5.290   1.400
   47LIT    LIT  197   0.532   4.972   1.926
   48LIT    LIT  198   6.098   3.923   4.209
   49LIT    LIT  199   2.246   6.269   0.492
   50LIT    LIT  200   7.929   0.559   4.552
   51LIT    LIT  201   2.326   0.178   4.099
   52LIT    LIT  202   7.103   6.039   0.595
   53LIT    LIT  203   0.251   3.073   2.419
   54LIT    LIT  204   1.203   3.050   2.299
   55LIT    LIT  205   1.065   0.171   3.015
   56LIT    LIT  206   4.144   6.645   2.048
   57LIT    LIT  207   5.991   4.471   2.741
   58LIT    LIT  208   2.596   1.074   4.918
   59LIT    LIT  209   1.017   6.574   4.996
   60LIT    LIT  210   3.214   5.281   4.977
   61CLA    CLA  211   0.790   5.248   4.241
   62CLA    CLA  212   1.655   5.159   5.247
   63CLA    CLA  213   1.837   1.200   2.801
   64CLA    CLA  214   4.830   3.157   1.687
   65CLA    CLA  215   4.311   7.775   3.120
   66CLA    CLA  216   5.331   7.708   4.014
   67CLA    CLA  217   1.004   1.091   5.526
   68CLA    CLA  218   3.871   7.066   4.837
   69CLA    CLA  219   1.751   2.165   5.628
   70CLA    CLA  220   5.035   7.302   5.056
   71CLA    CLA  221   0.922   5.532   5.956
   72CLA    CLA  222   2.822   5.916   0.996
   73CLA    CLA  223   8.001   3.364   0.426
   74CLA    CLA  224   7.806   6.504   3.845
   75CLA    CLA  225   7.225   0.570   4.312
   76CLA    CLA  226   5.163   1.842   0.722
   77CLA    CLA  227   3.492   4.622   4.508
   78CLA    CLA  228   3.644   4.690   0.668
   79CLA    CLA  229   7.694   6.119   0.186
   80CLA    CLA  230   8.180   4.854   1.598
   81CLA    CLA  231   5.659   6.530   5.521
   82CLA    CLA  232   0.409   0.102   5.803
   83CLA    CLA  233   2.227   4.845   0.059
   84CLA    CLA  234   2.352   0.442   0.541
   85CLA    CLA  235   3.333   5.867   5.797
   86CLA    CLA  236   7.027   3.957   4.110
   87CLA    CLA  237   3.296   6.814   2.376
   88CLA    CLA  238   4.427   5.742   1.086
   89CLA    CLA  239   6.698   4.562   4.653
   90CLA    CLA  240   7.931   7.236   6.150
   91CLA    CLA  241   3.416   2.952   1.949
   92CLA    CLA  242   7.632   7.404   5.245
   93CLA    CLA  243   4.073   1.038   5.148
   94CLA    CLA  244   4.528   6.493   0.118
   95CLA    CLA  245   3.038   6.338   4.437
   96CLA    CLA  246   0.552   1.294   2.676
   97CLA    CLA  247   6.032   1.929   4.045
   98CLA    CLA  248   1.465   6.304   3.166
   99CLA    CLA  249   7.690   2.389   1.243
  100CLA    CLA  250   1.127   4.476   4.020
  101CLA    CLA  251   8.239   2.563   2.796
  102CLA    CLA  252   0.588   0.785   4.617
  103TIP3   OH2  253   1.461   5.945   3.796
  103TIP3    H1  254   1.509   5.887   3.854
  103TIP3    H2  255   1.404   5.996   3.853
  104TIP3   OH2  256   6.270   5.691   5.812
  104TIP3    H1  257   6.248   5.599   5.796
  104TIP3    H2  258   6.260   5.733   5.727
  105TIP3   OH2  259   7.925   2.271   3.924
  105TIP3    H1  260   7.975   2.352   3.921
  105TIP3    H2  261   7.918   2.251   4.018
  106TIP3   OH2  262   4.862   4.675   0.411
  106TIP3    H1  263   4.901   4.592   0.383
  106TIP3    H2  264   4.932   4.719   0.460
  107TIP3   OH2  265   1.521   4.811   3.136
  107TIP3    H1  266   1.609   4.827   3.168
  107TIP3    H2  267   1.465   4.829   3.211
  108TIP3   OH2  268   0.964   5.360   1.573
  108TIP3    H1  269   0.988   5.319   1.656
  108TIP3    H2  270   0.916   5.291   1.526
  109TIP3   OH2  271   0.779   5.086   1.059
  109TIP3    H1  272   0.717   5.082   0.986
  109TIP3    H2  273   0.852   5.031   1.032
  110TIP3   OH2  274   6.363   5.492   4.114
  110TIP3    H1  275   6.419   5.475   4.190
  110TIP3    H2  276   6.321   5.575   4.133
  111TIP3   OH2  277   0.829   6.245   4.773
  111TIP3    H1  278   0.778   6.166   4.790
  111TIP3    H2  279   0.918   6.214   4.759
  112TIP3   OH2  280   2.051   3.686   4.808
  112TIP3    H1  281   1.963   3.720   4.794
  112TIP3    H2  282   2.068   3.702   4.901
  113TIP3   OH2  283   6.359   1.664   3.523
  113TIP3    H1  284   6.341   1.573   3.499
  113TIP3    H2  285   6.275   1.709   3.512
  114TIP3   OH2  286   6.962   7.788   2.755
  114TIP3    H1  287   7.021   7.815   2.684
  114TIP3    H2  288   6.888   7.849   2.749
  115TIP3   OH2  289   7.385   7.225   1.811
  115TIP3    H1  290   7.413   7.295   1.752
  115TIP3    H2  291   7.292   7.242   1.827
  116TIP3   OH2  292   1.377   2.317   6.158
  116TIP3    H1  293   1.436   2.381   6.199
  116TIP3    H2  294   1.307   2.371   6.120
  117TIP3   OH2  295   5.836   6.065   4.741
  117TIP3    H1  296   5.912   6.063   4.800
  117TIP3    H2  297   5.825   5.974   4.714
  118TIP3   OH2  298   8.056   4.464   6.620
  118TIP3    H1  299   8.078   4.423   6.536
  118TIP3    H2  300   8.077   4.398   6.686
  119TIP3   OH2  301   7.066   6.012   2.128
  119TIP3    H1  302   7.101   5.936   2.082
  119TIP3    H2  303   7.006   5.975   2.193
  120TIP3   OH2  304   4.329   1.924   2.244
  120TIP3    H1  305   4.295   1.943   2.331
  120TIP3    H2  306   4.374   2.005   2.218
  121TIP3   OH2  307   0.976   2.619   6.142
  121TIP3    H1  308   0.919   2.630   6.219
  121TIP3    H2  309   0.915   2.603   6.070
  122TIP3   OH2  310   6.161   7.380   6.124
  122TIP3    H1  311   6.077   7.364   6.166
  122TIP3    H2  312   6.178   7.301   6.073
  123TIP3   OH2  313   5.694   5.085   1.463
  123TIP3    H1  314   5.619   5.146   1.466
  123TIP3    H2  315   5.763   5.130   1.513
  124TIP3   OH2  316   0.099   7.676   4.669
  124TIP3    H1  317   0.153   7.614   4.717
  124TIP3    H2  318   0.161   7.732   4.622
  125TIP3   OH2  319   8.096   4.313   2.191
  125TIP3    H1  320   8.140   4.240   2.146
  125TIP3    H2  321   8.130   4.392   2.148
  126TIP3   OH2  322   3.032   0.780   1.614
  126TIP3    H1  323   3.095   0.763   1.544
  126TIP3    H2  324   2.966   0.836   1.574
  127TIP3   OH2  325   1.692   3.869   6.690
  127TIP3    H1  326   1.626   3.857   6.758
  127TIP3    H2  327   1.667   3.951   6.647
  128TIP3   OH2  328   5.465   6.887   4.979
  128TIP3    H1  329   5.503   6.811   5.024
  128TIP3    H2  330   5.384   6.854   4.941
  129TIP3   OH2  331   7.968   6.286   2.283
  129TIP3    H1  332   7.958   6.213   2.345
  129TIP3    H2  333   7.892   6.277   2.225
  130TIP3   OH2  334   0.905   0.486   2.887
  130TIP3    H1  335   0.974   0.535   2.932
  130TIP3    H2  336   0.829   0.544   2.889
  131TIP3   OH2  337   3.789   1.395   1.465
  131TIP3    H1  338   3.708   1.436   1.435
  131TIP3    H2  339   3.779   1.303   1.442
  132TIP3   OH2  340   3.780   5.350   5.669
  132TIP3    H1  341   3.724   5.291   5.619
  132TIP3    H2  342   3.792   5.426   5.612
  133TIP3   OH2  343   0.255   7.528   5.922
  133TIP3    H1  344   0.290   7.613   5.895
  133TIP3    H2  345   0.330   7.482   5.958
  134TIP3   OH2  346   3.622   0.715   3.413
  134TIP3    H1  347   3.577   0.667   3.344
  134TIP3    H2  348   3.587   0.679   3.495
  135TIP3   OH2  349   6.878   6.443   5.704
  135TIP3    H1  350   6.973   6.437   5.703
  135TIP3    H2  351   6.848   6.385   5.634
  136TIP3   OH2  352   1.086   3.148   2.192
  136TIP3    H1  353   1.096   3.231   2.146
  136TIP3    H2  354   1.037   3.092   2.132
  137TIP3   OH2  355   1.338   4.721   0.310
  137TIP3    H1  356   1.339   4.636   0.264
  137TIP3    H2  357   1.400   4.775   0.262
  138TIP3   OH2  358   0.894   4.757   6.236
  138TIP3    H1  359   0.945   4.835   6.258
  138TIP3    H2  360   0.808   4.774   6.273
  139TIP3   OH2  361   5.200   1.730   5.631
  139TIP3    H1  362   5.160   1.771   5.707
  139TIP3    H2  363   5.247   1.655   5.666
  140TIP3   OH2  364   4.166   0.274   0.725
  140TIP3    H1  365   4.135   0.301   0.639
  140TIP3    H2  366   4.101   0.210   0.755
  141TIP3   OH2  367   3.081   2.447   1.601
  141TIP3    H1  368   3.119   2.531   1.575
  141TIP3    H2  369   3.125   2.425   1.683
  142TIP3   OH2  370   4.106   4.599   3.497
  142TIP3    H1  371   4.039   4.536   3.525
  142TIP3    H2  372   4.111   4.662   3.569
  143TIP3   OH2  373   6.158   2.932   4.485
  143TIP3    H1  374   6.132   3.014   4.442
  143TIP3    H2  375   6.136   2.947   4.577
  144TIP3   OH2  376   1.969   6.691   2.099
  144TIP3    H1  377   1.895   6.631   2.094
  144TIP3    H2  378   1.954   6.742   2.178
  145TIP3   OH2  379   5.945   5.140   3.786
  145TIP3    H1  380   5.982   5.052   3.793
  145TIP3    H2  381   5.973   5.171   3.701
  146TIP3   OH2  382   6.050   3.792   2.747
  146TIP3    H1  383   6.030   3.744   2.667
  146TIP3    H2  384   6.110   3.735   2.795
  147TIP3   OH2  385   1.580   2.045   3.243
  147TIP3    H1  386   1.573   1.963   3.194
  147TIP3    H2  387   1.624   2.019   3.325
  148TIP3   OH2  388   6.756   3.918   3.342
  148TIP3    H1  389   6.782   3.828   3.362
  148TIP3    H2  390   6.674   3.909   3.293
  149TIP3   OH2  391   1.617   6.612   0.406
  149TIP3    H1  392   1.539   6.572   0.367
  149TIP3    H2  393   1.690   6.581   0.351
  150TIP3   OH2  394   4.986   6.842   2.370
  150TIP3    H1  395   4.995   6.747   2.363
  150TIP3    H2  396   5.039   6.866   2.446
  151TIP3   OH2  397   0.407   5.279   4.600
  151TIP3    H1  398   0.452   5.196   4.589
  151TIP3    H2  399   0.477   5.343   4.615
  152TIP3   OH2  400   1.808   7.092   5.625
  152TIP3    H1  401   1.813   7.019   5.686
  152TIP3    H2  402   1.887   7.083   5.571
  153TIP3   OH2  403   5.860   6.768   1.307
  153TIP3    H1  404   5.791   6.735   1.364
  153TIP3    H2  405   5.930   6.704   1.312
  154TIP3   OH2  406   5.657   6.969   3.732
  154TIP3    H1  407   5.679   7.025   3.806
  154TIP3    H2  408   5.737   6.919   3.714
  155TIP3   OH2  409   6.220   7.779   0.145
  155TIP3    H1  410   6.179   7.803   0.228
  155TIP3    H2  411   6.269   7.700   0.165
  156TIP3   OH2  412   0.980   4.103   2.784
  156TIP3    H1  413   0.963   4.103   2.690
  156TIP3    H2  414   1.060   4.154   2.795
  157TIP3   OH2  415   2.870   2.258   0.729
  157TIP3    H1  416   2.879   2.349   0.702
  157TIP3    H2  417   2.957   2.221   0.719
  158TIP3   OH2  418   4.253   0.752   0.320
  158TIP3    H1  419   4.188   0.685   0.341
  158TIP3    H2  420   4.334   0.721   0.360
  159TIP3   OH2  421   2.625   4.024   6.520
  159TIP3    H1  422   2.559   3.957   6.539
  159TIP3    H2  423   2.692   3.978   6.469
  160TIP3   OH2  424   3.126   3.539   1.409
  160TIP3    H1  425   3.140   3.524   1.502
  160TIP3    H2  426   3.159   3.627   1.393
  161TIP3   OH2  427   1.981   0.285   6.466
  161TIP3    H1  428   2.067   0.287   6.509
  161TIP3    H2  429   1.971   0.373   6.430
  162TIP3   OH2  430   3.040   7.650   6.325
  162TIP3    H1  431   3.102   7.711   6.286
  162TIP3    H2  432   2.968   7.706   6.356
  163TIP3   OH2  433   0.492   2.192   2.606
  163TIP3    H1  434   0.458   2.136   2.537
  163TIP3    H2  435   0.426   2.187   2.676
  164TIP3   OH2  436   6.513   5.788   0.795
  164TIP3    H1  437   6.477   5.705   0.763
  164TIP3    H2  438   6.472   5.854   0.740
  165TIP3   OH2  439   4.769   2.469   5.161
  165TIP3    H1  440   4.713   2.547   5.166
  165TIP3    H2  441   4.717   2.406   5.112
  166TIP3   OH2  442   5.109   6.417   1.349
  166TIP3    H1  443   5.063   6.344   1.391
  166TIP3    H2  444   5.201   6.402   1.368
  167TIP3   OH2  445   6.274   3.331   5.254
  167TIP3    H1  446   6.310   3.334   5.165
  167TIP3    H2  447   6.217   3.408   5.259
  168TIP3   OH2  448   8.066   3.904   1.053
  168TIP3    H1  449   8.005   3.848   1.005
  168TIP3    H2  450   8.010   3.975   1.086
  169TIP3   OH2  451   6.394   3.267   2.035
  169TIP3    H1  452   6.440   3.183   2.040
  169TIP3    H2  453   6.464   3.332   2.041
  170TIP3   OH2  454   7.669   4.037   6.423
  170TIP3    H1  455   7.653   4.022   6.516
  170TIP3    H2  456   7.692   4.129   6.416
  171TIP3   OH2  457   3.152   4.898   6.311
  171TIP3    H1  458   3.133   4.909   6.218
  171TIP3    H2  459   3.131   4.806   6.329
  172TIP3   OH2  460   6.516   2.924   2.709
  172TIP3    H1  461   6.612   2.918   2.709
  172TIP3    H2  462   6.498   3.015   2.684
  173TIP3   OH2  463   3.192   5.222   5.160
  173TIP3    H1  464   3.256   5.163   5.201
  173TIP3    H2  465   3.123   5.233   5.225
  174TIP3   OH2  466   6.327   4.056   3.892
  174TIP3    H1  467   6.298   4.032   3.804
  174TIP3    H2  468   6.421   4.042   3.891
  175TIP3   OH2  469   3.903   7.325   3.688
  175TIP3    H1  470   3.923   7.247   3.635
  175TIP3    H2  471   3.847   7.292   3.758
  176TIP3   OH2  472   4.617   5.863   4.562
  176TIP3    H1  473   4.672   5.791   4.593
  176TIP3    H2  474   4.606   5.920   4.637
  177TIP3   OH2  475   3.191   0.578   4.884
  177TIP3    H1  476   3.214   0.663   4.921
  177TIP3    H2  477   3.267   0.522   4.903
  178TIP3   OH2  478   8.041   0.264   3.711
  178TIP3    H1  479   7.950   0.291   3.698
  178TIP3    H2  480   8.091   0.317   3.649
  179TIP3   OH2  481   0.555   6.692   4.483
  179TIP3    H1  482   0.476   6.644   4.503
  179TIP3    H2  483   0.591   6.649   4.406
  180TIP3   OH2  484   5.662   7.515   4.601
  180TIP3    H1  485   5.748   7.521   4.642
  180TIP3    H2  486   5.680   7.479   4.514
  181TIP3   OH2  487   8.153   6.740   3.071
  181TIP3    H1  488   8.195   6.668   3.025
  181TIP3    H2  489   8.208   6.756   3.148
  182TIP3   OH2  490   6.447   2.822   6.304
  182TIP3    H1  491   6.512   2.834   6.373
  182TIP3    H2  492   6.462   2.732   6.273
  183TIP3   OH2  493   7.382   1.639   0.856
  183TIP3    H1  494   7.343   1.641   0.769
  183TIP3    H2  495   7.430   1.722   0.863
  184TIP3   OH2  496   8.257   7.469   1.894
  184TIP3    H1  497   8.285   7.508   1.976
  184TIP3    H2  498   8.204   7.537   1.851
  185TIP3   OH2  499   3.461   5.186   0.601
  185TIP3    H1  500   3.499   5.109   0.644
  185TIP3    H2  501   3.420   5.235   0.671
  186TIP3   OH2  502   7.366   0.387   5.406
  186TIP3    H1  503   7.350   0.374   5.499
  186TIP3    H2  504   7.280   0.408   5.370
  187TIP3   OH2  505   3.810   6.968   3.559
  187TIP3    H1  506   3.843   7.045   3.512
  187TIP3    H2  507   3.738   7.003   3.613
  188TIP3   OH2  508   3.992   2.204   5.121
  188TIP3    H1  509   3.985   2.157   5.037
  188TIP3    H2  510   3.910   2.252   5.129
  189TIP3   OH2  511   2.939   2.574   0.462
  189TIP3    H1  512   2.999   2.543   0.529
  189TIP3    H2  513   2.867   2.614   0.512
  190TIP3   OH2  514   2.897   7.218   1.095
  190TIP3    H1  515   2.889   7.206   1.189
  190TIP3    H2  516   2.927   7.133   1.063
  191TIP3   OH2  517   5.343   0.188   6.688
  191TIP3    H1  518   5.416   0.146   6.733
  191TIP3    H2  519   5.357   0.169   6.596
  192TIP3   OH2  520   4.497   4.900   6.441
  192TIP3    H1  521   4.479   4.974   6.499
  192TIP3    H2  522   4.574   4.928   6.391
  193TIP3   OH2  523   6.169   6.247   0.447
  193TIP3    H1  524   6.209   6.167   0.479
  193TIP3    H2  525   6.175   6.241   0.352
  194TIP3   OH2  526   6.653   4.586   2.705
  194TIP3    H1  527   6.574   4.609   2.657
  194TIP3    H2  528   6.622   4.557   2.791
  195TIP3   OH2  529   6.634   7.516   1.062
  195TIP3    H1  530   6.551   7.561   1.047
  195TIP3    H2  531   6.649   7.467   0.981
  196TIP3   OH2  532   0.781   2.604   1.287
  196TIP3    H1  533   0.693   2.584   1.258
  196TIP3    H2  534   0.838   2.568   1.219
  197TIP3   OH2  535   1.970   0.179   1.067
  197TIP3    H1  536   1.897   0.186   1.128
  197TIP3    H2  537   2.010   0.266   1.067
  198TIP3   OH2  538   6.263   6.818   3.104
  198TIP3    H1  539   6.281   6.733   3.065
  198TIP3    H2  540   6.220   6.798   3.187
  199TIP3   OH2  541   3.464   3.202   1.476
  199TIP3    H1  542   3.379   3.171   1.445
  199TIP3    H2  543   3.445   3.259   1.549
  200TIP3   OH2  544   4.085   4.239   4.679
  200TIP3    H1  545   4.159   4.228   4.621
  200TIP3    H2  546   4.107   4.317   4.731
  201TIP3   OH2  547   0.403   5.875   6.108
  201TIP3    H1  548   0.460   5.829   6.046
  201TIP3    H2  549   0.436   5.848   6.194
  202TIP3   OH2  550   2.293   0.116   4.693
  202TIP3    H1  551   2.235   0.131   4.768
  202TIP3    H2  552   2.376   0.090   4.732
  203TIP3   OH2  553   1.045   5.457   2.150
  203TIP3    H1  554   1.130   5.480   2.115
  203TIP3    H2  555   1.040   5.504   2.234
  204TIP3   OH2  556   3.634   4.764   4.035
  204TIP3    H1  557   3.649   4.787   4.126
  204TIP3    H2  558   3.719   4.732   4.004
  205TIP3   OH2  559   1.576   5.689   2.068
  205TIP3    H1  560   1.638   5.617   2.053
  205TIP3    H2  561   1.494   5.645   2.091
  206TIP3   OH2  562   1.580   0.409   0.403
  206TIP3    H1  563   1.582   0.317   0.376
  206TIP3    H2  564   1.604   0.457   0.324
  207TIP3   OH2  565   3.646   5.527   6.771
  207TIP3    H1  566   3.723   5.534   6.714
  207TIP3    H2  567   3.590   5.463   6.727
  208TIP3   OH2  568   7.622   2.723   3.012
  208TIP3    H1  569   7.594   2.767   2.932
  208TIP3    H2  570   7.557   2.655   3.026
  209TIP3   OH2  571   3.478   4.045   2.134
  209TIP3    H1  572   3.485   3.988   2.210
  209TIP3    H2  573   3.404   4.009   2.084
  210TIP3   OH2  574   7.454   3.796   4.991
  210TIP3    H1  575   7.395   3.802   4.916
  210TIP3    H2  576   7.472   3.886   5.016
  211TIP3   OH2  577   7.975   4.624   0.041
  211TIP3    H1  578   7.990   4.531   0.057
  211TIP3    H2  579   7.956   4.661   0.128
  212TIP3   OH2  580   0.412   6.195   0.930
  212TIP3    H1  581   0.508   6.202   0.939
  212TIP3    H2  582   0.398   6.185   0.836
  213TIP3   OH2  583   5.162   5.968   1.659
  213TIP3    H1  584   5.091   6.022   1.624
  213TIP3    H2  585   5.238   5.989   1.604
  214TIP3   OH2  586   1.114   6.940   0.530
  214TIP3    H1  587   1.072   6.939   0.443
  214TIP3    H2  588   1.152   7.027   0.537
  215TIP3   OH2  589   7.726   5.395   1.818
  215TIP3    H1  590   7.780   5.453   1.763
  215TIP3    H2  591   7.731   5.434   1.906
  216TIP3   OH2  592   1.419   3.213   4.054
  216TIP3    H1  593   1.348   3.236   3.993
  216TIP3    H2  594   1.470   3.294   4.062
  217TIP3   OH2  595   1.957   5.931   4.363
  217TIP3    H1  596   2.045   5.940   4.327
  217TIP3    H2  597   1.968   5.880   4.443
  218TIP3   OH2  598   0.315   2.829   2.883
  218TIP3    H1  599   0.290   2.742   2.914
  218TIP3    H2  600   0.340   2.877   2.962
  219TIP3   OH2  601   3.528   3.755   2.829
  219TIP3    H1  602   3.620   3.761   2.855
  219TIP3    H2  603   3.488   3.700   2.897
  220TIP3   OH2  604   2.997   3.007   1.183
  220TIP3    H1  605   2.953   2.922   1.183
  220TIP3    H2  606   3.089   2.986   1.166
  221TIP3   OH2  607   6.969   1.073   1.928
  221TIP3    H1  608   6.973   1.071   2.024
  221TIP3    H2  609   7.017   1.153   1.905
  222TIP3   OH2  610   7.422   7.471   5.019
  222TIP3    H1  611   7.454   7.401   4.962
  222TIP3    H2  612   7.487   7.476   5.089
  223TIP3   OH2  613   6.154   7.524   4.753
  223TIP3    H1  614   6.071   7.508   4.797
  223TIP3    H2  615   6.128   7.552   4.665
  224TIP3   OH2  616   7.148   0.812   0.521
  224TIP3    H1  617   7.204   0.736   0.538
  224TIP3    H2  618   7.155   0.865   0.600
  225TIP3   OH2  619   6.065   2.225   3.823
  225TIP3    H1  620   6.019   2.224   3.739
  225TIP3    H2  621   6.044   2.140   3.862
  226TIP3   OH2  622   2.144   7.023   4.674
  226TIP3    H1  623   2.144   7.061   4.586
  226TIP3    H2  624   2.231   7.044   4.709
  227TIP3   OH2  625   2.551   1.600   1.791
  227TIP3    H1  626   2.461   1.633   1.794
  227TIP3    H2  627   2.543   1.505   1.798
  228TIP3   OH2  628   3.701   0.064   3.880
  228TIP3    H1  629   3.650   0.025   3.951
  228TIP3    H2  630   3.696   0.158   3.897
  229TIP3   OH2  631   0.914   1.875   3.566
  229TIP3    H1  632   1.010   1.878   3.562
  229TIP3    H2  633   0.890   1.950   3.620
  230TIP3   OH2  634   7.409   3.574   2.265
  230TIP3    H1  635   7.416   3.653   2.211
  230TIP3    H2  636   7.391   3.607   2.353
  231TIP3   OH2  637   4.111   3.782   5.163
  231TIP3    H1  638   4.163   3.851   5.203
  231TIP3    H2  639   4.038   3.769   5.224
  232TIP3   OH2  640   3.065   3.647   3.021
  232TIP3    H1  641   3.105   3.641   2.934
  232TIP3    H2  642   2.981   3.602   3.010
  233TIP3   OH2  643   3.599   2.666   6.304
  233TIP3    H1  644   3.663   2.734   6.327
  233TIP3    H2  645   3.579   2.682   6.211
  234TIP3   OH2  646   3.310   1.258   5.002
  234TIP3    H1  647   3.268   1.237   5.086
  234TIP3    H2  648   3.395   1.296   5.027
  235TIP3   OH2  649   3.303   1.649   1.512
  235TIP3    H1  650   3.379   1.643   1.570
  235TIP3    H2  651   3.316   1.729   1.462
  236TIP3   OH2  652   5.103   3.712   2.513
  236TIP3    H1  653   5.058   3.708   2.429
  236TIP3    H2  654   5.099   3.623   2.547
  237TIP3   OH2  655   5.020   6.122   4.032
  237TIP3    H1  656   5.039   6.072   4.111
  237TIP3    H2  657   4.937   6.166   4.051
  238TIP3   OH2  658   2.571   4.246   3.698
  238TIP3    H1  659   2.541   4.310   3.763
  238TIP3    H2  660   2.651   4.208   3.735
  239TIP3   OH2  661   6.079   6.711   2.298
  239TIP3    H1  662   6.040   6.629   2.267
  239TIP3    H2  663   6.011   6.776   2.287
  240TIP3   OH2  664   2.231   3.284   4.201
  240TIP3    H1  665   2.165   3.276   4.270
  240TIP3    H2  666   2.208   3.218   4.137
  241TIP3   OH2  667   5.066   1.689   6.738
  241TIP3    H1  668   4.988   1.637   6.720
  241TIP3    H2  669   5.062   1.707   6.832
  242TIP3   OH2  670   7.403   0.028   2.791
  242TIP3    H1  671   7.328   0.082   2.815
  242TIP3    H2  672   7.367  -0.061   2.784
  243TIP3   OH2  673   2.967   7.346   0.610
  243TIP3    H1  674   3.049   7.333   0.656
  243TIP3    H2  675   2.905   7.373   0.678
  244TIP3   OH2  676   2.418   1.262   1.565
  244TIP3    H1  677   2.403   1.191   1.627
  244TIP3    H2  678   2.508   1.251   1.537
  245TIP3   OH2  679   2.224   2.629   6.285
  245TIP3    H1  680   2.304   2.648   6.237
  245TIP3    H2  681   2.254   2.594   6.369
  246TIP3   OH2  682   6.969   5.410   5.128
  246TIP3    H1  683   7.026   5.337   5.150
  246TIP3    H2  684   7.022   5.467   5.073
  247TIP3   OH2  685   7.827   1.172   1.554
  247TIP3    H1  686   7.913   1.214   1.547
  247TIP3    H2  687   7.773   1.236   1.601
  248TIP3   OH2  688   2.452   1.320   2.488
  248TIP3    H1  689   2.491   1.343   2.573
  248TIP3    H2  690   2.386   1.254   2.509
  249TIP3   OH2  691   1.365   1.978   4.407
  249TIP3    H1  692   1.446   2.029   4.415
  249TIP3    H2  693   1.323   2.011   4.328
  250TIP3   OH2  694   3.169   1.200   5.984
  250TIP3    H1  695   3.152   1.273   5.925
  250TIP3    H2  696   3.259   1.212   6.013
  251TIP3   OH2  697   2.025   2.931   5.209
  251TIP3    H1  698   2.097   2.905   5.266
  251TIP3    H2  699   2.006   2.852   5.158
  252TIP3   OH2  700   7.811   4.329   2.111
  252TIP3    H1  701   7.843   4.317   2.021
  252TIP3    H2  702   7.891   4.331   2.164
  253TIP3   OH2  703   2.185   2.678   0.464
  253TIP3    H1  704   2.278   2.665   0.485
  253TIP3    H2  705   2.174   2.773   0.461
  254TIP3   OH2  706   2.370   5.061   5.357
  254TIP3    H1  707   2.348   4.995   5.291
  254TIP3    H2  708   2.316   5.038   5.432
  255TIP3   OH2  709   6.021   0.837   3.655
  255TIP3    H1  710   5.937   0.834   3.701
  255TIP3    H2  711   6.025   0.754   3.607
  256TIP3   OH2  712   5.365   5.169   1.672
  256TIP3    H1  713   5.423   5.186   1.746
  256TIP3    H2  714   5.412   5.207   1.597
  257TIP3   OH2  715   1.906   0.997   2.586
  257TIP3    H1  716   1.877   1.051   2.512
  257TIP3    H2  717   1.888   1.050   2.663
  258TIP3   OH2  718   2.126   0.234   6.183
  258TIP3    H1  719   2.144   0.225   6.276
  258TIP3    H2  720   2.211   0.255   6.144
  259TIP3   OH2  721   5.017   7.191   6.672
  259TIP3    H1  722   5.030   7.229   6.759
  259TIP3    H2  723   5.010   7.097   6.688
  260TIP3   OH2  724   2.624   2.611   6.299
  260TIP3    H1  725   2.562   2.660   6.245
  260TIP3    H2  726   2.675   2.559   6.237
  261TIP3   OH2  727   7.123   3.197   4.855
  261TIP3    H1  728   7.215   3.222   4.844
  261TIP3    H2  729   7.074   3.274   4.824
  262TIP3   OH2  730   2.247   4.829   0.455
  262TIP3    H1  731   2.180   4.826   0.387
  262TIP3    H2  732   2.259   4.922   0.474
  263TIP3   OH2  733   5.253   1.743   1.888
  263TIP3    H1  734   5.268   1.836   1.872
  263TIP3    H2  735   5.335   1.712   1.927
  264TIP3   OH2  736   2.531   1.360   6.781
  264TIP3    H1  737   2.485   1.352   6.697
  264TIP3    H2  738   2.463   1.385   6.844
  265TIP3   OH2  739   1.572   7.024   5.468
  265TIP3    H1  740   1.648   7.052   5.519
  265TIP3    H2  741   1.607   7.003   5.382
  266TIP3   OH2  742   3.809   5.129   1.753
  266TIP3    H1  743   3.882   5.138   1.814
  266TIP3    H2  744   3.790   5.219   1.724
  267TIP3   OH2  745   0.455   0.961   3.289
  267TIP3    H1  746   0.493   1.046   3.312
  267TIP3    H2  747   0.466   0.908   3.367
  268TIP3   OH2  748   6.302   3.027   5.031
  268TIP3    H1  749   6.356   3.036   5.109
  268TIP3    H2  750   6.222   3.075   5.052
  269TIP3   OH2  751   6.747   6.416   2.807
  269TIP3    H1  752   6.843   6.413   2.803
  269TIP3    H2  753   6.728   6.497   2.853
  270TIP3   OH2  754   7.716   3.154   3.181
  270TIP3    H1  755   7.717   3.072   3.231
  270TIP3    H2  756   7.664   3.133   3.103
  271TIP3   OH2  757   1.953   7.489   5.907
  271TIP3    H1  758   2.009   7.429   5.957
  271TIP3    H2  759   1.908   7.432   5.844
  272TIP3   OH2  760   5.760   0.482   6.217
  272TIP3    H1  761   5.743   0.498   6.310
  272TIP3    H2  762   5.692   0.531   6.172
  273TIP3   OH2  763   3.140   6.049   4.097
  273TIP3    H1  764   3.148   6.025   4.005
  273TIP3    H2  765   3.229   6.067   4.126
  274TIP3   OH2  766   6.989   1.670   4.240
  274TIP3    H1  767   6.896   1.683   4.262
  274TIP3    H2  768   6.995   1.578   4.217
  275TIP3   OH2  769   5.112   5.822   5.162
  275TIP3    H1  770   5.153   5.767   5.229
  275TIP3    H2  771   5.020   5.796   5.164
  276TIP3   OH2  772   3.934   5.689   4.489
  276TIP3    H1  773   3.878   5.613   4.501
  276TIP3    H2  774   3.939   5.729   4.576
  277TIP3   OH2  775   3.578   1.811   6.380
  277TIP3    H1  776   3.585   1.801   6.285
  277TIP3    H2  777   3.629   1.890   6.400
  278TIP3   OH2  778   6.860   5.899   2.796
  278TIP3    H1  779   6.847   5.829   2.732
  278TIP3    H2  780   6.824   5.977   2.754
  279TIP3   OH2  781   5.629   6.591   6.727
  279TIP3    H1  782   5.594   6.531   6.661
  279TIP3    H2  783   5.659   6.667   6.677
  280TIP3   OH2  784   3.767   7.027   2.543
  280TIP3    H1  785   3.861   7.040   2.542
  280TIP3    H2  786   3.755   6.935   2.518
  281TIP3   OH2  787   4.638   0.765   5.322
  281TIP3    H1  788   4.546   0.776   5.348
  281TIP3    H2  789   4.659   0.847   5.277
  282TIP3   OH2  790   1.551   0.852   1.688
  282TIP3    H1  791   1.463   0.816   1.683
  282TIP3    H2  792   1.600   0.788   1.741
  283TIP3   OH2  793   5.084   3.874   2.090
  283TIP3    H1  794   5.068   3.894   1.998
  283TIP3    H2  795   4.998   3.849   2.124
  284TIP3   OH2  796   1.882   1.764   5.802
  284TIP3    H1  797   1.826   1.749   5.879
  284TIP3    H2  798   1.829   1.733   5.728
  285TIP3   OH2  799   5.368   0.010   4.722
  285TIP3    H1  800   5.319  -0.008   4.641
  285TIP3    H2  801   5.434   0.074   4.696
  286TIP3   OH2  802   2.859   2.261   4.286
  286TIP3    H1  803   2.860   2.168   4.311
  286TIP3    H2  804   2.896   2.262   4.198
  287TIP3   OH2  805   2.076   1.209   5.527
  287TIP3    H1  806   2.041   1.134   5.478
  287TIP3    H2  807   2.027   1.284   5.493
  288TIP3   OH2  808   4.854   6.182   0.968
  288TIP3    H1  809   4.823   6.103   0.923
  288TIP3    H2  810   4.813   6.254   0.921
  289TIP3   OH2  811   1.838   6.434   5.933
  289TIP3    H1  812   1.867   6.451   5.843
  289TIP3    H2  813   1.918   6.438   5.985
  290TIP3   OH2  814   0.081   2.986   2.801
  290TIP3    H1  815   0.018   2.925   2.838
  290TIP3    H2  816   0.166   2.943   2.813
  291TIP3   OH2  817   0.433   4.943   3.136
  291TIP3    H1  818   0.461   4.855   3.163
  291TIP3    H2  819   0.440   4.996   3.215
  292TIP3   OH2  820   3.863   3.479   6.440
  292TIP3    H1  821   3.945   3.491   6.392
  292TIP3    H2  822   3.875   3.530   6.520
  293TIP3   OH2  823   8.325   3.103   5.413
  293TIP3    H1  824   8.318   3.026   5.470
  293TIP3    H2  825   8.261   3.088   5.344
  294TIP3   OH2  826   6.283   0.637   4.552
  294TIP3    H1  827   6.244   0.568   4.499
  294TIP3    H2  828   6.374   0.609   4.565
  295TIP3   OH2  829   3.405   6.468   3.315
  295TIP3    H1  830   3.366   6.384   3.340
  295TIP3    H2  831   3.365   6.488   3.230
  296TIP3   OH2  832   4.890   3.332   2.196
  296TIP3    H1  833   4.860   3.327   2.287
  296TIP3    H2  834   4.859   3.417   2.165
  297TIP3   OH2  835   6.754   6.155   0.299
  297TIP3    H1  836   6.818   6.216   0.334
  297TIP3    H2  837   6.750   6.175   0.205
  298TIP3   OH2  838   8.198   1.879   1.782
  298TIP3    H1  839   8.263   1.934   1.738
  298TIP3    H2  840   8.249   1.822   1.840
  299TIP3   OH2  841   7.074   4.728   4.713
  299TIP3    H1  842   7.167   4.750   4.723
  299TIP3    H2  843   7.071   4.668   4.638
  300TIP3   OH2  844   5.966   6.585   6.540
  300TIP3    H1  845   5.998   6.543   6.620
  300TIP3    H2  846   5.887   6.534   6.518
  301TIP3   OH2  847   7.477   4.305   6.279
  301TIP3    H1  848   7.413   4.251   6.326
  301TIP3    H2  849   7.423   4.366   6.228
  302TIP3   OH2  850   3.508   4.779   1.853
  302TIP3    H1  851   3.549   4.847   1.799
  302TIP3    H2  852   3.448   4.734   1.793
  303TIP3   OH2  853   4.871   3.906   4.028
  303TIP3    H1  854   4.788   3.872   4.062
  303TIP3    H2  855   4.864   4.001   4.037
  304TIP3   OH2  856   5.754   5.313   4.560
  304TIP3    H1  857   5.662   5.329   4.539
  304TIP3    H2  858   5.795   5.293   4.476
  305TIP3   OH2  859   1.254   5.452   2.861
  305TIP3    H1  860   1.311   5.526   2.881
  305TIP3    H2  861   1.314   5.385   2.826
  306TIP3   OH2  862   3.249   3.860   5.127
  306TIP3    H1  863   3.252   3.951   5.157
  306TIP3    H2  864   3.197   3.863   5.047
  307TIP3   OH2  865   1.683   5.863   6.262
  307TIP3    H1  866   1.667   5.955   6.243
  307TIP3    H2  867   1.727   5.863   6.347
  308TIP3   OH2  868   8.091   0.269   5.505
  308TIP3    H1  869   8.033   0.343   5.522
  308TIP3    H2  870   8.043   0.193   5.539
  309TIP3   OH2  871   3.150   4.748   3.817
  309TIP3    H1  872   3.133   4.841   3.832
  309TIP3    H2  873   3.103   4.727   3.737
  310TIP3   OH2  874   1.787   7.412   2.772
  310TIP3    H1  875   1.764   7.340   2.831
  310TIP3    H2  876   1.852   7.375   2.713
  311TIP3   OH2  877   6.208   5.153   6.431
  311TIP3    H1  878   6.256   5.103   6.497
  311TIP3    H2  879   6.262   5.148   6.352
  312TIP3   OH2  880   7.369   3.737   3.595
  312TIP3    H1  881   7.448   3.791   3.593
  312TIP3    H2  882   7.363   3.699   3.507
  313TIP3   OH2  883   3.399   1.232   2.923
  313TIP3    H1  884   3.436   1.235   3.012
  313TIP3    H2  885   3.309   1.202   2.935
  314TIP3   OH2  886   8.236   7.596   1.516
  314TIP3    H1  887   8.209   7.511   1.481
  314TIP3    H2  888   8.156   7.635   1.549
  315TIP3   OH2  889   6.519   6.063   5.952
  315TIP3    H1  890   6.481   6.129   5.894
  315TIP3    H2  891   6.499   6.095   6.040
  316TIP3   OH2  892   5.783   4.238   3.550
  316TIP3    H1  893   5.867   4.255   3.593
  316TIP3    H2  894   5.725   4.306   3.582
  317TIP3   OH2  895   1.129   5.266   4.710
  317TIP3    H1  896   1.106   5.175   4.729
  317TIP3    H2  897   1.224   5.266   4.707
  318TIP3   OH2  898   2.075   4.882   5.955
  318TIP3    H1  899   1.987   4.846   5.952
  318TIP3    H2  900   2.087   4.910   6.046
  319TIP3   OH2  901   7.170   1.818   5.399
  319TIP3    H1  902   7.257   1.856   5.386
  319TIP3    H2  903   7.115   1.894   5.420
  320TIP3   OH2  904   3.126   1.757   0.874
  320TIP3    H1  905   3.187   1.738   0.946
  320TIP3    H2  906   3.178   1.808   0.812
  321TIP3   OH2  907   5.951   0.584   3.548
  321TIP3    H1  908   5.952   0.541   3.462
  321TIP3    H2  909   5.860   0.609   3.562
  322TIP3   OH2  910   4.779   0.993   1.286
  322TIP3    H1  911   4.798   0.904   1.316
  322TIP3    H2  912   4.862   1.039   1.292
  323TIP3   OH2  913   5.018   0.943   0.894
  323TIP3    H1  914   5.046   0.957   0.804
  323TIP3    H2  915   5.065   0.865   0.922
  324TIP3   OH2  916   6.172   4.259   1.837
  324TIP3    H1  917   6.123   4.274   1.918
  324TIP3    H2  918   6.259   4.231   1.866
  325TIP3   OH2  919   7.817   0.698   5.233
  325TIP3    H1  920   7.873   0.621   5.233
  325TIP3    H2  921   7.831   0.738   5.147
  326TIP3   OH2  922   7.304   7.617   5.660
  326TIP3    H1  923   7.368   7.633   5.591
  326TIP3    H2  924   7.251   7.696   5.663
  327TIP3   OH2  925   0.244  -0.032   0.506
  327TIP3    H1  926   0.165  -0.013   0.557
  327TIP3    H2  927   0.267   0.051   0.466
  328TIP3   OH2  928   1.600   0.768   1.247
  328TIP3    H1  929   1.641   0.828   1.185
  328TIP3    H2  930   1.624   0.802   1.333
  329TIP3   OH2  931   6.351   7.174   6.416
  329TIP3    H1  932   6.307   7.117   6.353
  329TIP3    H2  933   6.349   7.261   6.375
  330TIP3   OH2  934   4.653   6.720   6.235
  330TIP3    H1  935   4.607   6.668   6.169
  330TIP3    H2  936   4.603   6.707   6.315
  331TIP3   OH2  937   1.168   4.601   3.170
  331TIP3    H1  938   1.078   4.633   3.178
  331TIP3    H2  939   1.207   4.617   3.257
  332TIP3   OH2  940   3.133   3.025   3.537
  332TIP3    H1  941   3.185   3.095   3.576
  332TIP3    H2  942   3.123   3.051   3.445
  333TIP3   OH2  943   6.178   1.632   4.070
  333TIP3    H1  944   6.151   1.723   4.083
  333TIP3    H2  945   6.274   1.635   4.074
  334TIP3   OH2  946   3.503   4.404   0.757
  334TIP3    H1  947   3.433   4.457   0.796
  334TIP3    H2  948   3.538   4.460   0.687
  335TIP3   OH2  949   2.732   4.235   5.598
  335TIP3    H1  950   2.818   4.228   5.638
  335TIP3    H2  951   2.748   4.221   5.504
  336TIP3   OH2  952   0.686   6.246   0.973
  336TIP3    H1  953   0.704   6.339   0.955
  336TIP3    H2  954   0.689   6.240   1.069
  337TIP3   OH2  955   1.513   7.132   3.503
  337TIP3    H1  956   1.490   7.047   3.541
  337TIP3    H2  957   1.609   7.131   3.498
  338TIP3   OH2  958   3.714   3.082   0.141
  338TIP3    H1  959   3.749   3.002   0.101
  338TIP3    H2  960   3.745   3.153   0.084
  339TIP3   OH2  961   6.074   3.370   4.583
  339TIP3    H1  962   6.123   3.349   4.662
  339TIP3    H2  963   6.119   3.446   4.546
  340TIP3   OH2  964   5.864   5.099   3.270
  340TIP3    H1  965   5.877   5.165   3.202
  340TIP3    H2  966   5.938   5.111   3.330
  341TIP3   OH2  967   2.817   1.068   6.377
  341TIP3    H1  968   2.896   1.121   6.370
  341TIP3    H2  969   2.752   1.127   6.416
  342TIP3   OH2  970   4.591   7.192   1.027
  342TIP3    H1  971   4.540   7.273   1.038
  342TIP3    H2  972   4.526   7.126   1.001
  343TIP3   OH2  973   3.442   3.588   1.013
  343TIP3    H1  974   3.430   3.505   0.967
  343TIP3    H2  975   3.395   3.577   1.096
  344TIP3   OH2  976   1.399   5.252   2.678
  344TIP3    H1  977   1.355   5.301   2.608
  344TIP3    H2  978   1.489   5.245   2.649
  345TIP3   OH2  979   6.878   1.904   0.292
  345TIP3    H1  980   6.916   1.818   0.310
  345TIP3    H2  981   6.881   1.912   0.197
  346TIP3   OH2  982   4.820   3.808   0.039
  346TIP3    H1  983   4.728   3.830   0.047
  346TIP3    H2  984   4.863   3.891   0.018
  347TIP3   OH2  985   1.700   3.873   5.511
  347TIP3    H1  986   1.663   3.961   5.508
  347TIP3    H2  987   1.627   3.815   5.490
  348TIP3   OH2  988   4.029   5.450   1.658
  348TIP3    H1  989   4.011   5.463   1.751
  348TIP3    H2  990   3.966   5.506   1.613
  349TIP3   OH2  991   5.874   1.380   3.643
  349TIP3    H1  992   5.859   1.291   3.612
  349TIP3    H2  993   5.936   1.417   3.580
  350TIP3   OH2  994   3.612   6.044   2.772
  350TIP3    H1  995   3.699   6.030   2.812
  350TIP3    H2  996   3.552   5.997   2.830
  351TIP3   OH2  997   6.348   6.591   2.973
  351TIP3    H1  998   6.351   6.496   2.961
  351TIP3    H2  999   6.395   6.626   2.898
  352TIP3   OH2 1000   1.939   1.601   3.209
  352TIP3    H1 1001   1.989   1.526   3.242
  352TIP3    H2 1002   1.974   1.676   3.257
  353TIP3   OH2 1003   6.770   5.898   5.869
  353TIP3    H1 1004   6.837   5.962   5.846
  353TIP3    H2 1005   6.816   5.814   5.868
  354TIP3   OH2 1006   8.059   2.491   4.389
  354TIP3    H1 1007   7.995   2.425   4.364
  354TIP3    H2 1008   8.038   2.568   4.336
  355TIP3   OH2 1009   1.258   6.387   4.442
  355TIP3    H1 1010   1.346   6.391   4.480
  355TIP3    H2 1011   1.200   6.385   4.518
  356TIP3   OH2 1012   0.780   0.550   1.006
  356TIP3    H1 1013   0.781   0.576   0.914
  356TIP3    H2 1014   0.781   0.632   1.054
  357TIP3   OH2 1015   1.233   6.062   1.692
  357TIP3    H1 1016   1.166   6.077   1.759
  357TIP3    H2 1017   1.275   6.148   1.681
  358TIP3   OH2 1018   2.699   7.132   0.205
  358TIP3    H1 1019   2.687   7.056   0.261
  358TIP3    H2 1020   2.767   7.184   0.249
  359TIP3   OH2 1021   5.655   7.418   3.515
  359TIP3    H1 1022   5.618   7.429   3.427
  359TIP3    H2 1023   5.611   7.341   3.550
  360TIP3   OH2 1024   2.278   7.577   3.383
  360TIP3    H1 1025   2.341   7.647   3.368
  360TIP3    H2 1026   2.222   7.609   3.454
  361TIP3   OH2 1027   2.550   3.962   2.626
  361TIP3    H1 1028   2.485   4.002   2.684
  361TIP3    H2 1029   2.600   4.036   2.592
  362TIP3   OH2 1030   3.180   3.696   2.388
  362TIP3    H1 1031   3.179   3.654   2.302
  362TIP3    H2 1032   3.195   3.788   2.369
  363TIP3   OH2 1033   2.310   0.680   1.928
  363TIP3    H1 1034   2.372   0.698   1.856
  363TIP3    H2 1035   2.291   0.765   1.966
  364TIP3   OH2 1036   6.048   5.045   3.471
  364TIP3    H1 1037   6.050   4.951   3.491
  364TIP3    H2 1038   6.140   5.066   3.452
  365TIP3   OH2 1039   0.518   6.364   2.657
  365TIP3    H1 1040   0.449   6.347   2.721
  365TIP3    H2 1041   0.481   6.431   2.600
  366TIP3   OH2 1042   2.687   7.543   4.453
  366TIP3    H1 1043   2.718   7.632   4.471
  366TIP3    H2 1044   2.765   7.488   4.461
  367TIP3   OH2 1045   3.230   6.166   5.791
  367TIP3    H1 1046   3.223   6.071   5.800
  367TIP3    H2 1047   3.151   6.200   5.834
  368TIP3   OH2 1048   8.305   3.365   0.487
  368TIP3    H1 1049   8.302   3.293   0.549
  368TIP3    H2 1050   8.213   3.384   0.468
  369TIP3   OH2 1051   0.364   3.629   0.758
  369TIP3    H1 1052   0.357   3.548   0.709
  369TIP3    H2 1053   0.442   3.672   0.722
  370TIP3   OH2 1054   2.015   5.589   4.362
  370TIP3    H1 1055   2.040   5.509   4.408
  370TIP3    H2 1056   2.004   5.654   4.430
  371TIP3   OH2 1057   7.578   4.408   1.989
  371TIP3    H1 1058   7.562   4.495   2.025
  371TIP3    H2 1059   7.654   4.376   2.037
  372TIP3   OH2 1060   0.481   7.366   4.661
  372TIP3    H1 1061   0.447   7.308   4.730
  372TIP3    H2 1062   0.534   7.431   4.708
  373TIP3   OH2 1063   4.973   2.141   6.651
  373TIP3    H1 1064   5.067   2.160   6.653
  373TIP3    H2 1065   4.940   2.173   6.735
  374TIP3   OH2 1066   5.507   3.909   6.082
  374TIP3    H1 1067   5.547   3.917   5.996
  374TIP3    H2 1068   5.480   3.817   6.088
  375TIP3   OH2 1069   5.301   0.681   6.542
  375TIP3    H1 1070   5.378   0.657   6.593
  375TIP3    H2 1071   5.233   0.698   6.607
  376TIP3   OH2 1072   7.997   1.836   5.077
  376TIP3    H1 1073   8.053   1.808   5.005
  376TIP3    H2 1074   8.052   1.892   5.131
  377TIP3   OH2 1075   2.376   6.875   3.233
  377TIP3    H1 1076   2.465   6.844   3.248
  377TIP3    H2 1077   2.375   6.964   3.266
  378TIP3   OH2 1078   3.405   1.495   1.326
  378TIP3    H1 1079   3.385   1.547   1.404
  378TIP3    H2 1080   3.484   1.536   1.289
  379TIP3   OH2 1081   0.061   0.652   1.529
  379TIP3    H1 1082   0.141   0.612   1.564
  379TIP3    H2 1083   0.092   0.715   1.464
  380TIP3   OH2 1084   1.934   6.796   4.585
  380TIP3    H1 1085   1.949   6.886   4.557
  380TIP3    H2 1086   1.929   6.801   4.680
  381TIP3   OH2 1087   1.231   4.745   4.616
  381TIP3    H1 1088   1.251   4.686   4.690
  381TIP3    H2 1089   1.184   4.690   4.554
  382TIP3   OH2 1090   5.972   4.600   1.714
  382TIP3    H1 1091   6.021   4.564   1.788
  382TIP3    H2 1092   6.020   4.571   1.637
  383TIP3   OH2 1093   2.278   4.081   6.610
  383TIP3    H1 1094   2.281   4.058   6.517
  383TIP3    H2 1095   2.312   4.004   6.655
  384TIP3   OH2 1096   6.252   5.335   4.660
  384TIP3    H1 1097   6.171   5.380   4.686
  384TIP3    H2 1098   6.291   5.307   4.742
  385TIP3   OH2 1099   2.354   4.316   0.159
  385TIP3    H1 1100   2.448   4.309   0.176
  385TIP3    H2 1101   2.313   4.289   0.241
  386TIP3   OH2 1102   4.251   2.531   1.591
  386TIP3    H1 1103   4.340   2.565   1.583
  386TIP3    H2 1104   4.259   2.439   1.564
  387TIP3   OH2 1105   5.048   6.276   1.827
  387TIP3    H1 1106   5.028   6.314   1.912
  387TIP3    H2 1107   4.987   6.203   1.817
  388TIP3   OH2 1108   6.213   5.455   2.519
  388TIP3    H1 1109   6.286   5.495   2.471
  388TIP3    H2 1110   6.180   5.387   2.460
  389TIP3   OH2 1111   3.829   1.115   6.660
  389TIP3    H1 1112   3.813   1.119   6.755
  389TIP3    H2 1113   3.920   1.144   6.650
  390TIP3   OH2 1114   7.556   5.867   4.962
  390TIP3    H1 1115   7.553   5.897   4.871
  390TIP3    H2 1116   7.521   5.940   5.012
  391TIP3   OH2 1117   3.535   3.156   5.484
  391TIP3    H1 1118   3.520   3.063   5.502
  391TIP3    H2 1119   3.448   3.196   5.489
  392TIP3   OH2 1120   1.523   3.105   1.262
  392TIP3    H1 1121   1.588   3.039   1.235
  392TIP3    H2 1122   1.462   3.110   1.188
  393TIP3   OH2 1123   3.186   1.705   3.589
  393TIP3    H1 1124   3.179   1.768   3.661
  393TIP3    H2 1125   3.275   1.671   3.595
  394TIP3   OH2 1126   6.261   7.333   4.929
  394TIP3    H1 1127   6.233   7.378   4.849
  394TIP3    H2 1128   6.229   7.390   5.000
  395TIP3   OH2 1129   3.400   4.843   1.538
  395TIP3    H1 1130   3.474   4.851   1.598
  395TIP3    H2 1131   3.415   4.762   1.491
  396TIP3   OH2 1132   7.959   1.151   2.732
  396TIP3    H1 1133   8.044   1.186   2.758
  396TIP3    H2 1134   7.907   1.151   2.812
  397TIP3   OH2 1135   2.915   5.823   4.156
  397TIP3    H1 1136   2.840   5.872   4.191
  397TIP3    H2 1137   2.977   5.891   4.130
  398TIP3   OH2 1138   7.227   1.542   3.803
  398TIP3    H1 1139   7.196   1.504   3.721
  398TIP3    H2 1140   7.194   1.631   3.803
  399TIP3   OH2 1141   2.066   6.143   1.923
  399TIP3    H1 1142   2.150   6.168   1.885
  399TIP3    H2 1143   2.006   6.139   1.849
  400TIP3   OH2 1144   6.299   6.316   1.429
  400TIP3    H1 1145   6.204   6.316   1.423
  400TIP3    H2 1146   6.320   6.245   1.490
  401TIP3   OH2 1147   2.154   0.206   5.817
  401TIP3    H1 1148   2.176   0.201   5.910
  401TIP3    H2 1149   2.079   0.147   5.808
  402TIP3   OH2 1150   5.688   6.045   6.659
  402TIP3    H1 1151   5.762   5.986   6.643
  402TIP3    H2 1152   5.721   6.110   6.720
  403TIP3   OH2 1153   0.723   6.115   3.913
  403TIP3    H1 1154   0.645   6.131   3.860
  403TIP3    H2 1155   0.732   6.020   3.915
  404TIP3   OH2 1156   5.097   5.106   4.727
  404TIP3    H1 1157   5.084   5.011   4.734
  404TIP3    H2 1158   5.118   5.133   4.817
  405TIP3   OH2 1159   0.680   5.835   2.282
  405TIP3    H1 1160   0.634   5.911   2.318
  405TIP3    H2 1161   0.720   5.793   2.358
  406TIP3   OH2 1162   7.749   3.347   4.698
  406TIP3    H1 1163   7.716   3.327   4.785
  406TIP3    H2 1164   7.671   3.371   4.647
  407TIP3   OH2 1165   5.015   6.549   4.712
  407TIP3    H1 1166   4.963   6.477   4.749
  407TIP3    H2 1167   5.104   6.532   4.742
  408TIP3   OH2 1168   3.817   1.571   3.241
  408TIP3    H1 1169   3.759   1.599   3.171
  408TIP3    H2 1170   3.843   1.652   3.285
  409TIP3   OH2 1171   3.307   6.583   6.165
  409TIP3    H1 1172   3.320   6.651   6.232
  409TIP3    H2 1173   3.369   6.514   6.189
  410TIP3   OH2 1174   5.508   0.781   2.873
  410TIP3    H1 1175   5.526   0.854   2.813
  410TIP3    H2 1176   5.512   0.703   2.817
  411TIP3   OH2 1177   5.403   4.386   3.129
  411TIP3    H1 1178   5.382   4.462   3.075
  411TIP3    H2 1179   5.403   4.313   3.068
  412TIP3   OH2 1180   4.068   7.038   6.679
  412TIP3    H1 1181   4.051   6.944   6.678
  412TIP3    H2 1182   4.028   7.068   6.760
  413TIP3   OH2 1183   4.464   0.118   2.663
  413TIP3    H1 1184   4.389   0.155   2.708
  413TIP3    H2 1185   4.472   0.029   2.697
  414TIP3   OH2 1186   3.592   4.571   0.156
  414TIP3    H1 1187   3.560   4.513   0.224
  414TIP3    H2 1188   3.550   4.655   0.174
  415TIP3   OH2 1189   1.937   1.596   6.186
  415TIP3    H1 1190   2.018   1.598   6.135
  415TIP3    H2 1191   1.875   1.648   6.136
  416TIP3   OH2 1192   4.587   1.872   4.791
  416TIP3    H1 1193   4.560   1.784   4.815
  416TIP3    H2 1194   4.683   1.867   4.785
  417TIP3   OH2 1195   6.270   5.389   5.778
  417TIP3    H1 1196   6.195   5.350   5.733
  417TIP3    H2 1197   6.343   5.332   5.757
  418TIP3   OH2 1198   5.712   4.060   4.359
  418TIP3    H1 1199   5.674   4.113   4.289
  418TIP3    H2 1200   5.673   3.973   4.347
  419TIP3   OH2 1201   7.592   6.984   2.260
  419TIP3    H1 1202   7.569   6.991   2.167
  419TIP3    H2 1203   7.647   7.061   2.277
  420TIP3   OH2 1204   7.222   3.712   1.366
  420TIP3    H1 1205   7.219   3.764   1.286
  420TIP3    H2 1206   7.304   3.737   1.409
  421TIP3   OH2 1207   7.464   1.397   0.925
  421TIP3    H1 1208   7.445   1.485   0.894
  421TIP3    H2 1209   7.557   1.398   0.946
  422TIP3   OH2 1210   5.994   5.079   0.864
  422TIP3    H1 1211   6.039   5.010   0.911
  422TIP3    H2 1212   5.908   5.042   0.843
  423TIP3   OH2 1213   3.132   3.958   0.662
  423TIP3    H1 1214   3.202   3.922   0.716
  423TIP3    H2 1215   3.136   3.907   0.581
  424TIP3   OH2 1216   6.092   6.630   5.761
  424TIP3    H1 1217   5.997   6.628   5.751
  424TIP3    H2 1218   6.106   6.637   5.856
  425TIP3   OH2 1219   7.821   4.101   5.918
  425TIP3    H1 1220   7.742   4.071   5.963
  425TIP3    H2 1221   7.789   4.144   5.839
  426TIP3   OH2 1222   6.451   4.582   3.268
  426TIP3    H1 1223   6.404   4.562   3.187
  426TIP3    H2 1224   6.482   4.672   3.256
  427TIP3   OH2 1225   0.045   6.982   6.380
  427TIP3    H1 1226   0.064   7.072   6.356
  427TIP3    H2 1227  -0.041   6.965   6.342
  428TIP3   OH2 1228   0.080   6.407   4.696
  428TIP3    H1 1229   0.039   6.334   4.650
  428TIP3    H2 1230   0.009   6.469   4.713
  429TIP3   OH2 1231   6.910   7.372   1.091
  429TIP3    H1 1232   6.837   7.401   1.146
  429TIP3    H2 1233   6.883   7.286   1.059
  430TIP3   OH2 1234   0.349   4.011   3.163
  430TIP3    H1 1235   0.331   4.079   3.229
  430TIP3    H2 1236   0.264   3.998   3.119
  431TIP3   OH2 1237   0.564   5.872   0.516
  431TIP3    H1 1238   0.534   5.902   0.602
  431TIP3    H2 1239   0.589   5.952   0.470
  432TIP3   OH2 1240   5.548   6.673   5.240
  432TIP3    H1 1241   5.621   6.666   5.179
  432TIP3    H2 1242   5.579   6.631   5.320
  433TIP3   OH2 1243   3.170   2.997   5.326
  433TIP3    H1 1244   3.154   2.903   5.322
  433TIP3    H2 1245   3.207   3.011   5.413
  434TIP3   OH2 1246   7.073   6.368   0.724
  434TIP3    H1 1247   7.041   6.318   0.649
  434TIP3    H2 1248   7.021   6.448   0.724
  435TIP3   OH2 1249   2.147   2.836   4.094
  435TIP3    H1 1250   2.221   2.783   4.123
  435TIP3    H2 1251   2.074   2.807   4.149
  436TIP3   OH2 1252   2.810   5.104   4.086
  436TIP3    H1 1253   2.872   5.138   4.149
  436TIP3    H2 1254   2.771   5.181   4.045
  437TIP3   OH2 1255   8.114   5.595   5.932
  437TIP3    H1 1256   8.201   5.631   5.952
  437TIP3    H2 1257   8.133   5.508   5.895
  438TIP3   OH2 1258   4.808   4.334   1.048
  438TIP3    H1 1259   4.792   4.406   0.987
  438TIP3    H2 1260   4.901   4.338   1.067
  439TIP3   OH2 1261   6.801   0.283   5.125
  439TIP3    H1 1262   6.754   0.207   5.159
  439TIP3    H2 1263   6.808   0.268   5.031
  440TIP3   OH2 1264   7.683   7.035   5.310
  440TIP3    H1 1265   7.743   7.099   5.349
  440TIP3    H2 1266   7.734   6.955   5.305
  441TIP3   OH2 1267   4.506   0.523   5.178
  441TIP3    H1 1268   4.518   0.445   5.232
  441TIP3    H2 1269   4.573   0.584   5.207
  442TIP3   OH2 1270   5.311   3.951   6.673
  442TIP3    H1 1271   5.325   3.870   6.624
  442TIP3    H2 1272   5.391   3.962   6.724
  443TIP3   OH2 1273   0.167   1.786   4.756
  443TIP3    H1 1274   0.217   1.830   4.687
  443TIP3    H2 1275   0.231   1.733   4.802
  444TIP3   OH2 1276   5.314   7.747   2.248
  444TIP3    H1 1277   5.270   7.684   2.191
  444TIP3    H2 1278   5.259   7.826   2.244
  445TIP3   OH2 1279   3.002   6.160   1.293
  445TIP3    H1 1280   3.089   6.183   1.326
  445TIP3    H2 1281   3.009   6.069   1.266
  446TIP3   OH2 1282   5.370   1.247   6.181
  446TIP3    H1 1283   5.282   1.249   6.218
  446TIP3    H2 1284   5.415   1.323   6.220
  447TIP3   OH2 1285   3.355   7.332  -0.028
  447TIP3    H1 1286   3.300   7.254  -0.039
  447TIP3    H2 1287   3.363   7.343   0.067
  448TIP3   OH2 1288   1.006   3.632   0.839
  448TIP3    H1 1289   1.017   3.710   0.893
  448TIP3    H2 1290   0.986   3.562   0.901
  449TIP3   OH2 1291   8.052   1.434   3.323
  449TIP3    H1 1292   7.987   1.459   3.389
  449TIP3    H2 1293   8.096   1.357   3.359
  450TIP3   OH2 1294   6.182   5.758   5.319
  450TIP3    H1 1295   6.091   5.776   5.297
  450TIP3    H2 1296   6.229   5.838   5.297
  451TIP3   OH2 1297   6.824   3.391   3.657
  451TIP3    H1 1298   6.904   3.339   3.658
  451TIP3    H2 1299   6.777   3.361   3.579
  452TIP3   OH2 1300   0.661   4.100   0.624
  452TIP3    H1 1301   0.625   4.012   0.632
  452TIP3    H2 1302   0.653   4.138   0.711
  453TIP3   OH2 1303   0.890   4.209   0.073
  453TIP3    H1 1304   0.904   4.239  -0.017
  453TIP3    H2 1305   0.840   4.128   0.064
  454TIP3   OH2 1306   3.089   7.385   0.138
  454TIP3    H1 1307   3.175   7.389   0.180
  454TIP3    H2 1308   3.063   7.477   0.128
  455TIP3   OH2 1309   1.069   7.022   5.176
  455TIP3    H1 1310   1.162   7.003   5.166
  455TIP3    H2 1311   1.029   6.989   5.095
  456TIP3   OH2 1312   2.538   6.565   6.738
  456TIP3    H1 1313   2.475   6.493   6.734
  456TIP3    H2 1314   2.624   6.522   6.738
  457TIP3   OH2 1315   2.236   7.346   4.352
  457TIP3    H1 1316   2.295   7.405   4.400
  457TIP3    H2 1317   2.153   7.393   4.348
  458TIP3   OH2 1318   4.159   3.289   6.659
  458TIP3    H1 1319   4.063   3.287   6.669
  458TIP3    H2 1320   4.192   3.306   6.747
  459TIP3   OH2 1321   7.095   5.306   1.852
  459TIP3    H1 1322   7.153   5.232   1.865
  459TIP3    H2 1323   7.025   5.293   1.915
  460TIP3   OH2 1324   5.630   3.911   2.318
  460TIP3    H1 1325   5.713   3.940   2.281
  460TIP3    H2 1326   5.655   3.848   2.386
  461TIP3   OH2 1327   4.335   3.638   5.948
  461TIP3    H1 1328   4.271   3.670   5.885
  461TIP3    H2 1329   4.320   3.543   5.952
  462TIP3   OH2 1330   0.231   3.323   1.264
  462TIP3    H1 1331   0.234   3.394   1.201
  462TIP3    H2 1332   0.236   3.243   1.211
  463TIP3   OH2 1333   4.315   3.125   0.848
  463TIP3    H1 1334   4.335   3.032   0.844
  463TIP3    H2 1335   4.243   3.137   0.786
  464TIP3   OH2 1336   2.581   1.431   4.867
  464TIP3    H1 1337   2.548   1.347   4.898
  464TIP3    H2 1338   2.552   1.494   4.934
  465TIP3   OH2 1339   0.905   2.699   5.384
  465TIP3    H1 1340   0.919   2.620   5.333
  465TIP3    H2 1341   0.842   2.673   5.452
  466TIP3   OH2 1342   7.486   4.030   0.590
  466TIP3    H1 1343   7.487   4.083   0.510
  466TIP3    H2 1344   7.552   3.962   0.574
  467TIP3   OH2 1345   2.433   4.333   1.518
  467TIP3    H1 1346   2.354   4.383   1.541
  467TIP3    H2 1347   2.432   4.257   1.576
  468TIP3   OH2 1348   0.424   3.961   4.456
  468TIP3    H1 1349   0.500   3.926   4.408
  468TIP3    H2 1350   0.401   3.892   4.518
  469TIP3   OH2 1351   2.906   7.142   3.465
  469TIP3    H1 1352   2.829   7.183   3.425
  469TIP3    H2 1353   2.954   7.105   3.391
  470TIP3   OH2 1354   0.435   2.235   6.033
  470TIP3    H1 1355   0.356   2.208   6.080
  470TIP3    H2 1356   0.473   2.153   6.000
  471TIP3   OH2 1357   2.346   0.176   6.350
  471TIP3    H1 1358   2.391   0.234   6.411
  471TIP3    H2 1359   2.412   0.156   6.283
  472TIP3   OH2 1360   6.019   0.343   5.657
  472TIP3    H1 1361   5.978   0.314   5.738
  472TIP3    H2 1362   5.952   0.331   5.590
  473TIP3   OH2 1363   6.552   2.490   5.797
  473TIP3    H1 1364   6.458   2.478   5.782
  473TIP3    H2 1365   6.588   2.402   5.793
  474TIP3   OH2 1366   4.491   3.366   3.045
  474TIP3    H1 1367   4.419   3.373   2.982
  474TIP3    H2 1368   4.448   3.340   3.126
  475TIP3   OH2 1369   0.048   0.315   6.207
  475TIP3    H1 1370   0.099   0.235   6.197
  475TIP3    H2 1371   0.098   0.368   6.270
  476TIP3   OH2 1372   3.447   1.661   0.823
  476TIP3    H1 1373   3.452   1.692   0.914
  476TIP3    H2 1374   3.396   1.729   0.777
  477TIP3   OH2 1375   2.496   3.995   4.892
  477TIP3    H1 1376   2.523   3.989   4.984
  477TIP3    H2 1377   2.575   3.973   4.843
  478TIP3   OH2 1378   0.706   2.869   6.708
  478TIP3    H1 1379   0.785   2.815   6.707
  478TIP3    H2 1380   0.648   2.824   6.770
  479TIP3   OH2 1381   7.412   0.916   2.839
  479TIP3    H1 1382   7.457   0.992   2.876
  479TIP3    H2 1383   7.426   0.924   2.745
  480TIP3   OH2 1384   8.084   6.508   4.724
  480TIP3    H1 1385   8.001   6.510   4.772
  480TIP3    H2 1386   8.091   6.417   4.693
  481TIP3   OH2 1387   7.622   3.051   5.060
  481TIP3    H1 1388   7.599   2.974   5.007
  481TIP3    H2 1389   7.716   3.041   5.076
  482TIP3   OH2 1390   5.955   4.916   2.969
  482TIP3    H1 1391   5.923   4.987   3.025
  482TIP3    H2 1392   5.909   4.838   3.000
  483TIP3   OH2 1393   1.039   0.096   1.828
  483TIP3    H1 1394   1.055   0.034   1.757
  483TIP3    H2 1395   1.026   0.180   1.785
  484TIP3   OH2 1396   0.576   7.172   3.303
  484TIP3    H1 1397   0.600   7.090   3.259
  484TIP3    H2 1398   0.635   7.237   3.264
  485TIP3   OH2 1399   0.737   5.633   5.418
  485TIP3    H1 1400   0.670   5.695   5.388
  485TIP3    H2 1401   0.696   5.589   5.492
  486TIP3   OH2 1402   1.526   3.344   2.399
  486TIP3    H1 1403   1.508   3.295   2.479
  486TIP3    H2 1404   1.620   3.360   2.401
  487TIP3   OH2 1405   3.217   2.797   0.651
  487TIP3    H1 1406   3.189   2.764   0.566
  487TIP3    H2 1407   3.295   2.746   0.672
  488TIP3   OH2 1408   5.558   4.052   3.832
  488TIP3    H1 1409   5.526   4.141   3.815
  488TIP3    H2 1410   5.495   3.995   3.789
  489TIP3   OH2 1411   1.447   7.188   4.816
  489TIP3    H1 1412   1.400   7.135   4.752
  489TIP3    H2 1413   1.478   7.264   4.767
  490TIP3   OH2 1414   1.370   6.703   4.829
  490TIP3    H1 1415   1.290   6.707   4.881
  490TIP3    H2 1416   1.424   6.637   4.873
  491TIP3   OH2 1417   0.409   4.325   5.615
  491TIP3    H1 1418   0.494   4.357   5.647
  491TIP3    H2 1419   0.427   4.238   5.581
  492TIP3   OH2 1420   7.919   1.833   2.906
  492TIP3    H1 1421   7.860   1.899   2.869
  492TIP3    H2 1422   7.883   1.813   2.992
  493TIP3   OH2 1423   4.003   7.466   6.341
  493TIP3    H1 1424   3.976   7.556   6.359
  493TIP3    H2 1425   3.961   7.414   6.410
  494TIP3   OH2 1426   5.801   4.102   1.622
  494TIP3    H1 1427   5.881   4.150   1.601
  494TIP3    H2 1428   5.778   4.132   1.710
  495TIP3   OH2 1429   2.920   4.754   4.285
  495TIP3    H1 1430   2.835   4.765   4.241
  495TIP3    H2 1431   2.984   4.764   4.215
  496TIP3   OH2 1432   2.441   3.768   1.572
  496TIP3    H1 1433   2.507   3.745   1.637
  496TIP3    H2 1434   2.375   3.699   1.579
  497TIP3   OH2 1435   0.333   3.384   0.631
  497TIP3    H1 1436   0.354   3.297   0.597
  497TIP3    H2 1437   0.268   3.367   0.700
  498TIP3   OH2 1438   3.534   6.235   1.100
  498TIP3    H1 1439   3.461   6.295   1.089
  498TIP3    H2 1440   3.540   6.189   1.015
  499TIP3   OH2 1441   7.793   7.106   1.075
  499TIP3    H1 1442   7.859   7.055   1.121
  499TIP3    H2 1443   7.717   7.048   1.069
  500TIP3   OH2 1444   4.820   4.134   3.719
  500TIP3    H1 1445   4.853   4.085   3.644
  500TIP3    H2 1446   4.821   4.225   3.690
  501TIP3   OH2 1447   1.067   4.319   5.730
  501TIP3    H1 1448   1.105   4.357   5.650
  501TIP3    H2 1449   1.129   4.252   5.757
  502TIP3   OH2 1450   6.224   5.659   2.734
  502TIP3    H1 1451   6.189   5.602   2.665
  502TIP3    H2 1452   6.305   5.617   2.761
  503TIP3   OH2 1453   3.564   5.748   4.661
  503TIP3    H1 1454   3.556   5.842   4.645
  503TIP3    H2 1455   3.638   5.721   4.607
  504TIP3   OH2 1456   2.996   5.483   2.131
  504TIP3    H1 1457   2.928   5.545   2.158
  504TIP3    H2 1458   3.077   5.531   2.139
  505TIP3   OH2 1459   0.236   7.039   2.562
  505TIP3    H1 1460   0.155   7.029   2.612
  505TIP3    H2 1461   0.246   6.956   2.514
  506TIP3   OH2 1462   2.330   6.789   6.739
  506TIP3    H1 1463   2.373   6.739   6.669
  506TIP3    H2 1464   2.395   6.792   6.809
  507TIP3   OH2 1465   2.448   6.202   3.754
  507TIP3    H1 1466   2.493   6.118   3.768
  507TIP3    H2 1467   2.418   6.198   3.663
  508TIP3   OH2 1468   5.185   3.724   3.628
  508TIP3    H1 1469   5.205   3.717   3.535
  508TIP3    H2 1470   5.096   3.690   3.635
  509TIP3   OH2 1471   4.574   3.306   0.260
  509TIP3    H1 1472   4.600   3.264   0.178
  509TIP3    H2 1473   4.629   3.264   0.326
  510TIP3   OH2 1474   3.312   1.881   0.701
  510TIP3    H1 1475   3.331   1.829   0.623
  510TIP3    H2 1476   3.358   1.964   0.687
  511TIP3   OH2 1477   6.463   5.025   3.807
  511TIP3    H1 1478   6.448   5.009   3.714
  511TIP3    H2 1479   6.411   4.958   3.852
  512TIP3   OH2 1480   3.155   6.711   1.014
  512TIP3    H1 1481   3.096   6.676   0.947
  512TIP3    H2 1482   3.137   6.659   1.092
  513TIP3   OH2 1483   0.094   1.512   5.615
  513TIP3    H1 1484   0.177   1.468   5.633
  513TIP3    H2 1485   0.083   1.575   5.685
  514TIP3   OH2 1486   2.264   2.056   6.075
  514TIP3    H1 1487   2.356   2.028   6.081
  514TIP3    H2 1488   2.242   2.083   6.165
  515TIP3   OH2 1489   4.072   7.284   1.657
  515TIP3    H1 1490   4.052   7.196   1.689
  515TIP3    H2 1491   4.045   7.284   1.566
  516TIP3   OH2 1492   5.510   4.712   6.471
  516TIP3    H1 1493   5.501   4.718   6.376
  516TIP3    H2 1494   5.603   4.727   6.488
  517TIP3   OH2 1495   5.063   3.334   1.050
  517TIP3    H1 1496   5.084   3.258   0.996
  517TIP3    H2 1497   5.105   3.315   1.134
  518TIP3   OH2 1498   5.385   5.773   5.401
  518TIP3    H1 1499   5.439   5.745   5.475
  518TIP3    H2 1500   5.435   5.844   5.360
  519TIP3   OH2 1501   2.864   0.227   5.090
  519TIP3    H1 1502   2.930   0.281   5.046
  519TIP3    H2 1503   2.825   0.174   5.020
  520TIP3   OH2 1504   5.493   1.439   6.352
  520TIP3    H1 1505   5.559   1.475   6.292
  520TIP3    H2 1506   5.428   1.509   6.362
  521TIP3   OH2 1507   1.841   6.823   3.448
  521TIP3    H1 1508   1.843   6.731   3.423
  521TIP3    H2 1509   1.930   6.843   3.476
  522TIP3   OH2 1510   0.974   4.617   5.176
  522TIP3    H1 1511   1.022   4.536   5.187
  522TIP3    H2 1512   0.885   4.597   5.207
  523TIP3   OH2 1513   5.184   6.883   4.639
  523TIP3    H1 1514   5.245   6.828   4.687
  523TIP3    H2 1515   5.235   6.962   4.618
  524TIP3   OH2 1516   5.494   3.287   5.489
  524TIP3    H1 1517   5.563   3.353   5.480
  524TIP3    H2 1518   5.423   3.319   5.433
  525TIP3   OH2 1519   0.326   0.073   3.316
  525TIP3    H1 1520   0.369   0.057   3.232
  525TIP3    H2 1521   0.283  -0.009   3.337
  526TIP3   OH2 1522   2.254   0.363   1.951
  526TIP3    H1 1523   2.296   0.434   1.902
  526TIP3    H2 1524   2.264   0.388   2.043
  527TIP3   OH2 1525   6.381   3.689   0.153
  527TIP3    H1 1526   6.292   3.707   0.123
  527TIP3    H2 1527   6.428   3.771   0.139
  528TIP3   OH2 1528   1.454   3.481   5.764
  528TIP3    H1 1529   1.449   3.517   5.852
  528TIP3    H2 1530   1.411   3.547   5.709
  529TIP3   OH2 1531   3.730   2.324   1.870
  529TIP3    H1 1532   3.796   2.358   1.810
  529TIP3    H2 1533   3.749   2.230   1.877
  530TIP3   OH2 1534   1.174   3.038   4.001
  530TIP3    H1 1535   1.205   2.955   3.966
  530TIP3    H2 1536   1.190   3.033   4.096
  531TIP3   OH2 1537   1.959   5.129   3.865
  531TIP3    H1 1538   2.006   5.185   3.927
  531TIP3    H2 1539   1.932   5.053   3.916
  532TIP3   OH2 1540   4.427   0.696   3.602
  532TIP3    H1 1541   4.398   0.609   3.575
  532TIP3    H2 1542   4.347   0.738   3.634
  533TIP3   OH2 1543   5.969   6.454   2.243
  533TIP3    H1 1544   5.887   6.421   2.277
  533TIP3    H2 1545   5.966   6.435   2.149
  534TIP3   OH2 1546   8.308   3.916   2.307
  534TIP3    H1 1547   8.270   3.999   2.335
  534TIP3    H2 1548   8.288   3.855   2.379
  535TIP3   OH2 1549   5.650   3.715   2.524
  535TIP3    H1 1550   5.658   3.693   2.617
  535TIP3    H2 1551   5.560   3.692   2.502
  536TIP3   OH2 1552   7.232   2.039   0.662
  536TIP3    H1 1553   7.247   2.024   0.756
  536TIP3    H2 1554   7.154   1.988   0.642
  537TIP3   OH2 1555   1.389   0.907   1.041
  537TIP3    H1 1556   1.354   0.974   0.982
  537TIP3    H2 1557   1.449   0.954   1.098
  538TIP3   OH2 1558   0.658   2.200   4.615
  538TIP3    H1 1559   0.589   2.134   4.606
  538TIP3    H2 1560   0.725   2.157   4.667
  539TIP3   OH2 1561   4.994   5.552   3.441
  539TIP3    H1 1562   5.040   5.531   3.522
  539TIP3    H2 1563   5.030   5.636   3.413
  540TIP3   OH2 1564   0.491   5.375   5.836
  540TIP3    H1 1565   0.472   5.363   5.929
  540TIP3    H2 1566   0.438   5.309   5.791
  541TIP3   OH2 1567   0.001   4.191   2.412
  541TIP3    H1 1568  -0.001   4.177   2.317
  541TIP3    H2 1569   0.024   4.283   2.422
  542TIP3   OH2 1570   3.255   0.598   6.253
  542TIP3    H1 1571   3.239   0.563   6.341
  542TIP3    H2 1572   3.250   0.693   6.265
  543TIP3   OH2 1573   5.089   3.351   3.412
  543TIP3    H1 1574   5.029   3.323   3.344
  543TIP3    H2 1575   5.153   3.280   3.418
  544TIP3   OH2 1576   1.664   3.622   6.548
  544TIP3    H1 1577   1.679   3.572   6.628
  544TIP3    H2 1578   1.667   3.713   6.576
  545TIP3   OH2 1579   7.115   0.365   2.394
  545TIP3    H1 1580   7.082   0.454   2.409
  545TIP3    H2 1581   7.065   0.311   2.455
  546TIP3   OH2 1582   6.512   7.793   3.785
  546TIP3    H1 1583   6.460   7.870   3.763
  546TIP3    H2 1584   6.553   7.814   3.869
  547TIP3   OH2 1585   1.856   6.061   2.207
  547TIP3    H1 1586   1.870   6.143   2.160
  547TIP3    H2 1587   1.892   6.077   2.294
  548TIP3   OH2 1588   3.460   0.230   5.273
  548TIP3    H1 1589   3.441   0.302   5.333
  548TIP3    H2 1590   3.552   0.243   5.249
  549TIP3   OH2 1591   4.322   4.613   5.761
  549TIP3    H1 1592   4.355   4.643   5.846
  549TIP3    H2 1593   4.400   4.613   5.705
  550TIP3   OH2 1594   6.547   2.272   5.413
  550TIP3    H1 1595   6.463   2.302   5.448
  550TIP3    H2 1596   6.523   2.222   5.334
  551TIP3   OH2 1597   5.201   7.412   4.631
  551TIP3    H1 1598   5.237   7.499   4.648
  551TIP3    H2 1599   5.277   7.357   4.617
  552TIP3   OH2 1600   1.628   2.073   1.812
  552TIP3    H1 1601   1.658   2.161   1.834
  552TIP3    H2 1602   1.583   2.042   1.890
  553TIP3   OH2 1603   6.187   6.201   5.879
  553TIP3    H1 1604   6.150   6.276   5.926
  553TIP3    H2 1605   6.276   6.229   5.857
  554TIP3   OH2 1606   3.361   7.351   6.289
  554TIP3    H1 1607   3.455   7.368   6.297
  554TIP3    H2 1608   3.355   7.261   6.260
  555TIP3   OH2 1609   3.256   1.899   1.960
  555TIP3    H1 1610   3.176   1.950   1.961
  555TIP3    H2 1611   3.263   1.863   2.049
  556TIP3   OH2 1612   3.337   0.699   4.465
  556TIP3    H1 1613   3.273   0.676   4.532
  556TIP3    H2 1614   3.421   0.670   4.502
  557TIP3   OH2 1615   5.086   0.619   2.013
  557TIP3    H1 1616   4.995   0.636   2.035
  557TIP3    H2 1617   5.122   0.705   1.990
  558TIP3   OH2 1618   4.974   0.421   0.366
  558TIP3    H1 1619   4.947   0.512   0.371
  558TIP3    H2 1620   5.017   0.413   0.280
  559TIP3   OH2 1621   4.567   7.633   1.650
  559TIP3    H1 1622   4.638   7.609   1.709
  559TIP3    H2 1623   4.494   7.656   1.708
  560TIP3   OH2 1624   6.324   0.210   2.887
  560TIP3    H1 1625   6.419   0.201   2.895
  560TIP3    H2 1626   6.290   0.194   2.975
  561TIP3   OH2 1627   5.410   6.830   3.797
  561TIP3    H1 1628   5.357   6.862   3.724
  561TIP3    H2 1629   5.478   6.897   3.808
  562TIP3   OH2 1630   6.891   3.057   5.780
  562TIP3    H1 1631   6.918   2.997   5.710
  562TIP3    H2 1632   6.973   3.091   5.815
  563TIP3   OH2 1633   6.951   5.326   2.090
  563TIP3    H1 1634   6.862   5.295   2.108
  563TIP3    H2 1635   7.002   5.299   2.167
  564TIP3   OH2 1636   7.152   1.508   0.960
  564TIP3    H1 1637   7.186   1.493   1.049
  564TIP3    H2 1638   7.215   1.568   0.920
  565TIP3   OH2 1639   0.645   0.182   5.341
  565TIP3    H1 1640   0.629   0.174   5.435
  565TIP3    H2 1641   0.658   0.092   5.311
  566TIP3   OH2 1642   3.925   4.453   1.946
  566TIP3    H1 1643   3.963   4.514   2.010
  566TIP3    H2 1644   3.872   4.393   1.999
  567TIP3   OH2 1645   5.828   5.373   3.463
  567TIP3    H1 1646   5.805   5.280   3.457
  567TIP3    H2 1647   5.822   5.406   3.373
  568TIP3   OH2 1648   4.330   5.759   5.351
  568TIP3    H1 1649   4.262   5.710   5.397
  568TIP3    H2 1650   4.296   5.769   5.262
  569TIP3   OH2 1651   4.745   2.780   2.023
  569TIP3    H1 1652   4.699   2.825   2.094
  569TIP3    H2 1653   4.750   2.844   1.953
  570TIP3   OH2 1654   3.257   0.609   3.711
  570TIP3    H1 1655   3.199   0.678   3.678
  570TIP3    H2 1656   3.223   0.588   3.798
  571TIP3   OH2 1657   2.459   4.054   0.360
  571TIP3    H1 1658   2.550   4.042   0.387
  571TIP3    H2 1659   2.435   4.141   0.392
  572TIP3   OH2 1660   7.050   2.159   4.601
  572TIP3    H1 1661   7.146   2.164   4.599
  572TIP3    H2 1662   7.028   2.110   4.521
  573TIP3   OH2 1663   5.924   2.697   2.058
  573TIP3    H1 1664   5.888   2.748   1.986
  573TIP3    H2 1665   5.862   2.625   2.069
  574TIP3   OH2 1666   0.296   3.434   1.496
  574TIP3    H1 1667   0.273   3.525   1.475
  574TIP3    H2 1668   0.264   3.384   1.420
  575TIP3   OH2 1669   3.980   5.849   0.926
  575TIP3    H1 1670   3.915   5.860   0.996
  575TIP3    H2 1671   4.009   5.758   0.935
  576TIP3   OH2 1672   5.640   2.631   6.268
  576TIP3    H1 1673   5.718   2.607   6.318
  576TIP3    H2 1674   5.617   2.551   6.221
  577TIP3   OH2 1675   4.144   6.621   2.786
  577TIP3    H1 1676   4.076   6.598   2.850
  577TIP3    H2 1677   4.133   6.556   2.716
  578TIP3   OH2 1678   7.490   3.547   1.916
  578TIP3    H1 1679   7.464   3.458   1.892
  578TIP3    H2 1680   7.579   3.556   1.883
  579TIP3   OH2 1681   3.883   1.549   6.723
  579TIP3    H1 1682   3.833   1.596   6.657
  579TIP3    H2 1683   3.861   1.592   6.805
  580TIP3   OH2 1684   3.095   2.856   2.793
  580TIP3    H1 1685   3.041   2.853   2.715
  580TIP3    H2 1686   3.047   2.803   2.857
  581TIP3   OH2 1687   0.388   5.518   4.083
  581TIP3    H1 1688   0.358   5.465   4.157
  581TIP3    H2 1689   0.459   5.467   4.044
  582TIP3   OH2 1690   0.666   4.393   5.683
  582TIP3    H1 1691   0.692   4.455   5.615
  582TIP3    H2 1692   0.743   4.337   5.695
  583TIP3   OH2 1693   5.593   6.927   6.110
  583TIP3    H1 1694   5.564   6.879   6.033
  583TIP3    H2 1695   5.618   6.859   6.173
  584TIP3   OH2 1696   2.503   7.250   0.918
  584TIP3    H1 1697   2.517   7.157   0.900
  584TIP3    H2 1698   2.434   7.276   0.857
  585TIP3   OH2 1699   2.038   2.015   5.664
  585TIP3    H1 1700   1.961   2.072   5.658
  585TIP3    H2 1701   2.094   2.044   5.592
  586TIP3   OH2 1702   7.726   5.517   5.130
  586TIP3    H1 1703   7.791   5.547   5.194
  586TIP3    H2 1704   7.680   5.445   5.175
  587TIP3   OH2 1705   0.901   2.578   6.567
  587TIP3    H1 1706   0.988   2.592   6.530
  587TIP3    H2 1707   0.843   2.573   6.492
  588TIP3   OH2 1708   4.575   0.284   4.744
  588TIP3    H1 1709   4.483   0.257   4.742
  588TIP3    H2 1710   4.623   0.206   4.771
  589TIP3   OH2 1711   0.599   3.536   5.072
  589TIP3    H1 1712   0.515   3.513   5.112
  589TIP3    H2 1713   0.576   3.564   4.983
  590TIP3   OH2 1714   5.569   4.698   4.344
  590TIP3    H1 1715   5.494   4.755   4.326
  590TIP3    H2 1716   5.635   4.725   4.280
  591TIP3   OH2 1717   1.152   0.157   1.169
  591TIP3    H1 1718   1.180   0.194   1.253
  591TIP3    H2 1719   1.191   0.214   1.103
  592TIP3   OH2 1720   3.732   7.417   3.474
  592TIP3    H1 1721   3.812   7.365   3.484
  592TIP3    H2 1722   3.763   7.501   3.442
  593TIP3   OH2 1723   4.287   5.978   5.938
  593TIP3    H1 1724   4.210   5.927   5.912
  593TIP3    H2 1725   4.264   6.068   5.918
  594TIP3   OH2 1726   2.880   5.885   3.451
  594TIP3    H1 1727   2.884   5.972   3.411
  594TIP3    H2 1728   2.874   5.825   3.376
  595TIP3   OH2 1729   4.911   0.206   6.498
  595TIP3    H1 1730   4.816   0.208   6.493
  595TIP3    H2 1731   4.930   0.145   6.569
  596TIP3   OH2 1732   1.075   2.890   3.671
  596TIP3    H1 1733   1.087   2.983   3.691
  596TIP3    H2 1734   1.162   2.861   3.642
  597TIP3   OH2 1735   5.770   5.820   4.366
  597TIP3    H1 1736   5.779   5.895   4.307
  597TIP3    H2 1737   5.767   5.744   4.308
  598TIP3   OH2 1738   0.888   4.173   3.046
  598TIP3    H1 1739   0.895   4.268   3.038
  598TIP3    H2 1740   0.936   4.138   2.971
  599TIP3   OH2 1741   5.782   5.971   6.222
  599TIP3    H1 1742   5.861   5.917   6.216
  599TIP3    H2 1743   5.717   5.924   6.170
  600TIP3   OH2 1744   6.510   0.697   4.701
  600TIP3    H1 1745   6.600   0.700   4.733
  600TIP3    H2 1746   6.472   0.621   4.745
  601TIP3   OH2 1747   2.360   5.541   6.675
  601TIP3    H1 1748   2.273   5.578   6.664
  601TIP3    H2 1749   2.373   5.485   6.598
  602TIP3   OH2 1750   6.548   4.506   2.963
  602TIP3    H1 1751   6.605   4.440   3.002
  602TIP3    H2 1752   6.460   4.468   2.968
  603TIP3   OH2 1753   6.671   5.735   0.551
  603TIP3    H1 1754   6.636   5.747   0.639
  603TIP3    H2 1755   6.719   5.816   0.533
  604TIP3   OH2 1756   2.493   0.315   4.941
  604TIP3    H1 1757   2.520   0.237   4.892
  604TIP3    H2 1758   2.505   0.290   5.033
  605TIP3   OH2 1759   8.259   0.161   6.777
  605TIP3    H1 1760   8.300   0.161   6.690
  605TIP3    H2 1761   8.195   0.090   6.773
  606TIP3   OH2 1762   6.663   7.453   1.332
  606TIP3    H1 1763   6.615   7.370   1.329
  606TIP3    H2 1764   6.641   7.497   1.250
  607TIP3   OH2 1765   4.325   7.707   3.452
  607TIP3    H1 1766   4.275   7.765   3.394
  607TIP3    H2 1767   4.416   7.734   3.440
  608TIP3   OH2 1768   7.148   4.644   1.552
  608TIP3    H1 1769   7.154   4.657   1.646
  608TIP3    H2 1770   7.138   4.549   1.541
  609TIP3   OH2 1771   2.375   6.171   3.480
  609TIP3    H1 1772   2.449   6.124   3.441
  609TIP3    H2 1773   2.360   6.245   3.421
  610TIP3   OH2 1774   2.207   7.602   3.118
  610TIP3    H1 1775   2.201   7.596   3.214
  610TIP3    H2 1776   2.296   7.572   3.098
  611TIP3   OH2 1777   0.511   1.718   1.380
  611TIP3    H1 1778   0.418   1.698   1.368
  611TIP3    H2 1779   0.545   1.644   1.431
  612TIP3   OH2 1780   1.533   6.751   6.722
  612TIP3    H1 1781   1.607   6.808   6.741
  612TIP3    H2 1782   1.546   6.676   6.780
  613TIP3   OH2 1783   7.515   7.204   3.279
  613TIP3    H1 1784   7.531   7.152   3.200
  613TIP3    H2 1785   7.486   7.289   3.246
  614TIP3   OH2 1786   1.169   3.845   1.941
  614TIP3    H1 1787   1.127   3.799   2.014
  614TIP3    H2 1788   1.217   3.777   1.894
  615TIP3   OH2 1789   1.991   5.670   5.276
  615TIP3    H1 1790   2.050   5.617   5.330
  615TIP3    H2 1791   1.906   5.664   5.321
  616TIP3   OH2 1792   0.257   0.234   0.714
  616TIP3    H1 1793   0.258   0.320   0.672
  616TIP3    H2 1794   0.164   0.212   0.721
  617TIP3   OH2 1795   5.260   2.185   5.618
  617TIP3    H1 1796   5.167   2.204   5.609
  617TIP3    H2 1797   5.266   2.090   5.602
  618TIP3   OH2 1798   7.160   1.044   2.510
  618TIP3    H1 1799   7.169   1.133   2.544
  618TIP3    H2 1800   7.223   0.993   2.560
  619TIP3   OH2 1801   0.589   7.764   6.489
  619TIP3    H1 1802   0.631   7.823   6.427
  619TIP3    H2 1803   0.599   7.677   6.451
  620TIP3   OH2 1804   6.274   4.357   3.008
  620TIP3    H1 1805   6.241   4.433   3.057
  620TIP3    H2 1806   6.201   4.296   3.006
  621TIP3   OH2 1807   4.786   6.904   2.964
  621TIP3    H1 1808   4.837   6.927   2.887
  621TIP3    H2 1809   4.831   6.946   3.037
  622TIP3   OH2 1810   0.442   6.726   2.749
  622TIP3    H1 1811   0.353   6.754   2.729
  622TIP3    H2 1812   0.494   6.806   2.750
  623TIP3   OH2 1813   6.075   6.199   6.714
  623TIP3    H1 1814   5.988   6.196   6.753
  623TIP3    H2 1815   6.072   6.133   6.644
  624TIP3   OH2 1816   6.799   5.069   0.823
  624TIP3    H1 1817   6.769   4.979   0.812
  624TIP3    H2 1818   6.720   5.122   0.810
  625TIP3   OH2 1819   5.084   5.487   2.481
  625TIP3    H1 1820   5.117   5.471   2.393
  625TIP3    H2 1821   5.065   5.580   2.483
  626TIP3   OH2 1822   4.053   3.046   2.601
  626TIP3    H1 1823   4.087   3.033   2.689
  626TIP3    H2 1824   3.976   3.101   2.612
  627TIP3   OH2 1825   4.407   6.926   2.930
  627TIP3    H1 1826   4.346   6.994   2.961
  627TIP3    H2 1827   4.405   6.859   2.998
  628TIP3   OH2 1828   5.233   2.668   0.779
  628TIP3    H1 1829   5.287   2.603   0.734
  628TIP3    H2 1830   5.183   2.710   0.709
  629TIP3   OH2 1831   2.544   7.126   2.804
  629TIP3    H1 1832   2.589   7.115   2.888
  629TIP3    H2 1833   2.451   7.117   2.825
  630TIP3   OH2 1834   4.703   0.909   2.889
  630TIP3    H1 1835   4.626   0.856   2.907
  630TIP3    H2 1836   4.676   0.999   2.910
  631TIP3   OH2 1837   0.976   1.005   1.908
  631TIP3    H1 1838   0.975   0.917   1.947
  631TIP3    H2 1839   0.933   1.060   1.973
  632TIP3   OH2 1840   3.386   0.399   3.600
  632TIP3    H1 1841   3.365   0.492   3.615
  632TIP3    H2 1842   3.304   0.353   3.617
  633TIP3   OH2 1843   2.628   7.171   5.564
  633TIP3    H1 1844   2.600   7.118   5.639
  633TIP3    H2 1845   2.646   7.107   5.495
  634TIP3   OH2 1846   1.475   4.819   4.422
  634TIP3    H1 1847   1.392   4.866   4.428
  634TIP3    H2 1848   1.470   4.752   4.490
  635TIP3   OH2 1849   6.131   6.217   2.096
  635TIP3    H1 1850   6.175   6.297   2.070
  635TIP3    H2 1851   6.116   6.228   2.190
  636TIP3   OH2 1852   0.045   1.537   6.766
  636TIP3    H1 1853   0.044   1.556   6.672
  636TIP3    H2 1854  -0.044   1.506   6.784
  637TIP3   OH2 1855   8.026   5.732   1.487
  637TIP3    H1 1856   8.069   5.729   1.402
  637TIP3    H2 1857   8.096   5.757   1.548
  638TIP3   OH2 1858   4.126   5.041   5.089
  638TIP3    H1 1859   4.179   5.000   5.020
  638TIP3    H2 1860   4.067   4.971   5.118
  639TIP3   OH2 1861   6.711   1.459   1.826
  639TIP3    H1 1862   6.742   1.538   1.783
  639TIP3    H2 1863   6.712   1.392   1.757
  640TIP3   OH2 1864   0.037   0.006   2.167
  640TIP3    H1 1865  -0.035  -0.045   2.133
  640TIP3    H2 1866  -0.002   0.091   2.191
  641TIP3   OH2 1867   5.615   2.089   3.475
  641TIP3    H1 1868   5.657   2.012   3.514
  641TIP3    H2 1869   5.607   2.151   3.548
  642TIP3   OH2 1870   0.862   4.813   2.731
  642TIP3    H1 1871   0.952   4.816   2.699
  642TIP3    H2 1872   0.817   4.883   2.683
  643TIP3   OH2 1873   1.731   4.755   4.327
  643TIP3    H1 1874   1.648   4.776   4.369
  643TIP3    H2 1875   1.767   4.683   4.380
  644TIP3   OH2 1876   2.651   4.015   5.748
  644TIP3    H1 1877   2.666   4.092   5.693
  644TIP3    H2 1878   2.637   3.944   5.685
  645TIP3   OH2 1879   6.860   7.092   5.186
  645TIP3    H1 1880   6.931   7.155   5.192
  645TIP3    H2 1881   6.816   7.097   5.272
  646TIP3   OH2 1882   0.078   1.936   1.084
  646TIP3    H1 1883   0.073   2.027   1.112
  646TIP3    H2 1884  -0.006   1.898   1.110
  647TIP3   OH2 1885   0.044   0.454   2.314
  647TIP3    H1 1886  -0.015   0.478   2.386
  647TIP3    H2 1887   0.131   0.481   2.346
  648TIP3   OH2 1888   7.123   5.961   6.307
  648TIP3    H1 1889   7.126   6.032   6.243
  648TIP3    H2 1890   7.113   6.004   6.391
  649TIP3   OH2 1891   6.672   4.316   3.771
  649TIP3    H1 1892   6.753   4.367   3.764
  649TIP3    H2 1893   6.654   4.313   3.865
  650TIP3   OH2 1894   5.011   1.144   0.186
  650TIP3    H1 1895   4.939   1.197   0.217
  650TIP3    H2 1896   4.976   1.055   0.182
  651TIP3   OH2 1897   2.872   0.276   0.138
  651TIP3    H1 1898   2.943   0.310   0.193
  651TIP3    H2 1899   2.795   0.280   0.193
  652TIP3   OH2 1900   4.781   6.485   3.421
  652TIP3    H1 1901   4.853   6.541   3.392
  652TIP3    H2 1902   4.819   6.431   3.491
  653TIP3   OH2 1903   1.169   0.402   5.218
  653TIP3    H1 1904   1.103   0.342   5.253
  653TIP3    H2 1905   1.203   0.358   5.140
  654TIP3   OH2 1906   7.226   6.685   4.050
  654TIP3    H1 1907   7.304   6.709   4.000
  654TIP3    H2 1908   7.251   6.698   4.142
  655TIP3   OH2 1909   8.254   1.670   2.674
  655TIP3    H1 1910   8.302   1.626   2.604
  655TIP3    H2 1911   8.256   1.607   2.747
  656TIP3   OH2 1912   1.890   3.383   0.799
  656TIP3    H1 1913   1.986   3.385   0.810
  656TIP3    H2 1914   1.863   3.303   0.844
  657TIP3   OH2 1915   0.867   7.529   2.720
  657TIP3    H1 1916   0.851   7.447   2.673
  657TIP3    H2 1917   0.799   7.588   2.689
  658TIP3   OH2 1918   6.182   0.411   0.161
  658TIP3    H1 1919   6.236   0.435   0.085
  658TIP3    H2 1920   6.112   0.476   0.163
  659TIP3   OH2 1921   7.285   4.416   1.327
  659TIP3    H1 1922   7.222   4.382   1.391
  659TIP3    H2 1923   7.368   4.373   1.351
  660TIP3   OH2 1924   4.360   2.751   0.040
  660TIP3    H1 1925   4.435   2.789  -0.005
  660TIP3    H2 1926   4.324   2.687  -0.022
  661TIP3   OH2 1927   5.313   2.411   3.303
  661TIP3    H1 1928   5.347   2.323   3.283
  661TIP3    H2 1929   5.235   2.395   3.355
  662TIP3   OH2 1930   1.291   3.541   4.295
  662TIP3    H1 1931   1.359   3.511   4.234
  662TIP3    H2 1932   1.269   3.463   4.346
  663TIP3   OH2 1933   0.739   2.504   3.575
  663TIP3    H1 1934   0.699   2.439   3.517
  663TIP3    H2 1935   0.830   2.474   3.586
  664TIP3   OH2 1936   1.816   4.593   3.576
  664TIP3    H1 1937   1.768   4.525   3.622
  664TIP3    H2 1938   1.748   4.640   3.527
  665TIP3   OH2 1939   1.175   6.356   5.985
  665TIP3    H1 1940   1.088   6.316   5.991
  665TIP3    H2 1941   1.227   6.294   5.934
  666TIP3   OH2 1942   3.535   7.605   6.030
  666TIP3    H1 1943   3.519   7.516   5.999
  666TIP3    H2 1944   3.629   7.618   6.017
  667TIP3   OH2 1945   8.149   1.784   0.444
  667TIP3    H1 1946   8.142   1.796   0.350
  667TIP3    H2 1947   8.238   1.811   0.465
  668TIP3   OH2 1948   5.590   7.430   0.396
  668TIP3    H1 1949   5.570   7.496   0.329
  668TIP3    H2 1950   5.675   7.456   0.431
  669TIP3   OH2 1951   4.100   0.984   2.621
  669TIP3    H1 1952   4.034   1.051   2.638
  669TIP3    H2 1953   4.148   1.016   2.544
  670TIP3   OH2 1954   4.070   1.524   4.840
  670TIP3    H1 1955   4.126   1.488   4.909
  670TIP3    H2 1956   4.066   1.456   4.773
  671TIP3   OH2 1957   6.351   3.884   6.512
  671TIP3    H1 1958   6.290   3.811   6.523
  671TIP3    H2 1959   6.364   3.917   6.600
  672TIP3   OH2 1960   3.929   2.885   3.301
  672TIP3    H1 1961   3.909   2.921   3.215
  672TIP3    H2 1962   3.914   2.791   3.292
  673TIP3   OH2 1963   5.840   5.319   1.595
  673TIP3    H1 1964   5.852   5.388   1.531
  673TIP3    H2 1965   5.908   5.334   1.660
  674TIP3   OH2 1966   5.272   0.568   1.820
  674TIP3    H1 1967   5.240   0.561   1.910
  674TIP3    H2 1968   5.200   0.533   1.767
  675TIP3   OH2 1969   7.724   3.219   0.441
  675TIP3    H1 1970   7.802   3.275   0.446
  675TIP3    H2 1971   7.722   3.188   0.351
  676TIP3   OH2 1972   0.685   0.170   3.887
  676TIP3    H1 1973   0.778   0.189   3.879
  676TIP3    H2 1974   0.653   0.172   3.797
  677TIP3   OH2 1975   5.734   5.860   2.394
  677TIP3    H1 1976   5.792   5.810   2.451
  677TIP3    H2 1977   5.696   5.927   2.450
  678TIP3   OH2 1978   5.536   4.559   2.550
  678TIP3    H1 1979   5.591   4.602   2.616
  678TIP3    H2 1980   5.594   4.546   2.475
  679TIP3   OH2 1981   3.014   2.388   2.008
  679TIP3    H1 1982   3.098   2.421   1.976
  679TIP3    H2 1983   2.986   2.453   2.073
  680TIP3   OH2 1984   5.725   5.177   1.112
  680TIP3    H1 1985   5.732   5.136   1.026
  680TIP3    H2 1986   5.783   5.126   1.168
  681TIP3   OH2 1987   2.564   4.063   1.307
  681TIP3    H1 1988   2.527   4.080   1.393
  681TIP3    H2 1989   2.652   4.101   1.311
  682TIP3   OH2 1990   6.058   0.518   1.478
  682TIP3    H1 1991   6.140   0.563   1.460
  682TIP3    H2 1992   6.040   0.536   1.570
  683TIP3   OH2 1993   3.777   5.058   3.220
  683TIP3    H1 1994   3.823   4.979   3.246
  683TIP3    H2 1995   3.751   5.043   3.129
  684TIP3   OH2 1996   3.228   7.499   6.531
  684TIP3    H1 1997   3.184   7.416   6.549
  684TIP3    H2 1998   3.161   7.553   6.489
  685TIP3   OH2 1999   2.892   3.810   3.977
  685TIP3    H1 2000   2.938   3.731   3.948
  685TIP3    H2 2001   2.962   3.870   4.002
  686TIP3   OH2 2002   0.886   0.667   5.910
  686TIP3    H1 2003   0.806   0.643   5.956
  686TIP3    H2 2004   0.918   0.745   5.956
  687TIP3   OH2 2005   4.183   6.613   4.249
  687TIP3    H1 2006   4.222   6.645   4.330
  687TIP3    H2 2007   4.089   6.626   4.261
  688TIP3   OH2 2008   3.752   7.188   2.266
  688TIP3    H1 2009   3.702   7.131   2.325
  688TIP3    H2 2010   3.833   7.140   2.250
  689TIP3   OH2 2011   5.644   4.529   0.617
  689TIP3    H1 2012   5.611   4.618   0.610
  689TIP3    H2 2013   5.737   4.536   0.597
  690TIP3   OH2 2014   7.677   0.093   5.692
  690TIP3    H1 2015   7.701   0.156   5.759
  690TIP3    H2 2016   7.635   0.021   5.740
  691TIP3   OH2 2017   0.157   3.270   6.016
  691TIP3    H1 2018   0.155   3.174   6.005
  691TIP3    H2 2019   0.123   3.284   6.105
  692TIP3   OH2 2020   5.602   4.544   3.310
  692TIP3    H1 2021   5.550   4.475   3.268
  692TIP3    H2 2022   5.549   4.623   3.301
  693TIP3   OH2 2023   0.211   7.229   0.090
  693TIP3    H1 2024   0.134   7.286   0.097
  693TIP3    H2 2025   0.173   7.141   0.083
  694TIP3   OH2 2026   4.842   3.032   0.206
  694TIP3    H1 2027   4.786   3.044   0.130
  694TIP3    H2 2028   4.884   3.118   0.219
  695TIP3   OH2 2029   7.919   1.711   6.195
  695TIP3    H1 2030   7.848   1.724   6.258
  695TIP3    H2 2031   7.924   1.617   6.184
  696TIP3   OH2 2032   3.175   5.570   4.711
  696TIP3    H1 2033   3.139   5.658   4.720
  696TIP3    H2 2034   3.175   5.535   4.800
  697TIP3   OH2 2035   1.979   5.707   3.163
  697TIP3    H1 2036   1.988   5.665   3.078
  697TIP3    H2 2037   2.066   5.702   3.202
  698TIP3   OH2 2038   8.126   5.086   3.532
  698TIP3    H1 2039   8.198   5.107   3.472
  698TIP3    H2 2040   8.147   4.998   3.564
  699TIP3   OH2 2041   8.290   7.314   0.474
  699TIP3    H1 2042   8.216   7.305   0.535
  699TIP3    H2 2043   8.327   7.400   0.493
  700TIP3   OH2 2044   5.313   1.295   1.811
  700TIP3    H1 2045   5.399   1.292   1.853
  700TIP3    H2 2046   5.310   1.381   1.769
  701TIP3   OH2 2047   5.549   3.760   0.294
  701TIP3    H1 2048   5.590   3.696   0.352
  701TIP3    H2 2049   5.546   3.716   0.209
  702TIP3   OH2 2050   2.183   5.561   5.481
  702TIP3    H1 2051   2.177   5.535   5.574
  702TIP3    H2 2052   2.182   5.477   5.434
  703TIP3   OH2 2053   6.929   2.016   3.370
  703TIP3    H1 2054   6.909   2.013   3.276
  703TIP3    H2 2055   6.938   1.924   3.396
  704TIP3   OH2 2056   1.846   2.991   0.183
  704TIP3    H1 2057   1.831   2.999   0.278
  704TIP3    H2 2058   1.929   2.944   0.176
  705TIP3   OH2 2059   7.515   3.780   5.997
  705TIP3    H1 2060   7.426   3.808   6.013
  705TIP3    H2 2061   7.535   3.811   5.908
  706TIP3   OH2 2062   3.617   1.055   3.937
  706TIP3    H1 2063   3.554   1.006   3.989
  706TIP3    H2 2064   3.593   1.036   3.846
  707TIP3   OH2 2065   4.796   4.231   5.893
  707TIP3    H1 2066   4.788   4.141   5.864
  707TIP3    H2 2067   4.889   4.251   5.884
  708TIP3   OH2 2068   6.543   3.868   5.157
  708TIP3    H1 2069   6.523   3.907   5.242
  708TIP3    H2 2070   6.458   3.855   5.115
  709TIP3   OH2 2071   7.332   4.929   2.061
  709TIP3    H1 2072   7.397   4.896   2.124
  709TIP3    H2 2073   7.251   4.884   2.083
  710TIP3   OH2 2074   6.039   5.319   2.344
  710TIP3    H1 2075   5.967   5.357   2.395
  710TIP3    H2 2076   6.051   5.380   2.271
  711TIP3   OH2 2077   8.198   7.287   5.345
  711TIP3    H1 2078   8.115   7.241   5.327
  711TIP3    H2 2079   8.171   7.374   5.373
  712TIP3   OH2 2080   0.066   1.830   5.558
  712TIP3    H1 2081   0.030   1.798   5.641
  712TIP3    H2 2082   0.161   1.835   5.574
  713TIP3   OH2 2083   7.006   3.158   2.462
  713TIP3    H1 2084   6.932   3.116   2.417
  713TIP3    H2 2085   7.032   3.096   2.530
  714TIP3   OH2 2086   0.212   7.173   3.699
  714TIP3    H1 2087   0.185   7.091   3.739
  714TIP3    H2 2088   0.256   7.147   3.618
  715TIP3   OH2 2089   7.672   6.512   6.517
  715TIP3    H1 2090   7.693   6.584   6.458
  715TIP3    H2 2091   7.705   6.434   6.473
  716TIP3   OH2 2092   1.289   1.398   1.583
  716TIP3    H1 2093   1.211   1.430   1.539
  716TIP3    H2 2094   1.352   1.382   1.513
  717TIP3   OH2 2095   3.861   7.677   2.783
  717TIP3    H1 2096   3.951   7.708   2.794
  717TIP3    H2 2097   3.870   7.594   2.737
  718TIP3   OH2 2098   2.520   5.741   2.851
  718TIP3    H1 2099   2.590   5.677   2.840
  718TIP3    H2 2100   2.489   5.728   2.941
  719TIP3   OH2 2101   4.596   3.235   3.758
  719TIP3    H1 2102   4.643   3.310   3.723
  719TIP3    H2 2103   4.604   3.242   3.853
  720TIP3   OH2 2104   1.150   3.041   4.972
  720TIP3    H1 2105   1.187   3.057   4.885
  720TIP3    H2 2106   1.225   3.045   5.031
  721TIP3   OH2 2107   0.838   0.215   0.559
  721TIP3    H1 2108   0.775   0.147   0.583
  721TIP3    H2 2109   0.882   0.180   0.481
  722TIP3   OH2 2110   1.218   2.765   2.845
  722TIP3    H1 2111   1.220   2.730   2.934
  722TIP3    H2 2112   1.125   2.762   2.820
  723TIP3   OH2 2113   5.188   5.981   0.075
  723TIP3    H1 2114   5.176   6.074   0.091
  723TIP3    H2 2115   5.281   5.972   0.054
  724TIP3   OH2 2116   7.842   3.930   3.894
  724TIP3    H1 2117   7.845   3.852   3.838
  724TIP3    H2 2118   7.773   3.912   3.957
  725TIP3   OH2 2119   5.858   1.510   1.078
  725TIP3    H1 2120   5.919   1.494   1.150
  725TIP3    H2 2121   5.773   1.482   1.111
  726TIP3   OH2 2122   7.357   5.520   0.791
  726TIP3    H1 2123   7.406   5.561   0.863
  726TIP3    H2 2124   7.316   5.443   0.831
  727TIP3   OH2 2125   0.002   3.962   3.341
  727TIP3    H1 2126  -0.012   4.046   3.384
  727TIP3    H2 2127   0.062   3.915   3.398
  728TIP3   OH2 2128   2.151   7.440   1.564
  728TIP3    H1 2129   2.100   7.517   1.589
  728TIP3    H2 2130   2.091   7.389   1.508
  729TIP3   OH2 2131   4.513   3.938   6.194
  729TIP3    H1 2132   4.608   3.938   6.181
  729TIP3    H2 2133   4.494   3.851   6.229
  730TIP3   OH2 2134   2.512   6.134   1.686
  730TIP3    H1 2135   2.582   6.196   1.665
  730TIP3    H2 2136   2.552   6.048   1.671
  731TIP3   OH2 2137   1.314   7.498   3.941
  731TIP3    H1 2138   1.385   7.433   3.934
  731TIP3    H2 2139   1.250   7.457   4.000
  732TIP3   OH2 2140   6.521   0.777   4.133
  732TIP3    H1 2141   6.599   0.826   4.159
  732TIP3    H2 2142   6.465   0.842   4.090
  733TIP3   OH2 2143   4.545   4.002   4.301
  733TIP3    H1 2144   4.494   3.922   4.317
  733TIP3    H2 2145   4.630   3.984   4.340
  734TIP3   OH2 2146   6.165   6.470   3.813
  734TIP3    H1 2147   6.135   6.380   3.801
  734TIP3    H2 2148   6.185   6.477   3.907
  735TIP3   OH2 2149   1.688   3.874   5.222
  735TIP3    H1 2150   1.680   3.810   5.151
  735TIP3    H2 2151   1.760   3.843   5.275
  736TIP3   OH2 2152   6.720   2.393   6.386
  736TIP3    H1 2153   6.768   2.337   6.325
  736TIP3    H2 2154   6.650   2.337   6.421
  737TIP3   OH2 2155   3.951   0.164   1.990
  737TIP3    H1 2156   4.022   0.160   1.926
  737TIP3    H2 2157   3.990   0.133   2.072
  738TIP3   OH2 2158   7.890   2.750   5.595
  738TIP3    H1 2159   7.880   2.843   5.575
  738TIP3    H2 2160   7.830   2.706   5.535
  739TIP3   OH2 2161   2.257   6.791   0.518
  739TIP3    H1 2162   2.314   6.754   0.451
  739TIP3    H2 2163   2.271   6.885   0.513
  740TIP3   OH2 2164   1.460   2.399   6.503
  740TIP3    H1 2165   1.497   2.441   6.425
  740TIP3    H2 2166   1.452   2.307   6.480
  741TIP3   OH2 2167   7.572   2.223   3.863
  741TIP3    H1 2168   7.636   2.200   3.797
  741TIP3    H2 2169   7.517   2.290   3.821
  742TIP3   OH2 2170   6.801   0.238   6.368
  742TIP3    H1 2171   6.795   0.304   6.299
  742TIP3    H2 2172   6.762   0.160   6.329
  743TIP3   OH2 2173   6.415   5.064   5.586
  743TIP3    H1 2174   6.455   5.139   5.630
  743TIP3    H2 2175   6.332   5.051   5.632
  744TIP3   OH2 2176   8.082   1.406   3.012
  744TIP3    H1 2177   8.084   1.477   3.077
  744TIP3    H2 2178   7.995   1.368   3.023
  745TIP3   OH2 2179   0.583   5.077   5.965
  745TIP3    H1 2180   0.552   5.148   6.021
  745TIP3    H2 2181   0.552   4.997   6.008
  746TIP3   OH2 2182   1.091   7.337   4.568
  746TIP3    H1 2183   1.144   7.347   4.647
  746TIP3    H2 2184   1.129   7.400   4.506
  747TIP3   OH2 2185   2.199   2.684   4.722
  747TIP3    H1 2186   2.158   2.609   4.678
  747TIP3    H2 2187   2.258   2.720   4.656
  748TIP3   OH2 2188   0.884   1.672   0.838
  748TIP3    H1 2189   0.949   1.605   0.855
  748TIP3    H2 2190   0.902   1.702   0.749
  749TIP3   OH2 2191   2.669   0.021   1.064
  749TIP3    H1 2192   2.593   0.017   1.122
  749TIP3    H2 2193   2.638   0.068   0.987
  750TIP3   OH2 2194   2.958   5.324   5.786
  750TIP3    H1 2195   2.926   5.302   5.874
  750TIP3    H2 2196   2.971   5.419   5.789
  751TIP3   OH2 2197   2.092   7.216   6.576
  751TIP3    H1 2198   2.128   7.128   6.569
  751TIP3    H2 2199   1.997   7.203   6.578
  752TIP3   OH2 2200   5.919   3.610   2.568
  752TIP3    H1 2201   5.924   3.525   2.524
  752TIP3    H2 2202   5.833   3.645   2.542
  753TIP3   OH2 2203   3.337   0.534   2.195
  753TIP3    H1 2204   3.302   0.573   2.276
  753TIP3    H2 2205   3.323   0.601   2.129
  754TIP3   OH2 2206   6.524   4.558   0.166
  754TIP3    H1 2207   6.431   4.553   0.145
  754TIP3    H2 2208   6.564   4.490   0.111
  755TIP3   OH2 2209   8.217   0.483   2.537
  755TIP3    H1 2210   8.186   0.568   2.567
  755TIP3    H2 2211   8.182   0.421   2.601
  756TIP3   OH2 2212   0.861   7.374   5.163
  756TIP3    H1 2213   0.911   7.409   5.237
  756TIP3    H2 2214   0.787   7.433   5.153
  757TIP3   OH2 2215   5.632   3.875   1.804
  757TIP3    H1 2216   5.610   3.862   1.896
  757TIP3    H2 2217   5.559   3.927   1.770
  758TIP3   OH2 2218   6.583   1.329   3.108
  758TIP3    H1 2219   6.661   1.355   3.059
  758TIP3    H2 2220   6.529   1.282   3.045
  759TIP3   OH2 2221   8.190   5.452   6.220
  759TIP3    H1 2222   8.234   5.376   6.183
  759TIP3    H2 2223   8.187   5.516   6.149
  760TIP3   OH2 2224   6.826   6.387   6.421
  760TIP3    H1 2225   6.822   6.395   6.516
  760TIP3    H2 2226   6.919   6.374   6.402
  761TIP3   OH2 2227   4.541   0.325   3.840
  761TIP3    H1 2228   4.480   0.273   3.789
  761TIP3    H2 2229   4.486   0.387   3.888
  762TIP3   OH2 2230   7.546   2.976   2.342
  762TIP3    H1 2231   7.612   3.041   2.366
  762TIP3    H2 2232   7.462   3.015   2.366
  763TIP3   OH2 2233  -0.028   0.227   3.412
  763TIP3    H1 2234   0.062   0.260   3.423
  763TIP3    H2 2235  -0.028   0.184   3.327
  764TIP3   OH2 2236   0.319   4.265   2.186
  764TIP3    H1 2237   0.280   4.183   2.216
  764TIP3    H2 2238   0.350   4.246   2.097
  765TIP3   OH2 2239   0.615   2.795   4.668
  765TIP3    H1 2240   0.597   2.803   4.574
  765TIP3    H2 2241   0.594   2.881   4.703
  766TIP3   OH2 2242   0.346   4.031   6.438
  766TIP3    H1 2243   0.288   3.961   6.408
  766TIP3    H2 2244   0.304   4.112   6.409
  767TIP3   OH2 2245   7.798   6.987   6.630
  767TIP3    H1 2246   7.853   7.053   6.672
  767TIP3    H2 2247   7.825   6.989   6.538
  768TIP3   OH2 2248   8.214   4.527   2.056
  768TIP3    H1 2249   8.307   4.516   2.034
  768TIP3    H2 2250   8.186   4.601   2.004
  769TIP3   OH2 2251   4.993   6.482   1.046
  769TIP3    H1 2252   5.036   6.567   1.038
  769TIP3    H2 2253   5.061   6.423   1.077
  770TIP3   OH2 2254   5.092   1.362   3.663
  770TIP3    H1 2255   5.137   1.355   3.579
  770TIP3    H2 2256   5.077   1.456   3.675
  771TIP3   OH2 2257   8.294   7.333   0.846
  771TIP3    H1 2258   8.215   7.339   0.792
  771TIP3    H2 2259   8.282   7.399   0.914
  772TIP3   OH2 2260   1.962   1.844   5.223
  772TIP3    H1 2261   2.043   1.818   5.268
  772TIP3    H2 2262   1.918   1.901   5.285
  773TIP3   OH2 2263   2.766   6.297   5.386
  773TIP3    H1 2264   2.848   6.248   5.398
  773TIP3    H2 2265   2.703   6.231   5.357
  774TIP3   OH2 2266   3.187   6.708   0.629
  774TIP3    H1 2267   3.114   6.661   0.670
  774TIP3    H2 2268   3.255   6.642   0.618
  775TIP3   OH2 2269   4.705   6.682   5.152
  775TIP3    H1 2270   4.748   6.731   5.082
  775TIP3    H2 2271   4.705   6.741   5.227
  776TIP3   OH2 2272   1.808   7.473   0.161
  776TIP3    H1 2273   1.723   7.518   0.159
  776TIP3    H2 2274   1.815   7.441   0.251
  777TIP3   OH2 2275   3.407   0.450   3.978
  777TIP3    H1 2276   3.381   0.540   3.995
  777TIP3    H2 2277   3.326   0.406   3.951
  778TIP3   OH2 2278   5.299   7.616   5.888
  778TIP3    H1 2279   5.256   7.652   5.965
  778TIP3    H2 2280   5.323   7.527   5.913
  779TIP3   OH2 2281   1.642   7.018   0.313
  779TIP3    H1 2282   1.685   6.934   0.297
  779TIP3    H2 2283   1.549   6.995   0.326
  780TIP3   OH2 2284   5.309   0.924   2.514
  780TIP3    H1 2285   5.228   0.911   2.466
  780TIP3    H2 2286   5.282   0.933   2.605
  781TIP3   OH2 2287   7.546   0.327   4.491
  781TIP3    H1 2288   7.596   0.249   4.467
  781TIP3    H2 2289   7.599   0.400   4.458
  782TIP3   OH2 2290   0.452   7.795   0.978
  782TIP3    H1 2291   0.494   7.875   0.945
  782TIP3    H2 2292   0.445   7.809   1.072
  783TIP3   OH2 2293   1.913   0.849   1.924
  783TIP3    H1 2294   1.925   0.864   2.018
  783TIP3    H2 2295   1.957   0.923   1.882
  784TIP3   OH2 2296   4.855   4.478   4.267
  784TIP3    H1 2297   4.808   4.463   4.185
  784TIP3    H2 2298   4.830   4.403   4.322
  785TIP3   OH2 2299   1.049   2.966   3.127
  785TIP3    H1 2300   1.008   3.052   3.121
  785TIP3    H2 2301   1.102   2.959   3.047
  786TIP3   OH2 2302   6.720   2.137   1.268
  786TIP3    H1 2303   6.653   2.202   1.248
  786TIP3    H2 2304   6.680   2.082   1.335
  787TIP3   OH2 2305   7.236   4.270   3.319
  787TIP3    H1 2306   7.202   4.357   3.298
  787TIP3    H2 2307   7.248   4.228   3.234
  788TIP3   OH2 2308   3.712   3.329   4.430
  788TIP3    H1 2309   3.699   3.414   4.473
  788TIP3    H2 2310   3.782   3.345   4.368
  789TIP3   OH2 2311   5.847   0.167   1.691
  789TIP3    H1 2312   5.756   0.188   1.712
  789TIP3    H2 2313   5.856   0.190   1.598
  790TIP3   OH2 2314   4.824   4.828   5.755
  790TIP3    H1 2315   4.790   4.917   5.753
  790TIP3    H2 2316   4.892   4.826   5.689
  791TIP3   OH2 2317   2.743   7.360   0.782
  791TIP3    H1 2318   2.676   7.307   0.825
  791TIP3    H2 2319   2.811   7.372   0.849
  792TIP3   OH2 2320   3.654   2.406   5.530
  792TIP3    H1 2321   3.713   2.337   5.563
  792TIP3    H2 2322   3.712   2.467   5.484
  793TIP3   OH2 2323   2.461   7.838   2.254
  793TIP3    H1 2324   2.501   7.764   2.299
  793TIP3    H2 2325   2.472   7.819   2.161
  794TIP3   OH2 2326   4.863   1.635   0.274
  794TIP3    H1 2327   4.813   1.626   0.355
  794TIP3    H2 2328   4.954   1.640   0.302
  795TIP3   OH2 2329   5.171   5.126   4.479
  795TIP3    H1 2330   5.089   5.093   4.442
  795TIP3    H2 2331   5.150   5.148   4.570
  796TIP3   OH2 2332   2.393   2.886   2.597
  796TIP3    H1 2333   2.326   2.819   2.584
  796TIP3    H2 2334   2.380   2.948   2.525
  797TIP3   OH2 2335   4.149   3.808   3.281
  797TIP3    H1 2336   4.140   3.847   3.368
  797TIP3    H2 2337   4.169   3.716   3.298
  798TIP3   OH2 2338   1.640   1.492   6.593
  798TIP3    H1 2339   1.626   1.493   6.687
  798TIP3    H2 2340   1.733   1.473   6.582
  799TIP3   OH2 2341   4.178   4.877   1.144
  799TIP3    H1 2342   4.171   4.785   1.171
  799TIP3    H2 2343   4.269   4.900   1.162
  800TIP3   OH2 2344   4.833   4.663   6.505
  800TIP3    H1 2345   4.772   4.627   6.440
  800TIP3    H2 2346   4.909   4.692   6.454
  801TIP3   OH2 2347   7.935   7.366   0.428
  801TIP3    H1 2348   7.972   7.450   0.403
  801TIP3    H2 2349   8.008   7.304   0.420
  802TIP3   OH2 2350   6.326   4.441   5.373
  802TIP3    H1 2351   6.406   4.482   5.341
  802TIP3    H2 2352   6.346   4.414   5.462
  803TIP3   OH2 2353   1.792   3.997   0.946
  803TIP3    H1 2354   1.852   4.055   0.899
  803TIP3    H2 2355   1.719   4.053   0.972
  804TIP3   OH2 2356   1.385   6.953   0.280
  804TIP3    H1 2357   1.299   6.949   0.321
  804TIP3    H2 2358   1.393   7.044   0.251
  805TIP3   OH2 2359   2.146   3.306   0.777
  805TIP3    H1 2360   2.186   3.350   0.702
  805TIP3    H2 2361   2.184   3.349   0.854
  806TIP3   OH2 2362   4.406   1.433   5.623
  806TIP3    H1 2363   4.435   1.476   5.703
  806TIP3    H2 2364   4.328   1.480   5.596
  807TIP3   OH2 2365   4.106   5.102   3.046
  807TIP3    H1 2366   4.187   5.058   3.020
  807TIP3    H2 2367   4.135   5.173   3.104
  808TIP3   OH2 2368   7.421   3.807   0.746
  808TIP3    H1 2369   7.371   3.883   0.716
  808TIP3    H2 2370   7.403   3.740   0.680
  809TIP3   OH2 2371   3.691   5.745   3.372
  809TIP3    H1 2372   3.606   5.716   3.404
  809TIP3    H2 2373   3.671   5.797   3.294
  810TIP3   OH2 2374   6.167   4.541   3.799
  810TIP3    H1 2375   6.205   4.579   3.878
  810TIP3    H2 2376   6.171   4.611   3.734
  811TIP3   OH2 2377   6.524   1.379   3.392
  811TIP3    H1 2378   6.437   1.340   3.406
  811TIP3    H2 2379   6.536   1.377   3.297
  812TIP3   OH2 2380   5.440   1.868   0.884
  812TIP3    H1 2381   5.362   1.881   0.831
  812TIP3    H2 2382   5.410   1.876   0.975
  813TIP3   OH2 2383   1.204   3.625   3.371
  813TIP3    H1 2384   1.222   3.644   3.279
  813TIP3    H2 2385   1.248   3.541   3.387
  814TIP3   OH2 2386   1.750   2.328   6.690
  814TIP3    H1 2387   1.753   2.396   6.758
  814TIP3    H2 2388   1.704   2.255   6.731
  815TIP3   OH2 2389   1.862   0.672   6.418
  815TIP3    H1 2390   1.783   0.622   6.397
  815TIP3    H2 2391   1.902   0.691   6.333
  816TIP3   OH2 2392   5.170   4.175   3.706
  816TIP3    H1 2393   5.102   4.136   3.653
  816TIP3    H2 2394   5.250   4.130   3.681
  817TIP3   OH2 2395   3.216   5.563   6.473
  817TIP3    H1 2396   3.231   5.540   6.565
  817TIP3    H2 2397   3.256   5.649   6.463
  818TIP3   OH2 2398   7.442   4.614   2.634
  818TIP3    H1 2399   7.522   4.594   2.586
  818TIP3    H2 2400   7.468   4.683   2.695
  819TIP3   OH2 2401   3.464   1.300   6.500
  819TIP3    H1 2402   3.526   1.228   6.500
  819TIP3    H2 2403   3.488   1.353   6.424
  820TIP3   OH2 2404   7.327   7.181   4.975
  820TIP3    H1 2405   7.258   7.118   4.954
  820TIP3    H2 2406   7.395   7.128   5.018
  821TIP3   OH2 2407   1.324   7.379   1.100
  821TIP3    H1 2408   1.332   7.359   1.193
  821TIP3    H2 2409   1.230   7.393   1.086
  822TIP3   OH2 2410   0.369   0.233   1.257
  822TIP3    H1 2411   0.282   0.194   1.250
  822TIP3    H2 2412   0.425   0.162   1.289
  823TIP3   OH2 2413   1.341   1.014   4.182
  823TIP3    H1 2414   1.301   1.044   4.100
  823TIP3    H2 2415   1.339   0.919   4.177
  824TIP3   OH2 2416   3.294   0.199   3.892
  824TIP3    H1 2417   3.242   0.158   3.961
  824TIP3    H2 2418   3.365   0.137   3.876
  825TIP3   OH2 2419   4.825   1.801   4.422
  825TIP3    H1 2420   4.836   1.721   4.370
  825TIP3    H2 2421   4.825   1.772   4.513
  826TIP3   OH2 2422   7.194   1.894   1.099
  826TIP3    H1 2423   7.288   1.888   1.082
  826TIP3    H2 2424   7.160   1.945   1.026
  827TIP3   OH2 2425   3.253   7.136   3.494
  827TIP3    H1 2426   3.299   7.215   3.523
  827TIP3    H2 2427   3.177   7.131   3.551
  828TIP3   OH2 2428   2.319   5.090   0.502
  828TIP3    H1 2429   2.410   5.117   0.499
  828TIP3    H2 2430   2.292   5.107   0.593
  829TIP3   OH2 2431   4.251   4.247   4.938
  829TIP3    H1 2432   4.219   4.158   4.927
  829TIP3    H2 2433   4.326   4.239   4.997
  830TIP3   OH2 2434   4.929   0.617   1.146
  830TIP3    H1 2435   4.928   0.676   1.070
  830TIP3    H2 2436   5.016   0.578   1.145
  831TIP3   OH2 2437   5.689   6.827   4.787
  831TIP3    H1 2438   5.727   6.757   4.734
  831TIP3    H2 2439   5.608   6.850   4.741
  832TIP3   OH2 2440   1.506   0.842   2.447
  832TIP3    H1 2441   1.577   0.895   2.484
  832TIP3    H2 2442   1.432   0.902   2.442
  833TIP3   OH2 2443   2.362   3.403   0.984
  833TIP3    H1 2444   2.350   3.497   0.967
  833TIP3    H2 2445   2.455   3.387   0.966
  834TIP3   OH2 2446   3.215   4.918   2.528
  834TIP3    H1 2447   3.222   4.846   2.591
  834TIP3    H2 2448   3.207   4.875   2.443
  835TIP3   OH2 2449   5.309   7.660   4.500
  835TIP3    H1 2450   5.296   7.727   4.567
  835TIP3    H2 2451   5.326   7.710   4.420
  836TIP3   OH2 2452   0.429   1.556   3.907
  836TIP3    H1 2453   0.487   1.498   3.859
  836TIP3    H2 2454   0.344   1.547   3.863
  837TIP3   OH2 2455   0.971   2.248   0.572
  837TIP3    H1 2456   0.889   2.202   0.550
  837TIP3    H2 2457   1.031   2.179   0.599
  838TIP3   OH2 2458   7.421   0.005   0.160
  838TIP3    H1 2459   7.402  -0.031   0.073
  838TIP3    H2 2460   7.480   0.078   0.143
  839TIP3   OH2 2461   4.015   3.327   0.458
  839TIP3    H1 2462   4.039   3.367   0.541
  839TIP3    H2 2463   4.066   3.376   0.392
  840TIP3   OH2 2464   7.037   1.692   4.910
  840TIP3    H1 2465   7.043   1.782   4.879
  840TIP3    H2 2466   7.111   1.682   4.970
  841TIP3   OH2 2467   6.737   2.189   5.139
  841TIP3    H1 2468   6.796   2.252   5.181
  841TIP3    H2 2469   6.742   2.112   5.196
  842TIP3   OH2 2470   4.273   5.027   0.657
  842TIP3    H1 2471   4.260   5.112   0.615
  842TIP3    H2 2472   4.186   4.987   0.656
  843TIP3   OH2 2473   1.359   0.690   1.539
  843TIP3    H1 2474   1.347   0.710   1.446
  843TIP3    H2 2475   1.271   0.688   1.575
  844TIP3   OH2 2476   0.994   5.556   3.845
  844TIP3    H1 2477   1.006   5.561   3.940
  844TIP3    H2 2478   1.068   5.505   3.814
  845TIP3   OH2 2479   5.030   1.796   1.708
  845TIP3    H1 2480   5.098   1.791   1.775
  845TIP3    H2 2481   4.948   1.789   1.757
  846TIP3   OH2 2482   1.181   6.299   2.484
  846TIP3    H1 2483   1.119   6.327   2.552
  846TIP3    H2 2484   1.267   6.318   2.521
  847TIP3   OH2 2485   7.854   4.878   2.654
  847TIP3    H1 2486   7.926   4.841   2.602
  847TIP3    H2 2487   7.864   4.838   2.740
  848TIP3   OH2 2488   4.116   0.338   4.705
  848TIP3    H1 2489   4.026   0.310   4.689
  848TIP3    H2 2490   4.139   0.390   4.628
  849TIP3   OH2 2491   0.795   1.573   4.817
  849TIP3    H1 2492   0.706   1.568   4.784
  849TIP3    H2 2493   0.803   1.663   4.850
  850TIP3   OH2 2494   4.209   5.733   1.769
  850TIP3    H1 2495   4.197   5.818   1.727
  850TIP3    H2 2496   4.248   5.678   1.701
  851TIP3   OH2 2497   7.455   3.349   1.262
  851TIP3    H1 2498   7.500   3.431   1.241
  851TIP3    H2 2499   7.415   3.321   1.179
  852TIP3   OH2 2500   3.797   6.058   0.463
  852TIP3    H1 2501   3.836   6.135   0.422
  852TIP3    H2 2502   3.871   6.011   0.502
  853TIP3   OH2 2503   0.051   3.844   2.050
  853TIP3    H1 2504   0.014   3.758   2.068
  853TIP3    H2 2505   0.050   3.888   2.135
  854TIP3   OH2 2506   2.067   0.451   5.724
  854TIP3    H1 2507   2.117   0.376   5.755
  854TIP3    H2 2508   1.977   0.418   5.716
  855TIP3   OH2 2509   0.155   3.607   5.248
  855TIP3    H1 2510   0.159   3.511   5.251
  855TIP3    H2 2511   0.068   3.625   5.211
  856TIP3   OH2 2512   7.580   5.209   3.901
  856TIP3    H1 2513   7.641   5.280   3.922
  856TIP3    H2 2514   7.551   5.176   3.986
  857TIP3   OH2 2515   0.775   0.860   3.867
  857TIP3    H1 2516   0.711   0.883   3.935
  857TIP3    H2 2517   0.860   0.878   3.907
  858TIP3   OH2 2518   7.486   2.997   0.522
  858TIP3    H1 2519   7.444   2.917   0.492
  858TIP3    H2 2520   7.495   3.051   0.442
  859TIP3   OH2 2521   6.095   7.567   2.657
  859TIP3    H1 2522   6.163   7.512   2.618
  859TIP3    H2 2523   6.056   7.614   2.583
  860TIP3   OH2 2524   5.088   6.339   3.498
  860TIP3    H1 2525   5.154   6.270   3.496
  860TIP3    H2 2526   5.064   6.346   3.590
  861TIP3   OH2 2527   4.292   1.558   0.620
  861TIP3    H1 2528   4.213   1.601   0.652
  861TIP3    H2 2529   4.316   1.497   0.689
  862TIP3   OH2 2530   5.545   3.234   0.470
  862TIP3    H1 2531   5.503   3.157   0.432
  862TIP3    H2 2532   5.555   3.212   0.563
  863TIP3   OH2 2533   8.186   6.345   6.238
  863TIP3    H1 2534   8.193   6.437   6.214
  863TIP3    H2 2535   8.270   6.307   6.213
  864TIP3   OH2 2536   5.578   3.610   0.856
  864TIP3    H1 2537   5.654   3.582   0.805
  864TIP3    H2 2538   5.615   3.642   0.939
  865TIP3   OH2 2539   4.713   1.049   4.892
  865TIP3    H1 2540   4.638   0.991   4.894
  865TIP3    H2 2541   4.760   1.025   4.812
  866TIP3   OH2 2542   4.524   7.429   4.767
  866TIP3    H1 2543   4.512   7.466   4.855
  866TIP3    H2 2544   4.456   7.362   4.760
  867TIP3   OH2 2545   8.252   2.072   2.597
  867TIP3    H1 2546   8.218   2.006   2.657
  867TIP3    H2 2547   8.174   2.121   2.570
  868TIP3   OH2 2548   2.199   3.826   0.050
  868TIP3    H1 2549   2.205   3.920   0.068
  868TIP3    H2 2550   2.106   3.810   0.036
  869TIP3   OH2 2551   8.090   1.470   5.163
  869TIP3    H1 2552   8.029   1.509   5.225
  869TIP3    H2 2553   8.175   1.475   5.207
  870TIP3   OH2 2554   7.650  -0.001   1.786
  870TIP3    H1 2555   7.679   0.084   1.753
  870TIP3    H2 2556   7.559   0.014   1.813
  871TIP3   OH2 2557   3.929   0.481   3.634
  871TIP3    H1 2558   3.947   0.386   3.633
  871TIP3    H2 2559   3.975   0.514   3.556
  872TIP3   OH2 2560   3.526   0.650   4.630
  872TIP3    H1 2561   3.524   0.591   4.705
  872TIP3    H2 2562   3.560   0.732   4.666
  873TIP3   OH2 2563   7.322   3.083   0.732
  873TIP3    H1 2564   7.297   2.995   0.761
  873TIP3    H2 2565   7.376   3.068   0.654
  874TIP3   OH2 2566   3.281   5.123   5.982
  874TIP3    H1 2567   3.267   5.206   6.027
  874TIP3    H2 2568   3.313   5.146   5.896
  875TIP3   OH2 2569   4.324   5.482   2.165
  875TIP3    H1 2570   4.379   5.500   2.089
  875TIP3    H2 2571   4.251   5.430   2.130
  876TIP3   OH2 2572   3.440   7.068   2.663
  876TIP3    H1 2573   3.445   7.110   2.577
  876TIP3    H2 2574   3.352   7.029   2.666
  877TIP3   OH2 2575   1.379   1.783   5.287
  877TIP3    H1 2576   1.311   1.745   5.231
  877TIP3    H2 2577   1.335   1.799   5.371
  878TIP3   OH2 2578   5.142   1.689   4.721
  878TIP3    H1 2579   5.085   1.628   4.674
  878TIP3    H2 2580   5.227   1.647   4.722
  879TIP3   OH2 2581   0.762   4.905   4.872
  879TIP3    H1 2582   0.679   4.898   4.919
  879TIP3    H2 2583   0.795   4.815   4.868
  880TIP3   OH2 2584   3.990   4.946   1.511
  880TIP3    H1 2585   4.020   5.000   1.584
  880TIP3    H2 2586   4.049   4.967   1.438
  881TIP3   OH2 2587   4.177   0.710   2.552
  881TIP3    H1 2588   4.189   0.683   2.461
  881TIP3    H2 2589   4.139   0.798   2.546
  882TIP3   OH2 2590   7.667   2.022   4.059
  882TIP3    H1 2591   7.627   1.948   4.013
  882TIP3    H2 2592   7.647   2.098   4.004
  883TIP3   OH2 2593   6.308   6.193   5.013
  883TIP3    H1 2594   6.347   6.249   4.946
  883TIP3    H2 2595   6.246   6.249   5.058
  884TIP3   OH2 2596   4.757   5.488   5.085
  884TIP3    H1 2597   4.842   5.481   5.041
  884TIP3    H2 2598   4.701   5.532   5.022
  885TIP3   OH2 2599   8.102   0.146   0.854
  885TIP3    H1 2600   8.041   0.156   0.781
  885TIP3    H2 2601   8.046   0.149   0.932
  886TIP3   OH2 2602   4.364   7.197   5.806
  886TIP3    H1 2603   4.449   7.230   5.837
  886TIP3    H2 2604   4.384   7.151   5.725
  887TIP3   OH2 2605   2.720   7.588   4.876
  887TIP3    H1 2606   2.686   7.644   4.806
  887TIP3    H2 2607   2.813   7.579   4.855
  888TIP3   OH2 2608   5.924   1.060   3.398
  888TIP3    H1 2609   6.000   1.012   3.431
  888TIP3    H2 2610   5.903   1.018   3.315
  889TIP3   OH2 2611   4.825   1.593   4.203
  889TIP3    H1 2612   4.768   1.596   4.126
  889TIP3    H2 2613   4.910   1.624   4.171
  890TIP3   OH2 2614   6.937   2.472   0.947
  890TIP3    H1 2615   6.967   2.385   0.921
  890TIP3    H2 2616   7.009   2.507   1.000
  891TIP3   OH2 2617   4.134   2.425   6.252
  891TIP3    H1 2618   4.107   2.501   6.303
  891TIP3    H2 2619   4.127   2.351   6.313
  892TIP3   OH2 2620   5.886   7.604   6.368
  892TIP3    H1 2621   5.929   7.612   6.283
  892TIP3    H2 2622   5.803   7.652   6.358
  893TIP3   OH2 2623   3.277   2.427   2.261
  893TIP3    H1 2624   3.365   2.450   2.291
  893TIP3    H2 2625   3.288   2.343   2.217
  894TIP3   OH2 2626   3.244   2.219   1.797
  894TIP3    H1 2627   3.260   2.303   1.841
  894TIP3    H2 2628   3.149   2.211   1.795
  895TIP3   OH2 2629   7.773   1.792   2.315
  895TIP3    H1 2630   7.787   1.833   2.401
  895TIP3    H2 2631   7.815   1.852   2.254
  896TIP3   OH2 2632   4.453   7.142   6.427
  896TIP3    H1 2633   4.397   7.088   6.372
  896TIP3    H2 2634   4.541   7.129   6.391
  897TIP3   OH2 2635   3.036   7.537   0.405
  897TIP3    H1 2636   3.116   7.586   0.427
  897TIP3    H2 2637   3.008   7.498   0.488
  898TIP3   OH2 2638   5.421   5.849   2.772
  898TIP3    H1 2639   5.499   5.816   2.816
  898TIP3    H2 2640   5.353   5.848   2.841
  899TIP3   OH2 2641   3.802   4.208   0.669
  899TIP3    H1 2642   3.830   4.298   0.682
  899TIP3    H2 2643   3.706   4.212   0.669
  900TIP3   OH2 2644   0.329   3.676   1.695
  900TIP3    H1 2645   0.407   3.721   1.727
  900TIP3    H2 2646   0.338   3.587   1.729
  901TIP3   OH2 2647   0.264   5.235   6.263
  901TIP3    H1 2648   0.240   5.312   6.211
  901TIP3    H2 2649   0.190   5.223   6.323
  902TIP3   OH2 2650   2.705   2.800   1.654
  902TIP3    H1 2651   2.645   2.743   1.606
  902TIP3    H2 2652   2.648   2.855   1.707
  903TIP3   OH2 2653   0.619   5.779   3.239
  903TIP3    H1 2654   0.707   5.743   3.256
  903TIP3    H2 2655   0.594   5.820   3.321
  904TIP3   OH2 2656   8.011   3.698   4.400
  904TIP3    H1 2657   7.978   3.616   4.364
  904TIP3    H2 2658   7.959   3.714   4.478
  905TIP3   OH2 2659   1.105   6.703   3.346
  905TIP3    H1 2660   1.169   6.636   3.323
  905TIP3    H2 2661   1.025   6.677   3.301
  906TIP3   OH2 2662   2.410   5.330   5.915
  906TIP3    H1 2663   2.479   5.360   5.974
  906TIP3    H2 2664   2.381   5.410   5.870
  907TIP3   OH2 2665   1.604   2.595   1.644
  907TIP3    H1 2666   1.643   2.640   1.719
  907TIP3    H2 2667   1.617   2.655   1.571
  908TIP3   OH2 2668   1.815   3.003   5.373
  908TIP3    H1 2669   1.866   2.984   5.295
  908TIP3    H2 2670   1.875   2.984   5.446
  909TIP3   OH2 2671   2.539   3.209   1.919
  909TIP3    H1 2672   2.502   3.297   1.919
  909TIP3    H2 2673   2.592   3.206   1.999
  910TIP3   OH2 2674   4.282   1.914   2.950
  910TIP3    H1 2675   4.233   1.970   3.009
  910TIP3    H2 2676   4.219   1.889   2.883
  911TIP3   OH2 2677   4.032   7.489   2.953
  911TIP3    H1 2678   4.007   7.467   2.864
  911TIP3    H2 2679   4.122   7.458   2.962
  912TIP3   OH2 2680   6.286   2.811   5.800
  912TIP3    H1 2681   6.297   2.904   5.821
  912TIP3    H2 2682   6.368   2.786   5.759
  913TIP3   OH2 2683   7.156   7.084   3.087
  913TIP3    H1 2684   7.144   7.065   3.180
  913TIP3    H2 2685   7.169   7.179   3.083
  914TIP3   OH2 2686   0.490   6.731   3.338
  914TIP3    H1 2687   0.549   6.657   3.326
  914TIP3    H2 2688   0.548   6.807   3.342
  915TIP3   OH2 2689   2.106   0.081   2.088
  915TIP3    H1 2690   2.049   0.155   2.070
  915TIP3    H2 2691   2.055   0.004   2.060
  916TIP3   OH2 2692   7.163   7.403   0.019
  916TIP3    H1 2693   7.242   7.424   0.070
  916TIP3    H2 2694   7.133   7.320   0.056
  917TIP3   OH2 2695   0.492   0.372   1.872
  917TIP3    H1 2696   0.568   0.315   1.862
  917TIP3    H2 2697   0.481   0.381   1.967
  918TIP3   OH2 2698   0.969   4.676   6.707
  918TIP3    H1 2699   0.927   4.626   6.637
  918TIP3    H2 2700   1.014   4.610   6.760
  919TIP3   OH2 2701   7.922   3.565   3.112
  919TIP3    H1 2702   7.910   3.503   3.184
  919TIP3    H2 2703   8.000   3.616   3.136
  920TIP3   OH2 2704   7.474   3.727   5.441
  920TIP3    H1 2705   7.531   3.802   5.428
  920TIP3    H2 2706   7.444   3.735   5.532
  921TIP3   OH2 2707   4.853   3.119   0.737
  921TIP3    H1 2708   4.907   3.107   0.815
  921TIP3    H2 2709   4.786   3.051   0.743
  922TIP3   OH2 2710   7.145   2.909   4.515
  922TIP3    H1 2711   7.218   2.971   4.515
  922TIP3    H2 2712   7.165   2.850   4.442
  923TIP3   OH2 2713   3.681   3.867   5.182
  923TIP3    H1 2714   3.604   3.826   5.142
  923TIP3    H2 2715   3.701   3.942   5.126
  924TIP3   OH2 2716   6.882   4.106   2.902
  924TIP3    H1 2717   6.888   4.158   2.982
  924TIP3    H2 2718   6.788   4.095   2.887
  925TIP3   OH2 2719   5.332   3.198   1.755
  925TIP3    H1 2720   5.250   3.151   1.771
  925TIP3    H2 2721   5.321   3.282   1.799
  926TIP3   OH2 2722   3.423   0.883   5.518
  926TIP3    H1 2723   3.514   0.907   5.534
  926TIP3    H2 2724   3.376   0.967   5.516
  927TIP3   OH2 2725   6.211   5.442   1.946
  927TIP3    H1 2726   6.163   5.442   2.029
  927TIP3    H2 2727   6.278   5.510   1.956
  928TIP3   OH2 2728   5.465   0.401   4.780
  928TIP3    H1 2729   5.543   0.429   4.828
  928TIP3    H2 2730   5.498   0.334   4.719
  929TIP3   OH2 2731   3.519   4.267   2.651
  929TIP3    H1 2732   3.557   4.232   2.732
  929TIP3    H2 2733   3.585   4.252   2.584
  930TIP3   OH2 2734   2.407   4.324   2.495
  930TIP3    H1 2735   2.445   4.256   2.551
  930TIP3    H2 2736   2.339   4.280   2.446
  931TIP3   OH2 2737   8.020   4.850   6.461
  931TIP3    H1 2738   7.953   4.914   6.435
  931TIP3    H2 2739   8.050   4.811   6.379
  932TIP3   OH2 2740   7.955   6.776   2.652
  932TIP3    H1 2741   7.959   6.685   2.623
  932TIP3    H2 2742   7.873   6.809   2.617
  933TIP3   OH2 2743   6.922   6.344   0.398
  933TIP3    H1 2744   7.010   6.360   0.430
  933TIP3    H2 2745   6.910   6.407   0.327
  934TIP3   OH2 2746   7.671   0.491   2.578
  934TIP3    H1 2747   7.754   0.448   2.594
  934TIP3    H2 2748   7.606   0.433   2.617
  935TIP3   OH2 2749   0.120   5.492   6.657
  935TIP3    H1 2750   0.103   5.585   6.671
  935TIP3    H2 2751   0.098   5.451   6.741
  936TIP3   OH2 2752   4.100   0.511   2.307
  936TIP3    H1 2753   4.166   0.445   2.286
  936TIP3    H2 2754   4.017   0.470   2.283
  937TIP3   OH2 2755   7.732   1.815   0.899
  937TIP3    H1 2756   7.804   1.761   0.865
  937TIP3    H2 2757   7.662   1.804   0.834
  938TIP3   OH2 2758   2.176   6.359   6.687
  938TIP3    H1 2759   2.266   6.327   6.686
  938TIP3    H2 2760   2.174   6.427   6.619
  939TIP3   OH2 2761   8.206   0.756   6.599
  939TIP3    H1 2762   8.149   0.831   6.616
  939TIP3    H2 2763   8.146   0.686   6.574
  940TIP3   OH2 2764   3.264   5.223   0.974
  940TIP3    H1 2765   3.279   5.271   1.055
  940TIP3    H2 2766   3.223   5.141   1.002
  941TIP3   OH2 2767   5.371   2.878   2.849
  941TIP3    H1 2768   5.459   2.886   2.813
  941TIP3    H2 2769   5.320   2.944   2.801
  942TIP3   OH2 2770   6.930   4.708   6.406
  942TIP3    H1 2771   6.992   4.637   6.420
  942TIP3    H2 2772   6.968   4.760   6.336
  943TIP3   OH2 2773   0.073   0.680   5.249
  943TIP3    H1 2774   0.145   0.617   5.248
  943TIP3    H2 2775   0.065   0.708   5.158
  944TIP3   OH2 2776   3.967   3.750   1.868
  944TIP3    H1 2777   3.920   3.680   1.912
  944TIP3    H2 2778   3.953   3.827   1.923
  945TIP3   OH2 2779   4.983   2.231   5.547
  945TIP3    H1 2780   4.980   2.321   5.578
  945TIP3    H2 2781   4.895   2.197   5.562
  946TIP3   OH2 2782   6.662   1.543   2.923
  946TIP3    H1 2783   6.612   1.498   2.856
  946TIP3    H2 2784   6.605   1.614   2.952
  947TIP3   OH2 2785   6.455   1.569   4.067
  947TIP3    H1 2786   6.450   1.570   3.972
  947TIP3    H2 2787   6.478   1.479   4.090
  948TIP3   OH2 2788   0.577   6.903   2.592
  948TIP3    H1 2789   0.526   6.830   2.557
  948TIP3    H2 2790   0.565   6.973   2.527
  949TIP3   OH2 2791   8.158   3.750   3.232
  949TIP3    H1 2792   8.213   3.718   3.162
  949TIP3    H2 2793   8.213   3.814   3.278
  950TIP3   OH2 2794   0.733   5.339   2.493
  950TIP3    H1 2795   0.666   5.273   2.505
  950TIP3    H2 2796   0.696   5.419   2.531
  951TIP3   OH2 2797   3.787   6.638   2.846
  951TIP3    H1 2798   3.809   6.555   2.804
  951TIP3    H2 2799   3.781   6.617   2.940
  952TIP3   OH2 2800   4.693   5.652   3.653
  952TIP3    H1 2801   4.702   5.612   3.566
  952TIP3    H2 2802   4.753   5.726   3.651
  953TIP3   OH2 2803   4.666   7.277   6.556
  953TIP3    H1 2804   4.593   7.230   6.516
  953TIP3    H2 2805   4.683   7.231   6.638
  954TIP3   OH2 2806   4.695   5.708   2.161
  954TIP3    H1 2807   4.675   5.682   2.071
  954TIP3    H2 2808   4.622   5.765   2.186
  955TIP3   OH2 2809   1.845   4.637   2.780
  955TIP3    H1 2810   1.774   4.690   2.814
  955TIP3    H2 2811   1.836   4.553   2.825
  956TIP3   OH2 2812   3.865   6.728   5.226
  956TIP3    H1 2813   3.807   6.651   5.225
  956TIP3    H2 2814   3.941   6.701   5.175
  957TIP3   OH2 2815   5.918   4.970   6.283
  957TIP3    H1 2816   5.989   5.021   6.246
  957TIP3    H2 2817   5.950   4.880   6.283
  958TIP3   OH2 2818   0.345   2.135   3.925
  958TIP3    H1 2819   0.292   2.083   3.986
  958TIP3    H2 2820   0.305   2.119   3.840
  959TIP3   OH2 2821   0.404   4.468   5.342
  959TIP3    H1 2822   0.449   4.468   5.427
  959TIP3    H2 2823   0.386   4.376   5.325
  960TIP3   OH2 2824   5.374   4.749   1.973
  960TIP3    H1 2825   5.314   4.800   2.027
  960TIP3    H2 2826   5.337   4.661   1.972
  961TIP3   OH2 2827   5.870   3.384   2.411
  961TIP3    H1 2828   5.864   3.359   2.319
  961TIP3    H2 2829   5.924   3.315   2.450
  962TIP3   OH2 2830   7.358   1.164   3.718
  962TIP3    H1 2831   7.400   1.201   3.795
  962TIP3    H2 2832   7.316   1.238   3.675
  963TIP3   OH2 2833   6.827   7.600   3.152
  963TIP3    H1 2834   6.776   7.607   3.233
  963TIP3    H2 2835   6.808   7.512   3.119
  964TIP3   OH2 2836   0.859   4.004   0.823
  964TIP3    H1 2837   0.807   3.923   0.822
  964TIP3    H2 2838   0.887   4.016   0.732
  965TIP3   OH2 2839   7.553   5.394   0.653
  965TIP3    H1 2840   7.526   5.307   0.682
  965TIP3    H2 2841   7.490   5.453   0.694
  966TIP3   OH2 2842   5.731   3.054   1.714
  966TIP3    H1 2843   5.782   3.006   1.649
  966TIP3    H2 2844   5.716   3.140   1.674
  967TIP3   OH2 2845   4.329   5.128   5.275
  967TIP3    H1 2846   4.289   5.106   5.191
  967TIP3    H2 2847   4.299   5.059   5.335
  968TIP3   OH2 2848   3.744   4.270   4.256
  968TIP3    H1 2849   3.746   4.344   4.196
  968TIP3    H2 2850   3.767   4.307   4.341
  969TIP3   OH2 2851   8.143   6.970   6.118
  969TIP3    H1 2852   8.089   7.045   6.142
  969TIP3    H2 2853   8.145   6.915   6.196
  970TIP3   OH2 2854   3.650   0.628   0.475
  970TIP3    H1 2855   3.637   0.560   0.409
  970TIP3    H2 2856   3.716   0.686   0.437
  971TIP3   OH2 2857   3.003   4.691   1.505
  971TIP3    H1 2858   3.086   4.680   1.460
  971TIP3    H2 2859   2.962   4.605   1.503
  972TIP3   OH2 2860   5.088   5.038   1.119
  972TIP3    H1 2861   5.005   5.015   1.162
  972TIP3    H2 2862   5.071   5.021   1.026
  973TIP3   OH2 2863   3.330   3.346   5.443
  973TIP3    H1 2864   3.303   3.383   5.526
  973TIP3    H2 2865   3.348   3.422   5.387
  974TIP3   OH2 2866   6.437   7.210   5.524
  974TIP3    H1 2867   6.401   7.121   5.532
  974TIP3    H2 2868   6.438   7.243   5.614
  975TIP3   OH2 2869   2.380   6.280   2.533
  975TIP3    H1 2870   2.451   6.226   2.569
  975TIP3    H2 2871   2.408   6.299   2.444
  976TIP3   OH2 2872   5.924   6.234   4.260
  976TIP3    H1 2873   5.918   6.263   4.351
  976TIP3    H2 2874   5.847   6.179   4.247
  977TIP3   OH2 2875   0.614   1.970   2.105
  977TIP3    H1 2876   0.535   1.937   2.148
  977TIP3    H2 2877   0.646   1.897   2.053
  978TIP3   OH2 2878   7.587   5.080   1.973
  978TIP3    H1 2879   7.522   5.020   1.935
  978TIP3    H2 2880   7.663   5.025   1.992
  979TIP3   OH2 2881   7.807   5.506   0.719
  979TIP3    H1 2882   7.725   5.460   0.698
  979TIP3    H2 2883   7.836   5.467   0.801
  980TIP3   OH2 2884   3.239   4.100   2.652
  980TIP3    H1 2885   3.320   4.120   2.699
  980TIP3    H2 2886   3.231   4.170   2.587
  981TIP3   OH2 2887   0.666   2.535   2.152
  981TIP3    H1 2888   0.753   2.504   2.124
  981TIP3    H2 2889   0.683   2.618   2.195
  982TIP3   OH2 2890   6.284   3.837   6.061
  982TIP3    H1 2891   6.325   3.800   5.983
  982TIP3    H2 2892   6.196   3.860   6.034
  983TIP3   OH2 2893   0.523   6.387   0.251
  983TIP3    H1 2894   0.517   6.437   0.333
  983TIP3    H2 2895   0.469   6.437   0.189
  984TIP3   OH2 2896   5.181   3.828   0.094
  984TIP3    H1 2897   5.174   3.775   0.014
  984TIP3    H2 2898   5.147   3.771   0.163
  985TIP3   OH2 2899   7.705   5.826   6.086
  985TIP3    H1 2900   7.683   5.874   6.166
  985TIP3    H2 2901   7.800   5.816   6.090
  986TIP3   OH2 2902   2.588   5.758   0.279
  986TIP3    H1 2903   2.660   5.712   0.323
  986TIP3    H2 2904   2.612   5.758   0.187
  987TIP3   OH2 2905   8.273   7.006   0.614
  987TIP3    H1 2906   8.235   7.093   0.605
  987TIP3    H2 2907   8.203   6.946   0.590
  988TIP3   OH2 2908   5.425   4.503   5.486
  988TIP3    H1 2909   5.448   4.464   5.571
  988TIP3    H2 2910   5.388   4.430   5.436
  989TIP3   OH2 2911   6.351   1.315   2.946
  989TIP3    H1 2912   6.411   1.245   2.920
  989TIP3    H2 2913   6.296   1.329   2.869
  990TIP3   OH2 2914   3.085   4.935   6.633
  990TIP3    H1 2915   3.132   4.854   6.652
  990TIP3    H2 2916   3.145   4.985   6.576
  991TIP3   OH2 2917   4.625   0.848   0.490
  991TIP3    H1 2918   4.613   0.885   0.578
  991TIP3    H2 2919   4.590   0.759   0.497
  992TIP3   OH2 2920   0.752   5.558   2.273
  992TIP3    H1 2921   0.839   5.564   2.313
  992TIP3    H2 2922   0.744   5.639   2.222
  993TIP3   OH2 2923   4.554   6.982   6.019
  993TIP3    H1 2924   4.552   6.891   5.988
  993TIP3    H2 2925   4.594   7.031   5.947
  994TIP3   OH2 2926   0.337   5.643   4.385
  994TIP3    H1 2927   0.430   5.657   4.368
  994TIP3    H2 2928   0.327   5.548   4.380
  995TIP3   OH2 2929   1.261   7.692   5.457
  995TIP3    H1 2930   1.292   7.605   5.433
  995TIP3    H2 2931   1.292   7.704   5.547
  996TIP3   OH2 2932   3.810   3.045   6.219
  996TIP3    H1 2933   3.878   2.994   6.263
  996TIP3    H2 2934   3.792   2.997   6.138
  997TIP3   OH2 2935   2.561   5.144   4.985
  997TIP3    H1 2936   2.541   5.211   4.921
  997TIP3    H2 2937   2.542   5.061   4.941
  998TIP3   OH2 2938   3.821   1.853   5.475
  998TIP3    H1 2939   3.810   1.805   5.393
  998TIP3    H2 2940   3.897   1.910   5.460
  999TIP3   OH2 2941   2.892   7.671   3.099
  999TIP3    H1 2942   2.933   7.757   3.100
  999TIP3    H2 2943   2.941   7.621   3.034
 1000TIP3   OH2 2944   3.552   0.375   0.351
 1000TIP3    H1 2945   3.487   0.364   0.420
 1000TIP3    H2 2946   3.545   0.296   0.298
 1001TIP3   OH2 2947   6.709   6.013   3.811
 1001TIP3    H1 2948   6.769   6.051   3.748
 1001TIP3    H2 2949   6.629   6.065   3.803
 1002TIP3   OH2 2950   7.504   6.108   5.317
 1002TIP3    H1 2951   7.593   6.077   5.298
 1002TIP3    H2 2952   7.480   6.062   5.398
 1003TIP3   OH2 2953   0.179   5.953   4.939
 1003TIP3    H1 2954   0.134   5.887   4.992
 1003TIP3    H2 2955   0.217   6.013   5.004
 1004TIP3   OH2 2956   7.922   4.314   0.251
 1004TIP3    H1 2957   7.962   4.377   0.311
 1004TIP3    H2 2958   7.868   4.258   0.307
 1005TIP3   OH2 2959   7.331   2.061   5.230
 1005TIP3    H1 2960   7.300   2.127   5.292
 1005TIP3    H2 2961   7.261   2.054   5.165
 1006TIP3   OH2 2962   4.895   5.986   3.273
 1006TIP3    H1 2963   4.885   6.009   3.366
 1006TIP3    H2 2964   4.883   6.068   3.226
 1007TIP3   OH2 2965   4.094   5.052   4.643
 1007TIP3    H1 2966   4.079   4.977   4.700
 1007TIP3    H2 2967   4.128   5.015   4.562
 1008TIP3   OH2 2968   0.289   1.826   6.317
 1008TIP3    H1 2969   0.279   1.802   6.224
 1008TIP3    H2 2970   0.229   1.899   6.330
 1009TIP3   OH2 2971   6.480   0.488   2.348
 1009TIP3    H1 2972   6.443   0.482   2.436
 1009TIP3    H2 2973   6.440   0.567   2.311
 1010TIP3   OH2 2974   8.155   7.403   2.276
 1010TIP3    H1 2975   8.205   7.463   2.221
 1010TIP3    H2 2976   8.156   7.442   2.363
 1011TIP3   OH2 2977   6.729   2.938   3.456
 1011TIP3    H1 2978   6.732   2.848   3.422
 1011TIP3    H2 2979   6.796   2.985   3.406
 1012TIP3   OH2 2980   0.462   3.107   1.217
 1012TIP3    H1 2981   0.466   3.011   1.226
 1012TIP3    H2 2982   0.387   3.123   1.160
 1013TIP3   OH2 2983   3.916   6.654   4.289
 1013TIP3    H1 2984   3.851   6.585   4.280
 1013TIP3    H2 2985   3.930   6.661   4.383
 1014TIP3   OH2 2986   4.536   3.379   6.327
 1014TIP3    H1 2987   4.618   3.398   6.373
 1014TIP3    H2 2988   4.467   3.407   6.387
 1015TIP3   OH2 2989   0.788   4.416   6.286
 1015TIP3    H1 2990   0.728   4.396   6.214
 1015TIP3    H2 2991   0.762   4.356   6.357
 1016TIP3   OH2 2992   5.359   3.445   0.507
 1016TIP3    H1 2993   5.299   3.403   0.569
 1016TIP3    H2 2994   5.412   3.373   0.473
 1017TIP3   OH2 2995   2.191   6.310   0.317
 1017TIP3    H1 2996   2.214   6.391   0.272
 1017TIP3    H2 2997   2.142   6.260   0.252
 1018TIP3   OH2 2998   2.863   1.994   5.866
 1018TIP3    H1 2999   2.940   1.937   5.880
 1018TIP3    H2 3000   2.890   2.055   5.798
 1019TIP3   OH2 3001   1.988   1.463   6.680
 1019TIP3    H1 3002   1.963   1.442   6.590
 1019TIP3    H2 3003   1.978   1.558   6.687
 1020TIP3   OH2 3004   4.675   0.726   3.320
 1020TIP3    H1 3005   4.769   0.720   3.336
 1020TIP3    H2 3006   4.654   0.819   3.329
 1021TIP3   OH2 3007   3.434   3.559   3.001
 1021TIP3    H1 3008   3.340   3.576   2.995
 1021TIP3    H2 3009   3.441   3.464   2.998
 1022TIP3   OH2 3010   0.491   3.726   4.128
 1022TIP3    H1 3011   0.505   3.782   4.204
 1022TIP3    H2 3012   0.531   3.774   4.055
 1023TIP3   OH2 3013   0.029   0.018   0.274
 1023TIP3    H1 3014  -0.031   0.091   0.292
 1023TIP3    H2 3015   0.099   0.029   0.338
 1024TIP3   OH2 3016   8.260   1.014   1.464
 1024TIP3    H1 3017   8.318   1.087   1.442
 1024TIP3    H2 3018   8.208   1.000   1.384
 1025TIP3   OH2 3019   4.066   4.515   0.120
 1025TIP3    H1 3020   4.003   4.444   0.131
 1025TIP3    H2 3021   4.013   4.595   0.126
 1026TIP3   OH2 3022   4.137   6.041   3.215
 1026TIP3    H1 3023   4.097   6.006   3.295
 1026TIP3    H2 3024   4.117   6.134   3.217
 1027TIP3   OH2 3025   6.896   0.010   0.974
 1027TIP3    H1 3026   6.951   0.051   0.907
 1027TIP3    H2 3027   6.816  -0.015   0.928
 1028TIP3   OH2 3028   4.694   3.191   0.512
 1028TIP3    H1 3029   4.734   3.165   0.595
 1028TIP3    H2 3030   4.604   3.214   0.536
 1029TIP3   OH2 3031   5.095   3.848   3.108
 1029TIP3    H1 3032   5.008   3.851   3.148
 1029TIP3    H2 3033   5.107   3.936   3.070
 1030TIP3   OH2 3034   5.173   3.682   4.863
 1030TIP3    H1 3035   5.136   3.625   4.930
 1030TIP3    H2 3036   5.104   3.746   4.846
 1031TIP3   OH2 3037   7.249   5.288   6.703
 1031TIP3    H1 3038   7.160   5.309   6.732
 1031TIP3    H2 3039   7.254   5.193   6.707
 1032TIP3   OH2 3040   7.424   2.191   6.504
 1032TIP3    H1 3041   7.408   2.172   6.597
 1032TIP3    H2 3042   7.358   2.257   6.482
 1033TIP3   OH2 3043   4.015   1.780   1.131
 1033TIP3    H1 3044   3.931   1.790   1.177
 1033TIP3    H2 3045   4.005   1.833   1.051
 1034TIP3   OH2 3046   7.490   4.134   6.043
 1034TIP3    H1 3047   7.419   4.100   5.989
 1034TIP3    H2 3048   7.533   4.199   5.988
 1035TIP3   OH2 3049   0.639   6.961   0.971
 1035TIP3    H1 3050   0.648   7.051   0.940
 1035TIP3    H2 3051   0.574   6.923   0.911
 1036TIP3   OH2 3052   1.341   4.111   2.347
 1036TIP3    H1 3053   1.375   4.196   2.372
 1036TIP3    H2 3054   1.246   4.118   2.359
 1037TIP3   OH2 3055   0.499   5.161   2.526
 1037TIP3    H1 3056   0.478   5.071   2.502
 1037TIP3    H2 3057   0.417   5.195   2.564
 1038TIP3   OH2 3058   3.624   0.328   4.164
 1038TIP3    H1 3059   3.699   0.288   4.207
 1038TIP3    H2 3060   3.557   0.333   4.232
 1039TIP3   OH2 3061   2.391   0.476   0.037
 1039TIP3    H1 3062   2.308   0.524   0.031
 1039TIP3    H2 3063   2.364   0.385   0.056
 1040TIP3   OH2 3064   4.429   6.080   3.436
 1040TIP3    H1 3065   4.478   6.092   3.354
 1040TIP3    H2 3066   4.497   6.066   3.502
 1041TIP3   OH2 3067   0.609   7.757   0.200
 1041TIP3    H1 3068   0.670   7.685   0.214
 1041TIP3    H2 3069   0.526   7.726   0.238
 1042TIP3   OH2 3070   2.367   3.652   2.075
 1042TIP3    H1 3071   2.458   3.635   2.051
 1042TIP3    H2 3072   2.323   3.567   2.064
 1043TIP3   OH2 3073   6.939   0.923   6.553
 1043TIP3    H1 3074   6.941   0.837   6.509
 1043TIP3    H2 3075   6.994   0.912   6.630
 1044TIP3   OH2 3076   0.247   5.410   3.636
 1044TIP3    H1 3077   0.183   5.475   3.608
 1044TIP3    H2 3078   0.323   5.462   3.665
 1045TIP3   OH2 3079   8.253   6.980   2.577
 1045TIP3    H1 3080   8.201   7.045   2.529
 1045TIP3    H2 3081   8.209   6.973   2.662
 1046TIP3   OH2 3082   6.088   4.525   1.972
 1046TIP3    H1 3083   6.179   4.501   1.985
 1046TIP3    H2 3084   6.038   4.453   2.012
 1047TIP3   OH2 3085   2.629   4.848   3.069
 1047TIP3    H1 3086   2.697   4.898   3.023
 1047TIP3    H2 3087   2.677   4.779   3.115
 1048TIP3   OH2 3088   2.686   1.888   1.274
 1048TIP3    H1 3089   2.734   1.959   1.315
 1048TIP3    H2 3090   2.753   1.825   1.248
 1049TIP3   OH2 3091   4.007   1.979   3.597
 1049TIP3    H1 3092   4.012   1.958   3.504
 1049TIP3    H2 3093   4.063   1.914   3.639
 1050TIP3   OH2 3094   7.753   3.712   1.783
 1050TIP3    H1 3095   7.756   3.687   1.690
 1050TIP3    H2 3096   7.684   3.778   1.787
 1051TIP3   OH2 3097   4.553   5.946   5.172
 1051TIP3    H1 3098   4.527   5.888   5.101
 1051TIP3    H2 3099   4.480   5.943   5.234
 1052TIP3   OH2 3100   7.477   5.701   4.319
 1052TIP3    H1 3101   7.560   5.708   4.271
 1052TIP3    H2 3102   7.419   5.653   4.260
 1053TIP3   OH2 3103   7.996   2.112   6.132
 1053TIP3    H1 3104   7.919   2.168   6.131
 1053TIP3    H2 3105   8.043   2.136   6.212
 1054TIP3   OH2 3106   8.132   2.628   4.904
 1054TIP3    H1 3107   8.063   2.693   4.915
 1054TIP3    H2 3108   8.119   2.593   4.816
 1055TIP3   OH2 3109   1.808   0.423   1.913
 1055TIP3    H1 3110   1.743   0.358   1.939
 1055TIP3    H2 3111   1.879   0.372   1.876
 1056TIP3   OH2 3112   4.318   5.194   3.980
 1056TIP3    H1 3113   4.326   5.284   4.012
 1056TIP3    H2 3114   4.407   5.158   3.984
 1057TIP3   OH2 3115   4.262   3.584   4.394
 1057TIP3    H1 3116   4.294   3.494   4.388
 1057TIP3    H2 3117   4.171   3.575   4.420
 1058TIP3   OH2 3118   5.385   2.613   6.679
 1058TIP3    H1 3119   5.321   2.664   6.630
 1058TIP3    H2 3120   5.341   2.592   6.761
 1059TIP3   OH2 3121   0.090   0.815   0.117
 1059TIP3    H1 3122   0.158   0.748   0.117
 1059TIP3    H2 3123   0.085   0.845   0.207
 1060TIP3   OH2 3124   7.573   4.897   5.067
 1060TIP3    H1 3125   7.483   4.928   5.078
 1060TIP3    H2 3126   7.622   4.974   5.038
 1061TIP3   OH2 3127   6.734   5.464   3.801
 1061TIP3    H1 3128   6.651   5.427   3.831
 1061TIP3    H2 3129   6.719   5.483   3.708
 1062TIP3   OH2 3130   4.230   7.416   3.604
 1062TIP3    H1 3131   4.183   7.336   3.625
 1062TIP3    H2 3132   4.168   7.467   3.551
 1063TIP3   OH2 3133   1.748   6.175   4.450
 1063TIP3    H1 3134   1.774   6.267   4.447
 1063TIP3    H2 3135   1.671   6.170   4.395
 1064TIP3   OH2 3136   5.850   3.305   5.167
 1064TIP3    H1 3137   5.785   3.254   5.214
 1064TIP3    H2 3138   5.832   3.396   5.191
 1065TIP3   OH2 3139   4.773   7.104   4.413
 1065TIP3    H1 3140   4.774   7.071   4.503
 1065TIP3    H2 3141   4.793   7.197   4.422
 1066TIP3   OH2 3142   0.135   2.767   0.873
 1066TIP3    H1 3143   0.139   2.673   0.857
 1066TIP3    H2 3144   0.135   2.775   0.968
 1067TIP3   OH2 3145   5.538   0.862   1.479
 1067TIP3    H1 3146   5.455   0.906   1.460
 1067TIP3    H2 3147   5.520   0.809   1.557
 1068TIP3   OH2 3148   1.778   4.871   6.331
 1068TIP3    H1 3149   1.780   4.779   6.305
 1068TIP3    H2 3150   1.742   4.870   6.420
 1069TIP3   OH2 3151   3.257   1.184   4.495
 1069TIP3    H1 3152   3.226   1.188   4.586
 1069TIP3    H2 3153   3.249   1.274   4.463
 1070TIP3   OH2 3154   6.786   5.638   6.191
 1070TIP3    H1 3155   6.801   5.732   6.203
 1070TIP3    H2 3156   6.691   5.629   6.186
 1071TIP3   OH2 3157   0.412   7.754   1.685
 1071TIP3    H1 3158   0.428   7.755   1.591
 1071TIP3    H2 3159   0.328   7.710   1.695
 1072TIP3   OH2 3160   3.356   5.508   0.099
 1072TIP3    H1 3161   3.298   5.450   0.050
 1072TIP3    H2 3162   3.430   5.453   0.125
 1073TIP3   OH2 3163   7.030   2.699   5.426
 1073TIP3    H1 3164   7.062   2.717   5.514
 1073TIP3    H2 3165   7.081   2.624   5.396
 1074TIP3   OH2 3166   6.692   0.575   1.538
 1074TIP3    H1 3167   6.758   0.616   1.483
 1074TIP3    H2 3168   6.741   0.537   1.611
 1075TIP3   OH2 3169   6.892   3.331   1.778
 1075TIP3    H1 3170   6.880   3.251   1.728
 1075TIP3    H2 3171   6.986   3.336   1.794
 1076TIP3   OH2 3172   7.177   2.718   4.285
 1076TIP3    H1 3173   7.229   2.675   4.217
 1076TIP3    H2 3174   7.133   2.790   4.240
 1077TIP3   OH2 3175   0.304   6.638   2.952
 1077TIP3    H1 3176   0.382   6.649   2.898
 1077TIP3    H2 3177   0.256   6.566   2.910
 1078TIP3   OH2 3178   5.548   5.769   1.495
 1078TIP3    H1 3179   5.618   5.833   1.509
 1078TIP3    H2 3180   5.471   5.823   1.477
 1079TIP3   OH2 3181   7.365   6.708   1.171
 1079TIP3    H1 3182   7.441   6.731   1.225
 1079TIP3    H2 3183   7.400   6.700   1.082
 1080TIP3   OH2 3184   1.579   3.246   5.570
 1080TIP3    H1 3185   1.568   3.341   5.578
 1080TIP3    H2 3186   1.578   3.229   5.476
 1081TIP3   OH2 3187   2.358   6.749   1.209
 1081TIP3    H1 3188   2.302   6.741   1.132
 1081TIP3    H2 3189   2.444   6.719   1.178
 1082TIP3   OH2 3190   3.523   6.744   2.960
 1082TIP3    H1 3191   3.559   6.716   3.045
 1082TIP3    H2 3192   3.568   6.826   2.940
 1083TIP3   OH2 3193   2.175   5.870   5.153
 1083TIP3    H1 3194   2.203   5.927   5.225
 1083TIP3    H2 3195   2.103   5.819   5.190
 1084TIP3   OH2 3196   2.103   4.560   2.698
 1084TIP3    H1 3197   2.079   4.471   2.671
 1084TIP3    H2 3198   2.019   4.604   2.712
 1085TIP3   OH2 3199   5.351   2.894   5.301
 1085TIP3    H1 3200   5.404   2.908   5.380
 1085TIP3    H2 3201   5.392   2.951   5.235
 1086TIP3   OH2 3202   1.936   5.519   2.262
 1086TIP3    H1 3203   2.021   5.478   2.277
 1086TIP3    H2 3204   1.956   5.612   2.247
 1087TIP3   OH2 3205   4.007   6.850   0.550
 1087TIP3    H1 3206   3.920   6.889   0.560
 1087TIP3    H2 3207   3.993   6.757   0.571
 1088TIP3   OH2 3208   1.410   4.495   3.064
 1088TIP3    H1 3209   1.398   4.400   3.072
 1088TIP3    H2 3210   1.326   4.532   3.092
 1089TIP3   OH2 3211   0.294   5.216   2.689
 1089TIP3    H1 3212   0.301   5.188   2.780
 1089TIP3    H2 3213   0.219   5.168   2.654
 1090TIP3   OH2 3214   5.096   4.087   2.275
 1090TIP3    H1 3215   5.154   4.040   2.215
 1090TIP3    H2 3216   5.023   4.116   2.219
 1091TIP3   OH2 3217   4.571   7.754   2.506
 1091TIP3    H1 3218   4.547   7.845   2.490
 1091TIP3    H2 3219   4.631   7.732   2.436
 1092TIP3   OH2 3220   1.784   6.232   4.864
 1092TIP3    H1 3221   1.826   6.226   4.950
 1092TIP3    H2 3222   1.765   6.142   4.841
 1093TIP3   OH2 3223   0.498   5.318   2.961
 1093TIP3    H1 3224   0.562   5.363   2.906
 1093TIP3    H2 3225   0.517   5.225   2.948
 1094TIP3   OH2 3226   8.271   2.270   1.107
 1094TIP3    H1 3227   8.312   2.319   1.036
 1094TIP3    H2 3228   8.316   2.301   1.186
 1095TIP3   OH2 3229   3.541   1.876   0.042
 1095TIP3    H1 3230   3.482   1.872  -0.033
 1095TIP3    H2 3231   3.619   1.828   0.014
 1096TIP3   OH2 3232   6.512   0.422   1.978
 1096TIP3    H1 3233   6.563   0.406   2.057
 1096TIP3    H2 3234   6.489   0.335   1.946
 1097TIP3   OH2 3235   4.073   6.500   3.065
 1097TIP3    H1 3236   4.095   6.432   3.128
 1097TIP3    H2 3237   4.052   6.453   2.985
 1098TIP3   OH2 3238   7.529   7.603   4.499
 1098TIP3    H1 3239   7.490   7.578   4.582
 1098TIP3    H2 3240   7.470   7.566   4.433
 1099TIP3   OH2 3241   7.731   0.892   0.022
 1099TIP3    H1 3242   7.645   0.862   0.050
 1099TIP3    H2 3243   7.763   0.943   0.097
 1100TIP3   OH2 3244   0.610   5.398   5.120
 1100TIP3    H1 3245   0.535   5.409   5.178
 1100TIP3    H2 3246   0.680   5.448   5.162
 1101TIP3   OH2 3247   5.347   3.147   2.541
 1101TIP3    H1 3248   5.345   3.172   2.633
 1101TIP3    H2 3249   5.393   3.218   2.497
 1102TIP3   OH2 3250   4.664   0.343   6.463
 1102TIP3    H1 3251   4.569   0.335   6.472
 1102TIP3    H2 3252   4.691   0.393   6.541
 1103TIP3   OH2 3253   2.919   3.812   4.476
 1103TIP3    H1 3254   2.889   3.731   4.435
 1103TIP3    H2 3255   2.913   3.877   4.406
 1104TIP3   OH2 3256   2.739   2.899   5.100
 1104TIP3    H1 3257   2.730   2.964   5.031
 1104TIP3    H2 3258   2.657   2.850   5.098
 1105TIP3   OH2 3259   1.611   2.140   4.413
 1105TIP3    H1 3260   1.554   2.183   4.476
 1105TIP3    H2 3261   1.684   2.106   4.465
 1106TIP3   OH2 3262   4.665   2.080   0.056
 1106TIP3    H1 3263   4.578   2.043   0.041
 1106TIP3    H2 3264   4.705   2.022   0.120
 1107TIP3   OH2 3265   6.122   7.083   5.439
 1107TIP3    H1 3266   6.119   7.137   5.519
 1107TIP3    H2 3267   6.086   7.140   5.371
 1108TIP3   OH2 3268   2.327   5.067   4.067
 1108TIP3    H1 3269   2.283   4.987   4.038
 1108TIP3    H2 3270   2.313   5.068   4.162
 1109TIP3   OH2 3271   2.585   1.656   1.089
 1109TIP3    H1 3272   2.666   1.688   1.047
 1109TIP3    H2 3273   2.545   1.735   1.126
 1110TIP3   OH2 3274   2.361   1.066   0.781
 1110TIP3    H1 3275   2.353   1.005   0.707
 1110TIP3    H2 3276   2.280   1.117   0.779
 1111TIP3   OH2 3277   3.661   1.894   2.118
 1111TIP3    H1 3278   3.706   1.931   2.195
 1111TIP3    H2 3279   3.572   1.876   2.149
 1112TIP3   OH2 3280   7.565   3.710   6.515
 1112TIP3    H1 3281   7.645   3.665   6.543
 1112TIP3    H2 3282   7.593   3.766   6.444
 1113TIP3   OH2 3283   6.812   4.616   5.218
 1113TIP3    H1 3284   6.759   4.599   5.140
 1113TIP3    H2 3285   6.838   4.708   5.210
 1114TIP3   OH2 3286   3.489   4.367   1.524
 1114TIP3    H1 3287   3.436   4.446   1.520
 1114TIP3    H2 3288   3.505   4.354   1.618
 1115TIP3   OH2 3289   1.282   5.633   5.297
 1115TIP3    H1 3290   1.338   5.555   5.299
 1115TIP3    H2 3291   1.299   5.673   5.212
 1116TIP3   OH2 3292   5.224   6.962   3.636
 1116TIP3    H1 3293   5.149   6.918   3.675
 1116TIP3    H2 3294   5.229   7.046   3.681
 1117TIP3   OH2 3295   0.905   0.471   0.346
 1117TIP3    H1 3296   0.947   0.468   0.261
 1117TIP3    H2 3297   0.959   0.414   0.401
 1118TIP3   OH2 3298   1.129   6.423   5.481
 1118TIP3    H1 3299   1.192   6.459   5.543
 1118TIP3    H2 3300   1.180   6.360   5.429
 1119TIP3   OH2 3301   6.466   7.566   5.239
 1119TIP3    H1 3302   6.506   7.517   5.310
 1119TIP3    H2 3303   6.493   7.520   5.160
 1120TIP3   OH2 3304   8.306   6.366   3.469
 1120TIP3    H1 3305   8.218   6.330   3.461
 1120TIP3    H2 3306   8.322   6.372   3.564
 1121TIP3   OH2 3307   1.201   6.588   1.159
 1121TIP3    H1 3308   1.121   6.631   1.190
 1121TIP3    H2 3309   1.209   6.615   1.068
 1122TIP3   OH2 3310   0.091   0.833   4.171
 1122TIP3    H1 3311   0.115   0.740   4.167
 1122TIP3    H2 3312   0.034   0.846   4.095
 1123TIP3   OH2 3313   6.954   5.329   3.106
 1123TIP3    H1 3314   6.959   5.379   3.187
 1123TIP3    H2 3315   7.039   5.285   3.099
 1124TIP3   OH2 3316   6.333   1.616   0.319
 1124TIP3    H1 3317   6.244   1.635   0.350
 1124TIP3    H2 3318   6.327   1.620   0.224
 1125TIP3   OH2 3319   6.434   5.451   2.347
 1125TIP3    H1 3320   6.465   5.406   2.268
 1125TIP3    H2 3321   6.469   5.540   2.339
 1126TIP3   OH2 3322   4.435   3.521   2.711
 1126TIP3    H1 3323   4.486   3.601   2.719
 1126TIP3    H2 3324   4.413   3.516   2.618
 1127TIP3   OH2 3325   3.598   6.963   1.852
 1127TIP3    H1 3326   3.584   7.043   1.802
 1127TIP3    H2 3327   3.520   6.955   1.906
 1128TIP3   OH2 3328   6.235   5.104   4.049
 1128TIP3    H1 3329   6.283   5.033   4.006
 1128TIP3    H2 3330   6.299   5.145   4.107
 1129TIP3   OH2 3331   8.160   7.057   2.035
 1129TIP3    H1 3332   8.215   7.040   2.111
 1129TIP3    H2 3333   8.204   7.011   1.963
 1130TIP3   OH2 3334   6.442   6.679   2.736
 1130TIP3    H1 3335   6.512   6.744   2.735
 1130TIP3    H2 3336   6.390   6.699   2.659
 1131TIP3   OH2 3337   6.128   6.433   3.515
 1131TIP3    H1 3338   6.050   6.379   3.528
 1131TIP3    H2 3339   6.152   6.461   3.604
 1132TIP3   OH2 3340   1.492   1.016   6.555
 1132TIP3    H1 3341   1.451   1.082   6.499
 1132TIP3    H2 3342   1.419   0.969   6.595
 1133TIP3   OH2 3343   4.974   6.998   0.238
 1133TIP3    H1 3344   4.929   7.082   0.252
 1133TIP3    H2 3345   5.022   6.983   0.319
 1134TIP3   OH2 3346   1.409   5.304   5.940
 1134TIP3    H1 3347   1.338   5.361   5.913
 1134TIP3    H2 3348   1.365   5.230   5.983
 1135TIP3   OH2 3349   7.377   3.714   2.511
 1135TIP3    H1 3350   7.391   3.795   2.461
 1135TIP3    H2 3351   7.283   3.713   2.530
 1136TIP3   OH2 3352   6.532   2.335   6.082
 1136TIP3    H1 3353   6.468   2.271   6.113
 1136TIP3    H2 3354   6.532   2.326   5.987
 1137TIP3   OH2 3355   4.098   6.674   2.478
 1137TIP3    H1 3356   4.008   6.660   2.508
 1137TIP3    H2 3357   4.143   6.713   2.553
 1138TIP3   OH2 3358   8.242   2.741   5.794
 1138TIP3    H1 3359   8.299   2.687   5.848
 1138TIP3    H2 3360   8.250   2.705   5.706
 1139TIP3   OH2 3361   1.414   4.283   4.875
 1139TIP3    H1 3362   1.500   4.309   4.842
 1139TIP3    H2 3363   1.430   4.199   4.919
 1140TIP3   OH2 3364   4.394   7.587   5.633
 1140TIP3    H1 3365   4.348   7.589   5.718
 1140TIP3    H2 3366   4.485   7.603   5.655
 1141TIP3   OH2 3367   6.391   6.274   4.141
 1141TIP3    H1 3368   6.466   6.229   4.180
 1141TIP3    H2 3369   6.315   6.223   4.168
 1142TIP3   OH2 3370   7.761   2.068   6.415
 1142TIP3    H1 3371   7.697   2.025   6.358
 1142TIP3    H2 3372   7.760   2.159   6.388
 1143TIP3   OH2 3373   1.279   5.513   6.244
 1143TIP3    H1 3374   1.292   5.554   6.159
 1143TIP3    H2 3375   1.359   5.534   6.293
 1144TIP3   OH2 3376   6.091   2.951   1.751
 1144TIP3    H1 3377   6.133   2.884   1.697
 1144TIP3    H2 3378   6.081   3.026   1.692
 1145TIP3   OH2 3379   5.002   3.726   4.405
 1145TIP3    H1 3380   5.029   3.690   4.320
 1145TIP3    H2 3381   4.981   3.649   4.458
 1146TIP3   OH2 3382   2.442   6.610   5.514
 1146TIP3    H1 3383   2.486   6.633   5.433
 1146TIP3    H2 3384   2.448   6.689   5.568
 1147TIP3   OH2 3385   4.997   1.169   6.696
 1147TIP3    H1 3386   5.018   1.100   6.633
 1147TIP3    H2 3387   4.901   1.172   6.697
 1148TIP3   OH2 3388   4.558   4.711   2.980
 1148TIP3    H1 3389   4.518   4.665   2.907
 1148TIP3    H2 3390   4.604   4.785   2.940
 1149TIP3   OH2 3391   0.353   1.908   2.609
 1149TIP3    H1 3392   0.264   1.879   2.586
 1149TIP3    H2 3393   0.384   1.955   2.531
 1150TIP3   OH2 3394   2.474   6.655   3.697
 1150TIP3    H1 3395   2.454   6.678   3.788
 1150TIP3    H2 3396   2.531   6.726   3.667
 1151TIP3   OH2 3397   2.793   2.000   4.484
 1151TIP3    H1 3398   2.807   1.994   4.390
 1151TIP3    H2 3399   2.729   1.932   4.504
 1152TIP3   OH2 3400   8.274   1.095   1.722
 1152TIP3    H1 3401   8.360   1.135   1.707
 1152TIP3    H2 3402   8.262   1.036   1.648
 1153TIP3   OH2 3403   6.432   7.152   5.092
 1153TIP3    H1 3404   6.382   7.217   5.042
 1153TIP3    H2 3405   6.524   7.175   5.077
 1154TIP3   OH2 3406   4.610   1.351   4.141
 1154TIP3    H1 3407   4.685   1.323   4.088
 1154TIP3    H2 3408   4.574   1.426   4.093
 1155TIP3   OH2 3409   4.017   7.626   5.568
 1155TIP3    H1 3410   4.035   7.695   5.504
 1155TIP3    H2 3411   3.924   7.634   5.587
 1156TIP3   OH2 3412   2.200   7.663   3.868
 1156TIP3    H1 3413   2.160   7.682   3.783
 1156TIP3    H2 3414   2.275   7.722   3.873
 1157TIP3   OH2 3415   0.123   3.672   1.159
 1157TIP3    H1 3416   0.031   3.686   1.180
 1157TIP3    H2 3417   0.168   3.673   1.244
 1158TIP3   OH2 3418   4.273   0.197   3.926
 1158TIP3    H1 3419   4.207   0.237   3.982
 1158TIP3    H2 3420   4.333   0.154   3.987
 1159TIP3   OH2 3421   5.213   1.279   3.435
 1159TIP3    H1 3422   5.247   1.312   3.352
 1159TIP3    H2 3423   5.149   1.212   3.410
 1160TIP3   OH2 3424   2.319   6.536   1.987
 1160TIP3    H1 3425   2.263   6.484   1.930
 1160TIP3    H2 3426   2.267   6.614   2.008
 1161TIP3   OH2 3427   2.528   2.554   2.370
 1161TIP3    H1 3428   2.537   2.475   2.423
 1161TIP3    H2 3429   2.573   2.534   2.289
 1162TIP3   OH2 3430   4.087   1.278   0.403
 1162TIP3    H1 3431   4.174   1.282   0.442
 1162TIP3    H2 3432   4.074   1.185   0.383
 1163TIP3   OH2 3433   0.793   3.526   2.366
 1163TIP3    H1 3434   0.870   3.580   2.387
 1163TIP3    H2 3435   0.720   3.572   2.409
 1164TIP3   OH2 3436   5.393   0.419   0.370
 1164TIP3    H1 3437   5.359   0.478   0.301
 1164TIP3    H2 3438   5.482   0.398   0.342
 1165TIP3   OH2 3439   2.863   3.015   4.095
 1165TIP3    H1 3440   2.897   2.982   4.177
 1165TIP3    H2 3441   2.847   2.937   4.041
 1166TIP3   OH2 3442   5.727   3.805   6.443
 1166TIP3    H1 3443   5.802   3.807   6.503
 1166TIP3    H2 3444   5.694   3.894   6.444
 1167TIP3   OH2 3445   2.246   7.635   1.304
 1167TIP3    H1 3446   2.310   7.565   1.320
 1167TIP3    H2 3447   2.163   7.589   1.290
 1168TIP3   OH2 3448   1.429   7.428   1.921
 1168TIP3    H1 3449   1.420   7.516   1.958
 1168TIP3    H2 3450   1.378   7.372   1.979
 1169TIP3   OH2 3451   4.347   6.255   1.887
 1169TIP3    H1 3452   4.378   6.165   1.892
 1169TIP3    H2 3453   4.322   6.267   1.796
 1170TIP3   OH2 3454   1.680   1.793   6.543
 1170TIP3    H1 3455   1.707   1.857   6.610
 1170TIP3    H2 3456   1.762   1.769   6.500
 1171TIP3   OH2 3457   7.994   2.011   5.355
 1171TIP3    H1 3458   8.085   1.994   5.330
 1171TIP3    H2 3459   8.000   2.047   5.444
 1172TIP3   OH2 3460   2.550   7.524   4.199
 1172TIP3    H1 3461   2.613   7.478   4.255
 1172TIP3    H2 3462   2.573   7.497   4.110
 1173TIP3   OH2 3463   5.544   4.008   6.333
 1173TIP3    H1 3464   5.544   3.975   6.243
 1173TIP3    H2 3465   5.462   3.973   6.371
 1174TIP3   OH2 3466   5.511   4.751   0.862
 1174TIP3    H1 3467   5.428   4.788   0.892
 1174TIP3    H2 3468   5.508   4.758   0.767
 1175TIP3   OH2 3469   8.203   0.229   0.412
 1175TIP3    H1 3470   8.135   0.190   0.467
 1175TIP3    H2 3471   8.157   0.290   0.356
 1176TIP3   OH2 3472   3.589   2.546   4.914
 1176TIP3    H1 3473   3.534   2.609   4.960
 1176TIP3    H2 3474   3.561   2.552   4.823
 1177TIP3   OH2 3475   4.438   2.682   1.834
 1177TIP3    H1 3476   4.498   2.745   1.876
 1177TIP3    H2 3477   4.462   2.684   1.741
 1178TIP3   OH2 3478   4.717   7.315   3.665
 1178TIP3    H1 3479   4.656   7.277   3.601
 1178TIP3    H2 3480   4.661   7.353   3.732
 1179TIP3   OH2 3481   6.913   5.023   5.033
 1179TIP3    H1 3482   6.934   5.044   5.124
 1179TIP3    H2 3483   6.853   4.949   5.039
 1180TIP3   OH2 3484   1.416   7.313   3.707
 1180TIP3    H1 3485   1.434   7.245   3.642
 1180TIP3    H2 3486   1.336   7.356   3.676
 1181TIP3   OH2 3487   3.091   2.211   0.072
 1181TIP3    H1 3488   3.093   2.276   0.142
 1181TIP3    H2 3489   3.082   2.127   0.116
 1182TIP3   OH2 3490   5.923   5.701   2.566
 1182TIP3    H1 3491   5.875   5.621   2.546
 1182TIP3    H2 3492   5.932   5.701   2.661
 1183TIP3   OH2 3493   5.265   7.725   0.908
 1183TIP3    H1 3494   5.285   7.815   0.881
 1183TIP3    H2 3495   5.267   7.675   0.827
 1184TIP3   OH2 3496   5.426   0.292   4.457
 1184TIP3    H1 3497   5.444   0.386   4.443
 1184TIP3    H2 3498   5.339   0.290   4.497
 1185TIP3   OH2 3499   3.763   2.378   5.161
 1185TIP3    H1 3500   3.815   2.432   5.102
 1185TIP3    H2 3501   3.697   2.437   5.197
 1186TIP3   OH2 3502   1.903   4.951   2.244
 1186TIP3    H1 3503   1.886   5.022   2.306
 1186TIP3    H2 3504   1.934   4.878   2.298
 1187TIP3   OH2 3505   2.724   7.474   2.965
 1187TIP3    H1 3506   2.742   7.449   3.056
 1187TIP3    H2 3507   2.765   7.559   2.954
 1188TIP3   OH2 3508   3.694   3.404   2.888
 1188TIP3    H1 3509   3.679   3.463   2.813
 1188TIP3    H2 3510   3.643   3.326   2.867
 1189TIP3   OH2 3511   4.002   1.544   5.456
 1189TIP3    H1 3512   4.075   1.574   5.511
 1189TIP3    H2 3513   3.936   1.515   5.519
 1190TIP3   OH2 3514   0.205   4.723   3.102
 1190TIP3    H1 3515   0.289   4.681   3.083
 1190TIP3    H2 3516   0.228   4.801   3.152
 1191TIP3   OH2 3517   7.549   5.673   0.945
 1191TIP3    H1 3518   7.632   5.676   0.992
 1191TIP3    H2 3519   7.491   5.732   0.994
 1192TIP3   OH2 3520   3.618   6.491   4.936
 1192TIP3    H1 3521   3.713   6.478   4.947
 1192TIP3    H2 3522   3.595   6.555   5.003
 1193TIP3   OH2 3523   4.307   5.273   6.107
 1193TIP3    H1 3524   4.275   5.280   6.197
 1193TIP3    H2 3525   4.288   5.358   6.068
 1194TIP3   OH2 3526   0.509   4.225   3.597
 1194TIP3    H1 3527   0.431   4.255   3.644
 1194TIP3    H2 3528   0.502   4.130   3.597
 1195TIP3   OH2 3529   7.274   7.119   2.186
 1195TIP3    H1 3530   7.359   7.079   2.170
 1195TIP3    H2 3531   7.252   7.163   2.104
 1196TIP3   OH2 3532   2.044   0.676   0.245
 1196TIP3    H1 3533   2.123   0.624   0.261
 1196TIP3    H2 3534   2.038   0.735   0.320
 1197TIP3   OH2 3535   0.060   4.596   3.885
 1197TIP3    H1 3536  -0.021   4.647   3.878
 1197TIP3    H2 3537   0.054   4.533   3.813
 1198TIP3   OH2 3538   0.536   2.766   6.323
 1198TIP3    H1 3539   0.573   2.830   6.262
 1198TIP3    H2 3540   0.458   2.733   6.279
 1199TIP3   OH2 3541   3.706   2.622   1.241
 1199TIP3    H1 3542   3.723   2.616   1.147
 1199TIP3    H2 3543   3.732   2.537   1.276
 1200TIP3   OH2 3544   7.145   1.696   1.586
 1200TIP3    H1 3545   7.214   1.637   1.616
 1200TIP3    H2 3546   7.161   1.704   1.492
 1201TIP3   OH2 3547   1.014   6.203   1.812
 1201TIP3    H1 3548   0.992   6.274   1.752
 1201TIP3    H2 3549   0.942   6.140   1.803
 1202TIP3   OH2 3550   7.513   2.228   1.013
 1202TIP3    H1 3551   7.494   2.298   0.950
 1202TIP3    H2 3552   7.565   2.270   1.081
 1203TIP3   OH2 3553   2.115   6.960   2.297
 1203TIP3    H1 3554   2.157   6.982   2.214
 1203TIP3    H2 3555   2.029   7.002   2.292
 1204TIP3   OH2 3556   2.743   5.344   3.939
 1204TIP3    H1 3557   2.679   5.400   3.897
 1204TIP3    H2 3558   2.790   5.302   3.866
 1205TIP3   OH2 3559   4.366   6.018   4.889
 1205TIP3    H1 3560   4.308   6.005   4.814
 1205TIP3    H2 3561   4.360   6.111   4.909
 1206TIP3   OH2 3562   1.004   7.369   0.930
 1206TIP3    H1 3563   1.022   7.276   0.915
 1206TIP3    H2 3564   0.986   7.374   1.024
 1207TIP3   OH2 3565   0.721   2.434   1.873
 1207TIP3    H1 3566   0.738   2.404   1.784
 1207TIP3    H2 3567   0.645   2.384   1.901
 1208TIP3   OH2 3568   0.420   6.435   1.863
 1208TIP3    H1 3569   0.501   6.486   1.854
 1208TIP3    H2 3570   0.450   6.344   1.870
 1209TIP3   OH2 3571   0.069   2.057   0.217
 1209TIP3    H1 3572   0.089   1.974   0.175
 1209TIP3    H2 3573   0.079   2.039   0.311
 1210TIP3   OH2 3574   6.101   2.283   2.200
 1210TIP3    H1 3575   6.039   2.254   2.267
 1210TIP3    H2 3576   6.090   2.378   2.196
 1211TIP3   OH2 3577   8.169   6.156   3.020
 1211TIP3    H1 3578   8.166   6.121   2.931
 1211TIP3    H2 3579   8.233   6.228   3.015
 1212TIP3   OH2 3580   4.547   0.144   1.102
 1212TIP3    H1 3581   4.492   0.128   1.026
 1212TIP3    H2 3582   4.625   0.091   1.086
 1213TIP3   OH2 3583   2.917   1.889   1.925
 1213TIP3    H1 3584   2.850   1.940   1.879
 1213TIP3    H2 3585   2.952   1.949   1.991
 1214TIP3   OH2 3586   3.549   0.371   1.978
 1214TIP3    H1 3587   3.547   0.284   2.019
 1214TIP3    H2 3588   3.509   0.429   2.041
 1215TIP3   OH2 3589   6.049   3.868   0.977
 1215TIP3    H1 3590   5.981   3.934   0.991
 1215TIP3    H2 3591   6.051   3.856   0.882
 1216TIP3   OH2 3592   7.307   6.928   5.819
 1216TIP3    H1 3593   7.237   6.987   5.847
 1216TIP3    H2 3594   7.324   6.952   5.728
 1217TIP3   OH2 3595   6.487   0.528   3.996
 1217TIP3    H1 3596   6.567   0.489   4.033
 1217TIP3    H2 3597   6.486   0.617   4.030
 1218TIP3   OH2 3598   3.886   5.153   6.184
 1218TIP3    H1 3599   3.849   5.066   6.170
 1218TIP3    H2 3600   3.894   5.191   6.097
 1219TIP3   OH2 3601   1.432   7.809   0.463
 1219TIP3    H1 3602   1.426   7.714   0.449
 1219TIP3    H2 3603   1.525   7.829   0.453
 1220TIP3   OH2 3604   6.994   7.316   5.457
 1220TIP3    H1 3605   7.004   7.313   5.361
 1220TIP3    H2 3606   6.933   7.245   5.476
 1221TIP3   OH2 3607   5.679   3.509   6.034
 1221TIP3    H1 3608   5.651   3.529   6.124
 1221TIP3    H2 3609   5.737   3.434   6.043
 1222TIP3   OH2 3610   6.683   3.512   5.928
 1222TIP3    H1 3611   6.633   3.432   5.942
 1222TIP3    H2 3612   6.708   3.541   6.016
 1223TIP3   OH2 3613   1.237   7.094   2.700
 1223TIP3    H1 3614   1.177   7.119   2.770
 1223TIP3    H2 3615   1.257   7.176   2.654
 1224TIP3   OH2 3616   7.963   0.114   0.512
 1224TIP3    H1 3617   7.894   0.137   0.575
 1224TIP3    H2 3618   7.915   0.087   0.434
 1225TIP3   OH2 3619   2.083   1.037   0.167
 1225TIP3    H1 3620   2.174   1.034   0.137
 1225TIP3    H2 3621   2.053   1.125   0.145
 1226TIP3   OH2 3622   0.600   2.220   3.845
 1226TIP3    H1 3623   0.525   2.186   3.895
 1226TIP3    H2 3624   0.561   2.256   3.766
 1227TIP3   OH2 3625   6.129   4.246   0.437
 1227TIP3    H1 3626   6.105   4.188   0.365
 1227TIP3    H2 3627   6.206   4.294   0.406
 1228TIP3   OH2 3628   2.786   1.714   3.033
 1228TIP3    H1 3629   2.881   1.725   3.035
 1228TIP3    H2 3630   2.754   1.775   3.100
 1229TIP3   OH2 3631   6.788   7.648   0.858
 1229TIP3    H1 3632   6.706   7.603   0.879
 1229TIP3    H2 3633   6.786   7.657   0.763
 1230TIP3   OH2 3634   8.217   2.037   0.765
 1230TIP3    H1 3635   8.265   1.955   0.776
 1230TIP3    H2 3636   8.147   2.032   0.831
 1231TIP3   OH2 3637   6.317   2.330   1.332
 1231TIP3    H1 3638   6.351   2.420   1.325
 1231TIP3    H2 3639   6.275   2.328   1.418
 1232TIP3   OH2 3640   1.941   3.732   0.667
 1232TIP3    H1 3641   2.035   3.721   0.653
 1232TIP3    H2 3642   1.934   3.763   0.757
 1233TIP3   OH2 3643   3.682   4.645   6.157
 1233TIP3    H1 3644   3.597   4.676   6.189
 1233TIP3    H2 3645   3.725   4.724   6.123
 1234TIP3   OH2 3646   6.514   1.730   1.621
 1234TIP3    H1 3647   6.432   1.776   1.640
 1234TIP3    H2 3648   6.496   1.639   1.645
 1235TIP3   OH2 3649   3.917   2.278   5.991
 1235TIP3    H1 3650   3.864   2.212   5.947
 1235TIP3    H2 3651   3.856   2.324   6.048
 1236TIP3   OH2 3652   1.594   3.254   2.722
 1236TIP3    H1 3653   1.572   3.193   2.651
 1236TIP3    H2 3654   1.546   3.220   2.797
 1237TIP3   OH2 3655   6.638   4.995   6.275
 1237TIP3    H1 3656   6.678   4.918   6.236
 1237TIP3    H2 3657   6.544   4.984   6.261
 1238TIP3   OH2 3658   3.865   4.977   6.580
 1238TIP3    H1 3659   3.803   4.952   6.648
 1238TIP3    H2 3660   3.814   5.029   6.518
 1239TIP3   OH2 3661   4.955   3.742   0.962
 1239TIP3    H1 3662   4.913   3.675   0.907
 1239TIP3    H2 3663   4.884   3.773   1.019
 1240TIP3   OH2 3664   2.406   5.465   3.092
 1240TIP3    H1 3665   2.452   5.400   3.040
 1240TIP3    H2 3666   2.421   5.438   3.183
 1241TIP3   OH2 3667   7.060   6.030   3.663
 1241TIP3    H1 3668   7.103   6.109   3.629
 1241TIP3    H2 3669   7.076   6.033   3.757
 1242TIP3   OH2 3670   6.057   6.009   6.514
 1242TIP3    H1 3671   5.970   5.977   6.490
 1242TIP3    H2 3672   6.100   5.934   6.556
 1243TIP3   OH2 3673   3.592   3.661   6.484
 1243TIP3    H1 3674   3.634   3.610   6.553
 1243TIP3    H2 3675   3.514   3.698   6.525
 1244TIP3   OH2 3676   2.876   2.025   2.782
 1244TIP3    H1 3677   2.922   2.061   2.706
 1244TIP3    H2 3678   2.791   2.068   2.781
 1245TIP3   OH2 3679   7.695   2.525   1.884
 1245TIP3    H1 3680   7.775   2.529   1.830
 1245TIP3    H2 3681   7.656   2.440   1.863
 1246TIP3   OH2 3682   2.165   3.329   2.039
 1246TIP3    H1 3683   2.073   3.331   2.014
 1246TIP3    H2 3684   2.208   3.277   1.971
 1247TIP3   OH2 3685   6.616   1.347   4.100
 1247TIP3    H1 3686   6.567   1.269   4.123
 1247TIP3    H2 3687   6.648   1.330   4.011
 1248TIP3   OH2 3688   6.379   2.501   1.980
 1248TIP3    H1 3689   6.461   2.549   1.979
 1248TIP3    H2 3690   6.394   2.429   2.042
 1249TIP3   OH2 3691   7.997   1.025   4.688
 1249TIP3    H1 3692   7.912   1.052   4.723
 1249TIP3    H2 3693   8.058   1.037   4.762
 1250TIP3   OH2 3694   2.291   0.080   3.911
 1250TIP3    H1 3695   2.306  -0.014   3.898
 1250TIP3    H2 3696   2.330   0.121   3.834
 1251TIP3   OH2 3697   4.470   0.043   0.185
 1251TIP3    H1 3698   4.435   0.083   0.265
 1251TIP3    H2 3699   4.424  -0.041   0.179
 1252TIP3   OH2 3700   3.968  -0.008   5.904
 1252TIP3    H1 3701   3.880   0.026   5.919
 1252TIP3    H2 3702   3.979  -0.007   5.809
 1253TIP3   OH2 3703   2.879   0.273   1.271
 1253TIP3    H1 3704   2.882   0.207   1.201
 1253TIP3    H2 3705   2.878   0.357   1.225
 1254TIP3   OH2 3706   0.385   6.659   4.080
 1254TIP3    H1 3707   0.463   6.710   4.102
 1254TIP3    H2 3708   0.338   6.713   4.017
 1255TIP3   OH2 3709   7.162   3.610   1.722
 1255TIP3    H1 3710   7.184   3.538   1.781
 1255TIP3    H2 3711   7.114   3.568   1.650
 1256TIP3   OH2 3712   0.276   1.472   6.066
 1256TIP3    H1 3713   0.226   1.553   6.078
 1256TIP3    H2 3714   0.311   1.453   6.153
 1257TIP3   OH2 3715   6.664   0.717   5.829
 1257TIP3    H1 3716   6.620   0.752   5.906
 1257TIP3    H2 3717   6.757   0.715   5.852
 1258TIP3   OH2 3718   2.605   0.736   0.569
 1258TIP3    H1 3719   2.689   0.699   0.544
 1258TIP3    H2 3720   2.567   0.673   0.629
 1259TIP3   OH2 3721   4.117   4.522   6.394
 1259TIP3    H1 3722   4.112   4.513   6.299
 1259TIP3    H2 3723   4.070   4.603   6.414
 1260TIP3   OH2 3724   7.117   1.663   6.767
 1260TIP3    H1 3725   7.192   1.611   6.797
 1260TIP3    H2 3726   7.149   1.753   6.765
 1261TIP3   OH2 3727   1.825   0.551   4.408
 1261TIP3    H1 3728   1.902   0.608   4.411
 1261TIP3    H2 3729   1.785   0.568   4.323
 1262TIP3   OH2 3730   4.019   5.628   5.717
 1262TIP3    H1 3731   3.930   5.599   5.739
 1262TIP3    H2 3732   4.046   5.572   5.645
 1263TIP3   OH2 3733   5.247   6.546   3.469
 1263TIP3    H1 3734   5.317   6.516   3.527
 1263TIP3    H2 3735   5.196   6.467   3.449
 1264TIP3   OH2 3736   0.619   1.356   3.836
 1264TIP3    H1 3737   0.697   1.328   3.885
 1264TIP3    H2 3738   0.641   1.341   3.745
 1265TIP3   OH2 3739   4.121   3.697   1.045
 1265TIP3    H1 3740   4.172   3.669   1.122
 1265TIP3    H2 3741   4.084   3.616   1.011
 1266TIP3   OH2 3742   2.411   6.015   4.935
 1266TIP3    H1 3743   2.330   6.052   4.969
 1266TIP3    H2 3744   2.476   6.085   4.943
 1267TIP3   OH2 3745   4.561   2.639   3.480
 1267TIP3    H1 3746   4.646   2.674   3.451
 1267TIP3    H2 3747   4.547   2.679   3.566
 1268TIP3   OH2 3748   5.023   5.813   0.744
 1268TIP3    H1 3749   5.041   5.811   0.651
 1268TIP3    H2 3750   5.021   5.721   0.771
 1269TIP3   OH2 3751   7.702   0.977   0.844
 1269TIP3    H1 3752   7.666   0.950   0.759
 1269TIP3    H2 3753   7.736   1.065   0.829
 1270TIP3   OH2 3754   1.370   5.702   2.333
 1270TIP3    H1 3755   1.430   5.774   2.312
 1270TIP3    H2 3756   1.315   5.737   2.403
 1271TIP3   OH2 3757   6.295   3.260   1.722
 1271TIP3    H1 3758   6.264   3.338   1.676
 1271TIP3    H2 3759   6.291   3.284   1.815
 1272TIP3   OH2 3760   3.019   4.831   3.134
 1272TIP3    H1 3761   2.981   4.853   3.049
 1272TIP3    H2 3762   3.110   4.859   3.128
 1273TIP3   OH2 3763   8.142   6.850   3.757
 1273TIP3    H1 3764   8.111   6.873   3.669
 1273TIP3    H2 3765   8.063   6.828   3.805
 1274TIP3   OH2 3766   4.908   4.576   6.751
 1274TIP3    H1 3767   4.827   4.559   6.799
 1274TIP3    H2 3768   4.880   4.595   6.661
 1275TIP3   OH2 3769   1.804   2.550   3.095
 1275TIP3    H1 3770   1.791   2.590   3.009
 1275TIP3    H2 3771   1.828   2.460   3.076
 1276TIP3   OH2 3772   5.895   3.762   3.737
 1276TIP3    H1 3773   5.800   3.762   3.721
 1276TIP3    H2 3774   5.910   3.843   3.787
 1277TIP3   OH2 3775   3.460   4.746   2.835
 1277TIP3    H1 3776   3.546   4.786   2.851
 1277TIP3    H2 3777   3.460   4.666   2.887
 1278TIP3   OH2 3778   7.033   2.541   1.925
 1278TIP3    H1 3779   6.949   2.497   1.913
 1278TIP3    H2 3780   7.010   2.628   1.959
 1279TIP3   OH2 3781   5.285   7.741   3.486
 1279TIP3    H1 3782   5.378   7.731   3.508
 1279TIP3    H2 3783   5.244   7.765   3.569
 1280TIP3   OH2 3784   3.099   4.863   5.236
 1280TIP3    H1 3785   3.080   4.770   5.224
 1280TIP3    H2 3786   3.156   4.867   5.313
 1281TIP3   OH2 3787   5.370   4.979   6.416
 1281TIP3    H1 3788   5.465   4.977   6.428
 1281TIP3    H2 3789   5.340   4.895   6.451
 1282TIP3   OH2 3790   0.744   3.331   4.909
 1282TIP3    H1 3791   0.708   3.402   4.856
 1282TIP3    H2 3792   0.739   3.364   4.999
 1283TIP3   OH2 3793   2.331   0.705   6.718
 1283TIP3    H1 3794   2.347   0.623   6.765
 1283TIP3    H2 3795   2.242   0.696   6.684
 1284TIP3   OH2 3796   6.987   1.251   3.489
 1284TIP3    H1 3797   6.917   1.288   3.542
 1284TIP3    H2 3798   6.957   1.262   3.399
 1285TIP3   OH2 3799   3.317   0.550   6.753
 1285TIP3    H1 3800   3.317   0.525   6.846
 1285TIP3    H2 3801   3.328   0.467   6.707
 1286TIP3   OH2 3802   3.345   1.500   2.437
 1286TIP3    H1 3803   3.323   1.483   2.529
 1286TIP3    H2 3804   3.388   1.420   2.407
 1287TIP3   OH2 3805   4.418   2.262   2.280
 1287TIP3    H1 3806   4.455   2.257   2.192
 1287TIP3    H2 3807   4.492   2.286   2.335
 1288TIP3   OH2 3808   7.105   1.950   6.102
 1288TIP3    H1 3809   7.128   1.918   6.189
 1288TIP3    H2 3810   7.111   1.873   6.045
 1289TIP3   OH2 3811   0.387   3.338   0.998
 1289TIP3    H1 3812   0.332   3.329   0.921
 1289TIP3    H2 3813   0.470   3.373   0.965
 1290TIP3   OH2 3814   7.525   4.699   0.769
 1290TIP3    H1 3815   7.596   4.686   0.706
 1290TIP3    H2 3816   7.569   4.703   0.854
 1291TIP3   OH2 3817   6.713   0.037   3.593
 1291TIP3    H1 3818   6.714   0.101   3.665
 1291TIP3    H2 3819   6.792   0.055   3.543
 1292TIP3   OH2 3820   3.567   2.948   2.511
 1292TIP3    H1 3821   3.631   2.991   2.454
 1292TIP3    H2 3822   3.483   2.983   2.483
 1293TIP3   OH2 3823   5.869   2.825   1.839
 1293TIP3    H1 3824   5.950   2.859   1.802
 1293TIP3    H2 3825   5.800   2.856   1.781
 1294TIP3   OH2 3826   3.326   3.233   4.702
 1294TIP3    H1 3827   3.239   3.220   4.662
 1294TIP3    H2 3828   3.328   3.325   4.727
 1295TIP3   OH2 3829   6.502   6.973   5.287
 1295TIP3    H1 3830   6.478   7.041   5.224
 1295TIP3    H2 3831   6.598   6.969   5.282
 1296TIP3   OH2 3832   3.519   3.339   1.748
 1296TIP3    H1 3833   3.610   3.309   1.753
 1296TIP3    H2 3834   3.526   3.433   1.734
 1297TIP3   OH2 3835   3.579   0.151   0.735
 1297TIP3    H1 3836   3.492   0.158   0.774
 1297TIP3    H2 3837   3.593   0.235   0.691
 1298TIP3   OH2 3838   1.119   7.269   2.373
 1298TIP3    H1 3839   1.181   7.227   2.314
 1298TIP3    H2 3840   1.063   7.198   2.403
 1299TIP3   OH2 3841   0.098   2.646   2.313
 1299TIP3    H1 3842   0.066   2.590   2.384
 1299TIP3    H2 3843   0.127   2.585   2.246
 1300TIP3   OH2 3844   3.384   6.831   2.071
 1300TIP3    H1 3845   3.396   6.919   2.105
 1300TIP3    H2 3846   3.323   6.790   2.132
 1301TIP3   OH2 3847   1.627   5.945   2.059
 1301TIP3    H1 3848   1.608   5.852   2.070
 1301TIP3    H2 3849   1.702   5.961   2.116
 1302TIP3   OH2 3850   5.097   2.555   3.734
 1302TIP3    H1 3851   5.177   2.562   3.786
 1302TIP3    H2 3852   5.111   2.479   3.678
 1303TIP3   OH2 3853   3.141   1.668   2.819
 1303TIP3    H1 3854   3.232   1.647   2.843
 1303TIP3    H2 3855   3.149   1.736   2.752
 1304TIP3   OH2 3856   8.289   5.212   3.347
 1304TIP3    H1 3857   8.250   5.291   3.384
 1304TIP3    H2 3858   8.258   5.209   3.257
 1305TIP3   OH2 3859   7.745   3.329   1.030
 1305TIP3    H1 3860   7.734   3.350   1.123
 1305TIP3    H2 3861   7.666   3.364   0.989
 1306TIP3   OH2 3862   5.696   3.881   5.313
 1306TIP3    H1 3863   5.680   3.933   5.392
 1306TIP3    H2 3864   5.611   3.877   5.270
 1307TIP3   OH2 3865   7.114   2.719   6.051
 1307TIP3    H1 3866   7.064   2.687   5.976
 1307TIP3    H2 3867   7.050   2.724   6.122
 1308TIP3   OH2 3868   5.099   5.593   5.381
 1308TIP3    H1 3869   5.080   5.642   5.461
 1308TIP3    H2 3870   5.015   5.558   5.353
 1309TIP3   OH2 3871   3.299   6.562   5.565
 1309TIP3    H1 3872   3.393   6.569   5.552
 1309TIP3    H2 3873   3.288   6.551   5.659
 1310TIP3   OH2 3874   0.670   7.786   0.570
 1310TIP3    H1 3875   0.622   7.851   0.519
 1310TIP3    H2 3876   0.731   7.837   0.623
 1311TIP3   OH2 3877   2.053   6.545   0.426
 1311TIP3    H1 3878   2.086   6.602   0.496
 1311TIP3    H2 3879   2.058   6.457   0.462
 1312TIP3   OH2 3880   3.713   0.289   1.502
 1312TIP3    H1 3881   3.704   0.367   1.448
 1312TIP3    H2 3882   3.677   0.314   1.587
 1313TIP3   OH2 3883   6.191   7.619   4.241
 1313TIP3    H1 3884   6.253   7.550   4.263
 1313TIP3    H2 3885   6.199   7.629   4.146
 1314TIP3   OH2 3886   3.125   3.082   5.046
 1314TIP3    H1 3887   3.144   3.053   5.135
 1314TIP3    H2 3888   3.206   3.122   5.015
 1315TIP3   OH2 3889   6.647   2.001   6.126
 1315TIP3    H1 3890   6.636   1.940   6.054
 1315TIP3    H2 3891   6.738   2.032   6.117
 1316TIP3   OH2 3892   4.890   5.645   5.961
 1316TIP3    H1 3893   4.886   5.740   5.953
 1316TIP3    H2 3894   4.798   5.617   5.956
 1317TIP3   OH2 3895   6.639   4.338   6.519
 1317TIP3    H1 3896   6.713   4.278   6.509
 1317TIP3    H2 3897   6.562   4.284   6.502
 1318TIP3   OH2 3898   2.915   3.585   0.899
 1318TIP3    H1 3899   2.999   3.550   0.929
 1318TIP3    H2 3900   2.873   3.512   0.854
 1319TIP3   OH2 3901   7.042   6.431   4.721
 1319TIP3    H1 3902   6.988   6.496   4.765
 1319TIP3    H2 3903   7.016   6.347   4.759
 1320TIP3   OH2 3904   7.065   5.234   0.337
 1320TIP3    H1 3905   7.111   5.162   0.295
 1320TIP3    H2 3906   7.059   5.209   0.429
 1321TIP3   OH2 3907   4.237   7.651   5.371
 1321TIP3    H1 3908   4.157   7.655   5.319
 1321TIP3    H2 3909   4.210   7.612   5.454
 1322TIP3   OH2 3910   6.118   1.112   4.534
 1322TIP3    H1 3911   6.172   1.054   4.480
 1322TIP3    H2 3912   6.116   1.195   4.486
 1323TIP3   OH2 3913   7.844   3.939   2.699
 1323TIP3    H1 3914   7.876   3.994   2.770
 1323TIP3    H2 3915   7.899   3.860   2.702
 1324TIP3   OH2 3916   4.398   3.824   4.496
 1324TIP3    H1 3917   4.366   3.736   4.481
 1324TIP3    H2 3918   4.463   3.815   4.566
 1325TIP3   OH2 3919   2.384   5.608   0.186
 1325TIP3    H1 3920   2.448   5.671   0.220
 1325TIP3    H2 3921   2.425   5.523   0.199
 1326TIP3   OH2 3922   7.952   2.217   1.775
 1326TIP3    H1 3923   7.969   2.124   1.756
 1326TIP3    H2 3924   7.905   2.249   1.698
 1327TIP3   OH2 3925   6.057   4.874   5.475
 1327TIP3    H1 3926   6.101   4.789   5.467
 1327TIP3    H2 3927   5.964   4.852   5.476
 1328TIP3   OH2 3928   6.017   2.204   6.098
 1328TIP3    H1 3929   5.933   2.172   6.131
 1328TIP3    H2 3930   6.072   2.213   6.176
 1329TIP3   OH2 3931   3.285   5.603   3.979
 1329TIP3    H1 3932   3.222   5.550   4.028
 1329TIP3    H2 3933   3.336   5.648   4.046
 1330TIP3   OH2 3934   2.458   1.949   2.946
 1330TIP3    H1 3935   2.529   1.988   2.998
 1330TIP3    H2 3936   2.390   1.928   3.011
 1331TIP3   OH2 3937   4.004   5.950   3.904
 1331TIP3    H1 3938   4.067   5.898   3.856
 1331TIP3    H2 3939   4.053   6.028   3.931
 1332TIP3   OH2 3940   0.595   0.869   1.118
 1332TIP3    H1 3941   0.569   0.861   1.026
 1332TIP3    H2 3942   0.690   0.866   1.116
 1333TIP3   OH2 3943   6.417   4.981   3.541
 1333TIP3    H1 3944   6.472   5.057   3.519
 1333TIP3    H2 3945   6.401   4.938   3.458
 1334TIP3   OH2 3946   6.584   2.172   3.790
 1334TIP3    H1 3947   6.648   2.230   3.748
 1334TIP3    H2 3948   6.626   2.086   3.790
 1335TIP3   OH2 3949   2.547   1.740   0.559
 1335TIP3    H1 3950   2.520   1.651   0.536
 1335TIP3    H2 3951   2.546   1.787   0.475
 1336TIP3   OH2 3952   6.201   6.125   4.247
 1336TIP3    H1 3953   6.113   6.165   4.251
 1336TIP3    H2 3954   6.229   6.121   4.339
 1337TIP3   OH2 3955   7.457   5.871   2.902
 1337TIP3    H1 3956   7.385   5.922   2.864
 1337TIP3    H2 3957   7.481   5.920   2.981
 1338TIP3   OH2 3958   2.088   6.353   1.542
 1338TIP3    H1 3959   2.009   6.303   1.519
 1338TIP3    H2 3960   2.091   6.423   1.477
 1339TIP3   OH2 3961   7.717   3.038   6.171
 1339TIP3    H1 3962   7.750   3.116   6.215
 1339TIP3    H2 3963   7.652   3.001   6.231
 1340TIP3   OH2 3964   2.842   3.925   5.308
 1340TIP3    H1 3965   2.859   3.834   5.333
 1340TIP3    H2 3966   2.855   3.975   5.388
 1341TIP3   OH2 3967   1.988   6.055   6.232
 1341TIP3    H1 3968   1.923   6.119   6.206
 1341TIP3    H2 3969   1.958   5.973   6.194
 1342TIP3   OH2 3970   8.222   1.286   6.712
 1342TIP3    H1 3971   8.138   1.328   6.693
 1342TIP3    H2 3972   8.231   1.220   6.644
 1343TIP3   OH2 3973   4.515   6.816   5.783
 1343TIP3    H1 3974   4.589   6.839   5.727
 1343TIP3    H2 3975   4.445   6.790   5.722
 1344TIP3   OH2 3976   1.867   4.955   0.354
 1344TIP3    H1 3977   1.856   5.031   0.297
 1344TIP3    H2 3978   1.920   4.894   0.303
 1345TIP3   OH2 3979   2.399   3.432   3.860
 1345TIP3    H1 3980   2.352   3.451   3.779
 1345TIP3    H2 3981   2.344   3.467   3.929
 1346TIP3   OH2 3982   6.588   3.433   2.733
 1346TIP3    H1 3983   6.554   3.522   2.740
 1346TIP3    H2 3984   6.610   3.409   2.823
 1347TIP3   OH2 3985   4.955   2.803   5.812
 1347TIP3    H1 3986   5.023   2.775   5.751
 1347TIP3    H2 3987   4.905   2.869   5.763
 1348TIP3   OH2 3988   6.008   7.086   0.808
 1348TIP3    H1 3989   6.006   7.097   0.713
 1348TIP3    H2 3990   5.960   7.005   0.824
 1349TIP3   OH2 3991   4.170   5.957   2.079
 1349TIP3    H1 3992   4.179   6.032   2.137
 1349TIP3    H2 3993   4.117   5.988   2.006
 1350TIP3   OH2 3994   4.160   6.808   3.440
 1350TIP3    H1 3995   4.068   6.797   3.414
 1350TIP3    H2 3996   4.164   6.770   3.527
 1351TIP3   OH2 3997   0.394   2.376   0.560
 1351TIP3    H1 3998   0.352   2.290   0.564
 1351TIP3    H2 3999   0.450   2.372   0.482
 1352TIP3   OH2 4000   1.655   2.072   1.309
 1352TIP3    H1 4001   1.577   2.038   1.352
 1352TIP3    H2 4002   1.699   2.125   1.376
 1353TIP3   OH2 4003   4.926   4.424   1.437
 1353TIP3    H1 4004   4.887   4.343   1.403
 1353TIP3    H2 4005   4.874   4.444   1.515
 1354TIP3   OH2 4006   4.871   6.975   4.177
 1354TIP3    H1 4007   4.803   6.934   4.124
 1354TIP3    H2 4008   4.826   6.998   4.259
 1355TIP3   OH2 4009   5.649   3.302   6.534
 1355TIP3    H1 4010   5.622   3.215   6.563
 1355TIP3    H2 4011   5.716   3.285   6.467
 1356TIP3   OH2 4012   3.180   2.087   4.426
 1356TIP3    H1 4013   3.263   2.043   4.441
 1356TIP3    H2 4014   3.161   2.073   4.333
 1357TIP3   OH2 4015   5.559   4.326   4.730
 1357TIP3    H1 4016   5.594   4.238   4.739
 1357TIP3    H2 4017   5.635   4.380   4.708
 1358TIP3   OH2 4018   6.901   1.069   2.185
 1358TIP3    H1 4019   6.961   1.001   2.212
 1358TIP3    H2 4020   6.857   1.096   2.266
 1359TIP3   OH2 4021   0.222   5.869   2.610
 1359TIP3    H1 4022   0.190   5.920   2.685
 1359TIP3    H2 4023   0.307   5.835   2.639
 1360TIP3   OH2 4024   1.644   6.223   6.028
 1360TIP3    H1 4025   1.718   6.276   5.998
 1360TIP3    H2 4026   1.672   6.133   6.016
 1361TIP3   OH2 4027   6.637   4.455   5.419
 1361TIP3    H1 4028   6.640   4.386   5.352
 1361TIP3    H2 4029   6.640   4.537   5.370
 1362TIP3   OH2 4030   5.507   2.836   6.409
 1362TIP3    H1 4031   5.579   2.820   6.470
 1362TIP3    H2 4032   5.508   2.761   6.350
 1363TIP3   OH2 4033   1.564   4.609   2.631
 1363TIP3    H1 4034   1.550   4.657   2.713
 1363TIP3    H2 4035   1.590   4.521   2.659
 1364TIP3   OH2 4036   2.324   7.595   4.961
 1364TIP3    H1 4037   2.376   7.553   5.030
 1364TIP3    H2 4038   2.238   7.553   4.967
 1365TIP3   OH2 4039   1.505   2.611   3.621
 1365TIP3    H1 4040   1.522   2.544   3.555
 1365TIP3    H2 4041   1.591   2.631   3.659
 1366TIP3   OH2 4042   7.927   6.179   1.122
 1366TIP3    H1 4043   7.890   6.091   1.110
 1366TIP3    H2 4044   7.895   6.207   1.207
 1367TIP3   OH2 4045   1.492   5.088   2.409
 1367TIP3    H1 4046   1.506   5.053   2.321
 1367TIP3    H2 4047   1.403   5.123   2.408
 1368TIP3   OH2 4048   5.401   6.654   2.902
 1368TIP3    H1 4049   5.469   6.620   2.960
 1368TIP3    H2 4050   5.345   6.707   2.958
 1369TIP3   OH2 4051   3.797   4.850   5.716
 1369TIP3    H1 4052   3.880   4.804   5.724
 1369TIP3    H2 4053   3.812   4.935   5.758
 1370TIP3   OH2 4054   2.939   7.268   2.351
 1370TIP3    H1 4055   2.935   7.231   2.263
 1370TIP3    H2 4056   2.986   7.351   2.340
 1371TIP3   OH2 4057   3.560   5.209   6.418
 1371TIP3    H1 4058   3.497   5.203   6.346
 1371TIP3    H2 4059   3.529   5.281   6.472
 1372TIP3   OH2 4060   4.747   5.668   0.017
 1372TIP3    H1 4061   4.725   5.752  -0.023
 1372TIP3    H2 4062   4.842   5.673   0.032
 1373TIP3   OH2 4063   5.008   2.539   6.494
 1373TIP3    H1 4064   4.978   2.615   6.445
 1373TIP3    H2 4065   5.031   2.474   6.428
 1374TIP3   OH2 4066   3.491   3.065   0.280
 1374TIP3    H1 4067   3.563   3.096   0.226
 1374TIP3    H2 4068   3.533   3.019   0.353
 1375TIP3   OH2 4069   7.136   3.799   1.124
 1375TIP3    H1 4070   7.099   3.814   1.037
 1375TIP3    H2 4071   7.134   3.703   1.134
 1376TIP3   OH2 4072   2.012   0.034   3.996
 1376TIP3    H1 4073   1.998  -0.057   4.022
 1376TIP3    H2 4074   2.107   0.046   3.998
 1377TIP3   OH2 4075   5.896   2.776   0.097
 1377TIP3    H1 4076   5.848   2.707   0.142
 1377TIP3    H2 4077   5.926   2.736   0.016
 1378TIP3   OH2 4078   4.624   0.420   3.171
 1378TIP3    H1 4079   4.623   0.424   3.267
 1378TIP3    H2 4080   4.532   0.411   3.147
 1379TIP3   OH2 4081   3.820   6.096   3.795
 1379TIP3    H1 4082   3.891   6.041   3.830
 1379TIP3    H2 4083   3.777   6.042   3.730
 1380TIP3   OH2 4084   1.847   5.596   4.951
 1380TIP3    H1 4085   1.887   5.533   5.011
 1380TIP3    H2 4086   1.920   5.654   4.925
 1381TIP3   OH2 4087   5.387   5.960   6.514
 1381TIP3    H1 4088   5.466   6.013   6.526
 1381TIP3    H2 4089   5.318   6.024   6.496
 1382TIP3   OH2 4090   6.649   5.078   4.895
 1382TIP3    H1 4091   6.685   5.142   4.956
 1382TIP3    H2 4092   6.724   5.025   4.868
 1383TIP3   OH2 4093   5.954   0.934   0.059
 1383TIP3    H1 4094   5.915   0.952  -0.027
 1383TIP3    H2 4095   6.039   0.895   0.039
 1384TIP3   OH2 4096   2.802   4.584   0.245
 1384TIP3    H1 4097   2.868   4.543   0.189
 1384TIP3    H2 4098   2.797   4.674   0.214
 1385TIP3   OH2 4099   0.246   0.981   3.110
 1385TIP3    H1 4100   0.258   1.067   3.069
 1385TIP3    H2 4101   0.322   0.970   3.166
 1386TIP3   OH2 4102   1.322   1.000   5.437
 1386TIP3    H1 4103   1.374   1.048   5.502
 1386TIP3    H2 4104   1.361   1.023   5.353
 1387TIP3   OH2 4105   2.408   2.570   6.481
 1387TIP3    H1 4106   2.405   2.571   6.577
 1387TIP3    H2 4107   2.500   2.552   6.460
 1388TIP3   OH2 4108   1.451   4.412   4.260
 1388TIP3    H1 4109   1.385   4.481   4.251
 1388TIP3    H2 4110   1.467   4.407   4.354
 1389TIP3   OH2 4111   5.678   0.621   5.561
 1389TIP3    H1 4112   5.618   0.641   5.634
 1389TIP3    H2 4113   5.663   0.692   5.498
 1390TIP3   OH2 4114   7.950   3.628   1.970
 1390TIP3    H1 4115   7.938   3.533   1.971
 1390TIP3    H2 4116   7.881   3.661   1.913
 1391TIP3   OH2 4117   8.211   2.941   6.554
 1391TIP3    H1 4118   8.254   2.993   6.486
 1391TIP3    H2 4119   8.234   2.984   6.636
 1392TIP3   OH2 4120   7.962   2.832   3.292
 1392TIP3    H1 4121   7.964   2.841   3.197
 1392TIP3    H2 4122   8.046   2.793   3.315
 1393TIP3   OH2 4123   0.247   5.236   0.367
 1393TIP3    H1 4124   0.333   5.195   0.374
 1393TIP3    H2 4125   0.192   5.169   0.326
 1394TIP3   OH2 4126   0.842   4.000   3.863
 1394TIP3    H1 4127   0.856   4.053   3.941
 1394TIP3    H2 4128   0.924   4.005   3.815
 1395TIP3   OH2 4129   0.895   4.624   4.863
 1395TIP3    H1 4130   0.901   4.576   4.781
 1395TIP3    H2 4131   0.928   4.564   4.930
 1396TIP3   OH2 4132   7.815   5.706   0.486
 1396TIP3    H1 4133   7.790   5.661   0.405
 1396TIP3    H2 4134   7.834   5.636   0.548
 1397TIP3   OH2 4135   0.956   1.256   0.740
 1397TIP3    H1 4136   1.002   1.193   0.795
 1397TIP3    H2 4137   0.979   1.342   0.777
 1398TIP3   OH2 4138   5.643   6.573   1.787
 1398TIP3    H1 4139   5.635   6.655   1.738
 1398TIP3    H2 4140   5.593   6.509   1.736
 1399TIP3   OH2 4141   7.104   6.221   2.308
 1399TIP3    H1 4142   7.046   6.242   2.236
 1399TIP3    H2 4143   7.068   6.140   2.344
 1400TIP3   OH2 4144   6.972   0.305   3.033
 1400TIP3    H1 4145   6.911   0.235   3.055
 1400TIP3    H2 4146   7.042   0.298   3.098
 1401TIP3   OH2 4147   3.263   5.552   6.738
 1401TIP3    H1 4148   3.285   5.520   6.825
 1401TIP3    H2 4149   3.256   5.647   6.749
 1402TIP3   OH2 4150   0.518   0.766   3.085
 1402TIP3    H1 4151   0.512   0.815   3.167
 1402TIP3    H2 4152   0.432   0.726   3.074
 1403TIP3   OH2 4153   7.284   2.829   0.973
 1403TIP3    H1 4154   7.301   2.808   0.881
 1403TIP3    H2 4155   7.201   2.786   0.994
 1404TIP3   OH2 4156   1.112   5.304   5.551
 1404TIP3    H1 4157   1.070   5.377   5.505
 1404TIP3    H2 4158   1.181   5.275   5.491
 1405TIP3   OH2 4159   5.943   3.348   3.575
 1405TIP3    H1 4160   5.903   3.357   3.662
 1405TIP3    H2 4161   5.872   3.317   3.519
 1406TIP3   OH2 4162   6.482   0.163   1.890
 1406TIP3    H1 4163   6.571   0.130   1.900
 1406TIP3    H2 4164   6.450   0.123   1.809
 1407TIP3   OH2 4165   0.758   2.597   6.321
 1407TIP3    H1 4166   0.730   2.512   6.285
 1407TIP3    H2 4167   0.683   2.655   6.307
 1408TIP3   OH2 4168   7.524   0.863   3.892
 1408TIP3    H1 4169   7.546   0.850   3.800
 1408TIP3    H2 4170   7.500   0.776   3.924
 1409TIP3   OH2 4171   0.912   2.045   2.470
 1409TIP3    H1 4172   0.905   1.990   2.392
 1409TIP3    H2 4173   0.822   2.074   2.487
 1410TIP3   OH2 4174   7.516   1.115   0.007
 1410TIP3    H1 4175   7.483   1.064   0.081
 1410TIP3    H2 4176   7.510   1.206   0.036
 1411TIP3   OH2 4177   7.739   2.013   2.771
 1411TIP3    H1 4178   7.755   2.106   2.752
 1411TIP3    H2 4179   7.647   1.999   2.747
 1412TIP3   OH2 4180   4.608   7.321   1.807
 1412TIP3    H1 4181   4.554   7.312   1.729
 1412TIP3    H2 4182   4.600   7.414   1.830
 1413TIP3   OH2 4183   2.213   4.537   0.005
 1413TIP3    H1 4184   2.207   4.630  -0.014
 1413TIP3    H2 4185   2.251   4.531   0.092
 1414TIP3   OH2 4186   0.569   4.258   4.412
 1414TIP3    H1 4187   0.645   4.239   4.467
 1414TIP3    H2 4188   0.504   4.193   4.439
 1415TIP3   OH2 4189   6.151   3.129   3.159
 1415TIP3    H1 4190   6.145   3.172   3.074
 1415TIP3    H2 4191   6.224   3.174   3.203
 1416TIP3   OH2 4192   5.092   4.634   1.408
 1416TIP3    H1 4193   5.030   4.564   1.430
 1416TIP3    H2 4194   5.166   4.587   1.369
 1417TIP3   OH2 4195   7.895   6.983   6.378
 1417TIP3    H1 4196   7.872   7.019   6.292
 1417TIP3    H2 4197   7.969   7.037   6.408
 1418TIP3   OH2 4198   4.305   5.607   1.345
 1418TIP3    H1 4199   4.217   5.641   1.328
 1418TIP3    H2 4200   4.360   5.653   1.282
 1419TIP3   OH2 4201   6.209   6.366   6.364
 1419TIP3    H1 4202   6.218   6.457   6.391
 1419TIP3    H2 4203   6.275   6.319   6.415
 1420TIP3   OH2 4204   4.979   1.028   1.705
 1420TIP3    H1 4205   5.016   1.032   1.793
 1420TIP3    H2 4206   4.902   1.086   1.709
 1421TIP3   OH2 4207   2.508   4.600   3.628
 1421TIP3    H1 4208   2.588   4.568   3.671
 1421TIP3    H2 4209   2.439   4.587   3.693
 1422TIP3   OH2 4210   0.986   3.255   4.029
 1422TIP3    H1 4211   1.014   3.165   4.010
 1422TIP3    H2 4212   0.983   3.260   4.124
 1423TIP3   OH2 4213   2.861   3.601   4.691
 1423TIP3    H1 4214   2.769   3.574   4.682
 1423TIP3    H2 4215   2.869   3.678   4.635
 1424TIP3   OH2 4216   5.025   3.527   6.637
 1424TIP3    H1 4217   4.935   3.555   6.650
 1424TIP3    H2 4218   5.035   3.450   6.693
 1425TIP3   OH2 4219   7.737   7.676   6.283
 1425TIP3    H1 4220   7.739   7.748   6.347
 1425TIP3    H2 4221   7.649   7.639   6.292
 1426TIP3   OH2 4222   7.664   1.355   6.003
 1426TIP3    H1 4223   7.650   1.299   6.079
 1426TIP3    H2 4224   7.634   1.441   6.030
 1427TIP3   OH2 4225   3.032   6.750   2.802
 1427TIP3    H1 4226   2.938   6.757   2.788
 1427TIP3    H2 4227   3.041   6.705   2.886
 1428TIP3   OH2 4228   5.086   3.197   2.522
 1428TIP3    H1 4229   5.170   3.154   2.536
 1428TIP3    H2 4230   5.021   3.138   2.558
 1429TIP3   OH2 4231   0.721   7.690   0.955
 1429TIP3    H1 4232   0.749   7.736   1.034
 1429TIP3    H2 4233   0.631   7.720   0.940
 1430TIP3   OH2 4234   7.291   6.284   3.669
 1430TIP3    H1 4235   7.215   6.313   3.618
 1430TIP3    H2 4236   7.337   6.364   3.692
 1431TIP3   OH2 4237   1.589   2.795   6.441
 1431TIP3    H1 4238   1.647   2.850   6.388
 1431TIP3    H2 4239   1.575   2.845   6.522
 1432TIP3   OH2 4240   6.760   3.379   2.005
 1432TIP3    H1 4241   6.801   3.370   1.919
 1432TIP3    H2 4242   6.763   3.473   2.024
 1433TIP3   OH2 4243   3.560   0.839   2.799
 1433TIP3    H1 4244   3.495   0.815   2.865
 1433TIP3    H2 4245   3.570   0.761   2.745
 1434TIP3   OH2 4246   2.522   3.097   5.691
 1434TIP3    H1 4247   2.531   3.186   5.726
 1434TIP3    H2 4248   2.604   3.054   5.715
 1435TIP3   OH2 4249   6.056   6.194   5.610
 1435TIP3    H1 4250   6.119   6.199   5.682
 1435TIP3    H2 4251   5.971   6.202   5.651
 1436TIP3   OH2 4252   6.768   4.111   4.051
 1436TIP3    H1 4253   6.798   4.201   4.035
 1436TIP3    H2 4254   6.846   4.063   4.077
 1437TIP3   OH2 4255   1.382   6.910   2.519
 1437TIP3    H1 4256   1.317   6.957   2.571
 1437TIP3    H2 4257   1.331   6.848   2.467
 1438TIP3   OH2 4258   5.140   3.677   4.194
 1438TIP3    H1 4259   5.188   3.668   4.112
 1438TIP3    H2 4260   5.118   3.770   4.199
 1439TIP3   OH2 4261   6.534   3.195   2.617
 1439TIP3    H1 4262   6.446   3.197   2.578
 1439TIP3    H2 4263   6.538   3.273   2.671
 1440TIP3   OH2 4264   2.005   2.089   3.272
 1440TIP3    H1 4265   2.027   2.035   3.348
 1440TIP3    H2 4266   1.945   2.155   3.306
 1441TIP3   OH2 4267   4.883   0.905   5.063
 1441TIP3    H1 4268   4.842   0.964   4.999
 1441TIP3    H2 4269   4.826   0.828   5.065
 1442TIP3   OH2 4270   4.079   5.869   5.499
 1442TIP3    H1 4271   3.985   5.862   5.486
 1442TIP3    H2 4272   4.110   5.778   5.500
 1443TIP3   OH2 4273   7.423   3.759   0.340
 1443TIP3    H1 4274   7.495   3.708   0.302
 1443TIP3    H2 4275   7.399   3.711   0.419
 1444TIP3   OH2 4276   6.372   7.546   0.198
 1444TIP3    H1 4277   6.346   7.460   0.230
 1444TIP3    H2 4278   6.405   7.530   0.110
 1445TIP3   OH2 4279   5.765   1.841   3.109
 1445TIP3    H1 4280   5.745   1.898   3.035
 1445TIP3    H2 4281   5.687   1.847   3.165
 1446TIP3   OH2 4282   7.363   4.059   3.139
 1446TIP3    H1 4283   7.353   3.966   3.119
 1446TIP3    H2 4284   7.308   4.104   3.075
 1447TIP3   OH2 4285   0.220   2.585   2.946
 1447TIP3    H1 4286   0.216   2.528   3.024
 1447TIP3    H2 4287   0.135   2.572   2.904
 1448TIP3   OH2 4288   4.802   7.821   3.022
 1448TIP3    H1 4289   4.731   7.771   3.061
 1448TIP3    H2 4290   4.770   7.843   2.934
 1449TIP3   OH2 4291   7.396   7.673   1.335
 1449TIP3    H1 4292   7.423   7.661   1.244
 1449TIP3    H2 4293   7.354   7.759   1.337
 1450TIP3   OH2 4294   4.805   2.192   6.429
 1450TIP3    H1 4295   4.877   2.220   6.372
 1450TIP3    H2 4296   4.846   2.182   6.515
 1451TIP3   OH2 4297   6.024   1.398   1.257
 1451TIP3    H1 4298   6.062   1.429   1.339
 1451TIP3    H2 4299   5.985   1.313   1.279
 1452TIP3   OH2 4300   3.085   7.603   5.199
 1452TIP3    H1 4301   3.088   7.608   5.294
 1452TIP3    H2 4302   2.996   7.629   5.177
 1453TIP3   OH2 4303   4.462   4.344   1.784
 1453TIP3    H1 4304   4.379   4.319   1.823
 1453TIP3    H2 4305   4.442   4.419   1.728
 1454TIP3   OH2 4306   6.146   0.033   4.826
 1454TIP3    H1 4307   6.150  -0.061   4.845
 1454TIP3    H2 4308   6.212   0.072   4.883
 1455TIP3   OH2 4309   4.693   3.441   1.292
 1455TIP3    H1 4310   4.787   3.426   1.283
 1455TIP3    H2 4311   4.665   3.378   1.358
 1456TIP3   OH2 4312   7.513   4.400   5.669
 1456TIP3    H1 4313   7.447   4.412   5.737
 1456TIP3    H2 4314   7.492   4.468   5.604
 1457TIP3   OH2 4315   1.569   1.304   4.474
 1457TIP3    H1 4316   1.497   1.246   4.499
 1457TIP3    H2 4317   1.568   1.373   4.540
 1458TIP3   OH2 4318   3.627   6.910   4.969
 1458TIP3    H1 4319   3.572   6.987   4.979
 1458TIP3    H2 4320   3.715   6.944   4.958
 1459TIP3   OH2 4321   0.741   0.946   5.588
 1459TIP3    H1 4322   0.700   1.033   5.593
 1459TIP3    H2 4323   0.824   0.962   5.544
 1460TIP3   OH2 4324   3.711   3.688   3.358
 1460TIP3    H1 4325   3.687   3.608   3.405
 1460TIP3    H2 4326   3.763   3.657   3.283
 1461TIP3   OH2 4327   0.440   4.071   2.816
 1461TIP3    H1 4328   0.345   4.072   2.830
 1461TIP3    H2 4329   0.474   4.137   2.876
 1462TIP3   OH2 4330   0.260   3.108   5.242
 1462TIP3    H1 4331   0.192   3.075   5.301
 1462TIP3    H2 4332   0.313   3.032   5.221
 1463TIP3   OH2 4333   7.436   5.498   0.172
 1463TIP3    H1 4334   7.392   5.577   0.140
 1463TIP3    H2 4335   7.373   5.427   0.158
 1464TIP3   OH2 4336   3.126   6.633   4.319
 1464TIP3    H1 4337   3.204   6.634   4.263
 1464TIP3    H2 4338   3.121   6.543   4.352
 1465TIP3   OH2 4339   4.990   2.766   6.376
 1465TIP3    H1 4340   4.901   2.795   6.358
 1465TIP3    H2 4341   5.037   2.780   6.294
 1466TIP3   OH2 4342   2.535   1.216   0.573
 1466TIP3    H1 4343   2.477   1.288   0.551
 1466TIP3    H2 4344   2.479   1.152   0.615
 1467TIP3   OH2 4345   7.490   7.323   0.573
 1467TIP3    H1 4346   7.401   7.320   0.609
 1467TIP3    H2 4347   7.478   7.348   0.482
 1468TIP3   OH2 4348   2.236   7.672   1.769
 1468TIP3    H1 4349   2.326   7.704   1.773
 1468TIP3    H2 4350   2.228   7.635   1.681
 1469TIP3   OH2 4351   2.549   5.149   3.276
 1469TIP3    H1 4352   2.468   5.115   3.237
 1469TIP3    H2 4353   2.543   5.127   3.368
 1470TIP3   OH2 4354   6.525   0.361   4.279
 1470TIP3    H1 4355   6.619   0.360   4.294
 1470TIP3    H2 4356   6.499   0.452   4.294
 1471TIP3   OH2 4357   7.917   6.891   2.328
 1471TIP3    H1 4358   7.865   6.811   2.317
 1471TIP3    H2 4359   7.876   6.954   2.271
 1472TIP3   OH2 4360   3.863   3.219   3.640
 1472TIP3    H1 4361   3.879   3.157   3.711
 1472TIP3    H2 4362   3.824   3.167   3.570
 1473TIP3   OH2 4363   2.243   0.922   1.046
 1473TIP3    H1 4364   2.243   0.934   0.951
 1473TIP3    H2 4365   2.313   0.859   1.062
 1474TIP3   OH2 4366   1.723   1.337   0.164
 1474TIP3    H1 4367   1.678   1.398   0.105
 1474TIP3    H2 4368   1.765   1.273   0.106
 1475TIP3   OH2 4369   1.493   3.029   6.079
 1475TIP3    H1 4370   1.493   3.021   5.984
 1475TIP3    H2 4371   1.441   2.955   6.109
 1476TIP3   OH2 4372   3.632   0.257   5.581
 1476TIP3    H1 4373   3.599   0.224   5.664
 1476TIP3    H2 4374   3.558   0.303   5.542
 1477TIP3   OH2 4375   0.130   2.830   1.180
 1477TIP3    H1 4376   0.042   2.796   1.164
 1477TIP3    H2 4377   0.117   2.894   1.250
 1478TIP3   OH2 4378   3.305   6.661   0.115
 1478TIP3    H1 4379   3.302   6.569   0.140
 1478TIP3    H2 4380   3.259   6.706   0.185
 1479TIP3   OH2 4381   5.830  -0.016   2.610
 1479TIP3    H1 4382   5.916  -0.038   2.646
 1479TIP3    H2 4383   5.844   0.063   2.559
 1480TIP3   OH2 4384   4.675   1.798   5.875
 1480TIP3    H1 4385   4.763   1.784   5.911
 1480TIP3    H2 4386   4.633   1.858   5.937
 1481TIP3   OH2 4387   0.345   7.787   2.201
 1481TIP3    H1 4388   0.295   7.864   2.228
 1481TIP3    H2 4389   0.322   7.774   2.109
 1482TIP3   OH2 4390   4.850   7.514   3.145
 1482TIP3    H1 4391   4.913   7.545   3.080
 1482TIP3    H2 4392   4.768   7.557   3.121
 1483TIP3   OH2 4393   4.988   5.518   1.901
 1483TIP3    H1 4394   4.934   5.468   1.841
 1483TIP3    H2 4395   4.954   5.496   1.988
 1484TIP3   OH2 4396   0.959   2.445   5.280
 1484TIP3    H1 4397   1.016   2.439   5.203
 1484TIP3    H2 4398   0.890   2.381   5.263
 1485TIP3   OH2 4399   6.024   6.905   5.615
 1485TIP3    H1 4400   6.011   6.830   5.558
 1485TIP3    H2 4401   6.066   6.971   5.560
 1486TIP3   OH2 4402   6.286   6.944   6.619
 1486TIP3    H1 4403   6.360   6.951   6.559
 1486TIP3    H2 4404   6.320   6.893   6.693
 1487TIP3   OH2 4405   0.920   5.116   5.568
 1487TIP3    H1 4406   0.992   5.178   5.558
 1487TIP3    H2 4407   0.906   5.111   5.662
 1488TIP3   OH2 4408   4.392   0.055   6.716
 1488TIP3    H1 4409   4.407   0.025   6.806
 1488TIP3    H2 4410   4.444  -0.003   6.662
 1489TIP3   OH2 4411   8.221   4.754   0.141
 1489TIP3    H1 4412   8.175   4.837   0.131
 1489TIP3    H2 4413   8.188   4.700   0.069
 1490TIP3   OH2 4414   5.408   3.341   6.776
 1490TIP3    H1 4415   5.419   3.334   6.681
 1490TIP3    H2 4416   5.435   3.431   6.797
 1491TIP3   OH2 4417   7.363   7.211   1.133
 1491TIP3    H1 4418   7.390   7.163   1.055
 1491TIP3    H2 4419   7.323   7.144   1.189
 1492TIP3   OH2 4420   6.977   3.208   0.994
 1492TIP3    H1 4421   6.907   3.267   0.966
 1492TIP3    H2 4422   6.981   3.141   0.925
 1493TIP3   OH2 4423   4.130   2.729   2.371
 1493TIP3    H1 4424   4.040   2.758   2.385
 1493TIP3    H2 4425   4.165   2.714   2.459
 1494TIP3   OH2 4426   5.354   6.831   0.852
 1494TIP3    H1 4427   5.310   6.909   0.886
 1494TIP3    H2 4428   5.288   6.789   0.798
 1495TIP3   OH2 4429   0.558   2.650   4.909
 1495TIP3    H1 4430   0.555   2.677   4.818
 1495TIP3    H2 4431   0.633   2.696   4.947
 1496TIP3   OH2 4432   5.997   4.057   4.313
 1496TIP3    H1 4433   6.036   4.062   4.400
 1496TIP3    H2 4434   5.904   4.073   4.327
 1497TIP3   OH2 4435   6.018   7.282   2.074
 1497TIP3    H1 4436   6.077   7.290   2.148
 1497TIP3    H2 4437   6.076   7.266   1.999
 1498TIP3   OH2 4438   0.316   4.224   4.715
 1498TIP3    H1 4439   0.339   4.254   4.627
 1498TIP3    H2 4440   0.228   4.186   4.705
 1499TIP3   OH2 4441   2.671   5.893   4.573
 1499TIP3    H1 4442   2.693   5.837   4.499
 1499TIP3    H2 4443   2.745   5.952   4.582
 1500TIP3   OH2 4444   1.143   3.488   0.486
 1500TIP3    H1 4445   1.180   3.547   0.552
 1500TIP3    H2 4446   1.059   3.527   0.462
 1501TIP3   OH2 4447   5.452   1.112   2.970
 1501TIP3    H1 4448   5.381   1.152   2.920
 1501TIP3    H2 4449   5.505   1.067   2.904
 1502TIP3   OH2 4450   5.671   2.852   1.344
 1502TIP3    H1 4451   5.622   2.900   1.411
 1502TIP3    H2 4452   5.696   2.918   1.280
 1503TIP3   OH2 4453   1.726   3.167   1.604
 1503TIP3    H1 4454   1.665   3.227   1.647
 1503TIP3    H2 4455   1.786   3.139   1.673
 1504TIP3   OH2 4456   2.836   7.829   5.390
 1504TIP3    H1 4457   2.793   7.888   5.328
 1504TIP3    H2 4458   2.838   7.745   5.344
 1505TIP3   OH2 4459   1.785   5.423   5.220
 1505TIP3    H1 4460   1.743   5.338   5.220
 1505TIP3    H2 4461   1.872   5.407   5.183
 1506TIP3   OH2 4462   3.330   5.413   3.388
 1506TIP3    H1 4463   3.266   5.371   3.446
 1506TIP3    H2 4464   3.300   5.391   3.300
 1507TIP3   OH2 4465   2.800   3.365   4.498
 1507TIP3    H1 4466   2.803   3.335   4.589
 1507TIP3    H2 4467   2.772   3.288   4.449
 1508TIP3   OH2 4468   0.397   6.570   2.436
 1508TIP3    H1 4469   0.351   6.503   2.386
 1508TIP3    H2 4470   0.482   6.579   2.394
 1509TIP3   OH2 4471   7.574   0.899   1.069
 1509TIP3    H1 4472   7.618   0.911   0.985
 1509TIP3    H2 4473   7.612   0.966   1.126
 1510TIP3   OH2 4474   7.325   0.621   6.587
 1510TIP3    H1 4475   7.391   0.553   6.604
 1510TIP3    H2 4476   7.354   0.661   6.505
 1511TIP3   OH2 4477   3.808   3.557   2.005
 1511TIP3    H1 4478   3.723   3.601   2.000
 1511TIP3    H2 4479   3.839   3.576   2.094
 1512TIP3   OH2 4480   6.695   1.694   4.220
 1512TIP3    H1 4481   6.683   1.623   4.157
 1512TIP3    H2 4482   6.693   1.652   4.306
 1513TIP3   OH2 4483   7.101   2.303   0.797
 1513TIP3    H1 4484   7.168   2.242   0.828
 1513TIP3    H2 4485   7.061   2.258   0.722
 1514TIP3   OH2 4486   0.162   7.179   2.063
 1514TIP3    H1 4487   0.166   7.176   1.968
 1514TIP3    H2 4488   0.217   7.253   2.088
 1515TIP3   OH2 4489   8.042   5.018   2.359
 1515TIP3    H1 4490   7.972   5.073   2.397
 1515TIP3    H2 4491   8.049   4.944   2.420
 1516TIP3   OH2 4492   7.177   4.358   4.844
 1516TIP3    H1 4493   7.110   4.425   4.828
 1516TIP3    H2 4494   7.142   4.306   4.916
 1517TIP3   OH2 4495   6.108   0.447   2.881
 1517TIP3    H1 4496   6.118   0.354   2.901
 1517TIP3    H2 4497   6.074   0.449   2.792
 1518TIP3   OH2 4498   5.106   7.429   3.986
 1518TIP3    H1 4499   5.022   7.474   3.994
 1518TIP3    H2 4500   5.167   7.497   3.958
 1519TIP3   OH2 4501   2.724   1.445   3.028
 1519TIP3    H1 4502   2.792   1.394   2.984
 1519TIP3    H2 4503   2.759   1.534   3.030
 1520TIP3   OH2 4504   2.116   2.512   2.209
 1520TIP3    H1 4505   2.153   2.424   2.217
 1520TIP3    H2 4506   2.098   2.539   2.299
 1521TIP3   OH2 4507   1.209   5.003   4.575
 1521TIP3    H1 4508   1.127   5.043   4.603
 1521TIP3    H2 4509   1.187   4.910   4.565
 1522TIP3   OH2 4510   4.556   4.373   5.324
 1522TIP3    H1 4511   4.567   4.465   5.349
 1522TIP3    H2 4512   4.555   4.325   5.407
 1523TIP3   OH2 4513   2.950   4.274   2.553
 1523TIP3    H1 4514   3.043   4.296   2.549
 1523TIP3    H2 4515   2.914   4.308   2.471
 1524TIP3   OH2 4516   5.317   4.843   4.669
 1524TIP3    H1 4517   5.221   4.844   4.666
 1524TIP3    H2 4518   5.340   4.751   4.678
 1525TIP3   OH2 4519   3.082   4.238   5.405
 1525TIP3    H1 4520   3.044   4.237   5.318
 1525TIP3    H2 4521   3.049   4.157   5.446
 1526TIP3   OH2 4522   5.046   6.723   4.936
 1526TIP3    H1 4523   5.000   6.805   4.950
 1526TIP3    H2 4524   4.999   6.680   4.865
 1527TIP3   OH2 4525   3.283   4.918   5.608
 1527TIP3    H1 4526   3.241   5.003   5.593
 1527TIP3    H2 4527   3.216   4.854   5.585
 1528TIP3   OH2 4528   0.038   2.947   5.640
 1528TIP3    H1 4529   0.102   2.964   5.709
 1528TIP3    H2 4530  -0.001   2.863   5.663
 1529TIP3   OH2 4531   7.613   4.265   2.736
 1529TIP3    H1 4532   7.571   4.346   2.762
 1529TIP3    H2 4533   7.587   4.201   2.803
 1530TIP3   OH2 4534   5.511   4.028   2.560
 1530TIP3    H1 4535   5.450   3.978   2.506
 1530TIP3    H2 4536   5.585   4.047   2.501
 1531TIP3   OH2 4537   5.311   1.017   1.674
 1531TIP3    H1 4538   5.292   1.103   1.709
 1531TIP3    H2 4539   5.231   0.966   1.687
 1532TIP3   OH2 4540   5.398   4.004   5.783
 1532TIP3    H1 4541   5.319   3.957   5.807
 1532TIP3    H2 4542   5.421   3.972   5.696
 1533TIP3   OH2 4543   6.573   1.064   4.257
 1533TIP3    H1 4544   6.612   0.979   4.277
 1533TIP3    H2 4545   6.507   1.044   4.190
 1534TIP3   OH2 4546   0.311   6.845   5.016
 1534TIP3    H1 4547   0.328   6.798   4.935
 1534TIP3    H2 4548   0.398   6.863   5.052
 1535TIP3   OH2 4549   0.729   1.603   2.189
 1535TIP3    H1 4550   0.740   1.527   2.246
 1535TIP3    H2 4551   0.714   1.566   2.102
 1536TIP3   OH2 4552   5.590   7.023   3.340
 1536TIP3    H1 4553   5.611   6.941   3.385
 1536TIP3    H2 4554   5.672   7.073   3.344
 1537TIP3   OH2 4555   5.268   3.141   2.822
 1537TIP3    H1 4556   5.188   3.154   2.770
 1537TIP3    H2 4557   5.249   3.183   2.906
 1538TIP3   OH2 4558   2.573   5.280   4.438
 1538TIP3    H1 4559   2.603   5.328   4.361
 1538TIP3    H2 4560   2.539   5.349   4.497
 1539TIP3   OH2 4561   1.649   5.241   5.840
 1539TIP3    H1 4562   1.565   5.269   5.877
 1539TIP3    H2 4563   1.628   5.217   5.750
 1540TIP3   OH2 4564   7.274   3.136   1.841
 1540TIP3    H1 4565   7.335   3.165   1.772
 1540TIP3    H2 4566   7.327   3.080   1.898
 1541TIP3   OH2 4567   6.043   2.838   6.283
 1541TIP3    H1 4568   6.051   2.820   6.189
 1541TIP3    H2 4569   5.972   2.902   6.289
 1542TIP3   OH2 4570   6.700   4.989   1.985
 1542TIP3    H1 4571   6.683   5.072   1.941
 1542TIP3    H2 4572   6.645   4.992   2.064
 1543TIP3   OH2 4573   6.625   6.848   3.197
 1543TIP3    H1 4574   6.565   6.908   3.154
 1543TIP3    H2 4575   6.574   6.768   3.212
 1544TIP3   OH2 4576   7.536   4.631   5.511
 1544TIP3    H1 4577   7.542   4.710   5.566
 1544TIP3    H2 4578   7.548   4.663   5.422
 1545TIP3   OH2 4579   7.961   4.888   1.817
 1545TIP3    H1 4580   8.034   4.941   1.850
 1545TIP3    H2 4581   7.981   4.875   1.724
 1546TIP3   OH2 4582   7.467   4.629   4.982
 1546TIP3    H1 4583   7.497   4.701   5.037
 1546TIP3    H2 4584   7.372   4.629   4.994
 1547TIP3   OH2 4585   1.808   0.129   0.341
 1547TIP3    H1 4586   1.890   0.080   0.345
 1547TIP3    H2 4587   1.835   0.220   0.329
 1548TIP3   OH2 4588   0.611   5.121   4.503
 1548TIP3    H1 4589   0.633   5.176   4.428
 1548TIP3    H2 4590   0.682   5.135   4.566
 1549TIP3   OH2 4591   4.821   5.967   2.893
 1549TIP3    H1 4592   4.785   5.910   2.825
 1549TIP3    H2 4593   4.886   5.912   2.937
 1550TIP3   OH2 4594   6.563   7.000   2.559
 1550TIP3    H1 4595   6.496   7.018   2.493
 1550TIP3    H2 4596   6.523   7.025   2.642
 1551TIP3   OH2 4597   2.282   6.483   1.314
 1551TIP3    H1 4598   2.294   6.390   1.297
 1551TIP3    H2 4599   2.188   6.494   1.323
 1552TIP3   OH2 4600   4.875   1.703   6.374
 1552TIP3    H1 4601   4.885   1.753   6.454
 1552TIP3    H2 4602   4.873   1.611   6.403
 1553TIP3   OH2 4603   2.650   1.744   3.614
 1553TIP3    H1 4604   2.581   1.679   3.603
 1553TIP3    H2 4605   2.688   1.753   3.526
 1554TIP3   OH2 4606   4.471   5.364   4.323
 1554TIP3    H1 4607   4.388   5.344   4.279
 1554TIP3    H2 4608   4.446   5.394   4.410
 1555TIP3   OH2 4609   0.933   0.207   5.439
 1555TIP3    H1 4610   0.988   0.173   5.369
 1555TIP3    H2 4611   0.845   0.207   5.403
 1556TIP3   OH2 4612   5.739   3.984   0.064
 1556TIP3    H1 4613   5.764   4.033  -0.015
 1556TIP3    H2 4614   5.685   3.912   0.031
 1557TIP3   OH2 4615   4.790   4.115   5.505
 1557TIP3    H1 4616   4.864   4.070   5.544
 1557TIP3    H2 4617   4.798   4.097   5.411
 1558TIP3   OH2 4618   8.034   0.260   4.510
 1558TIP3    H1 4619   8.060   0.250   4.418
 1558TIP3    H2 4620   7.948   0.219   4.515
 1559TIP3   OH2 4621   6.967   1.228   5.162
 1559TIP3    H1 4622   7.026   1.275   5.103
 1559TIP3    H2 4623   6.990   1.136   5.150
 1560TIP3   OH2 4624   0.348   6.472   5.553
 1560TIP3    H1 4625   0.377   6.381   5.564
 1560TIP3    H2 4626   0.397   6.521   5.620
 1561TIP3   OH2 4627   8.035   4.173   2.505
 1561TIP3    H1 4628   8.018   4.258   2.546
 1561TIP3    H2 4629   8.123   4.181   2.469
 1562TIP3   OH2 4630   1.167   0.288   2.086
 1562TIP3    H1 4631   1.133   0.376   2.104
 1562TIP3    H2 4632   1.096   0.245   2.038
 1563TIP3   OH2 4633   1.871   3.137   0.916
 1563TIP3    H1 4634   1.938   3.073   0.940
 1563TIP3    H2 4635   1.862   3.192   0.994
 1564TIP3   OH2 4636   1.475   4.983   2.785
 1564TIP3    H1 4637   1.451   5.066   2.745
 1564TIP3    H2 4638   1.478   5.002   2.879
 1565TIP3   OH2 4639   4.115   0.977   0.370
 1565TIP3    H1 4640   4.143   0.978   0.461
 1565TIP3    H2 4641   4.150   0.895   0.335
 1566TIP3   OH2 4642   7.327   6.464   2.582
 1566TIP3    H1 4643   7.241   6.492   2.613
 1566TIP3    H2 4644   7.367   6.422   2.657
 1567TIP3   OH2 4645   7.887   2.207   2.041
 1567TIP3    H1 4646   7.857   2.294   2.069
 1567TIP3    H2 4647   7.896   2.215   1.946
 1568TIP3   OH2 4648   5.777   5.224   0.641
 1568TIP3    H1 4649   5.721   5.274   0.581
 1568TIP3    H2 4650   5.860   5.217   0.595
 1569TIP3   OH2 4651   6.192   0.619   3.243
 1569TIP3    H1 4652   6.264   0.565   3.274
 1569TIP3    H2 4653   6.113   0.570   3.266
 1570TIP3   OH2 4654   6.289   7.758   6.105
 1570TIP3    H1 4655   6.202   7.788   6.132
 1570TIP3    H2 4656   6.323   7.830   6.052
 1571TIP3   OH2 4657   2.729   2.672   0.944
 1571TIP3    H1 4658   2.771   2.723   0.874
 1571TIP3    H2 4659   2.801   2.631   0.991
 1572TIP3   OH2 4660   0.967   3.709   5.166
 1572TIP3    H1 4661   0.883   3.747   5.193
 1572TIP3    H2 4662   1.029   3.739   5.233
 1573TIP3   OH2 4663   6.237   2.135   1.908
 1573TIP3    H1 4664   6.300   2.178   1.966
 1573TIP3    H2 4665   6.167   2.200   1.898
 1574TIP3   OH2 4666   5.999   0.579   2.653
 1574TIP3    H1 4667   5.918   0.621   2.683
 1574TIP3    H2 4668   6.035   0.640   2.588
 1575TIP3   OH2 4669   6.456   4.351   0.829
 1575TIP3    H1 4670   6.459   4.257   0.811
 1575TIP3    H2 4671   6.471   4.392   0.744
 1576TIP3   OH2 4672   5.123   3.528   5.093
 1576TIP3    H1 4673   5.154   3.440   5.073
 1576TIP3    H2 4674   5.028   3.521   5.090
 1577TIP3   OH2 4675   7.630   3.248   4.414
 1577TIP3    H1 4676   7.605   3.341   4.419
 1577TIP3    H2 4677   7.588   3.218   4.333
 1578TIP3   OH2 4678   1.586   3.537   1.763
 1578TIP3    H1 4679   1.574   3.631   1.778
 1578TIP3    H2 4680   1.653   3.511   1.826
 1579TIP3   OH2 4681   3.876   5.969   2.875
 1579TIP3    H1 4682   3.876   6.009   2.962
 1579TIP3    H2 4683   3.895   5.877   2.890
 1580TIP3   OH2 4684   2.838   7.508   2.116
 1580TIP3    H1 4685   2.895   7.559   2.174
 1580TIP3    H2 4686   2.859   7.417   2.137
 1581TIP3   OH2 4687   2.630   7.041   5.341
 1581TIP3    H1 4688   2.683   6.995   5.275
 1581TIP3    H2 4689   2.554   7.074   5.292
 1582TIP3   OH2 4690   6.626   6.736   0.310
 1582TIP3    H1 4691   6.670   6.679   0.246
 1582TIP3    H2 4692   6.554   6.684   0.344
 1583TIP3   OH2 4693   6.681   5.594   1.563
 1583TIP3    H1 4694   6.661   5.566   1.473
 1583TIP3    H2 4695   6.598   5.626   1.598
 1584TIP3   OH2 4696   4.891   2.120   3.220
 1584TIP3    H1 4697   4.892   2.212   3.195
 1584TIP3    H2 4698   4.941   2.076   3.151
 1585TIP3   OH2 4699   1.399   3.093   1.501
 1585TIP3    H1 4700   1.422   3.170   1.553
 1585TIP3    H2 4701   1.448   3.103   1.419
 1586TIP3   OH2 4702   7.438   2.509   4.317
 1586TIP3    H1 4703   7.519   2.539   4.278
 1586TIP3    H2 4704   7.439   2.545   4.406
 1587TIP3   OH2 4705   6.305   0.518   6.372
 1587TIP3    H1 4706   6.234   0.540   6.312
 1587TIP3    H2 4707   6.357   0.453   6.326
 1588TIP3   OH2 4708   5.656   0.391   0.361
 1588TIP3    H1 4709   5.669   0.315   0.417
 1588TIP3    H2 4710   5.715   0.376   0.287
 1589TIP3   OH2 4711   6.699   2.671   3.398
 1589TIP3    H1 4712   6.666   2.619   3.471
 1589TIP3    H2 4713   6.749   2.609   3.345
 1590TIP3   OH2 4714   1.035   5.253   2.822
 1590TIP3    H1 4715   1.069   5.342   2.827
 1590TIP3    H2 4716   1.093   5.202   2.878
 1591TIP3   OH2 4717   5.456   1.012   1.933
 1591TIP3    H1 4718   5.505   0.963   1.999
 1591TIP3    H2 4719   5.501   1.096   1.928
 1592TIP3   OH2 4720   0.347   7.719   1.247
 1592TIP3    H1 4721   0.252   7.708   1.252
 1592TIP3    H2 4722   0.362   7.810   1.271
 1593TIP3   OH2 4723   0.656   3.277   3.386
 1593TIP3    H1 4724   0.723   3.214   3.358
 1593TIP3    H2 4725   0.601   3.289   3.309
 1594TIP3   OH2 4726   6.782   0.236   4.544
 1594TIP3    H1 4727   6.840   0.233   4.621
 1594TIP3    H2 4728   6.709   0.179   4.567
 1595TIP3   OH2 4729   7.943   1.648   0.866
 1595TIP3    H1 4730   8.009   1.586   0.836
 1595TIP3    H2 4731   7.981   1.689   0.943
 1596TIP3   OH2 4732   7.984   1.830   5.687
 1596TIP3    H1 4733   7.987   1.763   5.619
 1596TIP3    H2 4734   7.902   1.812   5.734
 1597TIP3   OH2 4735   3.654   6.972   3.998
 1597TIP3    H1 4736   3.721   6.906   3.983
 1597TIP3    H2 4737   3.663   6.995   4.091
 1598TIP3   OH2 4738   5.141   4.574   0.439
 1598TIP3    H1 4739   5.093   4.500   0.402
 1598TIP3    H2 4740   5.156   4.550   0.530
 1599TIP3   OH2 4741   0.849   6.026   1.342
 1599TIP3    H1 4742   0.940   6.041   1.369
 1599TIP3    H2 4743   0.853   5.947   1.289
 1600TIP3   OH2 4744   5.368   7.651   0.300
 1600TIP3    H1 4745   5.443   7.705   0.280
 1600TIP3    H2 4746   5.352   7.665   0.394
 1601TIP3   OH2 4747   3.410   6.321   5.963
 1601TIP3    H1 4748   3.391   6.262   5.890
 1601TIP3    H2 4749   3.505   6.335   5.958
 1602TIP3   OH2 4750   5.690   1.957   4.473
 1602TIP3    H1 4751   5.726   1.989   4.390
 1602TIP3    H2 4752   5.747   1.995   4.540
 1603TIP3   OH2 4753   5.798   6.993   4.984
 1603TIP3    H1 4754   5.787   6.949   5.068
 1603TIP3    H2 4755   5.756   6.935   4.921
 1604TIP3   OH2 4756   0.419   0.005   0.757
 1604TIP3    H1 4757   0.359  -0.048   0.809
 1604TIP3    H2 4758   0.362   0.061   0.705
 1605TIP3   OH2 4759   5.707   1.053   2.259
 1605TIP3    H1 4760   5.641   1.094   2.315
 1605TIP3    H2 4761   5.666   0.973   2.228
 1606TIP3   OH2 4762   7.296   2.156   6.753
 1606TIP3    H1 4763   7.267   2.146   6.844
 1606TIP3    H2 4764   7.242   2.227   6.719
 1607TIP3   OH2 4765   0.060   6.989   2.214
 1607TIP3    H1 4766   0.098   6.902   2.202
 1607TIP3    H2 4767   0.103   7.043   2.148
 1608TIP3   OH2 4768   7.029   2.573   1.349
 1608TIP3    H1 4769   6.953   2.612   1.308
 1608TIP3    H2 4770   7.015   2.479   1.341
 1609TIP3   OH2 4771   4.252   7.719   0.069
 1609TIP3    H1 4772   4.184   7.774   0.109
 1609TIP3    H2 4773   4.208   7.674  -0.003
 1610TIP3   OH2 4774   1.811   1.795   2.125
 1610TIP3    H1 4775   1.850   1.762   2.044
 1610TIP3    H2 4776   1.846   1.738   2.193
 1611TIP3   OH2 4777   2.472   3.487   1.830
 1611TIP3    H1 4778   2.517   3.571   1.835
 1611TIP3    H2 4779   2.415   3.494   1.753
 1612TIP3   OH2 4780   2.502   4.092   6.218
 1612TIP3    H1 4781   2.432   4.139   6.263
 1612TIP3    H2 4782   2.570   4.158   6.204
 1613TIP3   OH2 4783   6.112   0.954   5.035
 1613TIP3    H1 4784   6.199   0.923   5.060
 1613TIP3    H2 4785   6.116   0.964   4.940
 1614TIP3   OH2 4786   6.899   3.689   5.359
 1614TIP3    H1 4787   6.847   3.741   5.298
 1614TIP3    H2 4788   6.984   3.734   5.362
 1615TIP3   OH2 4789   3.394   5.698   2.658
 1615TIP3    H1 4790   3.480   5.689   2.617
 1615TIP3    H2 4791   3.364   5.608   2.672
 1616TIP3   OH2 4792   4.720   5.524   3.391
 1616TIP3    H1 4793   4.815   5.534   3.380
 1616TIP3    H2 4794   4.684   5.608   3.361
 1617TIP3   OH2 4795   0.393   7.045   3.520
 1617TIP3    H1 4796   0.459   6.999   3.571
 1617TIP3    H2 4797   0.442   7.099   3.458
 1618TIP3   OH2 4798   5.590   0.200   4.651
 1618TIP3    H1 4799   5.685   0.202   4.651
 1618TIP3    H2 4800   5.565   0.221   4.561
 1619TIP3   OH2 4801   7.766   3.479   3.394
 1619TIP3    H1 4802   7.851   3.523   3.388
 1619TIP3    H2 4803   7.744   3.484   3.487
 1620TIP3   OH2 4804   1.571   7.074   3.022
 1620TIP3    H1 4805   1.591   7.104   3.110
 1620TIP3    H2 4806   1.476   7.064   3.021
 1621TIP3   OH2 4807   5.895   2.398   3.531
 1621TIP3    H1 4808   5.891   2.304   3.548
 1621TIP3    H2 4809   5.945   2.406   3.450
 1622TIP3   OH2 4810   3.096   1.849   2.598
 1622TIP3    H1 4811   3.063   1.778   2.543
 1622TIP3    H2 4812   3.056   1.928   2.561
 1623TIP3   OH2 4813   0.530   4.786   1.561
 1623TIP3    H1 4814   0.445   4.784   1.515
 1623TIP3    H2 4815   0.592   4.753   1.496
 1624TIP3   OH2 4816   0.727   1.418   2.417
 1624TIP3    H1 4817   0.677   1.367   2.481
 1624TIP3    H2 4818   0.797   1.458   2.468
 1625TIP3   OH2 4819   0.927   3.538   3.643
 1625TIP3    H1 4820   0.901   3.462   3.696
 1625TIP3    H2 4821   0.909   3.511   3.553
 1626TIP3   OH2 4822   6.972   6.767   2.297
 1626TIP3    H1 4823   7.005   6.685   2.334
 1626TIP3    H2 4824   6.901   6.793   2.356
 1627TIP3   OH2 4825   1.390   7.528   0.401
 1627TIP3    H1 4826   1.431   7.441   0.404
 1627TIP3    H2 4827   1.300   7.513   0.429
 1628TIP3   OH2 4828   0.314   5.392   0.730
 1628TIP3    H1 4829   0.257   5.374   0.655
 1628TIP3    H2 4830   0.315   5.488   0.736
 1629TIP3   OH2 4831   7.978   5.990   5.787
 1629TIP3    H1 4832   8.034   5.972   5.863
 1629TIP3    H2 4833   7.933   6.072   5.809
 1630TIP3   OH2 4834   3.906   1.176   3.617
 1630TIP3    H1 4835   3.991   1.202   3.580
 1630TIP3    H2 4836   3.909   1.080   3.617
 1631TIP3   OH2 4837   3.258   5.408   3.095
 1631TIP3    H1 4838   3.242   5.480   3.034
 1631TIP3    H2 4839   3.306   5.344   3.043
 1632TIP3   OH2 4840   5.007   3.510   3.174
 1632TIP3    H1 4841   4.916   3.485   3.195
 1632TIP3    H2 4842   4.998   3.579   3.108
 1633TIP3   OH2 4843   7.302   4.601   0.625
 1633TIP3    H1 4844   7.375   4.640   0.672
 1633TIP3    H2 4845   7.338   4.577   0.540
 1634TIP3   OH2 4846   7.060   4.598   2.323
 1634TIP3    H1 4847   7.074   4.575   2.415
 1634TIP3    H2 4848   6.965   4.613   2.317
 1635TIP3   OH2 4849   3.524   0.135   6.630
 1635TIP3    H1 4850   3.492   0.046   6.647
 1635TIP3    H2 4851   3.545   0.135   6.537
 1636TIP3   OH2 4852   6.750   6.057   4.507
 1636TIP3    H1 4853   6.698   6.030   4.584
 1636TIP3    H2 4854   6.833   6.012   4.518
 1637TIP3   OH2 4855   6.859   4.874   6.611
 1637TIP3    H1 4856   6.895   4.848   6.695
 1637TIP3    H2 4857   6.872   4.798   6.554
 1638TIP3   OH2 4858   7.488   3.612   1.161
 1638TIP3    H1 4859   7.501   3.624   1.067
 1638TIP3    H2 4860   7.548   3.674   1.202
 1639TIP3   OH2 4861   4.050   5.328   2.164
 1639TIP3    H1 4862   4.066   5.234   2.170
 1639TIP3    H2 4863   4.062   5.360   2.254
 1640TIP3   OH2 4864   3.515   5.587   1.734
 1640TIP3    H1 4865   3.581   5.536   1.686
 1640TIP3    H2 4866   3.459   5.624   1.666
 1641TIP3   OH2 4867   4.114   4.832   1.764
 1641TIP3    H1 4868   4.025   4.866   1.777
 1641TIP3    H2 4869   4.102   4.738   1.750
 1642TIP3   OH2 4870   5.298   2.377   1.950
 1642TIP3    H1 4871   5.250   2.320   2.010
 1642TIP3    H2 4872   5.231   2.418   1.896
 1643TIP3   OH2 4873   1.053   1.257   6.300
 1643TIP3    H1 4874   1.045   1.205   6.221
 1643TIP3    H2 4875   1.010   1.340   6.279
 1644TIP3   OH2 4876   2.201   4.430   6.512
 1644TIP3    H1 4877   2.279   4.468   6.553
 1644TIP3    H2 4878   2.135   4.499   6.517
 1645TIP3   OH2 4879   7.648   0.179   4.178
 1645TIP3    H1 4880   7.574   0.237   4.195
 1645TIP3    H2 4881   7.678   0.204   4.090
 1646TIP3   OH2 4882   8.052   5.402   5.200
 1646TIP3    H1 4883   8.000   5.472   5.238
 1646TIP3    H2 4884   7.991   5.329   5.191
 1647TIP3   OH2 4885   3.449   1.251   4.756
 1647TIP3    H1 4886   3.403   1.288   4.831
 1647TIP3    H2 4887   3.392   1.269   4.682
 1648TIP3   OH2 4888   3.463   1.259   5.699
 1648TIP3    H1 4889   3.401   1.196   5.662
 1648TIP3    H2 4890   3.471   1.327   5.632
 1649TIP3   OH2 4891   0.702   2.011   2.679
 1649TIP3    H1 4892   0.630   2.064   2.644
 1649TIP3    H2 4893   0.659   1.938   2.723
 1650TIP3   OH2 4894   8.184   4.911   1.154
 1650TIP3    H1 4895   8.236   4.899   1.074
 1650TIP3    H2 4896   8.246   4.897   1.225
 1651TIP3   OH2 4897   0.300   7.074   5.418
 1651TIP3    H1 4898   0.259   7.009   5.361
 1651TIP3    H2 4899   0.387   7.040   5.437
 1652TIP3   OH2 4900   0.022   7.422   5.869
 1652TIP3    H1 4901   0.105   7.461   5.896
 1652TIP3    H2 4902  -0.026   7.406   5.950
 1653TIP3   OH2 4903   1.176   5.087   5.974
 1653TIP3    H1 4904   1.095   5.047   6.005
 1653TIP3    H2 4905   1.150   5.172   5.939
 1654TIP3   OH2 4906   5.646   5.551   3.103
 1654TIP3    H1 4907   5.680   5.638   3.123
 1654TIP3    H2 4908   5.556   5.566   3.076
 1655TIP3   OH2 4909   4.618   4.921   2.581
 1655TIP3    H1 4910   4.611   5.016   2.578
 1655TIP3    H2 4911   4.639   4.901   2.672
 1656TIP3   OH2 4912   8.190   3.714   6.055
 1656TIP3    H1 4913   8.117   3.756   6.011
 1656TIP3    H2 4914   8.268   3.746   6.008
 1657TIP3   OH2 4915   1.975   5.735   1.290
 1657TIP3    H1 4916   1.967   5.716   1.383
 1657TIP3    H2 4917   1.904   5.685   1.249
 1658TIP3   OH2 4918   7.621   6.828   3.538
 1658TIP3    H1 4919   7.640   6.844   3.631
 1658TIP3    H2 4920   7.659   6.742   3.520
 1659TIP3   OH2 4921   7.702   0.251   2.980
 1659TIP3    H1 4922   7.660   0.167   2.995
 1659TIP3    H2 4923   7.653   0.291   2.909
 1660TIP3   OH2 4924   4.917   3.684   6.335
 1660TIP3    H1 4925   5.009   3.709   6.338
 1660TIP3    H2 4926   4.902   3.654   6.246
 1661TIP3   OH2 4927   0.669   1.964   3.404
 1661TIP3    H1 4928   0.630   1.903   3.341
 1661TIP3    H2 4929   0.759   1.932   3.415
 1662TIP3   OH2 4930   1.310   5.085   3.522
 1662TIP3    H1 4931   1.380   5.020   3.525
 1662TIP3    H2 4932   1.235   5.038   3.486
 1663TIP3   OH2 4933   2.177   5.370   2.356
 1663TIP3    H1 4934   2.178   5.386   2.450
 1663TIP3    H2 4935   2.234   5.438   2.319
 1664TIP3   OH2 4936   5.178   1.528   0.761
 1664TIP3    H1 4937   5.154   1.619   0.745
 1664TIP3    H2 4938   5.181   1.488   0.674
 1665TIP3   OH2 4939   6.731   1.261   3.875
 1665TIP3    H1 4940   6.786   1.184   3.862
 1665TIP3    H2 4941   6.676   1.264   3.797
 1666TIP3   OH2 4942   2.434   2.812   0.360
 1666TIP3    H1 4943   2.377   2.886   0.336
 1666TIP3    H2 4944   2.460   2.774   0.276
 1667TIP3   OH2 4945   0.676   4.250   6.463
 1667TIP3    H1 4946   0.660   4.159   6.485
 1667TIP3    H2 4947   0.622   4.300   6.525
 1668TIP3   OH2 4948   0.094   4.919   5.482
 1668TIP3    H1 4949   0.160   4.917   5.413
 1668TIP3    H2 4950   0.018   4.876   5.443
 1669TIP3   OH2 4951   0.687   7.502   1.201
 1669TIP3    H1 4952   0.600   7.469   1.179
 1669TIP3    H2 4953   0.718   7.543   1.120
 1670TIP3   OH2 4954   3.656   6.016   4.710
 1670TIP3    H1 4955   3.744   6.026   4.675
 1670TIP3    H2 4956   3.621   6.105   4.712
 1671TIP3   OH2 4957   6.877   5.727   1.798
 1671TIP3    H1 4958   6.953   5.765   1.841
 1671TIP3    H2 4959   6.897   5.733   1.705
 1672TIP3   OH2 4960   2.357   4.663   2.359
 1672TIP3    H1 4961   2.325   4.723   2.292
 1672TIP3    H2 4962   2.296   4.589   2.356
 1673TIP3   OH2 4963   1.115   1.449   1.376
 1673TIP3    H1 4964   1.138   1.388   1.306
 1673TIP3    H2 4965   1.092   1.530   1.331
 1674TIP3   OH2 4966   0.061   1.747   3.854
 1674TIP3    H1 4967   0.052   1.825   3.800
 1674TIP3    H2 4968   0.094   1.680   3.794
 1675TIP3   OH2 4969   0.295   7.144   4.795
 1675TIP3    H1 4970   0.248   7.168   4.715
 1675TIP3    H2 4971   0.260   7.057   4.817
 1676TIP3   OH2 4972   6.713   1.754   4.957
 1676TIP3    H1 4973   6.638   1.695   4.957
 1676TIP3    H2 4974   6.753   1.743   4.871
 1677TIP3   OH2 4975   4.815   4.188   1.289
 1677TIP3    H1 4976   4.797   4.234   1.207
 1677TIP3    H2 4977   4.885   4.126   1.267
 1678TIP3   OH2 4978   3.459   1.020   4.995
 1678TIP3    H1 4979   3.508   1.057   4.922
 1678TIP3    H2 4980   3.384   1.078   5.005
 1679TIP3   OH2 4981   3.994   2.033   2.960
 1679TIP3    H1 4982   4.001   1.940   2.981
 1679TIP3    H2 4983   4.017   2.039   2.868
 1680TIP3   OH2 4984   0.305   0.475   2.372
 1680TIP3    H1 4985   0.359   0.460   2.294
 1680TIP3    H2 4986   0.327   0.564   2.399
 1681TIP3   OH2 4987   7.079   6.894   3.485
 1681TIP3    H1 4988   7.162   6.899   3.438
 1681TIP3    H2 4989   7.013   6.913   3.418
 1682TIP3   OH2 4990   7.082   3.151   0.519
 1682TIP3    H1 4991   6.988   3.157   0.502
 1682TIP3    H2 4992   7.108   3.239   0.547
 1683TIP3   OH2 4993  -0.006   6.527   2.970
 1683TIP3    H1 4994   0.064   6.478   3.014
 1683TIP3    H2 4995   0.016   6.519   2.877
 1684TIP3   OH2 4996   0.450   3.508   2.673
 1684TIP3    H1 4997   0.491   3.466   2.598
 1684TIP3    H2 4998   0.459   3.602   2.657
 1685TIP3   OH2 4999   2.249  -0.018   2.574
 1685TIP3    H1 5000   2.235   0.073   2.601
 1685TIP3    H2 5001   2.186  -0.031   2.502
 1686TIP3   OH2 5002   6.950   5.888   6.111
 1686TIP3    H1 5003   7.017   5.915   6.173
 1686TIP3    H2 5004   6.923   5.969   6.067
 1687TIP3   OH2 5005   4.630   6.428   6.270
 1687TIP3    H1 5006   4.639   6.415   6.364
 1687TIP3    H2 5007   4.716   6.458   6.241
 1688TIP3   OH2 5008   2.212   3.840   0.589
 1688TIP3    H1 5009   2.163   3.900   0.533
 1688TIP3    H2 5010   2.286   3.891   0.620
 1689TIP3   OH2 5011   3.983   4.170   0.459
 1689TIP3    H1 5012   3.949   4.190   0.546
 1689TIP3    H2 5013   3.996   4.075   0.458
 1690TIP3   OH2 5014   4.712   7.555   1.901
 1690TIP3    H1 5015   4.768   7.507   1.964
 1690TIP3    H2 5016   4.680   7.630   1.951
 1691TIP3   OH2 5017   7.765   3.311   1.302
 1691TIP3    H1 5018   7.798   3.223   1.284
 1691TIP3    H2 5019   7.732   3.307   1.391
 1692TIP3   OH2 5020   7.411   7.275   2.722
 1692TIP3    H1 5021   7.385   7.251   2.633
 1692TIP3    H2 5022   7.352   7.347   2.745
 1693TIP3   OH2 5023   5.804   2.167   1.761
 1693TIP3    H1 5024   5.796   2.088   1.814
 1693TIP3    H2 5025   5.716   2.180   1.725
 1694TIP3   OH2 5026   6.559   4.029   4.730
 1694TIP3    H1 5027   6.571   4.122   4.711
 1694TIP3    H2 5028   6.473   4.024   4.772
 1695TIP3   OH2 5029   6.793   6.472   2.187
 1695TIP3    H1 5030   6.786   6.411   2.114
 1695TIP3    H2 5031   6.823   6.554   2.147
 1696TIP3   OH2 5032   2.922   5.409   1.754
 1696TIP3    H1 5033   2.927   5.336   1.816
 1696TIP3    H2 5034   3.014   5.429   1.734
 1697TIP3   OH2 5035   2.245   0.915   2.076
 1697TIP3    H1 5036   2.197   0.977   2.022
 1697TIP3    H2 5037   2.319   0.965   2.111
 1698TIP3   OH2 5038   0.395   2.928   3.657
 1698TIP3    H1 5039   0.317   2.967   3.697
 1698TIP3    H2 5040   0.466   2.951   3.717
 1699TIP3   OH2 5041   2.514   6.587   4.627
 1699TIP3    H1 5042   2.565   6.512   4.656
 1699TIP3    H2 5043   2.572   6.662   4.639
 1700TIP3   OH2 5044   3.386   7.591   1.414
 1700TIP3    H1 5045   3.444   7.644   1.358
 1700TIP3    H2 5046   3.312   7.569   1.357
 1701TIP3   OH2 5047   8.090   0.656   2.207
 1701TIP3    H1 5048   8.046   0.740   2.197
 1701TIP3    H2 5049   8.181   0.672   2.182
 1702TIP3   OH2 5050   5.793   7.072   4.469
 1702TIP3    H1 5051   5.801   7.117   4.553
 1702TIP3    H2 5052   5.794   6.979   4.492
 1703TIP3   OH2 5053   6.456   3.220   6.679
 1703TIP3    H1 5054   6.375   3.213   6.731
 1703TIP3    H2 5055   6.432   3.276   6.605
 1704TIP3   OH2 5056   7.531   4.921   4.188
 1704TIP3    H1 5057   7.450   4.966   4.212
 1704TIP3    H2 5058   7.503   4.836   4.155
 1705TIP3   OH2 5059   4.340   3.445   6.521
 1705TIP3    H1 5060   4.281   3.390   6.573
 1705TIP3    H2 5061   4.405   3.477   6.583
 1706TIP3   OH2 5062   3.105   7.747   4.003
 1706TIP3    H1 5063   3.010   7.756   4.008
 1706TIP3    H2 5064   3.127   7.780   3.916
 1707TIP3   OH2 5065   3.752   2.066   3.671
 1707TIP3    H1 5066   3.823   2.051   3.609
 1707TIP3    H2 5067   3.788   2.128   3.734
 1708TIP3   OH2 5068   3.956   2.876   1.878
 1708TIP3    H1 5069   3.891   2.894   1.945
 1708TIP3    H2 5070   3.924   2.798   1.833
 1709TIP3   OH2 5071   2.337   4.583   0.421
 1709TIP3    H1 5072   2.384   4.599   0.339
 1709TIP3    H2 5073   2.310   4.671   0.451
 1710TIP3   OH2 5074   0.177   0.501   6.344
 1710TIP3    H1 5075   0.215   0.498   6.432
 1710TIP3    H2 5076   0.140   0.589   6.336
 1711TIP3   OH2 5077   1.190   1.654   5.116
 1711TIP3    H1 5078   1.096   1.650   5.135
 1711TIP3    H2 5079   1.195   1.657   5.020
 1712TIP3   OH2 5080   1.942   3.190   3.850
 1712TIP3    H1 5081   1.914   3.230   3.932
 1712TIP3    H2 5082   1.880   3.221   3.785
 1713TIP3   OH2 5083   5.044   1.103   1.394
 1713TIP3    H1 5084   5.113   1.170   1.399
 1713TIP3    H2 5085   5.031   1.075   1.484
 1714TIP3   OH2 5086   7.376   0.662   6.317
 1714TIP3    H1 5087   7.442   0.660   6.248
 1714TIP3    H2 5088   7.295   0.636   6.274
 1715TIP3   OH2 5089   1.563   3.664   2.249
 1715TIP3    H1 5090   1.495   3.722   2.283
 1715TIP3    H2 5091   1.518   3.581   2.233
 1716TIP3   OH2 5092   0.421   2.228   3.097
 1716TIP3    H1 5093   0.344   2.275   3.127
 1716TIP3    H2 5094   0.481   2.297   3.067
 1717TIP3   OH2 5095   1.471   4.989   1.519
 1717TIP3    H1 5096   1.559   4.973   1.484
 1717TIP3    H2 5097   1.483   5.057   1.585
 1718TIP3   OH2 5098   2.590   4.858   1.936
 1718TIP3    H1 5099   2.566   4.879   1.846
 1718TIP3    H2 5100   2.662   4.796   1.928
 1719TIP3   OH2 5101   3.525   3.772   6.235
 1719TIP3    H1 5102   3.492   3.850   6.280
 1719TIP3    H2 5103   3.548   3.712   6.306
 1720TIP3   OH2 5104   1.826   3.661   3.836
 1720TIP3    H1 5105   1.790   3.685   3.921
 1720TIP3    H2 5106   1.866   3.741   3.803
 1721TIP3   OH2 5107   1.729   7.729   6.506
 1721TIP3    H1 5108   1.816   7.769   6.508
 1721TIP3    H2 5109   1.746   7.637   6.484
 1722TIP3   OH2 5110   0.574   5.481   4.573
 1722TIP3    H1 5111   0.555   5.573   4.590
 1722TIP3    H2 5112   0.623   5.481   4.491
 1723TIP3   OH2 5113   1.721   2.495   4.134
 1723TIP3    H1 5114   1.659   2.479   4.064
 1723TIP3    H2 5115   1.765   2.410   4.147
 1724TIP3   OH2 5116   0.877   0.489   3.974
 1724TIP3    H1 5117   0.828   0.567   3.946
 1724TIP3    H2 5118   0.882   0.434   3.897
 1725TIP3   OH2 5119   1.290   4.474   2.632
 1725TIP3    H1 5120   1.245   4.514   2.707
 1725TIP3    H2 5121   1.293   4.544   2.566
 1726TIP3   OH2 5122   0.918   4.362   3.723
 1726TIP3    H1 5123   0.993   4.303   3.734
 1726TIP3    H2 5124   0.946   4.444   3.763
 1727TIP3   OH2 5125   6.325   3.345   3.243
 1727TIP3    H1 5126   6.340   3.424   3.191
 1727TIP3    H2 5127   6.275   3.376   3.319
 1728TIP3   OH2 5128   1.774   4.017   1.910
 1728TIP3    H1 5129   1.693   3.981   1.875
 1728TIP3    H2 5130   1.794   3.962   1.987
 1729TIP3   OH2 5131   2.769   0.005   0.355
 1729TIP3    H1 5132   2.742   0.096   0.346
 1729TIP3    H2 5133   2.700  -0.034   0.409
 1730TIP3   OH2 5134   1.316   7.231   5.038
 1730TIP3    H1 5135   1.363   7.218   4.956
 1730TIP3    H2 5136   1.223   7.225   5.014
 1731TIP3   OH2 5137   5.549   5.053   4.301
 1731TIP3    H1 5138   5.529   5.065   4.394
 1731TIP3    H2 5139   5.641   5.026   4.299
 1732TIP3   OH2 5140   1.175   4.109   2.037
 1732TIP3    H1 5141   1.151   4.152   1.955
 1732TIP3    H2 5142   1.204   4.022   2.011
 1733TIP3   OH2 5143   3.218   3.957   2.363
 1733TIP3    H1 5144   3.280   4.013   2.411
 1733TIP3    H2 5145   3.138   4.009   2.358
 1734TIP3   OH2 5146   3.456   4.787   4.775
 1734TIP3    H1 5147   3.433   4.742   4.694
 1734TIP3    H2 5148   3.534   4.741   4.807
 1735TIP3   OH2 5149   0.367   2.991   3.945
 1735TIP3    H1 5150   0.291   3.010   3.891
 1735TIP3    H2 5151   0.333   2.942   4.019
 1736TIP3   OH2 5152   3.660   4.318   5.594
 1736TIP3    H1 5153   3.742   4.278   5.621
 1736TIP3    H2 5154   3.683   4.408   5.573
 1737TIP3   OH2 5155   6.375   3.681   5.365
 1737TIP3    H1 5156   6.386   3.618   5.436
 1737TIP3    H2 5157   6.462   3.689   5.327
 1738TIP3   OH2 5158   0.671   3.529   5.874
 1738TIP3    H1 5159   0.742   3.590   5.852
 1738TIP3    H2 5160   0.653   3.483   5.791
 1739TIP3   OH2 5161   5.624   7.080   5.533
 1739TIP3    H1 5162   5.638   7.156   5.590
 1739TIP3    H2 5163   5.530   7.066   5.534
 1740TIP3   OH2 5164   2.895   2.866   2.110
 1740TIP3    H1 5165   2.834   2.930   2.147
 1740TIP3    H2 5166   2.975   2.917   2.092
 1741TIP3   OH2 5167   0.524   4.440   2.270
 1741TIP3    H1 5168   0.560   4.408   2.353
 1741TIP3    H2 5169   0.454   4.379   2.249
 1742TIP3   OH2 5170   1.246   1.734   3.604
 1742TIP3    H1 5171   1.306   1.800   3.638
 1742TIP3    H2 5172   1.206   1.694   3.682
 1743TIP3   OH2 5173   5.981   6.112   5.355
 1743TIP3    H1 5174   6.022   6.163   5.424
 1743TIP3    H2 5175   5.887   6.129   5.364
 1744TIP3   OH2 5176   6.229   5.240   1.200
 1744TIP3    H1 5177   6.141   5.264   1.228
 1744TIP3    H2 5178   6.267   5.195   1.275
 1745TIP3   OH2 5179   2.680   1.467   5.236
 1745TIP3    H1 5180   2.767   1.428   5.246
 1745TIP3    H2 5181   2.676   1.493   5.144
 1746TIP3   OH2 5182   0.868   0.420   6.151
 1746TIP3    H1 5183   0.809   0.496   6.152
 1746TIP3    H2 5184   0.945   0.450   6.102
 1747TIP3   OH2 5185   4.622   2.638   2.432
 1747TIP3    H1 5186   4.600   2.660   2.522
 1747TIP3    H2 5187   4.552   2.675   2.379
 1748TIP3   OH2 5188   2.751   7.745   3.418
 1748TIP3    H1 5189   2.837   7.787   3.425
 1748TIP3    H2 5190   2.726   7.755   3.326
 1749TIP3   OH2 5191   5.355   0.789   4.474
 1749TIP3    H1 5192   5.353   0.876   4.515
 1749TIP3    H2 5193   5.271   0.783   4.428
 1750TIP3   OH2 5194   2.467   6.138   5.827
 1750TIP3    H1 5195   2.443   6.226   5.855
 1750TIP3    H2 5196   2.560   6.143   5.806
 1751TIP3   OH2 5197   5.786   2.468   2.069
 1751TIP3    H1 5198   5.733   2.426   2.000
 1751TIP3    H2 5199   5.790   2.402   2.138
 1752TIP3   OH2 5200   2.671   0.381   0.992
 1752TIP3    H1 5201   2.674   0.453   1.055
 1752TIP3    H2 5202   2.583   0.346   1.000
 1753TIP3   OH2 5203   8.153   7.278   2.748
 1753TIP3    H1 5204   8.241   7.314   2.754
 1753TIP3    H2 5205   8.139   7.261   2.654
 1754TIP3   OH2 5206   7.274   7.332   0.729
 1754TIP3    H1 5207   7.246   7.249   0.692
 1754TIP3    H2 5208   7.192   7.379   0.748
 1755TIP3   OH2 5209   2.497   1.734   5.747
 1755TIP3    H1 5210   2.579   1.685   5.738
 1755TIP3    H2 5211   2.429   1.668   5.735
 1756TIP3   OH2 5212   5.220   3.973   2.514
 1756TIP3    H1 5213   5.174   4.020   2.445
 1756TIP3    H2 5214   5.202   3.881   2.497
 1757TIP3   OH2 5215   5.482   7.261   5.760
 1757TIP3    H1 5216   5.521   7.248   5.847
 1757TIP3    H2 5217   5.552   7.301   5.708
 1758TIP3   OH2 5218   1.787   7.698   5.996
 1758TIP3    H1 5219   1.848   7.740   6.057
 1758TIP3    H2 5220   1.840   7.630   5.954
 1759TIP3   OH2 5221   4.475   0.780   6.389
 1759TIP3    H1 5222   4.430   0.723   6.451
 1759TIP3    H2 5223   4.558   0.736   6.372
 1760TIP3   OH2 5224   7.964   6.936   4.778
 1760TIP3    H1 5225   7.919   6.857   4.749
 1760TIP3    H2 5226   7.943   6.942   4.872
 1761TIP3   OH2 5227   4.655   3.265   1.059
 1761TIP3    H1 5228   4.643   3.339   1.118
 1761TIP3    H2 5229   4.660   3.304   0.972
 1762TIP3   OH2 5230   5.481   6.208   3.800
 1762TIP3    H1 5231   5.450   6.119   3.815
 1762TIP3    H2 5232   5.509   6.208   3.708
 1763TIP3   OH2 5233   3.180   7.802   3.171
 1763TIP3    H1 5234   3.246   7.758   3.224
 1763TIP3    H2 5235   3.179   7.754   3.089
 1764TIP3   OH2 5236   7.233   3.242   1.105
 1764TIP3    H1 5237   7.217   3.174   1.171
 1764TIP3    H2 5238   7.149   3.251   1.060
 1765TIP3   OH2 5239   0.971   3.986   3.317
 1765TIP3    H1 5240   0.921   4.067   3.332
 1765TIP3    H2 5241   0.957   3.934   3.396
 1766TIP3   OH2 5242   6.624   1.949   5.580
 1766TIP3    H1 5243   6.689   1.891   5.540
 1766TIP3    H2 5244   6.550   1.947   5.520
 1767TIP3   OH2 5245   7.620   5.002   3.728
 1767TIP3    H1 5246   7.619   5.079   3.785
 1767TIP3    H2 5247   7.602   5.037   3.641
 1768TIP3   OH2 5248   1.168   7.264   1.769
 1768TIP3    H1 5249   1.102   7.273   1.837
 1768TIP3    H2 5250   1.146   7.332   1.706
 1769TIP3   OH2 5251   5.756   3.431   0.334
 1769TIP3    H1 5252   5.691   3.373   0.296
 1769TIP3    H2 5253   5.805   3.466   0.260
 1770TIP3   OH2 5254   7.265   3.507   0.174
 1770TIP3    H1 5255   7.219   3.560   0.108
 1770TIP3    H2 5256   7.231   3.419   0.162
 1771TIP3   OH2 5257   6.146   3.963   1.579
 1771TIP3    H1 5258   6.088   4.036   1.603
 1771TIP3    H2 5259   6.232   4.004   1.568
 1772TIP3   OH2 5260   2.558   3.642   1.309
 1772TIP3    H1 5261   2.462   3.642   1.300
 1772TIP3    H2 5262   2.584   3.554   1.281
 1773TIP3   OH2 5263   6.977   5.123   6.547
 1773TIP3    H1 5264   7.064   5.103   6.580
 1773TIP3    H2 5265   6.926   5.043   6.564
 1774TIP3   OH2 5266   6.267   2.948   6.729
 1774TIP3    H1 5267   6.243   2.927   6.639
 1774TIP3    H2 5268   6.231   3.035   6.744
 1775TIP3   OH2 5269   8.188   6.799   2.396
 1775TIP3    H1 5270   8.101   6.831   2.371
 1775TIP3    H2 5271   8.225   6.869   2.450
 1776TIP3   OH2 5272   6.403   6.072   0.369
 1776TIP3    H1 5273   6.457   6.002   0.331
 1776TIP3    H2 5274   6.345   6.099   0.297
 1777TIP3   OH2 5275   4.912   1.684   1.077
 1777TIP3    H1 5276   4.884   1.679   1.169
 1777TIP3    H2 5277   4.882   1.602   1.039
 1778TIP3   OH2 5278   7.754   1.463   0.995
 1778TIP3    H1 5279   7.801   1.536   0.955
 1778TIP3    H2 5280   7.770   1.473   1.089
 1779TIP3   OH2 5281   6.500   5.316   3.874
 1779TIP3    H1 5282   6.534   5.226   3.872
 1779TIP3    H2 5283   6.405   5.307   3.872
 1780TIP3   OH2 5284   7.863   7.349   5.600
 1780TIP3    H1 5285   7.909   7.329   5.682
 1780TIP3    H2 5286   7.796   7.413   5.626
 1781TIP3   OH2 5287   3.145   4.371   1.822
 1781TIP3    H1 5288   3.209   4.437   1.850
 1781TIP3    H2 5289   3.198   4.300   1.786
 1782TIP3   OH2 5290   3.289   6.675   1.385
 1782TIP3    H1 5291   3.289   6.647   1.477
 1782TIP3    H2 5292   3.379   6.705   1.370
 1783TIP3   OH2 5293   3.199   6.234   4.822
 1783TIP3    H1 5294   3.245   6.279   4.893
 1783TIP3    H2 5295   3.242   6.149   4.815
 1784TIP3   OH2 5296   3.493   4.508   3.557
 1784TIP3    H1 5297   3.498   4.567   3.482
 1784TIP3    H2 5298   3.499   4.566   3.634
 1785TIP3   OH2 5299   7.405   6.666   6.740
 1785TIP3    H1 5300   7.489   6.621   6.729
 1785TIP3    H2 5301   7.419   6.754   6.704
 1786TIP3   OH2 5302   1.333   2.710   1.237
 1786TIP3    H1 5303   1.248   2.701   1.195
 1786TIP3    H2 5304   1.314   2.739   1.326
 1787TIP3   OH2 5305   6.014   4.361   4.863
 1787TIP3    H1 5306   5.972   4.321   4.939
 1787TIP3    H2 5307   6.108   4.347   4.877
 1788TIP3   OH2 5308   7.642   5.117   4.911
 1788TIP3    H1 5309   7.572   5.139   4.850
 1788TIP3    H2 5310   7.688   5.200   4.924
 1789TIP3   OH2 5311   6.267   3.994   4.160
 1789TIP3    H1 5312   6.320   4.063   4.200
 1789TIP3    H2 5313   6.285   4.002   4.066
 1790TIP3   OH2 5314   6.146   4.052   2.708
 1790TIP3    H1 5315   6.117   3.963   2.729
 1790TIP3    H2 5316   6.235   4.058   2.744
 1791TIP3   OH2 5317   4.542   5.421   3.207
 1791TIP3    H1 5318   4.615   5.431   3.267
 1791TIP3    H2 5319   4.476   5.483   3.238
 1792TIP3   OH2 5320   1.175  -0.009   0.278
 1792TIP3    H1 5321   1.228  -0.033   0.202
 1792TIP3    H2 5322   1.219   0.068   0.315
 1793TIP3   OH2 5323   6.332   4.984   6.618
 1793TIP3    H1 5324   6.322   4.891   6.634
 1793TIP3    H2 5325   6.426   4.998   6.613
 1794TIP3   OH2 5326   8.260   6.699   3.309
 1794TIP3    H1 5327   8.355   6.695   3.309
 1794TIP3    H2 5328   8.233   6.625   3.363
 1795TIP3   OH2 5329   8.078   5.194   1.028
 1795TIP3    H1 5330   8.111   5.105   1.041
 1795TIP3    H2 5331   8.078   5.232   1.116
 1796TIP3   OH2 5332   5.853   5.555   5.053
 1796TIP3    H1 5333   5.928   5.566   4.995
 1796TIP3    H2 5334   5.854   5.463   5.077
 1797TIP3   OH2 5335   2.848   1.217   0.738
 1797TIP3    H1 5336   2.919   1.250   0.794
 1797TIP3    H2 5337   2.773   1.272   0.760
 1798TIP3   OH2 5338   2.088   1.164   2.250
 1798TIP3    H1 5339   2.180   1.147   2.227
 1798TIP3    H2 5340   2.083   1.259   2.259
 1799TIP3   OH2 5341   3.636   7.074   4.267
 1799TIP3    H1 5342   3.615   7.163   4.238
 1799TIP3    H2 5343   3.731   7.076   4.284
 1800TIP3   OH2 5344   2.937   7.150   2.895
 1800TIP3    H1 5345   2.852   7.141   2.938
 1800TIP3    H2 5346   2.932   7.091   2.820
 1801TIP3   OH2 5347   6.600   5.626   0.171
 1801TIP3    H1 5348   6.667   5.608   0.237
 1801TIP3    H2 5349   6.535   5.679   0.217
 1802TIP3   OH2 5350   1.866   6.886   1.036
 1802TIP3    H1 5351   1.814   6.966   1.032
 1802TIP3    H2 5352   1.829   6.836   1.109
 1803TIP3   OH2 5353   3.334   0.622   5.610
 1803TIP3    H1 5354   3.365   0.710   5.586
 1803TIP3    H2 5355   3.372   0.607   5.697
 1804TIP3   OH2 5356   2.995   5.457   0.203
 1804TIP3    H1 5357   2.927   5.430   0.141
 1804TIP3    H2 5358   3.041   5.375   0.225
 1805TIP3   OH2 5359   5.005   0.682   2.848
 1805TIP3    H1 5360   4.993   0.735   2.927
 1805TIP3    H2 5361   4.950   0.605   2.863
 1806TIP3   OH2 5362   7.815   2.012   4.775
 1806TIP3    H1 5363   7.750   2.070   4.736
 1806TIP3    H2 5364   7.823   1.939   4.713
 1807TIP3   OH2 5365   5.704   4.264   5.875
 1807TIP3    H1 5366   5.778   4.292   5.929
 1807TIP3    H2 5367   5.637   4.236   5.937
 1808TIP3   OH2 5368   7.991   4.751   5.204
 1808TIP3    H1 5369   8.032   4.837   5.194
 1808TIP3    H2 5370   7.951   4.733   5.119
 1809TIP3   OH2 5371   7.752   1.458   3.994
 1809TIP3    H1 5372   7.692   1.407   4.048
 1809TIP3    H2 5373   7.696   1.521   3.948
 1810TIP3   OH2 5374   2.917   7.263   0.337
 1810TIP3    H1 5375   2.931   7.308   0.420
 1810TIP3    H2 5376   2.959   7.319   0.272
 1811TIP3   OH2 5377   3.058   3.748   6.080
 1811TIP3    H1 5378   3.093   3.831   6.048
 1811TIP3    H2 5379   3.064   3.688   6.006
 1812TIP3   OH2 5380   3.122   1.475   4.033
 1812TIP3    H1 5381   3.166   1.542   3.980
 1812TIP3    H2 5382   3.191   1.413   4.055
 1813TIP3   OH2 5383   0.043   1.785   5.282
 1813TIP3    H1 5384  -0.015   1.847   5.238
 1813TIP3    H2 5385   0.036   1.807   5.375
 1814TIP3   OH2 5386   4.316   3.309   4.857
 1814TIP3    H1 5387   4.406   3.321   4.889
 1814TIP3    H2 5388   4.280   3.240   4.912
 1815TIP3   OH2 5389   5.811   6.656   5.790
 1815TIP3    H1 5390   5.742   6.666   5.856
 1815TIP3    H2 5391   5.764   6.643   5.708
 1816TIP3   OH2 5392   8.116   4.532   1.713
 1816TIP3    H1 5393   8.151   4.553   1.627
 1816TIP3    H2 5394   8.115   4.615   1.760
 1817TIP3   OH2 5395   7.781   7.747   3.611
 1817TIP3    H1 5396   7.733   7.672   3.647
 1817TIP3    H2 5397   7.862   7.751   3.664
 1818TIP3   OH2 5398   7.022   7.572   5.535
 1818TIP3    H1 5399   6.985   7.484   5.525
 1818TIP3    H2 5400   7.087   7.579   5.465
 1819TIP3   OH2 5401   0.020   5.989   4.118
 1819TIP3    H1 5402   0.027   5.900   4.152
 1819TIP3    H2 5403   0.027   6.044   4.196
 1820TIP3   OH2 5404   0.688   5.035   3.285
 1820TIP3    H1 5405   0.767   5.086   3.303
 1820TIP3    H2 5406   0.660   5.003   3.370
 1821TIP3   OH2 5407   8.288   2.709   3.983
 1821TIP3    H1 5408   8.284   2.715   4.078
 1821TIP3    H2 5409   8.227   2.775   3.952
 1822TIP3   OH2 5410   1.137   0.237   5.888
 1822TIP3    H1 5411   1.149   0.263   5.796
 1822TIP3    H2 5412   1.117   0.318   5.934
 1823TIP3   OH2 5413   3.071   6.922   5.082
 1823TIP3    H1 5414   3.132   6.935   5.008
 1823TIP3    H2 5415   3.061   6.828   5.089
 1824TIP3   OH2 5416   6.541   6.191   1.886
 1824TIP3    H1 5417   6.475   6.156   1.946
 1824TIP3    H2 5418   6.558   6.279   1.917
 1825TIP3   OH2 5419   8.107   7.773   4.338
 1825TIP3    H1 5420   8.090   7.721   4.416
 1825TIP3    H2 5421   8.195   7.748   4.310
 1826TIP3   OH2 5422   2.240   0.192   0.747
 1826TIP3    H1 5423   2.196   0.265   0.790
 1826TIP3    H2 5424   2.258   0.223   0.658
 1827TIP3   OH2 5425   4.624   5.076   6.153
 1827TIP3    H1 5426   4.710   5.064   6.194
 1827TIP3    H2 5427   4.581   5.143   6.207
 1828TIP3   OH2 5428   5.820   4.806   3.226
 1828TIP3    H1 5429   5.777   4.881   3.267
 1828TIP3    H2 5430   5.890   4.782   3.286
 1829TIP3   OH2 5431   5.255   4.437   1.732
 1829TIP3    H1 5432   5.292   4.422   1.819
 1829TIP3    H2 5433   5.223   4.527   1.736
 1830TIP3   OH2 5434   0.989   0.666   4.945
 1830TIP3    H1 5435   0.954   0.585   4.906
 1830TIP3    H2 5436   0.920   0.697   5.003
 1831TIP3   OH2 5437   6.672   7.144   4.207
 1831TIP3    H1 5438   6.648   7.209   4.142
 1831TIP3    H2 5439   6.753   7.105   4.174
 1832TIP3   OH2 5440   4.740   6.731   0.926
 1832TIP3    H1 5441   4.736   6.785   0.847
 1832TIP3    H2 5442   4.654   6.739   0.966
 1833TIP3   OH2 5443   8.003   3.246   1.590
 1833TIP3    H1 5444   8.005   3.341   1.599
 1833TIP3    H2 5445   8.094   3.222   1.573
 1834TIP3   OH2 5446   0.920   1.482   2.634
 1834TIP3    H1 5447   0.870   1.551   2.678
 1834TIP3    H2 5448   0.941   1.419   2.703
 1835TIP3   OH2 5449   0.102   2.994   1.398
 1835TIP3    H1 5450   0.019   3.041   1.391
 1835TIP3    H2 5451   0.144   3.032   1.476
 1836TIP3   OH2 5452   7.351   4.388   1.812
 1836TIP3    H1 5453   7.439   4.388   1.850
 1836TIP3    H2 5454   7.299   4.337   1.873
 1837TIP3   OH2 5455   7.737   5.415   5.578
 1837TIP3    H1 5456   7.710   5.448   5.664
 1837TIP3    H2 5457   7.674   5.452   5.517
 1838TIP3   OH2 5458   4.165   4.429   4.257
 1838TIP3    H1 5459   4.118   4.461   4.180
 1838TIP3    H2 5460   4.169   4.503   4.316
 1839TIP3   OH2 5461   3.260   2.458   0.897
 1839TIP3    H1 5462   3.346   2.429   0.866
 1839TIP3    H2 5463   3.251   2.420   0.984
 1840TIP3   OH2 5464   3.492   5.159   1.993
 1840TIP3    H1 5465   3.409   5.204   2.003
 1840TIP3    H2 5466   3.475   5.069   2.022
 1841TIP3   OH2 5467   0.332   3.640   1.976
 1841TIP3    H1 5468   0.318   3.562   1.923
 1841TIP3    H2 5469   0.316   3.612   2.066
 1842TIP3   OH2 5470   8.284   4.215   3.500
 1842TIP3    H1 5471   8.203   4.196   3.546
 1842TIP3    H2 5472   8.349   4.229   3.569
 1843TIP3   OH2 5473   6.633   3.894   2.903
 1843TIP3    H1 5474   6.634   3.814   2.956
 1843TIP3    H2 5475   6.690   3.874   2.829
 1844TIP3   OH2 5476   7.471   4.238   3.659
 1844TIP3    H1 5477   7.424   4.155   3.650
 1844TIP3    H2 5478   7.505   4.236   3.748
 1845TIP3   OH2 5479   1.788   0.264   2.270
 1845TIP3    H1 5480   1.728   0.237   2.200
 1845TIP3    H2 5481   1.797   0.359   2.258
 1846TIP3   OH2 5482   8.173   3.204   4.252
 1846TIP3    H1 5483   8.262   3.217   4.220
 1846TIP3    H2 5484   8.117   3.216   4.175
 1847TIP3   OH2 5485   5.720   2.784   3.015
 1847TIP3    H1 5486   5.699   2.858   2.959
 1847TIP3    H2 5487   5.713   2.708   2.958
 1848TIP3   OH2 5488   4.542   3.406   5.057
 1848TIP3    H1 5489   4.589   3.390   5.138
 1848TIP3    H2 5490   4.488   3.483   5.074
 1849TIP3   OH2 5491   5.553   0.303   5.390
 1849TIP3    H1 5492   5.631   0.353   5.416
 1849TIP3    H2 5493   5.537   0.245   5.465
 1850TIP3   OH2 5494   6.556   0.617   3.597
 1850TIP3    H1 5495   6.578   0.698   3.643
 1850TIP3    H2 5496   6.557   0.550   3.666
 1851TIP3   OH2 5497   8.016   4.473   2.418
 1851TIP3    H1 5498   8.028   4.426   2.336
 1851TIP3    H2 5499   8.100   4.467   2.462
 1852TIP3   OH2 5500   3.971   6.038   1.288
 1852TIP3    H1 5501   4.045   6.095   1.311
 1852TIP3    H2 5502   3.900   6.098   1.267
 1853TIP3   OH2 5503   6.829   5.427   1.801
 1853TIP3    H1 5504   6.833   5.498   1.737
 1853TIP3    H2 5505   6.911   5.434   1.850
 1854TIP3   OH2 5506   0.572   3.825   2.905
 1854TIP3    H1 5507   0.518   3.903   2.900
 1854TIP3    H2 5508   0.632   3.841   2.978
 1855TIP3   OH2 5509   5.766   5.696   5.457
 1855TIP3    H1 5510   5.716   5.752   5.398
 1855TIP3    H2 5511   5.706   5.680   5.530
 1856TIP3   OH2 5512   7.700   4.969   1.638
 1856TIP3    H1 5513   7.631   4.916   1.599
 1856TIP3    H2 5514   7.710   4.933   1.726
 1857TIP3   OH2 5515   1.482   1.477   0.727
 1857TIP3    H1 5516   1.528   1.438   0.801
 1857TIP3    H2 5517   1.508   1.424   0.652
 1858TIP3   OH2 5518   7.767   7.474   0.180
 1858TIP3    H1 5519   7.713   7.409   0.135
 1858TIP3    H2 5520   7.743   7.465   0.272
 1859TIP3   OH2 5521   2.158   1.538   4.455
 1859TIP3    H1 5522   2.086   1.527   4.392
 1859TIP3    H2 5523   2.131   1.486   4.530
 1860TIP3   OH2 5524   4.723   6.914   5.576
 1860TIP3    H1 5525   4.717   7.009   5.581
 1860TIP3    H2 5526   4.816   6.894   5.592
 1861TIP3   OH2 5527   3.505   3.395   5.911
 1861TIP3    H1 5528   3.538   3.483   5.895
 1861TIP3    H2 5529   3.582   3.344   5.936
 1862TIP3   OH2 5530   1.702   5.966   4.666
 1862TIP3    H1 5531   1.617   5.935   4.636
 1862TIP3    H2 5532   1.726   6.035   4.605
 1863TIP3   OH2 5533   7.629   5.841   0.717
 1863TIP3    H1 5534   7.592   5.778   0.779
 1863TIP3    H2 5535   7.668   5.787   0.648
 1864TIP3   OH2 5536   6.053   5.314   3.606
 1864TIP3    H1 5537   6.126   5.290   3.548
 1864TIP3    H2 5538   5.977   5.317   3.549
 1865TIP3   OH2 5539   2.086   6.706   2.413
 1865TIP3    H1 5540   2.081   6.793   2.374
 1865TIP3    H2 5541   2.139   6.718   2.492
 1866TIP3   OH2 5542   2.574   4.928   1.111
 1866TIP3    H1 5543   2.485   4.894   1.117
 1866TIP3    H2 5544   2.600   4.943   1.202
 1867TIP3   OH2 5545   6.240   0.344   3.951
 1867TIP3    H1 5546   6.289   0.262   3.954
 1867TIP3    H2 5547   6.307   0.412   3.945
 1868TIP3   OH2 5548   0.112   5.615   3.464
 1868TIP3    H1 5549   0.181   5.613   3.397
 1868TIP3    H2 5550   0.096   5.708   3.478
 1869TIP3   OH2 5551   6.000   2.985   5.580
 1869TIP3    H1 5552   5.924   3.031   5.616
 1869TIP3    H2 5553   6.056   3.055   5.545
 1870TIP3   OH2 5554   7.699   1.295   3.054
 1870TIP3    H1 5555   7.671   1.298   3.146
 1870TIP3    H2 5556   7.711   1.387   3.030
 1871TIP3   OH2 5557   3.245   2.773   6.486
 1871TIP3    H1 5558   3.323   2.799   6.436
 1871TIP3    H2 5559   3.280   2.729   6.563
 1872TIP3   OH2 5560   7.814   6.064   1.853
 1872TIP3    H1 5561   7.850   6.115   1.926
 1872TIP3    H2 5562   7.719   6.074   1.861
 1873TIP3   OH2 5563   0.750   4.869   0.158
 1873TIP3    H1 5564   0.815   4.939   0.150
 1873TIP3    H2 5565   0.666   4.914   0.152
 1874TIP3   OH2 5566   4.171   2.877   0.491
 1874TIP3    H1 5567   4.128   2.919   0.416
 1874TIP3    H2 5568   4.256   2.848   0.456
 1875TIP3   OH2 5569   3.038   0.371   4.953
 1875TIP3    H1 5570   3.072   0.460   4.942
 1875TIP3    H2 5571   3.058   0.328   4.871
 1876TIP3   OH2 5572   7.712   2.334   6.261
 1876TIP3    H1 5573   7.747   2.413   6.220
 1876TIP3    H2 5574   7.620   2.356   6.279
 1877TIP3   OH2 5575   1.464   0.332   2.502
 1877TIP3    H1 5576   1.555   0.320   2.531
 1877TIP3    H2 5577   1.437   0.415   2.541
 1878TIP3   OH2 5578   4.322   7.566   0.866
 1878TIP3    H1 5579   4.345   7.611   0.784
 1878TIP3    H2 5580   4.399   7.514   0.887
 1879TIP3   OH2 5581   5.523   4.589   5.237
 1879TIP3    H1 5582   5.504   4.683   5.229
 1879TIP3    H2 5583   5.495   4.567   5.326
 1880TIP3   OH2 5584   4.553   6.775   5.397
 1880TIP3    H1 5585   4.493   6.763   5.471
 1880TIP3    H2 5586   4.630   6.818   5.436
 1881TIP3   OH2 5587   4.817   5.398   1.732
 1881TIP3    H1 5588   4.779   5.427   1.649
 1881TIP3    H2 5589   4.795   5.305   1.739
 1882TIP3   OH2 5590   3.250   1.670   5.805
 1882TIP3    H1 5591   3.196   1.737   5.847
 1882TIP3    H2 5592   3.327   1.663   5.861
 1883TIP3   OH2 5593   4.846   1.718   1.906
 1883TIP3    H1 5594   4.852   1.773   1.985
 1883TIP3    H2 5595   4.753   1.719   1.884
 1884TIP3   OH2 5596   2.206   6.988   2.560
 1884TIP3    H1 5597   2.242   7.067   2.600
 1884TIP3    H2 5598   2.190   7.012   2.468
 1885TIP3   OH2 5599   6.461   3.972   0.053
 1885TIP3    H1 5600   6.517   3.965  -0.024
 1885TIP3    H2 5601   6.394   4.036   0.028
 1886TIP3   OH2 5602   6.205   1.197   5.407
 1886TIP3    H1 5603   6.168   1.124   5.357
 1886TIP3    H2 5604   6.207   1.269   5.344
 1887TIP3   OH2 5605   0.798   2.307   4.404
 1887TIP3    H1 5606   0.734   2.271   4.465
 1887TIP3    H2 5607   0.883   2.285   4.443
 1888TIP3   OH2 5608   6.565   0.189   2.606
 1888TIP3    H1 5609   6.495   0.161   2.547
 1888TIP3    H2 5610   6.562   0.284   2.603
 1889TIP3   OH2 5611   5.016   7.046   4.903
 1889TIP3    H1 5612   5.105   7.012   4.894
 1889TIP3    H2 5613   5.026   7.129   4.950
 1890TIP3   OH2 5614   2.860   4.527   6.703
 1890TIP3    H1 5615   2.842   4.601   6.762
 1890TIP3    H2 5616   2.796   4.536   6.633
 1891TIP3   OH2 5617   3.508   4.515   2.513
 1891TIP3    H1 5618   3.518   4.606   2.542
 1891TIP3    H2 5619   3.522   4.462   2.592
 1892TIP3   OH2 5620   2.593   0.770   5.647
 1892TIP3    H1 5621   2.554   0.748   5.562
 1892TIP3    H2 5622   2.657   0.839   5.627
 1893TIP3   OH2 5623   4.129   1.499   0.901
 1893TIP3    H1 5624   4.118   1.427   0.839
 1893TIP3    H2 5625   4.144   1.456   0.985
 1894TIP3   OH2 5626   6.974   2.560   1.638
 1894TIP3    H1 5627   6.903   2.616   1.669
 1894TIP3    H2 5628   6.969   2.566   1.542
 1895TIP3   OH2 5629   0.010   1.528   5.334
 1895TIP3    H1 5630   0.026   1.528   5.429
 1895TIP3    H2 5631   0.032   1.616   5.306
 1896TIP3   OH2 5632   1.055   1.211   0.177
 1896TIP3    H1 5633   1.032   1.148   0.246
 1896TIP3    H2 5634   0.971   1.241   0.143
 1897TIP3   OH2 5635   2.752   7.753   0.149
 1897TIP3    H1 5636   2.727   7.678   0.204
 1897TIP3    H2 5637   2.669   7.792   0.123
 1898TIP3   OH2 5638   4.304   5.517   1.601
 1898TIP3    H1 5639   4.219   5.495   1.639
 1898TIP3    H2 5640   4.286   5.532   1.508
 1899TIP3   OH2 5641   0.055   5.230   1.320
 1899TIP3    H1 5642   0.121   5.271   1.265
 1899TIP3    H2 5643  -0.029   5.256   1.282
 1900TIP3   OH2 5644   0.213   3.097   1.084
 1900TIP3    H1 5645   0.224   3.090   0.989
 1900TIP3    H2 5646   0.173   3.014   1.111
 1901TIP3   OH2 5647   1.711   5.051   6.133
 1901TIP3    H1 5648   1.726   5.003   6.215
 1901TIP3    H2 5649   1.642   5.002   6.088
 1902TIP3   OH2 5650   7.455   1.648   5.069
 1902TIP3    H1 5651   7.481   1.645   5.161
 1902TIP3    H2 5652   7.362   1.668   5.070
 1903TIP3   OH2 5653   0.291   6.076   1.936
 1903TIP3    H1 5654   0.379   6.104   1.913
 1903TIP3    H2 5655   0.274   6.118   2.021
 1904TIP3   OH2 5656   7.245   5.680   6.337
 1904TIP3    H1 5657   7.159   5.641   6.349
 1904TIP3    H2 5658   7.231   5.752   6.276
 1905TIP3   OH2 5659   7.406   3.832   1.557
 1905TIP3    H1 5660   7.456   3.883   1.620
 1905TIP3    H2 5661   7.354   3.896   1.509
 1906TIP3   OH2 5662   4.021   6.138   5.581
 1906TIP3    H1 5663   3.943   6.111   5.630
 1906TIP3    H2 5664   4.069   6.057   5.565
 1907TIP3   OH2 5665   4.556   2.484   4.198
 1907TIP3    H1 5666   4.480   2.528   4.160
 1907TIP3    H2 5667   4.524   2.448   4.281
 1908TIP3   OH2 5668   1.369   3.092   5.107
 1908TIP3    H1 5669   1.407   3.173   5.074
 1908TIP3    H2 5670   1.424   3.069   5.182
 1909TIP3   OH2 5671   3.751   5.629   5.592
 1909TIP3    H1 5672   3.764   5.721   5.567
 1909TIP3    H2 5673   3.664   5.628   5.632
 1910TIP3   OH2 5674   3.583   0.478   5.775
 1910TIP3    H1 5675   3.504   0.509   5.820
 1910TIP3    H2 5676   3.583   0.383   5.789
 1911TIP3   OH2 5677   3.832   0.901   3.937
 1911TIP3    H1 5678   3.823   0.866   3.848
 1911TIP3    H2 5679   3.769   0.973   3.940
 1912TIP3   OH2 5680   3.252   4.454   5.505
 1912TIP3    H1 5681   3.208   4.375   5.473
 1912TIP3    H2 5682   3.195   4.485   5.576
 1913TIP3   OH2 5683   1.939   7.354   4.111
 1913TIP3    H1 5684   1.989   7.313   4.040
 1913TIP3    H2 5685   1.931   7.445   4.086
 1914TIP3   OH2 5686   5.390   1.012   3.368
 1914TIP3    H1 5687   5.442   1.003   3.448
 1914TIP3    H2 5688   5.446   1.061   3.309
 1915TIP3   OH2 5689   7.223   6.149   0.481
 1915TIP3    H1 5690   7.315   6.154   0.506
 1915TIP3    H2 5691   7.224   6.136   0.386
 1916TIP3   OH2 5692   7.216   6.476   2.065
 1916TIP3    H1 5693   7.237   6.434   2.148
 1916TIP3    H2 5694   7.221   6.570   2.084
 1917TIP3   OH2 5695   1.600   3.872   4.643
 1917TIP3    H1 5696   1.615   3.966   4.634
 1917TIP3    H2 5697   1.536   3.852   4.574
 1918TIP3   OH2 5698   6.340   4.159   6.704
 1918TIP3    H1 5699   6.372   4.181   6.616
 1918TIP3    H2 5700   6.419   4.162   6.759
 1919TIP3   OH2 5701   5.877   4.330   6.065
 1919TIP3    H1 5702   5.843   4.374   6.143
 1919TIP3    H2 5703   5.904   4.244   6.097
 1920TIP3   OH2 5704   5.245   1.046   1.029
 1920TIP3    H1 5705   5.171   0.998   0.993
 1920TIP3    H2 5706   5.213   1.135   1.042
 1921TIP3   OH2 5707   2.057   4.952   6.544
 1921TIP3    H1 5708   2.017   5.017   6.486
 1921TIP3    H2 5709   2.022   4.973   6.631
 1922TIP3   OH2 5710   7.766   6.076   6.574
 1922TIP3    H1 5711   7.698   6.102   6.636
 1922TIP3    H2 5712   7.819   6.013   6.623
 1923TIP3   OH2 5713   4.727   2.908   4.761
 1923TIP3    H1 5714   4.736   2.824   4.805
 1923TIP3    H2 5715   4.782   2.900   4.683
 1924TIP3   OH2 5716   6.308   7.453   6.364
 1924TIP3    H1 5717   6.392   7.498   6.361
 1924TIP3    H2 5718   6.274   7.459   6.275
 1925TIP3   OH2 5719   3.535   2.224   1.304
 1925TIP3    H1 5720   3.612   2.185   1.345
 1925TIP3    H2 5721   3.503   2.287   1.368
 1926TIP3   OH2 5722   1.585   0.563   4.566
 1926TIP3    H1 5723   1.562   0.620   4.492
 1926TIP3    H2 5724   1.678   0.545   4.554
 1927TIP3   OH2 5725   0.922   0.046   1.088
 1927TIP3    H1 5726   0.867   0.117   1.121
 1927TIP3    H2 5727   1.011   0.076   1.102
 1928TIP3   OH2 5728   7.993   0.237   4.945
 1928TIP3    H1 5729   7.975   0.224   5.038
 1928TIP3    H2 5730   7.908   0.220   4.902
 1929TIP3   OH2 5731   3.576   0.477   6.714
 1929TIP3    H1 5732   3.587   0.398   6.662
 1929TIP3    H2 5733   3.528   0.537   6.658
 1930TIP3   OH2 5734   7.783   1.472   5.626
 1930TIP3    H1 5735   7.824   1.493   5.710
 1930TIP3    H2 5736   7.705   1.527   5.622
 1931TIP3   OH2 5737   0.930   7.715   5.656
 1931TIP3    H1 5738   0.946   7.650   5.725
 1931TIP3    H2 5739   0.868   7.672   5.598
 1932TIP3   OH2 5740   3.256   5.610   2.246
 1932TIP3    H1 5741   3.234   5.575   2.332
 1932TIP3    H2 5742   3.349   5.634   2.253
 1933TIP3   OH2 5743   6.819   2.625   1.182
 1933TIP3    H1 5744   6.807   2.546   1.131
 1933TIP3    H2 5745   6.731   2.663   1.189
 1934TIP3   OH2 5746   4.676   3.923   3.424
 1934TIP3    H1 5747   4.603   3.986   3.422
 1934TIP3    H2 5748   4.640   3.846   3.467
 1935TIP3   OH2 5749   0.787   3.241   6.540
 1935TIP3    H1 5750   0.868   3.244   6.489
 1935TIP3    H2 5751   0.737   3.317   6.510
 1936TIP3   OH2 5752   2.107   2.035   2.190
 1936TIP3    H1 5753   2.083   1.999   2.275
 1936TIP3    H2 5754   2.024   2.037   2.141
 1937TIP3   OH2 5755   7.668   3.852   1.096
 1937TIP3    H1 5756   7.703   3.876   1.010
 1937TIP3    H2 5757   7.659   3.935   1.143
 1938TIP3   OH2 5758   7.044   3.018   2.865
 1938TIP3    H1 5759   7.009   2.948   2.919
 1938TIP3    H2 5760   6.995   3.096   2.892
 1939TIP3   OH2 5761   5.503   2.273   5.791
 1939TIP3    H1 5762   5.478   2.342   5.852
 1939TIP3    H2 5763   5.420   2.231   5.767
 1940TIP3   OH2 5764   0.830   4.598   6.493
 1940TIP3    H1 5765   0.832   4.526   6.430
 1940TIP3    H2 5766   0.864   4.673   6.446
 1941TIP3   OH2 5767   5.253   4.746   6.551
 1941TIP3    H1 5768   5.348   4.744   6.565
 1941TIP3    H2 5769   5.216   4.731   6.639
 1942TIP3   OH2 5770   2.694   7.330   1.763
 1942TIP3    H1 5771   2.599   7.343   1.770
 1942TIP3    H2 5772   2.722   7.395   1.699
 1943TIP3   OH2 5773   2.452   3.201   5.427
 1943TIP3    H1 5774   2.510   3.205   5.503
 1943TIP3    H2 5775   2.383   3.140   5.453
 1944TIP3   OH2 5776   1.724   7.673   2.748
 1944TIP3    H1 5777   1.659   7.691   2.816
 1944TIP3    H2 5778   1.743   7.580   2.756
 1945TIP3   OH2 5779   4.042   2.991   5.879
 1945TIP3    H1 5780   4.136   2.991   5.896
 1945TIP3    H2 5781   4.014   3.082   5.895
 1946TIP3   OH2 5782   4.639   3.755   4.075
 1946TIP3    H1 5783   4.554   3.759   4.118
 1946TIP3    H2 5784   4.628   3.689   4.006
 1947TIP3   OH2 5785   2.146   5.325   0.767
 1947TIP3    H1 5786   2.143   5.418   0.790
 1947TIP3    H2 5787   2.090   5.283   0.831
 1948TIP3   OH2 5788   4.196   2.449   3.133
 1948TIP3    H1 5789   4.228   2.376   3.186
 1948TIP3    H2 5790   4.263   2.516   3.143
 1949TIP3   OH2 5791   7.330   6.453   6.571
 1949TIP3    H1 5792   7.407   6.397   6.574
 1949TIP3    H2 5793   7.306   6.467   6.662
 1950TIP3   OH2 5794   3.955   3.361   5.135
 1950TIP3    H1 5795   3.955   3.447   5.093
 1950TIP3    H2 5796   3.970   3.380   5.228
 1951TIP3   OH2 5797   5.015   6.838   6.395
 1951TIP3    H1 5798   5.000   6.877   6.481
 1951TIP3    H2 5799   5.044   6.910   6.340
 1952TIP3   OH2 5800   1.368   6.347   4.066
 1952TIP3    H1 5801   1.372   6.375   3.975
 1952TIP3    H2 5802   1.279   6.367   4.094
 1953TIP3   OH2 5803   5.532   0.590   6.688
 1953TIP3    H1 5804   5.512   0.544   6.769
 1953TIP3    H2 5805   5.627   0.600   6.689
 1954TIP3   OH2 5806   2.758   7.789   6.235
 1954TIP3    H1 5807   2.669   7.756   6.244
 1954TIP3    H2 5808   2.746   7.881   6.210
 1955TIP3   OH2 5809   2.609   2.024   4.882
 1955TIP3    H1 5810   2.603   1.932   4.860
 1955TIP3    H2 5811   2.692   2.033   4.929
 1956TIP3   OH2 5812   6.800   3.392   0.901
 1956TIP3    H1 5813   6.770   3.458   0.963
 1956TIP3    H2 5814   6.825   3.441   0.823
 1957TIP3   OH2 5815   5.825   2.536   5.016
 1957TIP3    H1 5816   5.760   2.494   5.072
 1957TIP3    H2 5817   5.826   2.628   5.044
 1958TIP3   OH2 5818   0.621   3.056   2.238
 1958TIP3    H1 5819   0.637   3.146   2.209
 1958TIP3    H2 5820   0.534   3.035   2.203
 1959TIP3   OH2 5821   5.569   2.776   2.365
 1959TIP3    H1 5822   5.542   2.838   2.297
 1959TIP3    H2 5823   5.526   2.694   2.342
 1960TIP3   OH2 5824   5.992   4.153   0.201
 1960TIP3    H1 5825   5.929   4.221   0.223
 1960TIP3    H2 5826   5.941   4.089   0.151
 1961TIP3   OH2 5827   5.497   2.871   1.594
 1961TIP3    H1 5828   5.562   2.909   1.653
 1961TIP3    H2 5829   5.467   2.791   1.637
 1962TIP3   OH2 5830   7.164   4.319  -0.001
 1962TIP3    H1 5831   7.207   4.243  -0.041
 1962TIP3    H2 5832   7.199   4.322   0.088
 1963TIP3   OH2 5833   7.904   5.388   0.961
 1963TIP3    H1 5834   7.875   5.300   0.984
 1963TIP3    H2 5835   7.999   5.386   0.976
 1964TIP3   OH2 5836   4.441   5.984   0.073
 1964TIP3    H1 5837   4.444   5.956   0.164
 1964TIP3    H2 5838   4.348   5.986   0.051
 1965TIP3   OH2 5839   2.952   4.226   5.749
 1965TIP3    H1 5840   3.042   4.259   5.741
 1965TIP3    H2 5841   2.931   4.235   5.842
 1966TIP3   OH2 5842   5.456   4.325   0.642
 1966TIP3    H1 5843   5.485   4.236   0.664
 1966TIP3    H2 5844   5.538   4.372   0.623
 1967TIP3   OH2 5845   1.624   5.482   5.605
 1967TIP3    H1 5846   1.690   5.537   5.648
 1967TIP3    H2 5847   1.672   5.402   5.582
 1968TIP3   OH2 5848   0.155   3.066   4.159
 1968TIP3    H1 5849   0.156   2.971   4.148
 1968TIP3    H2 5850   0.209   3.082   4.237
 1969TIP3   OH2 5851   0.651   4.125   2.347
 1969TIP3    H1 5852   0.715   4.186   2.384
 1969TIP3    H2 5853   0.576   4.131   2.406
 1970TIP3   OH2 5854   3.790   6.410   1.467
 1970TIP3    H1 5855   3.837   6.492   1.481
 1970TIP3    H2 5856   3.855   6.342   1.483
 1971TIP3   OH2 5857   3.433   3.755   5.773
 1971TIP3    H1 5858   3.467   3.845   5.767
 1971TIP3    H2 5859   3.483   3.716   5.845
 1972TIP3   OH2 5860   0.650   7.643   5.911
 1972TIP3    H1 5861   0.744   7.642   5.927
 1972TIP3    H2 5862   0.637   7.714   5.848
 1973TIP3   OH2 5863   3.727   6.560   1.959
 1973TIP3    H1 5864   3.680   6.590   1.881
 1973TIP3    H2 5865   3.668   6.496   1.999
 1974TIP3   OH2 5866   4.926   3.289   0.244
 1974TIP3    H1 5867   4.889   3.348   0.311
 1974TIP3    H2 5868   4.902   3.330   0.161
 1975TIP3   OH2 5869   7.791   3.773   6.330
 1975TIP3    H1 5870   7.757   3.862   6.331
 1975TIP3    H2 5871   7.796   3.750   6.237
 1976TIP3   OH2 5872   6.213   3.667   4.588
 1976TIP3    H1 5873   6.186   3.712   4.667
 1976TIP3    H2 5874   6.301   3.633   4.608
 1977TIP3   OH2 5875   3.746   2.582   2.078
 1977TIP3    H1 5876   3.760   2.570   1.984
 1977TIP3    H2 5877   3.656   2.615   2.084
 1978TIP3   OH2 5878   2.818   4.895   6.668
 1978TIP3    H1 5879   2.914   4.897   6.658
 1978TIP3    H2 5880   2.804   4.838   6.744
 1979TIP3   OH2 5881   5.362   1.680   6.340
 1979TIP3    H1 5882   5.373   1.719   6.427
 1979TIP3    H2 5883   5.290   1.729   6.301
 1980TIP3   OH2 5884   1.879   3.721   5.676
 1980TIP3    H1 5885   1.818   3.657   5.638
 1980TIP3    H2 5886   1.824   3.796   5.697
 1981TIP3   OH2 5887   2.580   0.893   6.398
 1981TIP3    H1 5888   2.634   0.972   6.398
 1981TIP3    H2 5889   2.490   0.926   6.397
 1982TIP3   OH2 5890   3.162   6.851   4.599
 1982TIP3    H1 5891   3.138   6.852   4.507
 1982TIP3    H2 5892   3.231   6.917   4.607
 1983TIP3   OH2 5893   1.371   4.730   1.525
 1983TIP3    H1 5894   1.450   4.677   1.525
 1983TIP3    H2 5895   1.402   4.820   1.539
 1984TIP3   OH2 5896   6.617   1.282   5.724
 1984TIP3    H1 5897   6.587   1.191   5.731
 1984TIP3    H2 5898   6.550   1.325   5.671
 1985TIP3   OH2 5899   3.536   1.917   3.528
 1985TIP3    H1 5900   3.592   1.841   3.512
 1985TIP3    H2 5901   3.592   1.977   3.578
 1986TIP3   OH2 5902   3.364   7.542   5.644
 1986TIP3    H1 5903   3.369   7.635   5.622
 1986TIP3    H2 5904   3.273   7.519   5.628
 1987TIP3   OH2 5905   7.121   0.479   3.656
 1987TIP3    H1 5906   7.061   0.534   3.605
 1987TIP3    H2 5907   7.068   0.405   3.685
 1988TIP3   OH2 5908   2.906   0.376   6.747
 1988TIP3    H1 5909   2.941   0.441   6.686
 1988TIP3    H2 5910   2.856   0.317   6.692
 1989TIP3   OH2 5911   5.755   1.627   6.671
 1989TIP3    H1 5912   5.770   1.651   6.762
 1989TIP3    H2 5913   5.789   1.538   6.663
 1990TIP3   OH2 5914   3.525   3.598   3.808
 1990TIP3    H1 5915   3.609   3.556   3.793
 1990TIP3    H2 5916   3.497   3.628   3.721
 1991TIP3   OH2 5917   7.970   1.425   5.439
 1991TIP3    H1 5918   7.892   1.435   5.493
 1991TIP3    H2 5919   8.035   1.385   5.498
 1992TIP3   OH2 5920   2.468   7.221   2.513
 1992TIP3    H1 5921   2.538   7.282   2.491
 1992TIP3    H2 5922   2.466   7.160   2.439
 1993TIP3   OH2 5923   7.481   4.589   1.662
 1993TIP3    H1 5924   7.403   4.538   1.685
 1993TIP3    H2 5925   7.548   4.524   1.645
 1994TIP3   OH2 5926   1.458   5.589   1.097
 1994TIP3    H1 5927   1.537   5.615   1.143
 1994TIP3    H2 5928   1.459   5.494   1.099
 1995TIP3   OH2 5929   4.006   3.562   2.307
 1995TIP3    H1 5930   4.000   3.469   2.330
 1995TIP3    H2 5931   3.933   3.603   2.355
 1996TIP3   OH2 5932   5.940   6.836   2.548
 1996TIP3    H1 5933   5.945   6.862   2.640
 1996TIP3    H2 5934   5.995   6.758   2.542
 1997TIP3   OH2 5935   2.519   6.775   1.428
 1997TIP3    H1 5936   2.475   6.772   1.343
 1997TIP3    H2 5937   2.526   6.684   1.455
 1998TIP3   OH2 5938   1.076   4.888   0.297
 1998TIP3    H1 5939   1.145   4.845   0.348
 1998TIP3    H2 5940   1.040   4.818   0.242
 1999TIP3   OH2 5941   6.548   3.557   3.500
 1999TIP3    H1 5942   6.488   3.606   3.444
 1999TIP3    H2 5943   6.583   3.487   3.445
 2000TIP3   OH2 5944   7.799   7.729   1.923
 2000TIP3    H1 5945   7.850   7.805   1.953
 2000TIP3    H2 5946   7.725   7.767   1.876
 2001TIP3   OH2 5947   7.703   0.254   2.292
 2001TIP3    H1 5948   7.722   0.227   2.382
 2001TIP3    H2 5949   7.755   0.333   2.279
 2002TIP3   OH2 5950   2.749   5.749   0.058
 2002TIP3    H1 5951   2.741   5.770  -0.035
 2002TIP3    H2 5952   2.775   5.656   0.060
 2003TIP3   OH2 5953   4.735   6.930   3.600
 2003TIP3    H1 5954   4.790   6.992   3.649
 2003TIP3    H2 5955   4.720   6.858   3.661
 2004TIP3   OH2 5956   6.736   4.714   1.281
 2004TIP3    H1 5957   6.660   4.749   1.233
 2004TIP3    H2 5958   6.748   4.626   1.247
 2005TIP3   OH2 5959   2.618   2.386   3.438
 2005TIP3    H1 5960   2.686   2.413   3.376
 2005TIP3    H2 5961   2.645   2.426   3.521
 2006TIP3   OH2 5962   3.342   3.462   1.942
 2006TIP3    H1 5963   3.343   3.417   2.027
 2006TIP3    H2 5964   3.418   3.427   1.895
 2007TIP3   OH2 5965   8.268   4.728   5.341
 2007TIP3    H1 5966   8.244   4.712   5.249
 2007TIP3    H2 5967   8.323   4.654   5.364
 2008TIP3   OH2 5968   1.863   7.171   0.281
 2008TIP3    H1 5969   1.888   7.148   0.370
 2008TIP3    H2 5970   1.785   7.117   0.264
 2009TIP3   OH2 5971   5.908   3.094   0.224
 2009TIP3    H1 5972   5.946   3.176   0.253
 2009TIP3    H2 5973   5.815   3.114   0.211
 2010TIP3   OH2 5974   0.514   7.367   5.675
 2010TIP3    H1 5975   0.440   7.307   5.671
 2010TIP3    H2 5976   0.499   7.427   5.602
 2011TIP3   OH2 5977   5.155   6.666   0.739
 2011TIP3    H1 5978   5.087   6.656   0.672
 2011TIP3    H2 5979   5.110   6.705   0.814
 2012TIP3   OH2 5980   5.109   3.037   5.858
 2012TIP3    H1 5981   5.191   2.990   5.844
 2012TIP3    H2 5982   5.041   2.970   5.853
 2013TIP3   OH2 5983   7.419   3.301   6.090
 2013TIP3    H1 5984   7.326   3.310   6.113
 2013TIP3    H2 5985   7.438   3.377   6.035
 2014TIP3   OH2 5986   4.189   1.329   4.366
 2014TIP3    H1 5987   4.170   1.238   4.388
 2014TIP3    H2 5988   4.214   1.370   4.449
 2015TIP3   OH2 5989   0.451   0.909   5.991
 2015TIP3    H1 5990   0.521   0.860   6.034
 2015TIP3    H2 5991   0.469   0.898   5.897
 2016TIP3   OH2 5992   2.582   5.097   0.566
 2016TIP3    H1 5993   2.617   5.011   0.544
 2016TIP3    H2 5994   2.650   5.159   0.540
 2017TIP3   OH2 5995   3.001   1.534   0.695
 2017TIP3    H1 5996   2.973   1.624   0.680
 2017TIP3    H2 5997   3.045   1.536   0.780
 2018TIP3   OH2 5998   4.990   5.975   2.300
 2018TIP3    H1 5999   4.917   6.012   2.349
 2018TIP3    H2 6000   5.034   6.050   2.260
 2019TIP3   OH2 6001   3.896   5.407   3.083
 2019TIP3    H1 6002   3.817   5.386   3.133
 2019TIP3    H2 6003   3.968   5.372   3.136
 2020TIP3   OH2 6004   1.946   4.013   0.479
 2020TIP3    H1 6005   1.983   3.965   0.405
 2020TIP3    H2 6006   1.858   3.976   0.490
 2021TIP3   OH2 6007   2.163   6.656   3.283
 2021TIP3    H1 6008   2.228   6.673   3.215
 2021TIP3    H2 6009   2.156   6.738   3.331
 2022TIP3   OH2 6010   3.104   0.571   3.942
 2022TIP3    H1 6011   3.047   0.642   3.913
 2022TIP3    H2 6012   3.147   0.605   4.020
 2023TIP3   OH2 6013   2.146   6.442   1.802
 2023TIP3    H1 6014   2.120   6.390   1.726
 2023TIP3    H2 6015   2.151   6.532   1.769
 2024TIP3   OH2 6016   6.749   2.437   2.904
 2024TIP3    H1 6017   6.664   2.440   2.947
 2024TIP3    H2 6018   6.758   2.347   2.873
 2025TIP3   OH2 6019   6.914   1.996   1.147
 2025TIP3    H1 6020   6.845   2.037   1.199
 2025TIP3    H2 6021   6.962   1.942   1.209
 2026TIP3   OH2 6022   1.752   5.530   6.504
 2026TIP3    H1 6023   1.831   5.476   6.506
 2026TIP3    H2 6024   1.784   5.620   6.514
 2027TIP3   OH2 6025   5.231   0.539   4.716
 2027TIP3    H1 6026   5.318   0.509   4.742
 2027TIP3    H2 6027   5.227   0.630   4.744
 2028TIP3   OH2 6028   4.090   4.459   6.054
 2028TIP3    H1 6029   4.030   4.429   5.986
 2028TIP3    H2 6030   4.093   4.554   6.043
 2029TIP3   OH2 6031   1.790   6.499   2.138
 2029TIP3    H1 6032   1.721   6.433   2.138
 2029TIP3    H2 6033   1.864   6.457   2.183
 2030TIP3   OH2 6034   5.986   0.181   2.917
 2030TIP3    H1 6035   5.957   0.090   2.914
 2030TIP3    H2 6036   6.047   0.184   2.992
 2031TIP3   OH2 6037   7.292   1.277   4.316
 2031TIP3    H1 6038   7.227   1.298   4.250
 2031TIP3    H2 6039   7.244   1.229   4.383
 2032TIP3   OH2 6040   7.957   0.887   2.058
 2032TIP3    H1 6041   7.931   0.863   1.969
 2032TIP3    H2 6042   8.033   0.944   2.047
 2033TIP3   OH2 6043   0.656   2.339   5.534
 2033TIP3    H1 6044   0.591   2.320   5.601
 2033TIP3    H2 6045   0.605   2.363   5.457
 2034TIP3   OH2 6046   1.215   5.742   1.966
 2034TIP3    H1 6047   1.224   5.822   1.915
 2034TIP3    H2 6048   1.124   5.741   1.994
 2035TIP3   OH2 6049   0.435   4.662   2.614
 2035TIP3    H1 6050   0.525   4.630   2.604
 2035TIP3    H2 6051   0.444   4.757   2.622
 2036TIP3   OH2 6052   5.109   2.820   5.246
 2036TIP3    H1 6053   5.129   2.801   5.155
 2036TIP3    H2 6054   5.177   2.883   5.273
 2037TIP3   OH2 6055   5.066   7.099   2.258
 2037TIP3    H1 6056   5.011   7.043   2.312
 2037TIP3    H2 6057   5.051   7.187   2.291
 2038TIP3   OH2 6058   1.369   2.095   2.628
 2038TIP3    H1 6059   1.363   2.141   2.545
 2038TIP3    H2 6060   1.453   2.124   2.665
 2039TIP3   OH2 6061   2.918   7.736   2.263
 2039TIP3    H1 6062   2.943   7.828   2.255
 2039TIP3    H2 6063   2.860   7.734   2.340
 2040TIP3   OH2 6064   4.544   3.575   3.901
 2040TIP3    H1 6065   4.595   3.497   3.878
 2040TIP3    H2 6066   4.558   3.635   3.829
 2041TIP3   OH2 6067   7.626   2.746   1.010
 2041TIP3    H1 6068   7.600   2.831   1.044
 2041TIP3    H2 6069   7.545   2.708   0.976
 2042TIP3   OH2 6070   4.165   2.368   0.151
 2042TIP3    H1 6071   4.150   2.441   0.211
 2042TIP3    H2 6072   4.189   2.295   0.207
 2043TIP3   OH2 6073   1.791   1.969   4.493
 2043TIP3    H1 6074   1.872   1.954   4.541
 2043TIP3    H2 6075   1.802   1.923   4.410
 2044TIP3   OH2 6076   5.411   1.860   1.141
 2044TIP3    H1 6077   5.321   1.830   1.123
 2044TIP3    H2 6078   5.400   1.932   1.203
 2045TIP3   OH2 6079   0.842   2.724   0.186
 2045TIP3    H1 6080   0.796   2.732   0.269
 2045TIP3    H2 6081   0.923   2.679   0.207
 2046TIP3   OH2 6082   1.400   0.231   2.202
 2046TIP3    H1 6083   1.329   0.282   2.163
 2046TIP3    H2 6084   1.412   0.270   2.289
 2047TIP3   OH2 6085   0.042   6.381   5.823
 2047TIP3    H1 6086   0.100   6.451   5.793
 2047TIP3    H2 6087   0.049   6.384   5.918
 2048TIP3   OH2 6088   2.441   6.321   6.659
 2048TIP3    H1 6089   2.475   6.232   6.673
 2048TIP3    H2 6090   2.486   6.351   6.580
 2049TIP3   OH2 6091   3.117   0.999   5.082
 2049TIP3    H1 6092   3.051   0.951   5.132
 2049TIP3    H2 6093   3.087   0.992   4.991
 2050TIP3   OH2 6094   7.576   1.704   0.503
 2050TIP3    H1 6095   7.504   1.671   0.450
 2050TIP3    H2 6096   7.641   1.634   0.501
 2051TIP3   OH2 6097   7.356   1.960   3.184
 2051TIP3    H1 6098   7.273   2.008   3.180
 2051TIP3    H2 6099   7.413   2.017   3.237
 2052TIP3   OH2 6100   4.780   3.912   4.421
 2052TIP3    H1 6101   4.844   3.983   4.424
 2052TIP3    H2 6102   4.831   3.835   4.398
 2053TIP3   OH2 6103   2.241   1.663   5.076
 2053TIP3    H1 6104   2.254   1.590   5.137
 2053TIP3    H2 6105   2.175   1.631   5.015
 2054TIP3   OH2 6106   5.291   5.854   4.603
 2054TIP3    H1 6107   5.291   5.947   4.577
 2054TIP3    H2 6108   5.281   5.857   4.698
 2055TIP3   OH2 6109   6.784   2.953   2.700
 2055TIP3    H1 6110   6.798   2.859   2.697
 2055TIP3    H2 6111   6.822   2.986   2.619
 2056TIP3   OH2 6112   3.605   4.354   6.366
 2056TIP3    H1 6113   3.520   4.392   6.346
 2056TIP3    H2 6114   3.658   4.371   6.288
 2057TIP3   OH2 6115   3.790   5.906   4.912
 2057TIP3    H1 6116   3.733   5.953   4.852
 2057TIP3    H2 6117   3.740   5.900   4.993
 2058TIP3   OH2 6118   6.100   5.713   0.642
 2058TIP3    H1 6119   6.117   5.646   0.708
 2058TIP3    H2 6120   6.005   5.718   0.638
 2059TIP3   OH2 6121   7.671   6.820   4.347
 2059TIP3    H1 6122   7.714   6.855   4.425
 2059TIP3    H2 6123   7.616   6.892   4.316
 2060TIP3   OH2 6124   5.044   6.827   3.058
 2060TIP3    H1 6125   5.029   6.799   3.148
 2060TIP3    H2 6126   4.994   6.765   3.005
 2061TIP3   OH2 6127   8.048   1.609   4.381
 2061TIP3    H1 6128   8.108   1.680   4.359
 2061TIP3    H2 6129   7.962   1.651   4.386
 2062TIP3   OH2 6130   7.636   0.765   2.721
 2062TIP3    H1 6131   7.549   0.726   2.722
 2062TIP3    H2 6132   7.695   0.691   2.705
 2063TIP3   OH2 6133   0.105   2.264   2.696
 2063TIP3    H1 6134   0.172   2.233   2.757
 2063TIP3    H2 6135   0.074   2.184   2.652
 2064TIP3   OH2 6136   3.995   5.716   1.918
 2064TIP3    H1 6137   3.997   5.620   1.924
 2064TIP3    H2 6138   4.081   5.739   1.885
 2065TIP3   OH2 6139   5.296   1.546   1.691
 2065TIP3    H1 6140   5.349   1.587   1.623
 2065TIP3    H2 6141   5.275   1.617   1.751
 2066TIP3   OH2 6142   4.396   2.138   5.654
 2066TIP3    H1 6143   4.384   2.056   5.606
 2066TIP3    H2 6144   4.439   2.197   5.591
 2067TIP3   OH2 6145   3.327   0.580   5.880
 2067TIP3    H1 6146   3.347   0.658   5.931
 2067TIP3    H2 6147   3.231   0.572   5.884
 2068TIP3   OH2 6148   4.216   5.929   3.545
 2068TIP3    H1 6149   4.263   5.999   3.501
 2068TIP3    H2 6150   4.249   5.849   3.505
 2069TIP3   OH2 6151   1.380   4.218   5.905
 2069TIP3    H1 6152   1.449   4.189   5.966
 2069TIP3    H2 6153   1.324   4.275   5.958
 2070TIP3   OH2 6154   1.451   1.511   6.374
 2070TIP3    H1 6155   1.427   1.600   6.398
 2070TIP3    H2 6156   1.506   1.481   6.447
 2071TIP3   OH2 6157   0.758   3.427   0.756
 2071TIP3    H1 6158   0.751   3.515   0.719
 2071TIP3    H2 6159   0.836   3.389   0.714
 2072TIP3   OH2 6160   3.103   0.546   3.315
 2072TIP3    H1 6161   3.186   0.498   3.306
 2072TIP3    H2 6162   3.070   0.521   3.401
 2073TIP3   OH2 6163   6.015   4.105   6.181
 2073TIP3    H1 6164   6.045   4.174   6.241
 2073TIP3    H2 6165   6.044   4.023   6.222
 2074TIP3   OH2 6166   1.434   4.356   4.560
 2074TIP3    H1 6167   1.352   4.320   4.595
 2074TIP3    H2 6168   1.442   4.442   4.600
 2075TIP3   OH2 6169   6.915   5.745   3.878
 2075TIP3    H1 6170   6.876   5.704   3.956
 2075TIP3    H2 6171   6.873   5.831   3.873
 2076TIP3   OH2 6172   3.405   1.879   1.427
 2076TIP3    H1 6173   3.361   1.962   1.412
 2076TIP3    H2 6174   3.465   1.896   1.500
 2077TIP3   OH2 6175   4.622   5.937   4.877
 2077TIP3    H1 6176   4.687   6.007   4.879
 2077TIP3    H2 6177   4.538   5.982   4.890
 2078TIP3   OH2 6178   3.610   4.954   6.333
 2078TIP3    H1 6179   3.608   5.043   6.368
 2078TIP3    H2 6180   3.575   4.962   6.244
 2079TIP3   OH2 6181   3.932   5.883   2.225
 2079TIP3    H1 6182   3.946   5.972   2.193
 2079TIP3    H2 6183   4.019   5.843   2.222
 2080TIP3   OH2 6184   5.039   4.999   5.155
 2080TIP3    H1 6185   5.019   5.069   5.216
 2080TIP3    H2 6186   5.033   4.919   5.207
 2081TIP3   OH2 6187   5.889   2.758   5.420
 2081TIP3    H1 6188   5.938   2.678   5.439
 2081TIP3    H2 6189   5.939   2.828   5.462
 2082TIP3   OH2 6190   8.121   2.521   2.114
 2082TIP3    H1 6191   8.168   2.488   2.037
 2082TIP3    H2 6192   8.031   2.531   2.085
 2083TIP3   OH2 6193   1.831   2.459   5.037
 2083TIP3    H1 6194   1.816   2.446   4.943
 2083TIP3    H2 6195   1.919   2.495   5.043
 2084TIP3   OH2 6196   5.603   4.558   2.087
 2084TIP3    H1 6197   5.550   4.636   2.074
 2084TIP3    H2 6198   5.652   4.548   2.005
 2085TIP3   OH2 6199   1.713   3.208   4.736
 2085TIP3    H1 6200   1.679   3.165   4.658
 2085TIP3    H2 6201   1.733   3.136   4.796
 2086TIP3   OH2 6202   4.079   2.555   1.816
 2086TIP3    H1 6203   4.123   2.620   1.870
 2086TIP3    H2 6204   4.144   2.530   1.750
 2087TIP3   OH2 6205   2.913   0.852   5.209
 2087TIP3    H1 6206   2.831   0.817   5.245
 2087TIP3    H2 6207   2.932   0.796   5.134
 2088TIP3   OH2 6208   6.970   4.554   4.508
 2088TIP3    H1 6209   6.888   4.568   4.554
 2088TIP3    H2 6210   6.988   4.460   4.519
 2089TIP3   OH2 6211   4.962   3.654   2.915
 2089TIP3    H1 6212   4.881   3.640   2.866
 2089TIP3    H2 6213   4.990   3.743   2.891
 2090TIP3   OH2 6214   1.414   5.868   6.753
 2090TIP3    H1 6215   1.320   5.874   6.734
 2090TIP3    H2 6216   1.455   5.861   6.667
 2091TIP3   OH2 6217   5.195   5.134   3.726
 2091TIP3    H1 6218   5.216   5.222   3.694
 2091TIP3    H2 6219   5.227   5.134   3.817
 2092TIP3   OH2 6220   3.361   6.381   2.698
 2092TIP3    H1 6221   3.408   6.307   2.659
 2092TIP3    H2 6222   3.413   6.457   2.673
 2093TIP3   OH2 6223   6.191   6.711   3.696
 2093TIP3    H1 6224   6.111   6.742   3.654
 2093TIP3    H2 6225   6.166   6.629   3.738
 2094TIP3   OH2 6226   1.471   4.736   4.110
 2094TIP3    H1 6227   1.415   4.696   4.176
 2094TIP3    H2 6228   1.523   4.800   4.159
 2095TIP3   OH2 6229   2.337   2.226   4.426
 2095TIP3    H1 6230   2.360   2.231   4.519
 2095TIP3    H2 6231   2.420   2.239   4.380
 2096TIP3   OH2 6232   4.204   0.996   6.643
 2096TIP3    H1 6233   4.197   0.908   6.679
 2096TIP3    H2 6234   4.191   0.985   6.549
 2097TIP3   OH2 6235   3.117   1.248   0.451
 2097TIP3    H1 6236   3.057   1.176   0.471
 2097TIP3    H2 6237   3.081   1.289   0.373
 2098TIP3   OH2 6238   0.036   4.123   4.792
 2098TIP3    H1 6239   0.000   4.140   4.879
 2098TIP3    H2 6240  -0.013   4.182   4.734
 2099TIP3   OH2 6241   1.760   3.670   4.139
 2099TIP3    H1 6242   1.809   3.751   4.152
 2099TIP3    H2 6243   1.814   3.602   4.180
 2100TIP3   OH2 6244   7.233   5.620   6.710
 2100TIP3    H1 6245   7.190   5.569   6.641
 2100TIP3    H2 6246   7.323   5.631   6.679
 2101TIP3   OH2 6247   3.085   6.747   5.546
 2101TIP3    H1 6248   3.144   6.673   5.533
 2101TIP3    H2 6249   3.126   6.819   5.499
 2102TIP3   OH2 6250   6.640   7.628   1.601
 2102TIP3    H1 6251   6.635   7.571   1.525
 2102TIP3    H2 6252   6.677   7.710   1.567
 2103TIP3   OH2 6253   0.078   2.463   0.877
 2103TIP3    H1 6254   0.145   2.395   0.880
 2103TIP3    H2 6255   0.064   2.479   0.784
 2104TIP3   OH2 6256   6.603   1.036   3.209
 2104TIP3    H1 6257   6.677   0.985   3.176
 2104TIP3    H2 6258   6.622   1.126   3.180
 2105TIP3   OH2 6259   3.778   2.060   1.892
 2105TIP3    H1 6260   3.697   2.028   1.854
 2105TIP3    H2 6261   3.766   2.050   1.986
 2106TIP3   OH2 6262   2.693   5.851   5.583
 2106TIP3    H1 6263   2.788   5.844   5.575
 2106TIP3    H2 6264   2.663   5.760   5.592
 2107TIP3   OH2 6265   2.134   2.529   3.039
 2107TIP3    H1 6266   2.136   2.435   3.017
 2107TIP3    H2 6267   2.096   2.570   2.961
 2108TIP3   OH2 6268   0.130   3.263   1.833
 2108TIP3    H1 6269   0.105   3.184   1.784
 2108TIP3    H2 6270   0.094   3.335   1.781
 2109TIP3   OH2 6271   2.697   3.071   1.433
 2109TIP3    H1 6272   2.734   3.158   1.444
 2109TIP3    H2 6273   2.754   3.014   1.485
 2110TIP3   OH2 6274   2.348   4.441   5.371
 2110TIP3    H1 6275   2.373   4.364   5.422
 2110TIP3    H2 6276   2.253   4.438   5.366
 2111TIP3   OH2 6277   4.594   4.308   4.699
 2111TIP3    H1 6278   4.573   4.383   4.643
 2111TIP3    H2 6279   4.555   4.233   4.654
 2112TIP3   OH2 6280   3.436   5.164   5.339
 2112TIP3    H1 6281   3.477   5.078   5.331
 2112TIP3    H2 6282   3.509   5.226   5.331
 2113TIP3   OH2 6283   8.080   5.400   6.803
 2113TIP3    H1 6284   8.057   5.476   6.750
 2113TIP3    H2 6285   8.082   5.328   6.741
 2114TIP3   OH2 6286   0.330   6.020   5.651
 2114TIP3    H1 6287   0.244   6.031   5.691
 2114TIP3    H2 6288   0.314   6.028   5.557
 2115TIP3   OH2 6289   7.036   7.044   0.436
 2115TIP3    H1 6290   6.959   7.024   0.382
 2115TIP3    H2 6291   6.999   7.084   0.515
 2116TIP3   OH2 6292   7.806   5.913   4.054
 2116TIP3    H1 6293   7.829   5.878   4.140
 2116TIP3    H2 6294   7.846   5.852   3.992
 2117TIP3   OH2 6295   2.262   3.638   2.544
 2117TIP3    H1 6296   2.342   3.684   2.517
 2117TIP3    H2 6297   2.290   3.549   2.563
 2118TIP3   OH2 6298   6.297   0.744   1.754
 2118TIP3    H1 6299   6.360   0.787   1.696
 2118TIP3    H2 6300   6.343   0.735   1.838
 2119TIP3   OH2 6301   2.076   2.853   2.021
 2119TIP3    H1 6302   2.106   2.834   1.933
 2119TIP3    H2 6303   2.100   2.775   2.072
 2120TIP3   OH2 6304   3.797   6.352   1.159
 2120TIP3    H1 6305   3.725   6.300   1.124
 2120TIP3    H2 6306   3.794   6.337   1.253
 2121TIP3   OH2 6307   5.381   6.066   3.127
 2121TIP3    H1 6308   5.364   6.136   3.064
 2121TIP3    H2 6309   5.476   6.058   3.129
 2122TIP3   OH2 6310   4.816   0.994   5.492
 2122TIP3    H1 6311   4.795   0.908   5.528
 2122TIP3    H2 6312   4.900   1.017   5.533
 2123TIP3   OH2 6313   5.028   4.181   5.662
 2123TIP3    H1 6314   4.949   4.219   5.626
 2123TIP3    H2 6315   5.086   4.255   5.679
 2124TIP3   OH2 6316   8.244   5.201   6.055
 2124TIP3    H1 6317   8.325   5.151   6.046
 2124TIP3    H2 6318   8.192   5.151   6.117
 2125TIP3   OH2 6319   5.042   7.063  -0.024
 2125TIP3    H1 6320   5.097   7.139  -0.001
 2125TIP3    H2 6321   4.998   7.040   0.058
 2126TIP3   OH2 6322   6.368   6.330   2.925
 2126TIP3    H1 6323   6.345   6.336   2.833
 2126TIP3    H2 6324   6.397   6.239   2.937
 2127TIP3   OH2 6325   7.203   4.995   4.355
 2127TIP3    H1 6326   7.234   5.013   4.266
 2127TIP3    H2 6327   7.114   4.962   4.343
 2128TIP3   OH2 6328   3.704   3.252   5.292
 2128TIP3    H1 6329   3.676   3.258   5.200
 2128TIP3    H2 6330   3.631   3.211   5.337
 2129TIP3   OH2 6331   6.994   6.308   6.067
 2129TIP3    H1 6332   6.943   6.257   6.129
 2129TIP3    H2 6333   6.981   6.399   6.094
 2130TIP3   OH2 6334   6.845   6.388   1.928
 2130TIP3    H1 6335   6.797   6.357   1.851
 2130TIP3    H2 6336   6.930   6.416   1.895
 2131TIP3   OH2 6337   5.257   4.363   3.356
 2131TIP3    H1 6338   5.307   4.349   3.436
 2131TIP3    H2 6339   5.323   4.376   3.288
 2132TIP3   OH2 6340   5.443   5.074   4.563
 2132TIP3    H1 6341   5.435   4.985   4.597
 2132TIP3    H2 6342   5.355   5.095   4.533
 2133TIP3   OH2 6343   4.271   5.058   0.934
 2133TIP3    H1 6344   4.261   4.964   0.948
 2133TIP3    H2 6345   4.291   5.066   0.840
 2134TIP3   OH2 6346   2.141   4.184   3.993
 2134TIP3    H1 6347   2.161   4.092   3.974
 2134TIP3    H2 6348   2.176   4.198   4.080
 2135TIP3   OH2 6349   7.739   4.771   2.309
 2135TIP3    H1 6350   7.762   4.817   2.390
 2135TIP3    H2 6351   7.690   4.694   2.338
 2136TIP3   OH2 6352   6.803   4.350   1.389
 2136TIP3    H1 6353   6.720   4.360   1.343
 2136TIP3    H2 6354   6.802   4.420   1.455
 2137TIP3   OH2 6355   4.429   4.824   1.506
 2137TIP3    H1 6356   4.434   4.903   1.452
 2137TIP3    H2 6357   4.442   4.752   1.444
 2138TIP3   OH2 6358   0.089   0.999   3.363
 2138TIP3    H1 6359   0.136   0.935   3.416
 2138TIP3    H2 6360   0.129   0.994   3.277
 2139TIP3   OH2 6361   2.665   4.876   4.146
 2139TIP3    H1 6362   2.707   4.958   4.119
 2139TIP3    H2 6363   2.631   4.894   4.234
 2140TIP3   OH2 6364   1.705   3.066   6.369
 2140TIP3    H1 6365   1.627   3.118   6.383
 2140TIP3    H2 6366   1.713   3.059   6.274
 2141TIP3   OH2 6367   1.648   6.551   1.650
 2141TIP3    H1 6368   1.714   6.523   1.714
 2141TIP3    H2 6369   1.676   6.639   1.625
 2142TIP3   OH2 6370   5.908   3.997   5.178
 2142TIP3    H1 6371   5.929   4.007   5.271
 2142TIP3    H2 6372   5.828   3.945   5.177
 2143TIP3   OH2 6373   2.576   3.535   5.156
 2143TIP3    H1 6374   2.630   3.529   5.234
 2143TIP3    H2 6375   2.500   3.480   5.175
 2144TIP3   OH2 6376   7.204   0.810   4.061
 2144TIP3    H1 6377   7.241   0.746   4.122
 2144TIP3    H2 6378   7.236   0.783   3.975
 2145TIP3   OH2 6379   1.244   4.611   4.271
 2145TIP3    H1 6380   1.197   4.591   4.190
 2145TIP3    H2 6381   1.175   4.614   4.338
 2146TIP3   OH2 6382   6.732   7.726   5.163
 2146TIP3    H1 6383   6.761   7.652   5.216
 2146TIP3    H2 6384   6.708   7.688   5.079
 2147TIP3   OH2 6385   7.088   7.602   1.567
 2147TIP3    H1 6386   7.061   7.692   1.550
 2147TIP3    H2 6387   7.069   7.555   1.485
 2148TIP3   OH2 6388   2.872   3.150   5.232
 2148TIP3    H1 6389   2.933   3.137   5.160
 2148TIP3    H2 6390   2.803   3.084   5.219
 2149TIP3   OH2 6391   1.112   1.205   2.509
 2149TIP3    H1 6392   1.207   1.199   2.518
 2149TIP3    H2 6393   1.097   1.291   2.472
 2150TIP3   OH2 6394   4.407   7.083   0.229
 2150TIP3    H1 6395   4.343   7.070   0.158
 2150TIP3    H2 6396   4.488   7.107   0.184
 2151TIP3   OH2 6397   7.943   4.645   2.131
 2151TIP3    H1 6398   7.903   4.657   2.217
 2151TIP3    H2 6399   8.034   4.622   2.149
 2152TIP3   OH2 6400   4.696   5.576   1.927
 2152TIP3    H1 6401   4.748   5.554   1.849
 2152TIP3    H2 6402   4.618   5.521   1.920
 2153TIP3   OH2 6403   6.317   1.225   1.684
 2153TIP3    H1 6404   6.271   1.210   1.602
 2153TIP3    H2 6405   6.399   1.175   1.676
 2154TIP3   OH2 6406   1.565   4.502   6.227
 2154TIP3    H1 6407   1.507   4.483   6.154
 2154TIP3    H2 6408   1.521   4.572   6.276
 2155TIP3   OH2 6409   5.170   5.197   2.251
 2155TIP3    H1 6410   5.191   5.289   2.272
 2155TIP3    H2 6411   5.088   5.180   2.295
 2156TIP3   OH2 6412   8.127   2.887   1.209
 2156TIP3    H1 6413   8.151   2.933   1.129
 2156TIP3    H2 6414   8.051   2.833   1.184
 2157TIP3   OH2 6415   2.797   1.941   3.731
 2157TIP3    H1 6416   2.735   1.900   3.671
 2157TIP3    H2 6417   2.835   2.013   3.680
 2158TIP3   OH2 6418   2.208   1.287   1.358
 2158TIP3    H1 6419   2.222   1.192   1.356
 2158TIP3    H2 6420   2.289   1.322   1.394
 2159TIP3   OH2 6421   6.788   4.824   4.808
 2159TIP3    H1 6422   6.871   4.864   4.782
 2159TIP3    H2 6423   6.786   4.740   4.762
 2160TIP3   OH2 6424   5.868   7.734   4.762
 2160TIP3    H1 6425   5.917   7.655   4.737
 2160TIP3    H2 6426   5.816   7.707   4.838
 2161TIP3   OH2 6427   5.426   2.979   0.488
 2161TIP3    H1 6428   5.438   2.888   0.517
 2161TIP3    H2 6429   5.363   2.973   0.416
 2162TIP3   OH2 6430   5.274   1.403   3.161
 2162TIP3    H1 6431   5.212   1.399   3.089
 2162TIP3    H2 6432   5.307   1.492   3.159
 2163TIP3   OH2 6433   0.239   4.666   5.803
 2163TIP3    H1 6434   0.209   4.606   5.735
 2163TIP3    H2 6435   0.273   4.610   5.872
 2164TIP3   OH2 6436   2.957   1.353   2.252
 2164TIP3    H1 6437   2.940   1.416   2.182
 2164TIP3    H2 6438   3.052   1.344   2.255
 2165TIP3   OH2 6439   7.448   0.118   0.524
 2165TIP3    H1 6440   7.380   0.063   0.484
 2165TIP3    H2 6441   7.501   0.056   0.575
 2166TIP3   OH2 6442   3.533   4.490   4.134
 2166TIP3    H1 6443   3.528   4.510   4.227
 2166TIP3    H2 6444   3.562   4.572   4.093
 2167TIP3   OH2 6445   7.575   0.752   5.369
 2167TIP3    H1 6446   7.540   0.664   5.358
 2167TIP3    H2 6447   7.657   0.752   5.319
 2168TIP3   OH2 6448   1.115   4.023   0.143
 2168TIP3    H1 6449   1.134   3.999   0.233
 2168TIP3    H2 6450   1.027   4.060   0.145
 2169TIP3   OH2 6451   1.586   4.831   0.229
 2169TIP3    H1 6452   1.614   4.923   0.225
 2169TIP3    H2 6453   1.628   4.797   0.307
 2170TIP3   OH2 6454   4.773   7.789   1.309
 2170TIP3    H1 6455   4.802   7.706   1.347
 2170TIP3    H2 6456   4.809   7.855   1.367
 2171TIP3   OH2 6457   3.077   2.102   5.406
 2171TIP3    H1 6458   3.150   2.067   5.456
 2171TIP3    H2 6459   3.093   2.197   5.404
 2172TIP3   OH2 6460   5.218   6.517   0.475
 2172TIP3    H1 6461   5.126   6.498   0.455
 2172TIP3    H2 6462   5.268   6.464   0.412
 2173TIP3   OH2 6463   4.318   7.223   4.763
 2173TIP3    H1 6464   4.322   7.156   4.832
 2173TIP3    H2 6465   4.225   7.228   4.740
 2174TIP3   OH2 6466   2.339   0.107   5.622
 2174TIP3    H1 6467   2.283   0.093   5.545
 2174TIP3    H2 6468   2.279   0.106   5.696
 2175TIP3   OH2 6469   4.363   5.752   6.588
 2175TIP3    H1 6470   4.354   5.685   6.655
 2175TIP3    H2 6471   4.280   5.799   6.590
 2176TIP3   OH2 6472   6.820   5.691   6.510
 2176TIP3    H1 6473   6.821   5.659   6.420
 2176TIP3    H2 6474   6.911   5.686   6.539
 2177TIP3   OH2 6475   3.474   4.338   3.909
 2177TIP3    H1 6476   3.475   4.394   3.987
 2177TIP3    H2 6477   3.563   4.346   3.874
 2178TIP3   OH2 6478   1.770   7.333   4.366
 2178TIP3    H1 6479   1.731   7.417   4.341
 2178TIP3    H2 6480   1.818   7.305   4.289
 2179TIP3   OH2 6481   5.020   1.453   4.602
 2179TIP3    H1 6482   4.988   1.402   4.528
 2179TIP3    H2 6483   5.015   1.393   4.676
 2180TIP3   OH2 6484   6.709   1.217   3.575
 2180TIP3    H1 6485   6.684   1.239   3.485
 2180TIP3    H2 6486   6.741   1.128   3.570
 2181TIP3   OH2 6487   3.042   0.901   2.165
 2181TIP3    H1 6488   3.021   0.990   2.137
 2181TIP3    H2 6489   2.975   0.847   2.124
 2182TIP3   OH2 6490   7.015   5.579   1.130
 2182TIP3    H1 6491   6.977   5.666   1.139
 2182TIP3    H2 6492   7.107   5.595   1.106
 2183TIP3   OH2 6493   5.004   7.586   5.596
 2183TIP3    H1 6494   5.097   7.589   5.619
 2183TIP3    H2 6495   5.003   7.580   5.501
 2184TIP3   OH2 6496   2.491   5.647   0.564
 2184TIP3    H1 6497   2.411   5.596   0.577
 2184TIP3    H2 6498   2.535   5.605   0.491
 2185TIP3   OH2 6499   3.920   4.387   3.508
 2185TIP3    H1 6500   3.958   4.319   3.452
 2185TIP3    H2 6501   3.877   4.338   3.579
 2186TIP3   OH2 6502   7.626   3.610   0.271
 2186TIP3    H1 6503   7.590   3.522   0.256
 2186TIP3    H2 6504   7.714   3.606   0.234
 2187TIP3   OH2 6505   2.088   1.233   4.135
 2187TIP3    H1 6506   2.025   1.305   4.133
 2187TIP3    H2 6507   2.035   1.156   4.157
 2188TIP3   OH2 6508   0.062   6.976   3.821
 2188TIP3    H1 6509   0.038   6.986   3.913
 2188TIP3    H2 6510  -0.005   6.918   3.785
 2189TIP3   OH2 6511   3.103   7.475   4.934
 2189TIP3    H1 6512   3.098   7.533   5.010
 2189TIP3    H2 6513   3.059   7.395   4.963
 2190TIP3   OH2 6514   5.486   2.327   0.118
 2190TIP3    H1 6515   5.392   2.345   0.129
 2190TIP3    H2 6516   5.490   2.275   0.037
 2191TIP3   OH2 6517   4.504   2.410   1.399
 2191TIP3    H1 6518   4.482   2.415   1.306
 2191TIP3    H2 6519   4.467   2.327   1.428
 2192TIP3   OH2 6520   8.264   0.084   5.681
 2192TIP3    H1 6521   8.232   0.041   5.602
 2192TIP3    H2 6522   8.194   0.072   5.745
 2193TIP3   OH2 6523   6.149   6.783   4.548
 2193TIP3    H1 6524   6.244   6.782   4.556
 2193TIP3    H2 6525   6.120   6.849   4.611
 2194TIP3   OH2 6526   4.484   5.777   6.149
 2194TIP3    H1 6527   4.442   5.847   6.200
 2194TIP3    H2 6528   4.511   5.820   6.068
 2195TIP3   OH2 6529   0.824   0.223   4.618
 2195TIP3    H1 6530   0.916   0.203   4.604
 2195TIP3    H2 6531   0.793   0.257   4.534
 2196TIP3   OH2 6532   4.616   1.416   2.601
 2196TIP3    H1 6533   4.599   1.452   2.688
 2196TIP3    H2 6534   4.586   1.483   2.540
 2197TIP3   OH2 6535   0.436   5.802   2.022
 2197TIP3    H1 6536   0.402   5.741   1.956
 2197TIP3    H2 6537   0.519   5.833   1.986
 2198TIP3   OH2 6538   6.851   4.893   5.261
 2198TIP3    H1 6539   6.782   4.952   5.292
 2198TIP3    H2 6540   6.890   4.858   5.341
 2199TIP3   OH2 6541   2.118   0.029   6.467
 2199TIP3    H1 6542   2.056   0.100   6.483
 2199TIP3    H2 6543   2.199   0.073   6.439
 2200TIP3   OH2 6544   2.205   4.500   3.989
 2200TIP3    H1 6545   2.166   4.414   3.978
 2200TIP3    H2 6546   2.213   4.535   3.900
 2201TIP3   OH2 6547   0.185   1.706   5.088
 2201TIP3    H1 6548   0.249   1.774   5.068
 2201TIP3    H2 6549   0.131   1.744   5.158
 2202TIP3   OH2 6550   5.385   3.015   6.214
 2202TIP3    H1 6551   5.409   3.024   6.122
 2202TIP3    H2 6552   5.460   2.970   6.254
 2203TIP3   OH2 6553   4.475   3.784   2.365
 2203TIP3    H1 6554   4.462   3.832   2.283
 2203TIP3    H2 6555   4.496   3.695   2.337
 2204TIP3   OH2 6556   0.934   1.033   4.928
 2204TIP3    H1 6557   0.905   1.116   4.889
 2204TIP3    H2 6558   0.856   0.978   4.927
 2205TIP3   OH2 6559   4.196   4.435   1.621
 2205TIP3    H1 6560   4.277   4.485   1.628
 2205TIP3    H2 6561   4.225   4.343   1.618
 2206TIP3   OH2 6562   5.784   1.213   0.781
 2206TIP3    H1 6563   5.772   1.198   0.875
 2206TIP3    H2 6564   5.821   1.301   0.775
 2207TIP3   OH2 6565   8.251   0.518   0.212
 2207TIP3    H1 6566   8.340   0.486   0.196
 2207TIP3    H2 6567   8.258   0.613   0.206
 2208TIP3   OH2 6568   2.875   5.218   4.376
 2208TIP3    H1 6569   2.795   5.248   4.419
 2208TIP3    H2 6570   2.894   5.134   4.418
 2209TIP3   OH2 6571   2.155   0.688   4.673
 2209TIP3    H1 6572   2.082   0.635   4.704
 2209TIP3    H2 6573   2.170   0.751   4.743
 2210TIP3   OH2 6574   8.053   4.989   6.012
 2210TIP3    H1 6575   8.070   5.007   5.920
 2210TIP3    H2 6576   7.971   5.035   6.031
 2211TIP3   OH2 6577   6.697   7.321   2.735
 2211TIP3    H1 6578   6.758   7.395   2.735
 2211TIP3    H2 6579   6.730   7.263   2.666
 2212TIP3   OH2 6580   2.920   0.096   3.825
 2212TIP3    H1 6581   2.941   0.174   3.877
 2212TIP3    H2 6582   2.828   0.108   3.800
 2213TIP3   OH2 6583   1.674   2.773   2.054
 2213TIP3    H1 6584   1.659   2.761   1.961
 2213TIP3    H2 6585   1.590   2.754   2.096
 2214TIP3   OH2 6586   7.786   4.725   1.435
 2214TIP3    H1 6587   7.797   4.813   1.471
 2214TIP3    H2 6588   7.842   4.723   1.357
 2215TIP3   OH2 6589   3.085   5.995   4.963
 2215TIP3    H1 6590   3.041   6.061   5.017
 2215TIP3    H2 6591   3.027   5.984   4.887
 2216TIP3   OH2 6592   5.473   5.058   3.639
 2216TIP3    H1 6593   5.436   5.106   3.565
 2216TIP3    H2 6594   5.568   5.058   3.622
 2217TIP3   OH2 6595   7.936   0.468   4.725
 2217TIP3    H1 6596   7.922   0.532   4.795
 2217TIP3    H2 6597   7.917   0.383   4.765
 2218TIP3   OH2 6598   7.824   1.011   4.293
 2218TIP3    H1 6599   7.805   0.919   4.274
 2218TIP3    H2 6600   7.901   1.031   4.240
 2219TIP3   OH2 6601   2.519   4.573   5.945
 2219TIP3    H1 6602   2.552   4.648   5.896
 2219TIP3    H2 6603   2.427   4.594   5.964
 2220TIP3   OH2 6604   2.654   0.180   2.653
 2220TIP3    H1 6605   2.747   0.199   2.636
 2220TIP3    H2 6606   2.651   0.162   2.747
 2221TIP3   OH2 6607   3.039   0.384   1.575
 2221TIP3    H1 6608   3.030   0.405   1.482
 2221TIP3    H2 6609   2.995   0.455   1.621
 2222TIP3   OH2 6610   2.139   2.377   0.385
 2222TIP3    H1 6611   2.139   2.471   0.367
 2222TIP3    H2 6612   2.195   2.367   0.462
 2223TIP3   OH2 6613   4.246   5.431   0.802
 2223TIP3    H1 6614   4.279   5.486   0.731
 2223TIP3    H2 6615   4.309   5.444   0.873
 2224TIP3   OH2 6616   1.625   4.119   6.577
 2224TIP3    H1 6617   1.624   4.102   6.483
 2224TIP3    H2 6618   1.700   4.177   6.590
 2225TIP3   OH2 6619   1.422   5.049   6.439
 2225TIP3    H1 6620   1.350   5.112   6.439
 2225TIP3    H2 6621   1.477   5.075   6.366
 2226TIP3   OH2 6622   6.580   1.166   2.870
 2226TIP3    H1 6623   6.656   1.203   2.825
 2226TIP3    H2 6624   6.538   1.109   2.805
 2227TIP3   OH2 6625   5.844   7.357   3.248
 2227TIP3    H1 6626   5.881   7.346   3.161
 2227TIP3    H2 6627   5.750   7.351   3.236
 2228TIP3   OH2 6628   5.860   7.529   0.470
 2228TIP3    H1 6629   5.839   7.512   0.562
 2228TIP3    H2 6630   5.832   7.620   0.456
 2229TIP3   OH2 6631   0.090   1.477   4.940
 2229TIP3    H1 6632   0.001   1.507   4.922
 2229TIP3    H2 6633   0.136   1.554   4.971
 2230TIP3   OH2 6634   4.329   2.211   1.885
 2230TIP3    H1 6635   4.361   2.298   1.859
 2230TIP3    H2 6636   4.295   2.173   1.804
 2231TIP3   OH2 6637   3.524   0.322   4.720
 2231TIP3    H1 6638   3.584   0.248   4.719
 2231TIP3    H2 6639   3.510   0.340   4.813
 2232TIP3   OH2 6640   8.171   6.944   5.834
 2232TIP3    H1 6641   8.144   7.010   5.770
 2232TIP3    H2 6642   8.118   6.963   5.912
 2233TIP3   OH2 6643   7.936   7.341   6.457
 2233TIP3    H1 6644   7.944   7.303   6.370
 2233TIP3    H2 6645   7.911   7.267   6.513
 2234TIP3   OH2 6646   5.346   4.028   0.238
 2234TIP3    H1 6647   5.424   3.978   0.261
 2234TIP3    H2 6648   5.304   3.977   0.168
 2235TIP3   OH2 6649   2.295   5.447   3.503
 2235TIP3    H1 6650   2.310   5.533   3.543
 2235TIP3    H2 6651   2.352   5.446   3.426
 2236TIP3   OH2 6652   7.234   2.124   4.090
 2236TIP3    H1 6653   7.302   2.184   4.122
 2236TIP3    H2 6654   7.283   2.055   4.046
 2237TIP3   OH2 6655   7.832   5.916   1.480
 2237TIP3    H1 6656   7.885   5.972   1.536
 2237TIP3    H2 6657   7.883   5.836   1.470
 2238TIP3   OH2 6658   3.716   5.972  -0.014
 2238TIP3    H1 6659   3.760   5.935   0.063
 2238TIP3    H2 6660   3.651   5.907  -0.039
 2239TIP3   OH2 6661   0.125   0.587   4.975
 2239TIP3    H1 6662   0.215   0.558   4.957
 2239TIP3    H2 6663   0.070   0.529   4.922
 2240TIP3   OH2 6664   0.612   7.279   3.633
 2240TIP3    H1 6665   0.598   7.196   3.679
 2240TIP3    H2 6666   0.534   7.330   3.652
 2241TIP3   OH2 6667   7.816   7.167   0.293
 2241TIP3    H1 6668   7.853   7.249   0.326
 2241TIP3    H2 6669   7.736   7.193   0.249
 2242TIP3   OH2 6670   0.540   6.861   5.190
 2242TIP3    H1 6671   0.499   6.813   5.262
 2242TIP3    H2 6672   0.596   6.925   5.233
 2243TIP3   OH2 6673   1.147   5.329   5.855
 2243TIP3    H1 6674   1.122   5.317   5.764
 2243TIP3    H2 6675   1.080   5.388   5.890
 2244TIP3   OH2 6676   7.945   7.316   2.134
 2244TIP3    H1 6677   7.947   7.387   2.070
 2244TIP3    H2 6678   8.023   7.329   2.188
 2245TIP3   OH2 6679   6.984   1.944   4.827
 2245TIP3    H1 6680   6.952   1.960   4.739
 2245TIP3    H2 6681   6.909   1.961   4.884
 2246TIP3   OH2 6682   6.758   0.764   2.146
 2246TIP3    H1 6683   6.694   0.832   2.128
 2246TIP3    H2 6684   6.734   0.731   2.233
 2247TIP3   OH2 6685   3.488   7.033   1.109
 2247TIP3    H1 6686   3.471   6.939   1.103
 2247TIP3    H2 6687   3.578   7.043   1.078
 2248TIP3   OH2 6688   7.453   2.645   2.640
 2248TIP3    H1 6689   7.376   2.632   2.585
 2248TIP3    H2 6690   7.504   2.565   2.630
 2249TIP3   OH2 6691   4.109   4.727   2.365
 2249TIP3    H1 6692   4.086   4.812   2.402
 2249TIP3    H2 6693   4.179   4.694   2.420
 2250TIP3   OH2 6694   2.263   1.693   0.373
 2250TIP3    H1 6695   2.280   1.759   0.440
 2250TIP3    H2 6696   2.350   1.673   0.337
 2251TIP3   OH2 6697   1.446   0.170   0.281
 2251TIP3    H1 6698   1.476   0.099   0.224
 2251TIP3    H2 6699   1.409   0.235   0.222
 2252TIP3   OH2 6700   7.694   1.868   1.942
 2252TIP3    H1 6701   7.768   1.808   1.951
 2252TIP3    H2 6702   7.652   1.867   2.028
 2253TIP3   OH2 6703   1.352   6.474   2.674
 2253TIP3    H1 6704   1.404   6.401   2.707
 2253TIP3    H2 6705   1.393   6.552   2.710
 2254TIP3   OH2 6706   0.193   0.891   1.312
 2254TIP3    H1 6707   0.276   0.932   1.285
 2254TIP3    H2 6708   0.134   0.964   1.327
 2255TIP3   OH2 6709   5.261   0.592   6.287
 2255TIP3    H1 6710   5.269   0.628   6.376
 2255TIP3    H2 6711   5.246   0.498   6.300
 2256TIP3   OH2 6712   5.335   7.352   0.462
 2256TIP3    H1 6713   5.416   7.395   0.437
 2256TIP3    H2 6714   5.334   7.356   0.558
 2257TIP3   OH2 6715   7.831   0.549   0.119
 2257TIP3    H1 6716   7.881   0.480   0.162
 2257TIP3    H2 6717   7.740   0.527   0.137
 2258TIP3   OH2 6718   4.413   0.208   2.005
 2258TIP3    H1 6719   4.404   0.117   2.033
 2258TIP3    H2 6720   4.362   0.258   2.068
 2259TIP3   OH2 6721   3.312   0.843   2.410
 2259TIP3    H1 6722   3.241   0.899   2.443
 2259TIP3    H2 6723   3.358   0.899   2.346
 2260TIP3   OH2 6724   4.055   6.100   1.890
 2260TIP3    H1 6725   4.072   6.188   1.857
 2260TIP3    H2 6726   4.078   6.043   1.816
 2261TIP3   OH2 6727   1.361   4.523   5.115
 2261TIP3    H1 6728   1.431   4.516   5.050
 2261TIP3    H2 6729   1.312   4.600   5.090
 2262TIP3   OH2 6730   8.088   4.463   0.422
 2262TIP3    H1 6731   8.144   4.540   0.424
 2262TIP3    H2 6732   8.146   4.392   0.393
 2263TIP3   OH2 6733   3.298   0.733   5.297
 2263TIP3    H1 6734   3.365   0.773   5.353
 2263TIP3    H2 6735   3.218   0.737   5.349
 2264TIP3   OH2 6736   5.229   3.560   1.131
 2264TIP3    H1 6737   5.291   3.511   1.185
 2264TIP3    H2 6738   5.222   3.510   1.050
 2265TIP3   OH2 6739   0.190   6.314   4.149
 2265TIP3    H1 6740   0.160   6.340   4.062
 2265TIP3    H2 6741   0.110   6.286   4.194
 2266TIP3   OH2 6742   1.238   2.894   5.775
 2266TIP3    H1 6743   1.304   2.931   5.716
 2266TIP3    H2 6744   1.287   2.872   5.854
 2267TIP3   OH2 6745   4.182   6.559   4.722
 2267TIP3    H1 6746   4.147   6.625   4.782
 2267TIP3    H2 6747   4.253   6.517   4.771
 2268TIP3   OH2 6748   6.434   1.629   0.575
 2268TIP3    H1 6749   6.383   1.580   0.639
 2268TIP3    H2 6750   6.390   1.613   0.492
 2269TIP3   OH2 6751   6.581   1.272   0.490
 2269TIP3    H1 6752   6.591   1.301   0.400
 2269TIP3    H2 6753   6.664   1.292   0.532
 2270TIP3   OH2 6754   3.239   4.413   3.237
 2270TIP3    H1 6755   3.209   4.391   3.326
 2270TIP3    H2 6756   3.312   4.353   3.221
 2271TIP3   OH2 6757   5.719   4.462   3.790
 2271TIP3    H1 6758   5.687   4.550   3.768
 2271TIP3    H2 6759   5.792   4.478   3.850
 2272TIP3   OH2 6760   5.958   3.819   6.603
 2272TIP3    H1 6761   6.011   3.888   6.645
 2272TIP3    H2 6762   6.022   3.755   6.573
 2273TIP3   OH2 6763   2.037   6.774   6.719
 2273TIP3    H1 6764   2.025   6.780   6.624
 2273TIP3    H2 6765   2.132   6.769   6.730
 2274TIP3   OH2 6766   6.401   1.788   5.907
 2274TIP3    H1 6767   6.333   1.820   5.966
 2274TIP3    H2 6768   6.379   1.697   5.892
 2275TIP3   OH2 6769   5.166   2.525   2.213
 2275TIP3    H1 6770   5.100   2.586   2.180
 2275TIP3    H2 6771   5.130   2.438   2.194
 2276TIP3   OH2 6772   3.937   5.986   4.382
 2276TIP3    H1 6773   3.950   5.901   4.424
 2276TIP3    H2 6774   4.025   6.015   4.359
 2277TIP3   OH2 6775   4.431   1.138   1.630
 2277TIP3    H1 6776   4.388   1.104   1.709
 2277TIP3    H2 6777   4.478   1.062   1.595
 2278TIP3   OH2 6778   3.682   4.943   2.755
 2278TIP3    H1 6779   3.752   4.930   2.820
 2278TIP3    H2 6780   3.699   5.030   2.719
 2279TIP3   OH2 6781   3.539   5.676   2.307
 2279TIP3    H1 6782   3.594   5.626   2.367
 2279TIP3    H2 6783   3.589   5.678   2.225
 2280TIP3   OH2 6784   5.307   2.250   0.473
 2280TIP3    H1 6785   5.212   2.244   0.468
 2280TIP3    H2 6786   5.328   2.336   0.436
 2281TIP3   OH2 6787   3.476   5.442   6.566
 2281TIP3    H1 6788   3.487   5.524   6.517
 2281TIP3    H2 6789   3.391   5.452   6.610
 2282TIP3   OH2 6790   4.780   6.463   2.156
 2282TIP3    H1 6791   4.866   6.449   2.117
 2282TIP3    H2 6792   4.796   6.524   2.228
 2283TIP3   OH2 6793   0.178   5.479   4.985
 2283TIP3    H1 6794   0.084   5.482   5.002
 2283TIP3    H2 6795   0.200   5.386   4.991
 2284TIP3   OH2 6796   0.403   0.073   1.590
 2284TIP3    H1 6797   0.438   0.043   1.507
 2284TIP3    H2 6798   0.348   0.001   1.621
 2285TIP3   OH2 6799   2.363   5.885   1.432
 2285TIP3    H1 6800   2.424   5.926   1.371
 2285TIP3    H2 6801   2.334   5.957   1.488
 2286TIP3   OH2 6802   5.327   7.250   4.928
 2286TIP3    H1 6803   5.246   7.259   4.979
 2286TIP3    H2 6804   5.306   7.289   4.843
 2287TIP3   OH2 6805   0.031   1.026   2.304
 2287TIP3    H1 6806   0.051   0.992   2.217
 2287TIP3    H2 6807   0.108   1.080   2.327
 2288TIP3   OH2 6808   3.766   7.625   5.645
 2288TIP3    H1 6809   3.734   7.537   5.627
 2288TIP3    H2 6810   3.749   7.638   5.739
 2289TIP3   OH2 6811   4.462   6.419   4.473
 2289TIP3    H1 6812   4.495   6.387   4.389
 2289TIP3    H2 6813   4.403   6.350   4.504
 2290TIP3   OH2 6814   3.726   3.238   5.661
 2290TIP3    H1 6815   3.707   3.163   5.718
 2290TIP3    H2 6816   3.659   3.233   5.593
 2291TIP3   OH2 6817   6.553   6.796   3.675
 2291TIP3    H1 6818   6.634   6.759   3.640
 2291TIP3    H2 6819   6.507   6.721   3.713
 2292TIP3   OH2 6820   6.309   3.455   3.903
 2292TIP3    H1 6821   6.260   3.533   3.877
 2292TIP3    H2 6822   6.394   3.465   3.860
 2293TIP3   OH2 6823   1.112   4.742   2.564
 2293TIP3    H1 6824   1.151   4.670   2.514
 2293TIP3    H2 6825   1.099   4.812   2.500
 2294TIP3   OH2 6826   4.036   3.716   3.751
 2294TIP3    H1 6827   4.018   3.623   3.738
 2294TIP3    H2 6828   3.971   3.761   3.698
 2295TIP3   OH2 6829   5.188   4.297   0.564
 2295TIP3    H1 6830   5.276   4.265   0.587
 2295TIP3    H2 6831   5.169   4.255   0.480
 2296TIP3   OH2 6832   2.496   0.059   3.690
 2296TIP3    H1 6833   2.546   0.140   3.687
 2296TIP3    H2 6834   2.554  -0.007   3.655
 2297TIP3   OH2 6835   3.862   2.611   4.628
 2297TIP3    H1 6836   3.777   2.649   4.603
 2297TIP3    H2 6837   3.877   2.645   4.716
 2298TIP3   OH2 6838   6.694   4.716   6.263
 2298TIP3    H1 6839   6.627   4.687   6.325
 2298TIP3    H2 6840   6.776   4.709   6.312
 2299TIP3   OH2 6841   2.877   5.217   3.688
 2299TIP3    H1 6842   2.866   5.254   3.601
 2299TIP3    H2 6843   2.876   5.122   3.675
 2300TIP3   OH2 6844   7.972   4.962   1.394
 2300TIP3    H1 6845   8.021   4.925   1.467
 2300TIP3    H2 6846   8.038   4.986   1.329
 2301TIP3   OH2 6847   1.999   2.711   3.368
 2301TIP3    H1 6848   1.906   2.732   3.369
 2301TIP3    H2 6849   2.008   2.646   3.298
 2302TIP3   OH2 6850   0.121   1.214   5.029
 2302TIP3    H1 6851   0.056   1.191   5.095
 2302TIP3    H2 6852   0.108   1.308   5.013
 2303TIP3   OH2 6853   4.979   7.154   2.553
 2303TIP3    H1 6854   5.015   7.165   2.642
 2303TIP3    H2 6855   4.925   7.232   2.540
 2304TIP3   OH2 6856   0.689   5.465   2.768
 2304TIP3    H1 6857   0.779   5.444   2.742
 2304TIP3    H2 6858   0.697   5.545   2.819
 2305TIP3   OH2 6859   2.140   5.985   5.782
 2305TIP3    H1 6860   2.198   6.037   5.838
 2305TIP3    H2 6861   2.064   6.042   5.767
 2306TIP3   OH2 6862   7.618   4.712   5.270
 2306TIP3    H1 6863   7.608   4.781   5.204
 2306TIP3    H2 6864   7.699   4.734   5.315
 2307TIP3   OH2 6865   3.068   3.083   0.377
 2307TIP3    H1 6866   3.005   3.119   0.440
 2307TIP3    H2 6867   3.112   3.013   0.425
 2308TIP3   OH2 6868   3.673   5.395   1.926
 2308TIP3    H1 6869   3.604   5.331   1.906
 2308TIP3    H2 6870   3.646   5.474   1.879
 2309TIP3   OH2 6871   4.352   5.490   2.938
 2309TIP3    H1 6872   4.287   5.506   2.869
 2309TIP3    H2 6873   4.397   5.411   2.910
 2310TIP3   OH2 6874   2.164   2.456   4.049
 2310TIP3    H1 6875   2.121   2.506   3.980
 2310TIP3    H2 6876   2.095   2.439   4.113
 2311TIP3   OH2 6877   2.544   0.079   4.773
 2311TIP3    H1 6878   2.601   0.021   4.824
 2311TIP3    H2 6879   2.603   0.131   4.720
 2312TIP3   OH2 6880   5.192   5.411   3.310
 2312TIP3    H1 6881   5.130   5.481   3.327
 2312TIP3    H2 6882   5.255   5.448   3.248
 2313TIP3   OH2 6883   4.538   6.689   2.472
 2313TIP3    H1 6884   4.518   6.739   2.551
 2313TIP3    H2 6885   4.633   6.681   2.472
 2314TIP3   OH2 6886   5.838   5.813   4.628
 2314TIP3    H1 6887   5.921   5.778   4.595
 2314TIP3    H2 6888   5.788   5.835   4.549
 2315TIP3   OH2 6889   2.261   3.631   6.517
 2315TIP3    H1 6890   2.213   3.636   6.435
 2315TIP3    H2 6891   2.313   3.550   6.509
 2316TIP3   OH2 6892   2.927   0.774   3.903
 2316TIP3    H1 6893   2.910   0.849   3.846
 2316TIP3    H2 6894   2.937   0.812   3.991
 2317TIP3   OH2 6895   1.648   1.552   1.037
 2317TIP3    H1 6896   1.701   1.622   0.999
 2317TIP3    H2 6897   1.706   1.477   1.041
 2318TIP3   OH2 6898   0.271   4.470   5.990
 2318TIP3    H1 6899   0.182   4.473   6.025
 2318TIP3    H2 6900   0.317   4.408   6.048
 2319TIP3   OH2 6901   3.029   6.180   2.152
 2319TIP3    H1 6902   3.019   6.268   2.115
 2319TIP3    H2 6903   2.963   6.127   2.107
 2320TIP3   OH2 6904   7.907   6.633   5.377
 2320TIP3    H1 6905   7.997   6.663   5.362
 2320TIP3    H2 6906   7.898   6.630   5.472
 2321TIP3   OH2 6907   6.864   0.411   0.312
 2321TIP3    H1 6908   6.916   0.395   0.233
 2321TIP3    H2 6909   6.912   0.479   0.360
 2322TIP3   OH2 6910   8.299   2.344   4.876
 2322TIP3    H1 6911   8.238   2.396   4.823
 2322TIP3    H2 6912   8.294   2.384   4.963
 2323TIP3   OH2 6913   7.437   0.406   3.074
 2323TIP3    H1 6914   7.503   0.360   3.127
 2323TIP3    H2 6915   7.353   0.373   3.106
 2324TIP3   OH2 6916   6.930   6.288   5.455
 2324TIP3    H1 6917   6.969   6.361   5.408
 2324TIP3    H2 6918   6.999   6.221   5.457
 2325TIP3   OH2 6919   0.793   6.096   0.435
 2325TIP3    H1 6920   0.855   6.072   0.367
 2325TIP3    H2 6921   0.840   6.159   0.489
 2326TIP3   OH2 6922   0.486   5.583   3.516
 2326TIP3    H1 6923   0.537   5.511   3.552
 2326TIP3    H2 6924   0.426   5.542   3.454
 2327TIP3   OH2 6925   4.734   2.099   5.541
 2327TIP3    H1 6926   4.692   2.037   5.601
 2327TIP3    H2 6927   4.676   2.100   5.464
 2328TIP3   OH2 6928   1.989   3.265   5.748
 2328TIP3    H1 6929   2.081   3.285   5.731
 2328TIP3    H2 6930   1.968   3.314   5.827
 2329TIP3   OH2 6931   1.985   7.545   6.312
 2329TIP3    H1 6932   1.983   7.635   6.281
 2329TIP3    H2 6933   1.980   7.552   6.407
 2330TIP3   OH2 6934   5.605   2.502   2.370
 2330TIP3    H1 6935   5.652   2.469   2.293
 2330TIP3    H2 6936   5.671   2.553   2.417
 2331TIP3   OH2 6937   6.727   0.403   3.317
 2331TIP3    H1 6938   6.660   0.391   3.384
 2331TIP3    H2 6939   6.785   0.327   3.327
 2332TIP3   OH2 6940   7.392   1.267   3.356
 2332TIP3    H1 6941   7.390   1.190   3.299
 2332TIP3    H2 6942   7.485   1.284   3.370
 2333TIP3   OH2 6943   7.952   4.826   4.596
 2333TIP3    H1 6944   7.998   4.843   4.514
 2333TIP3    H2 6945   7.934   4.913   4.632
 2334TIP3   OH2 6946   1.391   2.444   3.125
 2334TIP3    H1 6947   1.461   2.445   3.190
 2334TIP3    H2 6948   1.415   2.374   3.064
 2335TIP3   OH2 6949   1.260   4.538   4.802
 2335TIP3    H1 6950   1.284   4.448   4.825
 2335TIP3    H2 6951   1.217   4.572   4.881
 2336TIP3   OH2 6952   1.148   1.507   2.183
 2336TIP3    H1 6953   1.103   1.428   2.153
 2336TIP3    H2 6954   1.117   1.576   2.125
 2337TIP3   OH2 6955   0.978   7.445   5.818
 2337TIP3    H1 6956   0.903   7.398   5.781
 2337TIP3    H2 6957   1.049   7.381   5.818
 2338TIP3   OH2 6958   6.826   2.811   4.203
 2338TIP3    H1 6959   6.821   2.872   4.130
 2338TIP3    H2 6960   6.800   2.863   4.279
 2339TIP3   OH2 6961   4.714   3.947   5.845
 2339TIP3    H1 6962   4.681   3.870   5.892
 2339TIP3    H2 6963   4.672   3.941   5.759
 2340TIP3   OH2 6964   7.798   1.369   6.747
 2340TIP3    H1 6965   7.839   1.355   6.661
 2340TIP3    H2 6966   7.721   1.313   6.747
 2341TIP3   OH2 6967   3.894   1.300   4.114
 2341TIP3    H1 6968   3.981   1.277   4.081
 2341TIP3    H2 6969   3.873   1.230   4.175
 2342TIP3   OH2 6970   2.755   5.251   0.421
 2342TIP3    H1 6971   2.819   5.196   0.467
 2342TIP3    H2 6972   2.732   5.200   0.343
 2343TIP3   OH2 6973   2.871   0.704   6.310
 2343TIP3    H1 6974   2.912   0.777   6.263
 2343TIP3    H2 6975   2.884   0.725   6.402
 2344TIP3   OH2 6976   7.408   6.256   4.461
 2344TIP3    H1 6977   7.455   6.337   4.439
 2344TIP3    H2 6978   7.316   6.283   4.467
 2345TIP3   OH2 6979   7.903   6.708   6.700
 2345TIP3    H1 6980   7.899   6.736   6.791
 2345TIP3    H2 6981   7.873   6.784   6.650
 2346TIP3   OH2 6982   6.048   2.878   3.180
 2346TIP3    H1 6983   5.953   2.879   3.195
 2346TIP3    H2 6984   6.075   2.969   3.195
 2347TIP3   OH2 6985   1.142   1.201   5.081
 2347TIP3    H1 6986   1.084   1.185   5.007
 2347TIP3    H2 6987   1.148   1.116   5.125
 2348TIP3   OH2 6988   4.151   1.194   6.028
 2348TIP3    H1 6989   4.238   1.189   6.067
 2348TIP3    H2 6990   4.117   1.104   6.032
 2349TIP3   OH2 6991   4.838   4.386   5.121
 2349TIP3    H1 6992   4.915   4.382   5.065
 2349TIP3    H2 6993   4.792   4.466   5.094
 2350TIP3   OH2 6994   4.542   7.128   1.383
 2350TIP3    H1 6995   4.602   7.066   1.342
 2350TIP3    H2 6996   4.455   7.095   1.360
 2351TIP3   OH2 6997   0.767   0.233   1.750
 2351TIP3    H1 6998   0.861   0.234   1.733
 2351TIP3    H2 6999   0.729   0.191   1.673
 2352TIP3   OH2 7000   1.117   3.579   5.805
 2352TIP3    H1 7001   1.137   3.553   5.715
 2352TIP3    H2 7002   1.188   3.638   5.829
 2353TIP3   OH2 7003   2.421   0.963   6.681
 2353TIP3    H1 7004   2.328   0.987   6.688
 2353TIP3    H2 7005   2.421   0.867   6.684
 2354TIP3   OH2 7006   6.691   6.648   2.979
 2354TIP3    H1 7007   6.743   6.670   3.056
 2354TIP3    H2 7008   6.671   6.732   2.938
 2355TIP3   OH2 7009   6.943   4.315   6.206
 2355TIP3    H1 7010   7.000   4.243   6.232
 2355TIP3    H2 7011   6.904   4.285   6.123
 2356TIP3   OH2 7012   0.793   6.649   6.683
 2356TIP3    H1 7013   0.856   6.583   6.654
 2356TIP3    H2 7014   0.773   6.699   6.603
 2357TIP3   OH2 7015   1.493   7.676   0.725
 2357TIP3    H1 7016   1.421   7.702   0.668
 2357TIP3    H2 7017   1.571   7.686   0.671
 2358TIP3   OH2 7018   2.064   7.269   4.981
 2358TIP3    H1 7019   2.120   7.273   5.058
 2358TIP3    H2 7020   2.122   7.287   4.907
 2359TIP3   OH2 7021   8.302   4.091   2.680
 2359TIP3    H1 7022   8.268   4.172   2.720
 2359TIP3    H2 7023   8.297   4.107   2.586
 2360TIP3   OH2 7024   7.581   1.556   5.348
 2360TIP3    H1 7025   7.569   1.651   5.352
 2360TIP3    H2 7026   7.526   1.522   5.419
 2361TIP3   OH2 7027   1.415   0.744   2.168
 2361TIP3    H1 7028   1.448   0.768   2.255
 2361TIP3    H2 7029   1.377   0.825   2.133
 2362TIP3   OH2 7030   2.591   0.855   2.720
 2362TIP3    H1 7031   2.543   0.775   2.697
 2362TIP3    H2 7032   2.676   0.845   2.678
 2363TIP3   OH2 7033   1.063   6.399   1.633
 2363TIP3    H1 7034   1.146   6.365   1.599
 2363TIP3    H2 7035   1.080   6.491   1.652
 2364TIP3   OH2 7036   3.522   3.600   1.717
 2364TIP3    H1 7037   3.549   3.671   1.659
 2364TIP3    H2 7038   3.532   3.637   1.805
 2365TIP3   OH2 7039   5.453   1.108   2.373
 2365TIP3    H1 7040   5.438   1.189   2.421
 2365TIP3    H2 7041   5.424   1.039   2.433
 2366TIP3   OH2 7042   2.136   3.636   5.562
 2366TIP3    H1 7043   2.078   3.665   5.632
 2366TIP3    H2 7044   2.085   3.572   5.513
 2367TIP3   OH2 7045   0.654   5.546   6.128
 2367TIP3    H1 7046   0.621   5.632   6.100
 2367TIP3    H2 7047   0.737   5.537   6.081
 2368TIP3   OH2 7048   7.921   6.763   0.460
 2368TIP3    H1 7049   7.942   6.856   0.460
 2368TIP3    H2 7050   7.997   6.720   0.499
 2369TIP3   OH2 7051   2.809   0.947   4.577
 2369TIP3    H1 7052   2.755   0.902   4.512
 2369TIP3    H2 7053   2.881   0.984   4.527
 2370TIP3   OH2 7054   6.739   3.122   2.429
 2370TIP3    H1 7055   6.688   3.152   2.505
 2370TIP3    H2 7056   6.687   3.150   2.353
 2371TIP3   OH2 7057   4.492   0.707   1.504
 2371TIP3    H1 7058   4.556   0.651   1.460
 2371TIP3    H2 7059   4.432   0.645   1.546
 2372TIP3   OH2 7060   4.469   3.277   0.668
 2372TIP3    H1 7061   4.385   3.314   0.638
 2372TIP3    H2 7062   4.448   3.235   0.751
 2373TIP3   OH2 7063   8.016   4.017   3.212
 2373TIP3    H1 7064   7.922   4.000   3.216
 2373TIP3    H2 7065   8.056   3.934   3.238
 2374TIP3   OH2 7066   7.767   1.688   6.431
 2374TIP3    H1 7067   7.829   1.686   6.504
 2374TIP3    H2 7068   7.686   1.721   6.471
 2375TIP3   OH2 7069   4.434   1.908   5.213
 2375TIP3    H1 7070   4.488   1.834   5.187
 2375TIP3    H2 7071   4.347   1.888   5.178
 2376TIP3   OH2 7072   2.907   2.362   3.437
 2376TIP3    H1 7073   2.883   2.445   3.477
 2376TIP3    H2 7074   2.926   2.384   3.345
 2377TIP3   OH2 7075   4.089   5.537   3.539
 2377TIP3    H1 7076   4.000   5.512   3.563
 2377TIP3    H2 7077   4.142   5.459   3.557
 2378TIP3   OH2 7078   3.720   5.662   3.904
 2378TIP3    H1 7079   3.638   5.677   3.856
 2378TIP3    H2 7080   3.711   5.574   3.940
 2379TIP3   OH2 7081   0.496   4.559   0.760
 2379TIP3    H1 7082   0.549   4.613   0.700
 2379TIP3    H2 7083   0.440   4.507   0.703
 2380TIP3   OH2 7084   4.650   3.344   6.697
 2380TIP3    H1 7085   4.685   3.326   6.610
 2380TIP3    H2 7086   4.579   3.281   6.708
 2381TIP3   OH2 7087   2.098   3.756   1.505
 2381TIP3    H1 7088   2.156   3.755   1.429
 2381TIP3    H2 7089   2.116   3.841   1.547
 2382TIP3   OH2 7090   3.406   2.630   3.814
 2382TIP3    H1 7091   3.353   2.618   3.893
 2382TIP3    H2 7092   3.482   2.681   3.844
 2383TIP3   OH2 7093   4.529   4.294   0.140
 2383TIP3    H1 7094   4.553   4.263   0.053
 2383TIP3    H2 7095   4.450   4.244   0.162
 2384TIP3   OH2 7096   2.661   6.123   0.263
 2384TIP3    H1 7097   2.654   6.059   0.334
 2384TIP3    H2 7098   2.738   6.176   0.287
 2385TIP3   OH2 7099   6.508   2.030   4.766
 2385TIP3    H1 7100   6.508   1.988   4.680
 2385TIP3    H2 7101   6.452   2.107   4.755
 2386TIP3   OH2 7102   4.548   4.419   2.137
 2386TIP3    H1 7103   4.632   4.455   2.167
 2386TIP3    H2 7104   4.501   4.400   2.218
 2387TIP3   OH2 7105   2.400   6.969   3.784
 2387TIP3    H1 7106   2.442   6.936   3.705
 2387TIP3    H2 7107   2.371   6.891   3.830
 2388TIP3   OH2 7108   8.156   1.715   1.052
 2388TIP3    H1 7109   8.203   1.640   1.090
 2388TIP3    H2 7110   8.150   1.778   1.124
 2389TIP3   OH2 7111   5.420   4.790   5.764
 2389TIP3    H1 7112   5.476   4.849   5.814
 2389TIP3    H2 7113   5.400   4.838   5.684
 2390TIP3   OH2 7114   3.332   2.731   4.468
 2390TIP3    H1 7115   3.338   2.674   4.392
 2390TIP3    H2 7116   3.240   2.726   4.495
 2391TIP3   OH2 7117   3.657   3.563   5.431
 2391TIP3    H1 7118   3.605   3.527   5.359
 2391TIP3    H2 7119   3.621   3.651   5.444
 2392TIP3   OH2 7120   7.315   3.156   4.599
 2392TIP3    H1 7121   7.342   3.226   4.659
 2392TIP3    H2 7122   7.325   3.076   4.650
 2393TIP3   OH2 7123   0.737   4.204   4.647
 2393TIP3    H1 7124   0.669   4.245   4.701
 2393TIP3    H2 7125   0.720   4.110   4.654
 2394TIP3   OH2 7126   4.377   2.858   5.190
 2394TIP3    H1 7127   4.291   2.820   5.176
 2394TIP3    H2 7128   4.368   2.912   5.269
 2395TIP3   OH2 7129   6.371   0.470   4.829
 2395TIP3    H1 7130   6.425   0.394   4.850
 2395TIP3    H2 7131   6.296   0.434   4.781
 2396TIP3   OH2 7132   7.468   2.666   0.732
 2396TIP3    H1 7133   7.528   2.672   0.657
 2396TIP3    H2 7134   7.380   2.671   0.693
 2397TIP3   OH2 7135   5.705   3.450   5.473
 2397TIP3    H1 7136   5.732   3.505   5.399
 2397TIP3    H2 7137   5.782   3.395   5.490
 2398TIP3   OH2 7138   6.316   0.894   3.539
 2398TIP3    H1 7139   6.387   0.848   3.494
 2398TIP3    H2 7140   6.244   0.894   3.476
 2399TIP3   OH2 7141   4.648   2.686   5.739
 2399TIP3    H1 7142   4.575   2.626   5.748
 2399TIP3    H2 7143   4.670   2.683   5.646
 2400TIP3   OH2 7144   0.632   5.386   3.616
 2400TIP3    H1 7145   0.709   5.383   3.560
 2400TIP3    H2 7146   0.617   5.295   3.641
 2401TIP3   OH2 7147   3.134   7.770   4.535
 2401TIP3    H1 7148   3.151   7.859   4.565
 2401TIP3    H2 7149   3.204   7.752   4.473
 2402TIP3   OH2 7150   5.421   6.804   2.680
 2402TIP3    H1 7151   5.401   6.748   2.755
 2402TIP3    H2 7152   5.424   6.892   2.716
 2403TIP3   OH2 7153   3.520   7.818   2.040
 2403TIP3    H1 7154   3.585   7.837   1.971
 2403TIP3    H2 7155   3.560   7.749   2.092
 2404TIP3   OH2 7156   7.546   4.716   4.633
 2404TIP3    H1 7157   7.504   4.790   4.589
 2404TIP3    H2 7158   7.478   4.650   4.639
 2405TIP3   OH2 7159   4.792   1.327   0.698
 2405TIP3    H1 7160   4.803   1.337   0.793
 2405TIP3    H2 7161   4.869   1.278   0.670
 2406TIP3   OH2 7162   0.788   6.197   6.627
 2406TIP3    H1 7163   0.844   6.120   6.611
 2406TIP3    H2 7164   0.716   6.187   6.566
 2407TIP3   OH2 7165   1.313   1.861   1.740
 2407TIP3    H1 7166   1.339   1.787   1.795
 2407TIP3    H2 7167   1.283   1.928   1.801
 2408TIP3   OH2 7168   3.333   0.339   3.338
 2408TIP3    H1 7169   3.350   0.358   3.431
 2408TIP3    H2 7170   3.413   0.363   3.293
 2409TIP3   OH2 7171   0.573   5.262   5.512
 2409TIP3    H1 7172   0.647   5.236   5.457
 2409TIP3    H2 7173   0.605   5.337   5.562
 2410TIP3   OH2 7174   5.813   0.848   5.189
 2410TIP3    H1 7175   5.856   0.771   5.227
 2410TIP3    H2 7176   5.742   0.869   5.250
 2411TIP3   OH2 7177   3.093   5.926   1.773
 2411TIP3    H1 7178   3.031   5.881   1.716
 2411TIP3    H2 7179   3.140   5.855   1.817
 2412TIP3   OH2 7180   3.058   0.910   3.369
 2412TIP3    H1 7181   3.104   0.867   3.297
 2412TIP3    H2 7182   2.989   0.848   3.393
 2413TIP3   OH2 7183   7.573   5.745   5.241
 2413TIP3    H1 7184   7.525   5.779   5.165
 2413TIP3    H2 7185   7.626   5.674   5.206
 2414TIP3   OH2 7186   7.112   1.301   1.873
 2414TIP3    H1 7187   7.102   1.374   1.812
 2414TIP3    H2 7188   7.125   1.342   1.958
 2415TIP3   OH2 7189   4.287   1.397   1.559
 2415TIP3    H1 7190   4.317   1.317   1.602
 2415TIP3    H2 7191   4.239   1.368   1.482
 2416TIP3   OH2 7192   1.129   0.680   0.766
 2416TIP3    H1 7193   1.120   0.721   0.680
 2416TIP3    H2 7194   1.217   0.641   0.765
 2417TIP3   OH2 7195   7.272   0.891   6.123
 2417TIP3    H1 7196   7.317   0.865   6.042
 2417TIP3    H2 7197   7.213   0.818   6.142
 2418TIP3   OH2 7198   1.934   0.932   0.639
 2418TIP3    H1 7199   1.894   0.865   0.695
 2418TIP3    H2 7200   1.987   0.882   0.577
 2419TIP3   OH2 7201   3.907   6.015   6.620
 2419TIP3    H1 7202   3.858   6.095   6.637
 2419TIP3    H2 7203   3.905   6.006   6.524
 2420TIP3   OH2 7204   3.953   2.494   2.600
 2420TIP3    H1 7205   3.904   2.536   2.530
 2420TIP3    H2 7206   3.899   2.504   2.678
 2421TIP3   OH2 7207   2.321   5.009   6.165
 2421TIP3    H1 7208   2.398   4.993   6.219
 2421TIP3    H2 7209   2.247   4.987   6.223
 2422TIP3   OH2 7210   2.508   6.614   3.054
 2422TIP3    H1 7211   2.543   6.528   3.029
 2422TIP3    H2 7212   2.584   6.660   3.091
 2423TIP3   OH2 7213   4.540   0.173   6.258
 2423TIP3    H1 7214   4.505   0.197   6.344
 2423TIP3    H2 7215   4.471   0.198   6.196
 2424TIP3   OH2 7216   0.229   0.840   1.029
 2424TIP3    H1 7217   0.291   0.914   1.031
 2424TIP3    H2 7218   0.155   0.869   1.081
 2425TIP3   OH2 7219   4.412   2.727   6.797
 2425TIP3    H1 7220   4.441   2.662   6.733
 2425TIP3    H2 7221   4.355   2.786   6.746
 2426TIP3   OH2 7222   7.136   5.342   4.302
 2426TIP3    H1 7223   7.086   5.379   4.375
 2426TIP3    H2 7224   7.069   5.310   4.241
 2427TIP3   OH2 7225   3.407   1.052   6.287
 2427TIP3    H1 7226   3.479   1.028   6.346
 2427TIP3    H2 7227   3.346   0.979   6.293
 2428TIP3   OH2 7228   5.606   6.790   0.547
 2428TIP3    H1 7229   5.637   6.881   0.544
 2428TIP3    H2 7230   5.513   6.796   0.527
 2429TIP3   OH2 7231   4.125   3.089   6.270
 2429TIP3    H1 7232   4.153   3.005   6.233
 2429TIP3    H2 7233   4.093   3.067   6.357
 2430TIP3   OH2 7234   4.891   2.616   4.366
 2430TIP3    H1 7235   4.962   2.622   4.430
 2430TIP3    H2 7236   4.850   2.531   4.382
 2431TIP3   OH2 7237   0.701   0.124   4.185
 2431TIP3    H1 7238   0.694   0.141   4.091
 2431TIP3    H2 7239   0.784   0.166   4.210
 2432TIP3   OH2 7240   3.769   6.956   6.498
 2432TIP3    H1 7241   3.743   6.996   6.581
 2432TIP3    H2 7242   3.710   6.882   6.487
 2433TIP3   OH2 7243   6.231   2.779   0.722
 2433TIP3    H1 7244   6.302   2.786   0.657
 2433TIP3    H2 7245   6.238   2.859   0.773
 2434TIP3   OH2 7246   7.690   6.031   2.644
 2434TIP3    H1 7247   7.697   5.960   2.709
 2434TIP3    H2 7248   7.600   6.027   2.613
 2435TIP3   OH2 7249   2.348   5.126   0.782
 2435TIP3    H1 7250   2.283   5.195   0.787
 2435TIP3    H2 7251   2.314   5.056   0.838
 2436TIP3   OH2 7252   6.788   3.056   4.063
 2436TIP3    H1 7253   6.751   3.083   3.979
 2436TIP3    H2 7254   6.863   3.114   4.076
 2437TIP3   OH2 7255   7.093   7.619   4.637
 2437TIP3    H1 7256   7.133   7.541   4.675
 2437TIP3    H2 7257   7.077   7.676   4.712
 2438TIP3   OH2 7258   6.471   6.398   2.297
 2438TIP3    H1 7259   6.506   6.426   2.382
 2438TIP3    H2 7260   6.378   6.383   2.313
 2439TIP3   OH2 7261   8.084   3.494   5.971
 2439TIP3    H1 7262   8.070   3.520   5.880
 2439TIP3    H2 7263   8.147   3.557   6.004
 2440TIP3   OH2 7264   7.552   1.291   6.657
 2440TIP3    H1 7265   7.461   1.263   6.668
 2440TIP3    H2 7266   7.595   1.216   6.617
 2441TIP3   OH2 7267   3.532   0.967   3.287
 2441TIP3    H1 7268   3.473   0.927   3.351
 2441TIP3    H2 7269   3.596   1.015   3.339
 2442TIP3   OH2 7270   0.505   0.217   0.885
 2442TIP3    H1 7271   0.420   0.246   0.853
 2442TIP3    H2 7272   0.508   0.123   0.866
 2443TIP3   OH2 7273   1.467   3.164   4.332
 2443TIP3    H1 7274   1.424   3.183   4.248
 2443TIP3    H2 7275   1.538   3.104   4.309
 2444TIP3   OH2 7276   3.937   3.848   6.055
 2444TIP3    H1 7277   4.027   3.820   6.072
 2444TIP3    H2 7278   3.894   3.768   6.023
 2445TIP3   OH2 7279   1.343   5.830   3.089
 2445TIP3    H1 7280   1.315   5.921   3.098
 2445TIP3    H2 7281   1.335   5.794   3.177
 2446TIP3   OH2 7282   3.701   1.126   1.420
 2446TIP3    H1 7283   3.644   1.087   1.354
 2446TIP3    H2 7284   3.777   1.068   1.424
 2447TIP3   OH2 7285   7.633   4.374   6.037
 2447TIP3    H1 7286   7.727   4.363   6.020
 2447TIP3    H2 7287   7.619   4.333   6.122
 2448TIP3   OH2 7288   5.120   3.694   0.299
 2448TIP3    H1 7289   5.031   3.720   0.323
 2448TIP3    H2 7290   5.172   3.708   0.378
 2449TIP3   OH2 7291   4.089   7.347   2.505
 2449TIP3    H1 7292   4.019   7.398   2.464
 2449TIP3    H2 7293   4.170   7.388   2.475
 2450TIP3   OH2 7294   7.312   4.871   6.010
 2450TIP3    H1 7295   7.252   4.803   6.040
 2450TIP3    H2 7296   7.275   4.953   6.043
 2451TIP3   OH2 7297   5.834   4.423   2.659
 2451TIP3    H1 7298   5.802   4.401   2.571
 2451TIP3    H2 7299   5.770   4.383   2.718
 2452TIP3   OH2 7300   1.441   5.382   5.402
 2452TIP3    H1 7301   1.493   5.427   5.469
 2452TIP3    H2 7302   1.505   5.353   5.337
 2453TIP3   OH2 7303   7.851   5.983   0.432
 2453TIP3    H1 7304   7.789   6.008   0.363
 2453TIP3    H2 7305   7.829   5.891   0.450
 2454TIP3   OH2 7306   1.254   3.531   5.297
 2454TIP3    H1 7307   1.174   3.543   5.245
 2454TIP3    H2 7308   1.325   3.559   5.239
 2455TIP3   OH2 7309   1.942   0.885   2.211
 2455TIP3    H1 7310   1.855   0.917   2.190
 2455TIP3    H2 7311   1.989   0.962   2.242
 2456TIP3   OH2 7312   5.075   4.282   5.967
 2456TIP3    H1 7313   5.128   4.227   6.024
 2456TIP3    H2 7314   5.134   4.307   5.896
 2457TIP3   OH2 7315   5.394   1.682   3.512
 2457TIP3    H1 7316   5.326   1.629   3.470
 2457TIP3    H2 7317   5.346   1.751   3.557
 2458TIP3   OH2 7318   5.188   6.185   2.875
 2458TIP3    H1 7319   5.101   6.187   2.914
 2458TIP3    H2 7320   5.200   6.273   2.839
 2459TIP3   OH2 7321   0.259   6.724   3.219
 2459TIP3    H1 7322   0.338   6.726   3.273
 2459TIP3    H2 7323   0.292   6.732   3.129
 2460TIP3   OH2 7324   6.419   1.024   6.517
 2460TIP3    H1 7325   6.396   0.975   6.438
 2460TIP3    H2 7326   6.443   1.111   6.484
 2461TIP3   OH2 7327   4.399   3.209   2.528
 2461TIP3    H1 7328   4.354   3.294   2.525
 2461TIP3    H2 7329   4.396   3.185   2.621
 2462TIP3   OH2 7330   4.086   4.775   3.717
 2462TIP3    H1 7331   4.031   4.851   3.698
 2462TIP3    H2 7332   4.168   4.812   3.748
 2463TIP3   OH2 7333   3.138   2.191   0.704
 2463TIP3    H1 7334   3.222   2.166   0.666
 2463TIP3    H2 7335   3.138   2.152   0.791
 2464TIP3   OH2 7336   5.453   7.051   5.231
 2464TIP3    H1 7337   5.361   7.076   5.242
 2464TIP3    H2 7338   5.459   7.024   5.139
 2465TIP3   OH2 7339   6.882   7.283   1.425
 2465TIP3    H1 7340   6.850   7.373   1.414
 2465TIP3    H2 7341   6.931   7.285   1.507
 2466TIP3   OH2 7342   3.638   7.346   4.564
 2466TIP3    H1 7343   3.652   7.257   4.595
 2466TIP3    H2 7344   3.601   7.334   4.476
 2467TIP3   OH2 7345   4.286   3.399   5.838
 2467TIP3    H1 7346   4.323   3.312   5.827
 2467TIP3    H2 7347   4.233   3.413   5.759
 2468TIP3   OH2 7348   7.119   7.251   1.829
 2468TIP3    H1 7349   7.028   7.275   1.849
 2468TIP3    H2 7350   7.128   7.270   1.736
 2469TIP3   OH2 7351   6.121   3.557   0.240
 2469TIP3    H1 7352   6.120   3.606   0.323
 2469TIP3    H2 7353   6.076   3.474   0.261
 2470TIP3   OH2 7354   2.378   3.822   4.352
 2470TIP3    H1 7355   2.470   3.801   4.336
 2470TIP3    H2 7356   2.375   3.850   4.443
 2471TIP3   OH2 7357   3.781   1.155   5.142
 2471TIP3    H1 7358   3.863   1.106   5.149
 2471TIP3    H2 7359   3.729   1.104   5.080
 2472TIP3   OH2 7360   3.046   6.450   6.607
 2472TIP3    H1 7361   2.954   6.422   6.603
 2472TIP3    H2 7362   3.056   6.507   6.530
 2473TIP3   OH2 7363   2.057   0.419   1.109
 2473TIP3    H1 7364   2.061   0.496   1.051
 2473TIP3    H2 7365   2.097   0.448   1.190
 2474TIP3   OH2 7366   5.032   2.780   3.586
 2474TIP3    H1 7367   5.028   2.696   3.631
 2474TIP3    H2 7368   5.117   2.817   3.610
 2475TIP3   OH2 7369   2.859   1.697   6.705
 2475TIP3    H1 7370   2.793   1.678   6.772
 2475TIP3    H2 7371   2.892   1.784   6.730
 2476TIP3   OH2 7372   3.240   6.646   4.749
 2476TIP3    H1 7373   3.184   6.696   4.689
 2476TIP3    H2 7374   3.290   6.587   4.691
 2477TIP3   OH2 7375   0.095   3.746   1.799
 2477TIP3    H1 7376   0.178   3.721   1.757
 2477TIP3    H2 7377   0.122   3.781   1.884
 2478TIP3   OH2 7378   2.007   4.663   1.381
 2478TIP3    H1 7379   2.050   4.747   1.396
 2478TIP3    H2 7380   1.950   4.678   1.306
 2479TIP3   OH2 7381   4.998   6.725   4.489
 2479TIP3    H1 7382   5.073   6.772   4.527
 2479TIP3    H2 7383   4.995   6.642   4.537
 2480TIP3   OH2 7384   0.263   0.584   3.946
 2480TIP3    H1 7385   0.289   0.676   3.958
 2480TIP3    H2 7386   0.331   0.535   3.993
 2481TIP3   OH2 7387   2.336   1.961   2.708
 2481TIP3    H1 7388   2.263   1.899   2.712
 2481TIP3    H2 7389   2.377   1.955   2.794
 2482TIP3   OH2 7390   1.810   6.909   2.185
 2482TIP3    H1 7391   1.754   6.901   2.262
 2482TIP3    H2 7392   1.839   7.001   2.185
 2483TIP3   OH2 7393   4.986   2.765   2.163
 2483TIP3    H1 7394   4.972   2.859   2.158
 2483TIP3    H2 7395   4.928   2.728   2.095
 2484TIP3   OH2 7396   2.429   0.949   5.813
 2484TIP3    H1 7397   2.478   0.892   5.754
 2484TIP3    H2 7398   2.401   1.022   5.758
 2485TIP3   OH2 7399   6.357   0.400   0.451
 2485TIP3    H1 7400   6.419   0.377   0.382
 2485TIP3    H2 7401   6.411   0.430   0.524
 2486TIP3   OH2 7402   0.033   6.597   6.376
 2486TIP3    H1 7403   0.038   6.604   6.471
 2486TIP3    H2 7404   0.112   6.641   6.344
 2487TIP3   OH2 7405   5.897   2.478   2.746
 2487TIP3    H1 7406   5.832   2.516   2.805
 2487TIP3    H2 7407   5.981   2.507   2.782
 2488TIP3   OH2 7408   0.406   6.146   4.732
 2488TIP3    H1 7409   0.450   6.061   4.725
 2488TIP3    H2 7410   0.420   6.187   4.647
 2489TIP3   OH2 7411   4.606   2.267   6.270
 2489TIP3    H1 7412   4.644   2.247   6.356
 2489TIP3    H2 7413   4.520   2.225   6.272
 2490TIP3   OH2 7414   4.994   6.575   2.381
 2490TIP3    H1 7415   5.076   6.536   2.354
 2490TIP3    H2 7416   4.961   6.518   2.451
 2491TIP3   OH2 7417   5.560   7.612   5.563
 2491TIP3    H1 7418   5.596   7.642   5.479
 2491TIP3    H2 7419   5.634   7.614   5.623
 2492TIP3   OH2 7420   2.884   6.335   6.263
 2492TIP3    H1 7421   2.875   6.324   6.169
 2492TIP3    H2 7422   2.974   6.308   6.282
 2493TIP3   OH2 7423   1.485   4.233   4.020
 2493TIP3    H1 7424   1.399   4.228   3.980
 2493TIP3    H2 7425   1.474   4.292   4.095
 2494TIP3   OH2 7426   3.261   2.230   5.610
 2494TIP3    H1 7427   3.267   2.291   5.536
 2494TIP3    H2 7428   3.352   2.207   5.629
 2495TIP3   OH2 7429   6.906   0.115   3.419
 2495TIP3    H1 7430   6.892   0.117   3.324
 2495TIP3    H2 7431   6.989   0.162   3.432
 2496TIP3   OH2 7432   3.245   3.705   1.828
 2496TIP3    H1 7433   3.296   3.625   1.845
 2496TIP3    H2 7434   3.160   3.673   1.799
 2497TIP3   OH2 7435   7.620   6.705   1.230
 2497TIP3    H1 7436   7.652   6.659   1.308
 2497TIP3    H2 7437   7.686   6.686   1.163
 2498TIP3   OH2 7438   6.370   7.694   4.838
 2498TIP3    H1 7439   6.289   7.651   4.810
 2498TIP3    H2 7440   6.341   7.762   4.899
 2499TIP3   OH2 7441   1.336   0.280   5.504
 2499TIP3    H1 7442   1.281   0.358   5.505
 2499TIP3    H2 7443   1.286   0.215   5.554
 2500TIP3   OH2 7444   5.132   6.185   2.186
 2500TIP3    H1 7445   5.196   6.129   2.143
 2500TIP3    H2 7446   5.180   6.224   2.259
 2501TIP3   OH2 7447   6.608   6.691   5.815
 2501TIP3    H1 7448   6.519   6.690   5.780
 2501TIP3    H2 7449   6.616   6.608   5.862
 2502TIP3   OH2 7450   5.294   1.504   5.728
 2502TIP3    H1 7451   5.353   1.499   5.803
 2502TIP3    H2 7452   5.224   1.442   5.748
 2503TIP3   OH2 7453   7.588   2.357   3.442
 2503TIP3    H1 7454   7.603   2.356   3.537
 2503TIP3    H2 7455   7.663   2.405   3.407
 2504TIP3   OH2 7456   6.247   2.065   0.813
 2504TIP3    H1 7457   6.273   2.150   0.778
 2504TIP3    H2 7458   6.162   2.081   0.853
 2505TIP3   OH2 7459   0.058   6.123   5.682
 2505TIP3    H1 7460   0.043   6.204   5.731
 2505TIP3    H2 7461   0.007   6.134   5.602
 2506TIP3   OH2 7462   1.293   4.861   6.133
 2506TIP3    H1 7463   1.310   4.788   6.073
 2506TIP3    H2 7464   1.265   4.933   6.076
 2507TIP3   OH2 7465   2.586   2.170   3.133
 2507TIP3    H1 7466   2.654   2.133   3.189
 2507TIP3    H2 7467   2.608   2.263   3.126
 2508TIP3   OH2 7468   1.436   6.377   0.217
 2508TIP3    H1 7469   1.478   6.443   0.162
 2508TIP3    H2 7470   1.477   6.294   0.190
 2509TIP3   OH2 7471   3.600   1.920   5.194
 2509TIP3    H1 7472   3.658   1.850   5.224
 2509TIP3    H2 7473   3.640   2.001   5.226
 2510TIP3   OH2 7474   2.232   6.738   6.209
 2510TIP3    H1 7475   2.153   6.758   6.260
 2510TIP3    H2 7476   2.294   6.807   6.233
 2511TIP3   OH2 7477   2.573   3.229   6.421
 2511TIP3    H1 7478   2.585   3.322   6.438
 2511TIP3    H2 7479   2.585   3.186   6.506
 2512TIP3   OH2 7480   4.631   4.927   0.876
 2512TIP3    H1 7481   4.650   4.858   0.940
 2512TIP3    H2 7482   4.621   5.006   0.928
 2513TIP3   OH2 7483   6.434   2.552   3.264
 2513TIP3    H1 7484   6.368   2.619   3.251
 2513TIP3    H2 7485   6.472   2.572   3.350
 2514TIP3   OH2 7486   6.129   3.776   4.355
 2514TIP3    H1 7487   6.186   3.775   4.432
 2514TIP3    H2 7488   6.164   3.707   4.299
 2515TIP3   OH2 7489   6.172   2.842   3.970
 2515TIP3    H1 7490   6.154   2.920   4.023
 2515TIP3    H2 7491   6.153   2.768   4.028
 2516TIP3   OH2 7492   5.897   1.833   6.420
 2516TIP3    H1 7493   5.837   1.845   6.493
 2516TIP3    H2 7494   5.870   1.750   6.380
 2517TIP3   OH2 7495   3.533   6.410   2.084
 2517TIP3    H1 7496   3.460   6.437   2.140
 2517TIP3    H2 7497   3.533   6.314   2.091
 2518TIP3   OH2 7498   1.554   5.510   0.769
 2518TIP3    H1 7499   1.491   5.536   0.837
 2518TIP3    H2 7500   1.583   5.592   0.730
 2519TIP3   OH2 7501   8.127   3.615   4.811
 2519TIP3    H1 7502   8.066   3.657   4.751
 2519TIP3    H2 7503   8.214   3.632   4.774
 2520TIP3   OH2 7504   4.819   3.880   1.957
 2520TIP3    H1 7505   4.749   3.922   1.907
 2520TIP3    H2 7506   4.794   3.787   1.960
 2521TIP3   OH2 7507   0.025   7.847   4.904
 2521TIP3    H1 7508   0.034   7.777   4.839
 2521TIP3    H2 7509   0.031   7.803   4.988
 2522TIP3   OH2 7510   6.374   0.980   2.686
 2522TIP3    H1 7511   6.363   0.982   2.591
 2522TIP3    H2 7512   6.385   0.888   2.708
 2523TIP3   OH2 7513   0.010   6.774   6.566
 2523TIP3    H1 7514   0.051   6.835   6.505
 2523TIP3    H2 7515   0.051   6.794   6.651
 2524TIP3   OH2 7516   2.630   0.549   6.248
 2524TIP3    H1 7517   2.701   0.586   6.299
 2524TIP3    H2 7518   2.664   0.546   6.158
 2525TIP3   OH2 7519   3.615   6.805   1.214
 2525TIP3    H1 7520   3.617   6.880   1.273
 2525TIP3    H2 7521   3.706   6.781   1.201
 2526TIP3   OH2 7522   3.178   3.138   1.424
 2526TIP3    H1 7523   3.106   3.147   1.486
 2526TIP3    H2 7524   3.199   3.044   1.425
 2527TIP3   OH2 7525   7.194   2.346   2.475
 2527TIP3    H1 7526   7.256   2.412   2.444
 2527TIP3    H2 7527   7.123   2.397   2.514
 2528TIP3   OH2 7528   4.470   5.785   3.095
 2528TIP3    H1 7529   4.440   5.712   3.040
 2528TIP3    H2 7530   4.426   5.862   3.058
 2529TIP3   OH2 7531   4.329   0.645   0.679
 2529TIP3    H1 7532   4.333   0.552   0.703
 2529TIP3    H2 7533   4.370   0.691   0.751
 2530TIP3   OH2 7534   1.919   7.299   1.411
 2530TIP3    H1 7535   1.864   7.239   1.359
 2530TIP3    H2 7536   1.856   7.356   1.454
 2531TIP3   OH2 7537   8.077   4.763   6.195
 2531TIP3    H1 7538   8.060   4.692   6.134
 2531TIP3    H2 7539   8.044   4.842   6.152
 2532TIP3   OH2 7540   4.857   6.964   0.798
 2532TIP3    H1 7541   4.931   7.013   0.761
 2532TIP3    H2 7542   4.788   6.971   0.731
 2533TIP3   OH2 7543   4.135   5.248   0.500
 2533TIP3    H1 7544   4.077   5.191   0.449
 2533TIP3    H2 7545   4.080   5.322   0.525
 2534TIP3   OH2 7546   1.254   5.566   0.170
 2534TIP3    H1 7547   1.276   5.487   0.220
 2534TIP3    H2 7548   1.306   5.636   0.211
 2535TIP3   OH2 7549   0.201   5.901   0.783
 2535TIP3    H1 7550   0.123   5.887   0.728
 2535TIP3    H2 7551   0.167   5.941   0.863
 2536TIP3   OH2 7552   2.008   3.620   5.903
 2536TIP3    H1 7553   1.969   3.534   5.917
 2536TIP3    H2 7554   1.957   3.658   5.831
 2537TIP3   OH2 7555   7.631   4.725   3.311
 2537TIP3    H1 7556   7.667   4.800   3.263
 2537TIP3    H2 7557   7.563   4.763   3.366
 2538TIP3   OH2 7558   8.055   3.689   2.735
 2538TIP3    H1 7559   8.094   3.616   2.783
 2538TIP3    H2 7560   7.998   3.647   2.670
 2539TIP3   OH2 7561   2.480   6.047   1.227
 2539TIP3    H1 7562   2.569   6.074   1.247
 2539TIP3    H2 7563   2.490   5.965   1.178
 2540TIP3   OH2 7564   5.044   3.997   1.484
 2540TIP3    H1 7565   5.115   4.053   1.516
 2540TIP3    H2 7566   5.061   3.987   1.391
 2541TIP3   OH2 7567   1.842   6.385   1.832
 2541TIP3    H1 7568   1.782   6.364   1.904
 2541TIP3    H2 7569   1.923   6.411   1.876
 2542TIP3   OH2 7570   5.381   7.187   2.263
 2542TIP3    H1 7571   5.366   7.245   2.189
 2542TIP3    H2 7572   5.308   7.125   2.262
 2543TIP3   OH2 7573   4.686   0.142   2.488
 2543TIP3    H1 7574   4.601   0.139   2.532
 2543TIP3    H2 7575   4.710   0.050   2.477
 2544TIP3   OH2 7576   1.046   5.917   3.832
 2544TIP3    H1 7577   1.098   5.845   3.796
 2544TIP3    H2 7578   0.988   5.875   3.896
 2545TIP3   OH2 7579   2.399   7.574   2.072
 2545TIP3    H1 7580   2.440   7.505   2.021
 2545TIP3    H2 7581   2.431   7.655   2.032
 2546TIP3   OH2 7582   6.692   1.152   0.169
 2546TIP3    H1 7583   6.610   1.200   0.166
 2546TIP3    H2 7584   6.746   1.191   0.101
 2547TIP3   OH2 7585   1.800   0.245   6.672
 2547TIP3    H1 7586   1.754   0.327   6.657
 2547TIP3    H2 7587   1.869   0.244   6.605
 2548TIP3   OH2 7588   1.944   2.165   0.957
 2548TIP3    H1 7589   1.911   2.193   1.043
 2548TIP3    H2 7590   1.869   2.124   0.915
 2549TIP3   OH2 7591   4.087   5.344   2.441
 2549TIP3    H1 7592   4.098   5.434   2.472
 2549TIP3    H2 7593   4.117   5.291   2.515
 2550TIP3   OH2 7594   7.072   1.469   5.311
 2550TIP3    H1 7595   7.041   1.380   5.331
 2550TIP3    H2 7596   6.993   1.520   5.300
 2551TIP3   OH2 7597   4.240   5.512   3.194
 2551TIP3    H1 7598   4.186   5.434   3.210
 2551TIP3    H2 7599   4.291   5.489   3.116
 2552TIP3   OH2 7600   3.002   7.532   1.849
 2552TIP3    H1 7601   2.982   7.612   1.801
 2552TIP3    H2 7602   2.938   7.531   1.920
 2553TIP3   OH2 7603   6.502   1.605   4.544
 2553TIP3    H1 7604   6.454   1.637   4.468
 2553TIP3    H2 7605   6.593   1.628   4.525
 2554TIP3   OH2 7606   2.789   0.520   3.875
 2554TIP3    H1 7607   2.726   0.538   3.945
 2554TIP3    H2 7608   2.838   0.602   3.866
 2555TIP3   OH2 7609   1.789   7.324   5.075
 2555TIP3    H1 7610   1.868   7.270   5.068
 2555TIP3    H2 7611   1.717   7.261   5.079
 2556TIP3   OH2 7612   7.542   4.846   0.398
 2556TIP3    H1 7613   7.629   4.882   0.415
 2556TIP3    H2 7614   7.482   4.917   0.417
 2557TIP3   OH2 7615   3.453   0.306   1.316
 2557TIP3    H1 7616   3.410   0.289   1.399
 2557TIP3    H2 7617   3.500   0.389   1.329
 2558TIP3   OH2 7618   7.004   1.987   6.472
 2558TIP3    H1 7619   7.020   1.967   6.564
 2558TIP3    H2 7620   6.918   1.950   6.455
 2559TIP3   OH2 7621   6.951   2.264   3.260
 2559TIP3    H1 7622   6.926   2.219   3.179
 2559TIP3    H2 7623   6.931   2.201   3.329
 2560TIP3   OH2 7624   6.976   4.087   5.281
 2560TIP3    H1 7625   7.066   4.068   5.306
 2560TIP3    H2 7626   6.970   4.183   5.285
 2561TIP3   OH2 7627   4.128   4.851   4.838
 2561TIP3    H1 7628   4.214   4.839   4.797
 2561TIP3    H2 7629   4.113   4.770   4.887
 2562TIP3   OH2 7630   8.217   4.072   5.892
 2562TIP3    H1 7631   8.232   4.001   5.955
 2562TIP3    H2 7632   8.237   4.033   5.807
 2563TIP3   OH2 7633   0.666   3.178   4.564
 2563TIP3    H1 7634   0.652   3.141   4.650
 2563TIP3    H2 7635   0.760   3.172   4.549
 2564TIP3   OH2 7636   5.317   4.879   6.116
 2564TIP3    H1 7637   5.346   4.928   6.193
 2564TIP3    H2 7638   5.237   4.923   6.087
 2565TIP3   OH2 7639   2.918   5.025   0.532
 2565TIP3    H1 7640   2.876   5.068   0.605
 2565TIP3    H2 7641   3.005   5.066   0.526
 2566TIP3   OH2 7642   2.718   2.007   1.798
 2566TIP3    H1 7643   2.689   1.988   1.709
 2566TIP3    H2 7644   2.638   2.005   1.850
 2567TIP3   OH2 7645   6.837   6.879   1.170
 2567TIP3    H1 7646   6.918   6.896   1.122
 2567TIP3    H2 7647   6.854   6.914   1.258
 2568TIP3   OH2 7648   4.457   3.190   2.030
 2568TIP3    H1 7649   4.478   3.186   2.123
 2568TIP3    H2 7650   4.534   3.153   1.987
 2569TIP3   OH2 7651   6.648   3.958   0.739
 2569TIP3    H1 7652   6.598   3.989   0.814
 2569TIP3    H2 7653   6.644   3.863   0.745
 2570TIP3   OH2 7654   4.391   7.706   4.857
 2570TIP3    H1 7655   4.485   7.686   4.858
 2570TIP3    H2 7656   4.372   7.723   4.764
 2571TIP3   OH2 7657   7.868   4.855   3.711
 2571TIP3    H1 7658   7.791   4.909   3.694
 2571TIP3    H2 7659   7.835   4.765   3.711
 2572TIP3   OH2 7660   0.615   4.143   6.145
 2572TIP3    H1 7661   0.579   4.064   6.184
 2572TIP3    H2 7662   0.603   4.132   6.051
 2573TIP3   OH2 7663   1.446   4.272   1.658
 2573TIP3    H1 7664   1.432   4.268   1.563
 2573TIP3    H2 7665   1.523   4.327   1.669
 2574TIP3   OH2 7666   2.297   2.216   5.749
 2574TIP3    H1 7667   2.237   2.247   5.681
 2574TIP3    H2 7668   2.384   2.234   5.714
 2575TIP3   OH2 7669   1.051   6.689   5.779
 2575TIP3    H1 7670   1.134   6.658   5.744
 2575TIP3    H2 7671   1.031   6.629   5.851
 2576TIP3   OH2 7672   2.589   5.519   0.952
 2576TIP3    H1 7673   2.594   5.610   0.923
 2576TIP3    H2 7674   2.517   5.519   1.016
 2577TIP3   OH2 7675   1.747   4.151   2.834
 2577TIP3    H1 7676   1.774   4.241   2.853
 2577TIP3    H2 7677   1.807   4.097   2.885
 2578TIP3   OH2 7678   4.733   4.379   4.053
 2578TIP3    H1 7679   4.727   4.406   3.962
 2578TIP3    H2 7680   4.736   4.284   4.050
 2579TIP3   OH2 7681   8.004   2.910   0.633
 2579TIP3    H1 7682   7.912   2.935   0.624
 2579TIP3    H2 7683   8.047   2.988   0.668
 2580TIP3   OH2 7684   2.378   2.205  -0.009
 2580TIP3    H1 7685   2.355   2.192   0.083
 2580TIP3    H2 7686   2.472   2.186  -0.014
 2581TIP3   OH2 7687   6.004   3.516   4.232
 2581TIP3    H1 7688   5.931   3.463   4.264
 2581TIP3    H2 7689   5.963   3.593   4.192
 2582TIP3   OH2 7690   0.822   6.843   2.294
 2582TIP3    H1 7691   0.777   6.760   2.308
 2582TIP3    H2 7692   0.874   6.830   2.215
 2583TIP3   OH2 7693   4.743   3.837   1.105
 2583TIP3    H1 7694   4.795   3.912   1.132
 2583TIP3    H2 7695   4.750   3.775   1.178
 2584TIP3   OH2 7696   2.379   3.196   4.693
 2584TIP3    H1 7697   2.311   3.158   4.749
 2584TIP3    H2 7698   2.423   3.259   4.750
 2585TIP3   OH2 7699   2.564   5.138   1.630
 2585TIP3    H1 7700   2.592   5.155   1.720
 2585TIP3    H2 7701   2.617   5.197   1.577
 2586TIP3   OH2 7702   3.534   1.013   1.240
 2586TIP3    H1 7703   3.488   1.097   1.233
 2586TIP3    H2 7704   3.472   0.949   1.204
 2587TIP3   OH2 7705   6.854   3.005   1.154
 2587TIP3    H1 7706   6.907   3.081   1.131
 2587TIP3    H2 7707   6.908   2.930   1.129
 2588TIP3   OH2 7708   1.370   2.793   5.434
 2588TIP3    H1 7709   1.438   2.832   5.379
 2588TIP3    H2 7710   1.328   2.727   5.378
 2589TIP3   OH2 7711   5.459   3.400   0.133
 2589TIP3    H1 7712   5.476   3.492   0.113
 2589TIP3    H2 7713   5.376   3.401   0.181
 2590TIP3   OH2 7714   1.634   6.703   3.012
 2590TIP3    H1 7715   1.644   6.632   3.076
 2590TIP3    H2 7716   1.596   6.775   3.062
 2591TIP3   OH2 7717   2.366   3.692   0.937
 2591TIP3    H1 7718   2.409   3.754   0.996
 2591TIP3    H2 7719   2.277   3.726   0.929
 2592TIP3   OH2 7720   3.466   5.188   1.685
 2592TIP3    H1 7721   3.539   5.128   1.674
 2592TIP3    H2 7722   3.427   5.163   1.769
 2593TIP3   OH2 7723   3.284   3.445   3.866
 2593TIP3    H1 7724   3.359   3.499   3.842
 2593TIP3    H2 7725   3.316   3.389   3.936
 2594TIP3   OH2 7726   7.677   2.800   2.521
 2594TIP3    H1 7727   7.601   2.745   2.542
 2594TIP3    H2 7728   7.646   2.858   2.452
 2595TIP3   OH2 7729   0.901   6.281   6.341
 2595TIP3    H1 7730   0.940   6.207   6.387
 2595TIP3    H2 7731   0.887   6.250   6.252
 2596TIP3   OH2 7732   5.290   2.203   6.177
 2596TIP3    H1 7733   5.374   2.157   6.178
 2596TIP3    H2 7734   5.268   2.210   6.085
 2597TIP3   OH2 7735   2.689   3.490   6.497
 2597TIP3    H1 7736   2.624   3.543   6.451
 2597TIP3    H2 7737   2.746   3.554   6.541
 2598TIP3   OH2 7738   7.381   2.621   3.123
 2598TIP3    H1 7739   7.346   2.701   3.084
 2598TIP3    H2 7740   7.345   2.620   3.211
 2599TIP3   OH2 7741   4.745   6.365   4.020
 2599TIP3    H1 7742   4.819   6.377   4.080
 2599TIP3    H2 7743   4.738   6.448   3.973
 2600TIP3   OH2 7744   2.846   2.790   0.732
 2600TIP3    H1 7745   2.882   2.878   0.747
 2600TIP3    H2 7746   2.822   2.790   0.639
 2601TIP3   OH2 7747   3.535   1.003   5.974
 2601TIP3    H1 7748   3.607   0.984   5.914
 2601TIP3    H2 7749   3.543   1.096   5.992
 2602TIP3   OH2 7750   6.600   2.929   3.841
 2602TIP3    H1 7751   6.606   3.004   3.781
 2602TIP3    H2 7752   6.666   2.867   3.809
 2603TIP3   OH2 7753   4.427   4.566   3.889
 2603TIP3    H1 7754   4.509   4.549   3.843
 2603TIP3    H2 7755   4.398   4.480   3.920
 2604TIP3   OH2 7756   7.390   2.286   1.980
 2604TIP3    H1 7757   7.302   2.292   1.942
 2604TIP3    H2 7758   7.387   2.208   2.036
 2605TIP3   OH2 7759   7.383   5.368   4.990
 2605TIP3    H1 7760   7.429   5.417   4.922
 2605TIP3    H2 7761   7.367   5.282   4.950
 2606TIP3   OH2 7762   2.244   7.378   4.813
 2606TIP3    H1 7763   2.303   7.316   4.770
 2606TIP3    H2 7764   2.285   7.463   4.799
 2607TIP3   OH2 7765   7.735   3.164   2.452
 2607TIP3    H1 7766   7.681   3.239   2.427
 2607TIP3    H2 7767   7.785   3.195   2.527
 2608TIP3   OH2 7768   6.876   4.564   0.188
 2608TIP3    H1 7769   6.809   4.607   0.242
 2608TIP3    H2 7770   6.855   4.471   0.194
 2609TIP3   OH2 7771   2.458   3.328   6.196
 2609TIP3    H1 7772   2.471   3.294   6.284
 2609TIP3    H2 7773   2.545   3.329   6.157
 2610TIP3   OH2 7774   1.229   1.909   4.641
 2610TIP3    H1 7775   1.264   1.946   4.560
 2610TIP3    H2 7776   1.296   1.927   4.707
 2611TIP3   OH2 7777   6.993   4.053   6.483
 2611TIP3    H1 7778   7.077   4.046   6.437
 2611TIP3    H2 7779   6.927   4.038   6.416
 2612TIP3   OH2 7780   2.425   1.929   4.267
 2612TIP3    H1 7781   2.463   1.977   4.340
 2612TIP3    H2 7782   2.456   1.839   4.279
 2613TIP3   OH2 7783   2.298   7.822   2.483
 2613TIP3    H1 7784   2.354   7.858   2.414
 2613TIP3    H2 7785   2.273   7.735   2.452
 2614TIP3   OH2 7786   6.263   0.873   4.429
 2614TIP3    H1 7787   6.285   0.785   4.460
 2614TIP3    H2 7788   6.232   0.860   4.340
 2615TIP3   OH2 7789   5.192  -0.026   3.863
 2615TIP3    H1 7790   5.213   0.052   3.811
 2615TIP3    H2 7791   5.242  -0.015   3.944
 2616TIP3   OH2 7792   1.870   4.297   6.590
 2616TIP3    H1 7793   1.955   4.312   6.548
 2616TIP3    H2 7794   1.823   4.379   6.577
 2617TIP3   OH2 7795   3.607   3.518   2.656
 2617TIP3    H1 7796   3.542   3.512   2.586
 2617TIP3    H2 7797   3.578   3.591   2.710
 2618TIP3   OH2 7798   7.198   0.908   1.215
 2618TIP3    H1 7799   7.268   0.907   1.281
 2618TIP3    H2 7800   7.131   0.965   1.253
 2619TIP3   OH2 7801   7.781   7.602   0.999
 2619TIP3    H1 7802   7.717   7.673   0.992
 2619TIP3    H2 7803   7.738   7.536   1.053
 2620TIP3   OH2 7804   7.345   6.388   0.122
 2620TIP3    H1 7805   7.323   6.481   0.118
 2620TIP3    H2 7806   7.420   6.384   0.181
 2621TIP3   OH2 7807   7.769   6.011   5.231
 2621TIP3    H1 7808   7.799   5.952   5.300
 2621TIP3    H2 7809   7.840   6.075   5.222
 2622TIP3   OH2 7810   1.769   5.291   0.501
 2622TIP3    H1 7811   1.865   5.284   0.499
 2622TIP3    H2 7812   1.746   5.279   0.593
 2623TIP3   OH2 7813   8.301   3.059   4.489
 2623TIP3    H1 7814   8.243   3.109   4.430
 2623TIP3    H2 7815   8.274   3.086   4.577
 2624TIP3   OH2 7816   5.538   0.934   1.008
 2624TIP3    H1 7817   5.472   0.960   0.943
 2624TIP3    H2 7818   5.603   0.886   0.957
 2625TIP3   OH2 7819   2.737   6.600   4.049
 2625TIP3    H1 7820   2.776   6.572   3.966
 2625TIP3    H2 7821   2.745   6.523   4.106
 2626TIP3   OH2 7822   7.701   3.755   3.413
 2626TIP3    H1 7823   7.772   3.692   3.402
 2626TIP3    H2 7824   7.631   3.722   3.357
 2627TIP3   OH2 7825   1.668   3.929   6.392
 2627TIP3    H1 7826   1.733   3.864   6.419
 2627TIP3    H2 7827   1.594   3.877   6.359
 2628TIP3   OH2 7828   7.052   4.189   3.531
 2628TIP3    H1 7829   7.125   4.214   3.475
 2628TIP3    H2 7830   7.071   4.230   3.615
 2629TIP3   OH2 7831   7.107   0.223   1.719
 2629TIP3    H1 7832   7.025   0.229   1.670
 2629TIP3    H2 7833   7.150   0.307   1.706
 2630TIP3   OH2 7834   3.518   4.986   6.071
 2630TIP3    H1 7835   3.519   4.927   5.995
 2630TIP3    H2 7836   3.454   5.053   6.048
 2631TIP3   OH2 7837   1.474   3.797   0.669
 2631TIP3    H1 7838   1.440   3.708   0.669
 2631TIP3    H2 7839   1.404   3.849   0.709
 2632TIP3   OH2 7840   1.505   6.814   0.567
 2632TIP3    H1 7841   1.454   6.749   0.615
 2632TIP3    H2 7842   1.549   6.764   0.498
 2633TIP3   OH2 7843   6.582   6.432   5.130
 2633TIP3    H1 7844   6.604   6.363   5.068
 2633TIP3    H2 7845   6.606   6.397   5.215
 2634TIP3   OH2 7846   5.280   4.373   4.720
 2634TIP3    H1 7847   5.369   4.338   4.714
 2634TIP3    H2 7848   5.278   4.445   4.658
 2635TIP3   OH2 7849   3.971   7.802   2.535
 2635TIP3    H1 7850   3.910   7.735   2.506
 2635TIP3    H2 7851   3.918   7.865   2.583
 2636TIP3   OH2 7852   6.810   6.702   5.622
 2636TIP3    H1 7853   6.829   6.609   5.629
 2636TIP3    H2 7854   6.742   6.718   5.688
 2637TIP3   OH2 7855   3.177   0.775   1.397
 2637TIP3    H1 7856   3.152   0.743   1.310
 2637TIP3    H2 7857   3.269   0.751   1.406
 2638TIP3   OH2 7858   1.581   7.292   4.575
 2638TIP3    H1 7859   1.654   7.304   4.515
 2638TIP3    H2 7860   1.508   7.266   4.519
 2639TIP3   OH2 7861   2.935   3.183   5.493
 2639TIP3    H1 7862   2.921   3.159   5.401
 2639TIP3    H2 7863   2.851   3.219   5.522
 2640TIP3   OH2 7864   4.046   0.762   1.609
 2640TIP3    H1 7865   4.075   0.852   1.598
 2640TIP3    H2 7866   4.062   0.743   1.702
 2641TIP3   OH2 7867   5.438   2.174   3.255
 2641TIP3    H1 7868   5.485   2.118   3.317
 2641TIP3    H2 7869   5.467   2.144   3.169
 2642TIP3   OH2 7870   7.223   5.373   0.984
 2642TIP3    H1 7871   7.275   5.342   1.058
 2642TIP3    H2 7872   7.197   5.293   0.938
 2643TIP3   OH2 7873   3.135   4.830   2.291
 2643TIP3    H1 7874   3.096   4.753   2.334
 2643TIP3    H2 7875   3.099   4.829   2.202
 2644TIP3   OH2 7876   1.833   7.622   5.578
 2644TIP3    H1 7877   1.922   7.604   5.548
 2644TIP3    H2 7878   1.807   7.543   5.625
 2645TIP3   OH2 7879   3.614   2.498   4.089
 2645TIP3    H1 7880   3.684   2.557   4.118
 2645TIP3    H2 7881   3.534   2.536   4.125
 2646TIP3   OH2 7882   2.668   3.400   3.082
 2646TIP3    H1 7883   2.653   3.493   3.065
 2646TIP3    H2 7884   2.736   3.397   3.149
 2647TIP3   OH2 7885   1.687   7.064   3.915
 2647TIP3    H1 7886   1.628   6.989   3.908
 2647TIP3    H2 7887   1.731   7.067   3.831
 2648TIP3   OH2 7888   0.392   4.752   5.475
 2648TIP3    H1 7889   0.305   4.713   5.482
 2648TIP3    H2 7890   0.405   4.766   5.381
 2649TIP3   OH2 7891   0.280   7.218   5.650
 2649TIP3    H1 7892   0.216   7.182   5.711
 2649TIP3    H2 7893   0.274   7.161   5.573
 2650TIP3   OH2 7894   3.979   7.273   4.134
 2650TIP3    H1 7895   3.912   7.234   4.077
 2650TIP3    H2 7896   4.015   7.199   4.182
 2651TIP3   OH2 7897   2.781   1.272   2.443
 2651TIP3    H1 7898   2.850   1.304   2.385
 2651TIP3    H2 7899   2.700   1.306   2.405
 2652TIP3   OH2 7900   2.159   7.299   6.033
 2652TIP3    H1 7901   2.161   7.240   6.109
 2652TIP3    H2 7902   2.221   7.261   5.972
 2653TIP3   OH2 7903   1.843   5.420   5.893
 2653TIP3    H1 7904   1.752   5.409   5.866
 2653TIP3    H2 7905   1.868   5.335   5.930
 2654TIP3   OH2 7906   4.204   1.967   5.802
 2654TIP3    H1 7907   4.266   1.896   5.817
 2654TIP3    H2 7908   4.257   2.040   5.770
 2655TIP3   OH2 7909   7.058   2.145   2.902
 2655TIP3    H1 7910   7.087   2.061   2.867
 2655TIP3    H2 7911   6.996   2.122   2.971
 2656TIP3   OH2 7912   7.035   7.752   5.126
 2656TIP3    H1 7913   7.046   7.821   5.192
 2656TIP3    H2 7914   6.940   7.743   5.117
 2657TIP3   OH2 7915   3.598   6.079   2.000
 2657TIP3    H1 7916   3.526   6.070   1.937
 2657TIP3    H2 7917   3.635   5.991   2.006
 2658TIP3   OH2 7918   3.468   0.072   4.361
 2658TIP3    H1 7919   3.488   0.156   4.402
 2658TIP3    H2 7920   3.543   0.016   4.383
 2659TIP3   OH2 7921   5.509   7.295   0.081
 2659TIP3    H1 7922   5.552   7.236   0.020
 2659TIP3    H2 7923   5.574   7.312   0.148
 2660TIP3   OH2 7924   7.574   6.941   1.753
 2660TIP3    H1 7925   7.656   6.903   1.785
 2660TIP3    H2 7926   7.593   6.967   1.663
 2661TIP3   OH2 7927   3.350   3.276   6.136
 2661TIP3    H1 7928   3.415   3.304   6.072
 2661TIP3    H2 7929   3.333   3.353   6.190
 2662TIP3   OH2 7930   2.846   3.558   3.646
 2662TIP3    H1 7931   2.784   3.500   3.601
 2662TIP3    H2 7932   2.915   3.499   3.676
 2663TIP3   OH2 7933   1.075   3.590   2.936
 2663TIP3    H1 7934   1.149   3.622   2.987
 2663TIP3    H2 7935   1.010   3.660   2.942
 2664TIP3   OH2 7936   8.006   0.802   5.552
 2664TIP3    H1 7937   8.088   0.764   5.584
 2664TIP3    H2 7938   8.016   0.896   5.569
 2665TIP3   OH2 7939   7.496   6.613   0.957
 2665TIP3    H1 7940   7.460   6.546   0.898
 2665TIP3    H2 7941   7.587   6.624   0.928
 2666TIP3   OH2 7942   5.741   3.084   2.403
 2666TIP3    H1 7943   5.692   3.144   2.346
 2666TIP3    H2 7944   5.778   3.020   2.342
 2667TIP3   OH2 7945   3.122   0.013   6.579
 2667TIP3    H1 7946   3.205  -0.023   6.546
 2667TIP3    H2 7947   3.103   0.087   6.521
 2668TIP3   OH2 7948   4.091   2.406   4.456
 2668TIP3    H1 7949   4.003   2.395   4.420
 2668TIP3    H2 7950   4.100   2.335   4.520
 2669TIP3   OH2 7951   5.693   1.678   3.786
 2669TIP3    H1 7952   5.602   1.700   3.805
 2669TIP3    H2 7953   5.737   1.687   3.871
 2670TIP3   OH2 7954   0.651   1.177   1.114
 2670TIP3    H1 7955   0.721   1.176   1.049
 2670TIP3    H2 7956   0.575   1.139   1.069
 2671TIP3   OH2 7957   0.795   6.635   0.812
 2671TIP3    H1 7958   0.852   6.570   0.772
 2671TIP3    H2 7959   0.832   6.719   0.784
 2672TIP3   OH2 7960   6.469   1.772   1.962
 2672TIP3    H1 7961   6.485   1.815   2.045
 2672TIP3    H2 7962   6.441   1.842   1.903
 2673TIP3   OH2 7963   7.241   1.355   3.575
 2673TIP3    H1 7964   7.160   1.303   3.576
 2673TIP3    H2 7965   7.278   1.338   3.488
 2674TIP3   OH2 7966   3.237   0.551   2.494
 2674TIP3    H1 7967   3.145   0.525   2.498
 2674TIP3    H2 7968   3.285   0.469   2.507
 2675TIP3   OH2 7969   4.488   2.100   4.952
 2675TIP3    H1 7970   4.556   2.055   4.903
 2675TIP3    H2 7971   4.512   2.088   5.044
 2676TIP3   OH2 7972   7.832   0.145   0.738
 2676TIP3    H1 7973   7.761   0.093   0.777
 2676TIP3    H2 7974   7.791   0.230   0.718
 2677TIP3   OH2 7975   5.554   4.747   1.744
 2677TIP3    H1 7976   5.500   4.760   1.822
 2677TIP3    H2 7977   5.601   4.830   1.734
 2678TIP3   OH2 7978   4.308   2.984   1.109
 2678TIP3    H1 7979   4.360   2.915   1.149
 2678TIP3    H2 7980   4.224   2.943   1.091
 2679TIP3   OH2 7981   7.458   7.034   1.471
 2679TIP3    H1 7982   7.541   7.017   1.425
 2679TIP3    H2 7983   7.391   7.015   1.406
 2680TIP3   OH2 7984   0.038   4.393   0.655
 2680TIP3    H1 7985   0.052   4.457   0.725
 2680TIP3    H2 7986  -0.040   4.345   0.682
 2681TIP3   OH2 7987   4.482   5.287   0.104
 2681TIP3    H1 7988   4.431   5.263   0.182
 2681TIP3    H2 7989   4.549   5.346   0.137
 2682TIP3   OH2 7990   0.392   0.226   6.465
 2682TIP3    H1 7991   0.446   0.264   6.534
 2682TIP3    H2 7992   0.431   0.258   6.384
 2683TIP3   OH2 7993   7.281   3.572   5.120
 2683TIP3    H1 7994   7.239   3.553   5.036
 2683TIP3    H2 7995   7.374   3.577   5.099
 2684TIP3   OH2 7996   7.857   4.351   4.130
 2684TIP3    H1 7997   7.924   4.357   4.198
 2684TIP3    H2 7998   7.802   4.428   4.143
 2685TIP3   OH2 7999   5.470   3.876   4.648
 2685TIP3    H1 8000   5.388   3.830   4.625
 2685TIP3    H2 8001   5.532   3.847   4.581
 2686TIP3   OH2 8002   2.868   6.708   1.602
 2686TIP3    H1 8003   2.956   6.741   1.585
 2686TIP3    H2 8004   2.812   6.785   1.595
 2687TIP3   OH2 8005   1.530   3.498   3.729
 2687TIP3    H1 8006   1.523   3.405   3.707
 2687TIP3    H2 8007   1.482   3.507   3.811
 2688TIP3   OH2 8008   0.860   5.159   3.498
 2688TIP3    H1 8009   0.929   5.211   3.539
 2688TIP3    H2 8010   0.818   5.114   3.570
 2689TIP3   OH2 8011   1.830   4.093   3.937
 2689TIP3    H1 8012   1.835   4.137   4.021
 2689TIP3    H2 8013   1.875   4.151   3.876
 2690TIP3   OH2 8014   6.040   0.379   0.512
 2690TIP3    H1 8015   5.986   0.312   0.470
 2690TIP3    H2 8016   6.003   0.388   0.600
 2691TIP3   OH2 8017   6.111   1.378   4.421
 2691TIP3    H1 8018   6.116   1.387   4.326
 2691TIP3    H2 8019   6.201   1.385   4.451
 2692TIP3   OH2 8020   4.777   0.190   5.103
 2692TIP3    H1 8021   4.849   0.137   5.070
 2692TIP3    H2 8022   4.722   0.129   5.152
 2693TIP3   OH2 8023   8.065   7.650   4.949
 2693TIP3    H1 8024   8.050   7.596   5.027
 2693TIP3    H2 8025   7.977   7.682   4.926
 2694TIP3   OH2 8026   2.221   2.095   1.679
 2694TIP3    H1 8027   2.238   2.125   1.768
 2694TIP3    H2 8028   2.293   2.036   1.659
 2695TIP3   OH2 8029   6.910   0.728   5.929
 2695TIP3    H1 8030   6.970   0.799   5.907
 2695TIP3    H2 8031   6.964   0.666   5.978
 2696TIP3   OH2 8032   4.622   1.946   3.471
 2696TIP3    H1 8033   4.569   1.967   3.548
 2696TIP3    H2 8034   4.613   2.024   3.415
 2697TIP3   OH2 8035   4.028   6.802   1.534
 2697TIP3    H1 8036   4.090   6.731   1.516
 2697TIP3    H2 8037   4.072   6.855   1.601
 2698TIP3   OH2 8038   2.445   0.440   6.426
 2698TIP3    H1 8039   2.465   0.526   6.463
 2698TIP3    H2 8040   2.497   0.436   6.346
 2699TIP3   OH2 8041   2.190   4.080   5.026
 2699TIP3    H1 8042   2.154   4.065   5.113
 2699TIP3    H2 8043   2.120   4.056   4.965
 2700TIP3   OH2 8044   0.157   0.098   6.578
 2700TIP3    H1 8045   0.209   0.045   6.639
 2700TIP3    H2 8046   0.220   0.156   6.537
 2701TIP3   OH2 8047   3.634   2.438   5.812
 2701TIP3    H1 8048   3.647   2.436   5.717
 2701TIP3    H2 8049   3.613   2.347   5.834
 2702TIP3   OH2 8050   8.184   1.212   6.056
 2702TIP3    H1 8051   8.131   1.265   5.996
 2702TIP3    H2 8052   8.149   1.123   6.046
 2703TIP3   OH2 8053   2.478   1.643   2.169
 2703TIP3    H1 8054   2.417   1.715   2.156
 2703TIP3    H2 8055   2.556   1.667   2.118
 2704TIP3   OH2 8056   0.095   7.353   3.862
 2704TIP3    H1 8057   0.092   7.305   3.945
 2704TIP3    H2 8058   0.127   7.289   3.798
 2705TIP3   OH2 8059   8.139   4.758   5.585
 2705TIP3    H1 8060   8.113   4.847   5.611
 2705TIP3    H2 8061   8.150   4.763   5.490
 2706TIP3   OH2 8062   7.547   2.550   3.707
 2706TIP3    H1 8063   7.483   2.480   3.720
 2706TIP3    H2 8064   7.497   2.631   3.717
 2707TIP3   OH2 8065   1.251   5.342   1.127
 2707TIP3    H1 8066   1.260   5.269   1.188
 2707TIP3    H2 8067   1.244   5.302   1.041
 2708TIP3   OH2 8068   5.994   0.157   4.305
 2708TIP3    H1 8069   6.038   0.132   4.224
 2708TIP3    H2 8070   6.048   0.118   4.375
 2709TIP3   OH2 8071   7.912   3.754   4.656
 2709TIP3    H1 8072   7.824   3.774   4.687
 2709TIP3    H2 8073   7.955   3.839   4.647
 2710TIP3   OH2 8074   7.802   3.117   4.036
 2710TIP3    H1 8075   7.772   3.158   3.955
 2710TIP3    H2 8076   7.867   3.052   4.007
 2711TIP3   OH2 8077   1.663   7.407   2.159
 2711TIP3    H1 8078   1.729   7.390   2.226
 2711TIP3    H2 8079   1.710   7.395   2.076
 2712TIP3   OH2 8080   4.518   2.919   5.458
 2712TIP3    H1 8081   4.577   2.874   5.398
 2712TIP3    H2 8082   4.451   2.854   5.478
 2713TIP3   OH2 8083   6.237   4.852   2.083
 2713TIP3    H1 8084   6.324   4.855   2.123
 2713TIP3    H2 8085   6.183   4.805   2.147
 2714TIP3   OH2 8086   1.475   3.239   3.655
 2714TIP3    H1 8087   1.542   3.189   3.608
 2714TIP3    H2 8088   1.440   3.177   3.719
 2715TIP3   OH2 8089   4.830   7.253   5.630
 2715TIP3    H1 8090   4.900   7.317   5.618
 2715TIP3    H2 8091   4.821   7.210   5.545
 2716TIP3   OH2 8092   1.165   6.769   2.434
 2716TIP3    H1 8093   1.095   6.733   2.488
 2716TIP3    H2 8094   1.124   6.782   2.348
 2717TIP3   OH2 8095   1.330   5.855   1.300
 2717TIP3    H1 8096   1.352   5.769   1.338
 2717TIP3    H2 8097   1.295   5.834   1.214
 2718TIP3   OH2 8098   5.581   7.690   2.805
 2718TIP3    H1 8099   5.598   7.699   2.711
 2718TIP3    H2 8100   5.664   7.712   2.847
 2719TIP3   OH2 8101   2.777   1.819   2.617
 2719TIP3    H1 8102   2.822   1.876   2.680
 2719TIP3    H2 8103   2.699   1.789   2.665
 2720TIP3   OH2 8104   0.695   6.373   4.066
 2720TIP3    H1 8105   0.610   6.362   4.110
 2720TIP3    H2 8106   0.704   6.293   4.013
 2721TIP3   OH2 8107   0.842   6.702   4.636
 2721TIP3    H1 8108   0.814   6.664   4.553
 2721TIP3    H2 8109   0.765   6.748   4.668
 2722TIP3   OH2 8110   1.858   1.822   1.296
 2722TIP3    H1 8111   1.944   1.818   1.253
 2722TIP3    H2 8112   1.844   1.915   1.314
 2723TIP3   OH2 8113   6.923   4.615   0.959
 2723TIP3    H1 8114   6.950   4.617   1.051
 2723TIP3    H2 8115   6.984   4.553   0.918
 2724TIP3   OH2 8116   6.472   5.184   0.499
 2724TIP3    H1 8117   6.384   5.145   0.499
 2724TIP3    H2 8118   6.464   5.258   0.438
 2725TIP3   OH2 8119   1.857   7.085   4.156
 2725TIP3    H1 8120   1.884   7.172   4.128
 2725TIP3    H2 8121   1.843   7.037   4.074
 2726TIP3   OH2 8122   3.602   3.737   1.991
 2726TIP3    H1 8123   3.535   3.759   2.055
 2726TIP3    H2 8124   3.629   3.821   1.955
 2727TIP3   OH2 8125   1.435   6.046   5.131
 2727TIP3    H1 8126   1.462   6.074   5.044
 2727TIP3    H2 8127   1.506   6.075   5.189
 2728TIP3   OH2 8128   2.042   3.176   1.615
 2728TIP3    H1 8129   2.067   3.091   1.577
 2728TIP3    H2 8130   2.048   3.237   1.541
 2729TIP3   OH2 8131   4.117   2.667   5.748
 2729TIP3    H1 8132   4.084   2.577   5.744
 2729TIP3    H2 8133   4.115   2.690   5.840
 2730TIP3   OH2 8134   5.866   4.035   2.252
 2730TIP3    H1 8135   5.935   4.057   2.316
 2730TIP3    H2 8136   5.914   3.999   2.178
 2731TIP3   OH2 8137   0.975   4.321   0.854
 2731TIP3    H1 8138   0.893   4.271   0.851
 2731TIP3    H2 8139   0.948   4.412   0.846
 2732TIP3   OH2 8140   3.374   2.513   5.638
 2732TIP3    H1 8141   3.408   2.571   5.706
 2732TIP3    H2 8142   3.452   2.468   5.604
 2733TIP3   OH2 8143   2.586   7.261   4.330
 2733TIP3    H1 8144   2.624   7.176   4.312
 2733TIP3    H2 8145   2.641   7.298   4.399
 2734TIP3   OH2 8146   6.049   1.904   1.745
 2734TIP3    H1 8147   6.051   2.000   1.748
 2734TIP3    H2 8148   5.984   1.880   1.811
 2735TIP3   OH2 8149   5.279   0.978   1.295
 2735TIP3    H1 8150   5.195   1.001   1.335
 2735TIP3    H2 8151   5.271   1.006   1.203
 2736TIP3   OH2 8152   2.655   5.455   4.213
 2736TIP3    H1 8153   2.681   5.393   4.145
 2736TIP3    H2 8154   2.597   5.517   4.169
 2737TIP3   OH2 8155   3.794   5.906   5.604
 2737TIP3    H1 8156   3.790   5.953   5.687
 2737TIP3    H2 8157   3.745   5.960   5.543
 2738TIP3   OH2 8158   6.103   1.690   4.669
 2738TIP3    H1 8159   6.142   1.647   4.745
 2738TIP3    H2 8160   6.111   1.784   4.688
 2739TIP3   OH2 8161   2.353   5.500   3.923
 2739TIP3    H1 8162   2.278   5.442   3.934
 2739TIP3    H2 8163   2.418   5.447   3.877
 2740TIP3   OH2 8164   1.826   0.822   5.431
 2740TIP3    H1 8165   1.788   0.837   5.344
 2740TIP3    H2 8166   1.892   0.754   5.416
 2741TIP3   OH2 8167   0.776   5.452   6.347
 2741TIP3    H1 8168   0.855   5.423   6.300
 2741TIP3    H2 8169   0.719   5.487   6.278
 2742TIP3   OH2 8170   2.038   1.122   6.044
 2742TIP3    H1 8171   1.998   1.085   5.966
 2742TIP3    H2 8172   1.975   1.106   6.114
 2743TIP3   OH2 8173   0.574   4.342   4.838
 2743TIP3    H1 8174   0.506   4.277   4.856
 2743TIP3    H2 8175   0.526   4.425   4.831
 2744TIP3   OH2 8176   2.707   2.001   2.414
 2744TIP3    H1 8177   2.614   1.997   2.436
 2744TIP3    H2 8178   2.748   1.937   2.473
 2745TIP3   OH2 8179   5.224   0.364   4.246
 2745TIP3    H1 8180   5.145   0.397   4.203
 2745TIP3    H2 8181   5.283   0.341   4.175
 2746TIP3   OH2 8182   4.319   7.535   2.165
 2746TIP3    H1 8183   4.240   7.485   2.182
 2746TIP3    H2 8184   4.377   7.472   2.121
 2747TIP3   OH2 8185   7.694   2.427   0.449
 2747TIP3    H1 8186   7.755   2.365   0.409
 2747TIP3    H2 8187   7.618   2.427   0.391
 2748TIP3   OH2 8188   0.766   0.632   0.038
 2748TIP3    H1 8189   0.708   0.650   0.113
 2748TIP3    H2 8190   0.841   0.586   0.077
 2749TIP3   OH2 8191   2.430   5.591   1.529
 2749TIP3    H1 8192   2.409   5.664   1.471
 2749TIP3    H2 8193   2.423   5.629   1.617
 2750TIP3   OH2 8194   0.905   5.045   6.016
 2750TIP3    H1 8195   0.885   5.109   5.948
 2750TIP3    H2 8196   0.841   4.976   6.004
 2751TIP3   OH2 8197   0.125   0.795   0.761
 2751TIP3    H1 8198   0.177   0.865   0.722
 2751TIP3    H2 8199   0.182   0.756   0.827
 2752TIP3   OH2 8200   7.654   5.319   6.595
 2752TIP3    H1 8201   7.747   5.326   6.574
 2752TIP3    H2 8202   7.633   5.227   6.577
 2753TIP3   OH2 8203   1.882   2.287   2.968
 2753TIP3    H1 8204   1.976   2.275   2.976
 2753TIP3    H2 8205   1.864   2.279   2.875
 2754TIP3   OH2 8206   8.202   4.196   0.366
 2754TIP3    H1 8207   8.261   4.159   0.431
 2754TIP3    H2 8208   8.117   4.155   0.384
 2755TIP3   OH2 8209   5.768   7.657   5.810
 2755TIP3    H1 8210   5.815   7.739   5.794
 2755TIP3    H2 8211   5.696   7.683   5.868
 2756TIP3   OH2 8212   0.013   3.595   3.026
 2756TIP3    H1 8213   0.086   3.630   2.974
 2756TIP3    H2 8214   0.043   3.508   3.054
 2757TIP3   OH2 8215   0.469   6.549   0.548
 2757TIP3    H1 8216   0.530   6.613   0.513
 2757TIP3    H2 8217   0.522   6.470   0.562
 2758TIP3   OH2 8218   3.828   0.249   6.590
 2758TIP3    H1 8219   3.775   0.285   6.519
 2758TIP3    H2 8220   3.823   0.315   6.660
 2759TIP3   OH2 8221   2.857   4.531   5.676
 2759TIP3    H1 8222   2.893   4.457   5.726
 2759TIP3    H2 8223   2.869   4.505   5.584
 2760TIP3   OH2 8224   5.228   5.264   3.001
 2760TIP3    H1 8225   5.141   5.299   3.020
 2760TIP3    H2 8226   5.241   5.281   2.907
 2761TIP3   OH2 8227   3.455   5.791   3.827
 2761TIP3    H1 8228   3.481   5.862   3.886
 2761TIP3    H2 8229   3.377   5.754   3.866
 2762TIP3   OH2 8230   2.338   4.573   5.613
 2762TIP3    H1 8231   2.346   4.542   5.523
 2762TIP3    H2 8232   2.408   4.637   5.623
 2763TIP3   OH2 8233   5.690   2.915   0.290
 2763TIP3    H1 8234   5.654   2.896   0.204
 2763TIP3    H2 8235   5.614   2.931   0.346
 2764TIP3   OH2 8236   0.529   4.290   2.959
 2764TIP3    H1 8237   0.576   4.333   3.031
 2764TIP3    H2 8238   0.436   4.300   2.982
 2765TIP3   OH2 8239   7.847   2.837   5.186
 2765TIP3    H1 8240   7.818   2.884   5.264
 2765TIP3    H2 8241   7.900   2.764   5.220
 2766TIP3   OH2 8242   1.111   7.463   1.555
 2766TIP3    H1 8243   1.202   7.490   1.551
 2766TIP3    H2 8244   1.072   7.497   1.474
 2767TIP3   OH2 8245   5.107   2.814   0.595
 2767TIP3    H1 8246   5.122   2.903   0.563
 2767TIP3    H2 8247   5.013   2.801   0.589
 2768TIP3   OH2 8248   0.792   1.645   3.689
 2768TIP3    H1 8249   0.825   1.724   3.646
 2768TIP3    H2 8250   0.700   1.639   3.663
 2769TIP3   OH2 8251   1.212   7.577   4.406
 2769TIP3    H1 8252   1.241   7.615   4.489
 2769TIP3    H2 8253   1.287   7.588   4.347
 2770TIP3   OH2 8254   4.993   6.370   0.753
 2770TIP3    H1 8255   4.897   6.367   0.757
 2770TIP3    H2 8256   5.017   6.440   0.814
 2771TIP3   OH2 8257   7.244   4.055   0.880
 2771TIP3    H1 8258   7.278   4.069   0.968
 2771TIP3    H2 8259   7.243   4.143   0.840
 2772TIP3   OH2 8260   3.159   0.251   5.330
 2772TIP3    H1 8261   3.118   0.256   5.244
 2772TIP3    H2 8262   3.252   0.266   5.313
 2773TIP3   OH2 8263   5.953   5.062   4.967
 2773TIP3    H1 8264   6.043   5.029   4.964
 2773TIP3    H2 8265   5.908   5.014   4.898
 2774TIP3   OH2 8266   1.609   7.716   5.447
 2774TIP3    H1 8267   1.681   7.682   5.500
 2774TIP3    H2 8268   1.642   7.713   5.357
 2775TIP3   OH2 8269   4.806   6.038   1.379
 2775TIP3    H1 8270   4.792   6.058   1.472
 2775TIP3    H2 8271   4.895   6.068   1.361
 2776TIP3   OH2 8272   2.565   5.294   6.515
 2776TIP3    H1 8273   2.551   5.203   6.540
 2776TIP3    H2 8274   2.539   5.297   6.422
 2777TIP3   OH2 8275   4.729   4.539   6.293
 2777TIP3    H1 8276   4.779   4.479   6.238
 2777TIP3    H2 8277   4.676   4.589   6.232
 2778TIP3   OH2 8278   2.767   7.456   5.331
 2778TIP3    H1 8279   2.724   7.465   5.416
 2778TIP3    H2 8280   2.843   7.401   5.348
 2779TIP3   OH2 8281   1.407   7.161   3.274
 2779TIP3    H1 8282   1.464   7.169   3.350
 2779TIP3    H2 8283   1.382   7.252   3.253
 2780TIP3   OH2 8284   0.668   1.154   3.221
 2780TIP3    H1 8285   0.713   1.071   3.235
 2780TIP3    H2 8286   0.628   1.146   3.134
 2781TIP3   OH2 8287   2.528   1.647   5.041
 2781TIP3    H1 8288   2.435   1.656   5.019
 2781TIP3    H2 8289   2.535   1.686   5.128
 2782TIP3   OH2 8290   3.417   2.996   5.037
 2782TIP3    H1 8291   3.439   2.919   5.089
 2782TIP3    H2 8292   3.422   3.069   5.098
 2783TIP3   OH2 8293   1.924   7.270   0.944
 2783TIP3    H1 8294   1.876   7.353   0.942
 2783TIP3    H2 8295   1.858   7.204   0.964
 2784TIP3   OH2 8296   4.081   1.715   0.723
 2784TIP3    H1 8297   4.158   1.768   0.740
 2784TIP3    H2 8298   4.078   1.651   0.794
 2785TIP3   OH2 8299   4.981   0.588   1.707
 2785TIP3    H1 8300   4.957   0.497   1.688
 2785TIP3    H2 8301   4.897   0.632   1.723
 2786TIP3   OH2 8302   5.812   1.100   6.480
 2786TIP3    H1 8303   5.843   1.125   6.393
 2786TIP3    H2 8304   5.732   1.151   6.494
 2787TIP3   OH2 8305   7.155   4.301   3.752
 2787TIP3    H1 8306   7.138   4.294   3.846
 2787TIP3    H2 8307   7.210   4.380   3.744
 2788TIP3   OH2 8308   8.296   2.058   4.608
 2788TIP3    H1 8309   8.351   2.058   4.686
 2788TIP3    H2 8310   8.208   2.075   4.641
 2789TIP3   OH2 8311   8.157   0.254   0.091
 2789TIP3    H1 8312   8.163   0.169   0.046
 2789TIP3    H2 8313   8.211   0.313   0.038
 2790TIP3   OH2 8314   2.406   3.845   6.324
 2790TIP3    H1 8315   2.479   3.892   6.285
 2790TIP3    H2 8316   2.330   3.901   6.308
 2791TIP3   OH2 8317   4.009   3.220   4.644
 2791TIP3    H1 8318   4.003   3.212   4.739
 2791TIP3    H2 8319   3.965   3.302   4.623
 2792TIP3   OH2 8320   0.739   1.777   2.553
 2792TIP3    H1 8321   0.757   1.797   2.461
 2792TIP3    H2 8322   0.740   1.863   2.596
 2793TIP3   OH2 8323   6.030   1.292   4.733
 2793TIP3    H1 8324   6.024   1.367   4.674
 2793TIP3    H2 8325   6.043   1.217   4.675
 2794TIP3   OH2 8326   6.680   0.647   2.881
 2794TIP3    H1 8327   6.748   0.628   2.945
 2794TIP3    H2 8328   6.626   0.568   2.880
 2795TIP3   OH2 8329   5.436   4.682   1.514
 2795TIP3    H1 8330   5.460   4.672   1.606
 2795TIP3    H2 8331   5.371   4.614   1.499
 2796TIP3   OH2 8332   7.054   4.510   6.752
 2796TIP3    H1 8333   7.041   4.440   6.688
 2796TIP3    H2 8334   7.127   4.561   6.717
 2797TIP3   OH2 8335   1.226   3.963   3.411
 2797TIP3    H1 8336   1.227   3.876   3.451
 2797TIP3    H2 8337   1.142   3.968   3.365
 2798TIP3   OH2 8338   4.094   7.640   0.480
 2798TIP3    H1 8339   4.062   7.570   0.423
 2798TIP3    H2 8340   4.043   7.717   0.454
 2799TIP3   OH2 8341   5.183   3.225   1.267
 2799TIP3    H1 8342   5.230   3.142   1.264
 2799TIP3    H2 8343   5.133   3.222   1.349
 2800TIP3   OH2 8344   7.356   5.589   4.545
 2800TIP3    H1 8345   7.394   5.606   4.459
 2800TIP3    H2 8346   7.290   5.657   4.556
 2801TIP3   OH2 8347   3.985   3.935   1.026
 2801TIP3    H1 8348   4.053   3.867   1.030
 2801TIP3    H2 8349   4.011   3.989   0.950
 2802TIP3   OH2 8350   1.465   2.782   3.228
 2802TIP3    H1 8351   1.509   2.697   3.233
 2802TIP3    H2 8352   1.535   2.847   3.234
 2803TIP3   OH2 8353   5.940   6.038   2.982
 2803TIP3    H1 8354   5.959   6.081   2.898
 2803TIP3    H2 8355   6.026   6.028   3.023
 2804TIP3   OH2 8356   5.420   3.872   5.249
 2804TIP3    H1 8357   5.379   3.901   5.168
 2804TIP3    H2 8358   5.405   3.778   5.251
 2805TIP3   OH2 8359   1.374   4.205   0.140
 2805TIP3    H1 8360   1.303   4.198   0.076
 2805TIP3    H2 8361   1.401   4.297   0.137
 2806TIP3   OH2 8362   0.662   3.122   4.031
 2806TIP3    H1 8363   0.567   3.114   4.020
 2806TIP3    H2 8364   0.698   3.061   3.966
 2807TIP3   OH2 8365   2.475   3.839   5.570
 2807TIP3    H1 8366   2.416   3.851   5.644
 2807TIP3    H2 8367   2.519   3.756   5.589
 2808TIP3   OH2 8368   7.347   2.602   5.550
 2808TIP3    H1 8369   7.389   2.687   5.538
 2808TIP3    H2 8370   7.364   2.580   5.642
 2809TIP3   OH2 8371   6.062   6.343   1.815
 2809TIP3    H1 8372   6.015   6.382   1.889
 2809TIP3    H2 8373   6.138   6.399   1.802
 2810TIP3   OH2 8374   7.495   6.444   0.370
 2810TIP3    H1 8375   7.579   6.402   0.389
 2810TIP3    H2 8376   7.482   6.505   0.442
 2811TIP3   OH2 8377   5.080   1.640   3.723
 2811TIP3    H1 8378   5.083   1.727   3.683
 2811TIP3    H2 8379   5.138   1.646   3.799
 2812TIP3   OH2 8380   0.898   2.419   3.228
 2812TIP3    H1 8381   0.945   2.337   3.212
 2812TIP3    H2 8382   0.843   2.430   3.150
 2813TIP3   OH2 8383   5.343   0.036   4.372
 2813TIP3    H1 8384   5.424  -0.007   4.402
 2813TIP3    H2 8385   5.369   0.126   4.354
 2814TIP3   OH2 8386   4.727   0.760   3.679
 2814TIP3    H1 8387   4.693   0.720   3.759
 2814TIP3    H2 8388   4.660   0.743   3.613
 2815TIP3   OH2 8389   8.151   7.787   5.223
 2815TIP3    H1 8390   8.240   7.759   5.200
 2815TIP3    H2 8391   8.096   7.750   5.154
 2816TIP3   OH2 8392   3.112   0.592   4.615
 2816TIP3    H1 8393   3.157   0.574   4.697
 2816TIP3    H2 8394   3.109   0.507   4.570
 2817TIP3   OH2 8395   4.134   0.095   6.572
 2817TIP3    H1 8396   4.164   0.091   6.481
 2817TIP3    H2 8397   4.213   0.084   6.624
 2818TIP3   OH2 8398   3.924   3.090   2.199
 2818TIP3    H1 8399   3.869   3.026   2.155
 2818TIP3    H2 8400   4.006   3.042   2.217
 2819TIP3   OH2 8401   6.947   6.488   1.414
 2819TIP3    H1 8402   6.893   6.549   1.364
 2819TIP3    H2 8403   6.989   6.433   1.348
 2820TIP3   OH2 8404   7.945   0.549   1.411
 2820TIP3    H1 8405   7.931   0.519   1.321
 2820TIP3    H2 8406   7.884   0.622   1.422
 2821TIP3   OH2 8407   3.716   4.853   6.745
 2821TIP3    H1 8408   3.673   4.803   6.675
 2821TIP3    H2 8409   3.645   4.872   6.807
 2822TIP3   OH2 8410   3.521   4.136   6.618
 2822TIP3    H1 8411   3.603   4.094   6.591
 2822TIP3    H2 8412   3.470   4.144   6.537
 2823TIP3   OH2 8413   0.578   6.293   0.605
 2823TIP3    H1 8414   0.634   6.216   0.607
 2823TIP3    H2 8415   0.491   6.260   0.630
 2824TIP3   OH2 8416   3.544   5.842   1.294
 2824TIP3    H1 8417   3.514   5.755   1.318
 2824TIP3    H2 8418   3.465   5.897   1.298
 2825TIP3   OH2 8419   7.820   5.816   5.057
 2825TIP3    H1 8420   7.831   5.885   5.123
 2825TIP3    H2 8421   7.726   5.813   5.041
 2826TIP3   OH2 8422   2.721   2.638   6.559
 2826TIP3    H1 8423   2.702   2.651   6.466
 2826TIP3    H2 8424   2.655   2.690   6.605
 2827TIP3   OH2 8425   1.543   7.634   4.875
 2827TIP3    H1 8426   1.511   7.548   4.847
 2827TIP3    H2 8427   1.615   7.614   4.935
 2828TIP3   OH2 8428   6.208   6.642   6.401
 2828TIP3    H1 8429   6.238   6.631   6.491
 2828TIP3    H2 8430   6.125   6.689   6.409
 2829TIP3   OH2 8431   4.483   2.719   6.175
 2829TIP3    H1 8432   4.494   2.782   6.104
 2829TIP3    H2 8433   4.445   2.642   6.134
 2830TIP3   OH2 8434   2.035   1.400   3.720
 2830TIP3    H1 8435   2.075   1.323   3.759
 2830TIP3    H2 8436   2.044   1.469   3.786
 2831TIP3   OH2 8437   5.338   2.654   4.780
 2831TIP3    H1 8438   5.296   2.704   4.850
 2831TIP3    H2 8439   5.293   2.569   4.782
 2832TIP3   OH2 8440   7.425   6.161  -0.022
 2832TIP3    H1 8441   7.484   6.141   0.051
 2832TIP3    H2 8442   7.418   6.256  -0.021
 2833TIP3   OH2 8443   4.811   2.442   1.433
 2833TIP3    H1 8444   4.731   2.391   1.445
 2833TIP3    H2 8445   4.781   2.529   1.409
 2834TIP3   OH2 8446   7.007   7.500   5.859
 2834TIP3    H1 8447   7.084   7.497   5.802
 2834TIP3    H2 8448   6.986   7.409   5.876
 2835TIP3   OH2 8449   4.783   6.010   0.549
 2835TIP3    H1 8450   4.812   5.957   0.475
 2835TIP3    H2 8451   4.791   6.100   0.520
 2836TIP3   OH2 8452   6.849   4.967   1.292
 2836TIP3    H1 8453   6.812   4.879   1.292
 2836TIP3    H2 8454   6.931   4.958   1.342
 2837TIP3   OH2 8455   1.560   2.078   2.073
 2837TIP3    H1 8456   1.558   2.163   2.118
 2837TIP3    H2 8457   1.544   2.014   2.143
 2838TIP3   OH2 8458   3.505   3.850   2.333
 2838TIP3    H1 8459   3.466   3.847   2.420
 2838TIP3    H2 8460   3.541   3.762   2.320
 2839TIP3   OH2 8461   7.077   7.746   2.259
 2839TIP3    H1 8462   7.037   7.797   2.188
 2839TIP3    H2 8463   7.007   7.689   2.290
 2840TIP3   OH2 8464   7.248   1.881   3.910
 2840TIP3    H1 8465   7.165   1.835   3.926
 2840TIP3    H2 8466   7.296   1.875   3.992
 2841TIP3   OH2 8467   2.686   1.135   4.761
 2841TIP3    H1 8468   2.747   1.208   4.765
 2841TIP3    H2 8469   2.705   1.091   4.678
 2842TIP3   OH2 8470   1.552   4.915   3.647
 2842TIP3    H1 8471   1.570   4.822   3.637
 2842TIP3    H2 8472   1.638   4.956   3.650
 2843TIP3   OH2 8473   1.907   4.585   2.048
 2843TIP3    H1 8474   1.835   4.612   2.106
 2843TIP3    H2 8475   1.896   4.490   2.039
 2844TIP3   OH2 8476   2.775   5.826   5.938
 2844TIP3    H1 8477   2.836   5.881   5.889
 2844TIP3    H2 8478   2.715   5.889   5.979
 2845TIP3   OH2 8479   0.496   5.758   6.338
 2845TIP3    H1 8480   0.408   5.775   6.373
 2845TIP3    H2 8481   0.506   5.663   6.343
 2846TIP3   OH2 8482   4.324   7.155   2.217
 2846TIP3    H1 8483   4.354   7.123   2.302
 2846TIP3    H2 8484   4.364   7.242   2.209
 2847TIP3   OH2 8485   6.146   5.312   4.405
 2847TIP3    H1 8486   6.162   5.315   4.499
 2847TIP3    H2 8487   6.060   5.271   4.397
 2848TIP3   OH2 8488   4.392   2.038   2.484
 2848TIP3    H1 8489   4.388   2.068   2.575
 2848TIP3    H2 8490   4.397   2.119   2.432
 2849TIP3   OH2 8491   6.930   4.702   0.449
 2849TIP3    H1 8492   6.933   4.633   0.382
 2849TIP3    H2 8493   6.837   4.711   0.470
 2850TIP3   OH2 8494   1.087   4.334   1.093
 2850TIP3    H1 8495   1.042   4.395   1.151
 2850TIP3    H2 8496   1.052   4.352   1.006
 2851TIP3   OH2 8497   4.226   3.508   4.710
 2851TIP3    H1 8498   4.257   3.430   4.757
 2851TIP3    H2 8499   4.164   3.474   4.646
 2852TIP3   OH2 8500   6.615   2.444   4.796
 2852TIP3    H1 8501   6.657   2.449   4.711
 2852TIP3    H2 8502   6.557   2.368   4.790
 2853TIP3   OH2 8503   3.992   4.286   2.664
 2853TIP3    H1 8504   3.972   4.253   2.751
 2853TIP3    H2 8505   3.970   4.379   2.668
 2854TIP3   OH2 8506   7.183   2.957   4.123
 2854TIP3    H1 8507   7.267   2.980   4.162
 2854TIP3    H2 8508   7.125   3.030   4.145
 2855TIP3   OH2 8509   7.198   7.493   0.393
 2855TIP3    H1 8510   7.234   7.566   0.442
 2855TIP3    H2 8511   7.128   7.458   0.448
 2856TIP3   OH2 8512   3.667   0.419   0.659
 2856TIP3    H1 8513   3.631   0.474   0.590
 2856TIP3    H2 8514   3.723   0.478   0.711
 2857TIP3   OH2 8515   1.352   2.590   1.772
 2857TIP3    H1 8516   1.281   2.654   1.759
 2857TIP3    H2 8517   1.419   2.616   1.709
 2858TIP3   OH2 8518   1.488   1.015   6.182
 2858TIP3    H1 8519   1.454   1.104   6.191
 2858TIP3    H2 8520   1.434   0.962   6.241
 2859TIP3   OH2 8521   1.955   2.676   4.258
 2859TIP3    H1 8522   1.998   2.660   4.342
 2859TIP3    H2 8523   1.873   2.627   4.263
 2860TIP3   OH2 8524   5.263   2.596   5.418
 2860TIP3    H1 8525   5.293   2.645   5.342
 2860TIP3    H2 8526   5.196   2.651   5.458
 2861TIP3   OH2 8527   1.569   0.148   4.581
 2861TIP3    H1 8528   1.549   0.077   4.642
 2861TIP3    H2 8529   1.662   0.140   4.564
 2862TIP3   OH2 8530   0.664   4.310   0.829
 2862TIP3    H1 8531   0.625   4.395   0.805
 2862TIP3    H2 8532   0.603   4.273   0.892
 2863TIP3   OH2 8533   1.261   7.569   6.009
 2863TIP3    H1 8534   1.230   7.657   5.991
 2863TIP3    H2 8535   1.353   7.570   5.984
 2864TIP3   OH2 8536   1.940   3.731   4.507
 2864TIP3    H1 8537   1.906   3.772   4.586
 2864TIP3    H2 8538   1.915   3.639   4.514
 2865TIP3   OH2 8539   7.225   1.549   2.941
 2865TIP3    H1 8540   7.273   1.535   3.023
 2865TIP3    H2 8541   7.154   1.486   2.943
 2866TIP3   OH2 8542   5.009   5.788   0.046
 2866TIP3    H1 8543   5.076   5.727   0.016
 2866TIP3    H2 8544   5.056   5.869   0.063
 2867TIP3   OH2 8545   4.347   4.179   4.115
 2867TIP3    H1 8546   4.303   4.094   4.113
 2867TIP3    H2 8547   4.294   4.235   4.060
 2868TIP3   OH2 8548   0.785   5.973   3.058
 2868TIP3    H1 8549   0.699   6.006   3.083
 2868TIP3    H2 8550   0.838   5.981   3.137
 2869TIP3   OH2 8551   4.185   6.754   0.903
 2869TIP3    H1 8552   4.245   6.788   0.836
 2869TIP3    H2 8553   4.102   6.743   0.858
 2870TIP3   OH2 8554   3.413   1.987   4.534
 2870TIP3    H1 8555   3.450   1.904   4.566
 2870TIP3    H2 8556   3.490   2.038   4.507
 2871TIP3   OH2 8557   3.245   4.826   0.357
 2871TIP3    H1 8558   3.270   4.911   0.321
 2871TIP3    H2 8559   3.149   4.826   0.355
 2872TIP3   OH2 8560   1.030   0.800   0.308
 2872TIP3    H1 8561   1.084   0.811   0.230
 2872TIP3    H2 8562   0.940   0.791   0.274
 2873TIP3   OH2 8563   7.320   6.417   0.850
 2873TIP3    H1 8564   7.270   6.478   0.904
 2873TIP3    H2 8565   7.256   6.384   0.787
 2874TIP3   OH2 8566   1.564   7.143   5.085
 2874TIP3    H1 8567   1.569   7.137   4.989
 2874TIP3    H2 8568   1.475   7.171   5.102
 2875TIP3   OH2 8569   5.690   4.876   2.018
 2875TIP3    H1 8570   5.676   4.892   1.925
 2875TIP3    H2 8571   5.759   4.809   2.021
 2876TIP3   OH2 8572   7.080   5.610   0.627
 2876TIP3    H1 8573   7.070   5.544   0.558
 2876TIP3    H2 8574   7.173   5.606   0.650
 2877TIP3   OH2 8575   4.114   2.861   5.110
 2877TIP3    H1 8576   4.118   2.884   5.017
 2877TIP3    H2 8577   4.071   2.936   5.152
 2878TIP3   OH2 8578   0.562  -0.018   5.017
 2878TIP3    H1 8579   0.473  -0.009   5.050
 2878TIP3    H2 8580   0.572   0.055   4.956
 2879TIP3   OH2 8581   0.586   4.391   2.531
 2879TIP3    H1 8582   0.663   4.400   2.587
 2879TIP3    H2 8583   0.542   4.311   2.562
 2880TIP3   OH2 8584   1.851   0.138   4.210
 2880TIP3    H1 8585   1.900   0.089   4.144
 2880TIP3    H2 8586   1.817   0.214   4.163
 2881TIP3   OH2 8587   7.021   2.663   0.475
 2881TIP3    H1 8588   6.947   2.622   0.520
 2881TIP3    H2 8589   6.981   2.718   0.408
 2882TIP3   OH2 8590   1.156   4.539   2.857
 2882TIP3    H1 8591   1.079   4.561   2.910
 2882TIP3    H2 8592   1.220   4.606   2.880
 2883TIP3   OH2 8593   5.028   0.402   3.713
 2883TIP3    H1 8594   5.074   0.470   3.664
 2883TIP3    H2 8595   4.936   0.425   3.707
 2884TIP3   OH2 8596   3.781   3.702   2.888
 2884TIP3    H1 8597   3.799   3.609   2.899
 2884TIP3    H2 8598   3.825   3.744   2.962
 2885TIP3   OH2 8599   1.399   2.046   6.020
 2885TIP3    H1 8600   1.392   2.135   6.056
 2885TIP3    H2 8601   1.452   1.999   6.083
 2886TIP3   OH2 8602   1.270   4.512   3.424
 2886TIP3    H1 8603   1.215   4.443   3.461
 2886TIP3    H2 8604   1.354   4.468   3.407
 2887TIP3   OH2 8605   7.874   1.090   1.095
 2887TIP3    H1 8606   7.886   0.995   1.099
 2887TIP3    H2 8607   7.821   1.111   1.172
 2888TIP3   OH2 8608   7.988   0.827   2.876
 2888TIP3    H1 8609   7.931   0.750   2.877
 2888TIP3    H2 8610   7.927   0.901   2.872
 2889TIP3   OH2 8611   1.578   1.765   1.192
 2889TIP3    H1 8612   1.652   1.776   1.252
 2889TIP3    H2 8613   1.597   1.684   1.144
 2890TIP3   OH2 8614   0.177   3.545   0.454
 2890TIP3    H1 8615   0.093   3.500   0.467
 2890TIP3    H2 8616   0.239   3.497   0.507
 2891TIP3   OH2 8617   7.265   7.146   0.329
 2891TIP3    H1 8618   7.239   7.093   0.254
 2891TIP3    H2 8619   7.200   7.126   0.396
 2892TIP3   OH2 8620   4.491   1.834   1.358
 2892TIP3    H1 8621   4.405   1.816   1.321
 2892TIP3    H2 8622   4.475   1.904   1.423
 2893TIP3   OH2 8623   1.982   3.518   2.932
 2893TIP3    H1 8624   2.067   3.474   2.937
 2893TIP3    H2 8625   1.922   3.450   2.901
 2894TIP3   OH2 8626   2.949   5.422   0.723
 2894TIP3    H1 8627   3.027   5.406   0.670
 2894TIP3    H2 8628   2.975   5.490   0.785
 2895TIP3   OH2 8629   4.270   2.281   1.491
 2895TIP3    H1 8630   4.226   2.210   1.537
 2895TIP3    H2 8631   4.242   2.272   1.400
 2896TIP3   OH2 8632   7.633   7.727   5.281
 2896TIP3    H1 8633   7.554   7.761   5.239
 2896TIP3    H2 8634   7.614   7.635   5.297
 2897TIP3   OH2 8635   6.583   7.550   4.947
 2897TIP3    H1 8636   6.582   7.471   4.893
 2897TIP3    H2 8637   6.499   7.593   4.928
 2898TIP3   OH2 8638   5.079   1.497   0.155
 2898TIP3    H1 8639   5.105   1.486   0.247
 2898TIP3    H2 8640   5.149   1.454   0.105
 2899TIP3   OH2 8641   7.614   7.814   1.753
 2899TIP3    H1 8642   7.548   7.759   1.711
 2899TIP3    H2 8643   7.669   7.845   1.681
 2900TIP3   OH2 8644   4.058   7.337   5.568
 2900TIP3    H1 8645   4.053   7.433   5.575
 2900TIP3    H2 8646   4.147   7.320   5.537
 2901TIP3   OH2 8647   8.226   4.870   6.615
 2901TIP3    H1 8648   8.157   4.882   6.549
 2901TIP3    H2 8649   8.281   4.800   6.579
 2902TIP3   OH2 8650   2.625   6.968   1.091
 2902TIP3    H1 8651   2.681   6.961   1.013
 2902TIP3    H2 8652   2.665   6.909   1.155
 2903TIP3   OH2 8653   4.649   4.344   6.529
 2903TIP3    H1 8654   4.664   4.438   6.517
 2903TIP3    H2 8655   4.717   4.302   6.478
 2904TIP3   OH2 8656   4.179   1.828   3.359
 2904TIP3    H1 8657   4.251   1.807   3.418
 2904TIP3    H2 8658   4.152   1.743   3.323
 2905TIP3   OH2 8659   0.643   3.911   4.318
 2905TIP3    H1 8660   0.692   3.841   4.361
 2905TIP3    H2 8661   0.704   3.985   4.317
 2906TIP3   OH2 8662   4.627   5.768   0.569
 2906TIP3    H1 8663   4.678   5.845   0.594
 2906TIP3    H2 8664   4.640   5.706   0.640
 2907TIP3   OH2 8665   7.661   5.427   3.478
 2907TIP3    H1 8666   7.715   5.354   3.509
 2907TIP3    H2 8667   7.577   5.387   3.455
 2908TIP3   OH2 8668   4.912   4.399   2.756
 2908TIP3    H1 8669   4.854   4.422   2.684
 2908TIP3    H2 8670   4.941   4.310   2.737
 2909TIP3   OH2 8671   2.666   2.283   5.450
 2909TIP3    H1 8672   2.621   2.309   5.530
 2909TIP3    H2 8673   2.638   2.349   5.385
 2910TIP3   OH2 8674   3.118   4.450   6.191
 2910TIP3    H1 8675   3.087   4.500   6.116
 2910TIP3    H2 8676   3.109   4.359   6.164
 2911TIP3   OH2 8677   6.436   5.030   1.779
 2911TIP3    H1 8678   6.383   5.062   1.705
 2911TIP3    H2 8679   6.516   5.082   1.776
 2912TIP3   OH2 8680   2.136   6.312   5.855
 2912TIP3    H1 8681   2.069   6.245   5.838
 2912TIP3    H2 8682   2.146   6.357   5.771
 2913TIP3   OH2 8683   2.617   6.500   2.728
 2913TIP3    H1 8684   2.529   6.528   2.700
 2913TIP3    H2 8685   2.601   6.436   2.797
 2914TIP3   OH2 8686   2.964   0.417   2.446
 2914TIP3    H1 8687   2.889   0.442   2.499
 2914TIP3    H2 8688   2.936   0.432   2.356
 2915TIP3   OH2 8689   0.236   3.337   2.107
 2915TIP3    H1 8690   0.200   3.293   2.030
 2915TIP3    H2 8691   0.319   3.375   2.076
 2916TIP3   OH2 8692   8.288   6.899   1.854
 2916TIP3    H1 8693   8.349   6.903   1.781
 2916TIP3    H2 8694   8.267   6.806   1.863
 2917TIP3   OH2 8695   6.139   4.139   4.997
 2917TIP3    H1 8696   6.089   4.200   5.052
 2917TIP3    H2 8697   6.073   4.088   4.952
 2918TIP3   OH2 8698   1.914   4.329   5.671
 2918TIP3    H1 8699   1.948   4.409   5.631
 2918TIP3    H2 8700   1.880   4.357   5.756
 2919TIP3   OH2 8701   1.454   1.306   6.181
 2919TIP3    H1 8702   1.438   1.362   6.257
 2919TIP3    H2 8703   1.374   1.314   6.129
 2920TIP3   OH2 8704   7.180   2.533   2.160
 2920TIP3    H1 8705   7.121   2.565   2.091
 2920TIP3    H2 8706   7.188   2.439   2.143
 2921TIP3   OH2 8707   3.387   2.295   4.515
 2921TIP3    H1 8708   3.443   2.246   4.455
 2921TIP3    H2 8709   3.326   2.230   4.550
 2922TIP3   OH2 8710   5.369   0.051   1.610
 2922TIP3    H1 8711   5.344   0.123   1.552
 2922TIP3    H2 8712   5.319  -0.024   1.577
 2923TIP3   OH2 8713   8.055   0.967   6.713
 2923TIP3    H1 8714   8.101   0.935   6.791
 2923TIP3    H2 8715   7.963   0.966   6.736
 2924TIP3   OH2 8716   5.160   0.630   0.180
 2924TIP3    H1 8717   5.254   0.630   0.166
 2924TIP3    H2 8718   5.129   0.552   0.134
 2925TIP3   OH2 8719   3.531   5.628   6.382
 2925TIP3    H1 8720   3.488   5.713   6.368
 2925TIP3    H2 8721   3.621   5.643   6.352
 2926TIP3   OH2 8722   0.397   7.382   3.761
 2926TIP3    H1 8723   0.356   7.465   3.784
 2926TIP3    H2 8724   0.324   7.327   3.733
 2927TIP3   OH2 8725   3.613   7.786   2.756
 2927TIP3    H1 8726   3.691   7.734   2.772
 2927TIP3    H2 8727   3.631   7.871   2.797
 2928TIP3   OH2 8728   3.394   7.518   4.615
 2928TIP3    H1 8729   3.484   7.492   4.636
 2928TIP3    H2 8730   3.386   7.504   4.521
 2929TIP3   OH2 8731   1.489   1.501   2.183
 2929TIP3    H1 8732   1.408   1.510   2.234
 2929TIP3    H2 8733   1.493   1.408   2.161
 2930TIP3   OH2 8734   4.510   2.377   0.812
 2930TIP3    H1 8735   4.496   2.283   0.810
 2930TIP3    H2 8736   4.584   2.392   0.754
 2931TIP3   OH2 8737   7.619   3.642   1.530
 2931TIP3    H1 8738   7.541   3.685   1.564
 2931TIP3    H2 8739   7.651   3.701   1.462
 2932TIP3   OH2 8740   7.006   2.837   1.534
 2932TIP3    H1 8741   7.091   2.838   1.578
 2932TIP3    H2 8742   7.000   2.923   1.491
 2933TIP3   OH2 8743   7.947   4.403   0.644
 2933TIP3    H1 8744   7.947   4.308   0.635
 2933TIP3    H2 8745   8.005   4.434   0.574
 2934TIP3   OH2 8746   6.681   5.391   2.712
 2934TIP3    H1 8747   6.719   5.306   2.734
 2934TIP3    H2 8748   6.757   5.446   2.691
 2935TIP3   OH2 8749   4.977   3.248   1.423
 2935TIP3    H1 8750   4.927   3.223   1.501
 2935TIP3    H2 8751   4.922   3.219   1.349
 2936TIP3   OH2 8752   4.627   7.833   5.015
 2936TIP3    H1 8753   4.612   7.743   4.988
 2936TIP3    H2 8754   4.632   7.829   5.111
 2937TIP3   OH2 8755   8.308   6.688   4.813
 2937TIP3    H1 8756   8.358   6.625   4.865
 2937TIP3    H2 8757   8.218   6.656   4.815
 2938TIP3   OH2 8758   1.160   3.605   3.762
 2938TIP3    H1 8759   1.224   3.648   3.705
 2938TIP3    H2 8760   1.078   3.609   3.713
 2939TIP3   OH2 8761   1.200   3.428   6.097
 2939TIP3    H1 8762   1.165   3.368   6.032
 2939TIP3    H2 8763   1.124   3.477   6.128
 2940TIP3   OH2 8764   4.067   6.238   0.139
 2940TIP3    H1 8765   3.994   6.269   0.086
 2940TIP3    H2 8766   4.138   6.299   0.120
 2941TIP3   OH2 8767   0.461   3.784   2.637
 2941TIP3    H1 8768   0.450   3.878   2.622
 2941TIP3    H2 8769   0.529   3.779   2.704
 2942TIP3   OH2 8770   6.713   5.268   2.223
 2942TIP3    H1 8771   6.634   5.292   2.175
 2942TIP3    H2 8772   6.688   5.275   2.315
 2943TIP3   OH2 8773   0.467   1.579   5.738
 2943TIP3    H1 8774   0.436   1.515   5.674
 2943TIP3    H2 8775   0.513   1.527   5.803
 2944TIP3   OH2 8776   2.104   6.208   5.286
 2944TIP3    H1 8777   2.150   6.135   5.328
 2944TIP3    H2 8778   2.168   6.246   5.226
 2945TIP3   OH2 8779   3.435   2.650   0.376
 2945TIP3    H1 8780   3.431   2.556   0.390
 2945TIP3    H2 8781   3.349   2.682   0.403
 2946TIP3   OH2 8782   3.448   2.464   5.269
 2946TIP3    H1 8783   3.477   2.391   5.323
 2946TIP3    H2 8784   3.369   2.497   5.311
 2947TIP3   OH2 8785   0.383   3.899   4.827
 2947TIP3    H1 8786   0.353   3.903   4.918
 2947TIP3    H2 8787   0.307   3.869   4.778
 2948TIP3   OH2 8788   6.010   2.760   3.472
 2948TIP3    H1 8789   5.942   2.802   3.419
 2948TIP3    H2 8790   6.089   2.811   3.457
 2949TIP3   OH2 8791   4.384   5.647   2.612
 2949TIP3    H1 8792   4.299   5.650   2.568
 2949TIP3    H2 8793   4.448   5.655   2.541
 2950TIP3   OH2 8794   3.468   4.961   3.951
 2950TIP3    H1 8795   3.519   4.891   3.992
 2950TIP3    H2 8796   3.392   4.972   4.007
 2951TIP3   OH2 8797   0.896   1.237   6.781
 2951TIP3    H1 8798   0.834   1.179   6.737
 2951TIP3    H2 8799   0.965   1.178   6.811
 2952TIP3   OH2 8800   3.662   6.827   5.666
 2952TIP3    H1 8801   3.728   6.764   5.636
 2952TIP3    H2 8802   3.623   6.786   5.744
 2953TIP3   OH2 8803   2.820   7.269   4.502
 2953TIP3    H1 8804   2.819   7.229   4.589
 2953TIP3    H2 8805   2.870   7.208   4.448
 2954TIP3   OH2 8806   3.014   1.876   4.765
 2954TIP3    H1 8807   3.101   1.909   4.788
 2954TIP3    H2 8808   2.974   1.947   4.715
 2955TIP3   OH2 8809   5.892   1.902   0.965
 2955TIP3    H1 8810   5.965   1.843   0.983
 2955TIP3    H2 8811   5.815   1.855   0.995
 2956TIP3   OH2 8812   7.609   2.373   3.035
 2956TIP3    H1 8813   7.627   2.416   3.119
 2956TIP3    H2 8814   7.514   2.357   3.037
 2957TIP3   OH2 8815   6.244   0.736   6.090
 2957TIP3    H1 8816   6.198   0.792   6.028
 2957TIP3    H2 8817   6.176   0.681   6.129
 2958TIP3   OH2 8818   8.114   3.026   1.903
 2958TIP3    H1 8819   8.028   3.059   1.928
 2958TIP3    H2 8820   8.098   2.935   1.876
 2959TIP3   OH2 8821   3.376   7.518   4.341
 2959TIP3    H1 8822   3.295   7.542   4.297
 2959TIP3    H2 8823   3.441   7.578   4.307
 2960TIP3   OH2 8824   4.710   4.947   0.585
 2960TIP3    H1 8825   4.629   4.912   0.622
 2960TIP3    H2 8826   4.718   5.034   0.625
 2961TIP3   OH2 8827   1.565   4.720   2.887
 2961TIP3    H1 8828   1.568   4.742   2.980
 2961TIP3    H2 8829   1.474   4.733   2.861
 2962TIP3   OH2 8830   6.794   3.109   1.652
 2962TIP3    H1 8831   6.843   3.118   1.570
 2962TIP3    H2 8832   6.819   3.023   1.685
 2963TIP3   OH2 8833   6.480   2.727   3.974
 2963TIP3    H1 8834   6.570   2.695   3.967
 2963TIP3    H2 8835   6.480   2.808   3.922
 2964TIP3   OH2 8836   4.546   5.573   3.875
 2964TIP3    H1 8837   4.462   5.619   3.874
 2964TIP3    H2 8838   4.597   5.614   3.805
 2965TIP3   OH2 8839   0.249   5.699   5.313
 2965TIP3    H1 8840   0.180   5.694   5.380
 2965TIP3    H2 8841   0.203   5.732   5.235
 2966TIP3   OH2 8842   1.808   3.256   5.145
 2966TIP3    H1 8843   1.777   3.331   5.195
 2966TIP3    H2 8844   1.903   3.256   5.158
 2967TIP3   OH2 8845   1.826   6.911   1.902
 2967TIP3    H1 8846   1.852   7.003   1.898
 2967TIP3    H2 8847   1.842   6.885   1.992
 2968TIP3   OH2 8848   2.973   3.183   0.610
 2968TIP3    H1 8849   3.067   3.174   0.625
 2968TIP3    H2 8850   2.932   3.145   0.688
 2969TIP3   OH2 8851   8.061   1.331   1.234
 2969TIP3    H1 8852   8.032   1.240   1.237
 2969TIP3    H2 8853   7.982   1.383   1.248
 2970TIP3   OH2 8854   4.785   4.188   6.752
 2970TIP3    H1 8855   4.870   4.227   6.730
 2970TIP3    H2 8856   4.758   4.142   6.672
 2971TIP3   OH2 8857   5.145   0.276   1.673
 2971TIP3    H1 8858   5.202   0.314   1.606
 2971TIP3    H2 8859   5.205   0.244   1.740
 2972TIP3   OH2 8860   7.942   4.884   3.427
 2972TIP3    H1 8861   7.895   4.875   3.510
 2972TIP3    H2 8862   8.035   4.887   3.452
 2973TIP3   OH2 8863   6.312   5.020   2.370
 2973TIP3    H1 8864   6.279   4.941   2.411
 2973TIP3    H2 8865   6.308   5.087   2.439
 2974TIP3   OH2 8866   5.712   2.322   1.456
 2974TIP3    H1 8867   5.721   2.416   1.440
 2974TIP3    H2 8868   5.801   2.288   1.443
 2975TIP3   OH2 8869   7.717   6.708   2.352
 2975TIP3    H1 8870   7.658   6.782   2.337
 2975TIP3    H2 8871   7.678   6.661   2.426
 2976TIP3   OH2 8872   5.219   6.444   5.809
 2976TIP3    H1 8873   5.208   6.495   5.729
 2976TIP3    H2 8874   5.314   6.442   5.823
 2977TIP3   OH2 8875   7.468   7.176   5.619
 2977TIP3    H1 8876   7.408   7.248   5.640
 2977TIP3    H2 8877   7.550   7.201   5.660
 2978TIP3   OH2 8878   7.643   7.251   4.306
 2978TIP3    H1 8879   7.723   7.254   4.358
 2978TIP3    H2 8880   7.671   7.271   4.217
 2979TIP3   OH2 8881   2.292   1.737   6.380
 2979TIP3    H1 8882   2.354   1.750   6.308
 2979TIP3    H2 8883   2.246   1.655   6.358
 2980TIP3   OH2 8884   7.357   4.060   4.083
 2980TIP3    H1 8885   7.292   3.997   4.114
 2980TIP3    H2 8886   7.405   4.013   4.014
 2981TIP3   OH2 8887   7.292   3.792   6.545
 2981TIP3    H1 8888   7.383   3.764   6.534
 2981TIP3    H2 8889   7.296   3.861   6.611
 2982TIP3   OH2 8890   5.204   0.454   0.587
 2982TIP3    H1 8891   5.190   0.516   0.515
 2982TIP3    H2 8892   5.267   0.391   0.553
 2983TIP3   OH2 8893   5.037   4.818   4.722
 2983TIP3    H1 8894   4.987   4.781   4.794
 2983TIP3    H2 8895   4.984   4.799   4.644
 2984TIP3   OH2 8896   6.823   6.188   6.236
 2984TIP3    H1 8897   6.766   6.114   6.255
 2984TIP3    H2 8898   6.817   6.244   6.314
 2985TIP3   OH2 8899   8.168   1.253   4.006
 2985TIP3    H1 8900   8.263   1.249   4.011
 2985TIP3    H2 8901   8.141   1.301   4.085
 2986TIP3   OH2 8902   7.843   6.160   4.845
 2986TIP3    H1 8903   7.770   6.170   4.906
 2986TIP3    H2 8904   7.881   6.248   4.839
 2987TIP3   OH2 8905   3.497   3.825   4.379
 2987TIP3    H1 8906   3.424   3.767   4.401
 2987TIP3    H2 8907   3.499   3.825   4.283
 2988TIP3   OH2 8908   7.941   7.535   6.158
 2988TIP3    H1 8909   7.922   7.441   6.166
 2988TIP3    H2 8910   7.877   7.578   6.214
 2989TIP3   OH2 8911   5.413   4.968   1.460
 2989TIP3    H1 8912   5.358   5.024   1.406
 2989TIP3    H2 8913   5.403   5.003   1.549
 2990TIP3   OH2 8914   5.233   2.503   1.149
 2990TIP3    H1 8915   5.312   2.550   1.176
 2990TIP3    H2 8916   5.261   2.448   1.076
 2991TIP3   OH2 8917   1.109   0.785   4.459
 2991TIP3    H1 8918   1.117   0.871   4.418
 2991TIP3    H2 8919   1.054   0.800   4.535
 2992TIP3   OH2 8920   1.619   3.002   3.676
 2992TIP3    H1 8921   1.581   3.009   3.588
 2992TIP3    H2 8922   1.554   3.041   3.734
 2993TIP3   OH2 8923   5.265   0.262   1.424
 2993TIP3    H1 8924   5.173   0.266   1.398
 2993TIP3    H2 8925   5.310   0.320   1.363
 2994TIP3   OH2 8926   6.777   7.629   0.584
 2994TIP3    H1 8927   6.781   7.723   0.565
 2994TIP3    H2 8928   6.693   7.601   0.548
 2995TIP3   OH2 8929   1.237   2.239   3.447
 2995TIP3    H1 8930   1.218   2.221   3.355
 2995TIP3    H2 8931   1.332   2.249   3.450
 2996TIP3   OH2 8932   5.487   5.672   4.634
 2996TIP3    H1 8933   5.525   5.697   4.718
 2996TIP3    H2 8934   5.425   5.742   4.614
 2997TIP3   OH2 8935   3.939   0.607   6.511
 2997TIP3    H1 8936   3.914   0.698   6.495
 2997TIP3    H2 8937   4.015   0.593   6.454
 2998TIP3   OH2 8938   0.018   2.221   4.058
 2998TIP3    H1 8939   0.090   2.282   4.040
 2998TIP3    H2 8940   0.004   2.176   3.975
 2999TIP3   OH2 8941   8.160   7.334   4.547
 2999TIP3    H1 8942   8.179   7.419   4.587
 2999TIP3    H2 8943   8.131   7.279   4.620
 3000TIP3   OH2 8944   1.884   3.231   1.848
 3000TIP3    H1 8945   1.951   3.219   1.780
 3000TIP3    H2 8946   1.882   3.325   1.864
 3001TIP3   OH2 8947   1.803   5.564   3.805
 3001TIP3    H1 8948   1.892   5.529   3.804
 3001TIP3    H2 8949   1.773   5.550   3.895
 3002TIP3   OH2 8950   6.860   2.332   5.915
 3002TIP3    H1 8951   6.916   2.372   5.849
 3002TIP3    H2 8952   6.843   2.403   5.978
 3003TIP3   OH2 8953   6.152   6.651   1.352
 3003TIP3    H1 8954   6.202   6.601   1.288
 3003TIP3    H2 8955   6.201   6.642   1.434
 3004TIP3   OH2 8956   7.980   0.864   0.775
 3004TIP3    H1 8957   7.936   0.919   0.711
 3004TIP3    H2 8958   7.914   0.848   0.843
 3005TIP3   OH2 8959   5.201   1.354   0.984
 3005TIP3    H1 8960   5.166   1.402   0.909
 3005TIP3    H2 8961   5.139   1.371   1.055
 3006TIP3   OH2 8962   5.630   6.846   3.028
 3006TIP3    H1 8963   5.643   6.781   3.097
 3006TIP3    H2 8964   5.542   6.879   3.043
 3007TIP3   OH2 8965   5.683   6.218   1.963
 3007TIP3    H1 8966   5.740   6.264   1.901
 3007TIP3    H2 8967   5.673   6.130   1.925
 3008TIP3   OH2 8968   1.725   1.870   1.639
 3008TIP3    H1 8969   1.704   1.947   1.692
 3008TIP3    H2 8970   1.814   1.886   1.608
 3009TIP3   OH2 8971   4.164   5.318   5.125
 3009TIP3    H1 8972   4.152   5.225   5.107
 3009TIP3    H2 8973   4.099   5.338   5.192
 3010TIP3   OH2 8974   6.977   2.387   3.683
 3010TIP3    H1 8975   7.026   2.465   3.708
 3010TIP3    H2 8976   6.896   2.392   3.734
 3011TIP3   OH2 8977   0.703   0.863   4.336
 3011TIP3    H1 8978   0.691   0.849   4.430
 3011TIP3    H2 8979   0.755   0.943   4.331
 3012TIP3   OH2 8980   5.492   5.898   4.028
 3012TIP3    H1 8981   5.542   5.825   3.992
 3012TIP3    H2 8982   5.549   5.936   4.095
 3013TIP3   OH2 8983   1.927   3.083   2.080
 3013TIP3    H1 8984   1.979   3.007   2.056
 3013TIP3    H2 8985   1.933   3.141   2.003
 3014TIP3   OH2 8986   1.012   0.268   3.188
 3014TIP3    H1 8987   1.053   0.319   3.258
 3014TIP3    H2 8988   0.919   0.292   3.193
 3015TIP3   OH2 8989   5.649   2.557   2.870
 3015TIP3    H1 8990   5.604   2.592   2.793
 3015TIP3    H2 8991   5.581   2.511   2.919
 3016TIP3   OH2 8992   7.449   5.114   0.453
 3016TIP3    H1 8993   7.434   5.104   0.547
 3016TIP3    H2 8994   7.492   5.199   0.445
 3017TIP3   OH2 8995   2.295   4.802   4.703
 3017TIP3    H1 8996   2.328   4.834   4.787
 3017TIP3    H2 8997   2.335   4.716   4.693
 3018TIP3   OH2 8998   6.501   3.949   0.360
 3018TIP3    H1 8999   6.499   4.042   0.383
 3018TIP3    H2 9000   6.476   3.946   0.268
 3019TIP3   OH2 9001   4.397   0.737   5.513
 3019TIP3    H1 9002   4.317   0.789   5.518
 3019TIP3    H2 9003   4.372   0.660   5.462
 3020TIP3   OH2 9004   3.076   2.343   3.187
 3020TIP3    H1 9005   3.045   2.301   3.106
 3020TIP3    H2 9006   3.114   2.272   3.238
 3021TIP3   OH2 9007   7.769   5.212   1.608
 3021TIP3    H1 9008   7.744   5.262   1.686
 3021TIP3    H2 9009   7.735   5.124   1.624
 3022TIP3   OH2 9010   6.820   6.980   2.038
 3022TIP3    H1 9011   6.748   6.953   2.095
 3022TIP3    H2 9012   6.822   7.076   2.046
 3023TIP3   OH2 9013   2.329   2.456   5.930
 3023TIP3    H1 9014   2.356   2.371   5.896
 3023TIP3    H2 9015   2.411   2.497   5.958
 3024TIP3   OH2 9016   7.422   7.655   4.144
 3024TIP3    H1 9017   7.391   7.624   4.229
 3024TIP3    H2 9018   7.342   7.678   4.097
 3025TIP3   OH2 9019   4.162   2.840   6.169
 3025TIP3    H1 9020   4.225   2.888   6.115
 3025TIP3    H2 9021   4.135   2.766   6.115
 3026TIP3   OH2 9022   6.248   4.501   2.271
 3026TIP3    H1 9023   6.286   4.522   2.186
 3026TIP3    H2 9024   6.230   4.407   2.268
 3027TIP3   OH2 9025   0.443   0.707   0.512
 3027TIP3    H1 9026   0.534   0.699   0.482
 3027TIP3    H2 9027   0.409   0.618   0.510
 3028TIP3   OH2 9028   4.448   4.259   6.716
 3028TIP3    H1 9029   4.440   4.306   6.799
 3028TIP3    H2 9030   4.533   4.288   6.681
 3029TIP3   OH2 9031   5.828   3.291   6.330
 3029TIP3    H1 9032   5.891   3.221   6.314
 3029TIP3    H2 9033   5.851   3.359   6.267
 3030TIP3   OH2 9034   4.104   3.487   1.884
 3030TIP3    H1 9035   4.177   3.479   1.822
 3030TIP3    H2 9036   4.058   3.566   1.856
 3031TIP3   OH2 9037   4.327   1.265   2.984
 3031TIP3    H1 9038   4.364   1.207   2.917
 3031TIP3    H2 9039   4.244   1.294   2.947
 3032TIP3   OH2 9040   0.882   4.819   4.436
 3032TIP3    H1 9041   0.934   4.893   4.468
 3032TIP3    H2 9042   0.884   4.828   4.341
 3033TIP3   OH2 9043   5.136   3.976   4.526
 3033TIP3    H1 9044   5.103   3.888   4.514
 3033TIP3    H2 9045   5.099   4.027   4.454
 3034TIP3   OH2 9046   4.317   0.318   4.893
 3034TIP3    H1 9047   4.251   0.295   4.827
 3034TIP3    H2 9048   4.268   0.361   4.962
 3035TIP3   OH2 9049   4.976   2.010   4.982
 3035TIP3    H1 9050   4.949   2.024   5.073
 3035TIP3    H2 9051   5.059   2.058   4.975
 3036TIP3   OH2 9052   4.507   0.677   2.946
 3036TIP3    H1 9053   4.458   0.690   2.865
 3036TIP3    H2 9054   4.564   0.602   2.928
 3037TIP3   OH2 9055   7.678   1.204   0.476
 3037TIP3    H1 9056   7.600   1.152   0.498
 3037TIP3    H2 9057   7.737   1.142   0.434
 3038TIP3   OH2 9058   1.101   3.022   0.293
 3038TIP3    H1 9059   1.032   2.958   0.312
 3038TIP3    H2 9060   1.108   3.074   0.373
 3039TIP3   OH2 9061   2.374   0.564   3.316
 3039TIP3    H1 9062   2.350   0.613   3.237
 3039TIP3    H2 9063   2.298   0.574   3.374
 3040TIP3   OH2 9064   7.508   2.227   4.379
 3040TIP3    H1 9065   7.539   2.137   4.373
 3040TIP3    H2 9066   7.481   2.250   4.291
 3041TIP3   OH2 9067   4.154   4.134   1.560
 3041TIP3    H1 9068   4.133   4.131   1.467
 3041TIP3    H2 9069   4.113   4.057   1.597
 3042TIP3   OH2 9070   2.789   4.060   3.335
 3042TIP3    H1 9071   2.799   4.021   3.249
 3042TIP3    H2 9072   2.742   4.142   3.319
 3043TIP3   OH2 9073   5.297   4.949   2.490
 3043TIP3    H1 9074   5.352   5.024   2.465
 3043TIP3    H2 9075   5.217   4.989   2.524
 3044TIP3   OH2 9076   0.538   0.804   0.851
 3044TIP3    H1 9077   0.496   0.834   0.771
 3044TIP3    H2 9078   0.523   0.710   0.853
 3045TIP3   OH2 9079   1.361   5.525   1.783
 3045TIP3    H1 9080   1.388   5.615   1.765
 3045TIP3    H2 9081   1.418   5.497   1.855
 3046TIP3   OH2 9082   7.940   4.611   1.218
 3046TIP3    H1 9083   7.985   4.577   1.295
 3046TIP3    H2 9084   8.007   4.611   1.149
 3047TIP3   OH2 9085   6.486   2.946   3.078
 3047TIP3    H1 9086   6.578   2.921   3.068
 3047TIP3    H2 9087   6.453   2.887   3.146
 3048TIP3   OH2 9088   0.309   3.724   3.856
 3048TIP3    H1 9089   0.332   3.672   3.779
 3048TIP3    H2 9090   0.359   3.686   3.927
 3049TIP3   OH2 9091   4.197   0.915   4.675
 3049TIP3    H1 9092   4.139   0.878   4.608
 3049TIP3    H2 9093   4.270   0.854   4.680
 3050TIP3   OH2 9094   1.646   6.642   5.970
 3050TIP3    H1 9095   1.675   6.703   5.902
 3050TIP3    H2 9096   1.721   6.585   5.985
 3051TIP3   OH2 9097   2.539   4.844   3.457
 3051TIP3    H1 9098   2.619   4.854   3.406
 3051TIP3    H2 9099   2.563   4.785   3.528
 3052TIP3   OH2 9100   4.296   2.062   3.451
 3052TIP3    H1 9101   4.258   2.015   3.525
 3052TIP3    H2 9102   4.306   1.995   3.383
 3053TIP3   OH2 9103   2.787   1.481   6.540
 3053TIP3    H1 9104   2.831   1.532   6.608
 3053TIP3    H2 9105   2.713   1.536   6.513
 3054TIP3   OH2 9106   6.930   5.006   5.835
 3054TIP3    H1 9107   7.023   5.020   5.822
 3054TIP3    H2 9108   6.896   4.986   5.747
 3055TIP3   OH2 9109   3.144   1.217   4.744
 3055TIP3    H1 9110   3.156   1.252   4.832
 3055TIP3    H2 9111   3.104   1.131   4.758
 3056TIP3   OH2 9112   7.963   4.495   6.142
 3056TIP3    H1 9113   7.938   4.494   6.050
 3056TIP3    H2 9114   8.033   4.430   6.149
 3057TIP3   OH2 9115   5.688   5.269   3.087
 3057TIP3    H1 9116   5.644   5.264   3.002
 3057TIP3    H2 9117   5.712   5.361   3.097
 3058TIP3   OH2 9118   7.234   6.105   3.118
 3058TIP3    H1 9119   7.324   6.133   3.106
 3058TIP3    H2 9120   7.225   6.028   3.062
 3059TIP3   OH2 9121   3.406   3.039   5.801
 3059TIP3    H1 9122   3.395   2.952   5.763
 3059TIP3    H2 9123   3.501   3.050   5.807
 3060TIP3   OH2 9124   3.017   4.207   6.513
 3060TIP3    H1 9125   2.982   4.206   6.424
 3060TIP3    H2 9126   2.997   4.121   6.549
 3061TIP3   OH2 9127   4.361   6.205   0.512
 3061TIP3    H1 9128   4.396   6.117   0.499
 3061TIP3    H2 9129   4.370   6.221   0.606
 3062TIP3   OH2 9130   4.416   6.257   6.228
 3062TIP3    H1 9131   4.413   6.287   6.319
 3062TIP3    H2 9132   4.491   6.303   6.190
 3063TIP3   OH2 9133   7.296   2.829   5.273
 3063TIP3    H1 9134   7.241   2.903   5.298
 3063TIP3    H2 9135   7.282   2.819   5.179
 3064TIP3   OH2 9136   6.122   3.771   1.285
 3064TIP3    H1 9137   6.099   3.860   1.259
 3064TIP3    H2 9138   6.039   3.722   1.281
 3065TIP3   OH2 9139   0.330   1.200   0.061
 3065TIP3    H1 9140   0.412   1.230   0.021
 3065TIP3    H2 9141   0.307   1.122   0.011
 3066TIP3   OH2 9142   6.856   0.636   3.232
 3066TIP3    H1 9143   6.798   0.566   3.260
 3066TIP3    H2 9144   6.863   0.625   3.137
 3067TIP3   OH2 9145   4.635   3.157   1.417
 3067TIP3    H1 9146   4.698   3.124   1.353
 3067TIP3    H2 9147   4.669   3.129   1.502
 3068TIP3   OH2 9148   8.086   7.693   0.532
 3068TIP3    H1 9149   8.121   7.620   0.583
 3068TIP3    H2 9150   8.025   7.736   0.591
 3069TIP3   OH2 9151   6.903   1.143   1.672
 3069TIP3    H1 9152   6.898   1.111   1.762
 3069TIP3    H2 9153   6.958   1.079   1.627
 3070TIP3   OH2 9154   4.255   1.544   5.975
 3070TIP3    H1 9155   4.307   1.465   5.966
 3070TIP3    H2 9156   4.168   1.514   6.001
 3071TIP3   OH2 9157   0.861   0.958   2.697
 3071TIP3    H1 9158   0.796   0.933   2.762
 3071TIP3    H2 9159   0.943   0.923   2.730
 3072TIP3   OH2 9160   4.203   3.139   3.566
 3072TIP3    H1 9161   4.288   3.099   3.550
 3072TIP3    H2 9162   4.222   3.214   3.623
 3073TIP3   OH2 9163   7.900   2.056   1.392
 3073TIP3    H1 9164   7.837   1.989   1.364
 3073TIP3    H2 9165   7.898   2.053   1.487
 3074TIP3   OH2 9166   3.562   3.673   5.991
 3074TIP3    H1 9167   3.656   3.684   5.973
 3074TIP3    H2 9168   3.552   3.693   6.084
 3075TIP3   OH2 9169   7.765   1.495   0.085
 3075TIP3    H1 9170   7.763   1.575   0.137
 3075TIP3    H2 9171   7.820   1.517   0.010
 3076TIP3   OH2 9172   5.388   1.442   0.519
 3076TIP3    H1 9173   5.446   1.479   0.452
 3076TIP3    H2 9174   5.302   1.481   0.500
 3077TIP3   OH2 9175   7.169   1.272   1.499
 3077TIP3    H1 9176   7.115   1.205   1.457
 3077TIP3    H2 9177   7.111   1.311   1.565
 3078TIP3   OH2 9178   3.915   4.094   4.130
 3078TIP3    H1 9179   3.862   4.135   4.197
 3078TIP3    H2 9180   3.949   4.167   4.078
 3079TIP3   OH2 9181   5.512   7.285   2.872
 3079TIP3    H1 9182   5.597   7.321   2.846
 3079TIP3    H2 9183   5.471   7.356   2.922
 3080TIP3   OH2 9184   1.201   3.837   5.843
 3080TIP3    H1 9185   1.170   3.927   5.848
 3080TIP3    H2 9186   1.232   3.828   5.753
 3081TIP3   OH2 9187   3.157   2.711   0.907
 3081TIP3    H1 9188   3.195   2.623   0.906
 3081TIP3    H2 9189   3.161   2.740   0.816
 3082TIP3   OH2 9190   5.611   6.523   3.459
 3082TIP3    H1 9191   5.551   6.500   3.530
 3082TIP3    H2 9192   5.598   6.454   3.394
 3083TIP3   OH2 9193   6.005   0.298   2.295
 3083TIP3    H1 9194   5.975   0.389   2.285
 3083TIP3    H2 9195   6.042   0.276   2.210
 3084TIP3   OH2 9196   0.639   7.200   1.385
 3084TIP3    H1 9197   0.584   7.239   1.452
 3084TIP3    H2 9198   0.615   7.107   1.385
 3085TIP3   OH2 9199   7.086   1.883   2.898
 3085TIP3    H1 9200   7.085   1.856   2.990
 3085TIP3    H2 9201   7.052   1.807   2.850
 3086TIP3   OH2 9202   7.586   3.329   6.579
 3086TIP3    H1 9203   7.631   3.252   6.613
 3086TIP3    H2 9204   7.597   3.323   6.484
 3087TIP3   OH2 9205   3.521   6.323   4.521
 3087TIP3    H1 9206   3.442   6.326   4.574
 3087TIP3    H2 9207   3.566   6.406   4.540
 3088TIP3   OH2 9208   7.619   4.301   1.030
 3088TIP3    H1 9209   7.602   4.346   0.948
 3088TIP3    H2 9210   7.626   4.371   1.095
 3089TIP3   OH2 9211   0.253   7.787   0.568
 3089TIP3    H1 9212   0.277   7.840   0.492
 3089TIP3    H2 9213   0.335   7.742   0.592
 3090TIP3   OH2 9214   1.741   3.461   5.713
 3090TIP3    H1 9215   1.652   3.476   5.746
 3090TIP3    H2 9216   1.790   3.431   5.790
 3091TIP3   OH2 9217   1.233   6.049   5.694
 3091TIP3    H1 9218   1.142   6.069   5.673
 3091TIP3    H2 9219   1.270   6.016   5.612
 3092TIP3   OH2 9220   0.835   1.963   4.702
 3092TIP3    H1 9221   0.881   1.906   4.764
 3092TIP3    H2 9222   0.880   2.047   4.708
 3093TIP3   OH2 9223   5.767   1.169   1.413
 3093TIP3    H1 9224   5.785   1.229   1.485
 3093TIP3    H2 9225   5.671   1.167   1.406
 3094TIP3   OH2 9226   5.458   0.601   2.403
 3094TIP3    H1 9227   5.367   0.621   2.381
 3094TIP3    H2 9228   5.484   0.536   2.338
 3095TIP3   OH2 9229   4.746   0.082   4.301
 3095TIP3    H1 9230   4.741   0.124   4.215
 3095TIP3    H2 9231   4.820   0.022   4.294
 3096TIP3   OH2 9232   7.873   7.039   2.082
 3096TIP3    H1 9233   7.871   7.132   2.061
 3096TIP3    H2 9234   7.964   7.012   2.065
 3097TIP3   OH2 9235   0.649   3.072   4.814
 3097TIP3    H1 9236   0.641   3.142   4.878
 3097TIP3    H2 9237   0.718   3.015   4.848
 3098TIP3   OH2 9238   2.006   6.685   3.995
 3098TIP3    H1 9239   2.093   6.651   3.976
 3098TIP3    H2 9240   2.012   6.779   3.980
 3099TIP3   OH2 9241   6.519   1.186   6.222
 3099TIP3    H1 9242   6.466   1.257   6.259
 3099TIP3    H2 9243   6.567   1.151   6.297
 3100TIP3   OH2 9244   2.696   7.357   2.438
 3100TIP3    H1 9245   2.768   7.319   2.387
 3100TIP3    H2 9246   2.733   7.369   2.526
 3101TIP3   OH2 9247   4.948   3.538   1.203
 3101TIP3    H1 9248   4.928   3.503   1.116
 3101TIP3    H2 9249   5.043   3.536   1.209
 3102TIP3   OH2 9250  -0.004   6.033   3.392
 3102TIP3    H1 9251  -0.018   6.075   3.477
 3102TIP3    H2 9252   0.053   5.958   3.411
 3103TIP3   OH2 9253   6.019   4.748   1.344
 3103TIP3    H1 9254   6.047   4.671   1.294
 3103TIP3    H2 9255   6.085   4.757   1.413
 3104TIP3   OH2 9256   5.969   4.390   4.414
 3104TIP3    H1 9257   6.064   4.388   4.400
 3104TIP3    H2 9258   5.932   4.361   4.330
 3105TIP3   OH2 9259   0.564   5.277   4.898
 3105TIP3    H1 9260   0.652   5.304   4.874
 3105TIP3    H2 9261   0.540   5.337   4.969
 3106TIP3   OH2 9262   0.285   1.531   0.427
 3106TIP3    H1 9263   0.192   1.543   0.445
 3106TIP3    H2 9264   0.329   1.597   0.480
 3107TIP3   OH2 9265   7.259   0.508   1.741
 3107TIP3    H1 9266   7.244   0.586   1.689
 3107TIP3    H2 9267   7.194   0.513   1.811
 3108TIP3   OH2 9268   5.198   0.422   6.756
 3108TIP3    H1 9269   5.245   0.341   6.738
 3108TIP3    H2 9270   5.156   0.407   6.840
 3109TIP3   OH2 9271   6.311   6.765   2.514
 3109TIP3    H1 9272   6.333   6.828   2.444
 3109TIP3    H2 9273   6.222   6.738   2.495
 3110TIP3   OH2 9274   4.488   7.745   2.210
 3110TIP3    H1 9275   4.440   7.827   2.205
 3110TIP3    H2 9276   4.421   7.677   2.202
 3111TIP3   OH2 9277   5.228   0.938   3.052
 3111TIP3    H1 9278   5.303   0.997   3.040
 3111TIP3    H2 9279   5.153   0.996   3.059
 3112TIP3   OH2 9280   6.446   3.526   0.366
 3112TIP3    H1 9281   6.402   3.601   0.326
 3112TIP3    H2 9282   6.408   3.518   0.453
 3113TIP3   OH2 9283   3.534   4.489   2.965
 3113TIP3    H1 9284   3.624   4.475   2.994
 3113TIP3    H2 9285   3.500   4.401   2.948
 3114TIP3   OH2 9286   5.871   5.137   0.115
 3114TIP3    H1 9287   5.945   5.097   0.160
 3114TIP3    H2 9288   5.903   5.224   0.090
 3115TIP3   OH2 9289   0.254   4.269   0.371
 3115TIP3    H1 9290   0.286   4.184   0.341
 3115TIP3    H2 9291   0.246   4.321   0.291
 3116TIP3   OH2 9292   1.490   7.685   2.877
 3116TIP3    H1 9293   1.424   7.739   2.834
 3116TIP3    H2 9294   1.441   7.610   2.911
 3117TIP3   OH2 9295   1.207   2.135   6.333
 3117TIP3    H1 9296   1.231   2.218   6.293
 3117TIP3    H2 9297   1.284   2.108   6.383
 3118TIP3   OH2 9298   6.153   3.901   6.282
 3118TIP3    H1 9299   6.183   3.872   6.369
 3118TIP3    H2 9300   6.211   3.856   6.221
 3119TIP3   OH2 9301   5.527   6.232   3.528
 3119TIP3    H1 9302   5.444   6.245   3.483
 3119TIP3    H2 9303   5.587   6.201   3.460
 3120TIP3   OH2 9304   5.276   3.698   2.035
 3120TIP3    H1 9305   5.238   3.658   1.956
 3120TIP3    H2 9306   5.221   3.775   2.051
 3121TIP3   OH2 9307   4.843   3.141   3.851
 3121TIP3    H1 9308   4.911   3.158   3.785
 3121TIP3    H2 9309   4.764   3.125   3.800
 3122TIP3   OH2 9310   0.490   4.153   2.556
 3122TIP3    H1 9311   0.468   4.123   2.644
 3122TIP3    H2 9312   0.432   4.103   2.498
 3123TIP3   OH2 9313   7.138   3.032   6.419
 3123TIP3    H1 9314   7.220   3.019   6.466
 3123TIP3    H2 9315   7.155   2.998   6.331
 3124TIP3   OH2 9316   8.076   4.016   6.575
 3124TIP3    H1 9317   8.060   3.943   6.515
 3124TIP3    H2 9318   8.062   4.094   6.521
 3125TIP3   OH2 9319   3.789   6.350   2.911
 3125TIP3    H1 9320   3.863   6.293   2.890
 3125TIP3    H2 9321   3.730   6.341   2.836
 3126TIP3   OH2 9322   6.203   4.734   6.700
 3126TIP3    H1 9323   6.172   4.680   6.628
 3126TIP3    H2 9324   6.189   4.681   6.779
 3127TIP3   OH2 9325   6.077   6.542   4.439
 3127TIP3    H1 9326   6.026   6.607   4.391
 3127TIP3    H2 9327   6.130   6.593   4.500
 3128TIP3   OH2 9328   5.521   7.170   4.333
 3128TIP3    H1 9329   5.527   7.263   4.356
 3128TIP3    H2 9330   5.612   7.141   4.328
 3129TIP3   OH2 9331   5.623   5.743   3.361
 3129TIP3    H1 9332   5.679   5.781   3.293
 3129TIP3    H2 9333   5.635   5.649   3.351
 3130TIP3   OH2 9334   7.445   4.332   3.003
 3130TIP3    H1 9335   7.516   4.393   2.985
 3130TIP3    H2 9336   7.487   4.246   3.006
 3131TIP3   OH2 9337   0.320   6.699   1.810
 3131TIP3    H1 9338   0.291   6.790   1.819
 3131TIP3    H2 9339   0.404   6.705   1.764
 3132TIP3   OH2 9340   6.506   3.848   5.614
 3132TIP3    H1 9341   6.587   3.824   5.659
 3132TIP3    H2 9342   6.535   3.901   5.539
 3133TIP3   OH2 9343   0.811   3.822   0.348
 3133TIP3    H1 9344   0.745   3.889   0.328
 3133TIP3    H2 9345   0.783   3.745   0.298
 3134TIP3   OH2 9346   3.635   6.983   2.945
 3134TIP3    H1 9347   3.616   7.053   3.007
 3134TIP3    H2 9348   3.665   7.029   2.866
 3135TIP3   OH2 9349   2.135   7.342   5.573
 3135TIP3    H1 9350   2.146   7.408   5.504
 3135TIP3    H2 9351   2.041   7.343   5.592
 3136TIP3   OH2 9352   6.595   1.800   2.229
 3136TIP3    H1 9353   6.562   1.723   2.277
 3136TIP3    H2 9354   6.568   1.874   2.282
 3137TIP3   OH2 9355   2.987   4.594   3.586
 3137TIP3    H1 9356   3.007   4.624   3.498
 3137TIP3    H2 9357   2.994   4.499   3.581
 3138TIP3   OH2 9358   3.472   1.242   1.512
 3138TIP3    H1 9359   3.556   1.197   1.507
 3138TIP3    H2 9360   3.494   1.333   1.528
 3139TIP3   OH2 9361   7.916   2.956   2.310
 3139TIP3    H1 9362   8.005   2.942   2.278
 3139TIP3    H2 9363   7.923   3.031   2.370
 3140TIP3   OH2 9364   3.225   1.425   1.899
 3140TIP3    H1 9365   3.278   1.484   1.846
 3140TIP3    H2 9366   3.227   1.342   1.852
 3141TIP3   OH2 9367   0.329   5.163   3.604
 3141TIP3    H1 9368   0.406   5.173   3.548
 3141TIP3    H2 9369   0.312   5.250   3.639
 3142TIP3   OH2 9370   3.612   7.382   4.962
 3142TIP3    H1 9371   3.643   7.294   4.984
 3142TIP3    H2 9372   3.670   7.441   5.009
 3143TIP3   OH2 9373   7.700   7.362   1.146
 3143TIP3    H1 9374   7.738   7.279   1.118
 3143TIP3    H2 9375   7.704   7.359   1.242
 3144TIP3   OH2 9376   5.506   2.129   1.004
 3144TIP3    H1 9377   5.520   2.041   0.970
 3144TIP3    H2 9378   5.573   2.140   1.071
 3145TIP3   OH2 9379   5.294   2.921   2.390
 3145TIP3    H1 9380   5.312   2.928   2.296
 3145TIP3    H2 9381   5.336   2.998   2.428
 3146TIP3   OH2 9382   8.178   7.031   1.632
 3146TIP3    H1 9383   8.178   6.998   1.722
 3146TIP3    H2 9384   8.199   7.124   1.641
 3147TIP3   OH2 9385   1.962   3.547   4.275
 3147TIP3    H1 9386   2.053   3.519   4.284
 3147TIP3    H2 9387   1.955   3.626   4.329
 3148TIP3   OH2 9388   5.823   3.600   0.697
 3148TIP3    H1 9389   5.896   3.658   0.674
 3148TIP3    H2 9390   5.763   3.608   0.623
 3149TIP3   OH2 9391   1.092   5.494   0.847
 3149TIP3    H1 9392   1.055   5.565   0.795
 3149TIP3    H2 9393   1.102   5.531   0.935
 3150TIP3   OH2 9394   4.339   6.609   1.661
 3150TIP3    H1 9395   4.348   6.638   1.570
 3150TIP3    H2 9396   4.312   6.518   1.655
 3151TIP3   OH2 9397   5.805   5.659   0.638
 3151TIP3    H1 9398   5.795   5.620   0.725
 3151TIP3    H2 9399   5.722   5.702   0.621
 3152TIP3   OH2 9400   3.925   4.382   4.947
 3152TIP3    H1 9401   3.983   4.364   5.021
 3152TIP3    H2 9402   3.849   4.325   4.962
 3153TIP3   OH2 9403   6.668   6.250   5.669
 3153TIP3    H1 9404   6.706   6.172   5.628
 3153TIP3    H2 9405   6.733   6.276   5.734
 3154TIP3   OH2 9406   5.592   3.795   3.446
 3154TIP3    H1 9407   5.593   3.715   3.395
 3154TIP3    H2 9408   5.551   3.860   3.389
 3155TIP3   OH2 9409   5.916   2.077   0.293
 3155TIP3    H1 9410   5.888   2.157   0.339
 3155TIP3    H2 9411   5.849   2.063   0.226
 3156TIP3   OH2 9412   1.391   1.808   6.289
 3156TIP3    H1 9413   1.429   1.881   6.339
 3156TIP3    H2 9414   1.302   1.798   6.324
 3157TIP3   OH2 9415   7.760   2.557   3.213
 3157TIP3    H1 9416   7.699   2.587   3.281
 3157TIP3    H2 9417   7.727   2.598   3.133
 3158TIP3   OH2 9418   2.027   0.624   5.361
 3158TIP3    H1 9419   1.978   0.548   5.330
 3158TIP3    H2 9420   2.109   0.587   5.394
 3159TIP3   OH2 9421   1.831   6.586   3.772
 3159TIP3    H1 9422   1.795   6.673   3.752
 3159TIP3    H2 9423   1.901   6.604   3.836
 3160TIP3   OH2 9424   4.871   6.616   6.369
 3160TIP3    H1 9425   4.919   6.699   6.371
 3160TIP3    H2 9426   4.786   6.639   6.332
 3161TIP3   OH2 9427   3.913   6.002   6.353
 3161TIP3    H1 9428   3.958   6.082   6.325
 3161TIP3    H2 9429   3.849   5.985   6.283
 3162TIP3   OH2 9430   2.846   2.049   1.410
 3162TIP3    H1 9431   2.853   2.142   1.433
 3162TIP3    H2 9432   2.924   2.009   1.449
 3163TIP3   OH2 9433   7.020   6.508   2.386
 3163TIP3    H1 9434   7.064   6.423   2.389
 3163TIP3    H2 9435   6.932   6.488   2.352
 3164TIP3   OH2 9436   2.493   5.793   1.116
 3164TIP3    H1 9437   2.433   5.725   1.146
 3164TIP3    H2 9438   2.480   5.796   1.021
 3165TIP3   OH2 9439   4.119   1.792   4.389
 3165TIP3    H1 9440   4.154   1.721   4.335
 3165TIP3    H2 9441   4.054   1.749   4.446
 3166TIP3   OH2 9442   5.836   3.487   1.119
 3166TIP3    H1 9443   5.880   3.445   1.045
 3166TIP3    H2 9444   5.805   3.571   1.085
 3167TIP3   OH2 9445   2.499   7.630   5.655
 3167TIP3    H1 9446   2.559   7.556   5.645
 3167TIP3    H2 9447   2.440   7.603   5.725
 3168TIP3   OH2 9448   2.928   5.501   2.883
 3168TIP3    H1 9449   2.879   5.507   2.965
 3168TIP3    H2 9450   2.997   5.567   2.892
 3169TIP3   OH2 9451   6.270   5.242   3.416
 3169TIP3    H1 9452   6.311   5.305   3.475
 3169TIP3    H2 9453   6.323   5.244   3.337
 3170TIP3   OH2 9454   3.467   2.061   1.843
 3170TIP3    H1 9455   3.382   2.093   1.814
 3170TIP3    H2 9456   3.447   1.998   1.912
 3171TIP3   OH2 9457   2.198   2.785   3.208
 3171TIP3    H1 9458   2.141   2.768   3.283
 3171TIP3    H2 9459   2.140   2.779   3.132
 3172TIP3   OH2 9460   8.106   5.997   6.051
 3172TIP3    H1 9461   8.079   5.911   6.084
 3172TIP3    H2 9462   8.196   5.985   6.021
 3173TIP3   OH2 9463   1.739   1.009   0.831
 3173TIP3    H1 9464   1.669   1.050   0.781
 3173TIP3    H2 9465   1.817   1.019   0.776
 3174TIP3   OH2 9466   1.872   6.448   5.654
 3174TIP3    H1 9467   1.845   6.451   5.562
 3174TIP3    H2 9468   1.892   6.539   5.676
 3175TIP3   OH2 9469   7.929   1.743   6.648
 3175TIP3    H1 9470   7.924   1.770   6.739
 3175TIP3    H2 9471   7.970   1.817   6.603
 3176TIP3   OH2 9472   1.259   2.051   2.928
 3176TIP3    H1 9473   1.328   2.048   2.861
 3176TIP3    H2 9474   1.180   2.021   2.883
 3177TIP3   OH2 9475   0.516   2.328   5.775
 3177TIP3    H1 9476   0.603   2.358   5.802
 3177TIP3    H2 9477   0.462   2.336   5.853
 3178TIP3   OH2 9478   3.539   5.549   1.334
 3178TIP3    H1 9479   3.563   5.461   1.366
 3178TIP3    H2 9480   3.594   5.561   1.256
 3179TIP3   OH2 9481   6.522   0.436   2.934
 3179TIP3    H1 9482   6.453   0.498   2.955
 3179TIP3    H2 9483   6.520   0.373   3.006
 3180TIP3   OH2 9484   7.850   5.090   4.650
 3180TIP3    H1 9485   7.789   5.069   4.721
 3180TIP3    H2 9486   7.795   5.126   4.581
 3181TIP3   OH2 9487   2.965   6.992   3.935
 3181TIP3    H1 9488   2.987   6.912   3.984
 3181TIP3    H2 9489   3.049   7.022   3.900
 3182TIP3   OH2 9490   7.574   6.997   6.296
 3182TIP3    H1 9491   7.493   6.988   6.245
 3182TIP3    H2 9492   7.607   7.084   6.274
 3183TIP3   OH2 9493   0.630   1.134   3.592
 3183TIP3    H1 9494   0.686   1.211   3.582
 3183TIP3    H2 9495   0.688   1.059   3.580
 3184TIP3   OH2 9496   2.634   3.382   3.477
 3184TIP3    H1 9497   2.577   3.310   3.505
 3184TIP3    H2 9498   2.587   3.461   3.505
 3185TIP3   OH2 9499   7.796   2.623   6.171
 3185TIP3    H1 9500   7.819   2.677   6.247
 3185TIP3    H2 9501   7.735   2.677   6.120
 3186TIP3   OH2 9502   0.987   6.784   0.005
 3186TIP3    H1 9503   0.913   6.832  -0.030
 3186TIP3    H2 9504   1.051   6.851   0.028
 3187TIP3   OH2 9505   1.846   5.465  -0.023
 3187TIP3    H1 9506   1.933   5.430  -0.042
 3187TIP3    H2 9507   1.848   5.485   0.070
 3188TIP3   OH2 9508   4.095   0.616   0.543
 3188TIP3    H1 9509   4.168   0.642   0.599
 3188TIP3    H2 9510   4.127   0.540   0.494
 3189TIP3   OH2 9511   2.142   2.213   3.562
 3189TIP3    H1 9512   2.206   2.173   3.620
 3189TIP3    H2 9513   2.192   2.244   3.487
 3190TIP3   OH2 9514   6.908   4.871   3.223
 3190TIP3    H1 9515   6.986   4.888   3.171
 3190TIP3    H2 9516   6.853   4.817   3.167
 3191TIP3   OH2 9517   6.262   2.268   3.029
 3191TIP3    H1 9518   6.284   2.199   3.092
 3191TIP3    H2 9519   6.179   2.303   3.060
 3192TIP3   OH2 9520   0.919   2.302   2.568
 3192TIP3    H1 9521   0.975   2.379   2.569
 3192TIP3    H2 9522   0.925   2.269   2.478
 3193TIP3   OH2 9523   6.364   6.572   6.643
 3193TIP3    H1 9524   6.311   6.539   6.715
 3193TIP3    H2 9525   6.417   6.497   6.615
 3194TIP3   OH2 9526   2.416   3.378   4.485
 3194TIP3    H1 9527   2.362   3.430   4.544
 3194TIP3    H2 9528   2.422   3.292   4.528
 3195TIP3   OH2 9529   8.201   3.295   6.501
 3195TIP3    H1 9530   8.112   3.263   6.487
 3195TIP3    H2 9531   8.231   3.249   6.580
 3196TIP3   OH2 9532   7.417   5.198   2.390
 3196TIP3    H1 9533   7.436   5.106   2.411
 3196TIP3    H2 9534   7.472   5.218   2.315
 3197TIP3   OH2 9535   6.349   4.975   2.856
 3197TIP3    H1 9536   6.440   4.998   2.874
 3197TIP3    H2 9537   6.324   5.029   2.781
 3198TIP3   OH2 9538   8.224   6.158   1.707
 3198TIP3    H1 9539   8.239   6.135   1.798
 3198TIP3    H2 9540   8.304   6.133   1.662
 3199TIP3   OH2 9541   7.504   1.542   5.640
 3199TIP3    H1 9542   7.423   1.535   5.590
 3199TIP3    H2 9543   7.498   1.626   5.685
 3200TIP3   OH2 9544   1.197   5.117   2.987
 3200TIP3    H1 9545   1.291   5.117   3.003
 3200TIP3    H2 9546   1.174   5.025   2.973
 3201TIP3   OH2 9547   1.479   6.606   3.934
 3201TIP3    H1 9548   1.575   6.609   3.931
 3201TIP3    H2 9549   1.458   6.618   4.027
 3202TIP3   OH2 9550   3.056   7.031   3.189
 3202TIP3    H1 9551   3.146   7.064   3.185
 3202TIP3    H2 9552   3.010   7.081   3.122
 3203TIP3   OH2 9553   7.169   2.114   2.324
 3203TIP3    H1 9554   7.178   2.200   2.365
 3203TIP3    H2 9555   7.175   2.052   2.397
 3204TIP3   OH2 9556   0.812   5.274   2.240
 3204TIP3    H1 9557   0.769   5.323   2.311
 3204TIP3    H2 9558   0.880   5.333   2.208
 3205TIP3   OH2 9559   6.767   2.454   3.820
 3205TIP3    H1 9560   6.750   2.520   3.888
 3205TIP3    H2 9561   6.681   2.430   3.788
 3206TIP3   OH2 9562   0.935   4.581   0.871
 3206TIP3    H1 9563   1.028   4.589   0.847
 3206TIP3    H2 9564   0.887   4.599   0.790
 3207TIP3   OH2 9565   5.315   7.163   0.261
 3207TIP3    H1 9566   5.318   7.227   0.333
 3207TIP3    H2 9567   5.363   7.205   0.190
 3208TIP3   OH2 9568   2.523   1.170   2.776
 3208TIP3    H1 9569   2.508   1.079   2.752
 3208TIP3    H2 9570   2.608   1.170   2.820
 3209TIP3   OH2 9571   0.362   4.921   3.721
 3209TIP3    H1 9572   0.355   5.011   3.690
 3209TIP3    H2 9573   0.280   4.905   3.768
 3210TIP3   OH2 9574   2.491   6.201   6.177
 3210TIP3    H1 9575   2.509   6.292   6.151
 3210TIP3    H2 9576   2.398   6.189   6.159
 3211TIP3   OH2 9577   7.899   6.855   5.668
 3211TIP3    H1 9578   7.934   6.882   5.753
 3211TIP3    H2 9579   7.832   6.790   5.689
 3212TIP3   OH2 9580   5.365   0.710   3.503
 3212TIP3    H1 9581   5.428   0.749   3.443
 3212TIP3    H2 9582   5.384   0.751   3.587
 3213TIP3   OH2 9583   6.667   0.792   0.922
 3213TIP3    H1 9584   6.666   0.700   0.895
 3213TIP3    H2 9585   6.754   0.806   0.958
 3214TIP3   OH2 9586   3.955   4.917   3.396
 3214TIP3    H1 9587   4.045   4.885   3.385
 3214TIP3    H2 9588   3.945   4.926   3.491
 3215TIP3   OH2 9589   4.684   6.921   0.562
 3215TIP3    H1 9590   4.668   6.870   0.483
 3215TIP3    H2 9591   4.610   6.982   0.567
 3216TIP3   OH2 9592   4.041   4.640   5.001
 3216TIP3    H1 9593   4.012   4.574   4.938
 3216TIP3    H2 9594   4.078   4.589   5.073
 3217TIP3   OH2 9595   4.684   4.421   0.541
 3217TIP3    H1 9596   4.686   4.361   0.465
 3217TIP3    H2 9597   4.775   4.428   0.568
 3218TIP3   OH2 9598   1.152   3.750   0.617
 3218TIP3    H1 9599   1.149   3.790   0.530
 3218TIP3    H2 9600   1.173   3.822   0.676
 3219TIP3   OH2 9601   6.301   0.609   2.970
 3219TIP3    H1 9602   6.280   0.622   3.063
 3219TIP3    H2 9603   6.228   0.558   2.936
 3220TIP3   OH2 9604   4.588   7.075   4.174
 3220TIP3    H1 9605   4.654   7.093   4.240
 3220TIP3    H2 9606   4.542   6.997   4.206
 3221TIP3   OH2 9607   1.345   0.880   3.444
 3221TIP3    H1 9608   1.388   0.818   3.385
 3221TIP3    H2 9609   1.390   0.963   3.429
 3222TIP3   OH2 9610   0.147   6.522   4.967
 3222TIP3    H1 9611   0.171   6.435   4.936
 3222TIP3    H2 9612   0.227   6.557   5.007
 3223TIP3   OH2 9613   0.503   2.289   6.518
 3223TIP3    H1 9614   0.551   2.359   6.564
 3223TIP3    H2 9615   0.571   2.243   6.468
 3224TIP3   OH2 9616   2.420   1.650   3.321
 3224TIP3    H1 9617   2.470   1.705   3.261
 3224TIP3    H2 9618   2.456   1.562   3.309
 3225TIP3   OH2 9619   4.980   3.529   3.797
 3225TIP3    H1 9620   4.993   3.500   3.888
 3225TIP3    H2 9621   4.941   3.616   3.805
 3226TIP3   OH2 9622   3.693   5.428   2.751
 3226TIP3    H1 9623   3.664   5.337   2.750
 3226TIP3    H2 9624   3.781   5.425   2.789
 3227TIP3   OH2 9625   7.410   0.918   2.567
 3227TIP3    H1 9626   7.388   0.970   2.489
 3227TIP3    H2 9627   7.428   0.831   2.533
 3228TIP3   OH2 9628   0.699   4.270   1.151
 3228TIP3    H1 9629   0.617   4.219   1.143
 3228TIP3    H2 9630   0.748   4.225   1.220
 3229TIP3   OH2 9631   7.328   0.494   5.930
 3229TIP3    H1 9632   7.399   0.440   5.897
 3229TIP3    H2 9633   7.249   0.452   5.897
 3230TIP3   OH2 9634   6.894   0.739   2.653
 3230TIP3    H1 9635   6.900   0.643   2.649
 3230TIP3    H2 9636   6.846   0.756   2.734
 3231TIP3   OH2 9637   6.730   1.777   0.531
 3231TIP3    H1 9638   6.686   1.801   0.449
 3231TIP3    H2 9639   6.734   1.682   0.529
 3232TIP3   OH2 9640   6.391   4.235   6.379
 3232TIP3    H1 9641   6.387   4.318   6.333
 3232TIP3    H2 9642   6.300   4.205   6.380
 3233TIP3   OH2 9643   1.073   7.718   6.335
 3233TIP3    H1 9644   0.979   7.710   6.319
 3233TIP3    H2 9645   1.079   7.742   6.427
 3234TIP3   OH2 9646   7.861   3.072   0.913
 3234TIP3    H1 9647   7.813   3.043   0.835
 3234TIP3    H2 9648   7.801   3.134   0.956
 3235TIP3   OH2 9649   1.902   3.061   4.247
 3235TIP3    H1 9650   1.887   3.155   4.232
 3235TIP3    H2 9651   1.937   3.056   4.335
 3236TIP3   OH2 9652   1.080   1.759   2.093
 3236TIP3    H1 9653   1.015   1.810   2.141
 3236TIP3    H2 9654   1.163   1.804   2.111
 3237TIP3   OH2 9655   0.948   6.849   1.607
 3237TIP3    H1 9656   0.963   6.931   1.560
 3237TIP3    H2 9657   0.880   6.805   1.557
 3238TIP3   OH2 9658   4.878   7.111   3.790
 3238TIP3    H1 9659   4.812   7.180   3.787
 3238TIP3    H2 9660   4.961   7.156   3.781
 3239TIP3   OH2 9661   7.231   5.009   1.804
 3239TIP3    H1 9662   7.272   5.025   1.719
 3239TIP3    H2 9663   7.304   5.004   1.866
 3240TIP3   OH2 9664   4.220   4.603   4.466
 3240TIP3    H1 9665   4.313   4.625   4.460
 3240TIP3    H2 9666   4.202   4.601   4.559
 3241TIP3   OH2 9667   2.541   2.216   1.262
 3241TIP3    H1 9668   2.594   2.278   1.213
 3241TIP3    H2 9669   2.453   2.252   1.259
 3242TIP3   OH2 9670   2.577   2.961   2.927
 3242TIP3    H1 9671   2.653   2.980   2.982
 3242TIP3    H2 9672   2.615   2.946   2.840
 3243TIP3   OH2 9673   2.613   5.509   5.268
 3243TIP3    H1 9674   2.593   5.417   5.282
 3243TIP3    H2 9675   2.535   5.555   5.299
 3244TIP3   OH2 9676   3.230   1.166   2.550
 3244TIP3    H1 9677   3.158   1.219   2.517
 3244TIP3    H2 9678   3.192   1.116   2.622
 3245TIP3   OH2 9679   1.630   5.177   5.581
 3245TIP3    H1 9680   1.559   5.122   5.614
 3245TIP3    H2 9681   1.614   5.182   5.486
 3246TIP3   OH2 9682   1.226   0.865   3.169
 3246TIP3    H1 9683   1.170   0.794   3.137
 3246TIP3    H2 9684   1.272   0.828   3.243
 3247TIP3   OH2 9685   6.247   1.362   2.254
 3247TIP3    H1 9686   6.268   1.286   2.201
 3247TIP3    H2 9687   6.251   1.330   2.345
 3248TIP3   OH2 9688   0.590   7.667   2.165
 3248TIP3    H1 9689   0.501   7.701   2.177
 3248TIP3    H2 9690   0.610   7.622   2.247
 3249TIP3   OH2 9691   6.977   0.528   4.537
 3249TIP3    H1 9692   7.052   0.542   4.480
 3249TIP3    H2 9693   6.933   0.613   4.542
 3250TIP3   OH2 9694   3.489   7.843   3.532
 3250TIP3    H1 9695   3.572   7.831   3.580
 3250TIP3    H2 9696   3.425   7.795   3.584
 3251TIP3   OH2 9697   5.590   6.286   1.028
 3251TIP3    H1 9698   5.553   6.248   0.948
 3251TIP3    H2 9699   5.630   6.212   1.074
 3252TIP3   OH2 9700   4.887   2.541   1.179
 3252TIP3    H1 9701   4.896   2.493   1.261
 3252TIP3    H2 9702   4.952   2.501   1.120
 3253TIP3   OH2 9703   6.436   4.436   5.633
 3253TIP3    H1 9704   6.468   4.427   5.723
 3253TIP3    H2 9705   6.484   4.511   5.598
 3254TIP3   OH2 9706   4.757   3.446   3.667
 3254TIP3    H1 9707   4.845   3.459   3.703
 3254TIP3    H2 9708   4.732   3.531   3.631
 3255TIP3   OH2 9709   6.620   0.097   5.237
 3255TIP3    H1 9710   6.571   0.023   5.201
 3255TIP3    H2 9711   6.553   0.158   5.266
 3256TIP3   OH2 9712   5.807   7.734   0.970
 3256TIP3    H1 9713   5.843   7.669   1.031
 3256TIP3    H2 9714   5.755   7.792   1.025
 3257TIP3   OH2 9715   1.821   7.351   5.671
 3257TIP3    H1 9716   1.833   7.259   5.649
 3257TIP3    H2 9717   1.731   7.356   5.705
 3258TIP3   OH2 9718   4.612   4.287   6.107
 3258TIP3    H1 9719   4.529   4.316   6.067
 3258TIP3    H2 9720   4.658   4.243   6.036
 3259TIP3   OH2 9721   5.250   7.804   3.738
 3259TIP3    H1 9722   5.238   7.899   3.746
 3259TIP3    H2 9723   5.283   7.776   3.824
 3260TIP3   OH2 9724   2.300   1.370   2.148
 3260TIP3    H1 9725   2.377   1.313   2.147
 3260TIP3    H2 9726   2.336   1.459   2.142
 3261TIP3   OH2 9727   4.617   4.400   0.804
 3261TIP3    H1 9728   4.614   4.483   0.851
 3261TIP3    H2 9729   4.644   4.423   0.715
 3262TIP3   OH2 9730   2.579   5.192   5.263
 3262TIP3    H1 9731   2.578   5.175   5.169
 3262TIP3    H2 9732   2.494   5.161   5.294
 3263TIP3   OH2 9733   6.743   3.679   1.946
 3263TIP3    H1 9734   6.750   3.712   1.856
 3263TIP3    H2 9735   6.814   3.721   1.993
 3264TIP3   OH2 9736   5.377   4.003   1.818
 3264TIP3    H1 9737   5.295   3.988   1.865
 3264TIP3    H2 9738   5.351   4.016   1.727
 3265TIP3   OH2 9739   6.746   3.492   4.019
 3265TIP3    H1 9740   6.667   3.480   4.071
 3265TIP3    H2 9741   6.718   3.547   3.945
 3266TIP3   OH2 9742   0.095   5.500   2.111
 3266TIP3    H1 9743   0.062   5.475   2.025
 3266TIP3    H2 9744   0.055   5.437   2.171
 3267TIP3   OH2 9745   7.331   7.446   5.881
 3267TIP3    H1 9746   7.396   7.491   5.933
 3267TIP3    H2 9747   7.326   7.495   5.799
 3268TIP3   OH2 9748   5.521   3.243   5.764
 3268TIP3    H1 9749   5.462   3.279   5.830
 3268TIP3    H2 9750   5.490   3.280   5.681
 3269TIP3   OH2 9751   5.032   5.039   0.863
 3269TIP3    H1 9752   5.044   5.125   0.823
 3269TIP3    H2 9753   4.978   4.991   0.799
 3270TIP3   OH2 9754   4.149   6.456   3.706
 3270TIP3    H1 9755   4.067   6.436   3.752
 3270TIP3    H2 9756   4.153   6.393   3.635
 3271TIP3   OH2 9757   0.144   4.863   2.521
 3271TIP3    H1 9758   0.137   4.958   2.519
 3271TIP3    H2 9759   0.186   4.844   2.605
 3272TIP3   OH2 9760   1.618   3.872   5.832
 3272TIP3    H1 9761   1.670   3.951   5.819
 3272TIP3    H2 9762   1.638   3.845   5.921
 3273TIP3   OH2 9763   7.611   7.224   0.120
 3273TIP3    H1 9764   7.577   7.228   0.031
 3273TIP3    H2 9765   7.542   7.260   0.175
 3274TIP3   OH2 9766   8.126   0.998   5.830
 3274TIP3    H1 9767   8.107   1.034   5.743
 3274TIP3    H2 9768   8.040   0.994   5.873
 3275TIP3   OH2 9769   2.625   3.719   0.844
 3275TIP3    H1 9770   2.694   3.743   0.907
 3275TIP3    H2 9771   2.545   3.716   0.896
 3276TIP3   OH2 9772   3.331   3.232   5.188
 3276TIP3    H1 9773   3.287   3.303   5.140
 3276TIP3    H2 9774   3.306   3.246   5.279
 3277TIP3   OH2 9775   5.893   3.658   1.342
 3277TIP3    H1 9776   5.837   3.657   1.264
 3277TIP3    H2 9777   5.841   3.702   1.408
 3278TIP3   OH2 9778   2.805   7.568   6.090
 3278TIP3    H1 9779   2.793   7.649   6.138
 3278TIP3    H2 9780   2.887   7.580   6.041
 3279TIP3   OH2 9781   3.728   2.935   3.082
 3279TIP3    H1 9782   3.655   2.996   3.091
 3279TIP3    H2 9783   3.705   2.862   3.139
 3280TIP3   OH2 9784   1.897   7.090   4.466
 3280TIP3    H1 9785   1.883   7.143   4.545
 3280TIP3    H2 9786   1.992   7.090   4.454
 3281TIP3   OH2 9787   3.623   3.215   4.780
 3281TIP3    H1 9788   3.528   3.220   4.771
 3281TIP3    H2 9789   3.656   3.295   4.740
 3282TIP3   OH2 9790   1.709   7.427   0.854
 3282TIP3    H1 9791   1.682   7.347   0.808
 3282TIP3    H2 9792   1.651   7.495   0.820
 3283TIP3   OH2 9793   2.020   3.485   3.753
 3283TIP3    H1 9794   2.068   3.461   3.832
 3283TIP3    H2 9795   1.950   3.542   3.784
 3284TIP3   OH2 9796   0.244   1.190   1.702
 3284TIP3    H1 9797   0.278   1.119   1.647
 3284TIP3    H2 9798   0.319   1.245   1.721
 3285TIP3   OH2 9799   2.199   6.774   1.992
 3285TIP3    H1 9800   2.203   6.870   1.984
 3285TIP3    H2 9801   2.108   6.756   2.013
 3286TIP3   OH2 9802   2.748   5.479   6.498
 3286TIP3    H1 9803   2.819   5.417   6.482
 3286TIP3    H2 9804   2.673   5.424   6.523
 3287TIP3   OH2 9805   3.240   2.883   1.435
 3287TIP3    H1 9806   3.236   2.794   1.401
 3287TIP3    H2 9807   3.295   2.877   1.513
 3288TIP3   OH2 9808   4.536   3.651   6.249
 3288TIP3    H1 9809   4.537   3.555   6.250
 3288TIP3    H2 9810   4.543   3.675   6.341
 3289TIP3   OH2 9811   7.481   2.619   4.580
 3289TIP3    H1 9812   7.570   2.614   4.616
 3289TIP3    H2 9813   7.429   2.562   4.637
 3290TIP3   OH2 9814   2.539   5.592   2.007
 3290TIP3    H1 9815   2.517   5.506   2.042
 3290TIP3    H2 9816   2.630   5.585   1.980
 3291TIP3   OH2 9817   0.275   1.783   4.225
 3291TIP3    H1 9818   0.269   1.876   4.201
 3291TIP3    H2 9819   0.368   1.761   4.213
 3292TIP3   OH2 9820   4.538   3.155   2.307
 3292TIP3    H1 9821   4.601   3.217   2.341
 3292TIP3    H2 9822   4.464   3.160   2.368
 3293TIP3   OH2 9823   5.574   4.923   2.263
 3293TIP3    H1 9824   5.606   4.903   2.175
 3293TIP3    H2 9825   5.486   4.886   2.265
 3294TIP3   OH2 9826   7.371   0.705   3.045
 3294TIP3    H1 9827   7.382   0.776   2.982
 3294TIP3    H2 9828   7.393   0.626   2.996
 3295TIP3   OH2 9829   4.431   0.650   3.205
 3295TIP3    H1 9830   4.448   0.674   3.114
 3295TIP3    H2 9831   4.516   0.655   3.247
 3296TIP3   OH2 9832   4.913   6.689   5.415
 3296TIP3    H1 9833   4.886   6.779   5.397
 3296TIP3    H2 9834   4.962   6.662   5.337
 3297TIP3   OH2 9835   1.580   5.454   1.575
 3297TIP3    H1 9836   1.633   5.386   1.535
 3297TIP3    H2 9837   1.615   5.463   1.664
 3298TIP3   OH2 9838   5.386   0.963   5.827
 3298TIP3    H1 9839   5.311   0.907   5.848
 3298TIP3    H2 9840   5.372   1.042   5.878
 3299TIP3   OH2 9841   7.427   3.807   3.037
 3299TIP3    H1 9842   7.381   3.774   2.960
 3299TIP3    H2 9843   7.500   3.746   3.049
 3300TIP3   OH2 9844   0.781   1.151   1.794
 3300TIP3    H1 9845   0.839   1.223   1.820
 3300TIP3    H2 9846   0.826   1.072   1.823
 3301TIP3   OH2 9847   0.866   6.490   2.106
 3301TIP3    H1 9848   0.945   6.543   2.095
 3301TIP3    H2 9849   0.883   6.440   2.186
 3302TIP3   OH2 9850   2.805   6.869   0.195
 3302TIP3    H1 9851   2.797   6.783   0.153
 3302TIP3    H2 9852   2.716   6.906   0.190
 3303TIP3   OH2 9853   7.896   1.276   0.195
 3303TIP3    H1 9854   7.838   1.353   0.191
 3303TIP3    H2 9855   7.981   1.312   0.219
 3304TIP3   OH2 9856   5.671   2.320   4.359
 3304TIP3    H1 9857   5.681   2.407   4.398
 3304TIP3    H2 9858   5.607   2.276   4.413
 3305TIP3   OH2 9859   4.232   5.303   5.466
 3305TIP3    H1 9860   4.162   5.238   5.466
 3305TIP3    H2 9861   4.294   5.271   5.399
 3306TIP3   OH2 9862   5.832   2.810   0.990
 3306TIP3    H1 9863   5.868   2.881   1.041
 3306TIP3    H2 9864   5.901   2.787   0.928
 3307TIP3   OH2 9865   4.311   3.346   1.421
 3307TIP3    H1 9866   4.286   3.270   1.474
 3307TIP3    H2 9867   4.332   3.308   1.335
 3308TIP3   OH2 9868   7.899   1.651   1.972
 3308TIP3    H1 9869   7.985   1.653   2.014
 3308TIP3    H2 9870   7.903   1.576   1.913
 3309TIP3   OH2 9871   5.012   3.197   3.627
 3309TIP3    H1 9872   5.092   3.155   3.597
 3309TIP3    H2 9873   5.001   3.272   3.568
 3310TIP3   OH2 9874   6.659   0.667   6.151
 3310TIP3    H1 9875   6.718   0.741   6.142
 3310TIP3    H2 9876   6.637   0.665   6.244
 3311TIP3   OH2 9877   1.886   3.425   5.485
 3311TIP3    H1 9878   1.925   3.339   5.476
 3311TIP3    H2 9879   1.845   3.423   5.572
 3312TIP3   OH2 9880   4.311   7.396   6.488
 3312TIP3    H1 9881   4.362   7.321   6.460
 3312TIP3    H2 9882   4.322   7.461   6.418
 3313TIP3   OH2 9883   3.983   3.211   6.060
 3313TIP3    H1 9884   3.906   3.172   6.101
 3313TIP3    H2 9885   4.055   3.191   6.121
 3314TIP3   OH2 9886   0.647   2.632   0.439
 3314TIP3    H1 9887   0.597   2.670   0.367
 3314TIP3    H2 9888   0.605   2.668   0.518
 3315TIP3   OH2 9889   4.338   0.391   3.202
 3315TIP3    H1 9890   4.309   0.480   3.183
 3315TIP3    H2 9891   4.263   0.350   3.245
 3316TIP3   OH2 9892   0.342   3.545   2.336
 3316TIP3    H1 9893   0.379   3.457   2.350
 3316TIP3    H2 9894   0.247   3.531   2.339
 3317TIP3   OH2 9895   1.357   2.572   5.062
 3317TIP3    H1 9896   1.367   2.645   5.002
 3317TIP3    H2 9897   1.298   2.606   5.130
 3318TIP3   OH2 9898   5.583   7.391   3.226
 3318TIP3    H1 9899   5.572   7.435   3.142
 3318TIP3    H2 9900   5.520   7.319   3.224
 3319TIP3   OH2 9901   1.184   4.098   0.470
 3319TIP3    H1 9902   1.116   4.153   0.432
 3319TIP3    H2 9903   1.136   4.029   0.516
 3320TIP3   OH2 9904   1.298   0.735   5.996
 3320TIP3    H1 9905   1.295   0.825   5.964
 3320TIP3    H2 9906   1.283   0.682   5.918
 3321TIP3   OH2 9907   5.355   7.702   0.557
 3321TIP3    H1 9908   5.302   7.781   0.554
 3321TIP3    H2 9909   5.307   7.643   0.615
 3322TIP3   OH2 9910   6.653   0.246   1.138
 3322TIP3    H1 9911   6.694   0.160   1.147
 3322TIP3    H2 9912   6.560   0.230   1.153
 3323TIP3   OH2 9913   6.063   3.038   3.765
 3323TIP3    H1 9914   6.116   2.974   3.812
 3323TIP3    H2 9915   6.125   3.107   3.741
 3324TIP3   OH2 9916   1.771   5.130   1.822
 3324TIP3    H1 9917   1.789   5.054   1.877
 3324TIP3    H2 9918   1.676   5.134   1.817
 3325TIP3   OH2 9919   7.702   1.833   5.745
 3325TIP3    H1 9920   7.625   1.778   5.759
 3325TIP3    H2 9921   7.723   1.868   5.832
 3326TIP3   OH2 9922   3.358   2.350   1.511
 3326TIP3    H1 9923   3.425   2.320   1.573
 3326TIP3    H2 9924   3.312   2.420   1.557
 3327TIP3   OH2 9925   7.843   4.201   4.440
 3327TIP3    H1 9926   7.919   4.250   4.409
 3327TIP3    H2 9927   7.803   4.166   4.360
 3328TIP3   OH2 9928   3.032   6.143   0.992
 3328TIP3    H1 9929   2.968   6.076   0.970
 3328TIP3    H2 9930   3.046   6.134   1.087
 3329TIP3   OH2 9931   5.598   5.550   6.740
 3329TIP3    H1 9932   5.643   5.501   6.808
 3329TIP3    H2 9933   5.607   5.642   6.766
 3330TIP3   OH2 9934   0.341   4.001   3.835
 3330TIP3    H1 9935   0.402   4.013   3.908
 3330TIP3    H2 9936   0.330   3.906   3.828
 3331TIP3   OH2 9937   4.425   4.689   3.624
 3331TIP3    H1 9938   4.389   4.602   3.639
 3331TIP3    H2 9939   4.462   4.685   3.536
 3332TIP3   OH2 9940   5.815   7.805   4.147
 3332TIP3    H1 9941   5.837   7.712   4.156
 3332TIP3    H2 9942   5.859   7.831   4.066
 3333TIP3   OH2 9943   1.628   4.345   1.451
 3333TIP3    H1 9944   1.538   4.347   1.421
 3333TIP3    H2 9945   1.680   4.360   1.372
 3334TIP3   OH2 9946   5.225   6.498   4.375
 3334TIP3    H1 9947   5.248   6.516   4.467
 3334TIP3    H2 9948   5.198   6.406   4.376
 3335TIP3   OH2 9949   1.934   7.274   0.649
 3335TIP3    H1 9950   1.919   7.262   0.743
 3335TIP3    H2 9951   1.960   7.187   0.618
 3336TIP3   OH2 9952   0.572   1.536   6.017
 3336TIP3    H1 9953   0.570   1.544   6.113
 3336TIP3    H2 9954   0.483   1.509   5.994
 3337TIP3   OH2 9955   5.616   1.701   5.675
 3337TIP3    H1 9956   5.574   1.636   5.732
 3337TIP3    H2 9957   5.640   1.653   5.597
 3338TIP3   OH2 9958   5.230   1.088   0.422
 3338TIP3    H1 9959   5.253   1.172   0.383
 3338TIP3    H2 9960   5.249   1.024   0.354
 3339TIP3   OH2 9961   6.461   1.373   6.474
 3339TIP3    H1 9962   6.421   1.446   6.519
 3339TIP3    H2 9963   6.432   1.381   6.383
 3340TIP3   OH2 9964   6.204   3.097   0.544
 3340TIP3    H1 9965   6.163   3.164   0.599
 3340TIP3    H2 9966   6.266   3.145   0.490
 3341TIP3   OH2 9967   2.401   2.825   5.854
 3341TIP3    H1 9968   2.484   2.807   5.809
 3341TIP3    H2 9969   2.390   2.919   5.847
 3342TIP3   OH2 9970   3.600   5.383   4.763
 3342TIP3    H1 9971   3.534   5.422   4.705
 3342TIP3    H2 9972   3.549   5.348   4.836
 3343TIP3   OH2 9973   3.463   3.263   2.495
 3343TIP3    H1 9974   3.552   3.249   2.462
 3343TIP3    H2 9975   3.439   3.350   2.462
 3344TIP3   OH2 9976   7.752   7.198   2.321
 3344TIP3    H1 9977   7.812   7.222   2.251
 3344TIP3    H2 9978   7.732   7.280   2.365
 3345TIP3   OH2 9979   7.099   4.424   0.449
 3345TIP3    H1 9980   7.085   4.493   0.514
 3345TIP3    H2 9981   7.081   4.342   0.496
 3346TIP3   OH2 9982   3.791   1.783   0.675
 3346TIP3    H1 9983   3.731   1.713   0.700
 3346TIP3    H2 9984   3.878   1.745   0.686
 3347TIP3   OH2 9985   4.814   1.898   0.198
 3347TIP3    H1 9986   4.901   1.936   0.193
 3347TIP3    H2 9987   4.828   1.807   0.222
 3348TIP3   OH2 9988   4.638   2.164   3.300
 3348TIP3    H1 9989   4.731   2.150   3.283
 3348TIP3    H2 9990   4.595   2.148   3.216
 3349TIP3   OH2 9991   2.546   4.860   6.258
 3349TIP3    H1 9992   2.486   4.805   6.308
 3349TIP3    H2 9993   2.630   4.813   6.261
 3350TIP3   OH2 9994   3.881   6.646   1.250
 3350TIP3    H1 9995   3.972   6.654   1.222
 3350TIP3    H2 9996   3.860   6.554   1.235
 3351TIP3   OH2 9997   2.717   5.246   1.224
 3351TIP3    H1 9998   2.695   5.157   1.252
 3351TIP3    H2 9999   2.655   5.302   1.271
 3352TIP3   OH210000   5.865   2.904   1.531
 3352TIP3    H110001   5.905   2.902   1.444
 3352TIP3    H210002   5.928   2.859   1.587
 3353TIP3   OH210003   7.138   6.411   4.426
 3353TIP3    H110004   7.133   6.405   4.522
 3353TIP3    H210005   7.052   6.381   4.396
 3354TIP3   OH210006   7.374   3.949   6.738
 3354TIP3    H110007   7.416   3.869   6.769
 3354TIP3    H210008   7.326   3.981   6.815
 3355TIP3   OH210009   0.360   6.943   5.852
 3355TIP3    H110010   0.292   7.008   5.834
 3355TIP3    H210011   0.387   6.912   5.766
 3356TIP3   OH210012   2.782   6.368   0.278
 3356TIP3    H110013   2.709   6.373   0.217
 3356TIP3    H210014   2.858   6.398   0.228
 3357TIP3   OH210015   4.521   3.553   2.222
 3357TIP3    H110016   4.574   3.498   2.164
 3357TIP3    H210017   4.431   3.536   2.194
 3358TIP3   OH210018   7.440   5.502   1.920
 3358TIP3    H110019   7.533   5.504   1.942
 3358TIP3    H210020   7.396   5.541   1.997
 3359TIP3   OH210021   8.130   2.559   1.611
 3359TIP3    H110022   8.179   2.640   1.625
 3359TIP3    H210023   8.039   2.587   1.604
 3360TIP3   OH210024   5.558   5.783   0.588
 3360TIP3    H110025   5.476   5.746   0.622
 3360TIP3    H210026   5.542   5.795   0.495
 3361TIP3   OH210027   6.469   7.036   1.416
 3361TIP3    H110028   6.525   7.089   1.473
 3361TIP3    H210029   6.436   7.099   1.351
 3362TIP3   OH210030   6.983   4.038   4.394
 3362TIP3    H110031   6.943   3.954   4.416
 3362TIP3    H210032   7.001   4.031   4.300
 3363TIP3   OH210033   3.142   3.368   1.187
 3363TIP3    H110034   3.174   3.309   1.254
 3363TIP3    H210035   3.158   3.456   1.223
 3364TIP3   OH210036   7.518   6.924   6.591
 3364TIP3    H110037   7.515   6.936   6.496
 3364TIP3    H210038   7.611   6.927   6.612
 3365TIP3   OH210039   2.543   4.725   0.773
 3365TIP3    H110040   2.550   4.639   0.816
 3365TIP3    H210041   2.611   4.723   0.706
 3366TIP3   OH210042   7.927   0.589   6.568
 3366TIP3    H110043   8.003   0.532   6.561
 3366TIP3    H210044   7.906   0.590   6.662
 3367TIP3   OH210045   0.151   6.854   0.359
 3367TIP3    H110046   0.071   6.843   0.306
 3367TIP3    H210047   0.122   6.904   0.436
 3368TIP3   OH210048   6.182   1.207   2.479
 3368TIP3    H110049   6.188   1.127   2.531
 3368TIP3    H210050   6.112   1.190   2.416
 3369TIP3   OH210051   7.595   5.972   3.390
 3369TIP3    H110052   7.619   5.889   3.431
 3369TIP3    H210053   7.512   5.997   3.431
 3370TIP3   OH210054   2.492   6.029   6.608
 3370TIP3    H110055   2.490   5.937   6.580
 3370TIP3    H210056   2.450   6.029   6.694
 3371TIP3   OH210057   4.203   1.773   3.694
 3371TIP3    H110058   4.193   1.683   3.664
 3371TIP3    H210059   4.285   1.774   3.742
 3372TIP3   OH210060   2.719   4.744   5.838
 3372TIP3    H110061   2.729   4.722   5.931
 3372TIP3    H210062   2.745   4.664   5.792
 3373TIP3   OH210063   4.463   4.568   1.345
 3373TIP3    H110064   4.427   4.479   1.348
 3373TIP3    H210065   4.558   4.556   1.344
 3374TIP3   OH210066   7.691   6.716   5.230
 3374TIP3    H110067   7.600   6.708   5.256
 3374TIP3    H210068   7.738   6.656   5.288
 3375TIP3   OH210069   0.196   2.705   4.825
 3375TIP3    H110070   0.162   2.711   4.736
 3375TIP3    H210071   0.288   2.682   4.814
 3376TIP3   OH210072   3.239   2.277   1.122
 3376TIP3    H110073   3.276   2.352   1.168
 3376TIP3    H210074   3.243   2.205   1.184
 3377TIP3   OH210075   1.405   7.425   3.212
 3377TIP3    H110076   1.459   7.409   3.134
 3377TIP3    H210077   1.468   7.445   3.281
 3378TIP3   OH210078   1.150   3.280   5.874
 3378TIP3    H110079   1.233   3.252   5.836
 3378TIP3    H210080   1.113   3.339   5.808
 3379TIP3   OH210081   1.322   0.828   6.366
 3379TIP3    H110082   1.227   0.814   6.373
 3379TIP3    H210083   1.354   0.752   6.317
 3380TIP3   OH210084   1.488   3.758   6.285
 3380TIP3    H110085   1.459   3.673   6.319
 3380TIP3    H210086   1.420   3.783   6.222
 3381TIP3   OH210087   1.842   4.529   3.017
 3381TIP3    H110088   1.922   4.580   3.031
 3381TIP3    H210089   1.808   4.514   3.105
 3382TIP3   OH210090   3.169   6.927   4.331
 3382TIP3    H110091   3.130   6.864   4.270
 3382TIP3    H210092   3.260   6.900   4.339
 3383TIP3   OH210093   0.152   3.997   1.188
 3383TIP3    H110094   0.101   4.077   1.174
 3383TIP3    H210095   0.138   3.975   1.280
 3384TIP3   OH210096   2.142   7.793   2.777
 3384TIP3    H110097   2.211   7.851   2.808
 3384TIP3    H210098   2.151   7.795   2.681
 3385TIP3   OH210099   0.410   0.266   5.151
 3385TIP3    H110100   0.497   0.302   5.164
 3385TIP3    H210101   0.388   0.226   5.236
 3386TIP3   OH210102   0.265   6.166   6.749
 3386TIP3    H110103   0.174   6.138   6.759
 3386TIP3    H210104   0.316   6.085   6.750
 3387TIP3   OH210105   7.630   5.462   2.469
 3387TIP3    H110106   7.628   5.390   2.405
 3387TIP3    H210107   7.567   5.525   2.435
 3388TIP3   OH210108   4.652   2.992   4.479
 3388TIP3    H110109   4.588   2.979   4.549
 3388TIP3    H210110   4.700   3.071   4.505
 3389TIP3   OH210111   1.503   3.299   4.966
 3389TIP3    H110112   1.466   3.353   4.897
 3389TIP3    H210113   1.598   3.299   4.949
 3390TIP3   OH210114   0.874   5.540   1.379
 3390TIP3    H110115   0.919   5.502   1.454
 3390TIP3    H210116   0.786   5.502   1.382
 3391TIP3   OH210117   2.614   4.846   5.458
 3391TIP3    H110118   2.548   4.828   5.391
 3391TIP3    H210119   2.693   4.866   5.408
 3392TIP3   OH210120   1.353   7.637   3.690
 3392TIP3    H110121   1.280   7.697   3.703
 3392TIP3    H210122   1.341   7.570   3.757
 3393TIP3   OH210123   3.608   1.660   4.824
 3393TIP3    H110124   3.675   1.706   4.873
 3393TIP3    H210125   3.610   1.700   4.737
 3394TIP3   OH210126   5.294   6.927   1.772
 3394TIP3    H110127   5.253   6.995   1.719
 3394TIP3    H210128   5.245   6.927   1.854
 3395TIP3   OH210129   7.465   4.649   6.139
 3395TIP3    H110130   7.532   4.593   6.099
 3395TIP3    H210131   7.434   4.704   6.066
 3396TIP3   OH210132   4.096   3.022   0.259
 3396TIP3    H110133   4.054   3.093   0.210
 3396TIP3    H210134   4.115   2.955   0.193
 3397TIP3   OH210135   0.594   6.407   1.548
 3397TIP3    H110136   0.551   6.322   1.546
 3397TIP3    H210137   0.624   6.422   1.458
 3398TIP3   OH210138   6.398   0.864   5.345
 3398TIP3    H110139   6.325   0.900   5.394
 3398TIP3    H210140   6.371   0.870   5.253
 3399TIP3   OH210141   4.080   6.668   5.041
 3399TIP3    H110142   4.024   6.591   5.027
 3399TIP3    H210143   4.064   6.724   4.965
 3400TIP3   OH210144   5.871   6.087   3.907
 3400TIP3    H110145   5.910   6.002   3.886
 3400TIP3    H210146   5.942   6.149   3.898
 3401TIP3   OH210147   6.081   7.663   5.672
 3401TIP3    H110148   6.016   7.722   5.711
 3401TIP3    H210149   6.129   7.628   5.747
 3402TIP3   OH210150   3.911   0.242   4.174
 3402TIP3    H110151   3.909   0.274   4.084
 3402TIP3    H210152   4.003   0.241   4.198
 3403TIP3   OH210153   1.013   3.111   6.032
 3403TIP3    H110154   1.058   3.178   5.980
 3403TIP3    H210155   1.071   3.035   6.028
 3404TIP3   OH210156   7.014   0.556   0.765
 3404TIP3    H110157   7.041   0.565   0.856
 3404TIP3    H210158   6.918   0.563   0.767
 3405TIP3   OH210159   4.945   4.820   2.361
 3405TIP3    H110160   5.011   4.875   2.403
 3405TIP3    H210161   4.957   4.734   2.401
 3406TIP3   OH210162   3.126   2.440   0.225
 3406TIP3    H110163   3.175   2.432   0.307
 3406TIP3    H210164   3.094   2.531   0.226
 3407TIP3   OH210165   2.848   5.655   5.225
 3407TIP3    H110166   2.784   5.604   5.276
 3407TIP3    H210167   2.933   5.619   5.250
 3408TIP3   OH210168   5.084   5.187   1.734
 3408TIP3    H110169   5.080   5.162   1.826
 3408TIP3    H210170   5.175   5.176   1.709
 3409TIP3   OH210171   7.716   4.329   1.470
 3409TIP3    H110172   7.686   4.321   1.561
 3409TIP3    H210173   7.811   4.324   1.476
 3410TIP3   OH210174   2.563   2.246   4.276
 3410TIP3    H110175   2.652   2.224   4.306
 3410TIP3    H210176   2.573   2.262   4.182
 3411TIP3   OH210177   0.649   1.928   0.008
 3411TIP3    H110178   0.661   1.986   0.084
 3411TIP3    H210179   0.738   1.912  -0.023
 3412TIP3   OH210180   8.132   3.066   0.974
 3412TIP3    H110181   8.190   3.039   0.903
 3412TIP3    H210182   8.048   3.082   0.932
 3413TIP3   OH210183   0.803   1.244   1.327
 3413TIP3    H110184   0.879   1.284   1.285
 3413TIP3    H210185   0.744   1.223   1.255
 3414TIP3   OH210186   6.443   7.027   3.089
 3414TIP3    H110187   6.471   7.046   2.999
 3414TIP3    H210188   6.371   6.965   3.079
 3415TIP3   OH210189   3.987   5.121   1.953
 3415TIP3    H110190   3.944   5.046   1.994
 3415TIP3    H210191   4.080   5.103   1.959
 3416TIP3   OH210192   0.081   7.311   3.246
 3416TIP3    H110193   0.041   7.383   3.199
 3416TIP3    H210194   0.007   7.260   3.279
 3417TIP3   OH210195   2.235   3.132   6.334
 3417TIP3    H110196   2.272   3.182   6.407
 3417TIP3    H210197   2.141   3.129   6.352
 3418TIP3   OH210198   1.583   1.495   3.561
 3418TIP3    H110199   1.632   1.421   3.598
 3418TIP3    H210200   1.540   1.536   3.637
 3419TIP3   OH210201   3.075   2.908   2.331
 3419TIP3    H110202   3.073   2.813   2.343
 3419TIP3    H210203   3.117   2.941   2.411
 3420TIP3   OH210204   4.451   5.454   1.002
 3420TIP3    H110205   4.435   5.392   1.074
 3420TIP3    H210206   4.467   5.537   1.046
 3421TIP3   OH210207   6.799   1.694   0.895
 3421TIP3    H110208   6.733   1.656   0.952
 3421TIP3    H210209   6.806   1.632   0.822
 3422TIP3   OH210210   6.458   2.178   4.060
 3422TIP3    H110211   6.489   2.213   3.976
 3422TIP3    H210212   6.422   2.254   4.106
 3423TIP3   OH210213   4.615   2.708   4.474
 3423TIP3    H110214   4.658   2.794   4.477
 3423TIP3    H210215   4.651   2.666   4.396
 3424TIP3   OH210216   3.433   2.183   6.339
 3424TIP3    H110217   3.454   2.267   6.299
 3424TIP3    H210218   3.344   2.163   6.309
 3425TIP3   OH210219   0.348   3.142   2.240
 3425TIP3    H110220   0.294   3.221   2.234
 3425TIP3    H210221   0.373   3.122   2.150
 3426TIP3   OH210222   2.910   5.901   2.793
 3426TIP3    H110223   2.885   5.809   2.777
 3426TIP3    H210224   2.976   5.919   2.727
 3427TIP3   OH210225   5.891   0.503   4.646
 3427TIP3    H110226   5.831   0.567   4.608
 3427TIP3    H210227   5.976   0.547   4.645
 3428TIP3   OH210228   5.934   0.276   1.326
 3428TIP3    H110229   5.848   0.276   1.283
 3428TIP3    H210230   5.941   0.364   1.365
 3429TIP3   OH210231   4.456   0.601   4.912
 3429TIP3    H110232   4.462   0.589   5.007
 3429TIP3    H210233   4.428   0.516   4.879
 3430TIP3   OH210234   5.686   3.399   2.636
 3430TIP3    H110235   5.691   3.425   2.543
 3430TIP3    H210236   5.729   3.471   2.682
 3431TIP3   OH210237   5.266   2.651   2.444
 3431TIP3    H110238   5.289   2.741   2.421
 3431TIP3    H210239   5.209   2.621   2.373
 3432TIP3   OH210240   4.192   4.085   5.760
 3432TIP3    H110241   4.205   4.083   5.665
 3432TIP3    H210242   4.275   4.055   5.797
 3433TIP3   OH210243   5.405   6.858   2.399
 3433TIP3    H110244   5.378   6.881   2.488
 3433TIP3    H210245   5.500   6.856   2.403
 3434TIP3   OH210246   7.788   5.332   3.241
 3434TIP3    H110247   7.732   5.326   3.164
 3434TIP3    H210248   7.749   5.402   3.294
 3435TIP3   OH210249   6.224   5.277   3.830
 3435TIP3    H110250   6.164   5.291   3.756
 3435TIP3    H210251   6.179   5.213   3.885
 3436TIP3   OH210252   7.802   7.420   4.971
 3436TIP3    H110253   7.753   7.400   5.050
 3436TIP3    H210254   7.894   7.408   4.996
 3437TIP3   OH210255   2.982   4.986   3.377
 3437TIP3    H110256   3.017   4.920   3.316
 3437TIP3    H210257   2.915   5.032   3.326
 3438TIP3   OH210258   0.474   5.040   5.630
 3438TIP3    H110259   0.530   4.966   5.606
 3438TIP3    H210260   0.525   5.117   5.604
 3439TIP3   OH210261   3.682   6.261   6.425
 3439TIP3    H110262   3.593   6.278   6.394
 3439TIP3    H210263   3.739   6.304   6.361
 3440TIP3   OH210264   8.027   5.316   3.998
 3440TIP3    H110265   8.035   5.273   4.083
 3440TIP3    H210266   8.093   5.275   3.943
 3441TIP3   OH210267   4.395   5.728   1.995
 3441TIP3    H110268   4.337   5.764   1.927
 3441TIP3    H210269   4.416   5.640   1.964
 3442TIP3   OH210270   5.673   5.467   6.182
 3442TIP3    H110271   5.601   5.405   6.184
 3442TIP3    H210272   5.737   5.432   6.245
 3443TIP3   OH210273   4.709   4.828   6.697
 3443TIP3    H110274   4.761   4.777   6.636
 3443TIP3    H210275   4.769   4.849   6.769
 3444TIP3   OH210276   3.804   5.896   1.522
 3444TIP3    H110277   3.762   5.918   1.605
 3444TIP3    H210278   3.809   5.980   1.475
 3445TIP3   OH210279   7.729   5.924   4.443
 3445TIP3    H110280   7.662   5.867   4.480
 3445TIP3    H210281   7.811   5.877   4.459
 3446TIP3   OH210282   0.201   6.884   6.758
 3446TIP3    H110283   0.254   6.831   6.817
 3446TIP3    H210284   0.257   6.898   6.682
 3447TIP3   OH210285   3.183   5.039   1.588
 3447TIP3    H110286   3.166   5.034   1.682
 3447TIP3    H210287   3.252   4.974   1.573
 3448TIP3   OH210288   2.819   1.413   5.561
 3448TIP3    H110289   2.741   1.359   5.572
 3448TIP3    H210290   2.800   1.492   5.612
 3449TIP3   OH210291   0.712   0.220   0.114
 3449TIP3    H110292   0.712   0.125   0.112
 3449TIP3    H210293   0.726   0.247   0.023
 3450TIP3   OH210294   3.531   3.215   2.766
 3450TIP3    H110295   3.497   3.243   2.681
 3450TIP3    H210296   3.471   3.145   2.794
 3451TIP3   OH210297   5.165   1.253   5.779
 3451TIP3    H110298   5.102   1.253   5.851
 3451TIP3    H210299   5.250   1.240   5.822
 3452TIP3   OH210300   6.307   1.917   0.345
 3452TIP3    H110301   6.219   1.924   0.382
 3452TIP3    H210302   6.363   1.964   0.408
 3453TIP3   OH210303   8.231   1.083   6.526
 3453TIP3    H110304   8.161   1.062   6.588
 3453TIP3    H210305   8.187   1.087   6.441
 3454TIP3   OH210306   5.696   4.806   5.666
 3454TIP3    H110307   5.675   4.893   5.699
 3454TIP3    H210308   5.731   4.822   5.578
 3455TIP3   OH210309   5.314   6.590   0.981
 3455TIP3    H110310   5.341   6.674   0.944
 3455TIP3    H210311   5.243   6.612   1.041
 3456TIP3   OH210312   1.782   3.191   3.198
 3456TIP3    H110313   1.820   3.180   3.111
 3456TIP3    H210314   1.794   3.284   3.218
 3457TIP3   OH210315   0.210   7.060   3.165
 3457TIP3    H110316   0.210   7.146   3.207
 3457TIP3    H210317   0.183   6.999   3.235
 3458TIP3   OH210318   3.694   4.234   2.427
 3458TIP3    H110319   3.753   4.160   2.424
 3458TIP3    H210320   3.732   4.297   2.366
 3459TIP3   OH210321   4.794   5.499   6.326
 3459TIP3    H110322   4.748   5.435   6.380
 3459TIP3    H210323   4.729   5.568   6.310
 3460TIP3   OH210324   2.420   7.203   4.694
 3460TIP3    H110325   2.419   7.178   4.786
 3460TIP3    H210326   2.429   7.121   4.646
 3461TIP3   OH210327   8.110   5.611   1.226
 3461TIP3    H110328   8.120   5.607   1.131
 3461TIP3    H210329   8.193   5.646   1.258
 3462TIP3   OH210330   6.486   5.900   5.696
 3462TIP3    H110331   6.540   5.912   5.617
 3462TIP3    H210332   6.397   5.917   5.667
 3463TIP3   OH210333   1.075   5.032   1.563
 3463TIP3    H110334   1.078   5.044   1.468
 3463TIP3    H210335   1.167   5.022   1.589
 3464TIP3   OH210336   5.650   7.095   1.278
 3464TIP3    H110337   5.631   7.024   1.216
 3464TIP3    H210338   5.739   7.078   1.307
 3465TIP3   OH210339   7.865   5.857   5.434
 3465TIP3    H110340   7.924   5.826   5.503
 3465TIP3    H210341   7.838   5.944   5.464
 3466TIP3   OH210342   2.580   3.190   2.621
 3466TIP3    H110343   2.607   3.116   2.675
 3466TIP3    H210344   2.657   3.212   2.569
 3467TIP3   OH210345   7.948   0.822   1.183
 3467TIP3    H110346   7.886   0.817   1.256
 3467TIP3    H210347   7.969   0.730   1.164
 3468TIP3   OH210348   3.611   6.193   3.182
 3468TIP3    H110349   3.548   6.229   3.120
 3468TIP3    H210350   3.561   6.185   3.264
 3469TIP3   OH210351   7.776   0.366   2.042
 3469TIP3    H110352   7.816   0.314   1.972
 3469TIP3    H210353   7.850   0.410   2.084
 3470TIP3   OH210354   5.002   6.923   5.548
 3470TIP3    H110355   5.042   7.009   5.557
 3470TIP3    H210356   5.071   6.867   5.513
 3471TIP3   OH210357   2.803   5.946   6.386
 3471TIP3    H110358   2.762   5.874   6.433
 3471TIP3    H210359   2.893   5.947   6.419
 3472TIP3   OH210360   4.532   0.098   1.762
 3472TIP3    H110361   4.450   0.051   1.744
 3472TIP3    H210362   4.539   0.098   1.857
 3473TIP3   OH210363   8.261   4.493   6.290
 3473TIP3    H110364   8.301   4.553   6.226
 3473TIP3    H210365   8.293   4.523   6.375
 3474TIP3   OH210366   6.361   0.881   6.281
 3474TIP3    H110367   6.324   0.826   6.212
 3474TIP3    H210368   6.310   0.962   6.278
 3475TIP3   OH210369   1.411   7.685   3.416
 3475TIP3    H110370   1.429   7.679   3.510
 3475TIP3    H210371   1.326   7.644   3.404
 3476TIP3   OH210372   8.029   1.363   5.887
 3476TIP3    H110373   7.974   1.438   5.864
 3476TIP3    H210374   7.968   1.290   5.899
 3477TIP3   OH210375   3.563   1.968   2.558
 3477TIP3    H110376   3.484   1.920   2.534
 3477TIP3    H210377   3.608   1.911   2.621
 3478TIP3   OH210378   1.389   5.212   4.558
 3478TIP3    H110379   1.326   5.140   4.559
 3478TIP3    H210380   1.466   5.177   4.601
 3479TIP3   OH210381   1.952   4.984   1.381
 3479TIP3    H110382   2.032   4.934   1.363
 3479TIP3    H210383   1.944   4.983   1.476
 3480TIP3   OH210384   1.036   2.109   0.192
 3480TIP3    H110385   1.118   2.066   0.216
 3480TIP3    H210386   1.051   2.202   0.213
 3481TIP3   OH210387   7.849   2.845   1.791
 3481TIP3    H110388   7.823   2.780   1.726
 3481TIP3    H210389   7.847   2.928   1.743
 3482TIP3   OH210390   8.089   4.593   0.989
 3482TIP3    H110391   8.055   4.610   0.901
 3482TIP3    H210392   8.174   4.637   0.990
 3483TIP3   OH210393   0.615   4.517   1.233
 3483TIP3    H110394   0.652   4.447   1.180
 3483TIP3    H210395   0.667   4.594   1.211
 3484TIP3   OH210396   4.096   5.995   0.230
 3484TIP3    H110397   4.019   5.949   0.198
 3484TIP3    H210398   4.084   6.086   0.202
 3485TIP3   OH210399   7.112   1.334   3.918
 3485TIP3    H110400   7.157   1.250   3.912
 3485TIP3    H210401   7.160   1.391   3.858
 3486TIP3   OH210402   7.552   2.102   3.323
 3486TIP3    H110403   7.557   2.195   3.347
 3486TIP3    H210404   7.619   2.092   3.255
 3487TIP3   OH210405   2.573   1.814   5.249
 3487TIP3    H110406   2.542   1.830   5.338
 3487TIP3    H210407   2.668   1.810   5.257
 3488TIP3   OH210408   2.830   5.300   6.080
 3488TIP3    H110409   2.764   5.361   6.049
 3488TIP3    H210410   2.781   5.222   6.105
 3489TIP3   OH210411   2.704   5.781   5.057
 3489TIP3    H110412   2.640   5.820   5.117
 3489TIP3    H210413   2.771   5.743   5.115
 3490TIP3   OH210414   7.737   5.790   2.058
 3490TIP3    H110415   7.802   5.765   1.992
 3490TIP3    H210416   7.769   5.875   2.091
 3491TIP3   OH210417   7.765   3.874   5.578
 3491TIP3    H110418   7.854   3.892   5.608
 3491TIP3    H210419   7.736   3.956   5.539
 3492TIP3   OH210420   3.554   5.770   5.989
 3492TIP3    H110421   3.522   5.708   6.054
 3492TIP3    H210422   3.476   5.800   5.943
 3493TIP3   OH210423   3.066   5.893   5.565
 3493TIP3    H110424   3.137   5.892   5.629
 3493TIP3    H210425   3.104   5.857   5.485
 3494TIP3   OH210426   6.490   7.177   6.660
 3494TIP3    H110427   6.438   7.183   6.580
 3494TIP3    H210428   6.531   7.263   6.669
 3495TIP3   OH210429   7.342   5.573   3.699
 3495TIP3    H110430   7.327   5.492   3.747
 3495TIP3    H210431   7.283   5.637   3.739
 3496TIP3   OH210432   2.032   0.008   0.478
 3496TIP3    H110433   2.097  -0.032   0.536
 3496TIP3    H210434   2.062   0.098   0.467
 3497TIP3   OH210435   6.338   4.107   3.152
 3497TIP3    H110436   6.414   4.112   3.095
 3497TIP3    H210437   6.281   4.179   3.125
 3498TIP3   OH210438   0.915   0.982   5.244
 3498TIP3    H110439   0.943   1.037   5.317
 3498TIP3    H210440   0.828   0.950   5.269
 3499TIP3   OH210441   5.147   2.263   2.124
 3499TIP3    H110442   5.146   2.236   2.216
 3499TIP3    H210443   5.073   2.217   2.085
 3500TIP3   OH210444   1.804   6.102   1.235
 3500TIP3    H110445   1.841   6.136   1.154
 3500TIP3    H210446   1.764   6.019   1.211
 3501TIP3   OH210447   4.719   2.889   3.737
 3501TIP3    H110448   4.792   2.830   3.718
 3501TIP3    H210449   4.644   2.830   3.752
 3502TIP3   OH210450   0.019   0.427   0.917
 3502TIP3    H110451   0.026   0.334   0.938
 3502TIP3    H210452   0.082   0.469   0.976
 3503TIP3   OH210453   4.403   1.719   3.446
 3503TIP3    H110454   4.478   1.753   3.495
 3503TIP3    H210455   4.422   1.627   3.432
 3504TIP3   OH210456   3.939   5.465   0.083
 3504TIP3    H110457   3.902   5.435   0.000
 3504TIP3    H210458   3.869   5.453   0.146
 3505TIP3   OH210459   5.452   4.662   3.625
 3505TIP3    H110460   5.469   4.721   3.698
 3505TIP3    H210461   5.430   4.720   3.552
 3506TIP3   OH210462   2.834   1.215   6.650
 3506TIP3    H110463   2.826   1.308   6.631
 3506TIP3    H210464   2.852   1.210   6.744
 3507TIP3   OH210465   5.863   0.194   5.866
 3507TIP3    H110466   5.815   0.276   5.879
 3507TIP3    H210467   5.803   0.139   5.815
 3508TIP3   OH210468   4.397   1.169   4.156
 3508TIP3    H110469   4.453   1.094   4.137
 3508TIP3    H210470   4.456   1.244   4.157
 3509TIP3   OH210471   3.790   7.589   4.662
 3509TIP3    H110472   3.883   7.597   4.640
 3509TIP3    H210473   3.766   7.501   4.633
 3510TIP3   OH210474   4.551   2.169   1.230
 3510TIP3    H110475   4.621   2.107   1.210
 3510TIP3    H210476   4.504   2.181   1.148
 3511TIP3   OH210477   7.455   7.549   0.794
 3511TIP3    H110478   7.541   7.524   0.763
 3511TIP3    H210479   7.396   7.482   0.760
 3512TIP3   OH210480   0.302   6.563   4.539
 3512TIP3    H110481   0.209   6.586   4.537
 3512TIP3    H210482   0.303   6.469   4.560
 3513TIP3   OH210483   1.726   0.707   4.146
 3513TIP3    H110484   1.710   0.636   4.084
 3513TIP3    H210485   1.819   0.725   4.139
 3514TIP3   OH210486   1.919   0.494   2.511
 3514TIP3    H110487   1.882   0.544   2.439
 3514TIP3    H210488   1.925   0.556   2.583
 3515TIP3   OH210489   2.291   1.934   0.570
 3515TIP3    H110490   2.377   1.890   0.570
 3515TIP3    H210491   2.301   2.006   0.632
 3516TIP3   OH210492   2.687   4.517   0.929
 3516TIP3    H110493   2.736   4.557   1.001
 3516TIP3    H210494   2.727   4.431   0.918
 3517TIP3   OH210495   2.059   4.723   1.010
 3517TIP3    H110496   2.096   4.703   0.924
 3517TIP3    H210497   1.990   4.657   1.021
 3518TIP3   OH210498   5.628   1.206   4.117
 3518TIP3    H110499   5.537   1.237   4.114
 3518TIP3    H210500   5.674   1.258   4.051
 3519TIP3   OH210501   3.295   6.160   0.897
 3519TIP3    H110502   3.223   6.118   0.944
 3519TIP3    H210503   3.369   6.102   0.910
 3520TIP3   OH210504   6.712   0.166   3.853
 3520TIP3    H110505   6.665   0.196   3.931
 3520TIP3    H210506   6.775   0.103   3.887
 3521TIP3   OH210507   6.293   1.835   3.266
 3521TIP3    H110508   6.202   1.864   3.256
 3521TIP3    H210509   6.298   1.754   3.216
 3522TIP3   OH210510   1.202   2.481   6.024
 3522TIP3    H110511   1.129   2.523   6.070
 3522TIP3    H210512   1.175   2.480   5.932
 3523TIP3   OH210513   4.916   0.856   5.879
 3523TIP3    H110514   4.878   0.845   5.966
 3523TIP3    H210515   4.846   0.895   5.827
 3524TIP3   OH210516   5.190   4.109   3.283
 3524TIP3    H110517   5.139   4.117   3.202
 3524TIP3    H210518   5.193   4.197   3.319
 3525TIP3   OH210519   0.757   2.662   0.835
 3525TIP3    H110520   0.813   2.646   0.759
 3525TIP3    H210521   0.750   2.577   0.877
 3526TIP3   OH210522   3.632   0.082   3.456
 3526TIP3    H110523   3.690   0.011   3.484
 3526TIP3    H210524   3.643   0.087   3.361
 3527TIP3   OH210525   4.545   0.743   3.895
 3527TIP3    H110526   4.467   0.687   3.891
 3527TIP3    H210527   4.512   0.832   3.884
 3528TIP3   OH210528   2.865   0.844   2.705
 3528TIP3    H110529   2.903   0.781   2.766
 3528TIP3    H210530   2.915   0.834   2.625
 3529TIP3   OH210531   4.953   7.370   4.734
 3529TIP3    H110532   4.979   7.345   4.823
 3529TIP3    H210533   5.035   7.382   4.687
 3530TIP3   OH210534   3.497   5.675   5.627
 3530TIP3    H110535   3.451   5.591   5.631
 3530TIP3    H210536   3.440   5.735   5.675
 3531TIP3   OH210537   4.928   4.546   4.517
 3531TIP3    H110538   4.926   4.527   4.423
 3531TIP3    H210539   4.954   4.637   4.523
 3532TIP3   OH210540   3.904   0.906   1.122
 3532TIP3    H110541   3.915   0.855   1.042
 3532TIP3    H210542   3.976   0.878   1.178
 3533TIP3   OH210543   3.377   2.753   6.729
 3533TIP3    H110544   3.329   2.740   6.811
 3533TIP3    H210545   3.371   2.847   6.712
 3534TIP3   OH210546   3.816   2.928   0.903
 3534TIP3    H110547   3.797   2.836   0.883
 3534TIP3    H210548   3.765   2.977   0.839
 3535TIP3   OH210549   6.327   4.630   4.348
 3535TIP3    H110550   6.307   4.615   4.440
 3535TIP3    H210551   6.359   4.720   4.344
 3536TIP3   OH210552   4.757   2.026   2.944
 3536TIP3    H110553   4.734   1.963   3.012
 3536TIP3    H210554   4.847   2.003   2.920
 3537TIP3   OH210555   1.991   3.093   2.633
 3537TIP3    H110556   2.068   3.069   2.683
 3537TIP3    H210557   1.926   3.026   2.654
 3538TIP3   OH210558   3.562   6.569   5.450
 3538TIP3    H110559   3.539   6.660   5.428
 3538TIP3    H210560   3.647   6.555   5.409
 3539TIP3   OH210561   6.124   5.921   2.535
 3539TIP3    H110562   6.055   5.855   2.530
 3539TIP3    H210563   6.188   5.883   2.595
 3540TIP3   OH210564   4.624   5.315   3.815
 3540TIP3    H110565   4.573   5.395   3.825
 3540TIP3    H210566   4.699   5.340   3.762
 3541TIP3   OH210567   1.620   6.747   5.290
 3541TIP3    H110568   1.697   6.691   5.290
 3541TIP3    H210569   1.653   6.833   5.265
 3542TIP3   OH210570   0.937   4.277   1.703
 3542TIP3    H110571   0.966   4.186   1.702
 3542TIP3    H210572   1.016   4.329   1.717
 3543TIP3   OH210573   4.329   1.182   5.516
 3543TIP3    H110574   4.397   1.131   5.474
 3543TIP3    H210575   4.374   1.259   5.550
 3544TIP3   OH210576   7.743   4.040   3.278
 3544TIP3    H110577   7.746   3.951   3.314
 3544TIP3    H210578   7.660   4.075   3.308
 3545TIP3   OH210579   0.196   4.139   4.443
 3545TIP3    H110580   0.285   4.106   4.455
 3545TIP3    H210581   0.194   4.168   4.351
 3546TIP3   OH210582   4.513   7.381   0.750
 3546TIP3    H110583   4.459   7.388   0.671
 3546TIP3    H210584   4.592   7.335   0.720
 3547TIP3   OH210585   4.244   3.547   2.143
 3547TIP3    H110586   4.160   3.518   2.180
 3547TIP3    H210587   4.231   3.542   2.048
 3548TIP3   OH210588   0.456   0.179   3.054
 3548TIP3    H110589   0.392   0.114   3.025
 3548TIP3    H210590   0.538   0.152   3.012
 3549TIP3   OH210591   4.010   5.300   4.670
 3549TIP3    H110592   4.054   5.356   4.606
 3549TIP3    H210593   4.038   5.211   4.647
 3550TIP3   OH210594   0.740   1.406   0.873
 3550TIP3    H110595   0.735   1.483   0.818
 3550TIP3    H210596   0.648   1.385   0.893
 3551TIP3   OH210597   4.760   5.440   4.645
 3551TIP3    H110598   4.751   5.351   4.681
 3551TIP3    H210599   4.821   5.430   4.572
 3552TIP3   OH210600   5.030   1.209   0.698
 3552TIP3    H110601   5.074   1.171   0.621
 3552TIP3    H210602   5.096   1.204   0.767
 3553TIP3   OH210603   5.537   5.337   2.232
 3553TIP3    H110604   5.580   5.265   2.185
 3553TIP3    H210605   5.510   5.397   2.163
 3554TIP3   OH210606   7.055   6.706   6.378
 3554TIP3    H110607   7.044   6.680   6.286
 3554TIP3    H210608   7.149   6.701   6.393
 3555TIP3   OH210609   0.416   6.261   5.754
 3555TIP3    H110610   0.383   6.271   5.843
 3555TIP3    H210611   0.379   6.177   5.725
 3556TIP3   OH210612   7.982   0.266   2.998
 3556TIP3    H110613   8.035   0.277   3.077
 3556TIP3    H210614   7.892   0.270   3.030
 3557TIP3   OH210615   2.160   6.441   3.748
 3557TIP3    H110616   2.210   6.476   3.821
 3557TIP3    H210617   2.178   6.501   3.676
 3558TIP3   OH210618   4.192   0.088   5.357
 3558TIP3    H110619   4.108   0.043   5.347
 3558TIP3    H210620   4.252   0.019   5.389
 3559TIP3   OH210621   5.709   6.214   5.394
 3559TIP3    H110622   5.672   6.273   5.459
 3559TIP3    H210623   5.701   6.262   5.311
 3560TIP3   OH210624   6.937   7.344   4.593
 3560TIP3    H110625   6.856   7.336   4.543
 3560TIP3    H210626   6.941   7.437   4.618
 3561TIP3   OH210627   6.185   0.007   0.779
 3561TIP3    H110628   6.175   0.029   0.686
 3561TIP3    H210629   6.245   0.073   0.813
 3562TIP3   OH210630   0.339   5.975   6.499
 3562TIP3    H110631   0.266   5.967   6.437
 3562TIP3    H210632   0.306   5.935   6.580
 3563TIP3   OH210633   2.108   4.770   3.294
 3563TIP3    H110634   2.084   4.737   3.207
 3563TIP3    H210635   2.203   4.777   3.292
 3564TIP3   OH210636   4.340   5.248   1.136
 3564TIP3    H110637   4.246   5.262   1.151
 3564TIP3    H210638   4.344   5.197   1.055
 3565TIP3   OH210639   2.317   5.966   3.020
 3565TIP3    H110640   2.394   6.021   3.004
 3565TIP3    H210641   2.352   5.878   3.034
 3566TIP3   OH210642   0.897   3.857   1.246
 3566TIP3    H110643   0.807   3.839   1.272
 3566TIP3    H210644   0.890   3.899   1.161
 3567TIP3   OH210645   0.883   1.299   4.802
 3567TIP3    H110646   0.888   1.392   4.780
 3567TIP3    H210647   0.797   1.271   4.770
 3568TIP3   OH210648   0.028   7.267   1.566
 3568TIP3    H110649   0.052   7.360   1.570
 3568TIP3    H210650  -0.017   7.258   1.483
 3569TIP3   OH210651   3.162   6.356   3.706
 3569TIP3    H110652   3.088   6.377   3.764
 3569TIP3    H210653   3.139   6.399   3.623
 3570TIP3   OH210654   0.268   2.453   4.622
 3570TIP3    H110655   0.252   2.515   4.550
 3570TIP3    H210656   0.316   2.381   4.580
 3571TIP3   OH210657   7.986   5.810   3.699
 3571TIP3    H110658   8.053   5.840   3.760
 3571TIP3    H210659   7.972   5.885   3.641
 3572TIP3   OH210660   0.436   7.155   0.540
 3572TIP3    H110661   0.358   7.158   0.485
 3572TIP3    H210662   0.403   7.147   0.629
 3573TIP3   OH210663   2.193   7.856   4.982
 3573TIP3    H110664   2.238   7.780   5.018
 3573TIP3    H210665   2.157   7.825   4.899
 3574TIP3   OH210666   1.748   2.916   3.184
 3574TIP3    H110667   1.830   2.875   3.154
 3574TIP3    H210668   1.756   3.008   3.158
 3575TIP3   OH210669   3.368   5.183   4.894
 3575TIP3    H110670   3.396   5.174   4.803
 3575TIP3    H210671   3.383   5.097   4.933
 3576TIP3   OH210672   1.794   3.550   6.803
 3576TIP3    H110673   1.854   3.479   6.781
 3576TIP3    H210674   1.819   3.622   6.744
 3577TIP3   OH210675   0.686   4.008   5.026
 3577TIP3    H110676   0.683   3.928   5.078
 3577TIP3    H210677   0.769   4.049   5.050
 3578TIP3   OH210678   4.679   0.094   3.099
 3578TIP3    H110679   4.664   0.185   3.129
 3578TIP3    H210680   4.703   0.103   3.007
 3579TIP3   OH210681   6.700   4.872   5.902
 3579TIP3    H110682   6.656   4.922   5.970
 3579TIP3    H210683   6.748   4.937   5.850
 3580TIP3   OH210684   6.272   0.894   1.427
 3580TIP3    H110685   6.229   0.979   1.424
 3580TIP3    H210686   6.217   0.837   1.373
 3581TIP3   OH210687   4.729   4.648   2.159
 3581TIP3    H110688   4.824   4.640   2.165
 3581TIP3    H210689   4.710   4.736   2.191
 3582TIP3   OH210690   8.211   1.990   4.187
 3582TIP3    H110691   8.119   2.014   4.200
 3582TIP3    H210692   8.252   2.068   4.151
 3583TIP3   OH210693   0.048   1.778   0.665
 3583TIP3    H110694   0.007   1.693   0.651
 3583TIP3    H210695   0.142   1.761   0.659
 3584TIP3   OH210696   2.704   6.218   5.716
 3584TIP3    H110697   2.736   6.239   5.804
 3584TIP3    H210698   2.783   6.189   5.669
 3585TIP3   OH210699   3.314   4.138   4.000
 3585TIP3    H110700   3.366   4.210   3.964
 3585TIP3    H210701   3.361   4.059   3.973
 3586TIP3   OH210702   0.938   0.359   2.310
 3586TIP3    H110703   0.968   0.404   2.230
 3586TIP3    H210704   0.843   0.360   2.304
 3587TIP3   OH210705   2.070   5.358   4.501
 3587TIP3    H110706   1.981   5.346   4.467
 3587TIP3    H210707   2.066   5.324   4.590
 3588TIP3   OH210708   3.674   3.490   4.708
 3588TIP3    H110709   3.659   3.524   4.619
 3588TIP3    H210710   3.727   3.556   4.751
 3589TIP3   OH210711   7.142   7.274   1.547
 3589TIP3    H110712   7.159   7.367   1.529
 3589TIP3    H210713   7.208   7.228   1.495
 3590TIP3   OH210714   4.372   0.279   5.302
 3590TIP3    H110715   4.303   0.229   5.344
 3590TIP3    H210716   4.347   0.371   5.315
 3591TIP3   OH210717   5.684   5.866   0.880
 3591TIP3    H110718   5.766   5.898   0.843
 3591TIP3    H210719   5.707   5.787   0.929
 3592TIP3   OH210720   5.512   3.273   4.370
 3592TIP3    H110721   5.495   3.188   4.410
 3592TIP3    H210722   5.497   3.336   4.440
 3593TIP3   OH210723   1.102   4.095   5.885
 3593TIP3    H110724   1.033   4.104   5.950
 3593TIP3    H210725   1.182   4.121   5.930
 3594TIP3   OH210726   7.113   7.231   3.391
 3594TIP3    H110727   7.025   7.223   3.429
 3594TIP3    H210728   7.118   7.321   3.359
 3595TIP3   OH210729   1.739   6.586   2.424
 3595TIP3    H110730   1.825   6.547   2.413
 3595TIP3    H210731   1.697   6.532   2.491
 3596TIP3   OH210732   0.605   3.163   0.188
 3596TIP3    H110733   0.586   3.253   0.216
 3596TIP3    H210734   0.561   3.155   0.103
 3597TIP3   OH210735   7.272   5.284   0.051
 3597TIP3    H110736   7.179   5.281   0.029
 3597TIP3    H210737   7.291   5.197   0.086
 3598TIP3   OH210738   4.017   5.309   4.077
 3598TIP3    H110739   3.932   5.344   4.103
 3598TIP3    H210740   4.048   5.262   4.154
 3599TIP3   OH210741   7.751   6.212   3.414
 3599TIP3    H110742   7.696   6.137   3.391
 3599TIP3    H210743   7.742   6.272   3.340
 3600TIP3   OH210744   7.205   2.225   5.445
 3600TIP3    H110745   7.128   2.170   5.454
 3600TIP3    H210746   7.271   2.185   5.501
 3601TIP3   OH210747   5.085   6.132   1.110
 3601TIP3    H110748   5.144   6.207   1.114
 3601TIP3    H210749   5.006   6.165   1.068
 3602TIP3   OH210750   4.715   5.683   6.530
 3602TIP3    H110751   4.784   5.727   6.480
 3602TIP3    H210752   4.645   5.666   6.467
 3603TIP3   OH210753   5.290   0.319   4.987
 3603TIP3    H110754   5.217   0.323   4.926
 3603TIP3    H210755   5.366   0.350   4.937
 3604TIP3   OH210756   5.243   0.242   3.843
 3604TIP3    H110757   5.300   0.243   3.766
 3604TIP3    H210758   5.187   0.319   3.831
 3605TIP3   OH210759   5.168   6.267   3.860
 3605TIP3    H110760   5.145   6.214   3.936
 3605TIP3    H210761   5.258   6.296   3.878
 3606TIP3   OH210762   6.200   5.406   6.200
 3606TIP3    H110763   6.148   5.473   6.245
 3606TIP3    H210764   6.278   5.396   6.254
 3607TIP3   OH210765   0.438   1.304   4.041
 3607TIP3    H110766   0.470   1.394   4.050
 3607TIP3    H210767   0.441   1.287   3.947
 3608TIP3   OH210768   0.418   2.080   0.095
 3608TIP3    H110769   0.390   2.010   0.153
 3608TIP3    H210770   0.477   2.037   0.032
 3609TIP3   OH210771   1.879   5.464   1.165
 3609TIP3    H110772   1.846   5.400   1.102
 3609TIP3    H210773   1.922   5.411   1.232
 3610TIP3   OH210774   7.414   7.124   0.864
 3610TIP3    H110775   7.410   7.219   0.857
 3610TIP3    H210776   7.368   7.092   0.787
 3611TIP3   OH210777   7.880   3.616   0.144
 3611TIP3    H110778   7.948   3.683   0.147
 3611TIP3    H210779   7.921   3.539   0.183
 3612TIP3   OH210780   5.273   4.581   4.962
 3612TIP3    H110781   5.301   4.493   4.989
 3612TIP3    H210782   5.208   4.606   5.027
 3613TIP3   OH210783   0.844   6.602   4.017
 3613TIP3    H110784   0.928   6.609   4.061
 3613TIP3    H210785   0.800   6.528   4.061
 3614TIP3   OH210786   2.689   0.148   2.035
 3614TIP3    H110787   2.746   0.112   1.968
 3614TIP3    H210788   2.693   0.085   2.107
 3615TIP3   OH210789   7.047   3.903   2.981
 3615TIP3    H110790   7.056   3.995   3.006
 3615TIP3    H210791   6.979   3.903   2.913
 3616TIP3   OH210792   2.051   6.450   5.402
 3616TIP3    H110793   2.117   6.460   5.333
 3616TIP3    H210794   2.034   6.356   5.405
 3617TIP3   OH210795   0.689   4.076   0.322
 3617TIP3    H110796   0.690   4.120   0.407
 3617TIP3    H210797   0.597   4.077   0.295
 3618TIP3   OH210798   5.231   3.385   3.789
 3618TIP3    H110799   5.136   3.384   3.778
 3618TIP3    H210800   5.266   3.401   3.702
 3619TIP3   OH210801   7.349   3.263   5.708
 3619TIP3    H110802   7.385   3.349   5.688
 3619TIP3    H210803   7.349   3.217   5.624
 3620TIP3   OH210804   3.632   4.493   1.203
 3620TIP3    H110805   3.664   4.496   1.113
 3620TIP3    H210806   3.539   4.474   1.195
 3621TIP3   OH210807   2.371   4.878   3.825
 3621TIP3    H110808   2.451   4.871   3.773
 3621TIP3    H210809   2.334   4.963   3.801
 3622TIP3   OH210810   4.150   0.842   0.069
 3622TIP3    H110811   4.160   0.748   0.054
 3622TIP3    H210812   4.202   0.860   0.147
 3623TIP3   OH210813   2.637   4.283   0.144
 3623TIP3    H110814   2.670   4.213   0.087
 3623TIP3    H210815   2.678   4.266   0.229
 3624TIP3   OH210816   2.857   3.200   4.729
 3624TIP3    H110817   2.938   3.166   4.690
 3624TIP3    H210818   2.887   3.255   4.802
 3625TIP3   OH210819   0.611   4.904   2.102
 3625TIP3    H110820   0.575   4.836   2.159
 3625TIP3    H210821   0.683   4.942   2.152
 3626TIP3   OH210822   0.793   5.214   6.799
 3626TIP3    H110823   0.744   5.268   6.737
 3626TIP3    H210824   0.877   5.197   6.756
 3627TIP3   OH210825   4.072   7.036   2.253
 3627TIP3    H110826   4.151   7.074   2.213
 3627TIP3    H210827   4.085   7.047   2.347
 3628TIP3   OH210828   6.008   3.298   1.332
 3628TIP3    H110829   5.938   3.356   1.301
 3628TIP3    H210830   6.088   3.343   1.309
 3629TIP3   OH210831   2.489   6.029   5.560
 3629TIP3    H110832   2.569   5.978   5.577
 3629TIP3    H210833   2.476   6.080   5.640
 3630TIP3   OH210834   4.466   1.872   1.038
 3630TIP3    H110835   4.549   1.877   1.085
 3630TIP3    H210836   4.404   1.839   1.102
 3631TIP3   OH210837   5.152   4.095   4.791
 3631TIP3    H110838   5.131   4.033   4.721
 3631TIP3    H210839   5.180   4.174   4.746
 3632TIP3   OH210840   4.804   5.511   0.543
 3632TIP3    H110841   4.791   5.574   0.614
 3632TIP3    H210842   4.724   5.519   0.490
 3633TIP3   OH210843   2.433   4.095   3.487
 3633TIP3    H110844   2.401   4.155   3.555
 3633TIP3    H210845   2.481   4.028   3.535
 3634TIP3   OH210846   4.348   6.307   1.606
 3634TIP3    H110847   4.261   6.285   1.574
 3634TIP3    H210848   4.405   6.294   1.530
 3635TIP3   OH210849   6.670   2.005  -0.018
 3635TIP3    H110850   6.583   1.988   0.019
 3635TIP3    H210851   6.697   2.089   0.020
 3636TIP3   OH210852   1.583   0.098   4.243
 3636TIP3    H110853   1.679   0.096   4.242
 3636TIP3    H210854   1.561   0.154   4.317
 3637TIP3   OH210855   2.103   6.315   0.623
 3637TIP3    H110856   2.038   6.249   0.648
 3637TIP3    H210857   2.086   6.389   0.681
 3638TIP3   OH210858   6.222   1.246   3.957
 3638TIP3    H110859   6.165   1.183   3.913
 3638TIP3    H210860   6.311   1.221   3.929
 3639TIP3   OH210861   7.296   2.765   5.015
 3639TIP3    H110862   7.268   2.760   4.924
 3639TIP3    H210863   7.390   2.782   5.010
 3640TIP3   OH210864   7.224   3.563   4.846
 3640TIP3    H110865   7.225   3.654   4.818
 3640TIP3    H210866   7.144   3.527   4.808
 3641TIP3   OH210867   5.337   6.197   5.876
 3641TIP3    H110868   5.409   6.260   5.883
 3641TIP3    H210869   5.268   6.244   5.831
 3642TIP3   OH210870   4.479   0.726   1.120
 3642TIP3    H110871   4.408   0.698   1.177
 3642TIP3    H210872   4.552   0.667   1.141
 3643TIP3   OH210873   3.357   0.280   4.960
 3643TIP3    H110874   3.449   0.268   4.981
 3643TIP3    H210875   3.325   0.344   5.023
 3644TIP3   OH210876   1.346   3.166   3.300
 3644TIP3    H110877   1.357   3.072   3.283
 3644TIP3    H210878   1.252   3.181   3.290
 3645TIP3   OH210879   6.165   5.096   3.101
 3645TIP3    H110880   6.165   5.010   3.058
 3645TIP3    H210881   6.096   5.145   3.055
 3646TIP3   OH210882   6.766   7.381   6.020
 3646TIP3    H110883   6.789   7.325   5.946
 3646TIP3    H210884   6.776   7.325   6.097
 3647TIP3   OH210885   7.700   5.487   2.076
 3647TIP3    H110886   7.780   5.517   2.117
 3647TIP3    H210887   7.661   5.426   2.140
 3648TIP3   OH210888   5.479   6.843   4.621
 3648TIP3    H110889   5.447   6.913   4.564
 3648TIP3    H210890   5.516   6.779   4.562
 3649TIP3   OH210891   8.235   2.891   4.951
 3649TIP3    H110892   8.213   2.936   4.870
 3649TIP3    H210893   8.234   2.798   4.929
 3650TIP3   OH210894   3.848   0.859   0.850
 3650TIP3    H110895   3.864   0.775   0.806
 3650TIP3    H210896   3.754   0.873   0.842
 3651TIP3   OH210897   2.339   6.417   0.978
 3651TIP3    H110898   2.383   6.474   0.915
 3651TIP3    H210899   2.339   6.466   1.060
 3652TIP3   OH210900   2.617   2.926   0.052
 3652TIP3    H110901   2.655   2.931  -0.036
 3652TIP3    H210902   2.578   2.839   0.056
 3653TIP3   OH210903   8.123   3.785   1.824
 3653TIP3    H110904   8.071   3.759   1.899
 3653TIP3    H210905   8.211   3.799   1.859
 3654TIP3   OH210906   1.724   0.765   0.387
 3654TIP3    H110907   1.655   0.756   0.453
 3654TIP3    H210908   1.785   0.828   0.425
 3655TIP3   OH210909   6.794   4.277   2.269
 3655TIP3    H110910   6.787   4.304   2.360
 3655TIP3    H210911   6.887   4.286   2.248
 3656TIP3   OH210912   7.220   0.296   0.873
 3656TIP3    H110913   7.281   0.300   0.800
 3656TIP3    H210914   7.269   0.331   0.948
 3657TIP3   OH210915   0.988   0.933   3.394
 3657TIP3    H110916   0.945   0.925   3.479
 3657TIP3    H210917   1.036   1.016   3.399
 3658TIP3   OH210918   1.321   2.418   0.911
 3658TIP3    H110919   1.233   2.407   0.876
 3658TIP3    H210920   1.353   2.498   0.870
 3659TIP3   OH210921   1.345   5.110   1.310
 3659TIP3    H110922   1.264   5.064   1.291
 3659TIP3    H210923   1.391   5.054   1.372
 3660TIP3   OH210924   1.459   5.104   3.046
 3660TIP3    H110925   1.509   5.176   3.007
 3660TIP3    H210926   1.490   5.100   3.137
 3661TIP3   OH210927   7.878   1.959   4.462
 3661TIP3    H110928   7.964   1.918   4.473
 3661TIP3    H210929   7.817   1.886   4.458
 3662TIP3   OH210930   3.733   0.625   1.654
 3662TIP3    H110931   3.757   0.611   1.745
 3662TIP3    H210932   3.808   0.593   1.604
 3663TIP3   OH210933   2.174   3.888   3.478
 3663TIP3    H110934   2.257   3.902   3.525
 3663TIP3    H210935   2.188   3.807   3.430
 3664TIP3   OH210936   3.884   3.479   4.274
 3664TIP3    H110937   3.820   3.521   4.216
 3664TIP3    H210938   3.947   3.438   4.214
 3665TIP3   OH210939   4.267   7.100   5.291
 3665TIP3    H110940   4.269   7.196   5.282
 3665TIP3    H210941   4.177   7.076   5.269
 3666TIP3   OH210942   6.020   6.954   5.991
 3666TIP3    H110943   5.992   7.012   5.920
 3666TIP3    H210944   6.020   6.867   5.953
 3667TIP3   OH210945   3.426   3.994   6.334
 3667TIP3    H110946   3.343   3.949   6.353
 3667TIP3    H210947   3.408   4.086   6.356
 3668TIP3   OH210948   8.111   6.392   1.827
 3668TIP3    H110949   8.018   6.406   1.811
 3668TIP3    H210950   8.136   6.322   1.766
 3669TIP3   OH210951   5.426   6.479   3.696
 3669TIP3    H110952   5.447   6.391   3.728
 3669TIP3    H210953   5.480   6.537   3.750
 3670TIP3   OH210954   5.898   0.550   3.048
 3670TIP3    H110955   5.970   0.548   2.984
 3670TIP3    H210956   5.828   0.598   3.003
 3671TIP3   OH210957   2.022   6.476   6.194
 3671TIP3    H110958   2.022   6.557   6.142
 3671TIP3    H210959   2.059   6.501   6.278
 3672TIP3   OH210960   0.338   7.391   2.703
 3672TIP3    H110961   0.244   7.377   2.691
 3672TIP3    H210962   0.378   7.356   2.623
 3673TIP3   OH210963   3.450   5.663   4.903
 3673TIP3    H110964   3.401   5.739   4.936
 3673TIP3    H210965   3.477   5.688   4.815
 3674TIP3   OH210966   4.963   6.672   3.575
 3674TIP3    H110967   4.972   6.731   3.650
 3674TIP3    H210968   5.026   6.602   3.592
 3675TIP3   OH210969   3.992   1.217   5.390
 3675TIP3    H110970   4.026   1.165   5.318
 3675TIP3    H210971   4.025   1.306   5.372
 3676TIP3   OH210972   2.009   5.485   6.622
 3676TIP3    H110973   1.969   5.533   6.695
 3676TIP3    H210974   2.035   5.554   6.560
 3677TIP3   OH210975   4.529   4.412   2.697
 3677TIP3    H110976   4.434   4.400   2.704
 3677TIP3    H210977   4.539   4.496   2.652
 3678TIP3   OH210978   4.837   4.928   2.025
 3678TIP3    H110979   4.884   4.845   2.040
 3678TIP3    H210980   4.902   4.985   1.983
 3679TIP3   OH210981   3.606   6.853   0.821
 3679TIP3    H110982   3.619   6.759   0.835
 3679TIP3    H210983   3.520   6.871   0.859
 3680TIP3   OH210984   7.815   1.868   3.529
 3680TIP3    H110985   7.798   1.955   3.493
 3680TIP3    H210986   7.840   1.883   3.620
 3681TIP3   OH210987   4.693   3.599   3.414
 3681TIP3    H110988   4.693   3.553   3.330
 3681TIP3    H210989   4.784   3.627   3.426
 3682TIP3   OH210990   5.450   3.011   5.516
 3682TIP3    H110991   5.539   2.993   5.544
 3682TIP3    H210992   5.447   3.106   5.502
 3683TIP3   OH210993   6.301   6.419   0.641
 3683TIP3    H110994   6.249   6.364   0.582
 3683TIP3    H210995   6.279   6.388   0.729
 3684TIP3   OH210996   7.717   2.028   5.541
 3684TIP3    H110997   7.719   1.945   5.589
 3684TIP3    H210998   7.676   2.007   5.457
 3685TIP3   OH210999   2.054   0.769   2.975
 3685TIP3    H111000   2.054   0.861   2.946
 3685TIP3    H211001   2.143   0.753   3.005
 3686TIP3   OH211002   7.435   0.873   3.421
 3686TIP3    H111003   7.434   0.935   3.348
 3686TIP3    H211004   7.445   0.787   3.380
 3687TIP3   OH211005   2.009   6.451   2.410
 3687TIP3    H111006   2.039   6.396   2.337
 3687TIP3    H211007   2.041   6.538   2.389
 3688TIP3   OH211008   3.867   6.523   2.489
 3688TIP3    H111009   3.896   6.476   2.410
 3688TIP3    H211010   3.816   6.458   2.537
 3689TIP3   OH211011   5.466   6.642   3.994
 3689TIP3    H111012   5.448   6.707   3.926
 3689TIP3    H211013   5.404   6.661   4.064
 3690TIP3   OH211014   5.969   6.004   2.026
 3690TIP3    H111015   6.022   6.083   2.031
 3690TIP3    H211016   5.885   6.033   1.991
 3691TIP3   OH211017   2.992   1.295   1.733
 3691TIP3    H111018   3.028   1.381   1.714
 3691TIP3    H211019   3.056   1.234   1.697
 3692TIP3   OH211020   6.175   7.187   6.717
 3692TIP3    H111021   6.155   7.243   6.642
 3692TIP3    H211022   6.190   7.100   6.678
 3693TIP3   OH211023   6.895   7.719   5.956
 3693TIP3    H111024   6.887   7.733   5.862
 3693TIP3    H211025   6.924   7.628   5.965
 3694TIP3   OH211026   0.319   0.080   3.606
 3694TIP3    H111027   0.312   0.096   3.512
 3694TIP3    H211028   0.229   0.075   3.637
 3695TIP3   OH211029   3.589   3.335   5.044
 3695TIP3    H111030   3.567   3.305   4.956
 3695TIP3    H211031   3.646   3.411   5.030
 3696TIP3   OH211032   5.410   1.185   5.310
 3696TIP3    H111033   5.496   1.213   5.340
 3696TIP3    H211034   5.388   1.110   5.366
 3697TIP3   OH211035   0.867   6.225   1.573
 3697TIP3    H111036   0.824   6.165   1.634
 3697TIP3    H211037   0.915   6.168   1.513
 3698TIP3   OH211038   1.616   7.534   2.503
 3698TIP3    H111039   1.533   7.486   2.503
 3698TIP3    H211040   1.617   7.580   2.587
 3699TIP3   OH211041   7.174   3.216   3.410
 3699TIP3    H111042   7.231   3.142   3.388
 3699TIP3    H211043   7.128   3.236   3.328
 3700TIP3   OH211044   0.369   0.296   3.790
 3700TIP3    H111045   0.274   0.297   3.807
 3700TIP3    H211046   0.376   0.290   3.695
 3701TIP3   OH211047   6.677   5.270   6.261
 3701TIP3    H111048   6.678   5.175   6.271
 3701TIP3    H211049   6.763   5.292   6.224
 3702TIP3   OH211050   3.130   2.992   6.756
 3702TIP3    H111051   3.094   2.917   6.708
 3702TIP3    H211052   3.136   3.062   6.690
 3703TIP3   OH211053   0.688   0.939   4.883
 3703TIP3    H111054   0.660   0.894   4.803
 3703TIP3    H211055   0.636   0.899   4.952
 3704TIP3   OH211056   0.071   7.678   4.271
 3704TIP3    H111057   0.129   7.714   4.338
 3704TIP3    H211058   0.081   7.583   4.279
 3705TIP3   OH211059   4.747   4.221   3.301
 3705TIP3    H111060   4.658   4.214   3.268
 3705TIP3    H211061   4.800   4.244   3.224
 3706TIP3   OH211062   1.881   5.787   2.620
 3706TIP3    H111063   1.887   5.756   2.530
 3706TIP3    H211064   1.962   5.836   2.634
 3707TIP3   OH211065   8.081   3.221   5.062
 3707TIP3    H111066   8.023   3.293   5.087
 3707TIP3    H211067   8.169   3.260   5.058
 3708TIP3   OH211068   0.200   1.010   6.449
 3708TIP3    H111069   0.112   1.018   6.487
 3708TIP3    H211070   0.252   0.969   6.518
 3709TIP3   OH211071   4.781   3.577   6.729
 3709TIP3    H111072   4.708   3.518   6.750
 3709TIP3    H211073   4.752   3.663   6.760
 3710TIP3   OH211074   7.384   6.336   2.807
 3710TIP3    H111075   7.292   6.359   2.818
 3710TIP3    H211076   7.398   6.263   2.867
 3711TIP3   OH211077   1.026   1.554   3.469
 3711TIP3    H111078   0.943   1.531   3.427
 3711TIP3    H211079   1.059   1.472   3.505
 3712TIP3   OH211080   2.962   2.321   1.019
 3712TIP3    H111081   2.966   2.324   0.923
 3712TIP3    H211082   3.050   2.345   1.047
 3713TIP3   OH211083   3.454   1.411   5.435
 3713TIP3    H111084   3.372   1.436   5.392
 3713TIP3    H211085   3.484   1.334   5.387
 3714TIP3   OH211086   4.374   7.229   4.513
 3714TIP3    H111087   4.353   7.241   4.606
 3714TIP3    H211088   4.306   7.170   4.480
 3715TIP3   OH211089   0.393   0.480   2.090
 3715TIP3    H111090   0.305   0.445   2.088
 3715TIP3    H211091   0.381   0.575   2.092
 3716TIP3   OH211092   2.453   4.438   5.078
 3716TIP3    H111093   2.418   4.389   5.003
 3716TIP3    H211094   2.397   4.412   5.152
 3717TIP3   OH211095   8.268   7.792   2.295
 3717TIP3    H111096   8.259   7.886   2.311
 3717TIP3    H211097   8.292   7.755   2.380
 3718TIP3   OH211098   6.161   1.076   6.271
 3718TIP3    H111099   6.122   1.034   6.195
 3718TIP3    H211100   6.112   1.042   6.346
 3719TIP3   OH211101   4.628   3.268   4.011
 3719TIP3    H111102   4.702   3.256   4.070
 3719TIP3    H211103   4.551   3.243   4.063
 3720TIP3   OH211104   7.266   4.234   2.034
 3720TIP3    H111105   7.304   4.168   1.977
 3720TIP3    H211106   7.176   4.204   2.050
 3721TIP3   OH211107   5.223   3.772   0.962
 3721TIP3    H111108   5.227   3.694   1.018
 3721TIP3    H211109   5.135   3.770   0.925
 3722TIP3   OH211110   4.968   2.417   0.224
 3722TIP3    H111111   4.946   2.470   0.147
 3722TIP3    H211112   4.942   2.470   0.299
 3723TIP3   OH211113   1.387   5.297   0.682
 3723TIP3    H111114   1.467   5.349   0.695
 3723TIP3    H211115   1.414   5.224   0.627
 3724TIP3   OH211116   5.750   6.158   6.000
 3724TIP3    H111117   5.756   6.124   6.089
 3724TIP3    H211118   5.815   6.109   5.950
 3725TIP3   OH211119   6.943   4.909   3.484
 3725TIP3    H111120   6.904   4.884   3.400
 3725TIP3    H211121   7.015   4.967   3.460
 3726TIP3   OH211122   8.067   6.398   3.692
 3726TIP3    H111123   8.050   6.310   3.727
 3726TIP3    H211124   7.998   6.452   3.730
 3727TIP3   OH211125   4.602   5.339   6.064
 3727TIP3    H111126   4.602   5.243   6.057
 3727TIP3    H211127   4.552   5.357   6.143
 3728TIP3   OH211128   5.656   6.651   1.466
 3728TIP3    H111129   5.590   6.641   1.397
 3728TIP3    H211130   5.609   6.697   1.536
 3729TIP3   OH211131   0.221   1.694   5.797
 3729TIP3    H111132   0.307   1.651   5.794
 3729TIP3    H211133   0.236   1.780   5.757
 3730TIP3   OH211134   7.623   7.253   6.186
 3730TIP3    H111135   7.715   7.278   6.190
 3730TIP3    H211136   7.575   7.331   6.214
 3731TIP3   OH211137   5.961   1.095   1.255
 3731TIP3    H111138   5.937   1.008   1.224
 3731TIP3    H211139   5.884   1.126   1.302
 3732TIP3   OH211140   6.776   2.640   5.354
 3732TIP3    H111141   6.775   2.589   5.273
 3732TIP3    H211142   6.867   2.668   5.364
 3733TIP3   OH211143   7.076   0.521   1.938
 3733TIP3    H111144   7.007   0.463   1.971
 3733TIP3    H211145   7.035   0.607   1.932
 3734TIP3   OH211146   7.944   3.206   5.554
 3734TIP3    H111147   8.016   3.260   5.523
 3734TIP3    H211148   7.983   3.150   5.621
 3735TIP3   OH211149   0.805   0.940   1.604
 3735TIP3    H111150   0.786   1.029   1.634
 3735TIP3    H211151   0.749   0.927   1.528
 3736TIP3   OH211152   6.868   0.461   5.329
 3736TIP3    H111153   6.844   0.379   5.285
 3736TIP3    H211154   6.873   0.525   5.259
 3737TIP3   OH211155   6.025   1.914   4.790
 3737TIP3    H111156   6.092   1.916   4.857
 3737TIP3    H211157   6.021   2.004   4.756
 3738TIP3   OH211158   1.378   0.589   6.259
 3738TIP3    H111159   1.370   0.622   6.169
 3738TIP3    H211160   1.305   0.527   6.268
 3739TIP3   OH211161   4.189   3.141   5.079
 3739TIP3    H111162   4.221   3.088   5.152
 3739TIP3    H211163   4.109   3.182   5.112
 3740TIP3   OH211164   2.750   0.477   2.588
 3740TIP3    H111165   2.681   0.416   2.614
 3740TIP3    H211166   2.713   0.527   2.516
 3741TIP3   OH211167   8.133   7.518   2.542
 3741TIP3    H111168   8.126   7.613   2.530
 3741TIP3    H211169   8.077   7.499   2.617
 3742TIP3   OH211170   2.967   5.485   6.740
 3742TIP3    H111171   2.937   5.475   6.650
 3742TIP3    H211172   3.063   5.476   6.735
 3743TIP3   OH211173   7.756   3.912   0.564
 3743TIP3    H111174   7.767   3.926   0.470
 3743TIP3    H211175   7.845   3.895   0.596
 3744TIP3   OH211176   4.608   6.873   1.242
 3744TIP3    H111177   4.683   6.905   1.191
 3744TIP3    H211178   4.549   6.836   1.176
 3745TIP3   OH211179   3.079   0.171   1.727
 3745TIP3    H111180   3.090   0.080   1.698
 3745TIP3    H211181   3.077   0.222   1.647
 3746TIP3   OH211182   8.039   2.726   4.240
 3746TIP3    H111183   7.998   2.735   4.154
 3746TIP3    H211184   8.022   2.809   4.284
 3747TIP3   OH211185   3.937   0.789   6.102
 3747TIP3    H111186   3.873   0.725   6.072
 3747TIP3    H211187   4.013   0.776   6.045
 3748TIP3   OH211188   2.525   6.422   6.019
 3748TIP3    H111189   2.462   6.444   5.950
 3748TIP3    H211190   2.558   6.507   6.049
 3749TIP3   OH211191   0.508   4.923   2.708
 3749TIP3    H111192   0.556   4.946   2.629
 3749TIP3    H211193   0.544   4.981   2.775
 3750TIP3   OH211194   8.225   5.190   5.025
 3750TIP3    H111195   8.190   5.279   5.022
 3750TIP3    H211196   8.317   5.199   5.000
 3751TIP3   OH211197   5.644   2.359   6.208
 3751TIP3    H111198   5.701   2.285   6.228
 3751TIP3    H211199   5.578   2.324   6.148
 3752TIP3   OH211200   2.881   3.569   5.819
 3752TIP3    H111201   2.940   3.514   5.769
 3752TIP3    H211202   2.882   3.531   5.907
 3753TIP3   OH211203   8.035   1.435   6.600
 3753TIP3    H111204   7.969   1.414   6.534
 3753TIP3    H211205   8.046   1.530   6.595
 3754TIP3   OH211206   0.737   3.476   6.175
 3754TIP3    H111207   0.753   3.390   6.136
 3754TIP3    H211208   0.821   3.502   6.212
 3755TIP3   OH211209   5.289   0.107   0.217
 3755TIP3    H111210   5.306   0.190   0.172
 3755TIP3    H211211   5.248   0.052   0.151
 3756TIP3   OH211212   7.476   6.052   4.295
 3756TIP3    H111213   7.571   6.053   4.285
 3756TIP3    H211214   7.456   6.135   4.339
 3757TIP3   OH211215   4.050   7.661   5.836
 3757TIP3    H111216   4.031   7.652   5.743
 3757TIP3    H211217   4.090   7.748   5.844
 3758TIP3   OH211218   2.644   4.998   1.387
 3758TIP3    H111219   2.736   5.006   1.412
 3758TIP3    H211220   2.596   5.038   1.459
 3759TIP3   OH211221   4.195   2.044   4.281
 3759TIP3    H111222   4.105   2.070   4.264
 3759TIP3    H211223   4.188   1.956   4.319
 3760TIP3   OH211224   4.445   1.373   4.847
 3760TIP3    H111225   4.538   1.365   4.870
 3760TIP3    H211226   4.410   1.284   4.858
 3761TIP3   OH211227   1.920   2.073   2.622
 3761TIP3    H111228   2.009   2.040   2.624
 3761TIP3    H211229   1.878   2.035   2.699
 3762TIP3   OH211230   4.408   6.779   4.989
 3762TIP3    H111231   4.457   6.776   5.071
 3762TIP3    H211232   4.399   6.687   4.963
 3763TIP3   OH211233   0.349   2.836   3.400
 3763TIP3    H111234   0.427   2.816   3.349
 3763TIP3    H211235   0.383   2.875   3.481
 3764TIP3   OH211236   7.294   1.522   3.200
 3764TIP3    H111237   7.356   1.473   3.253
 3764TIP3    H211238   7.273   1.599   3.253
 3765TIP3   OH211239   4.691   3.500   2.016
 3765TIP3    H111240   4.686   3.409   1.987
 3765TIP3    H211241   4.726   3.547   1.941
 3766TIP3   OH211242   8.285   7.033   0.906
 3766TIP3    H111243   8.321   7.012   0.820
 3766TIP3    H211244   8.285   7.129   0.910
 3767TIP3   OH211245   5.203   5.625   0.250
 3767TIP3    H111246   5.180   5.701   0.303
 3767TIP3    H211247   5.123   5.573   0.247
 3768TIP3   OH211248   4.955   7.350   5.916
 3768TIP3    H111249   5.008   7.347   5.836
 3768TIP3    H211250   4.927   7.260   5.930
 3769TIP3   OH211251   6.138   0.801   5.659
 3769TIP3    H111252   6.135   0.896   5.650
 3769TIP3    H211253   6.228   0.778   5.638
 3770TIP3   OH211254   0.220   3.860   5.040
 3770TIP3    H111255   0.215   3.765   5.034
 3770TIP3    H211256   0.130   3.888   5.061
 3771TIP3   OH211257   0.907   4.114   2.501
 3771TIP3    H111258   0.859   4.032   2.513
 3771TIP3    H211259   0.956   4.102   2.419
 3772TIP3   OH211260   3.055   7.208   5.056
 3772TIP3    H111261   3.012   7.124   5.076
 3772TIP3    H211262   3.146   7.194   5.084
 3773TIP3   OH211263   3.076   6.127   0.457
 3773TIP3    H111264   3.075   6.076   0.376
 3773TIP3    H211265   3.094   6.063   0.526
 3774TIP3   OH211266   5.070   7.135   1.153
 3774TIP3    H111267   4.978   7.108   1.157
 3774TIP3    H211268   5.068   7.229   1.169
 3775TIP3   OH211269   6.185   7.678   6.452
 3775TIP3    H111270   6.098   7.641   6.433
 3775TIP3    H211271   6.246   7.615   6.414
 3776TIP3   OH211272   3.736   2.103   5.854
 3776TIP3    H111273   3.653   2.056   5.848
 3776TIP3    H211274   3.801   2.041   5.823
 3777TIP3   OH211275   0.937   3.287   2.524
 3777TIP3    H111276   0.906   3.345   2.454
 3777TIP3    H211277   0.907   3.328   2.605
 3778TIP3   OH211278   3.375   7.324   0.248
 3778TIP3    H111279   3.390   7.349   0.339
 3778TIP3    H211280   3.354   7.231   0.251
 3779TIP3   OH211281   2.277   7.350   6.453
 3779TIP3    H111282   2.350   7.316   6.505
 3779TIP3    H211283   2.200   7.305   6.487
 3780TIP3   OH211284   6.106   4.278   6.358
 3780TIP3    H111285   6.090   4.225   6.436
 3780TIP3    H211286   6.029   4.336   6.353
 3781TIP3   OH211287   3.024   0.965   3.011
 3781TIP3    H111288   2.965   0.908   3.061
 3781TIP3    H211289   3.108   0.960   3.057
 3782TIP3   OH211290   2.199   5.416   6.275
 3782TIP3    H111291   2.180   5.369   6.356
 3782TIP3    H211292   2.290   5.394   6.255
 3783TIP3   OH211293   4.306   3.006   5.677
 3783TIP3    H111294   4.360   3.047   5.609
 3783TIP3    H211295   4.227   2.977   5.631
 3784TIP3   OH211296   2.702   5.446   3.531
 3784TIP3    H111297   2.736   5.509   3.594
 3784TIP3    H211298   2.780   5.406   3.493
 3785TIP3   OH211299   6.559   4.608   6.465
 3785TIP3    H111300   6.574   4.514   6.477
 3785TIP3    H211301   6.560   4.644   6.554
 3786TIP3   OH211302   5.499   2.552   3.140
 3786TIP3    H111303   5.558   2.609   3.190
 3786TIP3    H211304   5.455   2.499   3.207
 3787TIP3   OH211305   1.943   1.637   2.536
 3787TIP3    H111306   1.870   1.575   2.537
 3787TIP3    H211307   2.017   1.586   2.501
 3788TIP3   OH211308   4.910   2.174   2.032
 3788TIP3    H111309   4.860   2.252   2.054
 3788TIP3    H211310   4.860   2.133   1.961
 3789TIP3   OH211311   0.561   2.715   1.050
 3789TIP3    H111312   0.548   2.623   1.073
 3789TIP3    H211313   0.614   2.712   0.970
 3790TIP3   OH211314   2.782   7.401   3.206
 3790TIP3    H111315   2.877   7.407   3.192
 3790TIP3    H211316   2.768   7.439   3.292
 3791TIP3   OH211317   1.750   5.970   0.230
 3791TIP3    H111318   1.764   6.052   0.277
 3791TIP3    H211319   1.793   5.904   0.285
 3792TIP3   OH211320   5.707   5.992   0.142
 3792TIP3    H111321   5.715   5.976   0.048
 3792TIP3    H211322   5.701   5.905   0.181
 3793TIP3   OH211323   0.653   6.974   6.488
 3793TIP3    H111324   0.706   7.006   6.561
 3793TIP3    H211325   0.691   6.890   6.466
 3794TIP3   OH211326   5.044   4.981   2.572
 3794TIP3    H111327   5.054   5.049   2.639
 3794TIP3    H211328   4.949   4.976   2.556
 3795TIP3   OH211329   7.569   5.227   6.111
 3795TIP3    H111330   7.630   5.264   6.175
 3795TIP3    H211331   7.506   5.297   6.094
 3796TIP3   OH211332   4.996   4.068   3.517
 3796TIP3    H111333   4.930   4.023   3.464
 3796TIP3    H211334   5.067   4.086   3.456
 3797TIP3   OH211335   8.000   0.352   0.282
 3797TIP3    H111336   7.942   0.280   0.304
 3797TIP3    H211337   8.059   0.317   0.215
 3798TIP3   OH211338   1.187   4.604   2.129
 3798TIP3    H111339   1.256   4.540   2.109
 3798TIP3    H211340   1.126   4.557   2.186
 3799TIP3   OH211341   2.112   7.241   0.204
 3799TIP3    H111342   2.136   7.153   0.231
 3799TIP3    H211343   2.021   7.251   0.233
 3800TIP3   OH211344   6.759   3.746   3.854
 3800TIP3    H111345   6.810   3.675   3.894
 3800TIP3    H211346   6.822   3.792   3.798
 3801TIP3   OH211347   5.025   0.126   4.199
 3801TIP3    H111348   5.069   0.042   4.215
 3801TIP3    H211349   5.088   0.177   4.149
 3802TIP3   OH211350   4.911   6.314   4.455
 3802TIP3    H111351   4.840   6.266   4.413
 3802TIP3    H211352   4.902   6.294   4.548
 3803TIP3   OH211353   0.862   3.689   4.127
 3803TIP3    H111354   0.844   3.621   4.063
 3803TIP3    H211355   0.790   3.683   4.190
 3804TIP3   OH211356   1.189   5.240   1.903
 3804TIP3    H111357   1.209   5.214   1.813
 3804TIP3    H211358   1.259   5.301   1.926
 3805TIP3   OH211359   0.606   7.840   2.742
 3805TIP3    H111360   0.654   7.783   2.802
 3805TIP3    H211361   0.521   7.852   2.785
 3806TIP3   OH211362   0.078   4.523   2.925
 3806TIP3    H111363   0.119   4.564   2.849
 3806TIP3    H211364   0.062   4.595   2.986
 3807TIP3   OH211365   3.815   7.192   1.942
 3807TIP3    H111366   3.773   7.128   1.884
 3807TIP3    H211367   3.863   7.140   2.005
 3808TIP3   OH211368   1.856   7.623   1.949
 3808TIP3    H111369   1.784   7.682   1.974
 3808TIP3    H211370   1.916   7.625   2.024
 3809TIP3   OH211371   5.982   2.418   0.134
 3809TIP3    H111372   5.956   2.435   0.043
 3809TIP3    H211373   6.010   2.326   0.134
 3810TIP3   OH211374   2.485   5.356   0.141
 3810TIP3    H111375   2.512   5.267   0.163
 3810TIP3    H211376   2.422   5.344   0.069
 3811TIP3   OH211377   4.570   0.915   6.170
 3811TIP3    H111378   4.566   0.881   6.260
 3811TIP3    H211379   4.659   0.950   6.162
 3812TIP3   OH211380   5.338   0.313   6.297
 3812TIP3    H111381   5.430   0.323   6.322
 3812TIP3    H211382   5.289   0.329   6.377
 3813TIP3   OH211383   3.344   4.199   4.321
 3813TIP3    H111384   3.343   4.271   4.258
 3813TIP3    H211385   3.269   4.145   4.298
 3814TIP3   OH211386   0.351   1.182   2.024
 3814TIP3    H111387   0.443   1.161   2.036
 3814TIP3    H211388   0.333   1.251   2.088
 3815TIP3   OH211389   4.447   3.070   2.799
 3815TIP3    H111390   4.387   3.038   2.866
 3815TIP3    H211391   4.523   3.101   2.848
 3816TIP3   OH211392   3.920   2.152   4.224
 3816TIP3    H111393   3.838   2.126   4.183
 3816TIP3    H211394   3.966   2.201   4.156
 3817TIP3   OH211395   7.978   5.388   2.502
 3817TIP3    H111396   7.975   5.331   2.578
 3817TIP3    H211397   7.985   5.476   2.537
 3818TIP3   OH211398   7.230   3.719   5.996
 3818TIP3    H111399   7.242   3.627   5.973
 3818TIP3    H211400   7.237   3.721   6.092
 3819TIP3   OH211401   3.925   2.198   0.119
 3819TIP3    H111402   3.927   2.134   0.191
 3819TIP3    H211403   3.953   2.280   0.159
 3820TIP3   OH211404   0.436   1.277   1.287
 3820TIP3    H111405   0.499   1.235   1.228
 3820TIP3    H211406   0.476   1.269   1.374
 3821TIP3   OH211407   2.805   2.616   1.908
 3821TIP3    H111408   2.864   2.657   1.971
 3821TIP3    H211409   2.796   2.682   1.838
 3822TIP3   OH211410   5.514   1.133   1.232
 3822TIP3    H111411   5.482   1.066   1.171
 3822TIP3    H211412   5.457   1.125   1.308
 3823TIP3   OH211413   5.216   7.269   6.377
 3823TIP3    H111414   5.224   7.354   6.420
 3823TIP3    H211415   5.303   7.229   6.387
 3824TIP3   OH211416   2.025   6.266   4.363
 3824TIP3    H111417   2.118   6.254   4.383
 3824TIP3    H211418   1.979   6.213   4.428
 3825TIP3   OH211419   6.008   2.169   4.749
 3825TIP3    H111420   6.008   2.243   4.809
 3825TIP3    H211421   6.074   2.191   4.684
 3826TIP3   OH211422   3.419   4.300   1.080
 3826TIP3    H111423   3.332   4.276   1.110
 3826TIP3    H211424   3.474   4.226   1.104
 3827TIP3   OH211425   3.855   4.159   6.716
 3827TIP3    H111426   3.848   4.071   6.754
 3827TIP3    H211427   3.840   4.146   6.622
 3828TIP3   OH211428   5.608   1.266   6.541
 3828TIP3    H111429   5.588   1.315   6.462
 3828TIP3    H211430   5.529   1.271   6.594
 3829TIP3   OH211431   6.526   2.809   1.500
 3829TIP3    H111432   6.476   2.825   1.581
 3829TIP3    H211433   6.472   2.848   1.431
 3830TIP3   OH211434   2.114   5.077   2.826
 3830TIP3    H111435   2.048   5.036   2.882
 3830TIP3    H211436   2.194   5.026   2.842
 3831TIP3   OH211437   1.396   5.850  -0.029
 3831TIP3    H111438   1.304   5.823  -0.031
 3831TIP3    H211439   1.414   5.870   0.063
 3832TIP3   OH211440   5.914   5.962   3.403
 3832TIP3    H111441   5.865   5.978   3.483
 3832TIP3    H211442   5.987   6.024   3.407
 3833TIP3   OH211443   7.312   0.833   5.370
 3833TIP3    H111444   7.271   0.775   5.306
 3833TIP3    H211445   7.406   0.817   5.359
 3834TIP3   OH211446   6.782   5.067   0.482
 3834TIP3    H111447   6.790   5.117   0.401
 3834TIP3    H211448   6.698   5.094   0.518
 3835TIP3   OH211449   2.402   2.992   6.105
 3835TIP3    H111450   2.349   3.014   6.182
 3835TIP3    H211451   2.486   2.966   6.141
 3836TIP3   OH211452   5.432   2.716   5.826
 3836TIP3    H111453   5.408   2.679   5.911
 3836TIP3    H211454   5.420   2.644   5.764
 3837TIP3   OH211455   7.515   2.502   5.040
 3837TIP3    H111456   7.475   2.425   4.999
 3837TIP3    H211457   7.471   2.510   5.125
 3838TIP3   OH211458   1.092   2.426   6.759
 3838TIP3    H111459   1.096   2.389   6.671
 3838TIP3    H211460   1.010   2.394   6.796
 3839TIP3   OH211461   0.075   5.047   0.233
 3839TIP3    H111462   0.135   5.028   0.161
 3839TIP3    H211463  -0.011   5.056   0.192
 3840TIP3   OH211464   4.268   0.317   2.204
 3840TIP3    H111465   4.191   0.261   2.204
 3840TIP3    H211466   4.337   0.263   2.244
 3841TIP3   OH211467   7.062   6.925   1.039
 3841TIP3    H111468   7.102   6.890   0.959
 3841TIP3    H211469   7.137   6.952   1.092
 3842TIP3   OH211470   1.667   2.615   0.325
 3842TIP3    H111471   1.714   2.569   0.255
 3842TIP3    H211472   1.687   2.707   0.311
 3843TIP3   OH211473   7.130   3.642   0.862
 3843TIP3    H111474   7.170   3.607   0.782
 3843TIP3    H211475   7.166   3.590   0.933
 3844TIP3   OH211476   4.383   5.581   5.035
 3844TIP3    H111477   4.457   5.616   4.986
 3844TIP3    H211478   4.414   5.499   5.072
 3845TIP3   OH211479   6.262   4.063   5.451
 3845TIP3    H111480   6.203   4.116   5.506
 3845TIP3    H211481   6.234   3.973   5.468
 3846TIP3   OH211482   4.999   6.658   6.789
 3846TIP3    H111483   5.090   6.639   6.764
 3846TIP3    H211484   4.950   6.580   6.761
 3847TIP3   OH211485   3.480   3.733   5.057
 3847TIP3    H111486   3.399   3.777   5.083
 3847TIP3    H211487   3.473   3.725   4.962
 3848TIP3   OH211488   3.803   5.648   6.328
 3848TIP3    H111489   3.845   5.563   6.315
 3848TIP3    H211490   3.839   5.703   6.258
 3849TIP3   OH211491   4.774   6.601   3.881
 3849TIP3    H111492   4.762   6.612   3.786
 3849TIP3    H211493   4.843   6.663   3.904
 3850TIP3   OH211494   5.605   3.445   3.647
 3850TIP3    H111495   5.615   3.360   3.689
 3850TIP3    H211496   5.627   3.431   3.556
 3851TIP3   OH211497   8.279   6.650   1.033
 3851TIP3    H111498   8.345   6.716   1.056
 3851TIP3    H211499   8.196   6.698   1.035
 3852TIP3   OH211500   5.034   6.419   2.062
 3852TIP3    H111501   5.109   6.475   2.039
 3852TIP3    H211502   5.072   6.351   2.118
 3853TIP3   OH211503   4.660   0.464   3.454
 3853TIP3    H111504   4.669   0.542   3.399
 3853TIP3    H211505   4.679   0.495   3.542
 3854TIP3   OH211506   0.619   0.475   3.790
 3854TIP3    H111507   0.622   0.477   3.886
 3854TIP3    H211508   0.552   0.410   3.770
 3855TIP3   OH211509   4.272   1.750   1.188
 3855TIP3    H111510   4.289   1.662   1.156
 3855TIP3    H211511   4.177   1.761   1.179
 3856TIP3   OH211512   2.527   4.584   0.218
 3856TIP3    H111513   2.529   4.498   0.176
 3856TIP3    H211514   2.612   4.622   0.197
 3857TIP3   OH211515   2.024   6.924   1.640
 3857TIP3    H111516   1.986   6.972   1.714
 3857TIP3    H211517   2.008   6.982   1.565
 3858TIP3   OH211518   3.716   6.627   0.074
 3858TIP3    H111519   3.787   6.594   0.128
 3858TIP3    H211520   3.717   6.571  -0.004
 3859TIP3   OH211521   6.090   3.881   5.836
 3859TIP3    H111522   6.136   3.956   5.798
 3859TIP3    H211523   6.012   3.919   5.878
 3860TIP3   OH211524   0.386   0.305   5.470
 3860TIP3    H111525   0.426   0.226   5.506
 3860TIP3    H211526   0.295   0.301   5.498
 3861TIP3   OH211527   3.468   5.112   3.378
 3861TIP3    H111528   3.496   5.200   3.353
 3861TIP3    H211529   3.452   5.067   3.295
 3862TIP3   OH211530   7.843   1.225   0.856
 3862TIP3    H111531   7.812   1.314   0.868
 3862TIP3    H211532   7.885   1.203   0.940
 3863TIP3   OH211533   7.288   6.905   3.325
 3863TIP3    H111534   7.340   6.825   3.335
 3863TIP3    H211535   7.347   6.976   3.347
 3864TIP3   OH211536   7.224   5.604   4.194
 3864TIP3    H111537   7.189   5.533   4.249
 3864TIP3    H211538   7.182   5.683   4.228
 3865TIP3   OH211539   1.737   5.162   3.552
 3865TIP3    H111540   1.821   5.122   3.576
 3865TIP3    H211541   1.693   5.177   3.636
 3866TIP3   OH211542   6.474   6.081   2.964
 3866TIP3    H111543   6.512   6.003   2.925
 3866TIP3    H211544   6.528   6.098   3.041
 3867TIP3   OH211545   2.858   4.134   1.394
 3867TIP3    H111546   2.919   4.172   1.331
 3867TIP3    H211547   2.888   4.167   1.479
 3868TIP3   OH211548   5.900   7.416   5.833
 3868TIP3    H111549   5.933   7.416   5.923
 3868TIP3    H211550   5.851   7.498   5.825
 3869TIP3   OH211551   4.999   7.198   4.117
 3869TIP3    H111552   4.921   7.223   4.066
 3869TIP3    H211553   4.975   7.114   4.157
 3870TIP3   OH211554   4.305   6.839   4.068
 3870TIP3    H111555   4.298   6.776   3.997
 3870TIP3    H211556   4.336   6.788   4.143
 3871TIP3   OH211557   1.561   2.455   2.817
 3871TIP3    H111558   1.553   2.438   2.910
 3871TIP3    H211559   1.578   2.370   2.778
 3872TIP3   OH211560   5.610   3.720   3.702
 3872TIP3    H111561   5.587   3.756   3.617
 3872TIP3    H211562   5.607   3.625   3.689
 3873TIP3   OH211563   0.175   7.159   1.783
 3873TIP3    H111564   0.110   7.221   1.749
 3873TIP3    H211565   0.246   7.163   1.719
 3874TIP3   OH211566   7.150   4.731   1.812
 3874TIP3    H111567   7.189   4.815   1.837
 3874TIP3    H211568   7.072   4.723   1.866
 3875TIP3   OH211569   5.822   7.656   1.669
 3875TIP3    H111570   5.753   7.653   1.736
 3875TIP3    H211571   5.795   7.592   1.604
 3876TIP3   OH211572   0.948   1.976   5.125
 3876TIP3    H111573   0.893   1.905   5.157
 3876TIP3    H211574   0.950   2.039   5.197
 3877TIP3   OH211575   5.168   0.568   4.443
 3877TIP3    H111576   5.182   0.487   4.394
 3877TIP3    H211577   5.177   0.541   4.535
 3878TIP3   OH211578   5.632   2.236   0.336
 3878TIP3    H111579   5.603   2.148   0.360
 3878TIP3    H211580   5.575   2.261   0.264
 3879TIP3   OH211581   2.295   2.421   1.491
 3879TIP3    H111582   2.358   2.380   1.432
 3879TIP3    H211583   2.346   2.444   1.568
 3880TIP3   OH211584   5.350   4.423   0.906
 3880TIP3    H111585   5.345   4.363   0.831
 3880TIP3    H211586   5.333   4.509   0.868
 3881TIP3   OH211587   3.312   3.055   2.889
 3881TIP3    H111588   3.272   2.982   2.841
 3881TIP3    H211589   3.307   3.029   2.981
 3882TIP3   OH211590   6.250   7.291   0.269
 3882TIP3    H111591   6.243   7.282   0.364
 3882TIP3    H211592   6.160   7.305   0.240
 3883TIP3   OH211593   6.800   0.051   5.433
 3883TIP3    H111594   6.876   0.108   5.421
 3883TIP3    H211595   6.751   0.061   5.351
 3884TIP3   OH211596   7.923   6.004   3.512
 3884TIP3    H111597   7.958   5.994   3.424
 3884TIP3    H211598   7.855   6.070   3.504
 3885TIP3   OH211599   0.097   4.415   6.719
 3885TIP3    H111600   0.119   4.322   6.726
 3885TIP3    H211601   0.179   4.460   6.739
 3886TIP3   OH211602   7.690   3.052   6.613
 3886TIP3    H111603   7.773   3.011   6.640
 3886TIP3    H211604   7.628   3.027   6.681
 3887TIP3   OH211605   4.530   1.807   3.055
 3887TIP3    H111606   4.464   1.868   3.022
 3887TIP3    H211607   4.568   1.851   3.131
 3888TIP3   OH211608   1.806   5.841   6.522
 3888TIP3    H111609   1.828   5.934   6.529
 3888TIP3    H211610   1.802   5.811   6.613
 3889TIP3   OH211611   7.066   3.256   3.649
 3889TIP3    H111612   7.127   3.221   3.714
 3889TIP3    H211613   7.103   3.230   3.565
 3890TIP3   OH211614   5.741   2.788   6.572
 3890TIP3    H111615   5.745   2.765   6.665
 3890TIP3    H211616   5.787   2.716   6.528
 3891TIP3   OH211617   2.810   0.275   6.086
 3891TIP3    H111618   2.870   0.346   6.106
 3891TIP3    H211619   2.791   0.285   5.993
 3892TIP3   OH211620   5.504   5.279   1.464
 3892TIP3    H111621   5.498   5.363   1.509
 3892TIP3    H211622   5.516   5.301   1.372
 3893TIP3   OH211623   6.177   0.880   0.599
 3893TIP3    H111624   6.257   0.907   0.555
 3893TIP3    H211625   6.137   0.963   0.627
 3894TIP3   OH211626   3.488   2.078   4.924
 3894TIP3    H111627   3.466   2.168   4.946
 3894TIP3    H211628   3.525   2.041   5.004
 3895TIP3   OH211629   3.703   0.096   0.972
 3895TIP3    H111630   3.634   0.110   0.907
 3895TIP3    H211631   3.721   0.183   1.007
 3896TIP3   OH211632   3.743   3.305   1.135
 3896TIP3    H111633   3.704   3.335   1.217
 3896TIP3    H211634   3.765   3.213   1.150
 3897TIP3   OH211635   7.691   4.790   6.379
 3897TIP3    H111636   7.708   4.700   6.407
 3897TIP3    H211637   7.655   4.782   6.291
 3898TIP3   OH211638   6.464   5.534   1.717
 3898TIP3    H111639   6.484   5.537   1.810
 3898TIP3    H211640   6.392   5.596   1.705
 3899TIP3   OH211641   0.656   6.742   0.457
 3899TIP3    H111642   0.633   6.834   0.470
 3899TIP3    H211643   0.706   6.741   0.375
 3900TIP3   OH211644   1.173   1.931   5.950
 3900TIP3    H111645   1.249   1.975   5.986
 3900TIP3    H211646   1.122   1.904   6.026
 3901TIP3   OH211647   5.378   1.691   3.074
 3901TIP3    H111648   5.464   1.684   3.033
 3901TIP3    H211649   5.321   1.722   3.004
 3902TIP3   OH211650   7.169   7.788   5.990
 3902TIP3    H111651   7.155   7.811   5.898
 3902TIP3    H211652   7.084   7.759   6.021
 3903TIP3   OH211653   4.009   2.159   0.776
 3903TIP3    H111654   4.053   2.217   0.712
 3903TIP3    H211655   3.927   2.134   0.733
 3904TIP3   OH211656   5.283   0.029   2.749
 3904TIP3    H111657   5.357   0.021   2.808
 3904TIP3    H211658   5.210   0.056   2.805
 3905TIP3   OH211659   2.942   4.983   2.436
 3905TIP3    H111660   2.996   4.977   2.515
 3905TIP3    H211661   2.991   4.932   2.370
 3906TIP3   OH211662   6.642   3.969   6.623
 3906TIP3    H111663   6.571   3.919   6.663
 3906TIP3    H211664   6.707   3.979   6.693
 3907TIP3   OH211665   1.095   0.028   4.885
 3907TIP3    H111666   1.071  -0.062   4.864
 3907TIP3    H211667   1.018   0.064   4.929
 3908TIP3   OH211668   8.165   6.377   1.151
 3908TIP3    H111669   8.238   6.396   1.092
 3908TIP3    H211670   8.142   6.286   1.132
 3909TIP3   OH211671   7.698   0.305   5.208
 3909TIP3    H111672   7.756   0.261   5.271
 3909TIP3    H211673   7.680   0.239   5.142
 3910TIP3   OH211674   2.415   5.729   3.120
 3910TIP3    H111675   2.504   5.729   3.155
 3910TIP3    H211676   2.393   5.637   3.110
 3911TIP3   OH211677   7.444   3.027   3.559
 3911TIP3    H111678   7.406   2.986   3.481
 3911TIP3    H211679   7.470   3.115   3.531
 3912TIP3   OH211680   2.676   4.629   2.211
 3912TIP3    H111681   2.605   4.652   2.151
 3912TIP3    H211682   2.672   4.695   2.280
 3913TIP3   OH211683   3.001   4.333   1.269
 3913TIP3    H111684   3.091   4.306   1.253
 3913TIP3    H211685   2.983   4.397   1.201
 3914TIP3   OH211686   7.409   5.927   4.044
 3914TIP3    H111687   7.313   5.936   4.042
 3914TIP3    H211688   7.432   5.943   4.136
 3915TIP3   OH211689   4.103   1.217   2.196
 3915TIP3    H111690   4.043   1.170   2.138
 3915TIP3    H211691   4.165   1.260   2.137
 3916TIP3   OH211692   1.836   6.306   6.267
 3916TIP3    H111693   1.907   6.364   6.239
 3916TIP3    H211694   1.764   6.365   6.290
 3917TIP3   OH211695   1.802   1.702   0.865
 3917TIP3    H111696   1.869   1.770   0.876
 3917TIP3    H211697   1.842   1.638   0.806
 3918TIP3   OH211698   4.608   2.347   3.488
 3918TIP3    H111699   4.622   2.439   3.467
 3918TIP3    H211700   4.622   2.301   3.405
 3919TIP3   OH211701   6.821   6.116   2.002
 3919TIP3    H111702   6.889   6.051   2.020
 3919TIP3    H211703   6.854   6.164   1.926
 3920TIP3   OH211704   2.672   1.884   6.060
 3920TIP3    H111705   2.734   1.916   5.993
 3920TIP3    H211706   2.586   1.910   6.028
 3921TIP3   OH211707   1.520   0.524   1.070
 3921TIP3    H111708   1.523   0.571   0.987
 3921TIP3    H211709   1.547   0.589   1.135
 3922TIP3   OH211710   7.699   4.121   5.450
 3922TIP3    H111711   7.661   4.202   5.415
 3922TIP3    H211712   7.701   4.062   5.375
 3923TIP3   OH211713   1.333   0.314   0.077
 3923TIP3    H111714   1.394   0.337   0.006
 3923TIP3    H211715   1.247   0.317   0.036
 3924TIP3   OH211716   5.504   0.051   2.497
 3924TIP3    H111717   5.450  -0.027   2.485
 3924TIP3    H211718   5.549   0.036   2.580
 3925TIP3   OH211719   7.145   4.769   2.146
 3925TIP3    H111720   7.150   4.689   2.198
 3925TIP3    H211721   7.061   4.763   2.101
 3926TIP3   OH211722   7.931   3.946   1.999
 3926TIP3    H111723   7.943   3.989   2.083
 3926TIP3    H211724   7.864   3.879   2.016
 3927TIP3   OH211725   2.086   1.253   0.997
 3927TIP3    H111726   2.086   1.252   0.901
 3927TIP3    H211727   2.105   1.163   1.022
 3928TIP3   OH211728   7.518   1.777   6.490
 3928TIP3    H111729   7.429   1.740   6.487
 3928TIP3    H211730   7.507   1.866   6.456
 3929TIP3   OH211731   7.266   0.612   2.370
 3929TIP3    H111732   7.259   0.558   2.291
 3929TIP3    H211733   7.356   0.645   2.368
 3930TIP3   OH211734   2.659   2.947   0.950
 3930TIP3    H111735   2.640   2.986   1.035
 3930TIP3    H211736   2.676   2.855   0.969
 3931TIP3   OH211737   2.205   1.811   3.221
 3931TIP3    H111738   2.265   1.742   3.249
 3931TIP3    H211739   2.250   1.893   3.242
 3932TIP3   OH211740   3.335   2.364   3.508
 3932TIP3    H111741   3.417   2.331   3.471
 3932TIP3    H211742   3.353   2.375   3.601
 3933TIP3   OH211743   7.228   1.826   6.415
 3933TIP3    H111744   7.142   1.857   6.441
 3933TIP3    H211745   7.211   1.746   6.366
 3934TIP3   OH211746   3.490   3.951   3.959
 3934TIP3    H111747   3.508   3.858   3.964
 3934TIP3    H211748   3.520   3.986   4.043
 3935TIP3   OH211749   2.998   0.114   1.443
 3935TIP3    H111750   2.947   0.039   1.411
 3935TIP3    H211751   2.994   0.177   1.371
 3936TIP3   OH211752   5.905   3.096   6.638
 3936TIP3    H111753   5.882   3.010   6.605
 3936TIP3    H211754   5.904   3.086   6.734
 3937TIP3   OH211755   1.216   5.892   0.866
 3937TIP3    H111756   1.133   5.939   0.864
 3937TIP3    H211757   1.208   5.832   0.940
 3938TIP3   OH211758   1.131   6.578   2.016
 3938TIP3    H111759   1.172   6.550   2.097
 3938TIP3    H211760   1.150   6.508   1.953
 3939TIP3   OH211761   4.834   0.957   6.132
 3939TIP3    H111762   4.905   1.007   6.093
 3939TIP3    H211763   4.877   0.895   6.191
 3940TIP3   OH211764   3.890   6.607   6.525
 3940TIP3    H111765   3.913   6.694   6.559
 3940TIP3    H211766   3.895   6.550   6.602
 3941TIP3   OH211767   6.667   0.964   1.905
 3941TIP3    H111768   6.752   0.990   1.940
 3941TIP3    H211769   6.603   1.005   1.963
 3942TIP3   OH211770   0.251   6.787   6.312
 3942TIP3    H111771   0.268   6.792   6.218
 3942TIP3    H211772   0.221   6.875   6.336
 3943TIP3   OH211773   2.060   0.294   5.475
 3943TIP3    H111774   1.979   0.323   5.432
 3943TIP3    H211775   2.103   0.375   5.501
 3944TIP3   OH211776   7.524   5.821   0.123
 3944TIP3    H111777   7.499   5.807   0.214
 3944TIP3    H211778   7.553   5.912   0.119
 3945TIP3   OH211779   1.049   5.705   0.709
 3945TIP3    H111780   1.098   5.787   0.713
 3945TIP3    H211781   0.973   5.726   0.654
 3946TIP3   OH211782   2.986   7.655   1.233
 3946TIP3    H111783   2.909   7.653   1.176
 3946TIP3    H211784   2.965   7.721   1.299
 3947TIP3   OH211785   5.838   2.387   0.924
 3947TIP3    H111786   5.891   2.422   0.995
 3947TIP3    H211787   5.879   2.419   0.844
 3948TIP3   OH211788   1.605   1.305   0.874
 3948TIP3    H111789   1.671   1.307   0.943
 3948TIP3    H211790   1.654   1.281   0.795
 3949TIP3   OH211791   6.806   1.907   4.565
 3949TIP3    H111792   6.836   1.821   4.595
 3949TIP3    H211793   6.711   1.906   4.582
 3950TIP3   OH211794   1.648  -0.012   0.172
 3950TIP3    H111795   1.719   0.031   0.219
 3950TIP3    H211796   1.653   0.022   0.083
 3951TIP3   OH211797   6.867   5.876   4.313
 3951TIP3    H111798   6.847   5.958   4.268
 3951TIP3    H211799   6.845   5.807   4.250
 3952TIP3   OH211800   0.193   4.933   2.797
 3952TIP3    H111801   0.172   5.017   2.838
 3952TIP3    H211802   0.288   4.924   2.809
 3953TIP3   OH211803   2.746   1.103   5.054
 3953TIP3    H111804   2.784   1.021   5.086
 3953TIP3    H211805   2.799   1.171   5.096
 3954TIP3   OH211806   3.585   7.292   1.015
 3954TIP3    H111807   3.613   7.265   0.928
 3954TIP3    H211808   3.637   7.239   1.075
 3955TIP3   OH211809   6.772   3.777   4.245
 3955TIP3    H111810   6.832   3.803   4.175
 3955TIP3    H211811   6.812   3.700   4.284
 3956TIP3   OH211812   0.570   1.372   5.031
 3956TIP3    H111813   0.647   1.351   5.084
 3956TIP3    H211814   0.541   1.457   5.063
 3957TIP3   OH211815   3.734   0.430   2.715
 3957TIP3    H111816   3.681   0.488   2.661
 3957TIP3    H211817   3.706   0.342   2.691
 3958TIP3   OH211818   3.005   7.016   5.498
 3958TIP3    H111819   2.944   7.089   5.492
 3958TIP3    H211820   3.080   7.042   5.445
 3959TIP3   OH211821   8.200   4.720   4.616
 3959TIP3    H111822   8.145   4.767   4.678
 3959TIP3    H211823   8.256   4.788   4.577
 3960TIP3   OH211824   5.782   2.347   3.807
 3960TIP3    H111825   5.808   2.407   3.877
 3960TIP3    H211826   5.818   2.387   3.727
 3961TIP3   OH211827   4.126   7.044   1.119
 3961TIP3    H111828   4.068   7.099   1.067
 3961TIP3    H211829   4.117   7.078   1.208
 3962TIP3   OH211830   4.094   4.537   3.858
 3962TIP3    H111831   4.186   4.556   3.875
 3962TIP3    H211832   4.061   4.614   3.813
 3963TIP3   OH211833   6.430   0.909   0.839
 3963TIP3    H111834   6.518   0.878   0.864
 3963TIP3    H211835   6.423   0.887   0.746
 3964TIP3   OH211836   7.607   6.577   1.508
 3964TIP3    H111837   7.557   6.643   1.556
 3964TIP3    H211838   7.699   6.603   1.520
 3965TIP3   OH211839   0.316   7.605   6.696
 3965TIP3    H111840   0.316   7.693   6.659
 3965TIP3    H211841   0.256   7.556   6.640
 3966TIP3   OH211842   4.190   4.147   3.565
 3966TIP3    H111843   4.261   4.097   3.606
 3966TIP3    H211844   4.119   4.085   3.555
 3967TIP3   OH211845   6.216   6.361   3.162
 3967TIP3    H111846   6.250   6.410   3.237
 3967TIP3    H211847   6.272   6.387   3.089
 3968TIP3   OH211848   2.668   3.650   4.059
 3968TIP3    H111849   2.686   3.584   4.126
 3968TIP3    H211850   2.751   3.696   4.048
 3969TIP3   OH211851   3.473   3.511   5.239
 3969TIP3    H111852   3.471   3.577   5.169
 3969TIP3    H211853   3.496   3.430   5.196
 3970TIP3   OH211854   7.332   6.992   4.060
 3970TIP3    H111855   7.368   6.932   3.995
 3970TIP3    H211856   7.241   7.004   4.035
 3971TIP3   OH211857   0.767   7.069   1.712
 3971TIP3    H111858   0.860   7.090   1.702
 3971TIP3    H211859   0.721   7.144   1.673
 3972TIP3   OH211860   2.372   2.589   0.816
 3972TIP3    H111861   2.461   2.555   0.820
 3972TIP3    H211862   2.379   2.670   0.766
 3973TIP3   OH211863   0.568   7.004   3.843
 3973TIP3    H111864   0.612   6.970   3.764
 3973TIP3    H211865   0.588   6.940   3.911
 3974TIP3   OH211866   4.548   2.524   3.052
 3974TIP3    H111867   4.541   2.522   2.956
 3974TIP3    H211868   4.641   2.528   3.070
 3975TIP3   OH211869   1.285   3.937   3.007
 3975TIP3    H111870   1.225   3.993   3.057
 3975TIP3    H211871   1.363   3.991   2.995
 3976TIP3   OH211872   1.659   4.858   4.792
 3976TIP3    H111873   1.618   4.915   4.857
 3976TIP3    H211874   1.751   4.887   4.790
 3977TIP3   OH211875   3.777   5.257   3.784
 3977TIP3    H111876   3.695   5.293   3.817
 3977TIP3    H211877   3.752   5.207   3.706
 3978TIP3   OH211878   7.714   6.520   6.784
 3978TIP3    H111879   7.785   6.580   6.761
 3978TIP3    H211880   7.672   6.498   6.701
 3979TIP3   OH211881   5.506   7.352   5.440
 3979TIP3    H111882   5.446   7.394   5.379
 3979TIP3    H211883   5.526   7.420   5.505
 3980TIP3   OH211884   7.579   2.760   4.981
 3980TIP3    H111885   7.550   2.669   4.980
 3980TIP3    H211886   7.661   2.758   5.030
 3981TIP3   OH211887   0.507   4.753   5.822
 3981TIP3    H111888   0.420   4.713   5.816
 3981TIP3    H211889   0.505   4.803   5.904
 3982TIP3   OH211890   3.779   1.287   3.249
 3982TIP3    H111891   3.819   1.374   3.256
 3982TIP3    H211892   3.731   1.276   3.331
 3983TIP3   OH211893   1.057   2.652   0.374
 3983TIP3    H111894   1.042   2.557   0.375
 3983TIP3    H211895   1.148   2.662   0.402
 3984TIP3   OH211896   0.979   3.370   4.517
 3984TIP3    H111897   1.029   3.449   4.502
 3984TIP3    H211898   1.005   3.341   4.604
 3985TIP3   OH211899   3.889   5.609   5.355
 3985TIP3    H111900   3.824   5.545   5.325
 3985TIP3    H211901   3.864   5.627   5.446
 3986TIP3   OH211902   7.176   4.598   5.442
 3986TIP3    H111903   7.115   4.572   5.511
 3986TIP3    H211904   7.154   4.690   5.424
 3987TIP3   OH211905   4.718   5.615   0.775
 3987TIP3    H111906   4.733   5.645   0.865
 3987TIP3    H211907   4.717   5.519   0.782
 3988TIP3   OH211908   2.283   5.232   5.020
 3988TIP3    H111909   2.368   5.205   4.985
 3988TIP3    H211910   2.231   5.152   5.021
 3989TIP3   OH211911   3.353   1.785   2.523
 3989TIP3    H111912   3.266   1.815   2.551
 3989TIP3    H211913   3.348   1.690   2.527
 3990TIP3   OH211914   3.605   7.530   1.848
 3990TIP3    H111915   3.660   7.591   1.897
 3990TIP3    H211916   3.586   7.575   1.766
 3991TIP3   OH211917   6.821   2.208   0.920
 3991TIP3    H111918   6.825   2.192   1.014
 3991TIP3    H211919   6.902   2.170   0.886
 3992TIP3   OH211920   5.784   7.376   2.666
 3992TIP3    H111921   5.859   7.357   2.721
 3992TIP3    H211922   5.788   7.471   2.651
 3993TIP3   OH211923   6.643   2.847   6.497
 3993TIP3    H111924   6.724   2.845   6.547
 3993TIP3    H211925   6.596   2.768   6.525
 3994TIP3   OH211926   1.071   4.008   4.356
 3994TIP3    H111927   1.160   4.044   4.352
 3994TIP3    H211928   1.082   3.915   4.336
 3995TIP3   OH211929   1.834   3.006   0.454
 3995TIP3    H111930   1.846   2.964   0.539
 3995TIP3    H211931   1.856   3.098   0.469
 3996TIP3   OH211932   7.284   2.294   1.674
 3996TIP3    H111933   7.201   2.253   1.698
 3996TIP3    H211934   7.342   2.221   1.653
 3997TIP3   OH211935   6.849   1.187   3.269
 3997TIP3    H111936   6.923   1.156   3.216
 3997TIP3    H211937   6.810   1.257   3.216
 3998TIP3   OH211938   0.845   3.428   1.298
 3998TIP3    H111939   0.884   3.359   1.352
 3998TIP3    H211940   0.754   3.401   1.288
 3999TIP3   OH211941   0.438   6.399   4.142
 3999TIP3    H111942   0.351   6.359   4.146
 3999TIP3    H211943   0.421   6.493   4.136
 4000TIP3   OH211944   8.004   7.738   2.272
 4000TIP3    H111945   7.984   7.757   2.364
 4000TIP3    H211946   8.098   7.722   2.270
 4001TIP3   OH211947   2.989   7.281   5.326
 4001TIP3    H111948   3.053   7.214   5.349
 4001TIP3    H211949   3.019   7.316   5.242
 4002TIP3   OH211950   3.250   7.407   2.893
 4002TIP3    H111951   3.251   7.325   2.843
 4002TIP3    H211952   3.342   7.433   2.896
 4003TIP3   OH211953   3.930   3.997   1.679
 4003TIP3    H111954   3.977   3.914   1.676
 4003TIP3    H211955   3.948   4.031   1.767
 4004TIP3   OH211956   7.476   4.252   5.236
 4004TIP3    H111957   7.518   4.314   5.176
 4004TIP3    H211958   7.394   4.294   5.261
 4005TIP3   OH211959   1.797   2.728   1.806
 4005TIP3    H111960   1.845   2.807   1.833
 4005TIP3    H211961   1.863   2.674   1.762
 4006TIP3   OH211962   4.211   3.873   1.899
 4006TIP3    H111963   4.162   3.815   1.842
 4006TIP3    H211964   4.290   3.895   1.850
 4007TIP3   OH211965   1.378   6.716   2.046
 4007TIP3    H111966   1.292   6.705   2.006
 4007TIP3    H211967   1.359   6.732   2.138
 4008TIP3   OH211968   7.191   0.112   6.475
 4008TIP3    H111969   7.140   0.107   6.556
 4008TIP3    H211970   7.151   0.047   6.418
 4009TIP3   OH211971   8.109   7.481   2.907
 4009TIP3    H111972   8.066   7.410   2.860
 4009TIP3    H211973   8.064   7.560   2.878
 4010TIP3   OH211974   3.992   3.033   6.513
 4010TIP3    H111975   3.967   3.123   6.538
 4010TIP3    H211976   3.990   2.985   6.595
 4011TIP3   OH211977   2.894   1.503   6.290
 4011TIP3    H111978   2.850   1.527   6.372
 4011TIP3    H211979   2.921   1.412   6.304
 4012TIP3   OH211980   2.713   2.246   2.085
 4012TIP3    H111981   2.721   2.283   1.997
 4012TIP3    H211982   2.636   2.289   2.122
 4013TIP3   OH211983   8.203   6.394   2.233
 4013TIP3    H111984   8.184   6.463   2.169
 4013TIP3    H211985   8.117   6.364   2.262
 4014TIP3   OH211986   6.369   4.778   5.502
 4014TIP3    H111987   6.355   4.867   5.471
 4014TIP3    H211988   6.435   4.788   5.571
 4015TIP3   OH211989   7.398   7.061   5.379
 4015TIP3    H111990   7.423   7.086   5.468
 4015TIP3    H211991   7.481   7.052   5.333
 4016TIP3   OH211992   6.615   2.868   5.401
 4016TIP3    H111993   6.681   2.934   5.379
 4016TIP3    H211994   6.663   2.785   5.397
 4017TIP3   OH211995   7.344   7.196   2.464
 4017TIP3    H111996   7.343   7.120   2.406
 4017TIP3    H211997   7.342   7.271   2.405
 4018TIP3   OH211998   7.419   6.665   5.255
 4018TIP3    H111999   7.371   6.726   5.311
 4018TIP3    H212000   7.353   6.605   5.221
 4019TIP3   OH212001   0.260   4.108   0.110
 4019TIP3    H112002   0.349   4.086   0.138
 4019TIP3    H212003   0.268   4.195   0.071
 4020TIP3   OH212004   4.728   4.356   1.681
 4020TIP3    H112005   4.653   4.352   1.739
 4020TIP3    H212006   4.803   4.330   1.735
 4021TIP3   OH212007   0.719   1.070   2.504
 4021TIP3    H112008   0.780   1.038   2.570
 4021TIP3    H212009   0.672   1.141   2.547
 4022TIP3   OH212010   0.532   1.125   4.544
 4022TIP3    H112011   0.583   1.154   4.619
 4022TIP3    H212012   0.544   1.030   4.543
 4023TIP3   OH212013   7.921   6.985   3.303
 4023TIP3    H112014   7.893   7.060   3.251
 4023TIP3    H212015   7.855   6.917   3.286
 4024TIP3   OH212016   4.539   0.389   2.863
 4024TIP3    H112017   4.492   0.312   2.829
 4024TIP3    H212018   4.614   0.352   2.910
 4025TIP3   OH212019   6.537   6.329   0.418
 4025TIP3    H112020   6.520   6.236   0.411
 4025TIP3    H212021   6.501   6.355   0.502
 4026TIP3   OH212022   7.070   6.620   0.279
 4026TIP3    H112023   7.125   6.625   0.201
 4026TIP3    H212024   7.118   6.563   0.339
 4027TIP3   OH212025   2.457   5.668   5.511
 4027TIP3    H112026   2.371   5.650   5.474
 4027TIP3    H212027   2.439   5.700   5.599
 4028TIP3   OH212028   2.913   6.265   2.855
 4028TIP3    H112029   2.838   6.322   2.876
 4028TIP3    H212030   2.980   6.290   2.919
 4029TIP3   OH212031   4.395   7.568   0.248
 4029TIP3    H112032   4.358   7.630   0.185
 4029TIP3    H212033   4.451   7.512   0.195
 4030TIP3   OH212034   8.190   1.956   3.660
 4030TIP3    H112035   8.205   1.866   3.632
 4030TIP3    H212036   8.104   1.954   3.702
 4031TIP3   OH212037   7.917   1.169   5.013
 4031TIP3    H112038   7.922   1.074   5.005
 4031TIP3    H212039   7.930   1.186   5.107
 4032TIP3   OH212040   0.824   3.467   5.165
 4032TIP3    H112041   0.738   3.505   5.150
 4032TIP3    H212042   0.885   3.538   5.144
 4033TIP3   OH212043   0.810   6.298   5.605
 4033TIP3    H112044   0.861   6.378   5.615
 4033TIP3    H212045   0.758   6.312   5.526
 4034TIP3   OH212046   6.398   1.689   5.499
 4034TIP3    H112047   6.442   1.710   5.581
 4034TIP3    H212048   6.380   1.595   5.505
 4035TIP3   OH212049   7.472   1.549   2.344
 4035TIP3    H112050   7.467   1.595   2.428
 4035TIP3    H212051   7.529   1.474   2.362
 4036TIP3   OH212052   0.897   3.492   3.352
 4036TIP3    H112053   0.915   3.578   3.315
 4036TIP3    H212054   0.805   3.475   3.333
 4037TIP3   OH212055   2.126   4.773   4.104
 4037TIP3    H112056   2.183   4.798   4.177
 4037TIP3    H212057   2.154   4.684   4.082
 4038TIP3   OH212058   5.286   3.108   0.267
 4038TIP3    H112059   5.281   3.203   0.250
 4038TIP3    H212060   5.275   3.068   0.181
 4039TIP3   OH212061   6.017   5.513   2.134
 4039TIP3    H112062   5.968   5.475   2.062
 4039TIP3    H212063   5.961   5.581   2.170
 4040TIP3   OH212064   3.745   4.106   6.468
 4040TIP3    H112065   3.752   4.057   6.386
 4040TIP3    H212066   3.708   4.191   6.443
 4041TIP3   OH212067   5.045   6.862   1.213
 4041TIP3    H112068   5.001   6.865   1.298
 4041TIP3    H212069   5.075   6.951   1.197
 4042TIP3   OH212070   5.652   6.713   2.078
 4042TIP3    H112071   5.685   6.678   1.995
 4042TIP3    H212072   5.584   6.774   2.052
 4043TIP3   OH212073   5.740   4.747   4.116
 4043TIP3    H112074   5.729   4.831   4.070
 4043TIP3    H212075   5.830   4.749   4.147
 4044TIP3   OH212076   2.659   4.004   4.618
 4044TIP3    H112077   2.692   3.990   4.529
 4044TIP3    H212078   2.734   4.040   4.666
 4045TIP3   OH212079   2.973   3.669   3.283
 4045TIP3    H112080   3.014   3.677   3.197
 4045TIP3    H212081   2.918   3.591   3.277
 4046TIP3   OH212082   3.804   2.332   6.637
 4046TIP3    H112083   3.818   2.321   6.543
 4046TIP3    H212084   3.873   2.280   6.679
 4047TIP3   OH212085   8.027   3.400   5.258
 4047TIP3    H112086   8.087   3.389   5.332
 4047TIP3    H212087   7.998   3.491   5.265
 4048TIP3   OH212088   1.559   7.701   1.522
 4048TIP3    H112089   1.648   7.670   1.510
 4048TIP3    H212090   1.521   7.698   1.434
 4049TIP3   OH212091   3.873   7.472   4.297
 4049TIP3    H112092   3.934   7.506   4.363
 4049TIP3    H212093   3.917   7.396   4.260
 4050TIP3   OH212094   2.263   4.952   5.581
 4050TIP3    H112095   2.209   4.980   5.655
 4050TIP3    H212096   2.344   4.921   5.620
 4051TIP3   OH212097   6.357   4.447   2.016
 4051TIP3    H112098   6.370   4.470   1.924
 4051TIP3    H212099   6.439   4.473   2.058
 4052TIP3   OH212100   1.394   3.408   3.409
 4052TIP3    H112101   1.367   3.347   3.341
 4052TIP3    H212102   1.420   3.352   3.482
 4053TIP3   OH212103   4.968   4.009   1.133
 4053TIP3    H112104   4.998   4.029   1.045
 4053TIP3    H212105   5.035   3.950   1.169
 4054TIP3   OH212106   0.397   0.640   1.810
 4054TIP3    H112107   0.421   0.559   1.853
 4054TIP3    H212108   0.340   0.685   1.873
 4055TIP3   OH212109   4.530   5.936   0.852
 4055TIP3    H112110   4.502   5.876   0.920
 4055TIP3    H212111   4.626   5.930   0.853
 4056TIP3   OH212112   3.912   7.039   5.830
 4056TIP3    H112113   3.949   7.127   5.827
 4056TIP3    H212114   3.984   6.981   5.807
 4057TIP3   OH212115   5.538   2.710   0.497
 4057TIP3    H112116   5.529   2.672   0.584
 4057TIP3    H212117   5.627   2.747   0.497
 4058TIP3   OH212118   4.071   6.011   4.890
 4058TIP3    H112119   3.983   5.993   4.925
 4058TIP3    H212120   4.129   5.961   4.947
 4059TIP3   OH212121   3.647   1.118   3.510
 4059TIP3    H112122   3.735   1.137   3.542
 4059TIP3    H212123   3.622   1.037   3.554
 4060TIP3   OH212124   2.615   1.737   4.491
 4060TIP3    H112125   2.530   1.728   4.449
 4060TIP3    H212126   2.662   1.657   4.469
 4061TIP3   OH212127   2.508   2.072   6.241
 4061TIP3    H112128   2.468   2.090   6.326
 4061TIP3    H212129   2.602   2.070   6.259
 4062TIP3   OH212130   0.988   1.307   5.281
 4062TIP3    H112131   1.053   1.307   5.211
 4062TIP3    H212132   1.020   1.244   5.345
 4063TIP3   OH212133   2.712   6.406   0.557
 4063TIP3    H112134   2.733   6.319   0.592
 4063TIP3    H212135   2.718   6.395   0.462
 4064TIP3   OH212136   3.265   2.743   5.428
 4064TIP3    H112137   3.339   2.781   5.475
 4064TIP3    H212138   3.301   2.714   5.345
 4065TIP3   OH212139   5.645   1.978   4.158
 4065TIP3    H112140   5.632   1.998   4.066
 4065TIP3    H212141   5.739   1.986   4.171
 4066TIP3   OH212142   7.244   7.622   4.326
 4066TIP3    H112143   7.156   7.615   4.289
 4066TIP3    H212144   7.231   7.651   4.416
 4067TIP3   OH212145   6.779   0.648   4.761
 4067TIP3    H112146   6.839   0.685   4.697
 4067TIP3    H212147   6.822   0.570   4.794
 4068TIP3   OH212148   4.169   1.870   5.152
 4068TIP3    H112149   4.099   1.921   5.112
 4068TIP3    H212150   4.145   1.779   5.135
 4069TIP3   OH212151   2.899   5.291   3.420
 4069TIP3    H112152   2.864   5.215   3.374
 4069TIP3    H212153   2.960   5.331   3.358
 4070TIP3   OH212154   5.753   2.151   4.729
 4070TIP3    H112155   5.845   2.151   4.705
 4070TIP3    H212156   5.721   2.237   4.702
 4071TIP3   OH212157   7.938   0.604   0.687
 4071TIP3    H112158   7.937   0.698   0.704
 4071TIP3    H212159   7.978   0.595   0.600
 4072TIP3   OH212160   0.427   6.493   4.978
 4072TIP3    H112161   0.487   6.425   4.947
 4072TIP3    H212162   0.433   6.562   4.911
 4073TIP3   OH212163   6.065   3.189   4.364
 4073TIP3    H112164   6.079   3.239   4.283
 4073TIP3    H212165   6.040   3.255   4.429
 4074TIP3   OH212166   6.275   6.628   1.599
 4074TIP3    H112167   6.361   6.586   1.595
 4074TIP3    H212168   6.258   6.641   1.693
 4075TIP3   OH212169   6.265   2.725   4.633
 4075TIP3    H112170   6.239   2.792   4.569
 4075TIP3    H212171   6.344   2.686   4.596
 4076TIP3   OH212172   3.871   7.009   3.202
 4076TIP3    H112173   3.918   7.034   3.121
 4076TIP3    H212174   3.893   6.917   3.215
 4077TIP3   OH212175   1.802   5.815   3.641
 4077TIP3    H112176   1.787   5.741   3.699
 4077TIP3    H212177   1.870   5.867   3.684
 4078TIP3   OH212178   3.813   2.884   5.358
 4078TIP3    H112179   3.863   2.943   5.301
 4078TIP3    H212180   3.859   2.886   5.441
 4079TIP3   OH212181   0.688   6.663   6.077
 4079TIP3    H112182   0.639   6.735   6.116
 4079TIP3    H212183   0.689   6.595   6.145
 4080TIP3   OH212184   0.171   6.417   6.051
 4080TIP3    H112185   0.264   6.437   6.042
 4080TIP3    H212186   0.166   6.355   6.124
 4081TIP3   OH212187   3.830   5.337   5.938
 4081TIP3    H112188   3.814   5.428   5.962
 4081TIP3    H212189   3.820   5.335   5.843
 4082TIP3   OH212190   1.863   6.321   1.414
 4082TIP3    H112191   1.775   6.345   1.443
 4082TIP3    H212192   1.850   6.243   1.361
 4083TIP3   OH212193   7.453   1.320   4.005
 4083TIP3    H112194   7.522   1.253   4.000
 4083TIP3    H212195   7.391   1.286   4.069
 4084TIP3   OH212196   1.823   4.608   4.562
 4084TIP3    H112197   1.839   4.514   4.559
 4084TIP3    H212198   1.908   4.648   4.545
 4085TIP3   OH212199   3.478   0.044   2.025
 4085TIP3    H112200   3.451  -0.032   2.076
 4085TIP3    H212201   3.404   0.104   2.031
 4086TIP3   OH212202   1.354   4.090   4.378
 4086TIP3    H112203   1.348   4.185   4.386
 4086TIP3    H212204   1.418   4.075   4.308
 4087TIP3   OH212205   7.438   0.634   1.065
 4087TIP3    H112206   7.492   0.601   0.994
 4087TIP3    H212207   7.490   0.705   1.103
 4088TIP3   OH212208   3.170   3.274   2.811
 4088TIP3    H112209   3.127   3.298   2.893
 4088TIP3    H212210   3.211   3.190   2.829
 4089TIP3   OH212211   5.304   6.626   0.214
 4089TIP3    H112212   5.274   6.709   0.251
 4089TIP3    H212213   5.387   6.608   0.259
 4090TIP3   OH212214   4.597   3.200   4.801
 4090TIP3    H112215   4.532   3.151   4.850
 4090TIP3    H212216   4.667   3.137   4.783
 4091TIP3   OH212217   7.707   6.214   0.619
 4091TIP3    H112218   7.765   6.167   0.678
 4091TIP3    H212219   7.745   6.198   0.532
 4092TIP3   OH212220   7.444   2.005   3.573
 4092TIP3    H112221   7.490   2.015   3.490
 4092TIP3    H212222   7.376   2.072   3.571
 4093TIP3   OH212223   7.667   6.810   3.812
 4093TIP3    H112224   7.722   6.731   3.812
 4093TIP3    H212225   7.719   6.875   3.859
 4094TIP3   OH212226   0.268   7.762   4.468
 4094TIP3    H112227   0.293   7.854   4.472
 4094TIP3    H212228   0.347   7.716   4.439
 4095TIP3   OH212229   2.816   2.756   4.772
 4095TIP3    H112230   2.871   2.678   4.766
 4095TIP3    H212231   2.875   2.825   4.801
 4096TIP3   OH212232   1.156   6.650   1.602
 4096TIP3    H112233   1.084   6.707   1.626
 4096TIP3    H212234   1.221   6.664   1.671
 4097TIP3   OH212235   5.562   4.541   1.175
 4097TIP3    H112236   5.611   4.569   1.098
 4097TIP3    H212237   5.625   4.489   1.226
 4098TIP3   OH212238   5.915   3.432   1.670
 4098TIP3    H112239   5.848   3.446   1.603
 4098TIP3    H212240   5.985   3.493   1.647
 4099TIP3   OH212241   6.125   4.626   5.390
 4099TIP3    H112242   6.206   4.576   5.383
 4099TIP3    H212243   6.094   4.635   5.300
 4100TIP3   OH212244   4.393   7.062   3.953
 4100TIP3    H112245   4.361   6.973   3.970
 4100TIP3    H212246   4.453   7.080   4.026
 4101TIP3   OH212247   3.879  -0.013   6.579
 4101TIP3    H112248   3.846   0.076   6.567
 4101TIP3    H212249   3.974  -0.003   6.584
 4102TIP3   OH212250   0.856   5.397   0.214
 4102TIP3    H112251   0.907   5.440   0.282
 4102TIP3    H212252   0.856   5.305   0.239
 4103TIP3   OH212253   2.726   0.682   0.919
 4103TIP3    H112254   2.709   0.774   0.900
 4103TIP3    H212255   2.664   0.634   0.863
 4104TIP3   OH212256   7.462   4.390   4.827
 4104TIP3    H112257   7.500   4.443   4.897
 4104TIP3    H212258   7.370   4.379   4.853
 4105TIP3   OH212259   3.363   1.829   5.223
 4105TIP3    H112260   3.447   1.868   5.196
 4105TIP3    H212261   3.352   1.857   5.314
 4106TIP3   OH212262   7.853   5.494   4.327
 4106TIP3    H112263   7.927   5.438   4.304
 4106TIP3    H212264   7.892   5.570   4.370
 4107TIP3   OH212265   1.309   2.405   4.471
 4107TIP3    H112266   1.236   2.346   4.490
 4107TIP3    H212267   1.309   2.412   4.375
 4108TIP3   OH212268   2.706   6.454   4.300
 4108TIP3    H112269   2.667   6.367   4.286
 4108TIP3    H212270   2.796   6.435   4.327
 4109TIP3   OH212271   5.982   5.477   0.088
 4109TIP3    H112272   6.048   5.542   0.115
 4109TIP3    H212273   6.033   5.410   0.042
 4110TIP3   OH212274   3.694   7.374   5.655
 4110TIP3    H112275   3.682   7.311   5.727
 4110TIP3    H212276   3.732   7.322   5.584
 4111TIP3   OH212277   3.787   5.616   5.919
 4111TIP3    H112278   3.697   5.648   5.917
 4111TIP3    H212279   3.829   5.668   5.987
 4112TIP3   OH212280   7.515   2.351   2.769
 4112TIP3    H112281   7.423   2.340   2.746
 4112TIP3    H212282   7.520   2.327   2.862
 4113TIP3   OH212283   1.925   4.877   3.950
 4113TIP3    H112284   2.005   4.840   3.986
 4113TIP3    H212285   1.871   4.801   3.927
 4114TIP3   OH212286   6.957   2.944   5.549
 4114TIP3    H112287   7.051   2.931   5.542
 4114TIP3    H212288   6.919   2.878   5.491
 4115TIP3   OH212289   6.241   2.134   1.163
 4115TIP3    H112290   6.174   2.167   1.103
 4115TIP3    H212291   6.278   2.212   1.203
 4116TIP3   OH212292   7.961   0.278   3.972
 4116TIP3    H112293   8.019   0.271   3.897
 4116TIP3    H212294   7.878   0.240   3.942
 4117TIP3   OH212295   1.328   5.785   5.084
 4117TIP3    H112296   1.379   5.866   5.091
 4117TIP3    H212297   1.327   5.765   4.990
 4118TIP3   OH212298   1.872   3.212   0.011
 4118TIP3    H112299   1.862   3.141   0.075
 4118TIP3    H212300   1.853   3.291   0.061
 4119TIP3   OH212301   3.830   4.936   4.905
 4119TIP3    H112302   3.922   4.955   4.924
 4119TIP3    H212303   3.792   5.022   4.885
 4120TIP3   OH212304   5.771   2.893   5.228
 4120TIP3    H112305   5.811   2.834   5.292
 4120TIP3    H212306   5.833   2.894   5.154
 4121TIP3   OH212307   3.188   4.852   0.830
 4121TIP3    H112308   3.249   4.856   0.757
 4121TIP3    H212309   3.101   4.849   0.789
 4122TIP3   OH212310   4.595   7.128   3.481
 4122TIP3    H112311   4.623   7.043   3.516
 4122TIP3    H212312   4.501   7.131   3.500
 4123TIP3   OH212313   1.912   4.100   5.472
 4123TIP3    H112314   1.866   4.019   5.495
 4123TIP3    H212315   1.908   4.153   5.552
 4124TIP3   OH212316   3.829   1.548   2.678
 4124TIP3    H112317   3.795   1.459   2.676
 4124TIP3    H212318   3.866   1.563   2.591
 4125TIP3   OH212319   7.286   4.041   5.843
 4125TIP3    H112320   7.281   4.070   5.752
 4125TIP3    H212321   7.255   3.951   5.841
 4126TIP3   OH212322   8.244   6.568   2.535
 4126TIP3    H112323   8.161   6.541   2.574
 4126TIP3    H212324   8.224   6.648   2.488
 4127TIP3   OH212325   7.106   3.522   3.547
 4127TIP3    H112326   7.044   3.525   3.620
 4127TIP3    H212327   7.163   3.448   3.567
 4128TIP3   OH212328   2.456   5.330   2.054
 4128TIP3    H112329   2.454   5.246   2.099
 4128TIP3    H212330   2.476   5.308   1.963
 4129TIP3   OH212331   4.715   1.315   5.289
 4129TIP3    H112332   4.656   1.380   5.328
 4129TIP3    H212333   4.803   1.353   5.301
 4130TIP3   OH212334   1.693   0.387   2.834
 4130TIP3    H112335   1.717   0.333   2.759
 4130TIP3    H212336   1.672   0.472   2.795
 4131TIP3   OH212337   2.364   1.088   1.249
 4131TIP3    H112338   2.371   1.164   1.191
 4131TIP3    H212339   2.318   1.022   1.197
 4132TIP3   OH212340   2.855   3.351   6.013
 4132TIP3    H112341   2.829   3.294   6.086
 4132TIP3    H212342   2.944   3.324   5.992
 4133TIP3   OH212343   4.994   5.245   3.438
 4133TIP3    H112344   5.039   5.309   3.383
 4133TIP3    H212345   4.924   5.211   3.383
 4134TIP3   OH212346   6.371   0.253   0.847
 4134TIP3    H112347   6.382   0.336   0.893
 4134TIP3    H212348   6.456   0.236   0.806
 4135TIP3   OH212349   4.292   0.477   4.131
 4135TIP3    H112350   4.210   0.503   4.174
 4135TIP3    H212351   4.272   0.480   4.037
 4136TIP3   OH212352   3.426   3.706   3.250
 4136TIP3    H112353   3.469   3.667   3.327
 4136TIP3    H212354   3.435   3.640   3.182
 4137TIP3   OH212355   2.410   1.872   1.188
 4137TIP3    H112356   2.380   1.839   1.273
 4137TIP3    H212357   2.503   1.891   1.201
 4138TIP3   OH212358   1.107   6.671   6.713
 4138TIP3    H112359   1.083   6.588   6.672
 4138TIP3    H212360   1.034   6.729   6.694
 4139TIP3   OH212361   2.046   2.059   4.008
 4139TIP3    H112362   2.103   2.047   3.932
 4139TIP3    H212363   2.106   2.067   4.082
 4140TIP3   OH212364   5.214   5.459   2.238
 4140TIP3    H112365   5.199   5.534   2.180
 4140TIP3    H212366   5.308   5.459   2.252
 4141TIP3   OH212367   0.170   2.132   4.393
 4141TIP3    H112368   0.128   2.091   4.468
 4141TIP3    H212369   0.203   2.215   4.427
 4142TIP3   OH212370   8.297   1.113   4.652
 4142TIP3    H112371   8.316   1.039   4.708
 4142TIP3    H212372   8.222   1.156   4.694
 4143TIP3   OH212373   2.065   5.057   4.671
 4143TIP3    H112374   2.160   5.059   4.684
 4143TIP3    H212375   2.055   5.050   4.576
 4144TIP3   OH212376   2.236   7.588   5.942
 4144TIP3    H112377   2.278   7.601   6.027
 4144TIP3    H212378   2.144   7.570   5.963
 4145TIP3   OH212379   2.355   0.370   3.734
 4145TIP3    H112380   2.376   0.341   3.645
 4145TIP3    H212381   2.432   0.419   3.763
 4146TIP3   OH212382   3.918   2.751   2.839
 4146TIP3    H112383   3.843   2.803   2.808
 4146TIP3    H212384   3.906   2.748   2.934
 4147TIP3   OH212385   3.320   5.306   6.311
 4147TIP3    H112386   3.309   5.375   6.376
 4147TIP3    H212387   3.234   5.296   6.271
 4148TIP3   OH212388   3.936   7.671   3.146
 4148TIP3    H112389   3.933   7.608   3.074
 4148TIP3    H212390   4.016   7.650   3.193
 4149TIP3   OH212391   3.681   2.068   2.934
 4149TIP3    H112392   3.749   2.134   2.919
 4149TIP3    H212393   3.598   2.114   2.917
 4150TIP3   OH212394   7.348   3.768   1.862
 4150TIP3    H112395   7.407   3.693   1.871
 4150TIP3    H212396   7.272   3.733   1.815
 4151TIP3   OH212397   8.123   4.257   4.626
 4151TIP3    H112398   8.166   4.296   4.550
 4151TIP3    H212399   8.057   4.321   4.652
 4152TIP3   OH212400   3.532   1.127   1.884
 4152TIP3    H112401   3.569   1.095   1.967
 4152TIP3    H212402   3.572   1.072   1.817
 4153TIP3   OH212403   1.073   5.980   5.943
 4153TIP3    H112404   1.098   5.959   5.853
 4153TIP3    H212405   1.154   5.977   5.992
 4154TIP3   OH212406   7.265   1.092   4.029
 4154TIP3    H112407   7.283   1.041   3.950
 4154TIP3    H212408   7.197   1.042   4.075
 4155TIP3   OH212409   1.283   2.176   2.296
 4155TIP3    H112410   1.336   2.255   2.284
 4155TIP3    H212411   1.196   2.210   2.319
 4156TIP3   OH212412   5.285   2.902   5.697
 4156TIP3    H112413   5.335   2.828   5.732
 4156TIP3    H212414   5.333   2.929   5.619
 4157TIP3   OH212415   0.861   3.018   2.409
 4157TIP3    H112416   0.805   3.042   2.335
 4157TIP3    H212417   0.900   3.101   2.437
 4158TIP3   OH212418   2.175   3.358   6.116
 4158TIP3    H112419   2.259   3.330   6.153
 4158TIP3    H212420   2.113   3.291   6.144
 4159TIP3   OH212421   3.051   7.205   3.674
 4159TIP3    H112422   2.979   7.169   3.622
 4159TIP3    H212423   3.019   7.202   3.764
 4160TIP3   OH212424   5.906   1.361   1.948
 4160TIP3    H112425   5.868   1.398   2.028
 4160TIP3    H212426   5.889   1.267   1.954
 4161TIP3   OH212427   7.738   2.523   2.265
 4161TIP3    H112428   7.776   2.610   2.248
 4161TIP3    H212429   7.761   2.505   2.356
 4162TIP3   OH212430   0.695   7.308   6.204
 4162TIP3    H112431   0.667   7.330   6.115
 4162TIP3    H212432   0.760   7.239   6.193
 4163TIP3   OH212433   0.088   6.149   4.568
 4163TIP3    H112434   0.045   6.138   4.653
 4163TIP3    H212435   0.150   6.076   4.564
 4164TIP3   OH212436   7.307   0.514   1.281
 4164TIP3    H112437   7.356   0.555   1.210
 4164TIP3    H212438   7.231   0.474   1.238
 4165TIP3   OH212439   1.281   2.053   3.214
 4165TIP3    H112440   1.375   2.051   3.235
 4165TIP3    H212441   1.278   2.049   3.118
 4166TIP3   OH212442   6.368   2.690   1.782
 4166TIP3    H112443   6.459   2.677   1.759
 4166TIP3    H212444   6.355   2.637   1.861
 4167TIP3   OH212445   3.631   6.687   1.725
 4167TIP3    H112446   3.633   6.771   1.771
 4167TIP3    H212447   3.699   6.695   1.658
 4168TIP3   OH212448   0.892   5.226   3.920
 4168TIP3    H112449   0.874   5.234   4.013
 4168TIP3    H212450   0.964   5.163   3.915
 4169TIP3   OH212451   5.113   3.965   5.894
 4169TIP3    H112452   5.090   4.025   5.824
 4169TIP3    H212453   5.140   4.021   5.967
 4170TIP3   OH212454   3.123   6.455   2.015
 4170TIP3    H112455   3.039   6.483   1.979
 4170TIP3    H212456   3.186   6.518   1.979
 4171TIP3   OH212457   6.011   4.605   6.055
 4171TIP3    H112458   5.992   4.532   5.995
 4171TIP3    H212459   5.997   4.683   6.002
 4172TIP3   OH212460   4.481   0.617   0.454
 4172TIP3    H112461   4.409   0.592   0.512
 4172TIP3    H212462   4.507   0.535   0.412
 4173TIP3   OH212463   1.174   6.078   4.427
 4173TIP3    H112464   1.151   6.161   4.469
 4173TIP3    H212465   1.270   6.075   4.431
 4174TIP3   OH212466   5.088   2.776   5.537
 4174TIP3    H112467   5.161   2.825   5.575
 4174TIP3    H212468   5.045   2.839   5.479
 4175TIP3   OH212469   6.099   2.171   0.073
 4175TIP3    H112470   6.104   2.084   0.111
 4175TIP3    H212471   6.148   2.165  -0.009
 4176TIP3   OH212472   0.402   1.509   4.431
 4176TIP3    H112473   0.436   1.461   4.355
 4176TIP3    H212474   0.312   1.530   4.406
 4177TIP3   OH212475   6.488   2.769   5.628
 4177TIP3    H112476   6.529   2.825   5.562
 4177TIP3    H212477   6.561   2.736   5.680
 4178TIP3   OH212478   2.822   6.289   3.604
 4178TIP3    H112479   2.773   6.345   3.664
 4178TIP3    H212480   2.825   6.204   3.647
 4179TIP3   OH212481   7.086   4.242   4.003
 4179TIP3    H112482   7.089   4.159   4.052
 4179TIP3    H212483   7.013   4.290   4.042
 4180TIP3   OH212484   5.692   6.146   3.316
 4180TIP3    H112485   5.767   6.088   3.331
 4180TIP3    H212486   5.721   6.206   3.247
 4181TIP3   OH212487   3.169   4.591   1.197
 4181TIP3    H112488   3.082   4.617   1.165
 4181TIP3    H212489   3.211   4.673   1.222
 4182TIP3   OH212490   3.565   4.794   5.897
 4182TIP3    H112491   3.659   4.787   5.876
 4182TIP3    H212492   3.521   4.769   5.815
 4183TIP3   OH212493   2.034   5.400   3.402
 4183TIP3    H112494   2.004   5.345   3.475
 4183TIP3    H212495   2.128   5.383   3.395
 4184TIP3   OH212496   0.959   2.898   1.519
 4184TIP3    H112497   0.925   2.940   1.599
 4184TIP3    H212498   0.889   2.909   1.455
 4185TIP3   OH212499   0.161   1.569   2.837
 4185TIP3    H112500   0.215   1.529   2.769
 4185TIP3    H212501   0.217   1.635   2.877
 4186TIP3   OH212502   7.013   5.877   0.720
 4186TIP3    H112503   7.059   5.794   0.731
 4186TIP3    H212504   6.982   5.899   0.807
 4187TIP3   OH212505   0.933   2.979   2.036
 4187TIP3    H112506   0.923   2.892   2.075
 4187TIP3    H212507   0.852   3.025   2.059
 4188TIP3   OH212508   3.197   6.164   6.325
 4188TIP3    H112509   3.147   6.098   6.277
 4188TIP3    H212510   3.191   6.243   6.272
 4189TIP3   OH212511   6.397   6.148   3.680
 4189TIP3    H112512   6.437   6.192   3.605
 4189TIP3    H212513   6.435   6.191   3.757
 4190TIP3   OH212514   7.102   6.249   5.145
 4190TIP3    H112515   7.028   6.188   5.142
 4190TIP3    H212516   7.083   6.307   5.218
 4191TIP3   OH212517   2.877   3.121   2.339
 4191TIP3    H112518   2.919   3.035   2.341
 4191TIP3    H212519   2.897   3.159   2.425
 4192TIP3   OH212520   2.599   5.983   3.777
 4192TIP3    H112521   2.606   5.912   3.840
 4192TIP3    H212522   2.576   5.940   3.694
 4193TIP3   OH212523   6.701   3.096   0.779
 4193TIP3    H112524   6.791   3.127   0.783
 4193TIP3    H212525   6.649   3.168   0.815
 4194TIP3   OH212526   2.367   7.456   1.065
 4194TIP3    H112527   2.416   7.385   1.024
 4194TIP3    H212528   2.362   7.432   1.157
 4195TIP3   OH212529   2.540   6.522   1.469
 4195TIP3    H112530   2.450   6.512   1.437
 4195TIP3    H212531   2.590   6.456   1.420
 4196TIP3   OH212532   5.150   3.488   1.436
 4196TIP3    H112533   5.088   3.471   1.507
 4196TIP3    H212534   5.112   3.444   1.360
 4197TIP3   OH212535   6.356   4.125   5.206
 4197TIP3    H112536   6.264   4.124   5.177
 4197TIP3    H212537   6.350   4.134   5.302
 4198TIP3   OH212538   2.706   0.270   3.743
 4198TIP3    H112539   2.707   0.307   3.655
 4198TIP3    H212540   2.743   0.338   3.799
 4199TIP3   OH212541   6.833   2.514   3.201
 4199TIP3    H112542   6.856   2.507   3.109
 4199TIP3    H212543   6.838   2.424   3.234
 4200TIP3   OH212544   6.961   5.348   6.687
 4200TIP3    H112545   6.944   5.270   6.634
 4200TIP3    H212546   6.906   5.337   6.764
 4201TIP3   OH212547   8.280   7.685   0.821
 4201TIP3    H112548   8.295   7.743   0.895
 4201TIP3    H212549   8.185   7.670   0.821
 4202TIP3   OH212550   3.802   4.480   3.069
 4202TIP3    H112551   3.873   4.436   3.115
 4202TIP3    H212552   3.804   4.570   3.104
 4203TIP3   OH212553   1.895   2.072   5.371
 4203TIP3    H112554   1.986   2.099   5.382
 4203TIP3    H212555   1.852   2.097   5.452
 4204TIP3   OH212556   4.103   2.133   1.676
 4204TIP3    H112557   4.024   2.080   1.672
 4204TIP3    H212558   4.083   2.201   1.741
 4205TIP3   OH212559   2.291   4.287   3.626
 4205TIP3    H112560   2.278   4.352   3.557
 4205TIP3    H212561   2.356   4.326   3.684
 4206TIP3   OH212562   0.157   4.193   6.146
 4206TIP3    H112563   0.062   4.195   6.134
 4206TIP3    H212564   0.188   4.128   6.084
 4207TIP3   OH212565   7.695   7.259   2.750
 4207TIP3    H112566   7.600   7.273   2.747
 4207TIP3    H212567   7.707   7.172   2.710
 4208TIP3   OH212568   8.314   0.484   6.728
 4208TIP3    H112569   8.271   0.458   6.810
 4208TIP3    H212570   8.269   0.435   6.660
 4209TIP3   OH212571   3.361   1.559   2.158
 4209TIP3    H112572   3.325   1.516   2.080
 4209TIP3    H212573   3.348   1.496   2.229
 4210TIP3   OH212574   3.740   4.006   3.032
 4210TIP3    H112575   3.696   3.996   3.116
 4210TIP3    H212576   3.822   3.957   3.041
 4211TIP3   OH212577   3.992   5.327   2.813
 4211TIP3    H112578   4.071   5.377   2.791
 4211TIP3    H212579   3.963   5.363   2.897
 4212TIP3   OH212580   1.261   3.968   5.600
 4212TIP3    H112581   1.271   4.056   5.637
 4212TIP3    H212582   1.215   3.981   5.517
 4213TIP3   OH212583   3.202   2.455   0.565
 4213TIP3    H112584   3.284   2.409   0.551
 4213TIP3    H212585   3.164   2.414   0.642
 4214TIP3   OH212586   3.464   2.327   5.024
 4214TIP3    H112587   3.466   2.359   5.114
 4214TIP3    H212588   3.534   2.375   4.980
 4215TIP3   OH212589   7.206   6.345   5.393
 4215TIP3    H112590   7.271   6.377   5.331
 4215TIP3    H212591   7.177   6.423   5.439
 4216TIP3   OH212592   0.268   5.572   4.749
 4216TIP3    H112593   0.256   5.512   4.675
 4216TIP3    H212594   0.244   5.521   4.826
 4217TIP3   OH212595   6.637   7.198   0.461
 4217TIP3    H112596   6.590   7.119   0.489
 4217TIP3    H212597   6.603   7.217   0.373
 4218TIP3   OH212598   6.576   7.338   0.862
 4218TIP3    H112599   6.593   7.246   0.843
 4218TIP3    H212600   6.533   7.371   0.783
 4219TIP3   OH212601   1.836   2.746   4.575
 4219TIP3    H112602   1.857   2.664   4.530
 4219TIP3    H212603   1.798   2.718   4.658
 4220TIP3   OH212604   3.752   1.327   0.243
 4220TIP3    H112605   3.682   1.275   0.204
 4220TIP3    H212606   3.708   1.404   0.280
 4221TIP3   OH212607   3.500   2.509   1.896
 4221TIP3    H112608   3.562   2.441   1.921
 4221TIP3    H212609   3.553   2.588   1.888
 4222TIP3   OH212610   0.218   0.527   5.800
 4222TIP3    H112611   0.171   0.444   5.803
 4222TIP3    H212612   0.205   0.565   5.887
 4223TIP3   OH212613   2.070   2.939   0.953
 4223TIP3    H112614   2.087   2.889   1.032
 4223TIP3    H212615   2.154   2.976   0.928
 4224TIP3   OH212616   0.299   6.106   6.034
 4224TIP3    H112617   0.378   6.154   6.008
 4224TIP3    H212618   0.332   6.024   6.071
 4225TIP3   OH212619   0.152   6.349   1.872
 4225TIP3    H112620   0.085   6.284   1.851
 4225TIP3    H212621   0.174   6.333   1.964
 4226TIP3   OH212622   4.839   4.030   4.676
 4226TIP3    H112623   4.846   4.123   4.656
 4226TIP3    H212624   4.801   3.992   4.597
 4227TIP3   OH212625   2.896   0.540   2.815
 4227TIP3    H112626   2.865   0.518   2.727
 4227TIP3    H212627   2.983   0.501   2.820
 4228TIP3   OH212628   7.988   3.663   5.205
 4228TIP3    H112629   7.940   3.670   5.123
 4228TIP3    H212630   8.078   3.688   5.182
 4229TIP3   OH212631   0.811   7.623   1.512
 4229TIP3    H112632   0.747   7.688   1.483
 4229TIP3    H212633   0.894   7.670   1.512
 4230TIP3   OH212634   3.877   5.064   3.947
 4230TIP3    H112635   3.947   5.119   3.982
 4230TIP3    H212636   3.815   5.126   3.908
 4231TIP3   OH212637   7.239   1.691   4.436
 4231TIP3    H112638   7.203   1.714   4.350
 4231TIP3    H212639   7.173   1.634   4.475
 4232TIP3   OH212640   8.312   3.437   1.062
 4232TIP3    H112641   8.262   3.386   1.126
 4232TIP3    H212642   8.333   3.519   1.108
 4233TIP3   OH212643   0.935   4.909   5.244
 4233TIP3    H112644   1.016   4.958   5.230
 4233TIP3    H212645   0.961   4.817   5.236
 4234TIP3   OH212646   5.479   2.122   0.647
 4234TIP3    H112647   5.432   2.162   0.573
 4234TIP3    H212648   5.480   2.190   0.714
 4235TIP3   OH212649   5.426   7.715   2.502
 4235TIP3    H112650   5.406   7.744   2.413
 4235TIP3    H212651   5.503   7.765   2.527
 4236TIP3   OH212652   2.483   3.880   4.042
 4236TIP3    H112653   2.514   3.793   4.069
 4236TIP3    H212654   2.514   3.889   3.952
 4237TIP3   OH212655   5.165   4.667   5.746
 4237TIP3    H112656   5.247   4.716   5.755
 4237TIP3    H212657   5.133   4.659   5.836
 4238TIP3   OH212658   1.587   3.165   0.214
 4238TIP3    H112659   1.543   3.163   0.129
 4238TIP3    H212660   1.669   3.119   0.200
 4239TIP3   OH212661   0.780   0.772   2.890
 4239TIP3    H112662   0.744   0.784   2.978
 4239TIP3    H212663   0.705   0.742   2.838
 4240TIP3   OH212664   7.368   2.368   3.759
 4240TIP3    H112665   7.303   2.399   3.823
 4240TIP3    H212666   7.322   2.299   3.711
 4241TIP3   OH212667   1.589   5.555   2.494
 4241TIP3    H112668   1.642   5.484   2.530
 4241TIP3    H212669   1.507   5.512   2.467
 4242TIP3   OH212670   6.705   5.209   1.511
 4242TIP3    H112671   6.686   5.128   1.463
 4242TIP3    H212672   6.630   5.265   1.494
 4243TIP3   OH212673   1.396   2.984   0.325
 4243TIP3    H112674   1.475   3.039   0.325
 4243TIP3    H212675   1.326   3.043   0.297
 4244TIP3   OH212676   2.354   6.867   5.837
 4244TIP3    H112677   2.415   6.886   5.909
 4244TIP3    H212678   2.409   6.864   5.759
 4245TIP3   OH212679   2.991   1.576   0.397
 4245TIP3    H112680   2.979   1.668   0.422
 4245TIP3    H212681   2.990   1.528   0.480
 4246TIP3   OH212682   0.927   1.517   6.316
 4246TIP3    H112683   0.837   1.532   6.346
 4246TIP3    H212684   0.918   1.495   6.223
 4247TIP3   OH212685   1.076   6.821   2.161
 4247TIP3    H112686   1.060   6.902   2.113
 4247TIP3    H212687   1.065   6.751   2.096
 4248TIP3   OH212688   7.797   6.418   0.230
 4248TIP3    H112689   7.763   6.331   0.209
 4248TIP3    H212690   7.782   6.470   0.151
 4249TIP3   OH212691   6.345   4.971   0.128
 4249TIP3    H112692   6.430   5.014   0.139
 4249TIP3    H212693   6.356   4.917   0.050
 4250TIP3   OH212694   2.137   3.627   3.411
 4250TIP3    H112695   2.056   3.625   3.360
 4250TIP3    H212696   2.206   3.612   3.347
 4251TIP3   OH212697   5.678   3.410   1.325
 4251TIP3    H112698   5.613   3.373   1.265
 4251TIP3    H212699   5.745   3.448   1.267
 4252TIP3   OH212700   7.756   3.725   1.322
 4252TIP3    H112701   7.823   3.663   1.348
 4252TIP3    H212702   7.760   3.726   1.226
 4253TIP3   OH212703   4.345   4.987   1.730
 4253TIP3    H112704   4.376   4.944   1.651
 4253TIP3    H212705   4.264   4.941   1.752
 4254TIP3   OH212706   7.622   2.185   4.641
 4254TIP3    H112707   7.685   2.256   4.655
 4254TIP3    H212708   7.568   2.216   4.568
 4255TIP3   OH212709   4.429   2.892   1.623
 4255TIP3    H112710   4.432   2.837   1.545
 4255TIP3    H212711   4.350   2.864   1.669
 4256TIP3   OH212712   7.997   0.656   6.165
 4256TIP3    H112713   8.063   0.677   6.099
 4256TIP3    H212714   8.026   0.572   6.201
 4257TIP3   OH212715   4.181   4.938   4.106
 4257TIP3    H112716   4.260   4.884   4.109
 4257TIP3    H212717   4.213   5.027   4.094
 4258TIP3   OH212718   4.683   0.618   0.883
 4258TIP3    H112719   4.709   0.638   0.793
 4258TIP3    H212720   4.716   0.529   0.898
 4259TIP3   OH212721   3.998   7.741   4.382
 4259TIP3    H112722   3.997   7.657   4.428
 4259TIP3    H212723   4.077   7.738   4.328
 4260TIP3   OH212724   4.033   5.938   0.521
 4260TIP3    H112725   4.101   5.962   0.583
 4260TIP3    H212726   4.064   5.970   0.436
 4261TIP3   OH212727   7.417   0.854   5.029
 4261TIP3    H112728   7.483   0.893   5.086
 4261TIP3    H212729   7.454   0.770   5.002
 4262TIP3   OH212730   7.112   4.898   1.473
 4262TIP3    H112731   7.185   4.939   1.520
 4262TIP3    H212732   7.115   4.806   1.500
 4263TIP3   OH212733   0.696   1.382   4.511
 4263TIP3    H112734   0.634   1.332   4.564
 4263TIP3    H212735   0.672   1.474   4.526
 4264TIP3   OH212736   5.203   0.701   1.365
 4264TIP3    H112737   5.241   0.781   1.327
 4264TIP3    H212738   5.174   0.728   1.452
 4265TIP3   OH212739   4.844   1.936   0.825
 4265TIP3    H112740   4.874   1.996   0.893
 4265TIP3    H212741   4.919   1.878   0.809
 4266TIP3   OH212742   7.422   0.886   1.367
 4266TIP3    H112743   7.504   0.916   1.407
 4266TIP3    H212744   7.449   0.818   1.305
 4267TIP3   OH212745   6.652   7.559   1.868
 4267TIP3    H112746   6.561   7.544   1.894
 4267TIP3    H212747   6.650   7.556   1.772
 4268TIP3   OH212748   3.651   1.811   3.762
 4268TIP3    H112749   3.606   1.814   3.846
 4268TIP3    H212750   3.676   1.902   3.745
 4269TIP3   OH212751   1.688   5.406   4.768
 4269TIP3    H112752   1.723   5.454   4.843
 4269TIP3    H212753   1.762   5.356   4.734
 4270TIP3   OH212754   2.872   6.446   1.087
 4270TIP3    H112755   2.937   6.502   1.129
 4270TIP3    H212756   2.907   6.428   1.000
 4271TIP3   OH212757   3.256   1.122   3.341
 4271TIP3    H112758   3.234   1.179   3.267
 4271TIP3    H212759   3.187   1.056   3.341
 4272TIP3   OH212760   2.402   4.174   0.941
 4272TIP3    H112761   2.496   4.156   0.932
 4272TIP3    H212762   2.360   4.090   0.920
 4273TIP3   OH212763   6.999   5.435   4.508
 4273TIP3    H112764   6.974   5.398   4.593
 4273TIP3    H212765   6.942   5.511   4.497
 4274TIP3   OH212766   2.325   4.134   2.113
 4274TIP3    H112767   2.385   4.140   2.187
 4274TIP3    H212768   2.270   4.058   2.132
 4275TIP3   OH212769   5.487   3.161   3.433
 4275TIP3    H112770   5.558   3.225   3.432
 4275TIP3    H212771   5.512   3.096   3.367
 4276TIP3   OH212772   0.059   0.732   6.372
 4276TIP3    H112773   0.023   0.734   6.460
 4276TIP3    H212774   0.070   0.824   6.348
 4277TIP3   OH212775   7.809   7.655   6.656
 4277TIP3    H112776   7.772   7.705   6.582
 4277TIP3    H212777   7.733   7.636   6.712
 4278TIP3   OH212778   7.398   0.515   4.706
 4278TIP3    H112779   7.378   0.428   4.671
 4278TIP3    H212780   7.330   0.531   4.771
 4279TIP3   OH212781   3.392   6.178   3.902
 4279TIP3    H112782   3.381   6.216   3.989
 4279TIP3    H212783   3.475   6.131   3.908
 4280TIP3   OH212784   2.034   4.195   2.768
 4280TIP3    H112785   1.996   4.113   2.798
 4280TIP3    H212786   1.996   4.208   2.681
 4281TIP3   OH212787   5.377   2.909   0.887
 4281TIP3    H112788   5.430   2.902   0.967
 4281TIP3    H212789   5.345   2.820   0.873
 4282TIP3   OH212790   7.547   6.847   4.670
 4282TIP3    H112791   7.562   6.890   4.754
 4282TIP3    H212792   7.586   6.906   4.605
 4283TIP3   OH212793   5.700   2.052   3.889
 4283TIP3    H112794   5.759   2.127   3.881
 4283TIP3    H212795   5.753   1.977   3.862
 4284TIP3   OH212796   7.549   1.533   3.013
 4284TIP3    H112797   7.460   1.513   3.043
 4284TIP3    H212798   7.561   1.626   3.035
 4285TIP3   OH212799   3.510   2.871   5.526
 4285TIP3    H112800   3.564   2.858   5.448
 4285TIP3    H212801   3.558   2.826   5.596
 4286TIP3   OH212802   6.378   0.244   4.476
 4286TIP3    H112803   6.380   0.323   4.531
 4286TIP3    H212804   6.441   0.262   4.406
 4287TIP3   OH212805   5.447   7.474   0.984
 4287TIP3    H112806   5.388   7.514   1.048
 4287TIP3    H212807   5.533   7.478   1.026
 4288TIP3   OH212808   1.115   5.081   3.976
 4288TIP3    H112809   1.156   5.127   4.049
 4288TIP3    H212810   1.186   5.032   3.935
 4289TIP3   OH212811   1.985   1.977   1.593
 4289TIP3    H112812   2.000   1.971   1.499
 4289TIP3    H212813   2.057   2.031   1.626
 4290TIP3   OH212814   6.338   7.058   0.139
 4290TIP3    H112815   6.294   7.137   0.169
 4290TIP3    H212816   6.267   6.997   0.119
 4291TIP3   OH212817   4.238   3.472   0.683
 4291TIP3    H112818   4.172   3.539   0.666
 4291TIP3    H212819   4.234   3.457   0.778
 4292TIP3   OH212820   6.511   7.293   5.770
 4292TIP3    H112821   6.481   7.289   5.861
 4292TIP3    H212822   6.605   7.306   5.776
 4293TIP3   OH212823   5.020   7.647   2.992
 4293TIP3    H112824   4.949   7.709   3.010
 4293TIP3    H212825   5.083   7.697   2.940
 4294TIP3   OH212826   6.361   5.895   4.537
 4294TIP3    H112827   6.349   5.875   4.445
 4294TIP3    H212828   6.314   5.826   4.583
 4295TIP3   OH212829   8.098   3.213   3.914
 4295TIP3    H112830   8.046   3.293   3.925
 4295TIP3    H212831   8.134   3.220   3.826
 4296TIP3   OH212832   0.362   0.783   2.091
 4296TIP3    H112833   0.333   0.864   2.048
 4296TIP3    H212834   0.337   0.794   2.182
 4297TIP3   OH212835   4.180   4.115   2.197
 4297TIP3    H112836   4.110   4.125   2.262
 4297TIP3    H212837   4.209   4.024   2.207
 4298TIP3   OH212838   6.877   6.964   3.270
 4298TIP3    H112839   6.842   7.048   3.300
 4298TIP3    H212840   6.800   6.909   3.257
 4299TIP3   OH212841   7.569   2.368   5.597
 4299TIP3    H112842   7.574   2.401   5.686
 4299TIP3    H212843   7.550   2.275   5.606
 4300TIP3   OH212844   8.253   0.667   3.470
 4300TIP3    H112845   8.203   0.749   3.468
 4300TIP3    H212846   8.342   0.692   3.447
 4301TIP3   OH212847   6.061   2.309   3.288
 4301TIP3    H112848   6.121   2.260   3.344
 4301TIP3    H212849   5.983   2.254   3.284
 4302TIP3   OH212850   3.717   4.990   2.312
 4302TIP3    H112851   3.724   5.065   2.254
 4302TIP3    H212852   3.806   4.975   2.343
 4303TIP3   OH212853   7.297   4.194   6.644
 4303TIP3    H112854   7.252   4.191   6.559
 4303TIP3    H212855   7.308   4.102   6.668
 4304TIP3   OH212856   5.636   0.275   6.440
 4304TIP3    H112857   5.653   0.353   6.492
 4304TIP3    H212858   5.615   0.207   6.504
 4305TIP3   OH212859   2.398   4.589   4.225
 4305TIP3    H112860   2.435   4.631   4.147
 4305TIP3    H212861   2.403   4.495   4.206
 4306TIP3   OH212862   3.208   5.610   0.296
 4306TIP3    H112863   3.131   5.562   0.268
 4306TIP3    H212864   3.268   5.605   0.221
 4307TIP3   OH212865   2.916   5.221   2.890
 4307TIP3    H112866   2.987   5.189   2.834
 4307TIP3    H212867   2.930   5.316   2.894
 4308TIP3   OH212868   4.418   7.381   0.486
 4308TIP3    H112869   4.328   7.388   0.454
 4308TIP3    H212870   4.471   7.373   0.406
 4309TIP3   OH212871   5.466   5.426   4.535
 4309TIP3    H112872   5.496   5.516   4.548
 4309TIP3    H212873   5.394   5.433   4.473
 4310TIP3   OH212874   2.797   3.506   5.347
 4310TIP3    H112875   2.853   3.445   5.298
 4310TIP3    H212876   2.854   3.580   5.367
 4311TIP3   OH212877   4.371   1.758   5.861
 4311TIP3    H112878   4.330   1.687   5.911
 4311TIP3    H212879   4.464   1.751   5.882
 4312TIP3   OH212880   5.950   4.450   5.516
 4312TIP3    H112881   6.005   4.506   5.461
 4312TIP3    H212882   5.902   4.395   5.454
 4313TIP3   OH212883   1.601   6.139   6.300
 4313TIP3    H112884   1.668   6.157   6.367
 4313TIP3    H212885   1.622   6.199   6.228
 4314TIP3   OH212886   1.454   2.565   5.925
 4314TIP3    H112887   1.370   2.538   5.962
 4314TIP3    H212888   1.518   2.506   5.964
 4315TIP3   OH212889   4.719   3.761   5.440
 4315TIP3    H112890   4.774   3.783   5.365
 4315TIP3    H212891   4.693   3.670   5.426
 4316TIP3   OH212892   4.434   5.996   4.366
 4316TIP3    H112893   4.428   5.990   4.271
 4316TIP3    H212894   4.491   5.923   4.391
 4317TIP3   OH212895   6.435   1.763   4.306
 4317TIP3    H112896   6.470   1.703   4.241
 4317TIP3    H212897   6.392   1.832   4.255
 4318TIP3   OH212898   0.808   6.616   4.354
 4318TIP3    H112899   0.889   6.581   4.317
 4318TIP3    H212900   0.816   6.711   4.343
 4319TIP3   OH212901   0.230   0.568   3.625
 4319TIP3    H112902   0.213   0.575   3.719
 4319TIP3    H212903   0.294   0.497   3.617
 4320TIP3   OH212904   3.857   4.698   2.631
 4320TIP3    H112905   3.836   4.636   2.562
 4320TIP3    H212906   3.801   4.774   2.613
 4321TIP3   OH212907   1.564   0.785   6.042
 4321TIP3    H112908   1.479   0.752   6.013
 4321TIP3    H212909   1.544   0.867   6.086
 4322TIP3   OH212910   2.355   0.052   4.231
 4322TIP3    H112911   2.296   0.038   4.305
 4322TIP3    H212912   2.439   0.017   4.261
 4323TIP3   OH212913   3.903   4.670   1.041
 4323TIP3    H112914   3.963   4.637   1.108
 4323TIP3    H212915   3.848   4.595   1.019
 4324TIP3   OH212916   7.906   4.705   0.299
 4324TIP3    H112917   7.990   4.712   0.345
 4324TIP3    H212918   7.849   4.661   0.361
 4325TIP3   OH212919   0.622   0.538   5.573
 4325TIP3    H112920   0.678   0.594   5.627
 4325TIP3    H212921   0.565   0.494   5.635
 4326TIP3   OH212922   0.047   4.700   6.108
 4326TIP3    H112923   0.054   4.796   6.111
 4326TIP3    H212924  -0.004   4.682   6.029
 4327TIP3   OH212925   1.578   4.788   1.086
 4327TIP3    H112926   1.602   4.775   0.994
 4327TIP3    H212927   1.566   4.882   1.094
 4328TIP3   OH212928   3.243   5.086   6.469
 4328TIP3    H112929   3.225   5.016   6.406
 4328TIP3    H212930   3.273   5.160   6.416
 4329TIP3   OH212931   2.528   5.023   4.383
 4329TIP3    H112932   2.595   4.995   4.445
 4329TIP3    H212933   2.542   5.117   4.372
 4330TIP3   OH212934   4.477   6.624   3.894
 4330TIP3    H112935   4.479   6.610   3.989
 4330TIP3    H212936   4.565   6.603   3.864
 4331TIP3   OH212937   6.943   5.363   0.778
 4331TIP3    H112938   6.920   5.456   0.775
 4331TIP3    H212939   6.992   5.353   0.860
 4332TIP3   OH212940   7.645   1.103   3.968
 4332TIP3    H112941   7.665   1.106   4.061
 4332TIP3    H212942   7.575   1.039   3.959
 4333TIP3   OH212943   3.342   4.519   5.229
 4333TIP3    H112944   3.344   4.471   5.312
 4333TIP3    H212945   3.254   4.557   5.227
 4334TIP3   OH212946   5.355   0.347   5.999
 4334TIP3    H112947   5.287   0.412   6.017
 4334TIP3    H212948   5.404   0.340   6.081
 4335TIP3   OH212949   1.728   2.924   1.252
 4335TIP3    H112950   1.798   2.990   1.255
 4335TIP3    H212951   1.741   2.879   1.168
 4336TIP3   OH212952   1.256   2.807   3.908
 4336TIP3    H112953   1.242   2.761   3.825
 4336TIP3    H212954   1.346   2.784   3.932
 4337TIP3   OH212955   7.604   5.199   1.004
 4337TIP3    H112956   7.635   5.110   1.021
 4337TIP3    H212957   7.588   5.201   0.910
 4338TIP3   OH212958   7.900   5.150   2.123
 4338TIP3    H112959   7.959   5.200   2.066
 4338TIP3    H212960   7.874   5.075   2.071
 4339TIP3   OH212961   3.695   2.691   3.236
 4339TIP3    H112962   3.772   2.661   3.284
 4339TIP3    H212963   3.661   2.612   3.193
 4340TIP3   OH212964   3.624   6.815   6.754
 4340TIP3    H112965   3.569   6.811   6.676
 4340TIP3    H212966   3.619   6.727   6.792
 4341TIP3   OH212967   3.958   3.147   5.373
 4341TIP3    H112968   3.972   3.151   5.467
 4341TIP3    H212969   3.888   3.210   5.356
 4342TIP3   OH212970   3.846  -0.013   4.209
 4342TIP3    H112971   3.884  -0.048   4.128
 4342TIP3    H212972   3.861   0.082   4.203
 4343TIP3   OH212973   1.742   6.007   2.515
 4343TIP3    H112974   1.790   5.936   2.473
 4343TIP3    H212975   1.651   5.978   2.513
 4344TIP3   OH212976   4.893   1.985   4.243
 4344TIP3    H112977   4.883   1.945   4.329
 4344TIP3    H212978   4.954   2.057   4.258
 4345TIP3   OH212979   7.833   3.061   2.833
 4345TIP3    H112980   7.742   3.078   2.856
 4345TIP3    H212981   7.857   3.134   2.776
 4346TIP3   OH212982   6.540   6.423   2.633
 4346TIP3    H112983   6.507   6.510   2.656
 4346TIP3    H212984   6.623   6.415   2.680
 4347TIP3   OH212985   1.226   1.847   5.524
 4347TIP3    H112986   1.154   1.831   5.584
 4347TIP3    H212987   1.278   1.915   5.567
 4348TIP3   OH212988   5.942   6.398   0.440
 4348TIP3    H112989   6.027   6.355   0.447
 4348TIP3    H212990   5.900   6.357   0.365
 4349TIP3   OH212991   3.281   4.080   5.743
 4349TIP3    H112992   3.308   4.162   5.784
 4349TIP3    H212993   3.332   4.076   5.662
 4350TIP3   OH212994   2.467   7.608   2.639
 4350TIP3    H112995   2.445   7.558   2.717
 4350TIP3    H212996   2.461   7.699   2.666
 4351TIP3   OH212997   5.457   1.776   4.501
 4351TIP3    H112998   5.465   1.723   4.580
 4351TIP3    H212999   5.540   1.824   4.495
 4352TIP3   OH213000   2.973   1.028   1.235
 4352TIP3    H113001   2.894   1.077   1.212
 4352TIP3    H213002   3.028   1.033   1.156
 4353TIP3   OH213003   7.184   6.005   5.529
 4353TIP3    H113004   7.205   6.080   5.585
 4353TIP3    H213005   7.254   6.004   5.463
 4354TIP3   OH213006   7.873   5.018   6.321
 4354TIP3    H113007   7.806   4.950   6.336
 4354TIP3    H213008   7.872   5.032   6.227
 4355TIP3   OH213009   2.573   4.524   1.337
 4355TIP3    H113010   2.573   4.453   1.273
 4355TIP3    H213011   2.511   4.495   1.405
 4356TIP3   OH213012   1.542   7.310   3.947
 4356TIP3    H113013   1.595   7.232   3.963
 4356TIP3    H213014   1.510   7.299   3.858
 4357TIP3   OH213015   3.108   7.025   1.150
 4357TIP3    H113016   3.160   6.947   1.130
 4357TIP3    H213017   3.084   7.014   1.242
 4358TIP3   OH213018   4.558   6.856   2.714
 4358TIP3    H113019   4.613   6.920   2.669
 4358TIP3    H213020   4.519   6.905   2.787
 4359TIP3   OH213021   2.035   2.836   6.458
 4359TIP3    H113022   1.980   2.766   6.494
 4359TIP3    H213023   2.090   2.793   6.393
 4360TIP3   OH213024   6.205   4.938   1.128
 4360TIP3    H113025   6.254   4.982   1.059
 4360TIP3    H213026   6.222   4.991   1.206
 4361TIP3   OH213027   5.093   0.227   5.771
 4361TIP3    H113028   5.083   0.280   5.851
 4361TIP3    H213029   5.051   0.144   5.792
 4362TIP3   OH213030   0.654   6.893   4.722
 4362TIP3    H113031   0.656   6.977   4.677
 4362TIP3    H213032   0.668   6.915   4.814
 4363TIP3   OH213033   2.592   3.371   1.606
 4363TIP3    H113034   2.637   3.453   1.586
 4363TIP3    H213035   2.586   3.370   1.702
 4364TIP3   OH213036   6.963   6.667   1.653
 4364TIP3    H113037   6.956   6.594   1.715
 4364TIP3    H213038   6.957   6.626   1.567
 4365TIP3   OH213039   7.286   3.749   6.264
 4365TIP3    H113040   7.336   3.829   6.249
 4365TIP3    H213041   7.289   3.735   6.358
 4366TIP3   OH213042   6.301   0.206   2.412
 4366TIP3    H113043   6.232   0.231   2.351
 4366TIP3    H213044   6.286   0.112   2.428
 4367TIP3   OH213045   6.773   6.440   0.985
 4367TIP3    H113046   6.805   6.400   1.065
 4367TIP3    H213047   6.740   6.367   0.933
 4368TIP3   OH213048   2.951   2.227   2.974
 4368TIP3    H113049   3.001   2.276   2.908
 4368TIP3    H213050   2.919   2.150   2.928
 4369TIP3   OH213051   2.272   1.399   5.479
 4369TIP3    H113052   2.247   1.424   5.390
 4369TIP3    H213053   2.241   1.308   5.487
 4370TIP3   OH213054   1.415   0.397   4.408
 4370TIP3    H113055   1.467   0.472   4.437
 4370TIP3    H213056   1.407   0.342   4.486
 4371TIP3   OH213057   7.908   2.226   5.166
 4371TIP3    H113058   7.951   2.150   5.204
 4371TIP3    H213059   7.875   2.275   5.242
 4372TIP3   OH213060   5.173   0.187   5.226
 4372TIP3    H113061   5.109   0.255   5.206
 4372TIP3    H213062   5.187   0.194   5.321
 4373TIP3   OH213063   8.015   5.549   4.819
 4373TIP3    H113064   8.013   5.483   4.750
 4373TIP3    H213065   7.924   5.561   4.844
 4374TIP3   OH213066   3.003   1.524   2.043
 4374TIP3    H113067   3.083   1.532   1.991
 4374TIP3    H213068   2.992   1.611   2.082
 4375TIP3   OH213069   6.088   2.231   0.592
 4375TIP3    H113070   6.166   2.268   0.633
 4375TIP3    H213071   6.108   2.138   0.580
 4376TIP3   OH213072   2.398   3.521   5.626
 4376TIP3    H113073   2.485   3.555   5.644
 4376TIP3    H213074   2.343   3.556   5.696
 4377TIP3   OH213075   5.732   4.582   2.365
 4377TIP3    H113076   5.702   4.560   2.276
 4377TIP3    H213077   5.797   4.650   2.352
 4378TIP3   OH213078   0.436   5.624   1.815
 4378TIP3    H113079   0.513   5.644   1.762
 4378TIP3    H213080   0.447   5.531   1.838
 4379TIP3   OH213081   5.788   5.458   1.380
 4379TIP3    H113082   5.756   5.539   1.422
 4379TIP3    H213083   5.711   5.421   1.338
 4380TIP3   OH213084   6.384   6.167   1.644
 4380TIP3    H113085   6.444   6.177   1.719
 4380TIP3    H213086   6.300   6.144   1.684
 4381TIP3   OH213087   0.706   6.146   3.474
 4381TIP3    H113088   0.717   6.240   3.488
 4381TIP3    H213089   0.764   6.126   3.401
 4382TIP3   OH213090   8.063   1.722   2.451
 4382TIP3    H113091   8.099   1.719   2.540
 4382TIP3    H213092   7.969   1.740   2.464
 4383TIP3   OH213093   1.703   6.378   2.663
 4383TIP3    H113094   1.629   6.332   2.701
 4383TIP3    H213095   1.726   6.445   2.727
 4384TIP3   OH213096   7.354   1.421   4.891
 4384TIP3    H113097   7.390   1.460   4.971
 4384TIP3    H213098   7.413   1.450   4.822
 4385TIP3   OH213099   1.245   6.075   0.155
 4385TIP3    H113100   1.239   6.126   0.073
 4385TIP3    H213101   1.162   6.029   0.160
 4386TIP3   OH213102   4.761   0.535   6.681
 4386TIP3    H113103   4.718   0.610   6.722
 4386TIP3    H213104   4.793   0.482   6.755
 4387TIP3   OH213105   4.508   6.488   2.162
 4387TIP3    H113106   4.512   6.570   2.112
 4387TIP3    H213107   4.599   6.468   2.183
 4388TIP3   OH213108   4.888   2.431   4.888
 4388TIP3    H113109   4.847   2.386   4.962
 4388TIP3    H213110   4.825   2.498   4.862
 4389TIP3   OH213111   5.282   1.259   4.773
 4389TIP3    H113112   5.359   1.205   4.786
 4389TIP3    H213113   5.208   1.199   4.788
 4390TIP3   OH213114   6.980   4.363   5.237
 4390TIP3    H113115   6.951   4.454   5.243
 4390TIP3    H213116   6.934   4.329   5.160
 4391TIP3   OH213117   6.606   1.950   5.850
 4391TIP3    H113118   6.615   1.946   5.755
 4391TIP3    H213119   6.530   1.895   5.870
 4392TIP3   OH213120   5.098   2.521   1.548
 4392TIP3    H113121   5.117   2.518   1.641
 4392TIP3    H213122   5.015   2.473   1.540
 4393TIP3   OH213123   5.491   1.510   2.630
 4393TIP3    H113124   5.433   1.516   2.706
 4393TIP3    H213125   5.491   1.598   2.593
 4394TIP3   OH213126   7.534   3.073   1.304
 4394TIP3    H113127   7.530   3.168   1.315
 4394TIP3    H213128   7.513   3.058   1.212
 4395TIP3   OH213129   6.470   0.750   1.189
 4395TIP3    H113130   6.488   0.775   1.099
 4395TIP3    H213131   6.447   0.833   1.233
 4396TIP3   OH213132   6.291   6.910   4.277
 4396TIP3    H113133   6.208   6.912   4.325
 4396TIP3    H213134   6.265   6.893   4.186
 4397TIP3   OH213135   0.199   7.209   6.332
 4397TIP3    H113136   0.290   7.188   6.314
 4397TIP3    H213137   0.202   7.274   6.402
 4398TIP3   OH213138   5.782   6.337   4.725
 4398TIP3    H113139   5.776   6.242   4.737
 4398TIP3    H213140   5.874   6.352   4.702
 4399TIP3   OH213141   1.531   3.504   4.085
 4399TIP3    H113142   1.486   3.565   4.027
 4399TIP3    H213143   1.617   3.543   4.099
 4400TIP3   OH213144   4.621   1.514   1.127
 4400TIP3    H113145   4.620   1.547   1.037
 4400TIP3    H213146   4.630   1.419   1.119
 4401TIP3   OH213147   2.114   4.422   4.724
 4401TIP3    H113148   2.032   4.418   4.774
 4401TIP3    H213149   2.102   4.361   4.652
 4402TIP3   OH213150   6.020   7.012   3.148
 4402TIP3    H113151   6.045   6.991   3.238
 4402TIP3    H213152   6.091   6.976   3.095
 4403TIP3   OH213153   1.277   2.790   1.492
 4403TIP3    H113154   1.332   2.841   1.552
 4403TIP3    H213155   1.187   2.813   1.516
 4404TIP3   OH213156   4.387   5.693   3.613
 4404TIP3    H113157   4.392   5.699   3.517
 4404TIP3    H213158   4.454   5.753   3.644
 4405TIP3   OH213159   5.907   2.448   0.656
 4405TIP3    H113160   5.958   2.368   0.640
 4405TIP3    H213161   5.843   2.450   0.584
 4406TIP3   OH213162   2.613   7.380   2.018
 4406TIP3    H113163   2.658   7.447   2.070
 4406TIP3    H213164   2.672   7.363   1.945
 4407TIP3   OH213165   4.254   2.022   4.813
 4407TIP3    H113166   4.327   2.041   4.872
 4407TIP3    H213167   4.284   1.945   4.763
 4408TIP3   OH213168   5.165   5.115   5.993
 4408TIP3    H113169   5.245   5.112   5.940
 4408TIP3    H213170   5.101   5.159   5.938
 4409TIP3   OH213171   7.234   6.991   1.290
 4409TIP3    H113172   7.145   7.018   1.315
 4409TIP3    H213173   7.238   6.898   1.313
 4410TIP3   OH213174   3.419   2.502   4.694
 4410TIP3    H113175   3.351   2.484   4.759
 4410TIP3    H213176   3.410   2.431   4.631
 4411TIP3   OH213177   3.900   3.778   5.338
 4411TIP3    H113178   3.813   3.804   5.308
 4411TIP3    H213179   3.922   3.841   5.406
 4412TIP3   OH213180   6.501   7.439   6.725
 4412TIP3    H113181   6.425   7.495   6.712
 4412TIP3    H213182   6.568   7.475   6.667
 4413TIP3   OH213183   7.738   6.640   5.709
 4413TIP3    H113184   7.792   6.582   5.763
 4413TIP3    H213185   7.656   6.591   5.698
 4414TIP3   OH213186   0.805   3.722   0.665
 4414TIP3    H113187   0.882   3.709   0.720
 4414TIP3    H213188   0.842   3.738   0.577
 4415TIP3   OH213189   5.089   4.664   1.769
 4415TIP3    H113190   5.002   4.624   1.761
 4415TIP3    H213191   5.086   4.740   1.710
 4416TIP3   OH213192   3.374   3.528   2.505
 4416TIP3    H113193   3.323   3.465   2.555
 4416TIP3    H213194   3.309   3.587   2.467
 4417TIP3   OH213195   4.474   1.191   4.439
 4417TIP3    H113196   4.514   1.278   4.434
 4417TIP3    H213197   4.413   1.188   4.365
 4418TIP3   OH213198   0.310   5.314   0.098
 4418TIP3    H113199   0.238   5.359   0.143
 4418TIP3    H213200   0.388   5.341   0.146
 4419TIP3   OH213201   4.790   0.603   4.557
 4419TIP3    H113202   4.812   0.510   4.559
 4419TIP3    H213203   4.863   0.645   4.512
 4420TIP3   OH213204   6.240   4.376   4.300
 4420TIP3    H113205   6.280   4.463   4.298
 4420TIP3    H213206   6.244   4.346   4.209
 4421TIP3   OH213207   4.030   3.443   3.616
 4421TIP3    H113208   4.030   3.440   3.520
 4421TIP3    H213209   3.977   3.367   3.642
 4422TIP3   OH213210   4.054   2.350   4.789
 4422TIP3    H113211   4.150   2.354   4.785
 4422TIP3    H213212   4.029   2.289   4.720
 4423TIP3   OH213213  -0.009   5.231   5.645
 4423TIP3    H113214   0.007   5.242   5.551
 4423TIP3    H213215   0.079   5.221   5.683
 4424TIP3   OH213216   6.756   7.663   4.323
 4424TIP3    H113217   6.669   7.623   4.329
 4424TIP3    H213218   6.741   7.744   4.273
 4425TIP3   OH213219   1.460   0.600   2.592
 4425TIP3    H113220   1.478   0.663   2.521
 4425TIP3    H213221   1.537   0.605   2.648
 4426TIP3   OH213222   7.102   4.141   5.004
 4426TIP3    H113223   7.036   4.079   4.974
 4426TIP3    H213224   7.093   4.141   5.100
 4427TIP3   OH213225   4.418   0.175   0.412
 4427TIP3    H113226   4.496   0.181   0.467
 4427TIP3    H213227   4.409   0.262   0.373
 4428TIP3   OH213228   6.944   6.732   2.718
 4428TIP3    H113229   7.010   6.795   2.688
 4428TIP3    H213230   6.923   6.760   2.807
 4429TIP3   OH213231   1.931   6.127   0.680
 4429TIP3    H113232   1.939   6.032   0.665
 4429TIP3    H213233   1.837   6.140   0.697
 4430TIP3   OH213234   1.305   0.338   1.627
 4430TIP3    H113235   1.357   0.336   1.546
 4430TIP3    H213236   1.369   0.319   1.696
 4431TIP3   OH213237   0.646   2.052   1.706
 4431TIP3    H113238   0.573   2.032   1.647
 4431TIP3    H213239   0.604   2.080   1.787
 4432TIP3   OH213240   2.079   4.981   4.997
 4432TIP3    H113241   2.103   4.892   5.021
 4432TIP3    H213242   1.993   4.995   5.038
 4433TIP3   OH213243   1.525   4.932   5.987
 4433TIP3    H113244   1.492   4.843   5.972
 4433TIP3    H213245   1.478   4.986   5.923
 4434TIP3   OH213246   4.978   3.066   5.439
 4434TIP3    H113247   4.920   3.041   5.510
 4434TIP3    H213248   4.918   3.097   5.370
 4435TIP3   OH213249   1.483   6.802   0.046
 4435TIP3    H113250   1.444   6.837   0.126
 4435TIP3    H213251   1.446   6.856  -0.025
 4436TIP3   OH213252   7.212   2.496   0.589
 4436TIP3    H113253   7.166   2.561   0.536
 4436TIP3    H213254   7.154   2.480   0.663
 4437TIP3   OH213255   7.059   0.211   4.661
 4437TIP3    H113256   7.073   0.116   4.657
 4437TIP3    H213257   7.107   0.245   4.586
 4438TIP3   OH213258   5.909   4.885   5.207
 4438TIP3    H113259   5.918   4.800   5.165
 4438TIP3    H213260   5.950   4.946   5.146
 4439TIP3   OH213261   3.455   7.103   2.135
 4439TIP3    H113262   3.491   7.067   2.216
 4439TIP3    H213263   3.512   7.177   2.115
 4440TIP3   OH213264   0.452   7.169   6.334
 4440TIP3    H113265   0.493   7.100   6.386
 4440TIP3    H213266   0.519   7.196   6.272
 4441TIP3   OH213267   6.767   4.243   3.517
 4441TIP3    H113268   6.758   4.273   3.607
 4441TIP3    H213269   6.862   4.241   3.502
 4442TIP3   OH213270   1.758   6.619   2.748
 4442TIP3    H113271   1.701   6.642   2.821
 4442TIP3    H213272   1.778   6.703   2.706
 4443TIP3   OH213273   5.463   1.722   3.925
 4443TIP3    H113274   5.479   1.704   4.017
 4443TIP3    H213275   5.382   1.674   3.905
 4444TIP3   OH213276   3.353   0.718   2.943
 4444TIP3    H113277   3.282   0.733   2.881
 4444TIP3    H213278   3.385   0.630   2.922
 4445TIP3   OH213279   4.193   4.945   5.492
 4445TIP3    H113280   4.256   4.980   5.555
 4445TIP3    H213281   4.204   4.850   5.499
 4446TIP3   OH213282   7.649   7.086   5.860
 4446TIP3    H113283   7.644   6.991   5.868
 4446TIP3    H213284   7.569   7.118   5.901
 4447TIP3   OH213285   3.369   6.098   1.818
 4447TIP3    H113286   3.348   6.149   1.739
 4447TIP3    H213287   3.294   6.039   1.828
 4448TIP3   OH213288   4.512   5.605   6.362
 4448TIP3    H113289   4.503   5.668   6.290
 4448TIP3    H213290   4.449   5.635   6.428
 4449TIP3   OH213291   1.903   4.539   1.609
 4449TIP3    H113292   1.950   4.569   1.532
 4449TIP3    H213293   1.969   4.540   1.679
 4450TIP3   OH213294   4.565   1.817   1.767
 4450TIP3    H113295   4.476   1.844   1.747
 4450TIP3    H213296   4.602   1.792   1.683
 4451TIP3   OH213297   7.665   3.804   4.771
 4451TIP3    H113298   7.655   3.894   4.800
 4451TIP3    H213299   7.603   3.754   4.824
 4452TIP3   OH213300   2.036   3.553   1.790
 4452TIP3    H113301   1.981   3.620   1.749
 4452TIP3    H213302   2.067   3.593   1.871
 4453TIP3   OH213303   3.677   0.073   3.197
 4453TIP3    H113304   3.674  -0.021   3.180
 4453TIP3    H213305   3.652   0.113   3.114
 4454TIP3   OH213306   1.349  -0.006   4.122
 4454TIP3    H113307   1.367   0.063   4.058
 4454TIP3    H213308   1.407   0.014   4.196
 4455TIP3   OH213309   6.378   7.647   4.554
 4455TIP3    H113310   6.389   7.733   4.513
 4455TIP3    H213311   6.386   7.664   4.648
 4456TIP3   OH213312   5.306   6.641   1.777
 4456TIP3    H113313   5.313   6.735   1.797
 4456TIP3    H213314   5.265   6.638   1.691
 4457TIP3   OH213315   3.684   2.109   6.163
 4457TIP3    H113316   3.625   2.110   6.238
 4457TIP3    H213317   3.650   2.176   6.104
 4458TIP3   OH213318   5.457   3.395   4.137
 4458TIP3    H113319   5.482   3.333   4.206
 4458TIP3    H213320   5.418   3.340   4.069
 4459TIP3   OH213321   6.553   5.561   5.319
 4459TIP3    H113322   6.570   5.631   5.256
 4459TIP3    H213323   6.639   5.539   5.354
 4460TIP3   OH213324   4.586   7.504   5.881
 4460TIP3    H113325   4.598   7.599   5.880
 4460TIP3    H213326   4.494   7.492   5.907
 4461TIP3   OH213327   6.067   2.452   1.142
 4461TIP3    H113328   6.044   2.526   1.198
 4461TIP3    H213329   6.104   2.492   1.063
 4462TIP3   OH213330   1.223   1.998   4.063
 4462TIP3    H113331   1.153   1.944   4.099
 4462TIP3    H213332   1.205   2.003   3.970
 4463TIP3   OH213333   4.106   1.551   3.575
 4463TIP3    H113334   4.019   1.588   3.590
 4463TIP3    H213335   4.124   1.567   3.483
 4464TIP3   OH213336   8.026   4.299   1.475
 4464TIP3    H113337   8.107   4.248   1.481
 4464TIP3    H213338   8.055   4.388   1.458
 4465TIP3   OH213339   6.367   1.514   3.770
 4465TIP3    H113340   6.275   1.491   3.780
 4465TIP3    H213341   6.366   1.609   3.758
 4466TIP3   OH213342   4.946   6.098   5.134
 4466TIP3    H113343   4.965   6.015   5.177
 4466TIP3    H213344   5.000   6.097   5.055
 4467TIP3   OH213345   2.872   0.366   4.478
 4467TIP3    H113346   2.952   0.358   4.426
 4467TIP3    H213347   2.837   0.452   4.455
 4468TIP3   OH213348   4.731   1.712   1.292
 4468TIP3    H113349   4.648   1.742   1.328
 4468TIP3    H213350   4.710   1.632   1.245
 4469TIP3   OH213351   5.110   4.467   2.137
 4469TIP3    H113352   5.183   4.406   2.148
 4469TIP3    H213353   5.043   4.434   2.196
 4470TIP3   OH213354   6.588   7.798   3.364
 4470TIP3    H113355   6.516   7.765   3.310
 4470TIP3    H213356   6.640   7.721   3.385
 4471TIP3   OH213357   4.817   1.191   1.858
 4471TIP3    H113358   4.731   1.220   1.828
 4471TIP3    H213359   4.871   1.269   1.856
 4472TIP3   OH213360   4.051   1.926   1.430
 4472TIP3    H113361   4.057   1.833   1.411
 4472TIP3    H213362   3.986   1.932   1.501
 4473TIP3   OH213363   6.929   0.592   1.370
 4473TIP3    H113364   6.903   0.675   1.331
 4473TIP3    H213365   6.995   0.616   1.435
 4474TIP3   OH213366   6.056   3.733   2.342
 4474TIP3    H113367   6.021   3.726   2.431
 4474TIP3    H213368   6.135   3.786   2.352
 4475TIP3   OH213369   1.326   7.049   1.692
 4475TIP3    H113370   1.339   7.032   1.785
 4475TIP3    H213371   1.261   7.119   1.689
 4476TIP3   OH213372   7.086   1.155   0.079
 4476TIP3    H113373   7.047   1.079   0.036
 4476TIP3    H213374   7.157   1.119   0.132
 4477TIP3   OH213375   4.184   1.931   0.457
 4477TIP3    H113376   4.200   1.950   0.549
 4477TIP3    H213377   4.244   1.859   0.436
 4478TIP3   OH213378   0.582   3.232   3.749
 4478TIP3    H113379   0.495   3.250   3.786
 4478TIP3    H213380   0.576   3.141   3.719
 4479TIP3   OH213381   6.527   2.089   0.340
 4479TIP3    H113382   6.560   2.025   0.277
 4479TIP3    H213383   6.442   2.116   0.304
 4480TIP3   OH213384   5.657   2.470   1.788
 4480TIP3    H113385   5.714   2.418   1.731
 4480TIP3    H213386   5.604   2.523   1.729
 4481TIP3   OH213387   0.038   5.376   0.808
 4481TIP3    H113388   0.025   5.388   0.714
 4481TIP3    H213389   0.130   5.398   0.822
 4482TIP3   OH213390   0.910   0.201   2.926
 4482TIP3    H113391   0.821   0.164   2.922
 4482TIP3    H213392   0.902   0.286   2.884
 4483TIP3   OH213393   7.173   6.952   4.704
 4483TIP3    H113394   7.160   6.905   4.621
 4483TIP3    H213395   7.257   6.997   4.693
 4484TIP3   OH213396   4.598   0.749   2.265
 4484TIP3    H113397   4.588   0.663   2.223
 4484TIP3    H213398   4.666   0.735   2.331
 4485TIP3   OH213399   4.498   5.908   2.156
 4485TIP3    H113400   4.449   5.858   2.091
 4485TIP3    H213401   4.467   5.998   2.145
 4486TIP3   OH213402   8.307   5.385   2.492
 4486TIP3    H113403   8.264   5.445   2.554
 4486TIP3    H213404   8.238   5.366   2.427
 4487TIP3   OH213405   8.178   7.770   5.873
 4487TIP3    H113406   8.141   7.691   5.833
 4487TIP3    H213407   8.169   7.837   5.806
 4488TIP3   OH213408   6.188   5.345   6.679
 4488TIP3    H113409   6.133   5.312   6.608
 4488TIP3    H213410   6.143   5.425   6.708
 4489TIP3   OH213411   2.752   0.949   0.082
 4489TIP3    H113412   2.693   1.021   0.063
 4489TIP3    H213413   2.695   0.875   0.101
 4490TIP3   OH213414   4.415   0.693   2.688
 4490TIP3    H113415   4.451   0.764   2.635
 4490TIP3    H213416   4.328   0.676   2.650
 4491TIP3   OH213417   3.403   3.385   6.497
 4491TIP3    H113418   3.390   3.442   6.421
 4491TIP3    H213419   3.318   3.383   6.541
 4492TIP3   OH213420   6.659   7.037   1.794
 4492TIP3    H113421   6.706   6.992   1.724
 4492TIP3    H213422   6.713   7.024   1.871
 4493TIP3   OH213423   5.466   1.493   0.246
 4493TIP3    H113424   5.398   1.496   0.178
 4493TIP3    H213425   5.548   1.487   0.196
 4494TIP3   OH213426   4.262   6.203   3.007
 4494TIP3    H113427   4.282   6.265   3.077
 4494TIP3    H213428   4.250   6.119   3.052
 4495TIP3   OH213429   2.998   6.373   0.547
 4495TIP3    H113430   3.010   6.287   0.509
 4495TIP3    H213431   2.912   6.402   0.515
 4496TIP3   OH213432   2.196   3.092   3.985
 4496TIP3    H113433   2.186   3.003   4.017
 4496TIP3    H213434   2.114   3.111   3.939
 4497TIP3   OH213435   4.887   4.111   2.091
 4497TIP3    H113436   4.903   4.030   2.043
 4497TIP3    H213437   4.796   4.134   2.070
 4498TIP3   OH213438   3.681   2.903   2.767
 4498TIP3    H113439   3.709   2.985   2.808
 4498TIP3    H213440   3.655   2.928   2.678
 4499TIP3   OH213441   1.134   3.606   4.518
 4499TIP3    H113442   1.185   3.643   4.446
 4499TIP3    H213443   1.139   3.672   4.587
 4500TIP3   OH213444   5.317   6.867   3.110
 4500TIP3    H113445   5.227   6.870   3.076
 4500TIP3    H213446   5.307   6.866   3.205
 4501TIP3   OH213447   5.633   1.754   1.739
 4501TIP3    H113448   5.576   1.708   1.800
 4501TIP3    H213449   5.717   1.708   1.745
 4502TIP3   OH213450   3.586   6.145   0.805
 4502TIP3    H113451   3.571   6.070   0.862
 4502TIP3    H213452   3.577   6.110   0.716
 4503TIP3   OH213453   0.388   5.455   5.290
 4503TIP3    H113454   0.355   5.412   5.369
 4503TIP3    H213455   0.343   5.539   5.287
 4504TIP3   OH213456   0.439   2.865   5.458
 4504TIP3    H113457   0.447   2.899   5.369
 4504TIP3    H213458   0.486   2.928   5.513
 4505TIP3   OH213459   2.199   5.319   6.523
 4505TIP3    H113460   2.227   5.235   6.558
 4505TIP3    H213461   2.136   5.352   6.588
 4506TIP3   OH213462   2.902   7.231   4.760
 4506TIP3    H113463   2.857   7.302   4.807
 4506TIP3    H213464   2.993   7.259   4.756
 4507TIP3   OH213465   4.494   0.356   4.493
 4507TIP3    H113466   4.468   0.275   4.448
 4507TIP3    H213467   4.540   0.326   4.571
 4508TIP3   OH213468   3.317   3.902   0.239
 4508TIP3    H113469   3.240   3.951   0.270
 4508TIP3    H213470   3.382   3.915   0.308
 4509TIP3   OH213471   1.268   0.097   0.557
 4509TIP3    H113472   1.342   0.157   0.559
 4509TIP3    H213473   1.200   0.141   0.607
 4510TIP3   OH213474   1.367   7.760   4.005
 4510TIP3    H113475   1.441   7.792   3.954
 4510TIP3    H213476   1.362   7.667   3.984
 4511TIP3   OH213477   4.594   4.681   5.695
 4511TIP3    H113478   4.608   4.607   5.755
 4511TIP3    H213479   4.666   4.740   5.714
 4512TIP3   OH213480   3.918   5.768   6.111
 4512TIP3    H113481   3.835   5.815   6.109
 4512TIP3    H213482   3.973   5.816   6.049
 4513TIP3   OH213483   0.109   1.001   5.636
 4513TIP3    H113484   0.149   0.915   5.649
 4513TIP3    H213485   0.066   0.995   5.550
 4514TIP3   OH213486   6.982   6.695   4.807
 4514TIP3    H113487   7.069   6.730   4.785
 4514TIP3    H213488   6.934   6.771   4.840
 4515TIP3   OH213489   3.681   4.047   4.973
 4515TIP3    H113490   3.622   4.110   4.933
 4515TIP3    H213491   3.759   4.047   4.917
 4516TIP3   OH213492   8.097   3.567   6.315
 4516TIP3    H113493   8.146   3.537   6.391
 4516TIP3    H213494   8.164   3.603   6.256
 4517TIP3   OH213495   6.568   3.384   6.397
 4517TIP3    H113496   6.594   3.459   6.345
 4517TIP3    H213497   6.619   3.392   6.478
 4518TIP3   OH213498   1.702   5.604   0.431
 4518TIP3    H113499   1.760   5.596   0.506
 4518TIP3    H213500   1.749   5.562   0.359
 4519TIP3   OH213501   4.608   4.902   4.626
 4519TIP3    H113502   4.666   4.943   4.690
 4519TIP3    H213503   4.565   4.975   4.583
 4520TIP3   OH213504   6.682   3.347   3.380
 4520TIP3    H113505   6.743   3.332   3.308
 4520TIP3    H213506   6.617   3.277   3.372
 4521TIP3   OH213507   0.482   3.686   6.066
 4521TIP3    H113508   0.476   3.770   6.111
 4521TIP3    H213509   0.424   3.695   5.991
 4522TIP3   OH213510   2.530   4.298   2.923
 4522TIP3    H113511   2.495   4.245   2.995
 4522TIP3    H213512   2.518   4.389   2.952
 4523TIP3   OH213513   3.904   6.381   3.820
 4523TIP3    H113514   3.816   6.412   3.796
 4523TIP3    H213515   3.896   6.286   3.822
 4524TIP3   OH213516   4.869   6.081   1.786
 4524TIP3    H113517   4.779   6.055   1.766
 4524TIP3    H213518   4.899   6.016   1.849
 4525TIP3   OH213519   0.350   5.047   4.396
 4525TIP3    H113520   0.392   5.089   4.320
 4525TIP3    H213521   0.421   5.039   4.460
 4526TIP3   OH213522   5.652   0.956   3.973
 4526TIP3    H113523   5.634   1.018   3.902
 4526TIP3    H213524   5.644   1.008   4.053
 4527TIP3   OH213525   3.042   0.934   5.437
 4527TIP3    H113526   3.058   0.842   5.459
 4527TIP3    H213527   2.975   0.931   5.369
 4528TIP3   OH213528   1.373   4.684   5.639
 4528TIP3    H113529   1.466   4.696   5.623
 4528TIP3    H213530   1.331   4.758   5.595
 4529TIP3   OH213531   3.028   3.311   3.748
 4529TIP3    H113532   2.947   3.286   3.794
 4529TIP3    H213533   3.098   3.283   3.807
 4530TIP3   OH213534   6.831   1.898   5.169
 4530TIP3    H113535   6.796   1.846   5.096
 4530TIP3    H213536   6.860   1.833   5.233
 4531TIP3   OH213537   3.752   4.764   0.397
 4531TIP3    H113538   3.823   4.819   0.431
 4531TIP3    H213539   3.716   4.721   0.474
 4532TIP3   OH213540   3.518   1.967   1.186
 4532TIP3    H113541   3.493   2.058   1.201
 4532TIP3    H213542   3.475   1.919   1.257
 4533TIP3   OH213543   6.832   3.551   0.662
 4533TIP3    H113544   6.801   3.527   0.575
 4533TIP3    H213545   6.773   3.622   0.689
 4534TIP3   OH213546   5.694   3.133   2.702
 4534TIP3    H113547   5.690   3.228   2.698
 4534TIP3    H213548   5.670   3.103   2.615
 4535TIP3   OH213549   3.364   7.592   5.184
 4535TIP3    H113550   3.352   7.601   5.090
 4535TIP3    H213551   3.276   7.591   5.220
 4536TIP3   OH213552   3.251   2.388   4.894
 4536TIP3    H113553   3.333   2.367   4.940
 4536TIP3    H213554   3.187   2.328   4.933
 4537TIP3   OH213555   3.541   1.541   1.590
 4537TIP3    H113556   3.597   1.618   1.595
 4537TIP3    H213557   3.563   1.490   1.668
 4538TIP3   OH213558   7.796   6.590   2.076
 4538TIP3    H113559   7.731   6.520   2.080
 4538TIP3    H213560   7.792   6.632   2.162
 4539TIP3   OH213561   5.749   4.998   4.022
 4539TIP3    H113562   5.808   5.028   4.090
 4539TIP3    H213563   5.706   5.077   3.990
 4540TIP3   OH213564   2.765   4.429   4.728
 4540TIP3    H113565   2.786   4.336   4.741
 4540TIP3    H213566   2.849   4.469   4.707
 4541TIP3   OH213567   1.401   2.359   5.434
 4541TIP3    H113568   1.477   2.334   5.381
 4541TIP3    H213569   1.439   2.399   5.512
 4542TIP3   OH213570   6.155   3.828   5.548
 4542TIP3    H113571   6.182   3.812   5.639
 4542TIP3    H213572   6.207   3.765   5.497
 4543TIP3   OH213573   7.222   1.824   3.632
 4543TIP3    H113574   7.232   1.837   3.726
 4543TIP3    H213575   7.272   1.896   3.593
 4544TIP3   OH213576   8.107   6.635   0.590
 4544TIP3    H113577   8.181   6.641   0.650
 4544TIP3    H213578   8.135   6.573   0.523
 4545TIP3   OH213579   1.915   2.272   4.182
 4545TIP3    H113580   1.947   2.266   4.272
 4545TIP3    H213581   1.967   2.208   4.134
 4546TIP3   OH213582   7.251   1.561   5.494
 4546TIP3    H113583   7.254   1.652   5.463
 4546TIP3    H213584   7.186   1.519   5.438
 4547TIP3   OH213585   5.867   7.052   2.723
 4547TIP3    H113586   5.836   7.066   2.813
 4547TIP3    H213587   5.806   7.101   2.669
 4548TIP3   OH213588   0.980   3.512   6.300
 4548TIP3    H113589   0.970   3.596   6.346
 4548TIP3    H213590   1.019   3.454   6.365
 4549TIP3   OH213591   7.330   6.148   2.070
 4549TIP3    H113592   7.345   6.241   2.089
 4549TIP3    H213593   7.235   6.138   2.073
 4550TIP3   OH213594   1.169   2.028   3.598
 4550TIP3    H113595   1.177   2.086   3.522
 4550TIP3    H213596   1.130   2.082   3.666
 4551TIP3   OH213597   8.319   6.188   4.303
 4551TIP3    H113598   8.230   6.224   4.295
 4551TIP3    H213599   8.333   6.181   4.397
 4552TIP3   OH213600   3.975   2.081   5.391
 4552TIP3    H113601   4.018   2.127   5.319
 4552TIP3    H213602   4.039   2.016   5.419
 4553TIP3   OH213603   4.844   1.236   3.979
 4553TIP3    H113604   4.877   1.197   3.898
 4553TIP3    H213605   4.857   1.330   3.967
 4554TIP3   OH213606   5.094   4.351   6.404
 4554TIP3    H113607   5.159   4.401   6.453
 4554TIP3    H213608   5.084   4.399   6.321
 4555TIP3   OH213609   1.240   6.734   0.671
 4555TIP3    H113610   1.192   6.804   0.628
 4555TIP3    H213611   1.224   6.747   0.764
 4556TIP3   OH213612   0.590   6.195   2.170
 4556TIP3    H113613   0.558   6.285   2.167
 4556TIP3    H213614   0.575   6.167   2.260
 4557TIP3   OH213615   3.703   5.942   6.164
 4557TIP3    H113616   3.645   5.891   6.108
 4557TIP3    H213617   3.644   5.987   6.225
 4558TIP3   OH213618   2.260   3.486   3.601
 4558TIP3    H113619   2.190   3.463   3.663
 4558TIP3    H213620   2.220   3.551   3.543
 4559TIP3   OH213621   7.150   5.600   5.048
 4559TIP3    H113622   7.200   5.618   4.969
 4559TIP3    H213623   7.214   5.566   5.110
 4560TIP3   OH213624   5.600   2.165   2.995
 4560TIP3    H113625   5.514   2.178   2.956
 4560TIP3    H213626   5.655   2.134   2.923
 4561TIP3   OH213627   3.527   4.495   0.458
 4561TIP3    H113628   3.546   4.574   0.508
 4561TIP3    H213629   3.434   4.478   0.474
 4562TIP3   OH213630   1.967   3.376   1.305
 4562TIP3    H113631   1.942   3.396   1.395
 4562TIP3    H213632   2.014   3.454   1.276
 4563TIP3   OH213633   6.870   6.772   4.325
 4563TIP3    H113634   6.827   6.846   4.368
 4563TIP3    H213635   6.875   6.705   4.393
 4564TIP3   OH213636   4.980   3.026   2.768
 4564TIP3    H113637   5.016   2.962   2.707
 4564TIP3    H213638   4.925   2.975   2.827
 4565TIP3   OH213639   4.470   4.274   5.081
 4565TIP3    H113640   4.544   4.224   5.046
 4565TIP3    H213641   4.500   4.307   5.166
 4566TIP3   OH213642   0.977   6.284   2.664
 4566TIP3    H113643   1.021   6.261   2.746
 4566TIP3    H213644   0.899   6.228   2.662
 4567TIP3   OH213645   3.196   7.296   4.707
 4567TIP3    H113646   3.255   7.372   4.709
 4567TIP3    H213647   3.173   7.287   4.614
 4568TIP3   OH213648   1.858   4.299   2.006
 4568TIP3    H113649   1.933   4.252   2.044
 4568TIP3    H213650   1.804   4.231   1.967
 4569TIP3   OH213651   4.134   4.770   6.007
 4569TIP3    H113652   4.189   4.828   5.956
 4569TIP3    H213653   4.163   4.782   6.098
 4570TIP3   OH213654   7.162   4.742   6.647
 4570TIP3    H113655   7.168   4.837   6.658
 4570TIP3    H213656   7.195   4.726   6.558
 4571TIP3   OH213657   3.418   3.347   0.915
 4571TIP3    H113658   3.329   3.326   0.945
 4571TIP3    H213659   3.472   3.275   0.949
 4572TIP3   OH213660   3.059   4.548   0.344
 4572TIP3    H113661   3.022   4.637   0.344
 4572TIP3    H213662   3.084   4.533   0.253
 4573TIP3   OH213663   3.712   3.920   4.675
 4573TIP3    H113664   3.793   3.959   4.642
 4573TIP3    H213665   3.643   3.955   4.619
 4574TIP3   OH213666   5.577   4.291   2.656
 4574TIP3    H113667   5.512   4.361   2.656
 4574TIP3    H213668   5.527   4.211   2.638
 4575TIP3   OH213669   7.001   2.287   1.735
 4575TIP3    H113670   6.905   2.293   1.740
 4575TIP3    H213671   7.029   2.378   1.724
 4576TIP3   OH213672   3.297   4.885   4.482
 4576TIP3    H113673   3.313   4.918   4.571
 4576TIP3    H213674   3.344   4.802   4.478
 4577TIP3   OH213675   2.631   0.760   4.406
 4577TIP3    H113676   2.582   0.729   4.482
 4577TIP3    H213677   2.567   0.804   4.352
 4578TIP3   OH213678   8.020   7.575   0.811
 4578TIP3    H113679   7.954   7.524   0.858
 4578TIP3    H213680   7.981   7.662   0.803
 4579TIP3   OH213681   5.945   1.233   0.101
 4579TIP3    H113682   5.891   1.154   0.093
 4579TIP3    H213683   6.034   1.201   0.115
 4580TIP3   OH213684   3.703   3.513   5.693
 4580TIP3    H113685   3.666   3.545   5.611
 4580TIP3    H213686   3.731   3.423   5.674
 4581TIP3   OH213687   7.976   0.363   3.257
 4581TIP3    H113688   8.022   0.444   3.237
 4581TIP3    H213689   7.998   0.344   3.348
 4582TIP3   OH213690   7.944   1.941   1.689
 4582TIP3    H113691   7.922   1.850   1.706
 4582TIP3    H213692   8.040   1.942   1.682
 4583TIP3   OH213693   7.026   1.626   6.495
 4583TIP3    H113694   7.093   1.557   6.489
 4583TIP3    H213695   7.029   1.654   6.586
 4584TIP3   OH213696   0.815   0.996   0.950
 4584TIP3    H113697   0.872   0.997   0.873
 4584TIP3    H213698   0.857   0.934   1.010
 4585TIP3   OH213699   8.093   6.630   1.283
 4585TIP3    H113700   8.102   6.557   1.222
 4585TIP3    H213701   8.165   6.689   1.261
 4586TIP3   OH213702   5.863   0.075   6.147
 4586TIP3    H113703   5.792   0.104   6.090
 4586TIP3    H213704   5.919   0.021   6.090
 4587TIP3   OH213705   3.725   7.249   1.485
 4587TIP3    H113706   3.666   7.229   1.557
 4587TIP3    H213707   3.669   7.290   1.419
 4588TIP3   OH213708   0.932   3.952   5.705
 4588TIP3    H113709   0.929   4.019   5.636
 4588TIP3    H213710   1.009   3.975   5.757
 4589TIP3   OH213711   6.126   6.075   1.716
 4589TIP3    H113712   6.093   6.009   1.778
 4589TIP3    H213713   6.110   6.159   1.760
 4590TIP3   OH213714   5.749   3.735   1.083
 4590TIP3    H113715   5.694   3.784   1.145
 4590TIP3    H213716   5.809   3.801   1.048
 4591TIP3   OH213717   4.689   3.659   2.812
 4591TIP3    H113718   4.679   3.730   2.748
 4591TIP3    H213719   4.663   3.698   2.896
 4592TIP3   OH213720   0.613   4.436   1.501
 4592TIP3    H113721   0.610   4.440   1.405
 4592TIP3    H213722   0.565   4.356   1.523
 4593TIP3   OH213723   7.512   5.443   4.736
 4593TIP3    H113724   7.567   5.391   4.676
 4593TIP3    H213725   7.455   5.493   4.678
 4594TIP3   OH213726   3.064   3.353   2.280
 4594TIP3    H113727   3.061   3.363   2.375
 4594TIP3    H213728   2.985   3.305   2.258
 4595TIP3   OH213729   1.728   6.994   5.233
 4595TIP3    H113730   1.665   7.030   5.170
 4595TIP3    H213731   1.809   7.043   5.217
 4596TIP3   OH213732   2.132   4.385   1.065
 4596TIP3    H113733   2.159   4.477   1.067
 4596TIP3    H213734   2.208   4.338   1.031
 4597TIP3   OH213735   6.518   4.783   4.780
 4597TIP3    H113736   6.531   4.696   4.743
 4597TIP3    H213737   6.600   4.829   4.764
 4598TIP3   OH213738   4.559   1.074   0.848
 4598TIP3    H113739   4.528   0.985   0.830
 4598TIP3    H213740   4.644   1.061   0.891
 4599TIP3   OH213741   1.681   4.329   4.798
 4599TIP3    H113742   1.692   4.287   4.713
 4599TIP3    H213743   1.755   4.300   4.850
 4600TIP3   OH213744   0.813   2.151   0.795
 4600TIP3    H113745   0.810   2.178   0.703
 4600TIP3    H213746   0.741   2.089   0.804
 4601TIP3   OH213747   3.849   0.338   2.357
 4601TIP3    H113748   3.874   0.254   2.396
 4601TIP3    H213749   3.778   0.317   2.297
 4602TIP3   OH213750   5.715   0.432   2.558
 4602TIP3    H113751   5.725   0.497   2.488
 4602TIP3    H213752   5.788   0.371   2.544
 4603TIP3   OH213753   3.377   1.289   0.943
 4603TIP3    H113754   3.374   1.318   1.034
 4603TIP3    H213755   3.471   1.283   0.923
 4604TIP3   OH213756   7.678   1.897   1.285
 4604TIP3    H113757   7.583   1.903   1.275
 4604TIP3    H213758   7.691   1.832   1.354
 4605TIP3   OH213759   1.879   1.084   5.815
 4605TIP3    H113760   1.845   1.062   5.729
 4605TIP3    H213761   1.809   1.059   5.875
 4606TIP3   OH213762   3.339   0.832   6.700
 4606TIP3    H113763   3.295   0.858   6.781
 4606TIP3    H213764   3.346   0.736   6.707
 4607TIP3   OH213765   2.249   6.804   2.782
 4607TIP3    H113766   2.269   6.860   2.707
 4607TIP3    H213767   2.299   6.724   2.766
 4608TIP3   OH213768   6.393   3.001   0.834
 4608TIP3    H113769   6.454   3.072   0.855
 4608TIP3    H213770   6.405   2.937   0.904
 4609TIP3   OH213771   1.485   3.296   0.437
 4609TIP3    H113772   1.566   3.256   0.404
 4609TIP3    H213773   1.432   3.310   0.358
 4610TIP3   OH213774   3.656   3.037   1.620
 4610TIP3    H113775   3.747   3.065   1.611
 4610TIP3    H213776   3.616   3.063   1.537
 4611TIP3   OH213777   4.347   5.734   3.339
 4611TIP3    H113778   4.286   5.680   3.290
 4611TIP3    H213779   4.409   5.767   3.274
 4612TIP3   OH213780   1.653   0.731   3.447
 4612TIP3    H113781   1.721   0.666   3.428
 4612TIP3    H213782   1.594   0.728   3.372
 4613TIP3   OH213783   6.956   5.344   2.476
 4613TIP3    H113784   6.957   5.315   2.567
 4613TIP3    H213785   7.048   5.359   2.454
 4614TIP3   OH213786   1.497   5.139   1.766
 4614TIP3    H113787   1.435   5.192   1.716
 4614TIP3    H213788   1.483   5.165   1.857
 4615TIP3   OH213789   6.270   6.875   5.395
 4615TIP3    H113790   6.217   6.953   5.412
 4615TIP3    H213791   6.354   6.910   5.365
 4616TIP3   OH213792   3.783   3.861   0.706
 4616TIP3    H113793   3.764   3.943   0.752
 4616TIP3    H213794   3.778   3.793   0.773
 4617TIP3   OH213795   1.053   1.965   6.198
 4617TIP3    H113796   1.102   2.032   6.246
 4617TIP3    H213797   0.964   1.999   6.193
 4618TIP3   OH213798   4.836   3.477   0.443
 4618TIP3    H113799   4.745   3.474   0.471
 4618TIP3    H213800   4.842   3.558   0.391
 4619TIP3   OH213801   1.211   1.765   3.264
 4619TIP3    H113802   1.137   1.778   3.206
 4619TIP3    H213803   1.277   1.827   3.232
 4620TIP3   OH213804   4.816   3.696   0.297
 4620TIP3    H113805   4.839   3.705   0.204
 4620TIP3    H213806   4.721   3.700   0.299
 4621TIP3   OH213807   6.802   1.263   4.472
 4621TIP3    H113808   6.799   1.172   4.499
 4621TIP3    H213809   6.808   1.260   4.377
 4622TIP3   OH213810   0.266   6.459   1.609
 4622TIP3    H113811   0.345   6.473   1.558
 4622TIP3    H213812   0.197   6.448   1.544
 4623TIP3   OH213813   1.035   1.805   4.138
 4623TIP3    H113814   1.021   1.740   4.070
 4623TIP3    H213815   0.950   1.849   4.146
 4624TIP3   OH213816   3.839   0.850   6.464
 4624TIP3    H113817   3.776   0.882   6.399
 4624TIP3    H213818   3.920   0.895   6.442
 4625TIP3   OH213819   6.808   0.093   2.241
 4625TIP3    H113820   6.758   0.174   2.236
 4625TIP3    H213821   6.743   0.024   2.234
 4626TIP3   OH213822   2.281   4.865   2.604
 4626TIP3    H113823   2.207   4.907   2.560
 4626TIP3    H213824   2.242   4.793   2.653
 4627TIP3   OH213825   1.321   7.006   4.652
 4627TIP3    H113826   1.390   6.944   4.631
 4627TIP3    H213827   1.240   6.961   4.629
 4628TIP3   OH213828   3.139   0.211   6.362
 4628TIP3    H113829   3.202   0.234   6.294
 4628TIP3    H213830   3.110   0.295   6.398
 4629TIP3   OH213831   0.148   0.774   6.679
 4629TIP3    H113832   0.191   0.695   6.646
 4629TIP3    H213833   0.056   0.763   6.654
 4630TIP3   OH213834   8.169   6.789   5.546
 4630TIP3    H113835   8.118   6.837   5.611
 4630TIP3    H213836   8.146   6.829   5.463
 4631TIP3   OH213837   2.357   6.518   5.822
 4631TIP3    H113838   2.323   6.496   5.736
 4631TIP3    H213839   2.296   6.584   5.856
 4632TIP3   OH213840   4.067   4.034   3.859
 4632TIP3    H113841   4.048   3.940   3.851
 4632TIP3    H213842   4.056   4.053   3.952
 4633TIP3   OH213843   0.374   3.575   1.117
 4633TIP3    H113844   0.290   3.611   1.088
 4633TIP3    H213845   0.369   3.482   1.095
 4634TIP3   OH213846   2.439   4.158   4.667
 4634TIP3    H113847   2.432   4.132   4.760
 4634TIP3    H213848   2.502   4.097   4.630
 4635TIP3   OH213849   3.607   3.828   5.484
 4635TIP3    H113850   3.622   3.863   5.395
 4635TIP3    H213851   3.650   3.892   5.541
 4636TIP3   OH213852   1.726   0.271   2.588
 4636TIP3    H113853   1.712   0.176   2.589
 4636TIP3    H213854   1.774   0.288   2.508
 4637TIP3   OH213855   0.213   2.085   2.131
 4637TIP3    H113856   0.207   2.165   2.078
 4637TIP3    H213857   0.264   2.025   2.077
 4638TIP3   OH213858   8.035   4.540   4.480
 4638TIP3    H113859   8.099   4.596   4.524
 4638TIP3    H213860   7.951   4.566   4.517
 4639TIP3   OH213861   0.980   4.544   1.671
 4639TIP3    H113862   0.934   4.463   1.649
 4639TIP3    H213863   0.924   4.585   1.737
 4640TIP3   OH213864   1.391   6.189   5.940
 4640TIP3    H113865   1.482   6.179   5.971
 4640TIP3    H213866   1.371   6.107   5.897
 4641TIP3   OH213867   0.053   1.990   6.058
 4641TIP3    H113868   0.106   1.912   6.042
 4641TIP3    H213869  -0.031   1.957   6.090
 4642TIP3   OH213870   7.839   5.877   3.170
 4642TIP3    H113871   7.761   5.930   3.186
 4642TIP3    H213872   7.912   5.938   3.179
 4643TIP3   OH213873   1.219   4.255   0.721
 4643TIP3    H113874   1.143   4.287   0.770
 4643TIP3    H213875   1.184   4.236   0.633
 4644TIP3   OH213876   1.661   1.337   5.988
 4644TIP3    H113877   1.665   1.241   5.981
 4644TIP3    H213878   1.613   1.353   6.069
 4645TIP3   OH213879   4.578   6.692   1.808
 4645TIP3    H113880   4.606   6.612   1.852
 4645TIP3    H213881   4.499   6.667   1.760
 4646TIP3   OH213882   6.708   6.671   6.497
 4646TIP3    H113883   6.756   6.754   6.488
 4646TIP3    H213884   6.696   6.641   6.408
 4647TIP3   OH213885   4.640   0.969   1.532
 4647TIP3    H113886   4.667   0.990   1.442
 4647TIP3    H213887   4.619   0.876   1.528
 4648TIP3   OH213888   8.198   5.125   6.328
 4648TIP3    H113889   8.257   5.180   6.379
 4648TIP3    H213890   8.137   5.089   6.392
 4649TIP3   OH213891   6.106   0.020   1.188
 4649TIP3    H113892   6.096   0.084   1.117
 4649TIP3    H213893   6.192  -0.019   1.173
 4650TIP3   OH213894   0.002   5.481   1.064
 4650TIP3    H113895   0.031   5.432   0.987
 4650TIP3    H213896   0.081   5.491   1.117
 4651TIP3   OH213897   1.834   1.343   1.075
 4651TIP3    H113898   1.911   1.309   1.030
 4651TIP3    H213899   1.841   1.309   1.164
 4652TIP3   OH213900   0.868   7.320   2.540
 4652TIP3    H113901   0.939   7.368   2.497
 4652TIP3    H213902   0.879   7.230   2.509
 4653TIP3   OH213903   4.972   5.200   6.493
 4653TIP3    H113904   4.963   5.233   6.404
 4653TIP3    H213905   4.981   5.279   6.547
 4654TIP3   OH213906   7.070   2.059   1.851
 4654TIP3    H113907   7.040   2.127   1.790
 4654TIP3    H213908   7.049   1.977   1.808
 4655TIP3   OH213909   3.716   0.914   6.221
 4655TIP3    H113910   3.675   0.945   6.140
 4655TIP3    H213911   3.797   0.872   6.193
 4656TIP3   OH213912   1.550   2.436   3.928
 4656TIP3    H113913   1.618   2.457   3.865
 4656TIP3    H213914   1.469   2.466   3.887
 4657TIP3   OH213915   4.389   2.965   4.688
 4657TIP3    H113916   4.330   2.891   4.695
 4657TIP3    H213917   4.403   2.993   4.778
 4658TIP3   OH213918   5.201   6.632   6.096
 4658TIP3    H113919   5.194   6.537   6.103
 4658TIP3    H213920   5.231   6.660   6.182
 4659TIP3   OH213921   4.941   5.239   3.820
 4659TIP3    H113922   4.889   5.187   3.758
 4659TIP3    H213923   5.028   5.245   3.779
 4660TIP3   OH213924   6.495   4.661   5.289
 4660TIP3    H113925   6.431   4.724   5.321
 4660TIP3    H213926   6.538   4.704   5.216
 4661TIP3   OH213927   6.178   0.304   4.712
 4661TIP3    H113928   6.159   0.212   4.734
 4661TIP3    H213929   6.137   0.317   4.626
 4662TIP3   OH213930   4.400   6.461   2.439
 4662TIP3    H113931   4.365   6.478   2.352
 4662TIP3    H213932   4.455   6.537   2.459
 4663TIP3   OH213933   2.774   3.748   1.082
 4663TIP3    H113934   2.854   3.712   1.044
 4663TIP3    H213935   2.778   3.725   1.175
 4664TIP3   OH213936   0.407   2.082   4.660
 4664TIP3    H113937   0.352   2.043   4.591
 4664TIP3    H213938   0.346   2.107   4.728
 4665TIP3   OH213939   6.141   5.504   3.970
 4665TIP3    H113940   6.171   5.456   4.048
 4665TIP3    H213941   6.187   5.462   3.897
 4666TIP3   OH213942   4.162   5.575   5.410
 4666TIP3    H113943   4.187   5.492   5.450
 4666TIP3    H213944   4.075   5.559   5.374
 4667TIP3   OH213945   2.322   3.156   1.094
 4667TIP3    H113946   2.305   3.242   1.055
 4667TIP3    H213947   2.327   3.096   1.020
 4668TIP3   OH213948   0.089   0.257   2.834
 4668TIP3    H113949   0.011   0.304   2.805
 4668TIP3    H213950   0.058   0.199   2.904
 4669TIP3   OH213951   7.796   4.599   4.565
 4669TIP3    H113952   7.830   4.685   4.592
 4669TIP3    H213953   7.701   4.606   4.578
 4670TIP3   OH213954   3.545   2.237   1.672
 4670TIP3    H113955   3.610   2.282   1.725
 4670TIP3    H213956   3.509   2.170   1.730
 4671TIP3   OH213957   6.984   3.438   5.632
 4671TIP3    H113958   7.076   3.451   5.609
 4671TIP3    H213959   6.985   3.424   5.727
 4672TIP3   OH213960   6.584   2.736   4.961
 4672TIP3    H113961   6.491   2.757   4.955
 4672TIP3    H213962   6.628   2.822   4.961
 4673TIP3   OH213963   2.084   5.595   1.029
 4673TIP3    H113964   2.039   5.525   1.076
 4673TIP3    H213965   2.112   5.656   1.097
 4674TIP3   OH213966   3.876   7.703   1.557
 4674TIP3    H113967   3.808   7.646   1.593
 4674TIP3    H213968   3.867   7.784   1.607
 4675TIP3   OH213969   2.402   5.698   1.790
 4675TIP3    H113970   2.313   5.713   1.824
 4675TIP3    H213971   2.446   5.648   1.858
 4676TIP3   OH213972   2.078   0.444   3.249
 4676TIP3    H113973   1.984   0.455   3.235
 4676TIP3    H213974   2.098   0.502   3.323
 4677TIP3   OH213975   5.466   3.465   2.870
 4677TIP3    H113976   5.376   3.478   2.840
 4677TIP3    H213977   5.519   3.472   2.791
 4678TIP3   OH213978   7.942   1.764   4.703
 4678TIP3    H113979   7.899   1.731   4.782
 4678TIP3    H213980   7.966   1.686   4.654
 4679TIP3   OH213981   3.479   2.760   3.419
 4679TIP3    H113982   3.391   2.766   3.383
 4679TIP3    H213983   3.531   2.721   3.349
 4680TIP3   OH213984   6.679   0.519   5.605
 4680TIP3    H113985   6.691   0.508   5.511
 4680TIP3    H213986   6.714   0.606   5.624
 4681TIP3   OH213987   3.116   6.511   2.628
 4681TIP3    H113988   3.148   6.588   2.675
 4681TIP3    H213989   3.173   6.440   2.655
 4682TIP3   OH213990   2.535   3.830   2.851
 4682TIP3    H113991   2.452   3.871   2.876
 4682TIP3    H213992   2.561   3.876   2.771
 4683TIP3   OH213993   6.036   7.646   4.502
 4683TIP3    H113994   6.093   7.675   4.431
 4683TIP3    H213995   5.996   7.727   4.535
 4684TIP3   OH213996   1.586   0.452   5.407
 4684TIP3    H113997   1.573   0.427   5.499
 4684TIP3    H213998   1.498   0.454   5.370
 4685TIP3   OH213999   7.978   2.110   6.776
 4685TIP3    H114000   7.900   2.163   6.759
 4685TIP3    H214001   7.981   2.048   6.703
 4686TIP3   OH214002   4.516   0.866   4.932
 4686TIP3    H114003   4.511   0.771   4.935
 4686TIP3    H214004   4.493   0.894   5.021
 4687TIP3   OH214005   7.578   5.306   5.198
 4687TIP3    H114006   7.515   5.281   5.265
 4687TIP3    H214007   7.524   5.329   5.122
 4688TIP3   OH214008   5.463   5.577   0.167
 4688TIP3    H114009   5.460   5.491   0.209
 4688TIP3    H214010   5.380   5.618   0.189
 4689TIP3   OH214011   1.814   2.484   1.250
 4689TIP3    H114012   1.864   2.510   1.173
 4689TIP3    H214013   1.749   2.554   1.260
 4690TIP3   OH214014   3.953   6.617   4.576
 4690TIP3    H114015   3.997   6.578   4.652
 4690TIP3    H214016   3.861   6.595   4.589
 4691TIP3   OH214017   3.140   1.648   3.207
 4691TIP3    H114018   3.230   1.679   3.215
 4691TIP3    H214019   3.101   1.706   3.142
 4692TIP3   OH214020   2.968   6.125   5.428
 4692TIP3    H114021   3.056   6.152   5.455
 4692TIP3    H214022   2.958   6.037   5.465
 4693TIP3   OH214023   1.968   0.039   5.562
 4693TIP3    H114024   2.000  -0.023   5.498
 4693TIP3    H214025   1.997   0.125   5.530
 4694TIP3   OH214026   6.741   4.318   0.964
 4694TIP3    H114027   6.700   4.319   0.877
 4694TIP3    H214028   6.823   4.365   0.953
 4695TIP3   OH214029   3.519   2.220   2.636
 4695TIP3    H114030   3.529   2.125   2.628
 4695TIP3    H214031   3.515   2.237   2.730
 4696TIP3   OH214032   7.742   2.723   3.756
 4696TIP3    H114033   7.755   2.796   3.695
 4696TIP3    H214034   7.687   2.661   3.709
 4697TIP3   OH214035   6.015   3.948   2.023
 4697TIP3    H114036   6.023   3.859   2.058
 4697TIP3    H214037   5.999   3.935   1.929
 4698TIP3   OH214038   2.362   3.057   2.390
 4698TIP3    H114039   2.360   3.143   2.433
 4698TIP3    H214040   2.304   3.067   2.314
 4699TIP3   OH214041   6.265   7.703   3.981
 4699TIP3    H114042   6.207   7.779   3.977
 4699TIP3    H214043   6.345   7.731   3.936
 4700TIP3   OH214044   7.204   7.333   5.616
 4700TIP3    H114045   7.130   7.327   5.557
 4700TIP3    H214046   7.225   7.427   5.620
 4701TIP3   OH214047   4.237   4.103   6.118
 4701TIP3    H114048   4.153   4.123   6.160
 4701TIP3    H214049   4.260   4.016   6.151
 4702TIP3   OH214050   0.327   5.840   1.462
 4702TIP3    H114051   0.400   5.867   1.517
 4702TIP3    H214052   0.338   5.890   1.381
 4703TIP3   OH214053   2.371   3.254   3.535
 4703TIP3    H114054   2.300   3.196   3.562
 4703TIP3    H214055   2.332   3.342   3.534
 4704TIP3   OH214056   5.335   3.471   3.256
 4704TIP3    H114057   5.253   3.448   3.300
 4704TIP3    H214058   5.307   3.514   3.175
 4705TIP3   OH214059   2.773   1.644   5.695
 4705TIP3    H114060   2.851   1.679   5.738
 4705TIP3    H214061   2.787   1.662   5.602
 4706TIP3   OH214062   4.152   0.171   6.269
 4706TIP3    H114063   4.194   0.085   6.266
 4706TIP3    H214064   4.210   0.228   6.219
 4707TIP3   OH214065   2.788   1.082   2.866
 4707TIP3    H114066   2.859   1.056   2.924
 4707TIP3    H214067   2.779   1.009   2.805
 4708TIP3   OH214068   7.599   4.560   3.827
 4708TIP3    H114069   7.641   4.475   3.843
 4708TIP3    H214070   7.551   4.578   3.907
 4709TIP3   OH214071   0.057   1.503   0.604
 4709TIP3    H114072  -0.032   1.491   0.637
 4709TIP3    H214073   0.077   1.421   0.559
 4710TIP3   OH214074   5.539   5.557   5.894
 4710TIP3    H114075   5.629   5.574   5.921
 4710TIP3    H214076   5.503   5.502   5.964
 4711TIP3   OH214077   4.045   2.289   1.888
 4711TIP3    H114078   4.024   2.382   1.874
 4711TIP3    H214079   4.103   2.289   1.964
 4712TIP3   OH214080   3.051   6.613   2.367
 4712TIP3    H114081   3.006   6.662   2.298
 4712TIP3    H214082   3.128   6.666   2.386
 4713TIP3   OH214083   6.276   5.829   1.381
 4713TIP3    H114084   6.258   5.774   1.457
 4713TIP3    H214085   6.229   5.787   1.309
 4714TIP3   OH214086   0.013   1.688   4.264
 4714TIP3    H114087   0.104   1.706   4.239
 4714TIP3    H214088  -0.035   1.694   4.182
 4715TIP3   OH214089   7.891   7.638   5.201
 4715TIP3    H114090   7.897   7.575   5.273
 4715TIP3    H214091   7.821   7.698   5.226
 4716TIP3   OH214092   4.077   3.246   1.698
 4716TIP3    H114093   4.108   3.332   1.726
 4716TIP3    H214094   4.035   3.209   1.775
 4717TIP3   OH214095   3.061   5.818   4.690
 4717TIP3    H114096   2.974   5.844   4.722
 4717TIP3    H214097   3.052   5.815   4.595
 4718TIP3   OH214098   0.882   3.187   5.110
 4718TIP3    H114099   0.917   3.266   5.151
 4718TIP3    H214100   0.931   3.179   5.028
 4719TIP3   OH214101   0.175   2.131   4.841
 4719TIP3    H114102   0.189   2.125   4.936
 4719TIP3    H214103   0.108   2.199   4.831
 4720TIP3   OH214104   5.933   3.570   2.978
 4720TIP3    H114105   6.028   3.574   2.969
 4720TIP3    H214106   5.915   3.607   3.064
 4721TIP3   OH214107   1.777   7.163   3.423
 4721TIP3    H114108   1.779   7.248   3.379
 4721TIP3    H214109   1.841   7.110   3.375
 4722TIP3   OH214110   5.107   7.620   1.113
 4722TIP3    H114111   5.155   7.643   1.034
 4722TIP3    H214112   5.016   7.613   1.085
 4723TIP3   OH214113   2.607   3.398   1.180
 4723TIP3    H114114   2.592   3.343   1.104
 4723TIP3    H214115   2.697   3.427   1.172
 4724TIP3   OH214116   1.994   4.754   4.808
 4724TIP3    H114117   2.052   4.824   4.777
 4724TIP3    H214118   1.941   4.731   4.731
 4725TIP3   OH214119   0.027   4.374   4.365
 4725TIP3    H114120   0.075   4.319   4.427
 4725TIP3    H214121   0.094   4.427   4.323
 4726TIP3   OH214122   3.422   0.300   2.905
 4726TIP3    H114123   3.516   0.281   2.900
 4726TIP3    H214124   3.390   0.288   2.815
 4727TIP3   OH214125   6.765   1.357   1.597
 4727TIP3    H114126   6.836   1.295   1.615
 4727TIP3    H214127   6.771   1.373   1.503
 4728TIP3   OH214128   1.878   0.094   5.201
 4728TIP3    H114129   1.851   0.186   5.210
 4728TIP3    H214130   1.818   0.046   5.258
 4729TIP3   OH214131   0.200   6.723   1.157
 4729TIP3    H114132   0.177   6.678   1.238
 4729TIP3    H214133   0.236   6.655   1.100
 4730TIP3   OH214134   1.711   1.522   5.198
 4730TIP3    H114135   1.774   1.464   5.240
 4730TIP3    H214136   1.648   1.544   5.266
 4731TIP3   OH214137   1.117   3.073   1.022
 4731TIP3    H114138   1.032   3.082   0.981
 4731TIP3    H214139   1.098   3.048   1.113
 4732TIP3   OH214140   4.163   0.231   1.835
 4732TIP3    H114141   4.129   0.277   1.757
 4732TIP3    H214142   4.209   0.298   1.884
 4733TIP3   OH214143   1.287   4.832   1.015
 4733TIP3    H114144   1.365   4.791   1.051
 4733TIP3    H214145   1.304   4.837   0.921
 4734TIP3   OH214146   3.222   7.035   4.840
 4734TIP3    H114147   3.295   7.025   4.780
 4734TIP3    H214148   3.175   7.112   4.808
 4735TIP3   OH214149   4.427   5.773   1.545
 4735TIP3    H114150   4.515   5.760   1.579
 4735TIP3    H214151   4.394   5.685   1.527
 4736TIP3   OH214152   4.935   5.886   1.976
 4736TIP3    H114153   4.903   5.886   2.066
 4736TIP3    H214154   5.026   5.855   1.983
 4737TIP3   OH214155   2.057   0.672   6.627
 4737TIP3    H114156   2.026   0.710   6.709
 4737TIP3    H214157   1.981   0.677   6.568
 4738TIP3   OH214158   0.477   4.287   0.164
 4738TIP3    H114159   0.560   4.284   0.116
 4738TIP3    H214160   0.492   4.351   0.233
 4739TIP3   OH214161   3.565   7.315   2.016
 4739TIP3    H114162   3.556   7.375   1.942
 4739TIP3    H214163   3.656   7.287   2.014
 4740TIP3   OH214164   0.283   5.496   2.479
 4740TIP3    H114165   0.329   5.470   2.559
 4740TIP3    H214166   0.210   5.435   2.472
 4741TIP3   OH214167   7.263   3.835   4.776
 4741TIP3    H114168   7.275   3.862   4.685
 4741TIP3    H214169   7.168   3.831   4.787
 4742TIP3   OH214170   3.921   3.910   0.473
 4742TIP3    H114171   3.863   3.867   0.411
 4742TIP3    H214172   3.873   3.907   0.556
 4743TIP3   OH214173   6.334   2.803   2.878
 4743TIP3    H114174   6.398   2.815   2.809
 4743TIP3    H214175   6.356   2.869   2.944
 4744TIP3   OH214176   0.322   5.949   3.680
 4744TIP3    H114177   0.371   6.030   3.694
 4744TIP3    H214178   0.380   5.880   3.713
 4745TIP3   OH214179   0.650   6.733   3.012
 4745TIP3    H114180   0.657   6.661   3.074
 4745TIP3    H214181   0.658   6.692   2.926
 4746TIP3   OH214182   0.570   2.502   3.245
 4746TIP3    H114183   0.603   2.432   3.301
 4746TIP3    H214184   0.598   2.477   3.156
 4747TIP3   OH214185   0.791   6.053   1.773
 4747TIP3    H114186   0.819   5.976   1.724
 4747TIP3    H214187   0.780   6.022   1.863
 4748TIP3   OH214188   5.366   7.771   6.637
 4748TIP3    H114189   5.281   7.748   6.676
 4748TIP3    H214190   5.343   7.819   6.557
 4749TIP3   OH214191   2.621   4.314   0.638
 4749TIP3    H114192   2.627   4.310   0.542
 4749TIP3    H214193   2.643   4.225   0.666
 4750TIP3   OH214194   1.582   1.611   5.421
 4750TIP3    H114195   1.612   1.643   5.506
 4750TIP3    H214196   1.521   1.679   5.390
 4751TIP3   OH214197   3.779   7.756   4.154
 4751TIP3    H114198   3.813   7.728   4.239
 4751TIP3    H214199   3.815   7.692   4.092
 4752TIP3   OH214200   1.224   5.376   3.302
 4752TIP3    H114201   1.312   5.392   3.269
 4752TIP3    H214202   1.211   5.443   3.369
 4753TIP3   OH214203   3.844   7.192   0.370
 4753TIP3    H114204   3.841   7.170   0.276
 4753TIP3    H214205   3.758   7.167   0.403
 4754TIP3   OH214206   2.475   2.089   6.534
 4754TIP3    H114207   2.394   2.100   6.584
 4754TIP3    H214208   2.527   2.027   6.586
 4755TIP3   OH214209   2.984   2.233   4.871
 4755TIP3    H114210   2.943   2.167   4.928
 4755TIP3    H214211   3.007   2.185   4.791
 4756TIP3   OH214212   5.649   5.946   5.020
 4756TIP3    H114213   5.678   5.879   4.958
 4756TIP3    H214214   5.557   5.961   4.997
 4757TIP3   OH214215   2.444   1.997   5.866
 4757TIP3    H114216   2.474   1.923   5.811
 4757TIP3    H214217   2.378   2.041   5.812
 4758TIP3   OH214218   3.503   7.297   3.550
 4758TIP3    H114219   3.578   7.355   3.534
 4758TIP3    H214220   3.431   7.337   3.500
 4759TIP3   OH214221   0.728   3.314   2.223
 4759TIP3    H114222   0.781   3.324   2.144
 4759TIP3    H214223   0.734   3.398   2.267
 4760TIP3   OH214224   6.264   4.883   4.700
 4760TIP3    H114225   6.346   4.848   4.734
 4760TIP3    H214226   6.286   4.973   4.674
 4761TIP3   OH214227   3.548   6.684   5.109
 4761TIP3    H114228   3.614   6.702   5.176
 4761TIP3    H214229   3.551   6.761   5.051
 4762TIP3   OH214230   6.107   5.018   0.248
 4762TIP3    H114231   6.075   4.939   0.292
 4762TIP3    H214232   6.190   4.991   0.209
 4763TIP3   OH214233   3.940   1.024   0.121
 4763TIP3    H114234   3.956   1.030   0.215
 4763TIP3    H214235   4.018   0.980   0.087
 4764TIP3   OH214236   5.635   4.144   4.105
 4764TIP3    H114237   5.615   4.117   4.015
 4764TIP3    H214238   5.568   4.210   4.126
 4765TIP3   OH214239   6.231   5.882   5.574
 4765TIP3    H114240   6.145   5.923   5.563
 4765TIP3    H214241   6.235   5.816   5.505
 4766TIP3   OH214242   0.759   4.464   2.114
 4766TIP3    H114243   0.745   4.557   2.097
 4766TIP3    H214244   0.678   4.434   2.153
 4767TIP3   OH214245   7.929   2.860   6.290
 4767TIP3    H114246   8.018   2.875   6.259
 4767TIP3    H214247   7.875   2.919   6.239
 4768TIP3   OH214248   7.832   0.891   6.070
 4768TIP3    H114249   7.754   0.841   6.046
 4768TIP3    H214250   7.902   0.826   6.072
 4769TIP3   OH214251   0.510   7.631   4.487
 4769TIP3    H114252   0.589   7.608   4.438
 4769TIP3    H214253   0.538   7.630   4.579
 4770TIP3   OH214254   2.010   2.420   3.261
 4770TIP3    H114255   2.041   2.472   3.187
 4770TIP3    H214256   2.068   2.345   3.264
 4771TIP3   OH214257   4.200   7.218   0.366
 4771TIP3    H114258   4.266   7.170   0.316
 4771TIP3    H214259   4.194   7.171   0.449
 4772TIP3   OH214260   3.457   7.141   1.723
 4772TIP3    H114261   3.400   7.116   1.650
 4772TIP3    H214262   3.458   7.237   1.721
 4773TIP3   OH214263   3.834   4.404   5.333
 4773TIP3    H114264   3.910   4.437   5.382
 4773TIP3    H214265   3.852   4.311   5.320
 4774TIP3   OH214266   7.070   2.455   6.144
 4774TIP3    H114267   7.027   2.508   6.211
 4774TIP3    H214268   7.139   2.511   6.110
 4775TIP3   OH214269   3.050   6.306   3.093
 4775TIP3    H114270   2.978   6.369   3.096
 4775TIP3    H214271   3.115   6.342   3.152
 4776TIP3   OH214272   2.758   6.498   5.594
 4776TIP3    H114273   2.806   6.507   5.511
 4776TIP3    H214274   2.719   6.411   5.590
 4777TIP3   OH214275   3.679   5.560   2.517
 4777TIP3    H114276   3.682   5.482   2.462
 4777TIP3    H214277   3.668   5.527   2.606
 4778TIP3   OH214278   5.267   7.317   5.926
 4778TIP3    H114279   5.336   7.287   5.868
 4778TIP3    H214280   5.199   7.249   5.921
 4779TIP3   OH214281   1.187   5.660   1.604
 4779TIP3    H114282   1.239   5.682   1.682
 4779TIP3    H214283   1.158   5.570   1.620
 4780TIP3   OH214284   1.556   0.100   6.685
 4780TIP3    H114285   1.557   0.046   6.606
 4780TIP3    H214286   1.640   0.146   6.684
 4781TIP3   OH214287   2.449   6.554   4.364
 4781TIP3    H114288   2.533   6.529   4.325
 4781TIP3    H214289   2.472   6.586   4.451
 4782TIP3   OH214290   3.178   7.480   1.222
 4782TIP3    H114291   3.136   7.408   1.268
 4782TIP3    H214292   3.114   7.551   1.223
 4783TIP3   OH214293   0.647   2.170   4.195
 4783TIP3    H114294   0.604   2.087   4.214
 4783TIP3    H214295   0.686   2.196   4.279
 4784TIP3   OH214296   1.340   3.517   0.998
 4784TIP3    H114297   1.429   3.503   1.031
 4784TIP3    H214298   1.294   3.561   1.069
 4785TIP3   OH214299   0.353   3.396   3.907
 4785TIP3    H114300   0.363   3.433   3.995
 4785TIP3    H214301   0.272   3.345   3.913
 4786TIP3   OH214302   7.139   0.907   6.739
 4786TIP3    H114303   7.230   0.935   6.733
 4786TIP3    H214304   7.116   0.916   6.831
 4787TIP3   OH214305   2.578   1.330   2.208
 4787TIP3    H114306   2.625   1.390   2.151
 4787TIP3    H214307   2.528   1.387   2.267
 4788TIP3   OH214308   0.510   5.297   6.105
 4788TIP3    H114309   0.550   5.383   6.119
 4788TIP3    H214310   0.457   5.281   6.182
 4789TIP3   OH214311   6.251   3.526   1.640
 4789TIP3    H114312   6.197   3.603   1.621
 4789TIP3    H214313   6.336   3.547   1.602
 4790TIP3   OH214314   6.523   6.361   3.537
 4790TIP3    H114315   6.526   6.436   3.595
 4790TIP3    H214316   6.481   6.393   3.457
 4791TIP3   OH214317   5.204   2.303   6.616
 4791TIP3    H114318   5.284   2.317   6.564
 4791TIP3    H214319   5.146   2.375   6.589
 4792TIP3   OH214320   3.293   2.824   4.804
 4792TIP3    H114321   3.374   2.875   4.811
 4792TIP3    H214322   3.291   2.792   4.714
 4793TIP3   OH214323   4.379   4.918   2.399
 4793TIP3    H114324   4.473   4.911   2.414
 4793TIP3    H214325   4.354   4.833   2.363
 4794TIP3   OH214326   2.002   3.882   6.357
 4794TIP3    H114327   1.980   3.861   6.267
 4794TIP3    H214328   2.093   3.853   6.367
 4795TIP3   OH214329   6.181   0.224   1.445
 4795TIP3    H114330   6.113   0.178   1.396
 4795TIP3    H214331   6.137   0.304   1.476
 4796TIP3   OH214332   3.055   5.105   5.617
 4796TIP3    H114333   2.983   5.043   5.626
 4796TIP3    H214334   3.030   5.179   5.672
 4797TIP3   OH214335   7.191   6.758   2.097
 4797TIP3    H114336   7.139   6.833   2.127
 4797TIP3    H214337   7.184   6.760   2.001
 4798TIP3   OH214338   3.165   1.779   5.067
 4798TIP3    H114339   3.221   1.787   5.144
 4798TIP3    H214340   3.218   1.813   4.995
 4799TIP3   OH214341   4.227   6.002   0.723
 4799TIP3    H114342   4.316   5.987   0.693
 4799TIP3    H214343   4.230   5.984   0.817
 4800TIP3   OH214344   0.932   7.439   0.663
 4800TIP3    H114345   0.987   7.433   0.584
 4800TIP3    H214346   0.994   7.441   0.735
 4801TIP3   OH214347   4.240   6.602   0.314
 4801TIP3    H114348   4.316   6.599   0.256
 4801TIP3    H214349   4.203   6.515   0.310
 4802TIP3   OH214350   0.419   0.326   6.014
 4802TIP3    H114351   0.376   0.401   5.972
 4802TIP3    H214352   0.395   0.251   5.959
 4803TIP3   OH214353   1.557   5.387   0.279
 4803TIP3    H114354   1.462   5.382   0.285
 4803TIP3    H214355   1.586   5.416   0.365
 4804TIP3   OH214356   5.572   5.965   5.294
 4804TIP3    H114357   5.566   5.968   5.198
 4804TIP3    H214358   5.606   6.051   5.319
 4805TIP3   OH214359   5.356   5.953   5.093
 4805TIP3    H114360   5.274   5.928   5.137
 4805TIP3    H214361   5.363   6.047   5.106
 4806TIP3   OH214362   0.087   2.760   3.436
 4806TIP3    H114363   0.091   2.718   3.522
 4806TIP3    H214364   0.176   2.792   3.421
 4807TIP3   OH214365   6.113   3.700   0.014
 4807TIP3    H114366   6.096   3.664   0.101
 4807TIP3    H214367   6.027   3.716  -0.023
 4808TIP3   OH214368   5.919   4.516   3.969
 4808TIP3    H114369   5.935   4.574   4.044
 4808TIP3    H214370   5.992   4.533   3.910
 4809TIP3   OH214371   4.834   5.893   5.555
 4809TIP3    H114372   4.771   5.940   5.501
 4809TIP3    H214373   4.814   5.801   5.541
 4810TIP3   OH214374   0.435   5.737   0.257
 4810TIP3    H114375   0.431   5.773   0.346
 4810TIP3    H214376   0.485   5.802   0.207
 4811TIP3   OH214377   4.509   2.097   1.500
 4811TIP3    H114378   4.524   2.084   1.406
 4811TIP3    H214379   4.588   2.140   1.532
 4812TIP3   OH214380   5.180   7.586   5.059
 4812TIP3    H114381   5.122   7.652   5.021
 4812TIP3    H214382   5.123   7.511   5.077
 4813TIP3   OH214383   7.986   5.968   0.143
 4813TIP3    H114384   7.998   6.013   0.227
 4813TIP3    H214385   7.908   6.008   0.106
 4814TIP3   OH214386   0.852   3.302   3.776
 4814TIP3    H114387   0.884   3.241   3.841
 4814TIP3    H214388   0.765   3.268   3.752
 4815TIP3   OH214389   6.072   7.244   5.663
 4815TIP3    H114390   6.005   7.311   5.680
 4815TIP3    H214391   6.106   7.222   5.750
 4816TIP3   OH214392   7.703   7.551   0.463
 4816TIP3    H114393   7.623   7.581   0.421
 4816TIP3    H214394   7.726   7.621   0.524
 4817TIP3   OH214395   2.333   1.631   3.813
 4817TIP3    H114396   2.292   1.560   3.862
 4817TIP3    H214397   2.260   1.688   3.788
 4818TIP3   OH214398   3.449   7.055   6.017
 4818TIP3    H114399   3.478   6.964   6.027
 4818TIP3    H214400   3.528   7.103   5.994
 4819TIP3   OH214401   7.209  -0.008   0.992
 4819TIP3    H114402   7.129  -0.046   0.956
 4819TIP3    H214403   7.223   0.071   0.939
 4820TIP3   OH214404   6.876   4.412   4.049
 4820TIP3    H114405   6.845   4.413   4.140
 4820TIP3    H214406   6.839   4.490   4.009
 4821TIP3   OH214407   5.688   4.976   6.462
 4821TIP3    H114408   5.688   4.885   6.431
 4821TIP3    H214409   5.765   5.015   6.420
 4822TIP3   OH214410   5.262   0.063   6.466
 4822TIP3    H114411   5.202  -0.005   6.498
 4822TIP3    H214412   5.285   0.036   6.377
 4823TIP3   OH214413   5.932   1.290   5.301
 4823TIP3    H114414   5.971   1.214   5.346
 4823TIP3    H214415   5.952   1.275   5.209
 4824TIP3   OH214416   4.840   5.818   1.234
 4824TIP3    H114417   4.775   5.759   1.273
 4824TIP3    H214418   4.815   5.905   1.265
 4825TIP3   OH214419   1.896   2.569   0.152
 4825TIP3    H114420   1.868   2.562   0.061
 4825TIP3    H214421   1.883   2.481   0.188
 4826TIP3   OH214422   8.196   0.494   3.012
 4826TIP3    H114423   8.265   0.469   3.074
 4826TIP3    H214424   8.235   0.481   2.926
 4827TIP3   OH214425   3.311   6.220   2.056
 4827TIP3    H114426   3.219   6.198   2.076
 4827TIP3    H214427   3.330   6.173   1.975
 4828TIP3   OH214428   4.888   1.624   5.146
 4828TIP3    H114429   4.965   1.681   5.142
 4828TIP3    H214430   4.915   1.553   5.205
 4829TIP3   OH214431   8.220   2.734   1.962
 4829TIP3    H114432   8.131   2.701   1.972
 4829TIP3    H214433   8.256   2.735   2.051
 4830TIP3   OH214434   5.017   0.624   4.921
 4830TIP3    H114435   5.017   0.541   4.875
 4830TIP3    H214436   5.094   0.621   4.977
 4831TIP3   OH214437   3.278   3.698   4.091
 4831TIP3    H114438   3.200   3.681   4.038
 4831TIP3    H214439   3.249   3.684   4.181
 4832TIP3   OH214440   5.657   4.777   2.724
 4832TIP3    H114441   5.575   4.820   2.748
 4832TIP3    H214442   5.698   4.755   2.808
 4833TIP3   OH214443   1.884   1.379   3.999
 4833TIP3    H114444   1.913   1.462   3.962
 4833TIP3    H214445   1.857   1.401   4.088
 4834TIP3   OH214446   0.724   6.562   2.809
 4834TIP3    H114447   0.646   6.532   2.764
 4834TIP3    H214448   0.788   6.578   2.739
 4835TIP3   OH214449   2.786   6.811   0.542
 4835TIP3    H114450   2.795   6.751   0.616
 4835TIP3    H214451   2.870   6.857   0.538
 4836TIP3   OH214452   1.585   1.677   4.010
 4836TIP3    H114453   1.623   1.765   4.007
 4836TIP3    H214454   1.574   1.659   4.104
 4837TIP3   OH214455   5.670   4.321   6.630
 4837TIP3    H114456   5.594   4.326   6.687
 4837TIP3    H214457   5.743   4.299   6.689
 4838TIP3   OH214458   5.198   0.684   5.445
 4838TIP3    H114459   5.185   0.758   5.504
 4838TIP3    H214460   5.153   0.710   5.364
 4839TIP3   OH214461   0.676   6.595   2.372
 4839TIP3    H114462   0.735   6.564   2.441
 4839TIP3    H214463   0.664   6.519   2.315
 4840TIP3   OH214464   0.937   5.102   4.483
 4840TIP3    H114465   0.883   5.127   4.408
 4840TIP3    H214466   0.893   5.140   4.559
 4841TIP3   OH214467   7.951   3.226   6.415
 4841TIP3    H114468   7.855   3.233   6.410
 4841TIP3    H214469   7.982   3.265   6.333
 4842TIP3   OH214470   6.140   2.704   1.622
 4842TIP3    H114471   6.094   2.643   1.680
 4842TIP3    H214472   6.228   2.709   1.658
 4843TIP3   OH214473   7.179   7.595   1.082
 4843TIP3    H114474   7.122   7.526   1.047
 4843TIP3    H214475   7.258   7.548   1.109
 4844TIP3   OH214476   7.875   4.417   5.875
 4844TIP3    H114477   7.843   4.450   5.791
 4844TIP3    H214478   7.951   4.363   5.852
 4845TIP3   OH214479   7.078   1.458   4.507
 4845TIP3    H114480   7.098   1.390   4.571
 4845TIP3    H214481   7.071   1.412   4.424
 4846TIP3   OH214482   7.825   2.547   2.510
 4846TIP3    H114483   7.788   2.635   2.524
 4846TIP3    H214484   7.867   2.525   2.593
 4847TIP3   OH214485   4.330   3.466   2.465
 4847TIP3    H114486   4.245   3.494   2.496
 4847TIP3    H214487   4.326   3.476   2.370
 4848TIP3   OH214488   4.795   2.510   6.204
 4848TIP3    H114489   4.722   2.472   6.156
 4848TIP3    H214490   4.869   2.503   6.144
 4849TIP3   OH214491   2.986   4.032   5.563
 4849TIP3    H114492   2.984   4.083   5.644
 4849TIP3    H214493   2.992   3.941   5.592
 4850TIP3   OH214494   6.385   1.234   1.089
 4850TIP3    H114495   6.458   1.232   1.151
 4850TIP3    H214496   6.350   1.145   1.090
 4851TIP3   OH214497   2.870   5.556   1.035
 4851TIP3    H114498   2.784   5.517   1.016
 4851TIP3    H214499   2.857   5.650   1.023
 4852TIP3   OH214500   6.669   7.272   6.440
 4852TIP3    H114501   6.578   7.245   6.448
 4852TIP3    H214502   6.667   7.367   6.445
 4853TIP3   OH214503   3.342   6.185   0.044
 4853TIP3    H114504   3.261   6.133   0.043
 4853TIP3    H214505   3.355   6.212  -0.047
 4854TIP3   OH214506   4.789   1.012   3.390
 4854TIP3    H114507   4.872   1.035   3.433
 4854TIP3    H214508   4.722   1.039   3.452
 4855TIP3   OH214509   3.789   3.982   6.246
 4855TIP3    H114510   3.740   3.930   6.182
 4855TIP3    H214511   3.870   4.006   6.201
 4856TIP3   OH214512   7.108   3.572   3.867
 4856TIP3    H114513   7.101   3.599   3.959
 4856TIP3    H214514   7.107   3.653   3.818
 4857TIP3   OH214515   1.175   2.120   4.927
 4857TIP3    H114516   1.114   2.111   5.000
 4857TIP3    H214517   1.207   2.031   4.911
 4858TIP3   OH214518   2.072   4.380   5.333
 4858TIP3    H114519   2.079   4.285   5.338
 4858TIP3    H214520   2.027   4.405   5.414
 4859TIP3   OH214521   4.554   1.341   0.298
 4859TIP3    H114522   4.542   1.332   0.392
 4859TIP3    H214523   4.466   1.354   0.263
 4860TIP3   OH214524   1.158   3.328   3.013
 4860TIP3    H114525   1.085   3.266   3.019
 4860TIP3    H214526   1.116   3.413   3.000
 4861TIP3   OH214527   0.854   3.898   5.418
 4861TIP3    H114528   0.865   3.815   5.465
 4861TIP3    H214529   0.922   3.955   5.454
 4862TIP3   OH214530   5.811   2.661   5.880
 4862TIP3    H114531   5.854   2.617   5.953
 4862TIP3    H214532   5.881   2.712   5.838
 4863TIP3   OH214533   4.106   5.213   3.546
 4863TIP3    H114534   4.014   5.189   3.536
 4863TIP3    H214535   4.133   5.171   3.627
 4864TIP3   OH214536   3.388   3.044   3.418
 4864TIP3    H114537   3.386   2.951   3.444
 4864TIP3    H214538   3.373   3.092   3.500
 4865TIP3   OH214539   3.987   2.844   5.580
 4865TIP3    H114540   4.004   2.761   5.625
 4865TIP3    H214541   4.001   2.911   5.648
 4866TIP3   OH214542   8.046   6.824   3.491
 4866TIP3    H114543   7.993   6.887   3.443
 4866TIP3    H214544   8.118   6.803   3.433
 4867TIP3   OH214545   4.689   2.932   5.057
 4867TIP3    H114546   4.599   2.902   5.051
 4867TIP3    H214547   4.714   2.951   4.967
 4868TIP3   OH214548   1.406   7.446   1.623
 4868TIP3    H114549   1.405   7.399   1.707
 4868TIP3    H214550   1.436   7.534   1.646
 4869TIP3   OH214551   3.825   2.574   5.409
 4869TIP3    H114552   3.912   2.567   5.369
 4869TIP3    H214553   3.812   2.668   5.420
 4870TIP3   OH214554   5.735   1.256   3.286
 4870TIP3    H114555   5.790   1.177   3.284
 4870TIP3    H214556   5.649   1.225   3.315
 4871TIP3   OH214557   6.379   1.323   4.490
 4871TIP3    H114558   6.420   1.389   4.545
 4871TIP3    H214559   6.443   1.252   4.485
 4872TIP3   OH214560   3.501   5.048   0.873
 4872TIP3    H114561   3.412   5.077   0.889
 4872TIP3    H214562   3.499   4.954   0.892
 4873TIP3   OH214563   4.070   2.857   1.043
 4873TIP3    H114564   4.006   2.877   0.974
 4873TIP3    H214565   4.018   2.845   1.122
 4874TIP3   OH214566   5.702   4.485   6.228
 4874TIP3    H114567   5.744   4.509   6.145
 4874TIP3    H214568   5.638   4.555   6.243
 4875TIP3   OH214569   4.384   3.756   4.200
 4875TIP3    H114570   4.378   3.679   4.256
 4875TIP3    H214571   4.293   3.784   4.188
 4876TIP3   OH214572   7.507   6.180   5.852
 4876TIP3    H114573   7.495   6.091   5.886
 4876TIP3    H214574   7.595   6.180   5.815
 4877TIP3   OH214575   0.438   2.287   3.628
 4877TIP3    H114576   0.387   2.206   3.619
 4877TIP3    H214577   0.372   2.354   3.650
 4878TIP3   OH214578   1.166   6.589   6.142
 4878TIP3    H114579   1.168   6.496   6.119
 4878TIP3    H214580   1.240   6.627   6.094
 4879TIP3   OH214581   6.855   7.437   1.680
 4879TIP3    H114582   6.907   7.503   1.634
 4879TIP3    H214583   6.858   7.465   1.772
 4880TIP3   OH214584   2.405   3.206   5.925
 4880TIP3    H114585   2.491   3.247   5.935
 4880TIP3    H214586   2.396   3.151   6.003
 4881TIP3   OH214587   1.149   7.683   2.104
 4881TIP3    H114588   1.067   7.689   2.055
 4881TIP3    H214589   1.122   7.686   2.196
 4882TIP3   OH214590   0.595   0.724   0.242
 4882TIP3    H114591   0.528   0.763   0.186
 4882TIP3    H214592   0.623   0.795   0.299
 4883TIP3   OH214593   1.065   3.718   2.143
 4883TIP3    H114594   0.982   3.747   2.180
 4883TIP3    H214595   1.119   3.697   2.219
 4884TIP3   OH214596   0.323   1.235   0.655
 4884TIP3    H114597   0.252   1.256   0.594
 4884TIP3    H214598   0.378   1.313   0.656
 4885TIP3   OH214599   7.254   4.022   1.437
 4885TIP3    H114600   7.172   4.070   1.429
 4885TIP3    H214601   7.322   4.089   1.426
 4886TIP3   OH214602   7.450   1.802  -0.004
 4886TIP3    H114603   7.493   1.879   0.031
 4886TIP3    H214604   7.358   1.812   0.021
 4887TIP3   OH214605   6.481   4.050   2.562
 4887TIP3    H114606   6.521   4.044   2.475
 4887TIP3    H214607   6.466   4.144   2.574
 4888TIP3   OH214608   5.362   2.352   1.709
 4888TIP3    H114609   5.420   2.287   1.670
 4888TIP3    H214610   5.359   2.330   1.802
 4889TIP3   OH214611   6.708   0.412   5.875
 4889TIP3    H114612   6.732   0.407   5.782
 4889TIP3    H214613   6.701   0.505   5.893
 4890TIP3   OH214614   5.090   4.527   2.473
 4890TIP3    H114615   5.173   4.546   2.516
 4890TIP3    H214616   5.097   4.435   2.447
 4891TIP3   OH214617   2.802   4.604   6.060
 4891TIP3    H114618   2.733   4.545   6.089
 4891TIP3    H214619   2.819   4.662   6.134
 4892TIP3   OH214620   4.647   6.096   1.580
 4892TIP3    H114621   4.692   6.180   1.592
 4892TIP3    H214622   4.555   6.115   1.597
 4893TIP3   OH214623   2.039   1.155   3.050
 4893TIP3    H114624   1.985   1.125   2.977
 4893TIP3    H214625   1.990   1.128   3.128
 4894TIP3   OH214626   1.552   7.308   0.461
 4894TIP3    H114627   1.626   7.370   0.464
 4894TIP3    H214628   1.585   7.230   0.506
 4895TIP3   OH214629   7.136   0.454   4.967
 4895TIP3    H114630   7.215   0.417   4.929
 4895TIP3    H214631   7.064   0.420   4.913
 4896TIP3   OH214632   2.063   5.553   3.983
 4896TIP3    H114633   2.049   5.530   3.891
 4896TIP3    H214634   2.105   5.475   4.021
 4897TIP3   OH214635   4.752   0.201   2.849
 4897TIP3    H114636   4.749   0.132   2.782
 4897TIP3    H214637   4.833   0.248   2.831
 4898TIP3   OH214638   7.805   3.523   6.443
 4898TIP3    H114639   7.890   3.487   6.468
 4898TIP3    H214640   7.823   3.614   6.421
 4899TIP3   OH214641   0.667   5.490   5.665
 4899TIP3    H114642   0.734   5.527   5.722
 4899TIP3    H214643   0.595   5.468   5.724
 4900TIP3   OH214644   1.557   1.020   2.692
 4900TIP3    H114645   1.602   1.093   2.735
 4900TIP3    H214646   1.529   0.963   2.763
 4901TIP3   OH214647   5.423   4.573   4.547
 4901TIP3    H114648   5.433   4.619   4.463
 4901TIP3    H214649   5.462   4.487   4.531
 4902TIP3   OH214650   4.670   4.778   6.130
 4902TIP3    H114651   4.672   4.867   6.164
 4902TIP3    H214652   4.758   4.763   6.094
 4903TIP3   OH214653   6.548   3.033   4.197
 4903TIP3    H114654   6.638   3.032   4.164
 4903TIP3    H214655   6.551   2.981   4.277
 4904TIP3   OH214656   3.069   1.848   5.983
 4904TIP3    H114657   2.992   1.818   6.032
 4904TIP3    H214658   3.125   1.887   6.050
 4905TIP3   OH214659   5.286   6.819   3.382
 4905TIP3    H114660   5.296   6.890   3.447
 4905TIP3    H214661   5.261   6.743   3.434
 4906TIP3   OH214662   3.966   2.108   6.249
 4906TIP3    H114663   3.874   2.096   6.225
 4906TIP3    H214664   4.014   2.060   6.181
 4907TIP3   OH214665   0.186   5.816   1.796
 4907TIP3    H114666   0.237   5.742   1.765
 4907TIP3    H214667   0.251   5.878   1.829
 4908TIP3   OH214668   4.347   2.563   2.557
 4908TIP3    H114669   4.314   2.474   2.545
 4908TIP3    H214670   4.283   2.604   2.615
 4909TIP3   OH214671   5.774   5.536   3.688
 4909TIP3    H114672   5.838   5.597   3.724
 4909TIP3    H214673   5.825   5.479   3.629
 4910TIP3   OH214674   3.985   2.271   1.430
 4910TIP3    H114675   3.908   2.223   1.460
 4910TIP3    H214676   4.002   2.238   1.341
 4911TIP3   OH214677   6.660   0.897   0.597
 4911TIP3    H114678   6.645   0.805   0.619
 4911TIP3    H214679   6.739   0.921   0.645
 4912TIP3   OH214680   4.510   1.511   5.307
 4912TIP3    H114681   4.422   1.501   5.272
 4912TIP3    H214682   4.533   1.602   5.288
 4913TIP3   OH214683   8.309   2.294   5.236
 4913TIP3    H114684   8.259   2.368   5.201
 4913TIP3    H214685   8.257   2.264   5.311
 4914TIP3   OH214686   1.457   6.831   0.884
 4914TIP3    H114687   1.403   6.821   0.805
 4914TIP3    H214688   1.545   6.807   0.856
 4915TIP3   OH214689   4.573   6.041   3.667
 4915TIP3    H114690   4.505   6.022   3.732
 4915TIP3    H214691   4.609   6.126   3.693
 4916TIP3   OH214692   4.618   4.915   1.814
 4916TIP3    H114693   4.661   4.992   1.776
 4916TIP3    H214694   4.529   4.918   1.779
 4917TIP3   OH214695   2.490   5.677   4.074
 4917TIP3    H114696   2.445   5.630   4.005
 4917TIP3    H214697   2.426   5.684   4.145
 4918TIP3   OH214698   3.968   3.842   3.069
 4918TIP3    H114699   4.016   3.824   3.151
 4918TIP3    H214700   4.037   3.861   3.005
 4919TIP3   OH214701   4.671   7.298   6.228
 4919TIP3    H114702   4.692   7.208   6.253
 4919TIP3    H214703   4.597   7.289   6.168
 4920TIP3   OH214704   4.160   0.067   4.894
 4920TIP3    H114705   4.227   0.041   4.957
 4920TIP3    H214706   4.093   0.109   4.947
 4921TIP3   OH214707   5.455   4.206   1.989
 4921TIP3    H114708   5.462   4.135   1.925
 4921TIP3    H214709   5.402   4.170   2.059
 4922TIP3   OH214710   0.103   5.885   3.842
 4922TIP3    H114711   0.180   5.879   3.786
 4922TIP3    H214712   0.113   5.814   3.905
 4923TIP3   OH214713   3.842   4.968   0.095
 4923TIP3    H114714   3.866   4.875   0.102
 4923TIP3    H214715   3.900   5.003   0.028
 4924TIP3   OH214716   1.082   6.729   4.901
 4924TIP3    H114717   1.038   6.814   4.899
 4924TIP3    H214718   1.094   6.707   4.808
 4925TIP3   OH214719   4.177   2.277   3.744
 4925TIP3    H114720   4.119   2.201   3.740
 4925TIP3    H214721   4.252   2.253   3.689
 4926TIP3   OH214722   0.342   2.661   5.633
 4926TIP3    H114723   0.287   2.589   5.603
 4926TIP3    H214724   0.341   2.724   5.560
 4927TIP3   OH214725   7.402   7.115   6.760
 4927TIP3    H114726   7.309   7.103   6.741
 4927TIP3    H214727   7.446   7.056   6.700
 4928TIP3   OH214728   1.718   6.831   1.672
 4928TIP3    H114729   1.802   6.808   1.633
 4928TIP3    H214730   1.739   6.861   1.760
 4929TIP3   OH214731   1.799   7.206   4.729
 4929TIP3    H114732   1.708   7.206   4.698
 4929TIP3    H214733   1.801   7.134   4.793
 4930TIP3   OH214734   2.221   3.078   2.164
 4930TIP3    H114735   2.216   3.167   2.131
 4930TIP3    H214736   2.161   3.028   2.109
 4931TIP3   OH214737   1.822   4.524   5.985
 4931TIP3    H114738   1.895   4.479   6.028
 4931TIP3    H214739   1.822   4.612   6.024
 4932TIP3   OH214740   1.081   3.862   0.996
 4932TIP3    H114741   1.040   3.932   1.048
 4932TIP3    H214742   1.164   3.845   1.041
 4933TIP3   OH214743   7.390   2.111   5.617
 4933TIP3    H114744   7.365   2.124   5.708
 4933TIP3    H214745   7.486   2.106   5.619
 4934TIP3   OH214746   0.315   1.356   5.604
 4934TIP3    H114747   0.276   1.324   5.523
 4934TIP3    H214748   0.291   1.292   5.670
 4935TIP3   OH214749   2.438   0.952   1.541
 4935TIP3    H114750   2.491   0.994   1.473
 4935TIP3    H214751   2.364   0.914   1.493
 4936TIP3   OH214752   1.890   5.445   0.249
 4936TIP3    H114753   1.855   5.357   0.249
 4936TIP3    H214754   1.937   5.452   0.332
 4937TIP3   OH214755   0.151   2.981   3.745
 4937TIP3    H114756   0.090   3.034   3.693
 4937TIP3    H214757   0.114   2.893   3.742
 4938TIP3   OH214758   6.672   2.634   5.989
 4938TIP3    H114759   6.626   2.596   5.914
 4938TIP3    H214760   6.676   2.728   5.970
 4939TIP3   OH214761   4.458   4.989   4.913
 4939TIP3    H114762   4.435   5.071   4.868
 4939TIP3    H214763   4.461   4.923   4.844
 4940TIP3   OH214764   5.637   7.695   5.330
 4940TIP3    H114765   5.725   7.661   5.312
 4940TIP3    H214766   5.631   7.775   5.278
 4941TIP3   OH214767   4.577   2.674   0.572
 4941TIP3    H114768   4.577   2.769   0.561
 4941TIP3    H214769   4.665   2.653   0.604
 4942TIP3   OH214770   4.564   6.406   0.431
 4942TIP3    H114771   4.544   6.414   0.338
 4942TIP3    H214772   4.517   6.327   0.459
 4943TIP3   OH214773   8.064   5.498   3.686
 4943TIP3    H114774   8.111   5.428   3.731
 4943TIP3    H214775   8.059   5.569   3.750
 4944TIP3   OH214776   6.256   6.289   0.866
 4944TIP3    H114777   6.334   6.246   0.903
 4944TIP3    H214778   6.196   6.217   0.846
 4945TIP3   OH214779   6.766   4.383   6.773
 4945TIP3    H114780   6.860   4.396   6.763
 4945TIP3    H214781   6.736   4.363   6.684
 4946TIP3   OH214782   8.069   0.997   4.119
 4946TIP3    H114783   8.104   1.086   4.116
 4946TIP3    H214784   8.130   0.949   4.174
 4947TIP3   OH214785   6.515   2.535   5.299
 4947TIP3    H114786   6.561   2.461   5.338
 4947TIP3    H214787   6.570   2.611   5.320
 4948TIP3   OH214788   4.424   6.687   1.380
 4948TIP3    H114789   4.505   6.736   1.397
 4948TIP3    H214790   4.445   6.631   1.305
 4949TIP3   OH214791   4.333   5.555   5.650
 4949TIP3    H114792   4.315   5.464   5.627
 4949TIP3    H214793   4.314   5.605   5.570
 4950TIP3   OH214794   1.588   6.478   4.217
 4950TIP3    H114795   1.513   6.425   4.191
 4950TIP3    H214796   1.664   6.433   4.180
 4951TIP3   OH214797   5.501   3.152   2.149
 4951TIP3    H114798   5.548   3.076   2.115
 4951TIP3    H214799   5.409   3.134   2.131
 4952TIP3   OH214800   2.904   5.269   1.982
 4952TIP3    H114801   2.935   5.350   2.023
 4952TIP3    H214802   2.935   5.199   2.038
 4953TIP3   OH214803   4.515   6.816   6.705
 4953TIP3    H114804   4.431   6.861   6.706
 4953TIP3    H214805   4.524   6.778   6.792
 4954TIP3   OH214806   1.559   2.320   3.478
 4954TIP3    H114807   1.609   2.251   3.434
 4954TIP3    H214808   1.612   2.342   3.555
 4955TIP3   OH214809   3.662   1.751   1.859
 4955TIP3    H114810   3.673   1.766   1.953
 4955TIP3    H214811   3.745   1.710   1.832
 4956TIP3   OH214812   2.877   1.686   0.934
 4956TIP3    H114813   2.822   1.746   0.884
 4956TIP3    H214814   2.966   1.720   0.923
 4957TIP3   OH214815   4.981   5.336   1.484
 4957TIP3    H114816   5.043   5.376   1.545
 4957TIP3    H214817   4.989   5.242   1.500
 4958TIP3   OH214818   6.100   1.365   0.982
 4958TIP3    H114819   6.182   1.326   1.012
 4958TIP3    H214820   6.059   1.399   1.062
 4959TIP3   OH214821   7.705   1.085   6.543
 4959TIP3    H114822   7.650   1.042   6.477
 4959TIP3    H214823   7.715   1.020   6.612
 4960TIP3   OH214824   7.139   5.185   5.755
 4960TIP3    H114825   7.234   5.178   5.741
 4960TIP3    H214826   7.127   5.273   5.790
 4961TIP3   OH214827   5.395   2.458   0.668
 4961TIP3    H114828   5.395   2.441   0.574
 4961TIP3    H214829   5.468   2.406   0.703
 4962TIP3   OH214830   4.338   4.345   6.055
 4962TIP3    H114831   4.287   4.266   6.074
 4962TIP3    H214832   4.274   4.415   6.051
 4963TIP3   OH214833   6.973   4.549   4.897
 4963TIP3    H114834   6.994   4.607   4.824
 4963TIP3    H214835   6.879   4.560   4.911
 4964TIP3   OH214836   5.035   0.329   1.069
 4964TIP3    H114837   5.028   0.346   1.163
 4964TIP3    H214838   5.012   0.236   1.060
 4965TIP3   OH214839   5.337   2.489   3.889
 4965TIP3    H114840   5.404   2.422   3.875
 4965TIP3    H214841   5.340   2.506   3.983
 4966TIP3   OH214842   5.089   2.031   3.449
 4966TIP3    H114843   5.030   2.104   3.432
 4966TIP3    H214844   5.161   2.044   3.387
 4967TIP3   OH214845   5.013   0.048   4.595
 4967TIP3    H114846   4.945   0.057   4.662
 4967TIP3    H214847   5.008  -0.044   4.569
 4968TIP3   OH214848   2.161   2.276   2.945
 4968TIP3    H114849   2.154   2.186   2.976
 4968TIP3    H214850   2.256   2.293   2.943
 4969TIP3   OH214851   6.658   7.349   4.021
 4969TIP3    H114852   6.708   7.300   3.957
 4969TIP3    H214853   6.714   7.423   4.045
 4970TIP3   OH214854   1.689   0.557   0.199
 4970TIP3    H114855   1.680   0.627   0.264
 4970TIP3    H214856   1.706   0.603   0.116
 4971TIP3   OH214857   7.276   5.639   5.379
 4971TIP3    H114858   7.266   5.654   5.473
 4971TIP3    H214859   7.197   5.676   5.340
 4972TIP3   OH214860   3.118   6.789   3.267
 4972TIP3    H114861   3.079   6.863   3.220
 4972TIP3    H214862   3.203   6.821   3.295
 4973TIP3   OH214863   4.714   0.373   0.546
 4973TIP3    H114864   4.729   0.461   0.512
 4973TIP3    H214865   4.801   0.342   0.571
 4974TIP3   OH214866   4.313   7.022   4.954
 4974TIP3    H114867   4.326   6.928   4.958
 4974TIP3    H214868   4.253   7.041   5.026
 4975TIP3   OH214869   2.617   4.519   6.585
 4975TIP3    H114870   2.577   4.434   6.568
 4975TIP3    H214871   2.551   4.565   6.638
 4976TIP3   OH214872   5.613   3.032   2.934
 4976TIP3    H114873   5.545   3.096   2.958
 4976TIP3    H214874   5.653   3.069   2.855
 4977TIP3   OH214875   1.238   5.645   5.992
 4977TIP3    H114876   1.151   5.629   5.957
 4977TIP3    H214877   1.290   5.674   5.917
 4978TIP3   OH214878   7.174   4.940   3.692
 4978TIP3    H114879   7.106   4.876   3.669
 4978TIP3    H214880   7.228   4.896   3.757
 4979TIP3   OH214881   4.364   1.939   6.645
 4979TIP3    H114882   4.329   1.966   6.560
 4979TIP3    H214883   4.456   1.967   6.642
 4980TIP3   OH214884   7.106   0.463   0.119
 4980TIP3    H114885   7.174   0.414   0.072
 4980TIP3    H214886   7.140   0.472   0.208
 4981TIP3   OH214887   4.876   5.929   5.949
 4981TIP3    H114888   4.802   5.989   5.939
 4981TIP3    H214889   4.942   5.960   5.887
 4982TIP3   OH214890   1.621   7.205   6.334
 4982TIP3    H114891   1.544   7.228   6.282
 4982TIP3    H214892   1.585   7.181   6.420
 4983TIP3   OH214893   7.804   4.899   5.386
 4983TIP3    H114894   7.890   4.866   5.413
 4983TIP3    H214895   7.824   4.969   5.324
 4984TIP3   OH214896   1.042   6.607   0.390
 4984TIP3    H114897   1.069   6.536   0.332
 4984TIP3    H214898   0.986   6.663   0.335
 4985TIP3   OH214899   8.259   6.194   5.037
 4985TIP3    H114900   8.320   6.217   4.967
 4985TIP3    H214901   8.204   6.125   5.000
 4986TIP3   OH214902   0.906   6.578   5.387
 4986TIP3    H114903   0.870   6.626   5.462
 4986TIP3    H214904   0.978   6.527   5.424
 4987TIP3   OH214905   6.447   0.540   5.999
 4987TIP3    H114906   6.521   0.571   6.050
 4987TIP3    H214907   6.378   0.605   6.014
 4988TIP3   OH214908   2.751   7.353   6.353
 4988TIP3    H114909   2.836   7.371   6.313
 4988TIP3    H214910   2.688   7.365   6.282
 4989TIP3   OH214911   0.649   3.999   1.890
 4989TIP3    H114912   0.684   4.087   1.884
 4989TIP3    H214913   0.635   3.985   1.984
 4990TIP3   OH214914   1.302   4.059   6.208
 4990TIP3    H114915   1.259   4.135   6.169
 4990TIP3    H214916   1.341   4.093   6.288
 4991TIP3   OH214917   7.790   6.710   4.789
 4991TIP3    H114918   7.696   6.716   4.770
 4991TIP3    H214919   7.801   6.622   4.825
 4992TIP3   OH214920   5.650   6.537   2.671
 4992TIP3    H114921   5.689   6.588   2.601
 4992TIP3    H214922   5.556   6.558   2.667
 4993TIP3   OH214923   5.731   3.117   5.640
 4993TIP3    H114924   5.681   3.181   5.691
 4993TIP3    H214925   5.722   3.035   5.689
 4994TIP3   OH214926   0.715   1.251   5.983
 4994TIP3    H114927   0.766   1.223   5.906
 4994TIP3    H214928   0.635   1.288   5.946
 4995TIP3   OH214929   0.065   1.635   4.529
 4995TIP3    H114930   0.047   1.683   4.448
 4995TIP3    H214931   0.074   1.704   4.595
 4996TIP3   OH214932   4.987   1.787   3.441
 4996TIP3    H114933   5.013   1.877   3.459
 4996TIP3    H214934   4.925   1.765   3.511
 4997TIP3   OH214935   0.211   7.437   4.769
 4997TIP3    H114936   0.234   7.407   4.681
 4997TIP3    H214937   0.116   7.425   4.774
 4998TIP3   OH214938   2.910   3.327   1.507
 4998TIP3    H114939   2.999   3.360   1.519
 4998TIP3    H214940   2.872   3.386   1.441
 4999TIP3   OH214941   4.811   5.356   3.611
 4999TIP3    H114942   4.891   5.325   3.568
 4999TIP3    H214943   4.772   5.417   3.548
 5000TIP3   OH214944   7.728   4.594   0.528
 5000TIP3    H114945   7.787   4.528   0.564
 5000TIP3    H214946   7.678   4.549   0.461
 5001TIP3   OH214947   7.209   0.829   0.953
 5001TIP3    H114948   7.283   0.768   0.951
 5001TIP3    H214949   7.214   0.868   1.041
 5002TIP3   OH214950   0.675   0.588   1.550
 5002TIP3    H114951   0.722   0.597   1.633
 5002TIP3    H214952   0.590   0.627   1.566
 5003TIP3   OH214953   7.270   0.889   3.623
 5003TIP3    H114954   7.294   0.982   3.621
 5003TIP3    H214955   7.307   0.853   3.543
 5004TIP3   OH214956   3.112   5.001   4.729
 5004TIP3    H114957   3.106   4.968   4.819
 5004TIP3    H214958   3.100   4.924   4.674
 5005TIP3   OH214959   4.238   3.055   5.342
 5005TIP3    H114960   4.279   3.126   5.391
 5005TIP3    H214961   4.145   3.075   5.343
 5006TIP3   OH214962   1.727   0.986   1.127
 5006TIP3    H114963   1.779   1.031   1.194
 5006TIP3    H214964   1.781   0.990   1.048
 5007TIP3   OH214965   0.943   5.145   6.262
 5007TIP3    H114966   0.998   5.223   6.250
 5007TIP3    H214967   0.933   5.108   6.175
 5008TIP3   OH214968   6.297   0.131   6.105
 5008TIP3    H114969   6.317   0.162   6.016
 5008TIP3    H214970   6.310   0.208   6.160
 5009TIP3   OH214971   4.268   3.579   1.251
 5009TIP3    H114972   4.284   3.493   1.288
 5009TIP3    H214973   4.343   3.632   1.279
 5010TIP3   OH214974   1.987   5.161   6.362
 5010TIP3    H114975   1.916   5.224   6.347
 5010TIP3    H214976   2.053   5.211   6.411
 5011TIP3   OH214977   4.720   2.777   6.308
 5011TIP3    H114978   4.731   2.689   6.342
 5011TIP3    H214979   4.631   2.779   6.273
 5012TIP3   OH214980   6.297   1.481   0.715
 5012TIP3    H114981   6.314   1.390   0.737
 5012TIP3    H214982   6.279   1.523   0.799
 5013TIP3   OH214983   5.269   2.312   3.004
 5013TIP3    H114984   5.302   2.397   3.034
 5013TIP3    H214985   5.333   2.282   2.940
 5014TIP3   OH214986   2.300   6.542   4.140
 5014TIP3    H114987   2.338   6.547   4.228
 5014TIP3    H214988   2.263   6.454   4.135
 5015TIP3   OH214989   3.028   6.635   5.098
 5015TIP3    H114990   2.993   6.648   5.010
 5015TIP3    H214991   3.122   6.620   5.085
 5016TIP3   OH214992   1.431   1.139   5.222
 5016TIP3    H114993   1.500   1.204   5.208
 5016TIP3    H214994   1.350   1.190   5.223
 5017TIP3   OH214995   4.953   5.725   1.549
 5017TIP3    H114996   4.995   5.645   1.517
 5017TIP3    H214997   4.979   5.793   1.488
 5018TIP3   OH214998   7.248   3.330   4.101
 5018TIP3    H114999   7.227   3.293   4.186
 5018TIP3    H215000   7.221   3.422   4.107
 5019TIP3   OH215001   7.296   1.252   2.609
 5019TIP3    H115002   7.272   1.293   2.526
 5019TIP3    H215003   7.387   1.277   2.623
 5020TIP3   OH215004   1.621   5.110   0.328
 5020TIP3    H115005   1.599   5.159   0.249
 5020TIP3    H215006   1.667   5.173   0.383
 5021TIP3   OH215007   7.450   3.761   0.003
 5021TIP3    H115008   7.486   3.819   0.071
 5021TIP3    H215009   7.525   3.737  -0.050
 5022TIP3   OH215010   1.039   5.013   1.023
 5022TIP3    H115011   1.090   5.063   0.959
 5022TIP3    H215012   1.078   4.926   1.022
 5023TIP3   OH215013   2.789   3.015   5.715
 5023TIP3    H115014   2.848   3.029   5.641
 5023TIP3    H215015   2.826   3.068   5.786
 5024TIP3   OH215016   6.332   2.717   4.212
 5024TIP3    H115017   6.266   2.782   4.237
 5024TIP3    H215018   6.361   2.743   4.125
 5025TIP3   OH215019   2.822   0.827   1.263
 5025TIP3    H115020   2.749   0.876   1.226
 5025TIP3    H215021   2.893   0.891   1.272
 5026TIP3   OH215022   6.312   3.221   3.760
 5026TIP3    H115023   6.402   3.208   3.730
 5026TIP3    H215024   6.320   3.282   3.833
 5027TIP3   OH215025   2.662   4.301   3.416
 5027TIP3    H115026   2.618   4.288   3.500
 5027TIP3    H215027   2.616   4.374   3.375
 5028TIP3   OH215028   7.928   2.469   0.208
 5028TIP3    H115029   7.871   2.543   0.186
 5028TIP3    H215030   7.988   2.503   0.274
 5029TIP3   OH215031   1.479   5.888   0.815
 5029TIP3    H115032   1.522   5.929   0.891
 5029TIP3    H215033   1.402   5.845   0.852
 5030TIP3   OH215034   1.108   0.421   4.575
 5030TIP3    H115035   1.033   0.481   4.574
 5030TIP3    H215036   1.120   0.397   4.483
 5031TIP3   OH215037   4.222   3.331   3.769
 5031TIP3    H115038   4.155   3.388   3.732
 5031TIP3    H215039   4.257   3.379   3.844
 5032TIP3   OH215040   6.255   2.111   5.405
 5032TIP3    H115041   6.247   2.200   5.439
 5032TIP3    H215042   6.315   2.118   5.331
 5033TIP3   OH215043   3.333   6.535   3.043
 5033TIP3    H115044   3.396   6.592   3.000
 5033TIP3    H215045   3.248   6.566   3.012
 5034TIP3   OH215046   7.371   7.594   3.526
 5034TIP3    H115047   7.343   7.528   3.589
 5034TIP3    H215048   7.462   7.571   3.506
 5035TIP3   OH215049   0.309   6.580   3.731
 5035TIP3    H115050   0.300   6.669   3.764
 5035TIP3    H215051   0.221   6.543   3.737
 5036TIP3   OH215052   0.150   1.194   4.029
 5036TIP3    H115053   0.169   1.138   3.953
 5036TIP3    H215054   0.236   1.226   4.057
 5037TIP3   OH215055   6.148   4.479   3.198
 5037TIP3    H115056   6.088   4.432   3.255
 5037TIP3    H215057   6.180   4.552   3.250
 5038TIP3   OH215058   0.277   5.752   6.686
 5038TIP3    H115059   0.203   5.791   6.732
 5038TIP3    H215060   0.330   5.714   6.755
 5039TIP3   OH215061   3.173   3.384   1.626
 5039TIP3    H115062   3.117   3.423   1.693
 5039TIP3    H215063   3.205   3.303   1.666
 5040TIP3   OH215064   0.791   4.775   5.767
 5040TIP3    H115065   0.833   4.729   5.839
 5040TIP3    H215066   0.698   4.752   5.775
 5041TIP3   OH215067   7.821   0.582   3.438
 5041TIP3    H115068   7.887   0.548   3.377
 5041TIP3    H215069   7.814   0.675   3.416
 5042TIP3   OH215070   5.562   1.988   5.606
 5042TIP3    H115071   5.607   2.032   5.534
 5042TIP3    H215072   5.603   1.902   5.612
 5043TIP3   OH215073   5.294   6.991   0.628
 5043TIP3    H115074   5.373   7.044   0.618
 5043TIP3    H215075   5.322   6.903   0.604
 5044TIP3   OH215076   0.839   3.230   5.793
 5044TIP3    H115077   0.866   3.140   5.808
 5044TIP3    H215078   0.910   3.284   5.827
 5045TIP3   OH215079   5.743   6.969   5.287
 5045TIP3    H115080   5.697   6.997   5.366
 5045TIP3    H215081   5.678   6.922   5.236
 5046TIP3   OH215082   2.647   0.267   0.314
 5046TIP3    H115083   2.554   0.246   0.321
 5046TIP3    H215084   2.652   0.362   0.321
 5047TIP3   OH215085   6.745   0.793   5.576
 5047TIP3    H115086   6.709   0.811   5.663
 5047TIP3    H215087   6.688   0.840   5.515
 5048TIP3   OH215088   1.650   4.759   2.393
 5048TIP3    H115089   1.685   4.693   2.334
 5048TIP3    H215090   1.617   4.710   2.468
 5049TIP3   OH215091   5.148   2.158   5.889
 5049TIP3    H115092   5.057   2.127   5.886
 5049TIP3    H215093   5.148   2.237   5.835
 5050TIP3   OH215094   3.077   4.952   4.992
 5050TIP3    H115095   3.082   4.934   5.086
 5050TIP3    H215096   3.003   5.013   4.983
 5051TIP3   OH215097   4.350   5.223   3.192
 5051TIP3    H115098   4.337   5.205   3.285
 5051TIP3    H215099   4.429   5.278   3.189
 5052TIP3   OH215100   6.774   3.982   6.318
 5052TIP3    H115101   6.714   3.979   6.393
 5052TIP3    H215102   6.718   3.978   6.241
 5053TIP3   OH215103   1.626   4.863   6.550
 5053TIP3    H115104   1.567   4.938   6.542
 5053TIP3    H215105   1.596   4.818   6.629
 5054TIP3   OH215106   3.753   6.704   0.387
 5054TIP3    H115107   3.693   6.632   0.411
 5054TIP3    H215108   3.714   6.781   0.427
 5055TIP3   OH215109   7.081   3.839   1.597
 5055TIP3    H115110   7.143   3.896   1.551
 5055TIP3    H215111   7.127   3.757   1.609
 5056TIP3   OH215112   6.929   2.554   2.375
 5056TIP3    H115113   6.941   2.467   2.336
 5056TIP3    H215114   6.856   2.592   2.326
 5057TIP3   OH215115   3.407   4.781   0.100
 5057TIP3    H115116   3.396   4.814   0.190
 5057TIP3    H215117   3.457   4.849   0.056
 5058TIP3   OH215118   6.320   1.947   4.135
 5058TIP3    H115119   6.366   2.029   4.121
 5058TIP3    H215120   6.244   1.952   4.078
 5059TIP3   OH215121   7.907   7.024   5.916
 5059TIP3    H115122   7.912   7.074   5.997
 5059TIP3    H215123   7.828   7.056   5.873
 5060TIP3   OH215124   7.023   1.071   3.698
 5060TIP3    H115125   7.027   1.125   3.619
 5060TIP3    H215126   7.101   1.015   3.692
 5061TIP3   OH215127   1.913   0.402   0.253
 5061TIP3    H115128   1.954   0.398   0.166
 5061TIP3    H215129   1.849   0.473   0.245
 5062TIP3   OH215130   4.489   6.307   5.738
 5062TIP3    H115131   4.545   6.326   5.662
 5062TIP3    H215132   4.531   6.354   5.810
 5063TIP3   OH215133   6.318   7.566   2.160
 5063TIP3    H115134   6.305   7.529   2.072
 5063TIP3    H215135   6.230   7.577   2.195
 5064TIP3   OH215136   1.056   1.761   6.372
 5064TIP3    H115137   1.023   1.828   6.312
 5064TIP3    H215138   1.007   1.682   6.348
 5065TIP3   OH215139   0.762   3.235   6.083
 5065TIP3    H115140   0.688   3.177   6.098
 5065TIP3    H215141   0.837   3.177   6.074
 5066TIP3   OH215142   7.644   6.058   3.826
 5066TIP3    H115143   7.706   6.063   3.898
 5066TIP3    H215144   7.688   6.102   3.753
 5067TIP3   OH215145   5.229   6.889   0.274
 5067TIP3    H115146   5.158   6.888   0.210
 5067TIP3    H215147   5.241   6.982   0.295
 5068TIP3   OH215148   6.502   7.515   4.350
 5068TIP3    H115149   6.464   7.547   4.432
 5068TIP3    H215150   6.432   7.463   4.310
 5069TIP3   OH215151   8.079   0.399   6.260
 5069TIP3    H115152   8.168   0.373   6.236
 5069TIP3    H215153   8.030   0.317   6.261
 5070TIP3   OH215154   6.614   4.771   1.829
 5070TIP3    H115155   6.648   4.774   1.739
 5070TIP3    H215156   6.642   4.853   1.868
 5071TIP3   OH215157   7.132   2.285   5.160
 5071TIP3    H115158   7.198   2.256   5.098
 5071TIP3    H215159   7.112   2.375   5.133
 5072TIP3   OH215160   5.037   4.360   0.064
 5072TIP3    H115161   4.996   4.316  -0.010
 5072TIP3    H215162   5.129   4.334   0.060
 5073TIP3   OH215163   3.180   2.765   1.837
 5073TIP3    H115164   3.096   2.810   1.849
 5073TIP3    H215165   3.242   2.836   1.820
 5074TIP3   OH215166   1.842   1.484   2.959
 5074TIP3    H115167   1.851   1.395   2.926
 5074TIP3    H215168   1.902   1.488   3.033
 5075TIP3   OH215169   3.565   4.834   4.297
 5075TIP3    H115170   3.529   4.783   4.369
 5075TIP3    H215171   3.492   4.888   4.267
 5076TIP3   OH215172   1.890   0.925   6.531
 5076TIP3    H115173   1.882   0.838   6.493
 5076TIP3    H215174   1.858   0.915   6.621
 5077TIP3   OH215175   4.459   1.002   1.176
 5077TIP3    H115176   4.393   1.033   1.115
 5077TIP3    H215177   4.485   0.916   1.142
 5078TIP3   OH215178   3.754   0.707   4.445
 5078TIP3    H115179   3.695   0.772   4.406
 5078TIP3    H215180   3.697   0.653   4.501
 5079TIP3   OH215181   3.828   0.524   2.942
 5079TIP3    H115182   3.778   0.509   2.862
 5079TIP3    H215183   3.919   0.528   2.914
 5080TIP3   OH215184   1.489   7.140   6.567
 5080TIP3    H115185   1.464   7.162   6.657
 5080TIP3    H215186   1.456   7.051   6.555
 5081TIP3   OH215187   5.671   7.338   6.736
 5081TIP3    H115188   5.694   7.286   6.813
 5081TIP3    H215189   5.740   7.404   6.730
 5082TIP3   OH215190   2.870   7.171   6.547
 5082TIP3    H115191   2.835   7.094   6.501
 5082TIP3    H215192   2.825   7.245   6.506
 5083TIP3   OH215193   5.120   5.741   4.351
 5083TIP3    H115194   5.196   5.725   4.295
 5083TIP3    H215195   5.157   5.757   4.438
 5084TIP3   OH215196   4.916   4.810   4.470
 5084TIP3    H115197   4.869   4.893   4.473
 5084TIP3    H215198   4.976   4.819   4.395
 5085TIP3   OH215199   8.280   7.527   1.232
 5085TIP3    H115200   8.203   7.550   1.179
 5085TIP3    H215201   8.263   7.438   1.263
 5086TIP3   OH215202   2.535   2.771   0.700
 5086TIP3    H115203   2.562   2.809   0.784
 5086TIP3    H215204   2.537   2.844   0.639
 5087TIP3   OH215205   7.084   7.105   5.715
 5087TIP3    H115206   7.131   7.169   5.662
 5087TIP3    H215207   7.062   7.035   5.654
 5088TIP3   OH215208   4.704   1.689   3.556
 5088TIP3    H115209   4.710   1.693   3.651
 5088TIP3    H215210   4.699   1.780   3.528
 5089TIP3   OH215211   4.876   6.572   1.315
 5089TIP3    H115212   4.890   6.599   1.224
 5089TIP3    H215213   4.946   6.510   1.332
 5090TIP3   OH215214   6.841   6.629   0.134
 5090TIP3    H115215   6.857   6.591   0.048
 5090TIP3    H215216   6.927   6.632   0.176
 5091TIP3   OH215217   5.026   0.409   1.315
 5091TIP3    H115218   4.982   0.365   1.387
 5091TIP3    H215219   4.975   0.489   1.302
 5092TIP3   OH215220   4.220   2.290   1.208
 5092TIP3    H115221   4.161   2.365   1.204
 5092TIP3    H215222   4.207   2.245   1.124
 5093TIP3   OH215223   0.410   3.086   0.575
 5093TIP3    H115224   0.359   3.027   0.631
 5093TIP3    H215225   0.417   3.040   0.492
 5094TIP3   OH215226   1.144   3.403   1.649
 5094TIP3    H115227   1.213   3.465   1.674
 5094TIP3    H215228   1.143   3.338   1.719
 5095TIP3   OH215229   5.536   1.032   0.467
 5095TIP3    H115230   5.487   0.950   0.459
 5095TIP3    H215231   5.492   1.091   0.405
 5096TIP3   OH215232   2.401   0.115   1.965
 5096TIP3    H115233   2.492   0.143   1.964
 5096TIP3    H215234   2.351   0.196   1.971
 5097TIP3   OH215235   2.607   6.639   5.800
 5097TIP3    H115236   2.659   6.581   5.743
 5097TIP3    H215237   2.522   6.596   5.806
 5098TIP3   OH215238   4.448   6.309   6.504
 5098TIP3    H115239   4.372   6.366   6.513
 5098TIP3    H215240   4.424   6.229   6.551
 5099TIP3   OH215241   0.134   2.436   3.449
 5099TIP3    H115242   0.161   2.446   3.540
 5099TIP3    H215243   0.192   2.496   3.401
 5100TIP3   OH215244   0.748   2.473   0.054
 5100TIP3    H115245   0.788   2.492   0.138
 5100TIP3    H215246   0.657   2.454   0.074
 5101TIP3   OH215247   3.392   6.053   4.193
 5101TIP3    H115248   3.399   5.958   4.190
 5101TIP3    H215249   3.479   6.085   4.168
 5102TIP3   OH215250   1.755   3.408   3.893
 5102TIP3    H115251   1.695   3.385   3.822
 5102TIP3    H215252   1.770   3.502   3.883
 5103TIP3   OH215253   5.322   1.919   5.479
 5103TIP3    H115254   5.289   1.851   5.537
 5103TIP3    H215255   5.399   1.953   5.524
 5104TIP3   OH215256   5.801   6.315   5.707
 5104TIP3    H115257   5.823   6.366   5.785
 5104TIP3    H215258   5.749   6.375   5.654
 5105TIP3   OH215259   5.273   5.762   1.151
 5105TIP3    H115260   5.252   5.844   1.106
 5105TIP3    H215261   5.368   5.764   1.161
 5106TIP3   OH215262   2.578   4.981   0.827
 5106TIP3    H115263   2.561   4.898   0.783
 5106TIP3    H215264   2.571   4.960   0.921
 5107TIP3   OH215265   7.485   4.215   1.411
 5107TIP3    H115266   7.521   4.140   1.363
 5107TIP3    H215267   7.562   4.257   1.449
 5108TIP3   OH215268   2.364   4.732   1.277
 5108TIP3    H115269   2.337   4.678   1.203
 5108TIP3    H215270   2.456   4.709   1.292
 5109TIP3   OH215271   3.548   4.437   6.000
 5109TIP3    H115272   3.638   4.463   6.019
 5109TIP3    H215273   3.494   4.501   6.047
 5110TIP3   OH215274   6.240   3.778   2.962
 5110TIP3    H115275   6.293   3.819   2.894
 5110TIP3    H215276   6.172   3.842   2.981
 5111TIP3   OH215277   1.943   6.739   3.076
 5111TIP3    H115278   2.028   6.722   3.116
 5111TIP3    H215279   1.907   6.652   3.057
 5112TIP3   OH215280   6.924   0.666   6.391
 5112TIP3    H115281   6.877   0.724   6.331
 5112TIP3    H215282   7.009   0.652   6.349
 5113TIP3   OH215283   8.170   2.396   3.161
 5113TIP3    H115284   8.092   2.368   3.209
 5113TIP3    H215285   8.149   2.378   3.069
 5114TIP3   OH215286   1.611   0.122   1.760
 5114TIP3    H115287   1.603   0.156   1.849
 5114TIP3    H215288   1.705   0.120   1.743
 5115TIP3   OH215289   0.542   1.824   2.783
 5115TIP3    H115290   0.578   1.737   2.766
 5115TIP3    H215291   0.474   1.835   2.717
 5116TIP3   OH215292   2.748   1.481   4.456
 5116TIP3    H115293   2.812   1.431   4.506
 5116TIP3    H215294   2.730   1.429   4.378
 5117TIP3   OH215295   0.883   0.587   0.742
 5117TIP3    H115296   0.973   0.618   0.741
 5117TIP3    H215297   0.855   0.590   0.650
 5118TIP3   OH215298   7.651   4.316   0.726
 5118TIP3    H115299   7.727   4.374   0.728
 5118TIP3    H215300   7.685   4.231   0.755
 5119TIP3   OH215301   1.733   3.656   5.042
 5119TIP3    H115302   1.713   3.598   4.969
 5119TIP3    H215303   1.760   3.597   5.112
 5120TIP3   OH215304   6.690   7.760   5.474
 5120TIP3    H115305   6.599   7.737   5.493
 5120TIP3    H215306   6.696   7.756   5.378
 5121TIP3   OH215307   4.553   7.377   2.308
 5121TIP3    H115308   4.584   7.316   2.241
 5121TIP3    H215309   4.626   7.437   2.322
 5122TIP3   OH215310   5.687   6.776   2.417
 5122TIP3    H115311   5.738   6.791   2.498
 5122TIP3    H215312   5.742   6.813   2.348
 5123TIP3   OH215313   4.403   7.772   4.591
 5123TIP3    H115314   4.349   7.715   4.536
 5123TIP3    H215315   4.490   7.767   4.552
 5124TIP3   OH215316   6.047   2.566   2.275
 5124TIP3    H115317   5.960   2.545   2.309
 5124TIP3    H215318   6.031   2.629   2.206
 5125TIP3   OH215319   4.418   2.724   1.107
 5125TIP3    H115320   4.396   2.632   1.102
 5125TIP3    H215321   4.400   2.758   1.019
 5126TIP3   OH215322   4.563   0.965   1.858
 5126TIP3    H115323   4.546   1.051   1.895
 5126TIP3    H215324   4.480   0.918   1.868
 5127TIP3   OH215325   4.103   0.942   0.876
 5127TIP3    H115326   4.123   0.865   0.930
 5127TIP3    H215327   4.008   0.948   0.876
 5128TIP3   OH215328   1.287   0.657   5.679
 5128TIP3    H115329   1.269   0.751   5.683
 5128TIP3    H215330   1.235   0.626   5.605
 5129TIP3   OH215331   4.237   1.800   4.013
 5129TIP3    H115332   4.261   1.808   4.105
 5129TIP3    H215333   4.168   1.734   4.012
 5130TIP3   OH215334   0.564   6.329   4.842
 5130TIP3    H115335   0.633   6.355   4.782
 5130TIP3    H215336   0.518   6.258   4.798
 5131TIP3   OH215337   5.469   1.336   4.450
 5131TIP3    H115338   5.531   1.400   4.414
 5131TIP3    H215339   5.503   1.316   4.537
 5132TIP3   OH215340   7.871   6.239   5.895
 5132TIP3    H115341   7.907   6.204   5.976
 5132TIP3    H215342   7.869   6.334   5.908
 5133TIP3   OH215343   6.096   4.695   5.733
 5133TIP3    H115344   6.120   4.603   5.723
 5133TIP3    H215345   6.161   4.743   5.682
 5134TIP3   OH215346   3.211   6.926   2.671
 5134TIP3    H115347   3.146   6.863   2.702
 5134TIP3    H215348   3.249   6.885   2.594
 5135TIP3   OH215349   5.754   3.383   4.258
 5135TIP3    H115350   5.668   3.355   4.289
 5135TIP3    H215351   5.742   3.399   4.165
 5136TIP3   OH215352   6.118   2.846   0.269
 5136TIP3    H115353   6.207   2.882   0.277
 5136TIP3    H215354   6.126   2.754   0.291
 5137TIP3   OH215355   5.410   4.829   2.989
 5137TIP3    H115356   5.362   4.876   3.057
 5137TIP3    H215357   5.433   4.896   2.925
 5138TIP3   OH215358   5.171   4.240   4.165
 5138TIP3    H115359   5.256   4.269   4.198
 5138TIP3    H215360   5.167   4.272   4.075
 5139TIP3   OH215361   7.819   2.133   3.483
 5139TIP3    H115362   7.785   2.215   3.518
 5139TIP3    H215363   7.863   2.158   3.402
 5140TIP3   OH215364   3.123   5.667   5.294
 5140TIP3    H115365   3.172   5.600   5.344
 5140TIP3    H215366   3.176   5.746   5.303
 5141TIP3   OH215367   6.258   2.511   6.129
 5141TIP3    H115368   6.343   2.521   6.173
 5141TIP3    H215369   6.258   2.420   6.098
 5142TIP3   OH215370   7.782   5.730   6.468
 5142TIP3    H115371   7.690   5.731   6.493
 5142TIP3    H215372   7.788   5.790   6.394
 5143TIP3   OH215373   0.113   3.485   2.644
 5143TIP3    H115374   0.133   3.559   2.702
 5143TIP3    H215375   0.084   3.526   2.563
 5144TIP3   OH215376   3.313   6.445   2.237
 5144TIP3    H115377   3.238   6.504   2.246
 5144TIP3    H215378   3.282   6.375   2.180
 5145TIP3   OH215379   5.852   1.149   6.769
 5145TIP3    H115380   5.843   1.242   6.787
 5145TIP3    H215381   5.815   1.137   6.682
 5146TIP3   OH215382   8.149   2.179   6.349
 5146TIP3    H115383   8.187   2.227   6.275
 5146TIP3    H215384   8.180   2.226   6.426
 5147TIP3   OH215385   2.099   2.519   4.969
 5147TIP3    H115386   2.119   2.553   4.882
 5147TIP3    H215387   2.136   2.585   5.029
 5148TIP3   OH215388   0.219   2.548   1.712
 5148TIP3    H115389   0.178   2.606   1.648
 5148TIP3    H215390   0.304   2.588   1.731
 5149TIP3   OH215391   2.677   7.503   0.292
 5149TIP3    H115392   2.649   7.521   0.381
 5149TIP3    H215393   2.731   7.424   0.300
 5150TIP3   OH215394   7.526   7.573   2.905
 5150TIP3    H115395   7.539   7.580   2.810
 5150TIP3    H215396   7.514   7.664   2.934
 5151TIP3   OH215397   0.142   3.262   2.379
 5151TIP3    H115398   0.098   3.299   2.302
 5151TIP3    H215399   0.117   3.321   2.451
 5152TIP3   OH215400   6.061   2.826   2.898
 5152TIP3    H115401   6.155   2.813   2.881
 5152TIP3    H215402   6.056   2.832   2.994
 5153TIP3   OH215403   1.532   6.435   3.432
 5153TIP3    H115404   1.531   6.389   3.348
 5153TIP3    H215405   1.608   6.400   3.478
 5154TIP3   OH215406   2.844   3.271   3.965
 5154TIP3    H115407   2.906   3.343   3.980
 5154TIP3    H215408   2.882   3.197   4.012
 5155TIP3   OH215409   5.724   1.315   3.869
 5155TIP3    H115410   5.764   1.364   3.797
 5155TIP3    H215411   5.660   1.258   3.826
 5156TIP3   OH215412   5.161   5.619   2.897
 5156TIP3    H115413   5.140   5.702   2.939
 5156TIP3    H215414   5.079   5.590   2.857
 5157TIP3   OH215415   0.677   0.145   5.626
 5157TIP3    H115416   0.604   0.149   5.687
 5157TIP3    H215417   0.739   0.211   5.658
 5158TIP3   OH215418   3.018   7.371   6.283
 5158TIP3    H115419   3.105   7.350   6.318
 5158TIP3    H215420   3.023   7.464   6.262
 5159TIP3   OH215421   1.690   4.440   1.799
 5159TIP3    H115422   1.753   4.400   1.859
 5159TIP3    H215423   1.738   4.451   1.717
 5160TIP3   OH215424   0.596   0.142   3.614
 5160TIP3    H115425   0.644   0.077   3.563
 5160TIP3    H215426   0.506   0.110   3.615
 5161TIP3   OH215427   1.732   5.468   2.081
 5161TIP3    H115428   1.721   5.376   2.105
 5161TIP3    H215429   1.806   5.499   2.134
 5162TIP3   OH215430   1.404   3.572   0.431
 5162TIP3    H115431   1.459   3.624   0.372
 5162TIP3    H215432   1.317   3.576   0.392
 5163TIP3   OH215433   1.060   5.057   1.302
 5163TIP3    H115434   1.058   5.011   1.218
 5163TIP3    H215435   0.986   5.117   1.298
 5164TIP3   OH215436   6.201   0.607   6.622
 5164TIP3    H115437   6.241   0.588   6.537
 5164TIP3    H215438   6.227   0.697   6.641
 5165TIP3   OH215439   0.374   1.844   6.062
 5165TIP3    H115440   0.302   1.808   6.011
 5165TIP3    H215441   0.426   1.893   5.998
 5166TIP3   OH215442   5.549   2.723   5.129
 5166TIP3    H115443   5.601   2.798   5.159
 5166TIP3    H215444   5.557   2.659   5.200
 5167TIP3   OH215445   8.033  -0.007   4.713
 5167TIP3    H115446   8.007   0.063   4.772
 5167TIP3    H215447   8.126  -0.022   4.732
 5168TIP3   OH215448   1.031   5.021   4.836
 5168TIP3    H115449   1.066   5.065   4.913
 5168TIP3    H215450   0.938   5.006   4.856
 5169TIP3   OH215451   6.753   4.359   2.541
 5169TIP3    H115452   6.826   4.356   2.602
 5169TIP3    H215453   6.705   4.439   2.565
 5170TIP3   OH215454   1.749   2.405   4.675
 5170TIP3    H115455   1.667   2.453   4.671
 5170TIP3    H215456   1.726   2.319   4.709
 5171TIP3   OH215457   2.023   5.673   6.385
 5171TIP3    H115458   2.002   5.641   6.297
 5171TIP3    H215459   1.944   5.718   6.413
 5172TIP3   OH215460   5.916   4.594   3.410
 5172TIP3    H115461   5.906   4.514   3.461
 5172TIP3    H215462   5.876   4.574   3.325
 5173TIP3   OH215463   3.855   4.825   6.028
 5173TIP3    H115464   3.845   4.903   5.973
 5173TIP3    H215465   3.949   4.815   6.040
 5174TIP3   OH215466   2.446   1.224   1.023
 5174TIP3    H115467   2.435   1.311   0.985
 5174TIP3    H215468   2.400   1.165   0.963
 5175TIP3   OH215469   6.982   7.018   4.397
 5175TIP3    H115470   6.938   7.030   4.482
 5175TIP3    H215471   7.047   7.088   4.394
 5176TIP3   OH215472   3.754   5.132   0.813
 5176TIP3    H115473   3.785   5.166   0.897
 5176TIP3    H215474   3.660   5.125   0.823
 5177TIP3   OH215475   7.162   6.499   5.695
 5177TIP3    H115476   7.114   6.556   5.755
 5177TIP3    H215477   7.159   6.545   5.611
 5178TIP3   OH215478   0.107   1.725   6.045
 5178TIP3    H115479   0.054   1.660   6.092
 5178TIP3    H215480   0.102   1.698   5.954
 5179TIP3   OH215481   2.048   3.218   3.324
 5179TIP3    H115482   2.022   3.130   3.351
 5179TIP3    H215483   1.987   3.276   3.371
 5180TIP3   OH215484   7.221   6.007   2.794
 5180TIP3    H115485   7.149   6.064   2.823
 5180TIP3    H215486   7.224   6.019   2.699
 5181TIP3   OH215487   0.312   4.005   2.398
 5181TIP3    H115488   0.314   3.971   2.308
 5181TIP3    H215489   0.231   3.970   2.434
 5182TIP3   OH215490   0.184   2.034   6.647
 5182TIP3    H115491   0.111   2.058   6.704
 5182TIP3    H215492   0.239   1.977   6.701
 5183TIP3   OH215493   6.765   6.462   0.615
 5183TIP3    H115494   6.802   6.407   0.545
 5183TIP3    H215495   6.785   6.552   0.588
 5184TIP3   OH215496   7.720   7.742   0.684
 5184TIP3    H115497   7.713   7.695   0.767
 5184TIP3    H215498   7.735   7.833   0.709
 5185TIP3   OH215499   2.620   0.894   2.161
 5185TIP3    H115500   2.676   0.971   2.159
 5185TIP3    H215501   2.592   0.887   2.253
 5186TIP3   OH215502   2.343   4.582   1.058
 5186TIP3    H115503   2.411   4.514   1.060
 5186TIP3    H215504   2.337   4.606   0.965
 5187TIP3   OH215505   3.361   7.562   0.778
 5187TIP3    H115506   3.379   7.656   0.776
 5187TIP3    H215507   3.391   7.533   0.864
 5188TIP3   OH215508   6.816   4.295   4.752
 5188TIP3    H115509   6.896   4.284   4.701
 5188TIP3    H215510   6.777   4.376   4.718
 5189TIP3   OH215511   5.875   0.753   1.250
 5189TIP3    H115512   5.825   0.754   1.168
 5189TIP3    H215513   5.812   0.727   1.317
 5190TIP3   OH215514   8.302   1.734   2.002
 5190TIP3    H115515   8.241   1.737   2.076
 5190TIP3    H215516   8.287   1.648   1.963
 5191TIP3   OH215517   2.719   6.371   1.290
 5191TIP3    H115518   2.773   6.398   1.216
 5191TIP3    H215519   2.707   6.277   1.277
 5192TIP3   OH215520   6.500   0.800   3.358
 5192TIP3    H115521   6.547   0.865   3.306
 5192TIP3    H215522   6.567   0.762   3.415
 5193TIP3   OH215523   3.435   4.043   3.715
 5193TIP3    H115524   3.344   4.050   3.743
 5193TIP3    H215525   3.484   4.025   3.796
 5194TIP3   OH215526   1.423   3.574   6.052
 5194TIP3    H115527   1.352   3.510   6.048
 5194TIP3    H215528   1.380   3.655   6.079
 5195TIP3   OH215529   5.806   4.759   1.140
 5195TIP3    H115530   5.865   4.767   1.215
 5195TIP3    H215531   5.864   4.736   1.067
 5196TIP3   OH215532   4.195   2.818   3.091
 5196TIP3    H115533   4.172   2.741   3.142
 5196TIP3    H215534   4.276   2.794   3.046
 5197TIP3   OH215535   7.627   1.648   5.989
 5197TIP3    H115536   7.542   1.687   5.967
 5197TIP3    H215537   7.677   1.721   6.026
 5198TIP3   OH215538   1.481   2.228   4.625
 5198TIP3    H115539   1.414   2.296   4.616
 5198TIP3    H215540   1.504   2.229   4.718
 5199TIP3   OH215541   4.200   4.997   5.842
 5199TIP3    H115542   4.249   5.034   5.769
 5199TIP3    H215543   4.267   4.970   5.906
 5200TIP3   OH215544   3.971   5.585   6.572
 5200TIP3    H115545   3.908   5.640   6.525
 5200TIP3    H215546   4.039   5.566   6.508
 5201TIP3   OH215547   6.447   6.939   4.036
 5201TIP3    H115548   6.463   7.000   3.964
 5201TIP3    H215549   6.513   6.961   4.101
 5202TIP3   OH215550   6.768   2.691   2.721
 5202TIP3    H115551   6.747   2.616   2.776
 5202TIP3    H215552   6.750   2.661   2.632
 5203TIP3   OH215553   1.210   0.563   2.721
 5203TIP3    H115554   1.289   0.572   2.669
 5203TIP3    H215555   1.140   0.548   2.657
 5204TIP3   OH215556   1.778   2.996   2.858
 5204TIP3    H115557   1.698   3.039   2.886
 5204TIP3    H215558   1.749   2.925   2.800
 5205TIP3   OH215559   4.832   2.420   1.777
 5205TIP3    H115560   4.787   2.503   1.758
 5205TIP3    H215561   4.787   2.355   1.724
 5206TIP3   OH215562   7.795   6.635   3.494
 5206TIP3    H115563   7.861   6.614   3.428
 5206TIP3    H215564   7.844   6.644   3.576
 5207TIP3   OH215565   7.436   1.865   6.103
 5207TIP3    H115566   7.366   1.806   6.131
 5207TIP3    H215567   7.497   1.867   6.176
 5208TIP3   OH215568   8.108   0.336   1.512
 5208TIP3    H115569   8.062   0.252   1.506
 5208TIP3    H215570   8.048   0.400   1.473
 5209TIP3   OH215571   4.871   5.492   2.168
 5209TIP3    H115572   4.873   5.468   2.260
 5209TIP3    H215573   4.832   5.579   2.167
 5210TIP3   OH215574   6.086   5.791   6.034
 5210TIP3    H115575   6.142   5.763   5.962
 5210TIP3    H215576   6.045   5.872   6.001
 5211TIP3   OH215577   6.110   6.709   2.801
 5211TIP3    H115578   6.114   6.654   2.879
 5211TIP3    H215579   6.111   6.647   2.728
 5212TIP3   OH215580   8.109   0.502   5.893
 5212TIP3    H115581   8.156   0.580   5.922
 5212TIP3    H215582   8.149   0.430   5.942
 5213TIP3   OH215583   5.211   5.020   3.477
 5213TIP3    H115584   5.196   5.050   3.567
 5213TIP3    H215585   5.136   5.053   3.428
 5214TIP3   OH215586   7.920   1.702   5.441
 5214TIP3    H115587   7.951   1.740   5.359
 5214TIP3    H215588   7.932   1.607   5.428
 5215TIP3   OH215589   4.706   3.332   0.798
 5215TIP3    H115590   4.617   3.323   0.764
 5215TIP3    H215591   4.752   3.256   0.763
 5216TIP3   OH215592   6.970   5.485   0.361
 5216TIP3    H115593   6.997   5.393   0.361
 5216TIP3    H215594   6.874   5.482   0.366
 5217TIP3   OH215595   1.118   6.027   1.427
 5217TIP3    H115596   1.191   6.003   1.371
 5217TIP3    H215597   1.152   6.021   1.516
 5218TIP3   OH215598   7.843   4.198   3.849
 5218TIP3    H115599   7.868   4.208   3.757
 5218TIP3    H215600   7.839   4.103   3.862
 5219TIP3   OH215601   6.056   0.733   1.933
 5219TIP3    H115602   6.108   0.710   1.856
 5219TIP3    H215603   5.965   0.728   1.904
 5220TIP3   OH215604   3.729   3.351   0.864
 5220TIP3    H115605   3.721   3.329   0.957
 5220TIP3    H215606   3.817   3.322   0.840
 5221TIP3   OH215607   7.974   2.833   0.232
 5221TIP3    H115608   8.066   2.810   0.223
 5221TIP3    H215609   7.945   2.788   0.312
 5222TIP3   OH215610   7.165   0.739   2.590
 5222TIP3    H115611   7.069   0.739   2.593
 5222TIP3    H215612   7.186   0.692   2.509
 5223TIP3   OH215613   1.832   5.056   5.759
 5223TIP3    H115614   1.801   5.047   5.670
 5223TIP3    H215615   1.762   5.101   5.805
 5224TIP3   OH215616   0.200   6.541   2.122
 5224TIP3    H115617   0.130   6.607   2.119
 5224TIP3    H215618   0.167   6.474   2.182
 5225TIP3   OH215619   6.525   7.102   2.808
 5225TIP3    H115620   6.441   7.130   2.773
 5225TIP3    H215621   6.580   7.181   2.803
 5226TIP3   OH215622   1.723   1.723   2.869
 5226TIP3    H115623   1.790   1.662   2.898
 5226TIP3    H215624   1.667   1.735   2.945
 5227TIP3   OH215625   5.524   6.438   4.682
 5227TIP3    H115626   5.578   6.387   4.622
 5227TIP3    H215627   5.558   6.417   4.769
 5228TIP3   OH215628   2.546   5.339   0.696
 5228TIP3    H115629   2.471   5.361   0.642
 5228TIP3    H215630   2.601   5.417   0.694
 5229TIP3   OH215631   6.148   0.232   3.147
 5229TIP3    H115632   6.161   0.177   3.224
 5229TIP3    H215633   6.157   0.322   3.179
 5230TIP3   OH215634   3.657   6.462   0.502
 5230TIP3    H115635   3.723   6.412   0.550
 5230TIP3    H215636   3.642   6.411   0.422
 5231TIP3   OH215637   5.170   1.767   2.361
 5231TIP3    H115638   5.118   1.753   2.440
 5231TIP3    H215639   5.110   1.811   2.300
 5232TIP3   OH215640   6.452   0.966   4.610
 5232TIP3    H115641   6.373   0.973   4.556
 5232TIP3    H215642   6.456   0.874   4.635
 5233TIP3   OH215643   6.294   2.851   1.030
 5233TIP3    H115644   6.205   2.877   1.007
 5233TIP3    H215645   6.289   2.830   1.123
 5234TIP3   OH215646   0.947   3.756   6.436
 5234TIP3    H115647   0.911   3.751   6.524
 5234TIP3    H215648   1.013   3.825   6.441
 5235TIP3   OH215649   0.948   1.020   4.269
 5235TIP3    H115650   1.011   1.050   4.334
 5235TIP3    H215651   0.909   1.100   4.234
 5236TIP3   OH215652   5.828   5.448   0.323
 5236TIP3    H115653   5.859   5.452   0.233
 5236TIP3    H215654   5.908   5.434   0.375
 5237TIP3   OH215655   1.031   1.450   6.650
 5237TIP3    H115656   1.015   1.473   6.558
 5237TIP3    H215657   0.974   1.376   6.667
 5238TIP3   OH215658   2.240   3.077   4.917
 5238TIP3    H115659   2.216   3.075   5.010
 5238TIP3    H215660   2.159   3.103   4.873
 5239TIP3   OH215661   0.043   4.884   6.328
 5239TIP3    H115662  -0.001   4.813   6.280
 5239TIP3    H215663  -0.022   4.954   6.331
 5240TIP3   OH215664   5.641   0.193   2.089
 5240TIP3    H115665   5.607   0.224   2.173
 5240TIP3    H215666   5.711   0.254   2.067
 5241TIP3   OH215667   3.586   5.398   3.201
 5241TIP3    H115668   3.657   5.438   3.252
 5241TIP3    H215669   3.506   5.424   3.248
 5242TIP3   OH215670   8.021   4.066   6.133
 5242TIP3    H115671   8.082   4.139   6.127
 5242TIP3    H215672   7.978   4.064   6.047
 5243TIP3   OH215673   4.116   1.264   0.768
 5243TIP3    H115674   4.134   1.223   0.683
 5243TIP3    H215675   4.021   1.262   0.776
 5244TIP3   OH215676   7.347   2.871   3.027
 5244TIP3    H115677   7.269   2.921   3.007
 5244TIP3    H215678   7.399   2.874   2.947
 5245TIP3   OH215679   4.473   7.309   1.573
 5245TIP3    H115680   4.488   7.244   1.505
 5245TIP3    H215681   4.456   7.390   1.526
 5246TIP3   OH215682   2.250   3.432   2.911
 5246TIP3    H115683   2.278   3.509   2.960
 5246TIP3    H215684   2.313   3.364   2.934
 5247TIP3   OH215685   0.020   5.333   6.430
 5247TIP3    H115686  -0.014   5.397   6.368
 5247TIP3    H215687   0.031   5.382   6.511
 5248TIP3   OH215688   1.423   1.085   4.835
 5248TIP3    H115689   1.434   1.065   4.928
 5248TIP3    H215690   1.427   1.000   4.791
 5249TIP3   OH215691   6.609   5.576   1.306
 5249TIP3    H115692   6.661   5.522   1.246
 5249TIP3    H215693   6.528   5.595   1.257
 5250TIP3   OH215694   2.872   1.441   5.963
 5250TIP3    H115695   2.863   1.527   5.921
 5250TIP3    H215696   2.964   1.418   5.951
 5251TIP3   OH215697   4.851   5.076   4.451
 5251TIP3    H115698   4.785   5.110   4.512
 5251TIP3    H215699   4.826   5.112   4.366
 5252TIP3   OH215700   8.181   5.470   3.408
 5252TIP3    H115701   8.120   5.473   3.481
 5252TIP3    H215702   8.260   5.515   3.440
 5253TIP3   OH215703   0.098   1.824   2.511
 5253TIP3    H115704   0.019   1.824   2.564
 5253TIP3    H215705   0.097   1.740   2.465
 5254TIP3   OH215706   0.868   7.685   4.468
 5254TIP3    H115707   0.957   7.684   4.433
 5254TIP3    H215708   0.858   7.600   4.512
 5255TIP3   OH215709   6.473   3.913   3.287
 5255TIP3    H115710   6.468   3.942   3.378
 5255TIP3    H215711   6.420   3.977   3.239
 5256TIP3   OH215712   1.956   3.866   1.146
 5256TIP3    H115713   1.934   3.898   1.234
 5256TIP3    H215714   1.895   3.912   1.088
 5257TIP3   OH215715   6.956   1.941   0.896
 5257TIP3    H115716   6.899   1.864   0.886
 5257TIP3    H215717   6.947   1.966   0.988
 5258TIP3   OH215718   5.594   3.579   3.278
 5258TIP3    H115719   5.508   3.536   3.280
 5258TIP3    H215720   5.610   3.597   3.185
 5259TIP3   OH215721   7.513   3.288   1.802
 5259TIP3    H115722   7.549   3.296   1.714
 5259TIP3    H215723   7.554   3.209   1.838
 5260TIP3   OH215724   5.161   3.711   5.804
 5260TIP3    H115725   5.129   3.792   5.845
 5260TIP3    H215726   5.245   3.694   5.847
 5261TIP3   OH215727   4.622   6.591   0.652
 5261TIP3    H115728   4.568   6.664   0.623
 5261TIP3    H215729   4.610   6.524   0.585
 5262TIP3   OH215730   1.906   1.483   0.345
 5262TIP3    H115731   1.832   1.467   0.286
 5262TIP3    H215732   1.908   1.579   0.356
 5263TIP3   OH215733   2.946   5.741   0.475
 5263TIP3    H115734   3.041   5.728   0.475
 5263TIP3    H215735   2.926   5.771   0.564
 5264TIP3   OH215736   0.490   7.580   6.118
 5264TIP3    H115737   0.438   7.654   6.147
 5264TIP3    H215738   0.551   7.616   6.054
 5265TIP3   OH215739   5.767   7.050   6.474
 5265TIP3    H115740   5.800   7.067   6.386
 5265TIP3    H215741   5.840   7.008   6.519
 5266TIP3   OH215742   6.491   2.007   6.643
 5266TIP3    H115743   6.450   1.960   6.571
 5266TIP3    H215744   6.551   1.945   6.683
 5267TIP3   OH215745   5.192   7.341   5.468
 5267TIP3    H115746   5.249   7.404   5.513
 5267TIP3    H215747   5.143   7.395   5.405
 5268TIP3   OH215748   7.841   5.225   5.179
 5268TIP3    H115749   7.750   5.253   5.174
 5268TIP3    H215750   7.856   5.178   5.097
 5269TIP3   OH215751   6.188   7.825   0.631
 5269TIP3    H115752   6.218   7.734   0.623
 5269TIP3    H215753   6.109   7.819   0.684
 5270TIP3   OH215754   0.532   0.533   0.854
 5270TIP3    H115755   0.558   0.481   0.930
 5270TIP3    H215756   0.575   0.491   0.780
 5271TIP3   OH215757   6.494   2.441   3.033
 5271TIP3    H115758   6.489   2.471   3.124
 5271TIP3    H215759   6.405   2.414   3.012
 5272TIP3   OH215760   7.896   3.277   2.657
 5272TIP3    H115761   7.841   3.331   2.714
 5272TIP3    H215762   7.984   3.312   2.668
 5273TIP3   OH215763   3.307   0.127   0.412
 5273TIP3    H115764   3.296   0.091   0.324
 5273TIP3    H215765   3.246   0.200   0.416
 5274TIP3   OH215766   6.743   5.507   1.044
 5274TIP3    H115767   6.837   5.508   1.062
 5274TIP3    H215768   6.720   5.599   1.036
 5275TIP3   OH215769   8.115   5.917   3.921
 5275TIP3    H115770   8.113   5.824   3.943
 5275TIP3    H215771   8.183   5.953   3.979
 5276TIP3   OH215772   2.839   6.038   1.639
 5276TIP3    H115773   2.851   5.960   1.585
 5276TIP3    H215774   2.758   6.021   1.688
 5277TIP3   OH215775   7.889   3.944   0.105
 5277TIP3    H115776   7.934   3.862   0.085
 5277TIP3    H215777   7.956   4.012   0.095
 5278TIP3   OH215778   1.932   7.555   3.124
 5278TIP3    H115779   2.020   7.576   3.093
 5278TIP3    H215780   1.905   7.481   3.069
 5279TIP3   OH215781   0.728   6.725   6.409
 5279TIP3    H115782   0.792   6.692   6.346
 5279TIP3    H215783   0.652   6.668   6.399
 5280TIP3   OH215784   5.690   6.535   0.975
 5280TIP3    H115785   5.687   6.563   0.884
 5280TIP3    H215786   5.673   6.440   0.972
 5281TIP3   OH215787   3.506   1.593   6.764
 5281TIP3    H115788   3.480   1.504   6.786
 5281TIP3    H215789   3.556   1.584   6.682
 5282TIP3   OH215790   0.209   4.138   5.684
 5282TIP3    H115791   0.282   4.196   5.661
 5282TIP3    H215792   0.133   4.178   5.643
 5283TIP3   OH215793   1.293   1.686   2.343
 5283TIP3    H115794   1.209   1.643   2.326
 5283TIP3    H215795   1.289   1.768   2.294
 5284TIP3   OH215796   0.716   5.503   4.089
 5284TIP3    H115797   0.742   5.424   4.136
 5284TIP3    H215798   0.679   5.470   4.006
 5285TIP3   OH215799   3.867   2.620   6.611
 5285TIP3    H115800   3.856   2.525   6.617
 5285TIP3    H215801   3.796   2.656   6.663
 5286TIP3   OH215802   1.095   0.335   5.632
 5286TIP3    H115803   1.048   0.297   5.558
 5286TIP3    H215804   1.127   0.419   5.599
 5287TIP3   OH215805   3.435   7.766   2.401
 5287TIP3    H115806   3.456   7.676   2.376
 5287TIP3    H215807   3.343   7.776   2.378
 5288TIP3   OH215808   2.987   7.117   4.288
 5288TIP3    H115809   3.052   7.056   4.324
 5288TIP3    H215810   3.038   7.176   4.233
 5289TIP3   OH215811   6.891   0.524   2.186
 5289TIP3    H115812   6.851   0.608   2.163
 5289TIP3    H215813   6.975   0.547   2.224
 5290TIP3   OH215814   3.431   2.248   2.914
 5290TIP3    H115815   3.352   2.297   2.892
 5290TIP3    H215816   3.432   2.246   3.010
 5291TIP3   OH215817   0.376   2.579   4.256
 5291TIP3    H115818   0.410   2.490   4.247
 5291TIP3    H215819   0.295   2.569   4.306
 5292TIP3   OH215820   8.275   1.453   1.080
 5292TIP3    H115821   8.323   1.454   1.163
 5292TIP3    H215822   8.194   1.407   1.099
 5293TIP3   OH215823   2.587   0.706   0.123
 5293TIP3    H115824   2.495   0.721   0.101
 5293TIP3    H215825   2.584   0.649   0.201
 5294TIP3   OH215826   0.629   4.760   0.908
 5294TIP3    H115827   0.567   4.696   0.873
 5294TIP3    H215828   0.677   4.712   0.976
 5295TIP3   OH215829   2.240   7.325   5.225
 5295TIP3    H115830   2.333   7.321   5.248
 5295TIP3    H215831   2.205   7.396   5.279
 5296TIP3   OH215832   1.113   6.948   5.693
 5296TIP3    H115833   1.105   6.867   5.744
 5296TIP3    H215834   1.078   6.926   5.607
 5297TIP3   OH215835   4.257   6.686   3.749
 5297TIP3    H115836   4.207   6.605   3.749
 5297TIP3    H215837   4.338   6.665   3.795
 5298TIP3   OH215838   2.107   0.256   0.425
 5298TIP3    H115839   2.050   0.302   0.363
 5298TIP3    H215840   2.161   0.325   0.463
 5299TIP3   OH215841   4.728   3.389   2.715
 5299TIP3    H115842   4.648   3.353   2.754
 5299TIP3    H215843   4.735   3.478   2.751
 5300TIP3   OH215844   3.798   3.381   0.193
 5300TIP3    H115845   3.783   3.443   0.122
 5300TIP3    H215846   3.815   3.437   0.270
 5301TIP3   OH215847   6.253   1.962   4.966
 5301TIP3    H115848   6.346   1.951   4.946
 5301TIP3    H215849   6.247   2.048   5.008
 5302TIP3   OH215850   4.921   3.769   4.805
 5302TIP3    H115851   4.865   3.701   4.768
 5302TIP3    H215852   4.886   3.851   4.770
 5303TIP3   OH215853   5.978   5.752   1.454
 5303TIP3    H115854   5.982   5.677   1.514
 5303TIP3    H215855   5.986   5.829   1.511
 5304TIP3   OH215856   1.286   2.574   0.530
 5304TIP3    H115857   1.291   2.479   0.537
 5304TIP3    H215858   1.327   2.607   0.610
 5305TIP3   OH215859   7.914   7.014   3.882
 5305TIP3    H115860   7.946   7.062   3.958
 5305TIP3    H215861   7.888   7.082   3.820
 5306TIP3   OH215862   4.439   6.768   3.340
 5306TIP3    H115863   4.435   6.756   3.245
 5306TIP3    H215864   4.352   6.802   3.363
 5307TIP3   OH215865   8.324   2.657   6.258
 5307TIP3    H115866   8.239   2.681   6.223
 5307TIP3    H215867   8.307   2.629   6.348
 5308TIP3   OH215868   1.642   0.823   6.369
 5308TIP3    H115869   1.654   0.731   6.393
 5308TIP3    H215870   1.598   0.862   6.444
 5309TIP3   OH215871   5.193   1.754   1.030
 5309TIP3    H115872   5.182   1.782   0.939
 5309TIP3    H215873   5.105   1.729   1.059
 5310TIP3   OH215874   2.734   5.572   5.542
 5310TIP3    H115875   2.786   5.511   5.490
 5310TIP3    H215876   2.646   5.567   5.504
 5311TIP3   OH215877   0.724   1.833   6.617
 5311TIP3    H115878   0.811   1.794   6.622
 5311TIP3    H215879   0.695   1.815   6.527
 5312TIP3   OH215880   2.880   0.703   4.698
 5312TIP3    H115881   2.962   0.684   4.653
 5312TIP3    H215882   2.832   0.758   4.637
 5313TIP3   OH215883   4.067   2.081   2.680
 5313TIP3    H115884   4.103   2.154   2.631
 5313TIP3    H215885   4.091   2.003   2.630
 5314TIP3   OH215886   1.365   6.617   4.319
 5314TIP3    H115887   1.311   6.543   4.348
 5314TIP3    H215888   1.451   6.579   4.301
 5315TIP3   OH215889   2.206   4.031   0.232
 5315TIP3    H115890   2.155   3.952   0.249
 5315TIP3    H215891   2.268   4.036   0.306
 5316TIP3   OH215892   4.825   6.481   6.633
 5316TIP3    H115893   4.785   6.403   6.597
 5316TIP3    H215894   4.857   6.530   6.557
 5317TIP3   OH215895   7.380   4.417   3.497
 5317TIP3    H115896   7.353   4.352   3.432
 5317TIP3    H215897   7.437   4.369   3.557
 5318TIP3   OH215898   5.601   5.590   1.812
 5318TIP3    H115899   5.692   5.564   1.828
 5318TIP3    H215900   5.562   5.594   1.899
 5319TIP3   OH215901   3.346   1.335   6.770
 5319TIP3    H115902   3.387   1.336   6.683
 5319TIP3    H215903   3.400   1.274   6.821
 5320TIP3   OH215904   6.881   4.757   1.964
 5320TIP3    H115905   6.822   4.682   1.955
 5320TIP3    H215906   6.824   4.834   1.956
 5321TIP3   OH215907   6.023   2.296   1.856
 5321TIP3    H115908   5.931   2.277   1.872
 5321TIP3    H215909   6.030   2.391   1.866
 5322TIP3   OH215910   0.837   5.838   5.901
 5322TIP3    H115911   0.920   5.879   5.923
 5322TIP3    H215912   0.859   5.746   5.885
 5323TIP3   OH215913   1.023   3.267   6.430
 5323TIP3    H115914   1.052   3.228   6.348
 5323TIP3    H215915   1.103   3.280   6.480
 5324TIP3   OH215916   2.775   4.584   3.752
 5324TIP3    H115917   2.794   4.530   3.829
 5324TIP3    H215918   2.860   4.600   3.711
 5325TIP3   OH215919   0.213   6.257   4.876
 5325TIP3    H115920   0.174   6.319   4.815
 5325TIP3    H215921   0.281   6.212   4.826
 5326TIP3   OH215922   1.098   1.330   3.572
 5326TIP3    H115923   1.181   1.315   3.618
 5326TIP3    H215924   1.085   1.251   3.520
 5327TIP3   OH215925   7.941   5.287   0.008
 5327TIP3    H115926   7.896   5.322   0.084
 5327TIP3    H215927   7.894   5.206  -0.013
 5328TIP3   OH215928   5.410   6.211   6.231
 5328TIP3    H115929   5.492   6.192   6.277
 5328TIP3    H215930   5.381   6.126   6.198
 5329TIP3   OH215931   5.455   5.412   0.666
 5329TIP3    H115932   5.419   5.494   0.630
 5329TIP3    H215933   5.526   5.389   0.606
 5330TIP3   OH215934   6.803   2.548   5.022
 5330TIP3    H115935   6.884   2.598   5.014
 5330TIP3    H215936   6.832   2.460   5.046
 5331TIP3   OH215937   1.909   3.767   5.363
 5331TIP3    H115938   1.994   3.760   5.407
 5331TIP3    H215939   1.845   3.757   5.434
 5332TIP3   OH215940   0.735   1.235   0.353
 5332TIP3    H115941   0.645   1.262   0.367
 5332TIP3    H215942   0.787   1.299   0.403
 5333TIP3   OH215943   7.143   3.588   0.425
 5333TIP3    H115944   7.193   3.581   0.344
 5333TIP3    H215945   7.102   3.675   0.420
 5334TIP3   OH215946   0.489   0.991   2.319
 5334TIP3    H115947   0.519   0.954   2.402
 5334TIP3    H215948   0.455   1.078   2.342
 5335TIP3   OH215949   0.529   5.831   1.145
 5335TIP3    H115950   0.507   5.898   1.210
 5335TIP3    H215951   0.624   5.819   1.154
 5336TIP3   OH215952   6.416   5.380   0.302
 5336TIP3    H115953   6.433   5.473   0.321
 5336TIP3    H215954   6.320   5.373   0.306
 5337TIP3   OH215955   4.600   6.990   4.794
 5337TIP3    H115956   4.507   7.001   4.810
 5337TIP3    H215957   4.627   7.071   4.751
 5338TIP3   OH215958   5.255   6.629   5.330
 5338TIP3    H115959   5.329   6.661   5.279
 5338TIP3    H215960   5.216   6.708   5.368
 5339TIP3   OH215961   3.853   6.242   2.066
 5339TIP3    H115962   3.770   6.216   2.025
 5339TIP3    H215963   3.915   6.244   1.993
 5340TIP3   OH215964   6.327   3.277   4.776
 5340TIP3    H115965   6.370   3.259   4.860
 5340TIP3    H215966   6.362   3.363   4.750
 5341TIP3   OH215967   3.422   6.315   4.960
 5341TIP3    H115968   3.392   6.343   5.047
 5341TIP3    H215969   3.504   6.362   4.947
 5342TIP3   OH215970   4.467   4.858   2.062
 5342TIP3    H115971   4.528   4.891   1.997
 5342TIP3    H215972   4.520   4.844   2.140
 5343TIP3   OH215973   6.459   6.278   4.760
 5343TIP3    H115974   6.387   6.336   4.786
 5343TIP3    H215975   6.492   6.315   4.679
 5344TIP3   OH215976   2.154   6.288   4.103
 5344TIP3    H115977   2.108   6.245   4.031
 5344TIP3    H215978   2.085   6.307   4.167
 5345TIP3   OH215979   1.413   1.106   4.559
 5345TIP3    H115980   1.384   1.150   4.639
 5345TIP3    H215981   1.430   1.016   4.586
 5346TIP3   OH215982   2.131   6.735   1.022
 5346TIP3    H115983   2.148   6.763   0.932
 5346TIP3    H215984   2.050   6.780   1.047
 5347TIP3   OH215985   0.568   6.097   5.150
 5347TIP3    H115986   0.554   6.067   5.240
 5347TIP3    H215987   0.619   6.027   5.109
 5348TIP3   OH215988   1.264   4.963   1.802
 5348TIP3    H115989   1.255   4.939   1.895
 5348TIP3    H215990   1.355   4.994   1.795
 5349TIP3   OH215991   6.929   5.625   2.123
 5349TIP3    H115992   7.013   5.664   2.097
 5349TIP3    H215993   6.934   5.535   2.093
 5350TIP3   OH215994   3.295   7.597   6.792
 5350TIP3    H115995   3.309   7.692   6.786
 5350TIP3    H215996   3.247   7.575   6.712
 5351TIP3   OH215997   8.080   4.497   5.578
 5351TIP3    H115998   8.119   4.585   5.574
 5351TIP3    H215999   7.992   4.508   5.543
 5352TIP3   OH216000   6.026   3.118   5.150
 5352TIP3    H116001   6.070   3.107   5.235
 5352TIP3    H216002   5.963   3.189   5.165
 5353TIP3   OH216003   1.811   0.802   6.159
 5353TIP3    H116004   1.744   0.746   6.122
 5353TIP3    H216005   1.777   0.830   6.244
 5354TIP3   OH216006   0.410   4.172   4.987
 5354TIP3    H116007   0.443   4.102   5.043
 5354TIP3    H216008   0.381   4.127   4.907
 5355TIP3   OH216009   3.521   6.613   2.690
 5355TIP3    H116010   3.529   6.636   2.783
 5355TIP3    H216011   3.562   6.686   2.643
 5356TIP3   OH216012   1.738   1.057   6.044
 5356TIP3    H116013   1.785   0.989   6.093
 5356TIP3    H216014   1.649   1.054   6.079
 5357TIP3   OH216015   3.151   3.144   4.080
 5357TIP3    H116016   3.245   3.139   4.064
 5357TIP3    H216017   3.113   3.077   4.024
 5358TIP3   OH216018   4.332   3.128   0.364
 5358TIP3    H116019   4.249   3.102   0.324
 5358TIP3    H216020   4.359   3.206   0.316
 5359TIP3   OH216021   4.767   0.653   5.078
 5359TIP3    H116022   4.754   0.578   5.021
 5359TIP3    H216023   4.818   0.619   5.151
 5360TIP3   OH216024   3.435   2.360   0.398
 5360TIP3    H116025   3.521   2.360   0.442
 5360TIP3    H216026   3.455   2.340   0.307
 5361TIP3   OH216027   0.711   1.212   4.245
 5361TIP3    H116028   0.667   1.294   4.223
 5361TIP3    H216029   0.752   1.229   4.330
 5362TIP3   OH216030   7.750   1.512   2.628
 5362TIP3    H116031   7.795   1.538   2.708
 5362TIP3    H216032   7.819   1.472   2.574
 5363TIP3   OH216033   8.226   5.246   5.354
 5363TIP3    H116034   8.158   5.308   5.327
 5363TIP3    H216035   8.302   5.268   5.301
 5364TIP3   OH216036   6.272   0.976   1.069
 5364TIP3    H116037   6.209   0.922   1.117
 5364TIP3    H216038   6.261   0.949   0.978
 5365TIP3   OH216039   3.233   2.498   1.870
 5365TIP3    H116040   3.207   2.590   1.865
 5365TIP3    H216041   3.325   2.500   1.894
 5366TIP3   OH216042   2.272   6.113   1.552
 5366TIP3    H116043   2.355   6.139   1.592
 5366TIP3    H216044   2.242   6.192   1.507
 5367TIP3   OH216045   5.597   6.885   5.805
 5367TIP3    H116046   5.677   6.938   5.809
 5367TIP3    H216047   5.568   6.891   5.714
 5368TIP3   OH216048   5.561   3.714   5.847
 5368TIP3    H116049   5.609   3.640   5.884
 5368TIP3    H216050   5.612   3.740   5.771
 5369TIP3   OH216051   4.391   6.200   1.049
 5369TIP3    H116052   4.332   6.127   1.029
 5369TIP3    H216053   4.458   6.162   1.107
 5370TIP3   OH216054   0.906   5.590   6.549
 5370TIP3    H116055   0.866   5.674   6.531
 5370TIP3    H216056   0.880   5.534   6.476
 5371TIP3   OH216057   3.935   3.655   6.637
 5371TIP3    H116058   4.020   3.672   6.676
 5371TIP3    H216059   3.936   3.704   6.555
 5372TIP3   OH216060   7.226   7.340   6.407
 5372TIP3    H116061   7.186   7.253   6.398
 5372TIP3    H216062   7.174   7.395   6.348
 5373TIP3   OH216063   0.382   0.465   0.422
 5373TIP3    H116064   0.320   0.396   0.398
 5373TIP3    H216065   0.468   0.425   0.408
 5374TIP3   OH216066   3.169   1.119   1.390
 5374TIP3    H116067   3.139   1.210   1.398
 5374TIP3    H216068   3.098   1.075   1.342
 5375TIP3   OH216069   1.905   3.361   3.526
 5375TIP3    H116070   1.903   3.268   3.547
 5375TIP3    H216071   1.942   3.403   3.604
 5376TIP3   OH216072   8.181   2.489   5.126
 5376TIP3    H116073   8.183   2.533   5.041
 5376TIP3    H216074   8.097   2.514   5.164
 5377TIP3   OH216075   1.794   3.422   0.155
 5377TIP3    H116076   1.752   3.393   0.236
 5377TIP3    H216077   1.732   3.484   0.117
 5378TIP3   OH216078   1.216   3.094   0.539
 5378TIP3    H116079   1.292   3.036   0.543
 5378TIP3    H216080   1.235   3.165   0.600
 5379TIP3   OH216081   1.387   1.909   4.853
 5379TIP3    H116082   1.402   1.949   4.939
 5379TIP3    H216083   1.463   1.852   4.839
 5380TIP3   OH216084   6.816   3.611   4.995
 5380TIP3    H116085   6.871   3.542   5.032
 5380TIP3    H216086   6.815   3.679   5.063
 5381TIP3   OH216087   3.850   0.277   3.148
 5381TIP3    H116088   3.793   0.208   3.184
 5381TIP3    H216089   3.795   0.322   3.084
 5382TIP3   OH216090   6.822   3.841   5.152
 5382TIP3    H116091   6.732   3.866   5.174
 5382TIP3    H216092   6.855   3.914   5.099
 5383TIP3   OH216093   3.078   5.245   4.858
 5383TIP3    H116094   3.108   5.170   4.806
 5383TIP3    H216095   2.999   5.275   4.814
 5384TIP3   OH216096   3.450   2.131   6.600
 5384TIP3    H116097   3.453   2.148   6.506
 5384TIP3    H216098   3.450   2.217   6.640
 5385TIP3   OH216099   2.915   1.095   0.516
 5385TIP3    H116100   2.839   1.054   0.474
 5385TIP3    H216101   2.880   1.137   0.595
 5386TIP3   OH216102   7.411   1.254   1.386
 5386TIP3    H116103   7.342   1.239   1.451
 5386TIP3    H216104   7.371   1.227   1.303
 5387TIP3   OH216105   2.364   2.505   3.207
 5387TIP3    H116106   2.311   2.555   3.145
 5387TIP3    H216107   2.419   2.571   3.250
 5388TIP3   OH216108   2.569   0.147   6.160
 5388TIP3    H116109   2.588   0.053   6.149
 5388TIP3    H216110   2.652   0.190   6.142
 5389TIP3   OH216111   1.446   7.575   5.265
 5389TIP3    H116112   1.466   7.628   5.342
 5389TIP3    H216113   1.526   7.576   5.213
 5390TIP3   OH216114   0.247   2.148   0.573
 5390TIP3    H116115   0.158   2.118   0.555
 5390TIP3    H216116   0.248   2.164   0.668
 5391TIP3   OH216117   5.167   0.268   4.509
 5391TIP3    H116118   5.164   0.265   4.414
 5391TIP3    H216119   5.131   0.184   4.537
 5392TIP3   OH216120   5.077   0.116   2.925
 5392TIP3    H116121   5.062   0.210   2.918
 5392TIP3    H216122   5.067   0.097   3.018
 5393TIP3   OH216123   7.861   7.638   2.831
 5393TIP3    H116124   7.845   7.718   2.780
 5393TIP3    H216125   7.815   7.569   2.784
 5394TIP3   OH216126   5.349   6.298   0.355
 5394TIP3    H116127   5.443   6.317   0.351
 5394TIP3    H216128   5.340   6.238   0.429
 5395TIP3   OH216129   6.034   5.357   2.732
 5395TIP3    H116130   6.101   5.368   2.665
 5395TIP3    H216131   5.963   5.309   2.688
 5396TIP3   OH216132   7.044   2.853   0.251
 5396TIP3    H116133   6.972   2.915   0.237
 5396TIP3    H216134   7.030   2.784   0.186
 5397TIP3   OH216135   3.153   1.906   6.237
 5397TIP3    H116136   3.238   1.864   6.252
 5397TIP3    H216137   3.091   1.850   6.285
 5398TIP3   OH216138   3.929   1.878   3.871
 5398TIP3    H116139   3.995   1.811   3.856
 5398TIP3    H216140   3.912   1.915   3.784
 5399TIP3   OH216141   2.507   1.706   6.204
 5399TIP3    H116142   2.524   1.618   6.169
 5399TIP3    H216143   2.558   1.765   6.150
 5400TIP3   OH216144   2.904   1.727   1.697
 5400TIP3    H116145   2.905   1.777   1.778
 5400TIP3    H216146   2.824   1.757   1.652
 5401TIP3   OH216147   7.681   4.584   2.502
 5401TIP3    H116148   7.767   4.597   2.542
 5401TIP3    H216149   7.683   4.494   2.469
 5402TIP3   OH216150   1.088   3.805   0.332
 5402TIP3    H116151   1.003   3.764   0.318
 5402TIP3    H216152   1.148   3.757   0.275
 5403TIP3   OH216153   1.762   0.096   3.199
 5403TIP3    H116154   1.686   0.139   3.159
 5403TIP3    H216155   1.724   0.041   3.268
 5404TIP3   OH216156   7.581   3.974   1.697
 5404TIP3    H116157   7.627   4.020   1.768
 5404TIP3    H216158   7.639   3.982   1.622
 5405TIP3   OH216159   1.560   0.129   0.510
 5405TIP3    H116160   1.615   0.052   0.498
 5405TIP3    H216161   1.513   0.139   0.427
 5406TIP3   OH216162   4.440   1.900   5.500
 5406TIP3    H116163   4.442   1.894   5.405
 5406TIP3    H216164   4.519   1.855   5.529
 5407TIP3   OH216165   1.551   7.547   6.791
 5407TIP3    H116166   1.590   7.604   6.725
 5407TIP3    H216167   1.467   7.521   6.753
 5408TIP3   OH216168   4.825   4.715   1.671
 5408TIP3    H116169   4.780   4.637   1.702
 5408TIP3    H216170   4.765   4.787   1.690
 5409TIP3   OH216171   0.633   5.695   1.644
 5409TIP3    H116172   0.724   5.713   1.668
 5409TIP3    H216173   0.638   5.621   1.583
 5410TIP3   OH216174   5.225   2.774   6.518
 5410TIP3    H116175   5.250   2.865   6.537
 5410TIP3    H216176   5.131   2.779   6.497
 5411TIP3   OH216177   4.476   0.922   2.537
 5411TIP3    H116178   4.438   0.905   2.451
 5411TIP3    H216179   4.539   0.993   2.522
 5412TIP3   OH216180   5.256   1.837   3.253
 5412TIP3    H116181   5.277   1.757   3.205
 5412TIP3    H216182   5.194   1.810   3.320
 5413TIP3   OH216183   1.796   2.068   3.727
 5413TIP3    H116184   1.873   2.062   3.670
 5413TIP3    H216185   1.815   2.142   3.785
 5414TIP3   OH216186   2.641   5.605   4.869
 5414TIP3    H116187   2.666   5.683   4.918
 5414TIP3    H216188   2.712   5.591   4.807
 5415TIP3   OH216189   1.882   3.893   2.598
 5415TIP3    H116190   1.860   3.827   2.533
 5415TIP3    H216191   1.815   3.884   2.666
 5416TIP3   OH216192   0.326   5.685   3.300
 5416TIP3    H116193   0.406   5.683   3.247
 5416TIP3    H216194   0.326   5.773   3.338
 5417TIP3   OH216195   3.028   3.673   5.340
 5417TIP3    H116196   3.052   3.587   5.304
 5417TIP3    H216197   3.109   3.724   5.334
 5418TIP3   OH216198   6.144   0.193   6.467
 5418TIP3    H116199   6.069   0.235   6.425
 5418TIP3    H216200   6.158   0.113   6.417
 5419TIP3   OH216201   4.313   3.760   3.055
 5419TIP3    H116202   4.344   3.839   3.098
 5419TIP3    H216203   4.251   3.721   3.117
 5420TIP3   OH216204   2.456   2.743   3.308
 5420TIP3    H116205   2.458   2.804   3.382
 5420TIP3    H216206   2.376   2.767   3.260
 5421TIP3   OH216207   6.474   6.638   4.979
 5421TIP3    H116208   6.526   6.574   5.028
 5421TIP3    H216209   6.535   6.671   4.912
 5422TIP3   OH216210   1.371   6.730   6.029
 5422TIP3    H116211   1.340   6.752   5.941
 5422TIP3    H216212   1.461   6.700   6.016
 5423TIP3   OH216213   0.588   7.303   4.926
 5423TIP3    H116214   0.671   7.349   4.915
 5423TIP3    H216215   0.522   7.372   4.921
 5424TIP3   OH216216   7.981   4.125   0.619
 5424TIP3    H116217   8.008   4.041   0.654
 5424TIP3    H216218   7.965   4.109   0.526
 5425TIP3   OH216219   4.478   4.735   4.462
 5425TIP3    H116220   4.539   4.792   4.508
 5425TIP3    H216221   4.462   4.779   4.378
 5426TIP3   OH216222   2.841   5.117   5.019
 5426TIP3    H116223   2.745   5.110   5.024
 5426TIP3    H216224   2.862   5.197   5.067
 5427TIP3   OH216225   8.217   0.407   4.921
 5427TIP3    H116226   8.208   0.450   5.006
 5427TIP3    H216227   8.150   0.338   4.921
 5428TIP3   OH216228   4.042   7.069   2.552
 5428TIP3    H116229   4.096   7.018   2.612
 5428TIP3    H216230   4.070   7.160   2.567
 5429TIP3   OH216231   3.719   7.556   5.191
 5429TIP3    H116232   3.643   7.506   5.222
 5429TIP3    H216233   3.693   7.647   5.201
 5430TIP3   OH216234   1.179   1.323   1.141
 5430TIP3    H116235   1.092   1.364   1.134
 5430TIP3    H216236   1.233   1.372   1.079
 5431TIP3   OH216237   1.323   5.542   2.112
 5431TIP3    H116238   1.351   5.583   2.194
 5431TIP3    H216239   1.281   5.612   2.064
 5432TIP3   OH216240   7.931   7.390   5.344
 5432TIP3    H116241   7.838   7.397   5.324
 5432TIP3    H216242   7.935   7.379   5.439
 5433TIP3   OH216243   1.462   1.539   3.802
 5433TIP3    H116244   1.520   1.600   3.848
 5433TIP3    H216245   1.440   1.473   3.868
 5434TIP3   OH216246   0.459   3.154   5.958
 5434TIP3    H116247   0.383   3.096   5.957
 5434TIP3    H216248   0.494   3.149   5.869
 5435TIP3   OH216249   3.607   5.922   5.117
 5435TIP3    H116250   3.535   5.934   5.055
 5435TIP3    H216251   3.565   5.885   5.195
 5436TIP3   OH216252   2.399   2.522   1.763
 5436TIP3    H116253   2.371   2.557   1.848
 5436TIP3    H216254   2.431   2.434   1.783
 5437TIP3   OH216255   6.577   0.503   5.101
 5437TIP3    H116256   6.667   0.527   5.120
 5437TIP3    H216257   6.574   0.408   5.113
 5438TIP3   OH216258   0.533   5.947   1.618
 5438TIP3    H116259   0.597   5.991   1.561
 5438TIP3    H216260   0.571   5.860   1.632
 5439TIP3   OH216261   7.649   0.969   5.165
 5439TIP3    H116262   7.633   0.993   5.256
 5439TIP3    H216263   7.724   0.910   5.169
 5440TIP3   OH216264   1.100   3.988   4.613
 5440TIP3    H116265   1.032   3.921   4.623
 5440TIP3    H216266   1.088   4.021   4.524
 5441TIP3   OH216267   4.883   7.111   6.035
 5441TIP3    H116268   4.887   7.016   6.039
 5441TIP3    H216269   4.810   7.135   6.092
 5442TIP3   OH216270   0.606   7.625   4.730
 5442TIP3    H116271   0.583   7.713   4.759
 5442TIP3    H216272   0.682   7.601   4.783
 5443TIP3   OH216273   2.686   3.712   0.067
 5443TIP3    H116274   2.674   3.753  -0.018
 5443TIP3    H216275   2.598   3.685   0.094
 5444TIP3   OH216276   0.721   7.818   6.260
 5444TIP3    H116277   0.659   7.852   6.195
 5444TIP3    H216278   0.750   7.734   6.224
 5445TIP3   OH216279   6.013   3.859   0.683
 5445TIP3    H116280   5.950   3.886   0.616
 5445TIP3    H216281   6.062   3.938   0.704
 5446TIP3   OH216282   6.812   4.394   0.662
 5446TIP3    H116283   6.851   4.314   0.627
 5446TIP3    H216284   6.887   4.449   0.684
 5447TIP3   OH216285   5.185   5.535   6.458
 5447TIP3    H116286   5.230   5.462   6.416
 5447TIP3    H216287   5.256   5.587   6.496
 5448TIP3   OH216288   7.758   4.305   6.378
 5448TIP3    H116289   7.672   4.324   6.342
 5448TIP3    H216290   7.794   4.391   6.399
 5449TIP3   OH216291   1.393   1.143   2.509
 5449TIP3    H116292   1.428   1.230   2.529
 5449TIP3    H216293   1.425   1.087   2.580
 5450TIP3   OH216294   6.403   2.252   4.666
 5450TIP3    H116295   6.437   2.330   4.621
 5450TIP3    H216296   6.331   2.222   4.610
 5451TIP3   OH216297   7.462   5.978   1.629
 5451TIP3    H116298   7.491   5.894   1.667
 5451TIP3    H216299   7.507   6.044   1.680
 5452TIP3   OH216300   6.654   5.560   3.434
 5452TIP3    H116301   6.664   5.480   3.383
 5452TIP3    H216302   6.628   5.626   3.369
 5453TIP3   OH216303   0.624   7.595   1.744
 5453TIP3    H116304   0.569   7.672   1.727
 5453TIP3    H216305   0.686   7.595   1.672
 5454TIP3   OH216306   8.009   1.997   6.518
 5454TIP3    H116307   8.058   2.040   6.449
 5454TIP3    H216308   7.918   2.000   6.488
 5455TIP3   OH216309   4.589   0.033   4.522
 5455TIP3    H116310   4.640   0.081   4.456
 5455TIP3    H216311   4.622  -0.057   4.516
 5456TIP3   OH216312   1.051   6.477   0.029
 5456TIP3    H116313   0.970   6.494  -0.019
 5456TIP3    H216314   1.078   6.563   0.061
 5457TIP3   OH216315   1.306   2.262   1.316
 5457TIP3    H116316   1.354   2.302   1.388
 5457TIP3    H216317   1.254   2.334   1.279
 5458TIP3   OH216318   8.279   6.291   2.620
 5458TIP3    H116319   8.252   6.379   2.595
 5458TIP3    H216320   8.268   6.238   2.541
 5459TIP3   OH216321   3.709   1.878   3.117
 5459TIP3    H116322   3.692   1.936   3.043
 5459TIP3    H216323   3.786   1.915   3.159
 5460TIP3   OH216324   6.334   3.061   5.894
 5460TIP3    H116325   6.369   3.127   5.835
 5460TIP3    H216326   6.400   3.051   5.962
 5461TIP3   OH216327   3.008   1.621   2.418
 5461TIP3    H116328   2.920   1.620   2.457
 5461TIP3    H216329   3.050   1.542   2.452
 5462TIP3   OH216330   2.729   0.653   6.743
 5462TIP3    H116331   2.661   0.639   6.676
 5462TIP3    H216332   2.724   0.746   6.763
 5463TIP3   OH216333   5.005   0.796   3.712
 5463TIP3    H116334   5.017   0.761   3.801
 5463TIP3    H216335   4.910   0.796   3.699
 5464TIP3   OH216336   2.524   5.343   6.236
 5464TIP3    H116337   2.538   5.418   6.178
 5464TIP3    H216338   2.585   5.277   6.205
 5465TIP3   OH216339   6.062   2.435   4.383
 5465TIP3    H116340   6.044   2.490   4.459
 5465TIP3    H216341   6.000   2.465   4.317
 5466TIP3   OH216342   0.957   6.887   6.577
 5466TIP3    H116343   0.924   6.957   6.632
 5466TIP3    H216344   0.949   6.920   6.488
 5467TIP3   OH216345   1.371   6.052   2.508
 5467TIP3    H116346   1.286   6.065   2.466
 5467TIP3    H216347   1.427   6.020   2.438
 5468TIP3   OH216348   5.737   0.704   5.898
 5468TIP3    H116349   5.824   0.666   5.894
 5468TIP3    H216350   5.732   0.741   5.987
 5469TIP3   OH216351   0.174   5.841   4.315
 5469TIP3    H116352   0.221   5.923   4.297
 5469TIP3    H216353   0.243   5.774   4.319
 5470TIP3   OH216354   6.146   3.523   2.799
 5470TIP3    H116355   6.183   3.487   2.719
 5470TIP3    H216356   6.052   3.530   2.780
 5471TIP3   OH216357   3.832   3.873   3.703
 5471TIP3    H116358   3.842   3.837   3.791
 5471TIP3    H216359   3.804   3.964   3.717
 5472TIP3   OH216360   7.961   6.064   2.529
 5472TIP3    H116361   7.872   6.054   2.563
 5472TIP3    H216362   7.991   5.974   2.516
 5473TIP3   OH216363   4.369   5.662   5.906
 5473TIP3    H116364   4.342   5.637   5.817
 5473TIP3    H216365   4.357   5.757   5.908
 5474TIP3   OH216366   6.886   2.188   6.282
 5474TIP3    H116367   6.828   2.160   6.210
 5474TIP3    H216368   6.879   2.118   6.347
 5475TIP3   OH216369   3.777   2.054   0.597
 5475TIP3    H116370   3.777   1.971   0.645
 5475TIP3    H216371   3.714   2.041   0.527
 5476TIP3   OH216372   4.593   5.307   6.628
 5476TIP3    H116373   4.621   5.380   6.684
 5476TIP3    H216374   4.498   5.314   6.627
 5477TIP3   OH216375   2.581   3.082   1.183
 5477TIP3    H116376   2.498   3.130   1.178
 5477TIP3    H216377   2.602   3.079   1.276
 5478TIP3   OH216378   6.986   5.736   0.250
 5478TIP3    H116379   7.062   5.734   0.192
 5478TIP3    H216380   6.978   5.647   0.283
 5479TIP3   OH216381   3.992   4.344   4.012
 5479TIP3    H116382   3.964   4.420   4.063
 5479TIP3    H216383   4.039   4.381   3.937
 5480TIP3   OH216384   2.167   1.481   1.186
 5480TIP3    H116385   2.166   1.420   1.260
 5480TIP3    H216386   2.136   1.430   1.112
 5481TIP3   OH216387   3.812   3.836   4.255
 5481TIP3    H116388   3.719   3.861   4.252
 5481TIP3    H216389   3.855   3.910   4.298
 5482TIP3   OH216390   3.212   4.481   3.912
 5482TIP3    H116391   3.209   4.573   3.886
 5482TIP3    H216392   3.276   4.441   3.853
 5483TIP3   OH216393   4.164   4.619   3.227
 5483TIP3    H116394   4.131   4.620   3.317
 5483TIP3    H216395   4.241   4.676   3.229
 5484TIP3   OH216396   6.067   0.692   4.710
 5484TIP3    H116397   6.152   0.690   4.667
 5484TIP3    H216398   6.061   0.781   4.746
 5485TIP3   OH216399   4.417   4.668   2.293
 5485TIP3    H116400   4.351   4.600   2.308
 5485TIP3    H216401   4.456   4.644   2.209
 5486TIP3   OH216402   4.088   5.323   0.991
 5486TIP3    H116403   4.092   5.236   0.952
 5486TIP3    H216404   4.139   5.379   0.932
 5487TIP3   OH216405   8.281   4.444   5.892
 5487TIP3    H116406   8.328   4.426   5.811
 5487TIP3    H216407   8.220   4.515   5.869
 5488TIP3   OH216408   5.062   7.382   1.256
 5488TIP3    H116409   4.985   7.378   1.313
 5488TIP3    H216410   5.070   7.475   1.234
 5489TIP3   OH216411   2.068   5.930   1.634
 5489TIP3    H116412   2.002   5.996   1.654
 5489TIP3    H216413   2.141   5.980   1.597
 5490TIP3   OH216414   4.003   5.981   2.610
 5490TIP3    H116415   3.948   5.970   2.687
 5490TIP3    H216416   3.952   5.944   2.538
 5491TIP3   OH216417   6.637   5.712   3.215
 5491TIP3    H116418   6.588   5.791   3.235
 5491TIP3    H216419   6.693   5.736   3.141
 5492TIP3   OH216420   4.737   0.756   6.351
 5492TIP3    H116421   4.779   0.712   6.277
 5492TIP3    H216422   4.795   0.740   6.425
 5493TIP3   OH216423   2.828   7.682   4.026
 5493TIP3    H116424   2.806   7.612   4.088
 5493TIP3    H216425   2.823   7.640   3.940
 5494TIP3   OH216426   8.046   3.242   0.148
 5494TIP3    H116427   7.958   3.204   0.148
 5494TIP3    H216428   8.056   3.280   0.235
 5495TIP3   OH216429   7.786   6.231   3.680
 5495TIP3    H116430   7.786   6.313   3.729
 5495TIP3    H216431   7.733   6.250   3.602
 5496TIP3   OH216432   7.050   7.098   6.092
 5496TIP3    H116433   7.137   7.125   6.120
 5496TIP3    H216434   6.990   7.140   6.154
 5497TIP3   OH216435   0.487   1.560   1.011
 5497TIP3    H116436   0.569   1.599   1.039
 5497TIP3    H216437   0.421   1.597   1.069
 5498TIP3   OH216438   5.029   2.313   6.275
 5498TIP3    H116439   5.031   2.394   6.224
 5498TIP3    H216440   5.121   2.287   6.281
 5499TIP3   OH216441   0.431   1.883   3.556
 5499TIP3    H116442   0.483   1.807   3.581
 5499TIP3    H216443   0.461   1.905   3.468
 5500TIP3   OH216444   0.298   6.110   4.311
 5500TIP3    H116445   0.346   6.164   4.374
 5500TIP3    H216446   0.258   6.173   4.251
 5501TIP3   OH216447   7.092   3.411   0.621
 5501TIP3    H116448   7.008   3.430   0.663
 5501TIP3    H216449   7.107   3.485   0.562
 5502TIP3   OH216450   4.845   1.907   4.761
 5502TIP3    H116451   4.930   1.869   4.741
 5502TIP3    H216452   4.856   1.948   4.847
 5503TIP3   OH216453   6.563   0.682   6.415
 5503TIP3    H116454   6.539   0.644   6.500
 5503TIP3    H216455   6.494   0.746   6.397
 5504TIP3   OH216456   4.278   4.401   3.595
 5504TIP3    H116457   4.212   4.455   3.553
 5504TIP3    H216458   4.237   4.316   3.607
 5505TIP3   OH216459   5.479   2.591   4.557
 5505TIP3    H116460   5.434   2.523   4.507
 5505TIP3    H216461   5.429   2.599   4.638
 5506TIP3   OH216462   5.042   6.962   0.497
 5506TIP3    H116463   5.006   6.886   0.542
 5506TIP3    H216464   5.133   6.967   0.528
 5507TIP3   OH216465   6.152   0.343   6.707
 5507TIP3    H116466   6.174   0.295   6.627
 5507TIP3    H216467   6.160   0.435   6.682
 5508TIP3   OH216468   7.114   4.106   6.074
 5508TIP3    H116469   7.048   4.039   6.057
 5508TIP3    H216470   7.176   4.097   6.002
 5509TIP3   OH216471   1.684   4.361   3.608
 5509TIP3    H116472   1.673   4.379   3.702
 5509TIP3    H216473   1.725   4.275   3.605
 5510TIP3   OH216474   5.276   3.339   5.942
 5510TIP3    H116475   5.193   3.363   5.900
 5510TIP3    H216476   5.267   3.246   5.961
 5511TIP3   OH216477   2.207   1.796   5.346
 5511TIP3    H116478   2.266   1.860   5.386
 5511TIP3    H216479   2.245   1.779   5.260
 5512TIP3   OH216480   7.548   1.339   0.174
 5512TIP3    H116481   7.553   1.325   0.269
 5512TIP3    H216482   7.631   1.381   0.151
 5513TIP3   OH216483   4.290   2.160   0.944
 5513TIP3    H116484   4.226   2.192   0.881
 5513TIP3    H216485   4.310   2.071   0.914
 5514TIP3   OH216486   7.908   0.855   5.016
 5514TIP3    H116487   7.982   0.814   4.972
 5514TIP3    H216488   7.858   0.896   4.945
 5515TIP3   OH216489   5.709   1.061   1.683
 5515TIP3    H116490   5.654   1.101   1.616
 5515TIP3    H216491   5.733   0.976   1.647
 5516TIP3   OH216492   4.172   4.823   6.653
 5516TIP3    H116493   4.129   4.807   6.569
 5516TIP3    H216494   4.150   4.914   6.675
 5517TIP3   OH216495   6.791   4.682   2.271
 5517TIP3    H116496   6.708   4.687   2.318
 5517TIP3    H216497   6.766   4.655   2.182
 5518TIP3   OH216498   0.592   5.754   5.960
 5518TIP3    H116499   0.576   5.755   5.865
 5518TIP3    H216500   0.677   5.797   5.970
 5519TIP3   OH216501   6.033   1.022   5.286
 5519TIP3    H116502   5.965   0.965   5.321
 5519TIP3    H216503   6.033   1.004   5.192
 5520TIP3   OH216504   7.273   6.631   4.321
 5520TIP3    H116505   7.230   6.556   4.361
 5520TIP3    H216506   7.367   6.612   4.327
 5521TIP3   OH216507   5.785   3.433   3.982
 5521TIP3    H116508   5.730   3.466   3.911
 5521TIP3    H216509   5.814   3.347   3.952
 5522TIP3   OH216510   6.587   2.578   2.523
 5522TIP3    H116511   6.596   2.571   2.428
 5522TIP3    H216512   6.512   2.523   2.544
 5523TIP3   OH216513   0.286   4.319   6.373
 5523TIP3    H116514   0.222   4.273   6.319
 5523TIP3    H216515   0.277   4.411   6.348
 5524TIP3   OH216516   1.188   2.741   2.042
 5524TIP3    H116517   1.103   2.748   2.087
 5524TIP3    H216518   1.187   2.653   2.005
 5525TIP3   OH216519   6.600   0.476   6.670
 5525TIP3    H116520   6.669   0.413   6.649
 5525TIP3    H216521   6.519   0.435   6.639
 5526TIP3   OH216522   5.578   5.728   5.664
 5526TIP3    H116523   5.556   5.660   5.727
 5526TIP3    H216524   5.517   5.799   5.682
 5527TIP3   OH216525   1.132   2.716   4.144
 5527TIP3    H116526   1.065   2.782   4.160
 5527TIP3    H216527   1.141   2.713   4.048
 5528TIP3   OH216528   1.196   4.529   0.504
 5528TIP3    H116529   1.180   4.459   0.442
 5528TIP3    H216530   1.259   4.587   0.460
 5529TIP3   OH216531   5.334   4.552   3.910
 5529TIP3    H116532   5.330   4.646   3.893
 5529TIP3    H216533   5.333   4.545   4.006
 5530TIP3   OH216534   5.589   2.919   4.219
 5530TIP3    H116535   5.682   2.942   4.221
 5530TIP3    H216536   5.564   2.911   4.312
 5531TIP3   OH216537   3.711   4.338   0.029
 5531TIP3    H116538   3.688   4.419   0.075
 5531TIP3    H216539   3.725   4.365  -0.061
 5532TIP3   OH216540   3.903   5.305   1.384
 5532TIP3    H116541   3.971   5.302   1.451
 5532TIP3    H216542   3.841   5.237   1.410
 5533TIP3   OH216543   8.058   4.134   3.609
 5533TIP3    H116544   8.054   4.039   3.599
 5533TIP3    H216545   7.971   4.164   3.583
 5534TIP3   OH216546   5.533   6.194   4.893
 5534TIP3    H116547   5.490   6.221   4.975
 5534TIP3    H216548   5.461   6.188   4.830
 5535TIP3   OH216549   4.639   7.568   4.542
 5535TIP3    H116550   4.629   7.514   4.464
 5535TIP3    H216551   4.572   7.537   4.602
 5536TIP3   OH216552   3.951   0.713   3.238
 5536TIP3    H116553   4.007   0.636   3.224
 5536TIP3    H216554   3.954   0.760   3.155
 5537TIP3   OH216555   0.204   7.456   1.774
 5537TIP3    H116556   0.271   7.413   1.827
 5537TIP3    H216557   0.126   7.456   1.829
 5538TIP3   OH216558   1.561   0.135   3.022
 5538TIP3    H116559   1.522   0.221   3.008
 5538TIP3    H216560   1.502   0.074   2.977
 5539TIP3   OH216561   1.770   6.309   3.841
 5539TIP3    H116562   1.770   6.393   3.795
 5539TIP3    H216563   1.704   6.257   3.795
 5540TIP3   OH216564   8.219   1.832   4.870
 5540TIP3    H116565   8.309   1.813   4.843
 5540TIP3    H216566   8.178   1.745   4.878
 5541TIP3   OH216567   3.887   7.663   3.418
 5541TIP3    H116568   3.885   7.685   3.325
 5541TIP3    H216569   3.919   7.742   3.460
 5542TIP3   OH216570   0.616   1.832   3.062
 5542TIP3    H116571   0.533   1.858   3.103
 5542TIP3    H216572   0.594   1.816   2.971
 5543TIP3   OH216573   0.157   1.300   6.373
 5543TIP3    H116574   0.168   1.213   6.410
 5543TIP3    H216575   0.085   1.291   6.311
 5544TIP3   OH216576   3.645   6.962   1.466
 5544TIP3    H116577   3.707   7.032   1.483
 5544TIP3    H216578   3.699   6.883   1.458
 5545TIP3   OH216579   0.270   4.813   1.501
 5545TIP3    H116580   0.203   4.845   1.441
 5545TIP3    H216581   0.274   4.879   1.570
 5546TIP3   OH216582   2.518   7.798   5.034
 5546TIP3    H116583   2.476   7.745   5.102
 5546TIP3    H216584   2.538   7.736   4.964
 5547TIP3   OH216585   1.561   5.510   5.059
 5547TIP3    H116586   1.509   5.437   5.026
 5547TIP3    H216587   1.628   5.469   5.114
 5548TIP3   OH216588   7.224   0.699   3.819
 5548TIP3    H116589   7.223   0.766   3.751
 5548TIP3    H216590   7.178   0.625   3.779
 5549TIP3   OH216591   2.031   1.970   4.962
 5549TIP3    H116592   2.053   2.052   5.005
 5549TIP3    H216593   2.050   1.902   5.026
 5550TIP3   OH216594   6.425   4.269   1.575
 5550TIP3    H116595   6.380   4.284   1.658
 5550TIP3    H216596   6.474   4.188   1.589
 5551TIP3   OH216597   3.207   7.083   3.876
 5551TIP3    H116598   3.266   7.151   3.843
 5551TIP3    H216599   3.244   7.001   3.843
 5552TIP3   OH216600   0.896   2.155   3.701
 5552TIP3    H116601   0.895   2.228   3.639
 5552TIP3    H216602   0.810   2.158   3.743
 5553TIP3   OH216603   1.240   6.375   6.458
 5553TIP3    H116604   1.322   6.424   6.460
 5553TIP3    H216605   1.256   6.303   6.397
 5554TIP3   OH216606   8.168   2.919   6.173
 5554TIP3    H116607   8.233   2.924   6.244
 5554TIP3    H216608   8.159   3.009   6.143
 5555TIP3   OH216609   6.521   0.034   3.118
 5555TIP3    H116610   6.576  -0.042   3.139
 5555TIP3    H216611   6.541   0.053   3.027
 5556TIP3   OH216612   0.849   2.443   1.068
 5556TIP3    H116613   0.907   2.444   0.992
 5556TIP3    H216614   0.815   2.354   1.071
 5557TIP3   OH216615   1.404   7.451   6.528
 5557TIP3    H116616   1.420   7.356   6.528
 5557TIP3    H216617   1.398   7.473   6.435
 5558TIP3   OH216618   4.758   2.677   1.668
 5558TIP3    H116619   4.733   2.751   1.723
 5558TIP3    H216620   4.833   2.708   1.618
 5559TIP3   OH216621   7.819   7.577   2.155
 5559TIP3    H116622   7.796   7.636   2.083
 5559TIP3    H216623   7.883   7.627   2.207
 5560TIP3   OH216624   3.675   1.194   4.576
 5560TIP3    H116625   3.604   1.198   4.640
 5560TIP3    H216626   3.740   1.256   4.607
 5561TIP3   OH216627   3.946   6.626   1.769
 5561TIP3    H116628   3.946   6.721   1.777
 5561TIP3    H216629   3.882   6.596   1.834
 5562TIP3   OH216630   7.804   6.422   0.997
 5562TIP3    H116631   7.855   6.395   1.073
 5562TIP3    H216632   7.832   6.513   0.982
 5563TIP3   OH216633   7.990   3.507   3.941
 5563TIP3    H116634   8.061   3.561   3.977
 5563TIP3    H216635   7.923   3.507   4.009
 5564TIP3   OH216636   4.673   6.772   4.614
 5564TIP3    H116637   4.619   6.818   4.677
 5564TIP3    H216638   4.756   6.820   4.614
 5565TIP3   OH216639   2.105   0.590   0.663
 5565TIP3    H116640   2.027   0.570   0.612
 5565TIP3    H216641   2.178   0.565   0.607
 5566TIP3   OH216642   2.853   4.102   6.286
 5566TIP3    H116643   2.778   4.159   6.305
 5566TIP3    H216644   2.882   4.130   6.199
 5567TIP3   OH216645   2.352   4.057   4.204
 5567TIP3    H116646   2.332   3.987   4.267
 5567TIP3    H216647   2.401   4.014   4.134
 5568TIP3   OH216648   2.616   2.534   2.107
 5568TIP3    H116649   2.552   2.605   2.116
 5568TIP3    H216650   2.663   2.555   2.026
 5569TIP3   OH216651   0.740   7.636   5.469
 5569TIP3    H116652   0.676   7.570   5.439
 5569TIP3    H216653   0.774   7.673   5.388
 5570TIP3   OH216654   0.463   4.874   4.988
 5570TIP3    H116655   0.428   4.796   5.029
 5570TIP3    H216656   0.512   4.918   5.057
 5571TIP3   OH216657   4.693   5.223   4.279
 5571TIP3    H116658   4.736   5.255   4.201
 5571TIP3    H216659   4.608   5.267   4.279
 5572TIP3   OH216660   3.447   1.576   3.976
 5572TIP3    H116661   3.470   1.484   3.986
 5572TIP3    H216662   3.408   1.601   4.059
 5573TIP3   OH216663   7.347   1.550   1.679
 5573TIP3    H116664   7.421   1.555   1.739
 5573TIP3    H216665   7.311   1.462   1.692
 5574TIP3   OH216666   6.761   1.295   2.685
 5574TIP3    H116667   6.718   1.312   2.601
 5574TIP3    H216668   6.817   1.219   2.668
 5575TIP3   OH216669   3.707   0.911   5.423
 5575TIP3    H116670   3.790   0.865   5.409
 5575TIP3    H216671   3.663   0.907   5.338
 5576TIP3   OH216672   1.789   1.257   0.657
 5576TIP3    H116673   1.729   1.308   0.603
 5576TIP3    H216674   1.858   1.230   0.596
 5577TIP3   OH216675   2.315   0.532   2.891
 5577TIP3    H116676   2.366   0.592   2.837
 5577TIP3    H216677   2.290   0.584   2.968
 5578TIP3   OH216678   4.188   4.358   0.355
 5578TIP3    H116679   4.212   4.375   0.264
 5578TIP3    H216680   4.114   4.297   0.348
 5579TIP3   OH216681   7.276   4.909   0.008
 5579TIP3    H116682   7.292   4.964   0.085
 5579TIP3    H216683   7.220   4.963  -0.049
 5580TIP3   OH216684   5.174   4.658   6.022
 5580TIP3    H116685   5.223   4.577   6.038
 5580TIP3    H216686   5.231   4.727   6.056
 5581TIP3   OH216687   3.096   0.723   0.068
 5581TIP3    H116688   3.020   0.758   0.021
 5581TIP3    H216689   3.132   0.656   0.010
 5582TIP3   OH216690   7.376   4.965   5.554
 5582TIP3    H116691   7.368   5.002   5.642
 5582TIP3    H216692   7.465   4.930   5.552
 5583TIP3   OH216693   4.782   1.964   1.528
 5583TIP3    H116694   4.706   1.906   1.529
 5583TIP3    H216695   4.842   1.925   1.465
 5584TIP3   OH216696   7.583   1.490   1.412
 5584TIP3    H116697   7.527   1.565   1.431
 5584TIP3    H216698   7.522   1.419   1.391
 5585TIP3   OH216699   6.956   2.600   5.833
 5585TIP3    H116700   7.020   2.560   5.774
 5585TIP3    H216701   6.880   2.617   5.778
 5586TIP3   OH216702   4.212   7.512   3.286
 5586TIP3    H116703   4.262   7.544   3.211
 5586TIP3    H216704   4.225   7.578   3.354
 5587TIP3   OH216705   2.846   7.781   4.479
 5587TIP3    H116706   2.890   7.844   4.422
 5587TIP3    H216707   2.917   7.741   4.529
 5588TIP3   OH216708   1.712   4.295   2.353
 5588TIP3    H116709   1.706   4.231   2.282
 5588TIP3    H216710   1.621   4.315   2.374
 5589TIP3   OH216711   8.062   1.603   1.619
 5589TIP3    H116712   7.992   1.539   1.630
 5589TIP3    H216713   8.117   1.591   1.697
 5590TIP3   OH216714   2.688   6.787   4.281
 5590TIP3    H116715   2.731   6.742   4.354
 5590TIP3    H216716   2.678   6.719   4.214
 5591TIP3   OH216717   7.287   4.693   6.370
 5591TIP3    H116718   7.334   4.640   6.306
 5591TIP3    H216719   7.246   4.763   6.318
 5592TIP3   OH216720   4.015   1.708   0.096
 5592TIP3    H116721   3.966   1.722   0.177
 5592TIP3    H216722   4.039   1.615   0.098
 5593TIP3   OH216723   2.586   1.681   3.896
 5593TIP3    H116724   2.630   1.727   3.825
 5593TIP3    H216725   2.494   1.675   3.868
 5594TIP3   OH216726   5.820   3.123   1.987
 5594TIP3    H116727   5.808   3.106   1.893
 5594TIP3    H216728   5.875   3.050   2.017
 5595TIP3   OH216729   0.139   7.692   0.174
 5595TIP3    H116730   0.143   7.741   0.092
 5595TIP3    H216731   0.087   7.747   0.232
 5596TIP3   OH216732   2.395   7.144   4.179
 5596TIP3    H116733   2.467   7.185   4.227
 5596TIP3    H216734   2.325   7.209   4.180
 5597TIP3   OH216735   6.424   6.728   3.414
 5597TIP3    H116736   6.362   6.800   3.398
 5597TIP3    H216737   6.477   6.758   3.487
 5598TIP3   OH216738   5.693   0.552   4.829
 5598TIP3    H116739   5.769   0.519   4.781
 5598TIP3    H216740   5.663   0.627   4.777
 5599TIP3   OH216741   7.917   5.587   5.331
 5599TIP3    H116742   7.912   5.675   5.368
 5599TIP3    H216743   7.922   5.530   5.408
 5600TIP3   OH216744   4.850   0.211   5.414
 5600TIP3    H116745   4.758   0.215   5.440
 5600TIP3    H216746   4.849   0.227   5.319
 5601TIP3   OH216747   8.248   3.588   6.529
 5601TIP3    H116748   8.199   3.586   6.611
 5601TIP3    H216749   8.318   3.524   6.542
 5602TIP3   OH216750   2.539   5.941   2.648
 5602TIP3    H116751   2.619   5.920   2.601
 5602TIP3    H216752   2.529   5.870   2.712
 5603TIP3   OH216753   6.521   6.500   0.148
 5603TIP3    H116754   6.456   6.460   0.206
 5603TIP3    H216755   6.602   6.454   0.167
 5604TIP3   OH216756   0.924   6.489   4.847
 5604TIP3    H116757   0.890   6.400   4.847
 5604TIP3    H216758   0.905   6.522   4.759
 5605TIP3   OH216759   4.455   2.952   6.315
 5605TIP3    H116760   4.459   2.860   6.288
 5605TIP3    H216761   4.377   2.957   6.371
 5606TIP3   OH216762   5.008   2.633   6.754
 5606TIP3    H116763   5.026   2.592   6.669
 5606TIP3    H216764   4.936   2.693   6.737
 5607TIP3   OH216765   1.819   6.297   0.432
 5607TIP3    H116766   1.873   6.220   0.447
 5607TIP3    H216767   1.733   6.263   0.411
 5608TIP3   OH216768   4.605   1.528   5.927
 5608TIP3    H116769   4.638   1.601   5.876
 5608TIP3    H216770   4.617   1.555   6.018
 5609TIP3   OH216771   0.971   1.557   4.064
 5609TIP3    H116772   0.974   1.501   4.142
 5609TIP3    H216773   0.879   1.584   4.059
 5610TIP3   OH216774   7.805   3.927   5.262
 5610TIP3    H116775   7.875   3.931   5.326
 5610TIP3    H216776   7.849   3.937   5.177
 5611TIP3   OH216777   1.689   4.569   2.223
 5611TIP3    H116778   1.731   4.484   2.234
 5611TIP3    H216779   1.611   4.550   2.170
 5612TIP3   OH216780   7.057   0.099   5.013
 5612TIP3    H116781   7.104   0.032   4.964
 5612TIP3    H216782   6.970   0.101   4.976
 5613TIP3   OH216783   0.671   4.834   6.389
 5613TIP3    H116784   0.663   4.921   6.350
 5613TIP3    H216785   0.684   4.851   6.483
 5614TIP3   OH216786   4.042   0.164   0.334
 5614TIP3    H116787   4.000   0.191   0.416
 5614TIP3    H216788   4.109   0.101   0.361
 5615TIP3   OH216789   0.664   1.573   2.782
 5615TIP3    H116790   0.600   1.511   2.747
 5615TIP3    H216791   0.652   1.569   2.877
 5616TIP3   OH216792   7.766   0.757   4.243
 5616TIP3    H116793   7.672   0.750   4.226
 5616TIP3    H216794   7.806   0.755   4.156
 5617TIP3   OH216795   5.609   5.341   0.433
 5617TIP3    H116796   5.550   5.319   0.361
 5617TIP3    H216797   5.688   5.373   0.391
 5618TIP3   OH216798   0.336   6.778   6.063
 5618TIP3    H116799   0.338   6.689   6.027
 5618TIP3    H216800   0.338   6.835   5.987
 5619TIP3   OH216801   0.068   5.676   5.984
 5619TIP3    H116802   0.070   5.768   6.011
 5619TIP3    H216803   0.136   5.669   5.917
 5620TIP3   OH216804   5.713   6.324   3.883
 5620TIP3    H116805   5.652   6.264   3.839
 5620TIP3    H216806   5.769   6.267   3.936
 5621TIP3   OH216807   1.764   2.406   0.649
 5621TIP3    H116808   1.819   2.338   0.610
 5621TIP3    H216809   1.816   2.485   0.645
 5622TIP3   OH216810   4.614   0.981   4.570
 5622TIP3    H116811   4.572   1.055   4.527
 5622TIP3    H216812   4.545   0.915   4.575
 5623TIP3   OH216813   1.940   5.554   0.551
 5623TIP3    H116814   1.951   5.463   0.526
 5623TIP3    H216815   1.940   5.553   0.646
 5624TIP3   OH216816   4.006   2.733   4.368
 5624TIP3    H116817   3.984   2.805   4.427
 5624TIP3    H216818   3.981   2.654   4.416
 5625TIP3   OH216819   3.109   7.739   0.992
 5625TIP3    H116820   3.092   7.728   1.086
 5625TIP3    H216821   3.136   7.830   0.983
 5626TIP3   OH216822   4.805   2.897   2.967
 5626TIP3    H116823   4.739   2.966   2.957
 5626TIP3    H216824   4.876   2.939   3.015
 5627TIP3   OH216825   4.455   4.070   3.406
 5627TIP3    H116826   4.410   4.029   3.481
 5627TIP3    H216827   4.450   4.163   3.424
 5628TIP3   OH216828   1.641   0.484   6.627
 5628TIP3    H116829   1.629   0.527   6.542
 5628TIP3    H216830   1.583   0.532   6.686
 5629TIP3   OH216831   0.305   0.783   2.371
 5629TIP3    H116832   0.350   0.850   2.422
 5629TIP3    H216833   0.231   0.757   2.425
 5630TIP3   OH216834   0.401   7.607   2.850
 5630TIP3    H116835   0.363   7.528   2.811
 5630TIP3    H216836   0.431   7.659   2.775
 5631TIP3   OH216837   1.030   4.491   6.235
 5631TIP3    H116838   1.033   4.587   6.243
 5631TIP3    H216839   0.938   4.469   6.248
 5632TIP3   OH216840   6.657   4.540   4.987
 5632TIP3    H116841   6.565   4.519   5.002
 5632TIP3    H216842   6.662   4.561   4.894
 5633TIP3   OH216843   3.234   5.907   5.353
 5633TIP3    H116844   3.218   6.001   5.349
 5633TIP3    H216845   3.329   5.899   5.353
 5634TIP3   OH216846   5.001   5.761   4.863
 5634TIP3    H116847   5.096   5.746   4.863
 5634TIP3    H216848   4.981   5.787   4.953
 5635TIP3   OH216849   2.134   3.696   6.750
 5635TIP3    H116850   2.076   3.758   6.705
 5635TIP3    H216851   2.184   3.655   6.680
 5636TIP3   OH216852   6.318   4.501   3.482
 5636TIP3    H116853   6.359   4.526   3.399
 5636TIP3    H216854   6.308   4.406   3.476
 5637TIP3   OH216855   1.043   4.103   3.669
 5637TIP3    H116856   0.984   4.042   3.624
 5637TIP3    H216857   1.099   4.138   3.600
 5638TIP3   OH216858   3.625   7.086   5.580
 5638TIP3    H116859   3.680   7.102   5.503
 5638TIP3    H216860   3.667   7.014   5.626
 5639TIP3   OH216861   2.980   5.772   1.579
 5639TIP3    H116862   2.906   5.732   1.533
 5639TIP3    H216863   3.051   5.710   1.568
 5640TIP3   OH216864   5.868   6.380   2.624
 5640TIP3    H116865   5.864   6.313   2.556
 5640TIP3    H216866   5.777   6.408   2.635
 5641TIP3   OH216867   5.138   0.891   5.625
 5641TIP3    H116868   5.112   0.983   5.628
 5641TIP3    H216869   5.124   0.859   5.714
 5642TIP3   OH216870   6.388   7.811   5.112
 5642TIP3    H116871   6.299   7.847   5.118
 5642TIP3    H216872   6.381   7.723   5.149
 5643TIP3   OH216873   3.080   3.943   1.283
 5643TIP3    H116874   3.017   3.942   1.211
 5643TIP3    H216875   3.028   3.923   1.360
 5644TIP3   OH216876   3.266   7.467   2.094
 5644TIP3    H116877   3.263   7.388   2.041
 5644TIP3    H216878   3.254   7.538   2.031
 5645TIP3   OH216879   3.418   7.730   3.294
 5645TIP3    H116880   3.457   7.760   3.377
 5645TIP3    H216881   3.480   7.664   3.262
 5646TIP3   OH216882   5.448   0.123   3.011
 5646TIP3    H116883   5.525   0.086   2.968
 5646TIP3    H216884   5.474   0.212   3.035
 5647TIP3   OH216885   5.846   1.423   4.359
 5647TIP3    H116886   5.861   1.422   4.264
 5647TIP3    H216887   5.927   1.389   4.397
 5648TIP3   OH216888   2.328   1.855   4.020
 5648TIP3    H116889   2.344   1.762   4.033
 5648TIP3    H216890   2.379   1.898   4.088
 5649TIP3   OH216891   3.498   2.282   6.018
 5649TIP3    H116892   3.446   2.356   6.050
 5649TIP3    H216893   3.433   2.217   5.992
 5650TIP3   OH216894   5.951   1.743   3.390
 5650TIP3    H116895   5.989   1.730   3.477
 5650TIP3    H216896   5.904   1.661   3.372
 5651TIP3   OH216897   6.105   1.061   2.726
 5651TIP3    H116898   6.079   1.045   2.817
 5651TIP3    H216899   6.192   1.020   2.719
 5652TIP3   OH216900   5.586   1.259   2.603
 5652TIP3    H116901   5.565   1.352   2.611
 5652TIP3    H216902   5.681   1.257   2.593
 5653TIP3   OH216903   6.794   2.209   5.502
 5653TIP3    H116904   6.771   2.157   5.580
 5653TIP3    H216905   6.710   2.246   5.473
 5654TIP3   OH216906   3.206   3.779   4.627
 5654TIP3    H116907   3.186   3.704   4.571
 5654TIP3    H216908   3.196   3.855   4.569
 5655TIP3   OH216909   6.522   5.645   6.738
 5655TIP3    H116910   6.609   5.616   6.766
 5655TIP3    H216911   6.498   5.584   6.668
 5656TIP3   OH216912   7.381   4.640   3.663
 5656TIP3    H116913   7.459   4.621   3.715
 5656TIP3    H216914   7.371   4.564   3.607
 5657TIP3   OH216915   6.092   4.456   0.237
 5657TIP3    H116916   5.998   4.471   0.236
 5657TIP3    H216917   6.130   4.544   0.242
 5658TIP3   OH216918   7.176   2.880   3.847
 5658TIP3    H116919   7.164   2.857   3.939
 5658TIP3    H216920   7.148   2.971   3.840
 5659TIP3   OH216921   6.374   2.388   1.698
 5659TIP3    H116922   6.434   2.315   1.714
 5659TIP3    H216923   6.393   2.450   1.768
 5660TIP3   OH216924   0.166   7.332   5.365
 5660TIP3    H116925   0.075   7.305   5.353
 5660TIP3    H216926   0.217   7.251   5.359
 5661TIP3   OH216927   1.558   3.727   2.668
 5661TIP3    H116928   1.537   3.821   2.671
 5661TIP3    H216929   1.599   3.714   2.583
 5662TIP3   OH216930   5.383   7.348   0.757
 5662TIP3    H116931   5.313   7.292   0.790
 5662TIP3    H216932   5.409   7.401   0.832
 5663TIP3   OH216933   5.486   5.525   1.583
 5663TIP3    H116934   5.515   5.605   1.539
 5663TIP3    H216935   5.524   5.531   1.671
 5664TIP3   OH216936   0.157   7.445   6.531
 5664TIP3    H116937   0.128   7.504   6.462
 5664TIP3    H216938   0.077   7.402   6.562
 5665TIP3   OH216939   3.392   7.389   1.594
 5665TIP3    H116940   3.368   7.316   1.536
 5665TIP3    H216941   3.399   7.465   1.536
 5666TIP3   OH216942   7.058   7.038   2.343
 5666TIP3    H116943   7.129   7.038   2.279
 5666TIP3    H216944   7.006   6.961   2.322
 5667TIP3   OH216945   1.364   1.182   0.880
 5667TIP3    H116946   1.375   1.134   0.799
 5667TIP3    H216947   1.431   1.251   0.876
 5668TIP3   OH216948   5.763   5.335   6.487
 5668TIP3    H116949   5.724   5.374   6.565
 5668TIP3    H216950   5.832   5.278   6.521
 5669TIP3   OH216951   0.055   3.541   2.334
 5669TIP3    H116952   0.024   3.538   2.244
 5669TIP3    H216953   0.008   3.614   2.374
 5670TIP3   OH216954   3.250   4.429   0.499
 5670TIP3    H116955   3.214   4.450   0.585
 5670TIP3    H216956   3.204   4.487   0.439
 5671TIP3   OH216957   0.708   6.095   5.915
 5671TIP3    H116958   0.747   6.023   5.866
 5671TIP3    H216959   0.655   6.142   5.850
 5672TIP3   OH216960   3.689   3.017   0.684
 5672TIP3    H116961   3.759   3.060   0.635
 5672TIP3    H216962   3.628   2.986   0.618
 5673TIP3   OH216963   0.083   4.949   2.144
 5673TIP3    H116964   0.149   5.009   2.179
 5673TIP3    H216965   0.081   4.876   2.206
 5674TIP3   OH216966   3.902   7.434   1.979
 5674TIP3    H116967   3.824   7.487   1.966
 5674TIP3    H216968   3.872   7.344   1.967
 5675TIP3   OH216969   4.077   7.815   2.871
 5675TIP3    H116970   4.141   7.778   2.931
 5675TIP3    H216971   4.126   7.829   2.790
 5676TIP3   OH216972   7.636   7.302   1.415
 5676TIP3    H116973   7.579   7.225   1.407
 5676TIP3    H216974   7.608   7.344   1.497
 5677TIP3   OH216975   7.033   1.703   2.432
 5677TIP3    H116976   6.983   1.721   2.511
 5677TIP3    H216977   6.982   1.637   2.385
 5678TIP3   OH216978   5.712   1.648   2.404
 5678TIP3    H116979   5.631   1.620   2.361
 5678TIP3    H216980   5.764   1.568   2.412
 5679TIP3   OH216981   4.892   2.684   2.413
 5679TIP3    H116982   4.918   2.690   2.321
 5679TIP3    H216983   4.797   2.673   2.411
 5680TIP3   OH216984   6.509   4.170   1.873
 5680TIP3    H116985   6.585   4.200   1.923
 5680TIP3    H216986   6.475   4.095   1.923
 5681TIP3   OH216987   2.533   7.812   1.239
 5681TIP3    H116988   2.477   7.802   1.316
 5681TIP3    H216989   2.472   7.825   1.167
 5682TIP3   OH216990   5.833   6.202   0.260
 5682TIP3    H116991   5.881   6.156   0.329
 5682TIP3    H216992   5.801   6.132   0.203
 5683TIP3   OH216993   2.859   3.405   3.286
 5683TIP3    H116994   2.785   3.382   3.342
 5683TIP3    H216995   2.930   3.349   3.317
 5684TIP3   OH216996   7.526   1.998   2.427
 5684TIP3    H116997   7.440   1.982   2.464
 5684TIP3    H216998   7.587   1.981   2.499
 5685TIP3   OH216999   6.478   7.406   2.346
 5685TIP3    H117000   6.570   7.432   2.337
 5685TIP3    H217001   6.430   7.469   2.293
 5686TIP3   OH217002   6.663   4.613   0.388
 5686TIP3    H117003   6.636   4.603   0.297
 5686TIP3    H217004   6.597   4.566   0.438
 5687TIP3   OH217005   0.438   4.339   6.615
 5687TIP3    H117006   0.400   4.423   6.641
 5687TIP3    H217007   0.391   4.316   6.534
 5688TIP3   OH217008   4.098   1.668   6.273
 5688TIP3    H117009   4.060   1.587   6.239
 5688TIP3    H217010   4.181   1.641   6.312
 5689TIP3   OH217011   0.901   4.400   2.553
 5689TIP3    H117012   0.923   4.307   2.542
 5689TIP3    H217013   0.862   4.406   2.640
 5690TIP3   OH217014   6.905   2.284   4.765
 5690TIP3    H117015   6.847   2.221   4.809
 5690TIP3    H217016   6.962   2.231   4.710
 5691TIP3   OH217017   1.340   5.044   0.115
 5691TIP3    H117018   1.256   5.084   0.093
 5691TIP3    H217019   1.335   4.955   0.079
 5692TIP3   OH217020   1.236   4.632   1.737
 5692TIP3    H117021   1.153   4.605   1.699
 5692TIP3    H217022   1.286   4.667   1.663
 5693TIP3   OH217023   7.896   7.320   5.856
 5693TIP3    H117024   7.920   7.335   5.947
 5693TIP3    H217025   7.851   7.236   5.856
 5694TIP3   OH217026   5.748   0.351   2.835
 5694TIP3    H117027   5.838   0.322   2.852
 5694TIP3    H217028   5.751   0.383   2.745
 5695TIP3   OH217029   0.621   7.541   5.194
 5695TIP3    H117030   0.534   7.538   5.154
 5695TIP3    H217031   0.655   7.627   5.171
 5696TIP3   OH217032   5.661   5.758   2.887
 5696TIP3    H117033   5.754   5.740   2.869
 5696TIP3    H217034   5.664   5.826   2.955
 5697TIP3   OH217035   0.934   7.765   0.005
 5697TIP3    H117036   0.998   7.783   0.074
 5697TIP3    H217037   0.885   7.690   0.037
 5698TIP3   OH217038   0.637   7.152   2.982
 5698TIP3    H117039   0.657   7.218   2.916
 5698TIP3    H217040   0.715   7.097   2.984
 5699TIP3   OH217041   1.575   5.303   2.909
 5699TIP3    H117042   1.548   5.382   2.956
 5699TIP3    H217043   1.517   5.299   2.833
 5700TIP3   OH217044  -0.036   4.854   0.907
 5700TIP3    H117045  -0.006   4.938   0.873
 5700TIP3    H217046   0.043   4.801   0.912
 5701TIP3   OH217047   1.966   2.946   4.735
 5701TIP3    H117048   1.920   2.908   4.810
 5701TIP3    H217049   1.937   2.894   4.660
 5702TIP3   OH217050   3.503   5.112   5.739
 5702TIP3    H117051   3.457   5.195   5.733
 5702TIP3    H217052   3.435   5.046   5.723
 5703TIP3   OH217053   6.250   4.728   0.614
 5703TIP3    H117054   6.322   4.747   0.673
 5703TIP3    H217055   6.202   4.656   0.656
 5704TIP3   OH217056   4.252   4.323   2.709
 5704TIP3    H117057   4.232   4.359   2.795
 5704TIP3    H217058   4.171   4.280   2.682
 5705TIP3   OH217059   4.041   0.603   4.216
 5705TIP3    H117060   4.088   0.646   4.288
 5705TIP3    H217061   4.034   0.670   4.149
 5706TIP3   OH217062   4.991   2.680   4.959
 5706TIP3    H117063   4.913   2.662   4.907
 5706TIP3    H217064   5.016   2.595   4.995
 5707TIP3   OH217065   4.380   2.774   0.352
 5707TIP3    H117066   4.390   2.681   0.369
 5707TIP3    H217067   4.377   2.781   0.257
 5708TIP3   OH217068   2.489   4.512   3.360
 5708TIP3    H117069   2.396   4.490   3.364
 5708TIP3    H217070   2.512   4.537   3.450
 5709TIP3   OH217071   4.235   3.502   1.652
 5709TIP3    H117072   4.299   3.571   1.636
 5709TIP3    H217073   4.276   3.423   1.616
 5710TIP3   OH217074   0.922   2.787   2.551
 5710TIP3    H117075   0.897   2.854   2.487
 5710TIP3    H217076   0.840   2.751   2.581
 5711TIP3   OH217077   4.877   3.500   6.112
 5711TIP3    H117078   4.855   3.410   6.086
 5711TIP3    H217079   4.913   3.540   6.033
 5712TIP3   OH217080   4.081   6.635   5.672
 5712TIP3    H117081   4.104   6.544   5.692
 5712TIP3    H217082   4.088   6.680   5.756
 5713TIP3   OH217083   1.730   2.075   0.667
 5713TIP3    H117084   1.709   2.074   0.760
 5713TIP3    H217085   1.688   1.997   0.632
 5714TIP3   OH217086   1.423   1.054   1.309
 5714TIP3    H117087   1.495   1.020   1.363
 5714TIP3    H217088   1.417   1.146   1.334
 5715TIP3   OH217089   5.551   0.814   5.391
 5715TIP3    H117090   5.491   0.742   5.368
 5715TIP3    H217091   5.495   0.880   5.431
 5716TIP3   OH217092   5.651   5.952   1.906
 5716TIP3    H117093   5.562   5.932   1.877
 5716TIP3    H217094   5.649   5.936   2.000
 5717TIP3   OH217095   1.267   5.768   4.806
 5717TIP3    H117096   1.288   5.708   4.735
 5717TIP3    H217097   1.329   5.840   4.796
 5718TIP3   OH217098   8.110   2.273   2.836
 5718TIP3    H117099   8.024   2.314   2.840
 5718TIP3    H217100   8.169   2.344   2.810
 5719TIP3   OH217101   2.707   0.207   3.266
 5719TIP3    H117102   2.693   0.113   3.253
 5719TIP3    H217103   2.625   0.248   3.239
 5720TIP3   OH217104   6.692   0.250   0.722
 5720TIP3    H117105   6.762   0.206   0.770
 5720TIP3    H217106   6.632   0.180   0.698
 5721TIP3   OH217107   5.812   5.988   5.712
 5721TIP3    H117108   5.737   5.965   5.767
 5721TIP3    H217109   5.774   6.032   5.636
 5722TIP3   OH217110   4.937   3.806   6.033
 5722TIP3    H117111   4.938   3.867   5.960
 5722TIP3    H217112   4.901   3.856   6.106
 5723TIP3   OH217113   5.607   3.569   6.336
 5723TIP3    H117114   5.623   3.497   6.397
 5723TIP3    H217115   5.636   3.647   6.382
 5724TIP3   OH217116   3.778   0.438   6.391
 5724TIP3    H117117   3.694   0.485   6.388
 5724TIP3    H217118   3.840   0.503   6.427
 5725TIP3   OH217119   5.025   0.363   2.121
 5725TIP3    H117120   5.031   0.448   2.079
 5725TIP3    H217121   4.994   0.382   2.209
 5726TIP3   OH217122   5.288   6.005   3.860
 5726TIP3    H117123   5.322   5.930   3.908
 5726TIP3    H217124   5.204   6.024   3.900
 5727TIP3   OH217125   5.381   6.740   5.899
 5727TIP3    H117126   5.474   6.718   5.898
 5727TIP3    H217127   5.342   6.680   5.963
 5728TIP3   OH217128   5.559   3.411   2.152
 5728TIP3    H117129   5.654   3.400   2.152
 5728TIP3    H217130   5.524   3.322   2.145
 5729TIP3   OH217131   3.589   2.237   3.423
 5729TIP3    H117132   3.673   2.241   3.378
 5729TIP3    H217133   3.609   2.203   3.510
 5730TIP3   OH217134   8.103   4.985   5.145
 5730TIP3    H117135   8.101   5.019   5.235
 5730TIP3    H217136   8.145   5.054   5.094
 5731TIP3   OH217137   2.693   3.115   4.458
 5731TIP3    H117138   2.662   3.050   4.521
 5731TIP3    H217139   2.770   3.074   4.417
 5732TIP3   OH217140   4.233   1.237   6.737
 5732TIP3    H117141   4.161   1.291   6.707
 5732TIP3    H217142   4.201   1.147   6.727
 5733TIP3   OH217143   5.080   1.155   5.553
 5733TIP3    H117144   5.120   1.211   5.486
 5733TIP3    H217145   5.110   1.191   5.636
 5734TIP3   OH217146   5.381   2.767   3.297
 5734TIP3    H117147   5.406   2.786   3.387
 5734TIP3    H217148   5.360   2.674   3.297
 5735TIP3   OH217149   0.068   0.476   3.231
 5735TIP3    H117150   0.010   0.528   3.287
 5735TIP3    H217151   0.122   0.427   3.293
 5736TIP3   OH217152   3.428   1.631   2.865
 5736TIP3    H117153   3.505   1.663   2.818
 5736TIP3    H217154   3.412   1.696   2.933
 5737TIP3   OH217155   1.293   0.823   1.857
 5737TIP3    H117156   1.240   0.885   1.806
 5737TIP3    H217157   1.356   0.878   1.904
 5738TIP3   OH217158   8.024   2.786   4.590
 5738TIP3    H117159   8.005   2.695   4.571
 5738TIP3    H217160   7.984   2.835   4.518
 5739TIP3   OH217161   3.922   7.712   0.887
 5739TIP3    H117162   3.845   7.769   0.890
 5739TIP3    H217163   3.890   7.626   0.915
 5740TIP3   OH217164   1.250   4.621   1.291
 5740TIP3    H117165   1.312   4.673   1.343
 5740TIP3    H217166   1.211   4.684   1.231
 5741TIP3   OH217167   6.610   6.941   2.234
 5741TIP3    H117168   6.639   6.885   2.306
 5741TIP3    H217169   6.545   7.000   2.275
 5742TIP3   OH217170   4.915   4.180   3.982
 5742TIP3    H117171   4.906   4.151   3.891
 5742TIP3    H217172   4.979   4.251   3.978
 5743TIP3   OH217173   2.096   6.524   0.783
 5743TIP3    H117174   2.080   6.477   0.865
 5743TIP3    H217175   2.067   6.614   0.802
 5744TIP3   OH217176   7.824   1.651   4.950
 5744TIP3    H117177   7.824   1.575   5.008
 5744TIP3    H217178   7.836   1.726   5.007
 5745TIP3   OH217179   2.899   5.081   1.476
 5745TIP3    H117180   2.995   5.074   1.481
 5745TIP3    H217181   2.878   5.157   1.531
 5746TIP3   OH217182   6.704   5.423   5.869
 5746TIP3    H117183   6.619   5.418   5.913
 5746TIP3    H217184   6.757   5.355   5.912
 5747TIP3   OH217185   3.224   0.152   1.228
 5747TIP3    H117186   3.271   0.206   1.290
 5747TIP3    H217187   3.195   0.213   1.159
 5748TIP3   OH217188   4.832   2.787   5.263
 5748TIP3    H117189   4.927   2.774   5.261
 5748TIP3    H217190   4.817   2.862   5.205
 5749TIP3   OH217191   7.906   2.705   0.476
 5749TIP3    H117192   7.963   2.756   0.533
 5749TIP3    H217193   7.910   2.617   0.512
 5750TIP3   OH217194   6.499   0.809   1.581
 5750TIP3    H117195   6.551   0.734   1.551
 5750TIP3    H217196   6.449   0.836   1.504
 5751TIP3   OH217197   3.728   2.951   4.427
 5751TIP3    H117198   3.646   2.999   4.437
 5751TIP3    H217199   3.701   2.860   4.412
 5752TIP3   OH217200   6.901   3.993   5.525
 5752TIP3    H117201   6.928   3.901   5.526
 5752TIP3    H217202   6.881   4.011   5.433
 5753TIP3   OH217203   2.523   6.629   0.437
 5753TIP3    H117204   2.545   6.609   0.346
 5753TIP3    H217205   2.582   6.701   0.460
 5754TIP3   OH217206   2.409   1.917   1.626
 5754TIP3    H117207   2.414   1.832   1.669
 5754TIP3    H217208   2.493   1.926   1.580
 5755TIP3   OH217209   0.668   7.487   1.989
 5755TIP3    H117210   0.663   7.521   1.900
 5755TIP3    H217211   0.640   7.561   2.044
 5756TIP3   OH217212   7.248   6.354   1.627
 5756TIP3    H117213   7.255   6.426   1.565
 5756TIP3    H217214   7.154   6.348   1.645
 5757TIP3   OH217215   8.071   6.813   1.001
 5757TIP3    H117216   8.125   6.891   1.006
 5757TIP3    H217217   8.012   6.829   0.927
 5758TIP3   OH217218   6.546   5.782   2.667
 5758TIP3    H117219   6.480   5.722   2.632
 5758TIP3    H217220   6.572   5.835   2.592
 5759TIP3   OH217221   6.837   1.649   4.721
 5759TIP3    H117222   6.817   1.556   4.713
 5759TIP3    H217223   6.915   1.652   4.776
 5760TIP3   OH217224   3.183   2.822   0.103
 5760TIP3    H117225   3.243   2.896   0.093
 5760TIP3    H217226   3.096   2.860   0.092
 5761TIP3   OH217227   5.451   0.654   1.053
 5761TIP3    H117228   5.487   0.741   1.037
 5761TIP3    H217229   5.514   0.595   1.011
 5762TIP3   OH217230   1.860   2.910   0.719
 5762TIP3    H117231   1.923   2.981   0.723
 5762TIP3    H217232   1.820   2.907   0.806
 5763TIP3   OH217233   2.055   1.570   4.889
 5763TIP3    H117234   2.065   1.506   4.819
 5763TIP3    H217235   1.966   1.603   4.878
 5764TIP3   OH217236   0.401   0.820   4.347
 5764TIP3    H117237   0.443   0.897   4.308
 5764TIP3    H217238   0.447   0.807   4.430
 5765TIP3   OH217239   7.418   4.649   1.315
 5765TIP3    H117240   7.354   4.584   1.286
 5765TIP3    H217241   7.500   4.600   1.321
 5766TIP3   OH217242   5.672   2.367   5.564
 5766TIP3    H117243   5.616   2.439   5.595
 5766TIP3    H217244   5.684   2.312   5.642
 5767TIP3   OH217245   6.884   0.862   1.341
 5767TIP3    H117246   6.934   0.931   1.385
 5767TIP3    H217247   6.792   0.888   1.353
 5768TIP3   OH217248   7.313   2.011   5.881
 5768TIP3    H117249   7.364   1.991   5.959
 5768TIP3    H217250   7.249   2.076   5.911
 5769TIP3   OH217251   1.060   5.204   6.698
 5769TIP3    H117252   1.069   5.292   6.661
 5769TIP3    H217253   1.149   5.173   6.710
 5770TIP3   OH217254   4.639   2.974   0.758
 5770TIP3    H117255   4.568   2.971   0.693
 5770TIP3    H217256   4.596   2.952   0.841
 5771TIP3   OH217257   0.245   0.615   6.061
 5771TIP3    H117258   0.264   0.553   6.131
 5771TIP3    H217259   0.256   0.701   6.102
 5772TIP3   OH217260   5.368   3.329   5.040
 5772TIP3    H117261   5.375   3.242   5.078
 5772TIP3    H217262   5.434   3.381   5.086
 5773TIP3   OH217263   2.543   1.218   3.588
 5773TIP3    H117264   2.633   1.193   3.571
 5773TIP3    H217265   2.542   1.313   3.574
 5774TIP3   OH217266   1.559   6.204   0.403
 5774TIP3    H117267   1.519   6.289   0.387
 5774TIP3    H217268   1.488   6.152   0.443
 5775TIP3   OH217269   5.302   4.693   2.602
 5775TIP3    H117270   5.391   4.660   2.592
 5775TIP3    H217271   5.300   4.774   2.551
 5776TIP3   OH217272   5.041   0.120   3.211
 5776TIP3    H117273   5.095   0.146   3.285
 5776TIP3    H217274   4.952   0.149   3.234
 5777TIP3   OH217275  -0.009   3.831   0.558
 5777TIP3    H117276   0.055   3.832   0.629
 5777TIP3    H217277  -0.012   3.922   0.528
 5778TIP3   OH217278   7.635   4.145   5.705
 5778TIP3    H117279   7.583   4.225   5.698
 5778TIP3    H217280   7.667   4.129   5.616
 5779TIP3   OH217281   1.042   3.003   5.651
 5779TIP3    H117282   1.101   2.960   5.713
 5779TIP3    H217283   0.963   2.948   5.652
 5780TIP3   OH217284   1.072   0.893   0.581
 5780TIP3    H117285   0.983   0.890   0.615
 5780TIP3    H217286   1.068   0.848   0.497
 5781TIP3   OH217287   5.262   0.275   1.952
 5781TIP3    H117288   5.178   0.294   1.993
 5781TIP3    H217289   5.327   0.310   2.013
 5782TIP3   OH217290   7.635   1.207   3.593
 5782TIP3    H117291   7.548   1.182   3.561
 5782TIP3    H217292   7.646   1.157   3.674
 5783TIP3   OH217293   0.664   0.998   4.082
 5783TIP3    H117294   0.670   1.081   4.130
 5783TIP3    H217295   0.684   0.931   4.147
 5784TIP3   OH217296   4.567   4.616   5.434
 5784TIP3    H117297   4.569   4.659   5.519
 5784TIP3    H217298   4.637   4.658   5.384
 5785TIP3   OH217299   4.695   0.534   4.029
 5785TIP3    H117300   4.661   0.555   4.116
 5785TIP3    H217301   4.652   0.597   3.970
 5786TIP3   OH217302   7.000   3.799   0.395
 5786TIP3    H117303   6.948   3.791   0.315
 5786TIP3    H217304   6.941   3.840   0.458
 5787TIP3   OH217305   4.207   7.192   1.367
 5787TIP3    H117306   4.234   7.205   1.458
 5787TIP3    H217307   4.114   7.215   1.366
 5788TIP3   OH217308   6.232   2.268   4.997
 5788TIP3    H117309   6.169   2.317   4.944
 5788TIP3    H217310   6.181   2.240   5.074
 5789TIP3   OH217311   4.536   3.698   0.306
 5789TIP3    H117312   4.459   3.721   0.254
 5789TIP3    H217313   4.518   3.736   0.392
 5790TIP3   OH217314   6.550   6.255   3.881
 5790TIP3    H117315   6.592   6.341   3.881
 5790TIP3    H217316   6.484   6.259   3.950
 5791TIP3   OH217317   1.199   3.483   5.571
 5791TIP3    H117318   1.240   3.397   5.571
 5791TIP3    H217319   1.235   3.526   5.493
 5792TIP3   OH217320   2.940   4.491   5.406
 5792TIP3    H117321   2.971   4.402   5.423
 5792TIP3    H217322   2.878   4.481   5.334
 5793TIP3   OH217323   7.936   7.708   3.082
 5793TIP3    H117324   7.909   7.698   2.991
 5793TIP3    H217325   7.922   7.622   3.121
 5794TIP3   OH217326   7.357   2.550   2.383
 5794TIP3    H117327   7.422   2.506   2.327
 5794TIP3    H217328   7.284   2.569   2.324
 5795TIP3   OH217329   5.331   1.778   0.215
 5795TIP3    H117330   5.381   1.697   0.202
 5795TIP3    H217331   5.332   1.791   0.310
 5796TIP3   OH217332   3.858   1.426   1.729
 5796TIP3    H117333   3.768   1.406   1.754
 5796TIP3    H217334   3.862   1.410   1.635
 5797TIP3   OH217335   3.003   7.228   6.039
 5797TIP3    H117336   3.073   7.291   6.022
 5797TIP3    H217337   2.993   7.228   6.134
 5798TIP3   OH217338   8.047   6.035   0.621
 5798TIP3    H117339   7.985   6.053   0.692
 5798TIP3    H217340   7.991   6.021   0.545
 5799TIP3   OH217341   1.787   4.906   1.990
 5799TIP3    H117342   1.820   4.822   1.959
 5799TIP3    H217343   1.826   4.917   2.077
 5800TIP3   OH217344   5.868   5.287   4.304
 5800TIP3    H117345   5.781   5.291   4.265
 5800TIP3    H217346   5.923   5.246   4.237
 5801TIP3   OH217347   1.000   6.864   4.210
 5801TIP3    H117348   1.086   6.826   4.195
 5801TIP3    H217349   0.989   6.928   4.139
 5802TIP3   OH217350   4.592   5.202   2.526
 5802TIP3    H117351   4.516   5.259   2.518
 5802TIP3    H217352   4.667   5.261   2.519
 5803TIP3   OH217353   7.454   2.305   4.110
 5803TIP3    H117354   7.472   2.285   4.018
 5803TIP3    H217355   7.539   2.331   4.146
 5804TIP3   OH217356   3.262   4.741   6.697
 5804TIP3    H117357   3.339   4.739   6.640
 5804TIP3    H217358   3.226   4.652   6.693
 5805TIP3   OH217359   5.680   7.516   3.910
 5805TIP3    H117360   5.724   7.434   3.886
 5805TIP3    H217361   5.607   7.488   3.965
 5806TIP3   OH217362   1.677   2.328   1.902
 5806TIP3    H117363   1.746   2.353   1.840
 5806TIP3    H217364   1.695   2.379   1.980
 5807TIP3   OH217365   3.587   7.405   1.288
 5807TIP3    H117366   3.654   7.473   1.284
 5807TIP3    H217367   3.525   7.428   1.218
 5808TIP3   OH217368   6.219   1.486   6.504
 5808TIP3    H117369   6.219   1.458   6.412
 5808TIP3    H217370   6.188   1.576   6.502
 5809TIP3   OH217371   6.611   3.115   3.624
 5809TIP3    H117372   6.691   3.165   3.636
 5809TIP3    H217373   6.637   3.038   3.574
 5810TIP3   OH217374   1.365   7.726   4.617
 5810TIP3    H117375   1.383   7.776   4.696
 5810TIP3    H217376   1.450   7.686   4.594
 5811TIP3   OH217377   2.163   2.247   4.972
 5811TIP3    H117378   2.143   2.339   4.954
 5811TIP3    H217379   2.224   2.250   5.046
 5812TIP3   OH217380   6.211   1.339   2.711
 5812TIP3    H117381   6.183   1.255   2.674
 5812TIP3    H217382   6.132   1.393   2.710
 5813TIP3   OH217383   1.636   2.224   4.870
 5813TIP3    H117384   1.602   2.268   4.947
 5813TIP3    H217385   1.671   2.141   4.904
 5814TIP3   OH217386   1.395   4.161   6.719
 5814TIP3    H117387   1.404   4.107   6.797
 5814TIP3    H217388   1.480   4.157   6.676
 5815TIP3   OH217389   2.150   6.702   5.934
 5815TIP3    H117390   2.141   6.722   6.027
 5815TIP3    H217391   2.214   6.767   5.901
 5816TIP3   OH217392   6.923   2.168   0.323
 5816TIP3    H117393   6.886   2.082   0.340
 5816TIP3    H217394   6.867   2.206   0.255
 5817TIP3   OH217395   6.764   3.095   5.405
 5817TIP3    H117396   6.818   3.091   5.326
 5817TIP3    H217397   6.827   3.090   5.477
 5818TIP3   OH217398   5.184   0.580   2.382
 5818TIP3    H117399   5.189   0.593   2.477
 5818TIP3    H217400   5.133   0.500   2.371
 5819TIP3   OH217401   5.957   5.979   0.416
 5819TIP3    H117402   5.953   5.923   0.338
 5819TIP3    H217403   6.047   5.971   0.447
 5820TIP3   OH217404   2.451   0.747   5.400
 5820TIP3    H117405   2.425   0.664   5.359
 5820TIP3    H217406   2.374   0.803   5.390
 5821TIP3   OH217407   2.364   2.177   0.290
 5821TIP3    H117408   2.276   2.169   0.326
 5821TIP3    H217409   2.401   2.255   0.333
 5822TIP3   OH217410   4.317   1.166   0.500
 5822TIP3    H117411   4.310   1.074   0.525
 5822TIP3    H217412   4.401   1.195   0.535
 5823TIP3   OH217413   4.433   4.543   0.502
 5823TIP3    H117414   4.522   4.508   0.505
 5823TIP3    H217415   4.411   4.562   0.593
 5824TIP3   OH217416   2.020   0.875   5.651
 5824TIP3    H117417   2.010   0.884   5.746
 5824TIP3    H217418   1.933   0.892   5.616
 5825TIP3   OH217419   6.604   3.755   5.882
 5825TIP3    H117420   6.515   3.726   5.863
 5825TIP3    H217421   6.657   3.676   5.874
 5826TIP3   OH217422   4.241   5.656   4.822
 5826TIP3    H117423   4.288   5.618   4.897
 5826TIP3    H217424   4.217   5.580   4.768
 5827TIP3   OH217425   0.626   0.045   2.257
 5827TIP3    H117426   0.586   0.132   2.266
 5827TIP3    H217427   0.666   0.046   2.171
 5828TIP3   OH217428   0.062   5.087   0.830
 5828TIP3    H117429   0.121   5.078   0.904
 5828TIP3    H217430   0.031   5.177   0.834
 5829TIP3   OH217431   3.605   3.074   6.432
 5829TIP3    H117432   3.662   3.095   6.506
 5829TIP3    H217433   3.625   3.142   6.367
 5830TIP3   OH217434   3.040   1.432   2.887
 5830TIP3    H117435   3.006   1.392   2.806
 5830TIP3    H217436   3.073   1.517   2.860
 5831TIP3   OH217437   4.121   5.297   6.327
 5831TIP3    H117438   4.027   5.307   6.339
 5831TIP3    H217439   4.158   5.379   6.357
 5832TIP3   OH217440   6.628   7.166   0.173
 5832TIP3    H117441   6.659   7.256   0.163
 5832TIP3    H217442   6.536   7.170   0.147
 5833TIP3   OH217443   2.386   4.428   0.815
 5833TIP3    H117444   2.374   4.352   0.872
 5833TIP3    H217445   2.462   4.407   0.762
 5834TIP3   OH217446   2.575   3.560   2.811
 5834TIP3    H117447   2.573   3.655   2.799
 5834TIP3    H217448   2.538   3.546   2.898
 5835TIP3   OH217449   0.707   1.225   5.636
 5835TIP3    H117450   0.800   1.244   5.621
 5835TIP3    H217451   0.661   1.270   5.565
 5836TIP3   OH217452   2.594   6.664   6.113
 5836TIP3    H117453   2.655   6.686   6.183
 5836TIP3    H217454   2.608   6.732   6.046
 5837TIP3   OH217455   6.385   3.485   6.636
 5837TIP3    H117456   6.329   3.562   6.633
 5837TIP3    H217457   6.345   3.423   6.575
 5838TIP3   OH217458   5.123   3.065   0.492
 5838TIP3    H117459   5.185   3.071   0.420
 5838TIP3    H217460   5.056   3.131   0.472
 5839TIP3   OH217461   1.206   0.584   1.942
 5839TIP3    H117462   1.280   0.526   1.959
 5839TIP3    H217463   1.246   0.669   1.924
 5840TIP3   OH217464   7.246   6.196   5.733
 5840TIP3    H117465   7.233   6.291   5.728
 5840TIP3    H217466   7.324   6.186   5.788
 5841TIP3   OH217467   2.280   3.695   3.042
 5841TIP3    H117468   2.305   3.782   3.012
 5841TIP3    H217469   2.199   3.676   2.995
 5842TIP3   OH217470   7.123   6.912   5.054
 5842TIP3    H117471   7.031   6.891   5.039
 5842TIP3    H217472   7.169   6.872   4.979
 5843TIP3   OH217473   6.008   1.303   0.500
 5843TIP3    H117474   5.917   1.272   0.499
 5843TIP3    H217475   6.001   1.398   0.505
 5844TIP3   OH217476   7.169   3.268   4.363
 5844TIP3    H117477   7.075   3.262   4.346
 5844TIP3    H217478   7.187   3.200   4.427
 5845TIP3   OH217479   0.181   5.687   2.276
 5845TIP3    H117480   0.221   5.616   2.326
 5845TIP3    H217481   0.145   5.644   2.198
 5846TIP3   OH217482   3.252   4.422   2.743
 5846TIP3    H117483   3.195   4.380   2.807
 5846TIP3    H217484   3.307   4.351   2.709
 5847TIP3   OH217485   0.526   6.132   2.963
 5847TIP3    H117486   0.487   6.084   3.036
 5847TIP3    H217487   0.465   6.117   2.890
 5848TIP3   OH217488   4.692   1.845   0.483
 5848TIP3    H117489   4.659   1.788   0.413
 5848TIP3    H217490   4.689   1.933   0.445
 5849TIP3   OH217491   3.561   6.813   6.018
 5849TIP3    H117492   3.649   6.777   6.027
 5849TIP3    H217493   3.513   6.746   5.969
 5850TIP3   OH217494   2.084   5.226   3.053
 5850TIP3    H117495   2.005   5.267   3.086
 5850TIP3    H217496   2.053   5.158   2.992
 5851TIP3   OH217497   5.876   5.557   1.863
 5851TIP3    H117498   5.843   5.646   1.862
 5851TIP3    H217499   5.963   5.562   1.823
 5852TIP3   OH217500   8.095   5.937   5.054
 5852TIP3    H117501   8.157   5.879   5.010
 5852TIP3    H217502   8.011   5.891   5.047
 5853TIP3   OH217503   5.949   6.229   3.189
 5853TIP3    H117504   5.931   6.176   3.111
 5853TIP3    H217505   6.034   6.269   3.172
 5854TIP3   OH217506   6.883   6.605   4.542
 5854TIP3    H117507   6.888   6.510   4.556
 5854TIP3    H217508   6.951   6.642   4.597
 5855TIP3   OH217509   0.894   5.607   1.754
 5855TIP3    H117510   0.911   5.582   1.664
 5855TIP3    H217511   0.892   5.525   1.803
 5856TIP3   OH217512   1.153   4.719   3.848
 5856TIP3    H117513   1.144   4.653   3.917
 5856TIP3    H217514   1.065   4.755   3.838
 5857TIP3   OH217515   2.164   7.084   4.419
 5857TIP3    H117516   2.206   7.009   4.378
 5857TIP3    H217517   2.222   7.158   4.399
 5858TIP3   OH217518   4.246   3.505   2.920
 5858TIP3    H117519   4.268   3.586   2.966
 5858TIP3    H217520   4.307   3.503   2.846
 5859TIP3   OH217521   3.000   3.726   0.431
 5859TIP3    H117522   3.082   3.719   0.479
 5859TIP3    H217523   3.015   3.797   0.369
 5860TIP3   OH217524   7.631   3.583   4.313
 5860TIP3    H117525   7.551   3.555   4.269
 5860TIP3    H217526   7.650   3.669   4.276
 5861TIP3   OH217527   2.900   6.507   1.434
 5861TIP3    H117528   2.865   6.576   1.491
 5861TIP3    H217529   2.825   6.477   1.383
 5862TIP3   OH217530   6.713   7.544   3.387
 5862TIP3    H117531   6.641   7.501   3.342
 5862TIP3    H217532   6.718   7.501   3.472
 5863TIP3   OH217533   0.793   4.699   1.867
 5863TIP3    H117534   0.778   4.789   1.838
 5863TIP3    H217535   0.708   4.656   1.857
 5864TIP3   OH217536   4.402   6.145   4.598
 5864TIP3    H117537   4.333   6.081   4.615
 5864TIP3    H217538   4.442   6.116   4.517
 5865TIP3   OH217539   7.343   1.670   0.361
 5865TIP3    H117540   7.305   1.743   0.313
 5865TIP3    H217541   7.339   1.596   0.300
 5866TIP3   OH217542   5.340   4.457   6.487
 5866TIP3    H117543   5.402   4.521   6.453
 5866TIP3    H217544   5.371   4.438   6.575
 5867TIP3   OH217545   6.460   1.567   2.271
 5867TIP3    H117546   6.373   1.529   2.288
 5867TIP3    H217547   6.486   1.529   2.187
 5868TIP3   OH217548   6.454   2.474   5.035
 5868TIP3    H117549   6.380   2.416   5.015
 5868TIP3    H217550   6.458   2.475   5.131
 5869TIP3   OH217551   0.660   6.988   0.580
 5869TIP3    H117552   0.742   7.036   0.593
 5869TIP3    H217553   0.592   7.056   0.580
 5870TIP3   OH217554   7.358   2.546   3.376
 5870TIP3    H117555   7.432   2.509   3.424
 5870TIP3    H217556   7.292   2.477   3.375
 5871TIP3   OH217557   1.375   6.602   1.388
 5871TIP3    H117558   1.305   6.591   1.324
 5871TIP3    H217559   1.330   6.612   1.472
 5872TIP3   OH217560   2.034   6.273   2.666
 5872TIP3    H117561   2.060   6.296   2.577
 5872TIP3    H217562   2.012   6.356   2.708
 5873TIP3   OH217563   2.213   4.240   5.579
 5873TIP3    H117564   2.171   4.158   5.554
 5873TIP3    H217565   2.191   4.251   5.672
 5874TIP3   OH217566   0.264   1.803   1.233
 5874TIP3    H117567   0.190   1.840   1.184
 5874TIP3    H217568   0.262   1.709   1.212
 5875TIP3   OH217569   0.878   6.999   5.928
 5875TIP3    H117570   0.908   7.003   5.838
 5875TIP3    H217571   0.783   7.009   5.923
 5876TIP3   OH217572   3.486   4.646   2.257
 5876TIP3    H117573   3.489   4.582   2.327
 5876TIP3    H217574   3.399   4.685   2.264
 5877TIP3   OH217575   5.967   0.606   5.769
 5877TIP3    H117576   5.963   0.550   5.692
 5877TIP3    H217577   6.025   0.678   5.744
 5878TIP3   OH217578   3.842   7.485   1.022
 5878TIP3    H117579   3.904   7.412   1.018
 5878TIP3    H217580   3.756   7.443   1.026
 5879TIP3   OH217581   8.171   7.480   6.559
 5879TIP3    H117582   8.188   7.564   6.516
 5879TIP3    H217583   8.076   7.477   6.569
 5880TIP3   OH217584   1.174   7.148   0.971
 5880TIP3    H117585   1.268   7.152   0.984
 5880TIP3    H217586   1.143   7.087   1.037
 5881TIP3   OH217587   5.938   7.425   3.479
 5881TIP3    H117588   5.857   7.467   3.510
 5881TIP3    H217589   5.914   7.388   3.395
 5882TIP3   OH217590   8.105   2.206   0.343
 5882TIP3    H117591   8.066   2.218   0.256
 5882TIP3    H217592   8.031   2.205   0.403
 5883TIP3   OH217593   4.320   7.527   2.955
 5883TIP3    H117594   4.317   7.605   3.009
 5883TIP3    H217595   4.356   7.556   2.872
 5884TIP3   OH217596   6.566   4.559   3.609
 5884TIP3    H117597   6.582   4.490   3.674
 5884TIP3    H217598   6.476   4.544   3.580
 5885TIP3   OH217599   7.937   2.768   3.999
 5885TIP3    H117600   7.883   2.737   3.926
 5885TIP3    H217601   8.001   2.827   3.958
 5886TIP3   OH217602   5.797   6.176   0.857
 5886TIP3    H117603   5.771   6.142   0.772
 5886TIP3    H217604   5.835   6.262   0.839
 5887TIP3   OH217605   1.519   3.078   2.515
 5887TIP3    H117606   1.489   2.990   2.536
 5887TIP3    H217607   1.569   3.068   2.434
 5888TIP3   OH217608   0.893   0.815   1.161
 5888TIP3    H117609   0.906   0.815   1.255
 5888TIP3    H217610   0.974   0.781   1.124
 5889TIP3   OH217611   0.713   3.456   4.647
 5889TIP3    H117612   0.738   3.364   4.643
 5889TIP3    H217613   0.736   3.491   4.561
 5890TIP3   OH217614   1.215   3.725   1.558
 5890TIP3    H117615   1.302   3.757   1.533
 5890TIP3    H217616   1.170   3.709   1.475
 5891TIP3   OH217617   7.216   4.558   4.017
 5891TIP3    H117618   7.264   4.478   4.040
 5891TIP3    H217619   7.155   4.571   4.089
 5892TIP3   OH217620   1.862   2.075   2.078
 5892TIP3    H117621   1.782   2.110   2.038
 5892TIP3    H217622   1.840   1.984   2.099
 5893TIP3   OH217623   7.824   1.497   1.267
 5893TIP3    H117624   7.859   1.565   1.324
 5893TIP3    H217625   7.734   1.484   1.298
 5894TIP3   OH217626   1.899   2.606   6.604
 5894TIP3    H117627   1.865   2.540   6.544
 5894TIP3    H217628   1.855   2.588   6.687
 5895TIP3   OH217629   0.379   6.618   0.786
 5895TIP3    H117630   0.399   6.710   0.773
 5895TIP3    H217631   0.410   6.574   0.707
 5896TIP3   OH217632   5.052   5.647   5.647
 5896TIP3    H117633   4.983   5.627   5.710
 5896TIP3    H217634   5.103   5.717   5.687
 5897TIP3   OH217635   0.509   2.759   2.489
 5897TIP3    H117636   0.558   2.756   2.571
 5897TIP3    H217637   0.498   2.667   2.464
 5898TIP3   OH217638   7.742   1.022   2.593
 5898TIP3    H117639   7.687   0.969   2.651
 5898TIP3    H217640   7.817   1.046   2.646
 5899TIP3   OH217641   7.084   3.504   1.477
 5899TIP3    H117642   7.032   3.467   1.405
 5899TIP3    H217643   7.135   3.573   1.436
 5900TIP3   OH217644   5.829   6.606   4.691
 5900TIP3    H117645   5.888   6.640   4.758
 5900TIP3    H217646   5.819   6.513   4.713
 5901TIP3   OH217647   6.239   3.810   5.147
 5901TIP3    H117648   6.261   3.763   5.228
 5901TIP3    H217649   6.156   3.853   5.167
 5902TIP3   OH217650   7.953   2.890   2.633
 5902TIP3    H117651   7.868   2.865   2.597
 5902TIP3    H217652   7.935   2.967   2.686
 5903TIP3   OH217653   6.516   3.133   6.339
 5903TIP3    H117654   6.549   3.091   6.418
 5903TIP3    H217655   6.522   3.227   6.358
 5904TIP3   OH217656   6.345   0.933   2.406
 5904TIP3    H117657   6.354   1.011   2.351
 5904TIP3    H217658   6.351   0.860   2.344
 5905TIP3   OH217659   0.221   0.662   3.062
 5905TIP3    H117660   0.157   0.606   3.105
 5905TIP3    H217661   0.176   0.746   3.051
 5906TIP3   OH217662   4.974   2.414   0.692
 5906TIP3    H117663   4.940   2.324   0.697
 5906TIP3    H217664   5.063   2.405   0.658
 5907TIP3   OH217665   5.801   7.293   4.194
 5907TIP3    H117666   5.799   7.386   4.174
 5907TIP3    H217667   5.847   7.287   4.278
 5908TIP3   OH217668   4.155   0.955   3.535
 5908TIP3    H117669   4.212   0.916   3.469
 5908TIP3    H217670   4.148   1.047   3.511
 5909TIP3   OH217671   7.140   4.268   2.435
 5909TIP3    H117672   7.112   4.231   2.518
 5909TIP3    H217673   7.181   4.352   2.457
 5910TIP3   OH217674   4.823   4.417   5.621
 5910TIP3    H117675   4.784   4.429   5.535
 5910TIP3    H217676   4.770   4.471   5.680
 5911TIP3   OH217677   0.714   4.642   4.557
 5911TIP3    H117678   0.777   4.631   4.629
 5911TIP3    H217679   0.757   4.705   4.499
 5912TIP3   OH217680   7.008   0.552   1.038
 5912TIP3    H117681   7.030   0.475   1.090
 5912TIP3    H217682   6.914   0.565   1.052
 5913TIP3   OH217683   5.755   4.890   2.492
 5913TIP3    H117684   5.700   4.884   2.414
 5913TIP3    H217685   5.710   4.839   2.558
 5914TIP3   OH217686   5.802   4.358   0.224
 5914TIP3    H117687   5.740   4.396   0.286
 5914TIP3    H217688   5.758   4.364   0.140
 5915TIP3   OH217689   3.475   7.626   6.503
 5915TIP3    H117690   3.398   7.571   6.517
 5915TIP3    H217691   3.448   7.686   6.433
 5916TIP3   OH217692   4.359   4.770   4.750
 5916TIP3    H117693   4.408   4.749   4.671
 5916TIP3    H217694   4.361   4.690   4.802
 5917TIP3   OH217695   3.879   0.952   2.243
 5917TIP3    H117696   3.925   1.025   2.203
 5917TIP3    H217697   3.948   0.890   2.267
 5918TIP3   OH217698   1.393   1.938   6.715
 5918TIP3    H117699   1.343   1.914   6.793
 5918TIP3    H217700   1.421   1.854   6.678
 5919TIP3   OH217701   1.567   0.573   5.672
 5919TIP3    H117702   1.479   0.603   5.693
 5919TIP3    H217703   1.625   0.641   5.708
 5920TIP3   OH217704   1.556   1.748   0.726
 5920TIP3    H117705   1.535   1.657   0.705
 5920TIP3    H217706   1.635   1.742   0.779
 5921TIP3   OH217707   8.294   0.120   3.076
 5921TIP3    H117708   8.366   0.064   3.050
 5921TIP3    H217709   8.219   0.061   3.083
 5922TIP3   OH217710   5.315   2.781   0.287
 5922TIP3    H117711   5.220   2.779   0.272
 5922TIP3    H217712   5.353   2.786   0.199
 5923TIP3   OH217713   4.055   7.231   4.628
 5923TIP3    H117714   3.982   7.188   4.673
 5923TIP3    H217715   4.070   7.178   4.550
 5924TIP3   OH217716   8.205   2.793   2.560
 5924TIP3    H117717   8.219   2.717   2.616
 5924TIP3    H217718   8.120   2.827   2.586
 5925TIP3   OH217719   5.050   0.422   3.978
 5925TIP3    H117720   5.001   0.501   4.001
 5925TIP3    H217721   5.043   0.417   3.882
 5926TIP3   OH217722   5.607   7.170   5.972
 5926TIP3    H117723   5.579   7.085   6.008
 5926TIP3    H217724   5.662   7.208   6.040
 5927TIP3   OH217725   5.459   2.711   4.104
 5927TIP3    H117726   5.386   2.680   4.157
 5927TIP3    H217727   5.502   2.778   4.158
 5928TIP3   OH217728   1.909   5.158   1.182
 5928TIP3    H117729   1.937   5.096   1.250
 5928TIP3    H217730   1.935   5.116   1.100
 5929TIP3   OH217731   6.030   1.963   3.207
 5929TIP3    H117732   5.943   1.923   3.205
 5929TIP3    H217733   6.024   2.029   3.276
 5930TIP3   OH217734   6.493   0.283   3.470
 5930TIP3    H117735   6.500   0.188   3.474
 5930TIP3    H217736   6.500   0.312   3.561
 5931TIP3   OH217737   5.075   4.872   4.266
 5931TIP3    H117738   5.025   4.823   4.201
 5931TIP3    H217739   5.090   4.957   4.227
 5932TIP3   OH217740   4.715   3.450   3.196
 5932TIP3    H117741   4.677   3.409   3.273
 5932TIP3    H217742   4.645   3.448   3.130
 5933TIP3   OH217743   7.142   3.164   5.892
 5933TIP3    H117744   7.187   3.155   5.808
 5933TIP3    H217745   7.182   3.241   5.932
 5934TIP3   OH217746   3.754   4.644   3.771
 5934TIP3    H117747   3.800   4.728   3.768
 5934TIP3    H217748   3.662   4.666   3.762
 5935TIP3   OH217749   5.152   3.854   1.266
 5935TIP3    H117750   5.174   3.804   1.188
 5935TIP3    H217751   5.233   3.855   1.317
 5936TIP3   OH217752   7.948   6.459   5.154
 5936TIP3    H117753   7.890   6.425   5.222
 5936TIP3    H217754   7.973   6.546   5.184
 5937TIP3   OH217755   1.262   7.520   6.267
 5937TIP3    H117756   1.274   7.535   6.173
 5937TIP3    H217757   1.217   7.598   6.298
 5938TIP3   OH217758   1.426   5.639   1.462
 5938TIP3    H117759   1.372   5.671   1.534
 5938TIP3    H217760   1.476   5.567   1.499
 5939TIP3   OH217761   5.742   5.120   3.542
 5939TIP3    H117762   5.705   5.079   3.464
 5939TIP3    H217763   5.801   5.054   3.578
 5940TIP3   OH217764   5.248   3.468   4.322
 5940TIP3    H117765   5.312   3.442   4.255
 5940TIP3    H217766   5.188   3.527   4.276
 5941TIP3   OH217767   0.298   5.860   4.707
 5941TIP3    H117768   0.254   5.894   4.785
 5941TIP3    H217769   0.296   5.765   4.718
 5942TIP3   OH217770   4.353   5.830   3.960
 5942TIP3    H117771   4.344   5.778   4.039
 5942TIP3    H217772   4.294   5.788   3.897
 5943TIP3   OH217773   2.682   1.352   4.213
 5943TIP3    H117774   2.739   1.412   4.165
 5943TIP3    H217775   2.659   1.285   4.149
 5944TIP3   OH217776   4.764   4.767   5.336
 5944TIP3    H117777   4.829   4.778   5.406
 5944TIP3    H217778   4.754   4.855   5.299
 5945TIP3   OH217779   1.378   6.619   1.756
 5945TIP3    H117780   1.452   6.613   1.696
 5945TIP3    H217781   1.414   6.595   1.842
 5946TIP3   OH217782   6.985   0.185   0.760
 5946TIP3    H117783   7.050   0.233   0.812
 5946TIP3    H217784   6.993   0.223   0.672
 5947TIP3   OH217785   5.113   2.552   4.521
 5947TIP3    H117786   5.162   2.486   4.472
 5947TIP3    H217787   5.115   2.521   4.612
 5948TIP3   OH217788   6.221   7.260   0.538
 5948TIP3    H117789   6.213   7.165   0.533
 5948TIP3    H217790   6.245   7.278   0.629
 5949TIP3   OH217791   5.809   0.412   1.966
 5949TIP3    H117792   5.764   0.462   1.898
 5949TIP3    H217793   5.886   0.375   1.922
 5950TIP3   OH217794   7.151   0.997   1.674
 5950TIP3    H117795   7.241   0.982   1.646
 5950TIP3    H217796   7.151   0.977   1.768
 5951TIP3   OH217797   8.220   2.923   0.383
 5951TIP3    H117798   8.139   2.946   0.428
 5951TIP3    H217799   8.252   3.007   0.349
 5952TIP3   OH217800   1.810   6.112   6.492
 5952TIP3    H117801   1.793   6.175   6.563
 5952TIP3    H217802   1.878   6.154   6.439
 5953TIP3   OH217803   5.845   2.114   4.313
 5953TIP3    H117804   5.785   2.189   4.316
 5953TIP3    H217805   5.927   2.150   4.280
 5954TIP3   OH217806   5.446   4.328   4.208
 5954TIP3    H117807   5.494   4.336   4.290
 5954TIP3    H217808   5.409   4.415   4.193
 5955TIP3   OH217809   5.046   5.117   2.009
 5955TIP3    H117810   5.126   5.137   2.057
 5955TIP3    H217811   4.979   5.171   2.050
 5956TIP3   OH217812   7.641   3.390   0.726
 5956TIP3    H117813   7.682   3.459   0.674
 5956TIP3    H217814   7.660   3.310   0.677
 5957TIP3   OH217815   4.559   1.510   4.489
 5957TIP3    H117816   4.636   1.556   4.523
 5957TIP3    H217817   4.571   1.510   4.394
 5958TIP3   OH217818   6.719   5.114   3.951
 5958TIP3    H117819   6.681   5.104   3.864
 5958TIP3    H217820   6.808   5.146   3.935
 5959TIP3   OH217821   1.148   2.628   3.102
 5959TIP3    H117822   1.102   2.563   3.049
 5959TIP3    H217823   1.238   2.596   3.108
 5960TIP3   OH217824   3.144   4.042   3.730
 5960TIP3    H117825   3.074   4.011   3.788
 5960TIP3    H217826   3.104   4.048   3.644
 5961TIP3   OH217827   3.059   4.072   4.409
 5961TIP3    H117828   2.994   4.053   4.477
 5961TIP3    H217829   3.009   4.079   4.328
 5962TIP3   OH217830   6.842   1.217   0.890
 5962TIP3    H117831   6.883   1.287   0.839
 5962TIP3    H217832   6.766   1.258   0.931
 5963TIP3   OH217833   7.789   2.335   3.679
 5963TIP3    H117834   7.815   2.304   3.765
 5963TIP3    H217835   7.811   2.429   3.680
 5964TIP3   OH217836   0.837   2.967   6.444
 5964TIP3    H117837   0.785   2.917   6.507
 5964TIP3    H217838   0.827   3.058   6.472
 5965TIP3   OH217839   7.766   6.206   2.106
 5965TIP3    H117840   7.728   6.122   2.133
 5965TIP3    H217841   7.691   6.262   2.089
 5966TIP3   OH217842   7.832   1.546   4.572
 5966TIP3    H117843   7.784   1.475   4.615
 5966TIP3    H217844   7.896   1.502   4.516
 5967TIP3   OH217845   5.515   4.207   6.058
 5967TIP3    H117846   5.509   4.111   6.055
 5967TIP3    H217847   5.471   4.231   6.139
 5968TIP3   OH217848   4.115   3.113   0.634
 5968TIP3    H117849   4.072   3.173   0.572
 5968TIP3    H217850   4.138   3.036   0.582
 5969TIP3   OH217851   6.817   0.105   3.145
 5969TIP3    H117852   6.736   0.059   3.122
 5969TIP3    H217853   6.886   0.039   3.137
 5970TIP3   OH217854   0.568   3.332   1.377
 5970TIP3    H117855   0.525   3.265   1.324
 5970TIP3    H217856   0.503   3.402   1.385
 5971TIP3   OH217857   7.378   0.509   3.570
 5971TIP3    H117858   7.284   0.492   3.579
 5971TIP3    H217859   7.391   0.526   3.477
 5972TIP3   OH217860   5.751   4.784   0.427
 5972TIP3    H117861   5.723   4.839   0.500
 5972TIP3    H217862   5.679   4.788   0.365
 5973TIP3   OH217863   3.935   4.123   5.907
 5973TIP3    H117864   3.924   4.044   5.961
 5973TIP3    H217865   4.023   4.114   5.869
 5974TIP3   OH217866   1.942   5.473   1.670
 5974TIP3    H117867   1.989   5.542   1.718
 5974TIP3    H217868   1.921   5.513   1.585
 5975TIP3   OH217869   8.137   4.878   4.120
 5975TIP3    H117870   8.117   4.901   4.029
 5975TIP3    H217871   8.079   4.804   4.139
 5976TIP3   OH217872   4.980   0.049   0.848
 5976TIP3    H117873   4.994  -0.043   0.826
 5976TIP3    H217874   5.044   0.068   0.916
 5977TIP3   OH217875   7.386   0.105   3.896
 5977TIP3    H117876   7.323   0.117   3.967
 5977TIP3    H217877   7.355   0.161   3.825
 5978TIP3   OH217878   7.786   1.531   2.228
 5978TIP3    H117879   7.801   1.605   2.286
 5978TIP3    H217880   7.831   1.554   2.147
 5979TIP3   OH217881   3.565   4.177   2.915
 5979TIP3    H117882   3.482   4.142   2.945
 5979TIP3    H217883   3.625   4.102   2.917
 5980TIP3   OH217884   5.407   6.157   2.208
 5980TIP3    H117885   5.406   6.151   2.303
 5980TIP3    H217886   5.407   6.251   2.189
 5981TIP3   OH217887   4.506   0.270   3.554
 5981TIP3    H117888   4.483   0.202   3.490
 5981TIP3    H217889   4.560   0.331   3.505
 5982TIP3   OH217890   4.160   5.874   6.409
 5982TIP3    H117891   4.223   5.898   6.341
 5982TIP3    H217892   4.082   5.926   6.389
 5983TIP3   OH217893   0.594   3.051   0.829
 5983TIP3    H117894   0.610   3.065   0.736
 5983TIP3    H217895   0.512   3.003   0.833
 5984TIP3   OH217896   5.225   3.035   5.057
 5984TIP3    H117897   5.210   3.090   5.133
 5984TIP3    H217898   5.147   3.047   5.002
 5985TIP3   OH217899   0.951   2.652   4.975
 5985TIP3    H117900   0.889   2.642   4.903
 5985TIP3    H217901   0.899   2.639   5.054
 5986TIP3   OH217902   1.166   0.492   1.153
 5986TIP3    H117903   1.188   0.538   1.233
 5986TIP3    H217904   1.143   0.561   1.090
 5987TIP3   OH217905   6.330   6.022   2.014
 5987TIP3    H117906   6.302   5.941   1.971
 5987TIP3    H217907   6.248   6.066   2.038
 5988TIP3   OH217908   5.905   2.469   6.588
 5988TIP3    H117909   5.810   2.474   6.597
 5988TIP3    H217910   5.921   2.493   6.497
 5989TIP3   OH217911   3.880   2.765   4.839
 5989TIP3    H117912   3.866   2.827   4.767
 5989TIP3    H217913   3.910   2.819   4.912
 5990TIP3   OH217914   4.912   2.379   3.138
 5990TIP3    H117915   4.943   2.370   3.048
 5990TIP3    H217916   4.888   2.471   3.146
 5991TIP3   OH217917   4.302   6.405   4.133
 5991TIP3    H117918   4.246   6.464   4.183
 5991TIP3    H217919   4.269   6.411   4.043
 5992TIP3   OH217920   4.487   6.846   4.285
 5992TIP3    H117921   4.432   6.824   4.360
 5992TIP3    H217922   4.557   6.780   4.286
 5993TIP3   OH217923   2.505   4.693   4.013
 5993TIP3    H117924   2.472   4.748   3.942
 5993TIP3    H217925   2.574   4.745   4.053
 5994TIP3   OH217926   0.233   2.945   1.775
 5994TIP3    H117927   0.147   2.968   1.740
 5994TIP3    H217928   0.295   2.995   1.722
 5995TIP3   OH217929   3.534   0.415   3.192
 5995TIP3    H117930   3.498   0.369   3.115
 5995TIP3    H217931   3.587   0.485   3.154
 5996TIP3   OH217932   8.094   3.700   0.399
 5996TIP3    H117933   8.164   3.727   0.459
 5996TIP3    H217934   8.104   3.605   0.393
 5997TIP3   OH217935   4.192   5.726   2.226
 5997TIP3    H117936   4.257   5.661   2.200
 5997TIP3    H217937   4.209   5.801   2.170
 5998TIP3   OH217938   3.777   7.453   2.267
 5998TIP3    H117939   3.785   7.361   2.243
 5998TIP3    H217940   3.697   7.457   2.320
 5999TIP3   OH217941   4.558   1.620   6.570
 5999TIP3    H117942   4.623   1.683   6.539
 5999TIP3    H217943   4.529   1.655   6.655
 6000TIP3   OH217944   6.685   6.541   6.236
 6000TIP3    H117945   6.722   6.472   6.292
 6000TIP3    H217946   6.727   6.528   6.151
 6001TIP3   OH217947   5.201   4.210   5.093
 6001TIP3    H117948   5.220   4.144   5.160
 6001TIP3    H217949   5.287   4.236   5.060
 6002TIP3   OH217950   6.430   2.562   1.378
 6002TIP3    H117951   6.431   2.620   1.301
 6002TIP3    H217952   6.458   2.618   1.450
 6003TIP3   OH217953   4.122   5.218   1.544
 6003TIP3    H117954   4.099   5.287   1.607
 6003TIP3    H217955   4.211   5.240   1.515
 6004TIP3   OH217956   5.858   3.970   2.827
 6004TIP3    H117957   5.909   4.048   2.805
 6004TIP3    H217958   5.917   3.897   2.809
 6005TIP3   OH217959   7.091   3.887   0.705
 6005TIP3    H117960   7.070   3.805   0.748
 6005TIP3    H217961   7.142   3.936   0.769
 6006TIP3   OH217962   2.196   2.074   4.236
 6006TIP3    H117963   2.254   1.999   4.249
 6006TIP3    H217964   2.213   2.131   4.311
 6007TIP3   OH217965   4.084   1.230   1.781
 6007TIP3    H117966   4.152   1.281   1.823
 6007TIP3    H217967   4.039   1.292   1.724
 6008TIP3   OH217968   4.493   1.420   3.855
 6008TIP3    H117969   4.549   1.462   3.790
 6008TIP3    H217970   4.480   1.486   3.922
 6009TIP3   OH217971   0.752   5.894   5.583
 6009TIP3    H117972   0.701   5.895   5.503
 6009TIP3    H217973   0.699   5.844   5.645
 6010TIP3   OH217974   4.892   6.387   6.150
 6010TIP3    H117975   4.966   6.414   6.095
 6010TIP3    H217976   4.912   6.297   6.174
 6011TIP3   OH217977   0.622   7.214   0.886
 6011TIP3    H117978   0.552   7.217   0.951
 6011TIP3    H217979   0.635   7.306   0.862
 6012TIP3   OH217980   5.511   7.757   1.028
 6012TIP3    H117981   5.547   7.690   0.969
 6012TIP3    H217982   5.421   7.768   0.998
 6013TIP3   OH217983   5.816   7.078   2.980
 6013TIP3    H117984   5.735   7.026   2.986
 6013TIP3    H217985   5.869   7.047   3.054
 6014TIP3   OH217986   1.677   1.650   1.778
 6014TIP3    H117987   1.756   1.648   1.832
 6014TIP3    H217988   1.685   1.731   1.727
 6015TIP3   OH217989   2.356   2.349   0.566
 6015TIP3    H117990   2.439   2.389   0.590
 6015TIP3    H217991   2.307   2.344   0.648
 6016TIP3   OH217992   5.958   4.019   4.841
 6016TIP3    H117993   5.946   3.926   4.824
 6016TIP3    H217994   5.870   4.054   4.852
 6017TIP3   OH217995   7.556   7.076   3.036
 6017TIP3    H117996   7.480   7.088   2.979
 6017TIP3    H217997   7.626   7.047   2.977
 6018TIP3   OH217998   4.605   5.696   1.322
 6018TIP3    H117999   4.582   5.676   1.231
 6018TIP3    H218000   4.549   5.769   1.346
 6019TIP3   OH218001   1.910   6.569   3.353
 6019TIP3    H118002   1.850   6.553   3.280
 6019TIP3    H218003   1.994   6.589   3.312
 6020TIP3   OH218004   0.147   2.695   3.710
 6020TIP3    H118005   0.112   2.687   3.798
 6020TIP3    H218006   0.189   2.610   3.693
 6021TIP3   OH218007   3.576   7.775   5.268
 6021TIP3    H118008   3.587   7.795   5.361
 6021TIP3    H218009   3.498   7.719   5.266
 6022TIP3   OH218010   2.321   0.215   3.498
 6022TIP3    H118011   2.320   0.160   3.419
 6022TIP3    H218012   2.343   0.156   3.569
 6023TIP3   OH218013   7.140   6.392   2.917
 6023TIP3    H118014   7.048   6.389   2.890
 6023TIP3    H218015   7.157   6.307   2.957
 6024TIP3   OH218016   5.021   7.503   5.316
 6024TIP3    H118017   4.986   7.452   5.242
 6024TIP3    H218018   5.030   7.592   5.280
 6025TIP3   OH218019   2.479   3.587   6.349
 6025TIP3    H118020   2.459   3.678   6.327
 6025TIP3    H218021   2.469   3.539   6.267
 6026TIP3   OH218022   5.698   4.527   5.672
 6026TIP3    H118023   5.685   4.622   5.671
 6026TIP3    H218024   5.793   4.517   5.669
 6027TIP3   OH218025   5.928   7.333   3.001
 6027TIP3    H118026   5.876   7.255   2.981
 6027TIP3    H218027   6.018   7.308   2.982
 6028TIP3   OH218028   7.757   6.879   0.275
 6028TIP3    H118029   7.788   6.969   0.282
 6028TIP3    H218030   7.791   6.836   0.354
 6029TIP3   OH218031   0.783   4.723   1.162
 6029TIP3    H118032   0.743   4.796   1.209
 6029TIP3    H218033   0.876   4.741   1.164
 6030TIP3   OH218034   4.769   0.426   3.726
 6030TIP3    H118035   4.683   0.433   3.767
 6030TIP3    H218036   4.783   0.332   3.715
 6031TIP3   OH218037   0.113   2.019   6.401
 6031TIP3    H118038   0.042   2.082   6.388
 6031TIP3    H218039   0.143   2.034   6.490
 6032TIP3   OH218040   7.124   6.731   3.723
 6032TIP3    H118041   7.120   6.777   3.639
 6032TIP3    H218042   7.198   6.771   3.769
 6033TIP3   OH218043   5.804   6.181   2.464
 6033TIP3    H118044   5.744   6.115   2.501
 6033TIP3    H218045   5.765   6.205   2.381
 6034TIP3   OH218046   5.769   2.031   2.339
 6034TIP3    H118047   5.820   1.950   2.341
 6034TIP3    H218048   5.708   2.020   2.266
 6035TIP3   OH218049   4.380   3.198   4.532
 6035TIP3    H118050   4.455   3.231   4.581
 6035TIP3    H218051   4.336   3.139   4.593
 6036TIP3   OH218052   1.172   6.371   0.280
 6036TIP3    H118053   1.247   6.360   0.222
 6036TIP3    H218054   1.097   6.346   0.226
 6037TIP3   OH218055   5.956   0.229   3.513
 6037TIP3    H118056   5.991   0.256   3.598
 6037TIP3    H218057   6.028   0.243   3.452
 6038TIP3   OH218058   5.587   7.793   4.610
 6038TIP3    H118059   5.538   7.792   4.528
 6038TIP3    H218060   5.631   7.709   4.613
 6039TIP3   OH218061   7.531   4.018   3.846
 6039TIP3    H118062   7.584   3.961   3.790
 6039TIP3    H218063   7.454   4.038   3.794
 6040TIP3   OH218064   5.494   7.198   1.075
 6040TIP3    H118065   5.531   7.280   1.043
 6040TIP3    H218066   5.553   7.171   1.146
 6041TIP3   OH218067   4.680   4.910   2.262
 6041TIP3    H118068   4.751   4.921   2.325
 6041TIP3    H218069   4.722   4.923   2.177
 6042TIP3   OH218070   7.890   2.821   1.076
 6042TIP3    H118071   7.903   2.909   1.041
 6042TIP3    H218072   7.819   2.784   1.024
 6043TIP3   OH218073   4.525   4.085   4.572
 6043TIP3    H118074   4.547   4.016   4.635
 6043TIP3    H218075   4.519   4.039   4.488
 6044TIP3   OH218076   2.244   3.878   5.444
 6044TIP3    H118077   2.329   3.889   5.486
 6044TIP3    H218078   2.213   3.793   5.474
 6045TIP3   OH218079   2.326   5.069   4.580
 6045TIP3    H118080   2.318   4.980   4.614
 6045TIP3    H218081   2.392   5.062   4.511
 6046TIP3   OH218082   2.448   5.413   0.433
 6046TIP3    H118083   2.365   5.410   0.386
 6046TIP3    H218084   2.511   5.373   0.372
 6047TIP3   OH218085   5.590   1.704   2.869
 6047TIP3    H118086   5.662   1.671   2.924
 6047TIP3    H218087   5.598   1.653   2.788
 6048TIP3   OH218088   3.311   1.914   2.966
 6048TIP3    H118089   3.370   1.979   2.928
 6048TIP3    H218090   3.347   1.895   3.053
 6049TIP3   OH218091   8.163   7.563   5.499
 6049TIP3    H118092   8.151   7.652   5.465
 6049TIP3    H218093   8.255   7.560   5.526
 6050TIP3   OH218094   1.803   3.437   2.744
 6050TIP3    H118095   1.777   3.522   2.707
 6050TIP3    H218096   1.728   3.380   2.727
 6051TIP3   OH218097   5.875   1.944   1.943
 6051TIP3    H118098   5.796   1.951   1.996
 6051TIP3    H218099   5.947   1.949   2.006
 6052TIP3   OH218100   3.912   1.960   4.673
 6052TIP3    H118101   3.897   1.875   4.715
 6052TIP3    H218102   3.825   1.996   4.661
 6053TIP3   OH218103   0.771   3.015   2.830
 6053TIP3    H118104   0.692   2.973   2.864
 6053TIP3    H218105   0.795   3.078   2.898
 6054TIP3   OH218106   0.435   3.391   6.112
 6054TIP3    H118107   0.426   3.316   6.052
 6054TIP3    H218108   0.362   3.382   6.173
 6055TIP3   OH218109   3.448   0.797   2.084
 6055TIP3    H118110   3.495   0.813   2.002
 6055TIP3    H218111   3.513   0.755   2.141
 6056TIP3   OH218112   3.633   5.014   3.740
 6056TIP3    H118113   3.578   4.980   3.811
 6056TIP3    H218114   3.577   5.077   3.695
 6057TIP3   OH218115   2.423   0.321   3.192
 6057TIP3    H118116   2.342   0.301   3.144
 6057TIP3    H218117   2.399   0.395   3.248
 6058TIP3   OH218118   1.903   1.820   6.358
 6058TIP3    H118119   1.942   1.743   6.316
 6058TIP3    H218120   1.974   1.856   6.412
 6059TIP3   OH218121   0.237   5.402   1.188
 6059TIP3    H118122   0.270   5.470   1.128
 6059TIP3    H218123   0.309   5.339   1.194
 6060TIP3   OH218124   6.746   0.069   1.881
 6060TIP3    H118125   6.836   0.050   1.908
 6060TIP3    H218126   6.753   0.097   1.790
 6061TIP3   OH218127   3.972   4.597   1.716
 6061TIP3    H118128   3.950   4.543   1.791
 6061TIP3    H218129   4.031   4.544   1.664
 6062TIP3   OH218130   3.812   3.652   5.891
 6062TIP3    H118131   3.774   3.621   5.809
 6062TIP3    H218132   3.868   3.579   5.920
 6063TIP3   OH218133   1.581   6.010   5.401
 6063TIP3    H118134   1.668   6.047   5.414
 6063TIP3    H218135   1.596   5.927   5.355
 6064TIP3   OH218136   0.468   0.424   5.749
 6064TIP3    H118137   0.387   0.473   5.759
 6064TIP3    H218138   0.440   0.333   5.738
 6065TIP3   OH218139   6.850   0.287   6.628
 6065TIP3    H118140   6.848   0.283   6.533
 6065TIP3    H218141   6.925   0.232   6.653
 6066TIP3   OH218142   7.523   5.762   6.685
 6066TIP3    H118143   7.530   5.674   6.721
 6066TIP3    H218144   7.561   5.819   6.752
 6067TIP3   OH218145   8.134   3.161   3.391
 6067TIP3    H118146   8.074   3.206   3.331
 6067TIP3    H218147   8.164   3.085   3.342
 6068TIP3   OH218148   6.468   5.206   4.128
 6068TIP3    H118149   6.554   5.176   4.097
 6068TIP3    H218150   6.450   5.284   4.075
 6069TIP3   OH218151   6.400   1.976   6.225
 6069TIP3    H118152   6.492   1.984   6.199
 6069TIP3    H218153   6.391   1.885   6.253
 6070TIP3   OH218154   7.091   1.739   1.277
 6070TIP3    H118155   7.121   1.803   1.212
 6070TIP3    H218156   7.108   1.654   1.236
 6071TIP3   OH218157   3.008   5.754   3.167
 6071TIP3    H118158   2.999   5.843   3.132
 6071TIP3    H218159   3.101   5.736   3.162
 6072TIP3   OH218160   6.670   2.731   3.105
 6072TIP3    H118161   6.639   2.653   3.059
 6072TIP3    H218162   6.652   2.713   3.197
 6073TIP3   OH218163   4.554   0.358   0.263
 6073TIP3    H118164   4.617   0.368   0.192
 6073TIP3    H218165   4.609   0.343   0.341
 6074TIP3   OH218166   3.168   0.096   3.364
 6074TIP3    H118167   3.098   0.109   3.428
 6074TIP3    H218168   3.225   0.172   3.374
 6075TIP3   OH218169   1.318   5.937   5.458
 6075TIP3    H118170   1.398   5.969   5.416
 6075TIP3    H218171   1.324   5.842   5.451
 6076TIP3   OH218172   4.707   0.081   0.495
 6076TIP3    H118173   4.719   0.169   0.459
 6076TIP3    H218174   4.712   0.092   0.590
 6077TIP3   OH218175   7.675   7.013   4.884
 6077TIP3    H118176   7.766   7.041   4.889
 6077TIP3    H218177   7.636   7.042   4.966
 6078TIP3   OH218178   3.082   0.318   0.391
 6078TIP3    H118179   3.078   0.413   0.376
 6078TIP3    H218180   3.022   0.303   0.463
 6079TIP3   OH218181   2.127   6.764   4.351
 6079TIP3    H118182   2.204   6.820   4.357
 6079TIP3    H218183   2.145   6.706   4.277
 6080TIP3   OH218184   2.577   6.106   5.335
 6080TIP3    H118185   2.556   6.098   5.428
 6080TIP3    H218186   2.579   6.015   5.304
 6081TIP3   OH218187   7.205   3.771   5.331
 6081TIP3    H118188   7.196   3.721   5.249
 6081TIP3    H218189   7.300   3.773   5.347
 6082TIP3   OH218190   2.433   2.205   4.708
 6082TIP3    H118191   2.521   2.182   4.740
 6082TIP3    H218192   2.376   2.137   4.743
 6083TIP3   OH218193   3.132   0.977   1.855
 6083TIP3    H118194   3.181   0.985   1.773
 6083TIP3    H218195   3.164   0.896   1.895
 6084TIP3   OH218196   3.558   6.976   0.122
 6084TIP3    H118197   3.635   6.929   0.154
 6084TIP3    H218198   3.526   6.923   0.049
 6085TIP3   OH218199   7.948   6.554   2.940
 6085TIP3    H118200   7.977   6.514   3.021
 6085TIP3    H218201   7.927   6.644   2.963
 6086TIP3   OH218202   1.541   5.790   2.622
 6086TIP3    H118203   1.547   5.716   2.562
 6086TIP3    H218204   1.599   5.766   2.695
 6087TIP3   OH218205   6.744   2.337   6.726
 6087TIP3    H118206   6.727   2.429   6.748
 6087TIP3    H218207   6.760   2.337   6.632
 6088TIP3   OH218208   2.134   4.354   0.714
 6088TIP3    H118209   2.203   4.397   0.764
 6088TIP3    H218210   2.133   4.399   0.630
 6089TIP3   OH218211   2.488   5.483   4.642
 6089TIP3    H118212   2.415   5.542   4.623
 6089TIP3    H218213   2.539   5.528   4.710
 6090TIP3   OH218214   3.104   2.481   6.749
 6090TIP3    H118215   3.009   2.489   6.739
 6090TIP3    H218216   3.135   2.449   6.664
 6091TIP3   OH218217   3.946   0.826   5.358
 6091TIP3    H118218   3.924   0.750   5.305
 6091TIP3    H218219   3.997   0.882   5.299
 6092TIP3   OH218220   2.766   2.148   3.961
 6092TIP3    H118221   2.760   2.081   3.893
 6092TIP3    H218222   2.860   2.160   3.974
 6093TIP3   OH218223   3.845   4.686   0.151
 6093TIP3    H118224   3.763   4.642   0.130
 6093TIP3    H218225   3.837   4.712   0.243
 6094TIP3   OH218226   4.430   1.136   6.094
 6094TIP3    H118227   4.488   1.169   6.026
 6094TIP3    H218228   4.468   1.052   6.119
 6095TIP3   OH218229   7.172   2.749   3.406
 6095TIP3    H118230   7.209   2.672   3.450
 6095TIP3    H218231   7.152   2.719   3.318
 6096TIP3   OH218232   5.822   2.986   6.300
 6096TIP3    H118233   5.758   2.972   6.371
 6096TIP3    H218234   5.782   2.943   6.224
 6097TIP3   OH218235   7.676   0.188   1.504
 6097TIP3    H118236   7.597   0.238   1.524
 6097TIP3    H218237   7.731   0.198   1.581
 6098TIP3   OH218238   2.550   6.400   2.016
 6098TIP3    H118239   2.461   6.434   2.015
 6098TIP3    H218240   2.580   6.408   1.926
 6099TIP3   OH218241   6.747   2.673   3.953
 6099TIP3    H118242   6.757   2.718   3.869
 6099TIP3    H218243   6.837   2.658   3.983
 6100TIP3   OH218244   1.131   7.476   2.932
 6100TIP3    H118245   1.071   7.503   2.862
 6100TIP3    H218246   1.133   7.550   2.992
 6101TIP3   OH218247   0.043   5.888   2.392
 6101TIP3    H118248   0.091   5.827   2.336
 6101TIP3    H218249   0.102   5.906   2.465
 6102TIP3   OH218250   6.021   6.552   3.049
 6102TIP3    H118251   6.042   6.471   3.003
 6102TIP3    H218252   5.946   6.589   3.002
 6103TIP3   OH218253   5.810   0.116   0.557
 6103TIP3    H118254   5.893   0.097   0.513
 6103TIP3    H218255   5.743   0.096   0.492
 6104TIP3   OH218256   5.342   0.599   3.956
 6104TIP3    H118257   5.383   0.518   3.986
 6104TIP3    H218258   5.250   0.589   3.981
 6105TIP3   OH218259   5.064   4.006   1.819
 6105TIP3    H118260   5.092   4.052   1.740
 6105TIP3    H218261   4.996   3.946   1.789
 6106TIP3   OH218262   2.094   7.305   2.101
 6106TIP3    H118263   2.095   7.398   2.080
 6106TIP3    H218264   2.137   7.263   2.027
 6107TIP3   OH218265   6.408   0.525   3.374
 6107TIP3    H118266   6.438   0.614   3.393
 6107TIP3    H218267   6.457   0.470   3.436
 6108TIP3   OH218268   0.295   7.760   1.940
 6108TIP3    H118269   0.214   7.800   1.910
 6108TIP3    H218270   0.354   7.766   1.864
 6109TIP3   OH218271   4.613   0.761   6.748
 6109TIP3    H118272   4.576   0.844   6.778
 6109TIP3    H218273   4.544   0.723   6.693
 6110TIP3   OH218274   1.166   7.834   3.753
 6110TIP3    H118275   1.095   7.851   3.816
 6110TIP3    H218276   1.122   7.795   3.678
 6111TIP3   OH218277   1.684   5.345   1.333
 6111TIP3    H118278   1.623   5.294   1.280
 6111TIP3    H218279   1.769   5.331   1.292
 6112TIP3   OH218280   6.064   3.143   6.424
 6112TIP3    H118281   6.112   3.074   6.469
 6112TIP3    H218282   5.990   3.163   6.481
 6113TIP3   OH218283   6.285   2.247   0.257
 6113TIP3    H118284   6.208   2.225   0.205
 6113TIP3    H218285   6.250   2.278   0.340
 6114TIP3   OH218286   4.548   4.243   5.553
 6114TIP3    H118287   4.537   4.235   5.648
 6114TIP3    H218288   4.626   4.190   5.534
 6115TIP3   OH218289   8.125   0.886   4.447
 6115TIP3    H118290   8.102   0.935   4.526
 6115TIP3    H218291   8.211   0.848   4.466
 6116TIP3   OH218292   4.126   6.160   4.045
 6116TIP3    H118293   4.205   6.209   4.021
 6116TIP3    H218294   4.145   6.125   4.131
 6117TIP3   OH218295   0.101   2.971   6.336
 6117TIP3    H118296   0.094   3.036   6.266
 6117TIP3    H218297   0.189   2.984   6.371
 6118TIP3   OH218298   4.597   4.001   3.804
 6118TIP3    H118299   4.610   4.007   3.899
 6118TIP3    H218300   4.652   4.070   3.768
 6119TIP3   OH218301   5.412   3.375   1.226
 6119TIP3    H118302   5.330   3.336   1.258
 6119TIP3    H218303   5.425   3.335   1.140
 6120TIP3   OH218304   0.186   5.475   1.740
 6120TIP3    H118305   0.188   5.422   1.660
 6120TIP3    H218306   0.278   5.491   1.760
 6121TIP3   OH218307   0.198   2.143   5.108
 6121TIP3    H118308   0.195   2.060   5.156
 6121TIP3    H218309   0.142   2.202   5.159
 6122TIP3   OH218310   1.380   3.214   1.955
 6122TIP3    H118311   1.362   3.120   1.953
 6122TIP3    H218312   1.471   3.221   1.983
 6123TIP3   OH218313   0.841   2.156   2.865
 6123TIP3    H118314   0.837   2.250   2.846
 6123TIP3    H218315   0.823   2.114   2.781
 6124TIP3   OH218316   6.690   6.705   4.792
 6124TIP3    H118317   6.668   6.786   4.747
 6124TIP3    H218318   6.778   6.684   4.762
 6125TIP3   OH218319   5.034   6.031   4.297
 6125TIP3    H118320   4.939   6.023   4.302
 6125TIP3    H218321   5.067   5.945   4.323
 6126TIP3   OH218322   2.425   5.259   4.791
 6126TIP3    H118323   2.416   5.195   4.721
 6126TIP3    H218324   2.445   5.341   4.747
 6127TIP3   OH218325   3.523   5.557   3.647
 6127TIP3    H118326   3.453   5.550   3.712
 6127TIP3    H218327   3.482   5.598   3.571
 6128TIP3   OH218328   6.088   6.157   2.748
 6128TIP3    H118329   6.135   6.237   2.724
 6128TIP3    H218330   6.151   6.086   2.734
 6129TIP3   OH218331   0.293   4.577   1.847
 6129TIP3    H118332   0.259   4.537   1.927
 6129TIP3    H218333   0.232   4.549   1.778
 6130TIP3   OH218334   5.370   5.424   6.123
 6130TIP3    H118335   5.347   5.340   6.162
 6130TIP3    H218336   5.288   5.455   6.085
 6131TIP3   OH218337   7.132   1.194   4.533
 6131TIP3    H118338   7.182   1.135   4.589
 6131TIP3    H218339   7.093   1.137   4.467
 6132TIP3   OH218340   5.122   7.222   3.784
 6132TIP3    H118341   5.144   7.277   3.859
 6132TIP3    H218342   5.165   7.265   3.710
 6133TIP3   OH218343   0.331   5.659   0.761
 6133TIP3    H118344   0.264   5.726   0.778
 6133TIP3    H218345   0.410   5.694   0.802
 6134TIP3   OH218346   4.666   2.141   0.389
 6134TIP3    H118347   4.649   2.222   0.340
 6134TIP3    H218348   4.611   2.076   0.347
 6135TIP3   OH218349   6.849   6.883   5.002
 6135TIP3    H118350   6.835   6.942   5.075
 6135TIP3    H218351   6.762   6.849   4.981
 6136TIP3   OH218352   7.827   5.172   2.386
 6136TIP3    H118353   7.876   5.248   2.418
 6136TIP3    H218354   7.854   5.164   2.294
 6137TIP3   OH218355   6.549   2.674   1.131
 6137TIP3    H118356   6.504   2.605   1.083
 6137TIP3    H218357   6.544   2.751   1.074
 6138TIP3   OH218358   1.528   5.207   3.351
 6138TIP3    H118359   1.443   5.183   3.387
 6138TIP3    H218360   1.591   5.175   3.415
 6139TIP3   OH218361   4.803   2.547   4.063
 6139TIP3    H118362   4.845   2.541   4.150
 6139TIP3    H218363   4.710   2.560   4.082
 6140TIP3   OH218364   2.326   3.986   2.966
 6140TIP3    H118365   2.316   4.061   2.908
 6140TIP3    H218366   2.355   4.024   3.049
 6141TIP3   OH218367   5.359   3.792   1.416
 6141TIP3    H118368   5.375   3.701   1.442
 6141TIP3    H218369   5.433   3.841   1.453
 6142TIP3   OH218370   3.750   3.569   4.978
 6142TIP3    H118371   3.844   3.584   4.972
 6142TIP3    H218372   3.713   3.656   4.993
 6143TIP3   OH218373   4.350   4.149   0.496
 6143TIP3    H118374   4.320   4.240   0.491
 6143TIP3    H218375   4.407   4.146   0.572
 6144TIP3   OH218376   6.118   5.580   1.286
 6144TIP3    H118377   6.037   5.626   1.308
 6144TIP3    H218378   6.098   5.488   1.298
 6145TIP3   OH218379   5.016   2.474   0.951
 6145TIP3    H118380   5.093   2.421   0.973
 6145TIP3    H218381   5.011   2.471   0.855
 6146TIP3   OH218382   2.165   7.518   6.691
 6146TIP3    H118383   2.168   7.436   6.642
 6146TIP3    H218384   2.224   7.504   6.765
 6147TIP3   OH218385   1.941   3.482   4.645
 6147TIP3    H118386   2.003   3.532   4.697
 6147TIP3    H218387   1.864   3.474   4.700
 6148TIP3   OH218388   0.237   5.690   6.419
 6148TIP3    H118389   0.143   5.682   6.403
 6148TIP3    H218390   0.245   5.705   6.513
 6149TIP3   OH218391   5.490   2.201   1.325
 6149TIP3    H118392   5.575   2.242   1.339
 6149TIP3    H218393   5.426   2.268   1.351
 6150TIP3   OH218394   7.746   3.137   5.912
 6150TIP3    H118395   7.658   3.105   5.893
 6150TIP3    H218396   7.768   3.097   5.996
 6151TIP3   OH218397   4.504   7.799   1.312
 6151TIP3    H118398   4.498   7.890   1.284
 6151TIP3    H218399   4.597   7.777   1.300
 6152TIP3   OH218400   5.437   5.055   1.052
 6152TIP3    H118401   5.381   5.103   1.113
 6152TIP3    H218402   5.520   5.104   1.054
 6153TIP3   OH218403   3.751   5.816   4.185
 6153TIP3    H118404   3.825   5.853   4.234
 6153TIP3    H218405   3.792   5.772   4.110
 6154TIP3   OH218406   1.435   7.106   5.921
 6154TIP3    H118407   1.396   7.040   5.978
 6154TIP3    H218408   1.363   7.165   5.898
 6155TIP3   OH218409   8.106   3.965   5.203
 6155TIP3    H118410   8.200   3.983   5.203
 6155TIP3    H218411   8.075   4.004   5.121
 6156TIP3   OH218412   5.975   7.106   1.641
 6156TIP3    H118413   5.941   7.172   1.580
 6156TIP3    H218414   6.039   7.057   1.589
 6157TIP3   OH218415   1.149   6.759   0.912
 6157TIP3    H118416   1.061   6.785   0.883
 6157TIP3    H218417   1.179   6.833   0.966
 6158TIP3   OH218418   3.898   4.825   2.024
 6158TIP3    H118419   3.816   4.778   2.039
 6158TIP3    H218420   3.962   4.779   2.078
 6159TIP3   OH218421   3.203   0.739   2.034
 6159TIP3    H118422   3.297   0.755   2.041
 6159TIP3    H218423   3.163   0.812   2.082
 6160TIP3   OH218424   2.719   6.064  -0.003
 6160TIP3    H118425   2.626   6.045  -0.017
 6160TIP3    H218426   2.726   6.085   0.090
 6161TIP3   OH218427   1.276   3.026   2.933
 6161TIP3    H118428   1.257   2.950   2.878
 6161TIP3    H218429   1.272   3.101   2.872
 6162TIP3   OH218430   0.487   0.381   3.554
 6162TIP3    H118431   0.535   0.298   3.557
 6162TIP3    H218432   0.544   0.443   3.600
 6163TIP3   OH218433   1.600   2.196   2.703
 6163TIP3    H118434   1.671   2.159   2.755
 6163TIP3    H218435   1.639   2.209   2.616
 6164TIP3   OH218436   6.882   6.715   0.488
 6164TIP3    H118437   6.828   6.782   0.446
 6164TIP3    H218438   6.951   6.696   0.424
 6165TIP3   OH218439   7.674   3.732   0.796
 6165TIP3    H118440   7.673   3.711   0.702
 6165TIP3    H218441   7.582   3.752   0.816
 6166TIP3   OH218442   4.287   7.761   0.645
 6166TIP3    H118443   4.229   7.831   0.673
 6166TIP3    H218444   4.234   7.707   0.586
 6167TIP3   OH218445   7.380   3.322   4.820
 6167TIP3    H118446   7.347   3.411   4.813
 6167TIP3    H218447   7.468   3.332   4.857
 6168TIP3   OH218448   0.286   0.847   4.667
 6168TIP3    H118449   0.380   0.829   4.667
 6168TIP3    H218450   0.271   0.900   4.745
 6169TIP3   OH218451   4.170   7.653   1.538
 6169TIP3    H118452   4.075   7.647   1.545
 6169TIP3    H218453   4.194   7.722   1.601
 6170TIP3   OH218454   2.480   4.278   6.622
 6170TIP3    H118455   2.391   4.253   6.648
 6170TIP3    H218456   2.522   4.195   6.600
 6171TIP3   OH218457   1.103   7.019   3.957
 6171TIP3    H118458   1.135   7.109   3.948
 6171TIP3    H218459   1.029   7.013   3.897
 6172TIP3   OH218460   3.162   5.390   3.641
 6172TIP3    H118461   3.104   5.320   3.610
 6172TIP3    H218462   3.223   5.345   3.701
 6173TIP3   OH218463   7.526   5.684   3.432
 6173TIP3    H118464   7.566   5.623   3.494
 6173TIP3    H218465   7.546   5.647   3.346
 6174TIP3   OH218466   4.450   1.753   2.054
 6174TIP3    H118467   4.398   1.802   2.117
 6174TIP3    H218468   4.501   1.819   2.007
 6175TIP3   OH218469   0.451   4.625   4.681
 6175TIP3    H118470   0.421   4.714   4.699
 6175TIP3    H218471   0.523   4.637   4.618
 6176TIP3   OH218472   2.916   0.314   3.054
 6176TIP3    H118473   2.877   0.382   3.000
 6176TIP3    H218474   2.861   0.311   3.132
 6177TIP3   OH218475   3.262   3.781   3.591
 6177TIP3    H118476   3.350   3.778   3.553
 6177TIP3    H218477   3.276   3.803   3.683
 6178TIP3   OH218478   0.948   6.968   1.081
 6178TIP3    H118479   0.890   6.946   1.008
 6178TIP3    H218480   0.916   7.052   1.113
 6179TIP3   OH218481   3.120   0.843   3.650
 6179TIP3    H118482   3.105   0.870   3.559
 6179TIP3    H218483   3.040   0.869   3.695
 6180TIP3   OH218484   8.318   6.734   2.178
 6180TIP3    H118485   8.241   6.713   2.125
 6180TIP3    H218486   8.281   6.775   2.257
 6181TIP3   OH218487   4.383   6.887   0.723
 6181TIP3    H118488   4.372   6.864   0.630
 6181TIP3    H218489   4.476   6.904   0.733
 6182TIP3   OH218490   0.991   4.800   5.557
 6182TIP3    H118491   0.934   4.852   5.501
 6182TIP3    H218492   0.934   4.768   5.627
 6183TIP3   OH218493   5.198   2.061   4.100
 6183TIP3    H118494   5.267   2.007   4.140
 6183TIP3    H218495   5.126   2.058   4.163
 6184TIP3   OH218496   7.347   4.831   1.117
 6184TIP3    H118497   7.283   4.766   1.088
 6184TIP3    H218498   7.379   4.798   1.201
 6185TIP3   OH218499   4.325   3.995   6.667
 6185TIP3    H118500   4.246   4.001   6.613
 6185TIP3    H218501   4.358   4.084   6.671
 6186TIP3   OH218502   0.674   3.817   5.230
 6186TIP3    H118503   0.641   3.742   5.279
 6186TIP3    H218504   0.749   3.848   5.281
 6187TIP3   OH218505   4.667   5.257   0.447
 6187TIP3    H118506   4.575   5.263   0.424
 6187TIP3    H218507   4.714   5.275   0.365
 6188TIP3   OH218508   4.544   4.984   4.205
 6188TIP3    H118509   4.591   5.043   4.264
 6188TIP3    H218510   4.559   5.022   4.118
 6189TIP3   OH218511   2.377   2.071   0.818
 6189TIP3    H118512   2.447   2.078   0.883
 6189TIP3    H218513   2.310   2.133   0.848
 6190TIP3   OH218514   0.372   7.369   0.285
 6190TIP3    H118515   0.349   7.319   0.206
 6190TIP3    H218516   0.325   7.325   0.356
 6191TIP3   OH218517   7.530   0.675   2.408
 6191TIP3    H118518   7.591   0.626   2.463
 6191TIP3    H218519   7.581   0.699   2.331
 6192TIP3   OH218520   1.098   6.630   5.184
 6192TIP3    H118521   1.180   6.634   5.232
 6192TIP3    H218522   1.035   6.594   5.248
 6193TIP3   OH218523   1.586   7.797   3.713
 6193TIP3    H118524   1.588   7.883   3.673
 6193TIP3    H218525   1.499   7.762   3.691
 6194TIP3   OH218526   5.410   6.164   2.474
 6194TIP3    H118527   5.403   6.256   2.451
 6194TIP3    H218528   5.320   6.138   2.496
 6195TIP3   OH218529   6.853   3.241   6.076
 6195TIP3    H118530   6.899   3.162   6.049
 6195TIP3    H218531   6.873   3.249   6.169
 6196TIP3   OH218532   7.248   3.450   4.539
 6196TIP3    H118533   7.229   3.395   4.463
 6196TIP3    H218534   7.163   3.463   4.581
 6197TIP3   OH218535   0.327   7.672   2.459
 6197TIP3    H118536   0.239   7.688   2.493
 6197TIP3    H218537   0.333   7.729   2.382
 6198TIP3   OH218538   4.794   5.141   3.263
 6198TIP3    H118539   4.727   5.154   3.329
 6198TIP3    H218540   4.753   5.167   3.180
 6199TIP3   OH218541   1.087   0.500   5.997
 6199TIP3    H118542   1.098   0.562   6.070
 6199TIP3    H218543   1.033   0.548   5.934
 6200TIP3   OH218544   6.163   4.707   3.566
 6200TIP3    H118545   6.081   4.676   3.526
 6200TIP3    H218546   6.231   4.651   3.529
 6201TIP3   OH218547   2.021   1.288   5.123
 6201TIP3    H118548   1.984   1.345   5.190
 6201TIP3    H218549   1.985   1.321   5.040
 6202TIP3   OH218550   6.529   4.061   0.979
 6202TIP3    H118551   6.475   4.078   1.056
 6202TIP3    H218552   6.609   4.111   0.993
 6203TIP3   OH218553   2.393   3.032   0.867
 6203TIP3    H118554   2.408   3.065   0.779
 6203TIP3    H218555   2.479   3.001   0.896
 6204TIP3   OH218556   7.978   1.914   0.031
 6204TIP3    H118557   7.899   1.956   0.065
 6204TIP3    H218558   7.945   1.841  -0.022
 6205TIP3   OH218559   0.138   6.567   2.725
 6205TIP3    H118560   0.207   6.523   2.674
 6205TIP3    H218561   0.065   6.575   2.663
 6206TIP3   OH218562   3.053   5.916   3.861
 6206TIP3    H118563   2.998   5.984   3.822
 6206TIP3    H218564   3.041   5.839   3.805
 6207TIP3   OH218565   0.225   5.044   1.041
 6207TIP3    H118566   0.239   5.044   1.136
 6207TIP3    H218567   0.311   5.023   1.004
 6208TIP3   OH218568   6.236   0.439   2.181
 6208TIP3    H118569   6.318   0.397   2.205
 6208TIP3    H218570   6.224   0.418   2.088
 6209TIP3   OH218571   0.773   2.900   6.056
 6209TIP3    H118572   0.862   2.937   6.061
 6209TIP3    H218573   0.728   2.935   6.133
 6210TIP3   OH218574   1.679   7.707   5.185
 6210TIP3    H118575   1.665   7.792   5.144
 6210TIP3    H218576   1.735   7.659   5.124
 6211TIP3   OH218577   5.679   7.461   1.111
 6211TIP3    H118578   5.756   7.428   1.065
 6211TIP3    H218579   5.710   7.478   1.200
 6212TIP3   OH218580   3.519   1.222   3.161
 6212TIP3    H118581   3.524   1.132   3.193
 6212TIP3    H218582   3.597   1.265   3.197
 6213TIP3   OH218583   1.867   0.149   1.621
 6213TIP3    H118584   1.802   0.182   1.558
 6213TIP3    H218585   1.931   0.219   1.629
 6214TIP3   OH218586   0.881   1.418   1.521
 6214TIP3    H118587   0.865   1.337   1.473
 6214TIP3    H218588   0.972   1.440   1.501
 6215TIP3   OH218589   1.248   4.785   3.567
 6215TIP3    H118590   1.232   4.770   3.660
 6215TIP3    H218591   1.253   4.698   3.529
 6216TIP3   OH218592   1.235   0.192   3.675
 6216TIP3    H118593   1.170   0.176   3.606
 6216TIP3    H218594   1.236   0.287   3.685
 6217TIP3   OH218595   1.710   7.424   1.148
 6217TIP3    H118596   1.655   7.368   1.203
 6217TIP3    H218597   1.675   7.412   1.059
 6218TIP3   OH218598   5.151   7.651   2.007
 6218TIP3    H118599   5.242   7.653   1.978
 6218TIP3    H218600   5.104   7.704   1.943
 6219TIP3   OH218601   6.632   1.254   6.671
 6219TIP3    H118602   6.710   1.307   6.689
 6219TIP3    H218603   6.589   1.300   6.598
 6220TIP3   OH218604   5.285   6.628   2.333
 6220TIP3    H118605   5.273   6.640   2.239
 6220TIP3    H218606   5.331   6.706   2.363
 6221TIP3   OH218607   1.999   2.570   3.860
 6221TIP3    H118608   2.022   2.554   3.769
 6221TIP3    H218609   1.976   2.663   3.863
 6222TIP3   OH218610   3.633   2.903   3.630
 6222TIP3    H118611   3.715   2.902   3.582
 6222TIP3    H218612   3.566   2.880   3.565
 6223TIP3   OH218613   6.461   4.293   4.669
 6223TIP3    H118614   6.387   4.350   4.688
 6223TIP3    H218615   6.515   4.342   4.608
 6224TIP3   OH218616   7.846   4.557   0.831
 6224TIP3    H118617   7.882   4.474   0.800
 6224TIP3    H218618   7.900   4.624   0.789
 6225TIP3   OH218619   4.662   1.809   5.607
 6225TIP3    H118620   4.653   1.808   5.702
 6225TIP3    H218621   4.753   1.786   5.591
 6226TIP3   OH218622   0.425   1.752   1.810
 6226TIP3    H118623   0.382   1.836   1.797
 6226TIP3    H218624   0.515   1.774   1.833
 6227TIP3   OH218625   6.319   3.848   2.343
 6227TIP3    H118626   6.348   3.938   2.328
 6227TIP3    H218627   6.400   3.798   2.347
 6228TIP3   OH218628   7.789   3.944   1.532
 6228TIP3    H118629   7.851   3.985   1.472
 6228TIP3    H218630   7.740   3.882   1.477
 6229TIP3   OH218631   6.763   6.912   6.216
 6229TIP3    H118632   6.821   6.912   6.292
 6229TIP3    H218633   6.682   6.872   6.247
 6230TIP3   OH218634   2.702   5.865   6.670
 6230TIP3    H118635   2.714   5.955   6.641
 6230TIP3    H218636   2.621   5.866   6.721
 6231TIP3   OH218637   3.081   7.504   2.297
 6231TIP3    H118638   3.159   7.484   2.246
 6231TIP3    H218639   3.066   7.598   2.283
 6232TIP3   OH218640   0.251   0.328   3.401
 6232TIP3    H118641   0.274   0.246   3.357
 6232TIP3    H218642   0.336   0.367   3.424
 6233TIP3   OH218643   5.203   0.723   0.958
 6233TIP3    H118644   5.279   0.714   1.016
 6233TIP3    H218645   5.196   0.638   0.915
 6234TIP3   OH218646   1.459   4.395   0.763
 6234TIP3    H118647   1.530   4.384   0.700
 6234TIP3    H218648   1.397   4.326   0.742
 6235TIP3   OH218649   3.571   4.310   1.791
 6235TIP3    H118650   3.644   4.274   1.842
 6235TIP3    H218651   3.502   4.323   1.855
 6236TIP3   OH218652   0.241   4.319   2.998
 6236TIP3    H118653   0.179   4.286   3.063
 6236TIP3    H218654   0.195   4.392   2.957
 6237TIP3   OH218655   4.822   1.220   3.197
 6237TIP3    H118656   4.800   1.135   3.234
 6237TIP3    H218657   4.807   1.282   3.268
 6238TIP3   OH218658   1.374   3.810   4.475
 6238TIP3    H118659   1.340   3.898   4.458
 6238TIP3    H218660   1.350   3.759   4.398
 6239TIP3   OH218661   3.630   4.805   2.502
 6239TIP3    H118662   3.639   4.852   2.585
 6239TIP3    H218663   3.686   4.852   2.441
 6240TIP3   OH218664   5.901   1.144   4.250
 6240TIP3    H118665   5.829   1.120   4.191
 6240TIP3    H218666   5.889   1.237   4.265
 6241TIP3   OH218667   8.059   2.406   2.366
 6241TIP3    H118668   8.074   2.452   2.283
 6241TIP3    H218669   7.981   2.447   2.403
 6242TIP3   OH218670   6.902   1.536   2.231
 6242TIP3    H118671   6.838   1.477   2.190
 6242TIP3    H218672   6.901   1.614   2.175
 6243TIP3   OH218673   4.450   2.541   5.360
 6243TIP3    H118674   4.406   2.612   5.407
 6243TIP3    H218675   4.461   2.575   5.271
 6244TIP3   OH218676   1.314   3.627   2.601
 6244TIP3    H118677   1.402   3.658   2.621
 6244TIP3    H218678   1.256   3.681   2.654
 6245TIP3   OH218679   0.304   1.157   0.321
 6245TIP3    H118680   0.282   1.064   0.329
 6245TIP3    H218681   0.310   1.172   0.227
 6246TIP3   OH218682   3.162   1.106   1.031
 6246TIP3    H118683   3.228   1.159   1.076
 6246TIP3    H218684   3.144   1.153   0.950
 6247TIP3   OH218685   5.120   1.567   0.453
 6247TIP3    H118686   5.032   1.539   0.479
 6247TIP3    H218687   5.113   1.661   0.440
 6248TIP3   OH218688   4.134   3.818   1.591
 6248TIP3    H118689   4.223   3.789   1.573
 6248TIP3    H218690   4.078   3.747   1.559
 6249TIP3   OH218691   7.099   3.303   5.382
 6249TIP3    H118692   7.023   3.306   5.440
 6249TIP3    H218693   7.146   3.385   5.401
 6250TIP3   OH218694   2.534   7.109   2.074
 6250TIP3    H118695   2.560   7.201   2.077
 6250TIP3    H218696   2.591   7.070   2.008
 6251TIP3   OH218697   0.844   0.177   6.310
 6251TIP3    H118698   0.845   0.114   6.238
 6251TIP3    H218699   0.839   0.262   6.267
 6252TIP3   OH218700   4.552   0.114   1.378
 6252TIP3    H118701   4.533   0.023   1.354
 6252TIP3    H218702   4.592   0.152   1.299
 6253TIP3   OH218703   1.361   3.077   4.747
 6253TIP3    H118704   1.342   2.990   4.714
 6253TIP3    H218705   1.432   3.064   4.810
 6254TIP3   OH218706   7.568   0.574   2.013
 6254TIP3    H118707   7.535   0.580   1.923
 6254TIP3    H218708   7.641   0.513   2.008
 6255TIP3   OH218709   6.427   0.605   5.396
 6255TIP3    H118710   6.428   0.700   5.391
 6255TIP3    H218711   6.431   0.576   5.305
 6256TIP3   OH218712   4.994   3.457   2.586
 6256TIP3    H118713   4.919   3.442   2.644
 6256TIP3    H218714   5.037   3.371   2.582
 6257TIP3   OH218715   3.863   0.487   4.847
 6257TIP3    H118716   3.852   0.436   4.766
 6257TIP3    H218717   3.775   0.517   4.869
 6258TIP3   OH218718   3.131   2.593   5.183
 6258TIP3    H118719   3.097   2.520   5.235
 6258TIP3    H218720   3.080   2.669   5.211
 6259TIP3   OH218721   5.704   2.472   0.464
 6259TIP3    H118722   5.668   2.391   0.428
 6259TIP3    H218723   5.636   2.537   0.448
 6260TIP3   OH218724   6.155   4.138   5.690
 6260TIP3    H118725   6.155   4.233   5.697
 6260TIP3    H218726   6.232   4.110   5.741
 6261TIP3   OH218727   3.497   2.746   5.228
 6261TIP3    H118728   3.454   2.730   5.143
 6261TIP3    H218729   3.510   2.659   5.265
 6262TIP3   OH218730   7.416   2.114   0.442
 6262TIP3    H118731   7.355   2.097   0.514
 6262TIP3    H218732   7.437   2.207   0.451
 6263TIP3   OH218733   7.661   7.515   2.662
 6263TIP3    H118734   7.665   7.421   2.647
 6263TIP3    H218735   7.625   7.551   2.581
 6264TIP3   OH218736   7.437   0.137   5.262
 6264TIP3    H118737   7.393   0.212   5.302
 6264TIP3    H218738   7.505   0.112   5.326
 6265TIP3   OH218739   7.944   1.569   2.815
 6265TIP3    H118740   8.016   1.524   2.861
 6265TIP3    H218741   7.948   1.659   2.847
 6266TIP3   OH218742   4.381   5.208   1.911
 6266TIP3    H118743   4.371   5.135   1.851
 6266TIP3    H218744   4.408   5.168   1.994
 6267TIP3   OH218745   7.684   6.264   6.140
 6267TIP3    H118746   7.774   6.232   6.145
 6267TIP3    H218747   7.691   6.357   6.160
 6268TIP3   OH218748   5.010   2.241   4.254
 6268TIP3    H118749   4.930   2.276   4.293
 6268TIP3    H218750   5.055   2.318   4.218
 6269TIP3   OH218751   3.325   0.182   2.369
 6269TIP3    H118752   3.234   0.207   2.358
 6269TIP3    H218753   3.364   0.196   2.282
 6270TIP3   OH218754   4.974   0.514   5.593
 6270TIP3    H118755   4.980   0.427   5.633
 6270TIP3    H218756   5.061   0.553   5.607
 6271TIP3   OH218757   7.424   1.299   5.411
 6271TIP3    H118758   7.346   1.319   5.359
 6271TIP3    H218759   7.484   1.258   5.349
 6272TIP3   OH218760   4.847   0.541   3.053
 6272TIP3    H118761   4.885   0.590   3.126
 6272TIP3    H218762   4.767   0.502   3.090
 6273TIP3   OH218763   1.911   4.882   0.058
 6273TIP3    H118764   2.004   4.867   0.074
 6273TIP3    H218765   1.899   4.857  -0.034
 6274TIP3   OH218766   2.120   3.940   4.532
 6274TIP3    H118767   2.064   3.866   4.509
 6274TIP3    H218768   2.207   3.901   4.545
 6275TIP3   OH218769   4.783   0.410   4.936
 6275TIP3    H118770   4.786   0.344   5.005
 6275TIP3    H218771   4.703   0.390   4.887
 6276TIP3   OH218772   6.731   1.029   4.586
 6276TIP3    H118773   6.739   0.988   4.673
 6276TIP3    H218774   6.638   1.048   4.577
 6277TIP3   OH218775   7.588   2.492   1.582
 6277TIP3    H118776   7.579   2.441   1.501
 6277TIP3    H218777   7.546   2.439   1.649
 6278TIP3   OH218778   6.572   4.198   4.956
 6278TIP3    H118779   6.532   4.112   4.948
 6278TIP3    H218780   6.545   4.244   4.877
 6279TIP3   OH218781   7.397   6.621   4.658
 6279TIP3    H118782   7.434   6.594   4.575
 6279TIP3    H218783   7.436   6.707   4.675
 6280TIP3   OH218784   3.477   0.329   4.429
 6280TIP3    H118785   3.386   0.357   4.443
 6280TIP3    H218786   3.512   0.316   4.517
 6281TIP3   OH218787   3.669   3.111   5.884
 6281TIP3    H118788   3.702   3.030   5.922
 6281TIP3    H218789   3.670   3.174   5.957
 6282TIP3   OH218790   0.817   6.515   1.675
 6282TIP3    H118791   0.754   6.482   1.611
 6282TIP3    H218792   0.898   6.468   1.656
 6283TIP3   OH218793   7.111   1.828   3.167
 6283TIP3    H118794   7.036   1.809   3.224
 6283TIP3    H218795   7.187   1.816   3.224
 6284TIP3   OH218796   3.345   3.050   2.335
 6284TIP3    H118797   3.275   3.062   2.399
 6284TIP3    H218798   3.400   3.128   2.344
 6285TIP3   OH218799   6.055   5.716   3.372
 6285TIP3    H118800   5.996   5.790   3.385
 6285TIP3    H218801   6.066   5.678   3.460
 6286TIP3   OH218802   1.124   1.520   0.814
 6286TIP3    H118803   1.143   1.595   0.758
 6286TIP3    H218804   1.206   1.502   0.859
 6287TIP3   OH218805   0.663   4.838   5.535
 6287TIP3    H118806   0.596   4.770   5.535
 6287TIP3    H218807   0.711   4.824   5.617
 6288TIP3   OH218808   1.471   0.289   1.430
 6288TIP3    H118809   1.514   0.375   1.435
 6288TIP3    H218810   1.466   0.270   1.336
 6289TIP3   OH218811   3.355   0.764   4.986
 6289TIP3    H118812   3.363   0.780   5.080
 6289TIP3    H218813   3.392   0.843   4.945
 6290TIP3   OH218814   2.785   4.680   1.861
 6290TIP3    H118815   2.744   4.594   1.849
 6290TIP3    H218816   2.762   4.729   1.782
 6291TIP3   OH218817   2.986   3.055   5.920
 6291TIP3    H118818   2.960   3.023   6.007
 6291TIP3    H218819   3.066   3.106   5.937
 6292TIP3   OH218820   0.187   2.897   2.031
 6292TIP3    H118821   0.143   2.973   2.068
 6292TIP3    H218822   0.186   2.912   1.937
 6293TIP3   OH218823   5.213   2.774   1.510
 6293TIP3    H118824   5.223   2.796   1.603
 6293TIP3    H218825   5.156   2.697   1.510
 6294TIP3   OH218826   2.326   7.730   5.422
 6294TIP3    H118827   2.337   7.824   5.435
 6294TIP3    H218828   2.351   7.691   5.506
 6295TIP3   OH218829   3.836   0.917   2.763
 6295TIP3    H118830   3.745   0.947   2.764
 6295TIP3    H218831   3.888   0.997   2.758
 6296TIP3   OH218832   4.520   3.903   2.100
 6296TIP3    H118833   4.508   3.822   2.051
 6296TIP3    H218834   4.535   3.970   2.033
 6297TIP3   OH218835   1.321   2.940   1.915
 6297TIP3    H118836   1.247   2.880   1.912
 6297TIP3    H218837   1.377   2.913   1.842
 6298TIP3   OH218838   7.517   1.375   2.757
 6298TIP3    H118839   7.499   1.426   2.836
 6298TIP3    H218840   7.599   1.411   2.723
 6299TIP3   OH218841   0.468   3.854   3.623
 6299TIP3    H118842   0.542   3.798   3.598
 6299TIP3    H218843   0.479   3.867   3.718
 6300TIP3   OH218844   3.604   5.599   2.973
 6300TIP3    H118845   3.637   5.576   2.886
 6300TIP3    H218846   3.588   5.514   3.016
 6301TIP3   OH218847   1.078   4.173   2.299
 6301TIP3    H118848   1.061   4.267   2.293
 6301TIP3    H218849   1.113   4.150   2.213
 6302TIP3   OH218850   4.477   2.283   5.450
 6302TIP3    H118851   4.479   2.378   5.456
 6302TIP3    H218852   4.463   2.264   5.357
 6303TIP3   OH218853   5.404   1.944   4.257
 6303TIP3    H118854   5.490   1.970   4.223
 6303TIP3    H218855   5.421   1.864   4.307
 6304TIP3   OH218856   4.663   1.490   3.263
 6304TIP3    H118857   4.600   1.487   3.191
 6304TIP3    H218858   4.611   1.475   3.341
 6305TIP3   OH218859   4.921   0.426   2.345
 6305TIP3    H118860   4.897   0.513   2.376
 6305TIP3    H218861   4.888   0.367   2.413
 6306TIP3   OH218862   1.039   0.538   2.482
 6306TIP3    H118863   0.999   0.474   2.423
 6306TIP3    H218864   1.021   0.622   2.442
 6307TIP3   OH218865   6.039   4.972   6.724
 6307TIP3    H118866   6.096   4.906   6.685
 6307TIP3    H218867   5.962   4.922   6.754
 6308TIP3   OH218868   0.467   7.439   1.045
 6308TIP3    H118869   0.377   7.469   1.049
 6308TIP3    H218870   0.505   7.485   0.970
 6309TIP3   OH218871   6.671   4.755   3.444
 6309TIP3    H118872   6.644   4.677   3.493
 6309TIP3    H218873   6.763   4.767   3.468
 6310TIP3   OH218874   3.147   0.238   3.658
 6310TIP3    H118875   3.076   0.176   3.643
 6310TIP3    H218876   3.186   0.210   3.741
 6311TIP3   OH218877   6.952   5.288   2.751
 6311TIP3    H118878   7.041   5.254   2.764
 6311TIP3    H218879   6.921   5.308   2.839
 6312TIP3   OH218880   6.047   1.569   2.626
 6312TIP3    H118881   6.064   1.622   2.703
 6312TIP3    H218882   6.113   1.597   2.562
 6313TIP3   OH218883   0.908   2.944   4.892
 6313TIP3    H118884   0.980   2.989   4.937
 6313TIP3    H218885   0.939   2.854   4.881
 6314TIP3   OH218886   1.147   6.058   0.475
 6314TIP3    H118887   1.154   6.154   0.472
 6314TIP3    H218888   1.230   6.029   0.512
 6315TIP3   OH218889   1.080   7.258   3.415
 6315TIP3    H118890   1.088   7.162   3.409
 6315TIP3    H218891   0.986   7.274   3.408
 6316TIP3   OH218892   0.843   5.526   4.387
 6316TIP3    H118893   0.893   5.564   4.315
 6316TIP3    H218894   0.815   5.440   4.354
 6317TIP3   OH218895   4.072   4.611   2.129
 6317TIP3    H118896   4.080   4.659   2.212
 6317TIP3    H218897   4.161   4.583   2.110
 6318TIP3   OH218898   2.111   1.701   0.145
 6318TIP3    H118899   2.167   1.706   0.222
 6318TIP3    H218900   2.084   1.791   0.128
 6319TIP3   OH218901   5.352   2.401   6.380
 6319TIP3    H118902   5.428   2.372   6.431
 6319TIP3    H218903   5.346   2.338   6.308
 6320TIP3   OH218904   7.634   4.446   5.125
 6320TIP3    H118905   7.691   4.458   5.201
 6320TIP3    H218906   7.591   4.531   5.113
 6321TIP3   OH218907   0.223   6.588   0.382
 6321TIP3    H118908   0.298   6.573   0.440
 6321TIP3    H218909   0.208   6.683   0.387
 6322TIP3   OH218910   4.355   1.711   0.383
 6322TIP3    H118911   4.409   1.675   0.312
 6322TIP3    H218912   4.350   1.641   0.447
 6323TIP3   OH218913   7.572   5.577   3.187
 6323TIP3    H118914   7.519   5.498   3.199
 6323TIP3    H218915   7.542   5.613   3.103
 6324TIP3   OH218916   0.707   6.924   3.196
 6324TIP3    H118917   0.683   6.875   3.117
 6324TIP3    H218918   0.797   6.953   3.180
 6325TIP3   OH218919   2.319   4.923   0.993
 6325TIP3    H118920   2.315   5.006   1.041
 6325TIP3    H218921   2.247   4.871   1.029
 6326TIP3   OH218922   4.296   0.477   0.939
 6326TIP3    H118923   4.343   0.467   1.022
 6326TIP3    H218924   4.364   0.475   0.873
 6327TIP3   OH218925   8.047   0.044   2.690
 6327TIP3    H118926   8.068  -0.002   2.609
 6327TIP3    H218927   7.952   0.035   2.699
 6328TIP3   OH218928   2.375   5.555   2.290
 6328TIP3    H118929   2.384   5.527   2.199
 6328TIP3    H218930   2.339   5.644   2.284
 6329TIP3   OH218931   7.735   2.043   0.108
 6329TIP3    H118932   7.675   2.056   0.034
 6329TIP3    H218933   7.682   2.061   0.185
 6330TIP3   OH218934   4.046   3.254   0.118
 6330TIP3    H118935   4.091   3.337   0.134
 6330TIP3    H218936   3.956   3.270   0.146
 6331TIP3   OH218937   7.182   5.339   2.317
 6331TIP3    H118938   7.206   5.251   2.290
 6331TIP3    H218939   7.239   5.357   2.392
 6332TIP3   OH218940   0.213   1.608   1.706
 6332TIP3    H118941   0.190   1.530   1.757
 6332TIP3    H218942   0.300   1.633   1.738
 6333TIP3   OH218943   0.291   5.717   1.199
 6333TIP3    H118944   0.380   5.750   1.209
 6333TIP3    H218945   0.249   5.778   1.138
 6334TIP3   OH218946   3.121   4.047   0.341
 6334TIP3    H118947   3.062   4.054   0.266
 6334TIP3    H218948   3.076   4.093   0.412
 6335TIP3   OH218949   2.887   5.731   6.550
 6335TIP3    H118950   2.825   5.771   6.610
 6335TIP3    H218951   2.870   5.637   6.555
 6336TIP3   OH218952   1.179   0.521   5.465
 6336TIP3    H118953   1.178   0.496   5.373
 6336TIP3    H218954   1.112   0.590   5.472
 6337TIP3   OH218955   6.739   7.353   3.079
 6337TIP3    H118956   6.743   7.272   3.029
 6337TIP3    H218957   6.697   7.329   3.161
 6338TIP3   OH218958   7.430   0.346   0.665
 6338TIP3    H118959   7.424   0.257   0.631
 6338TIP3    H218960   7.496   0.341   0.735
 6339TIP3   OH218961   4.331   6.973   6.210
 6339TIP3    H118962   4.379   6.962   6.128
 6339TIP3    H218963   4.254   7.025   6.186
 6340TIP3   OH218964   3.711   6.398   6.006
 6340TIP3    H118965   3.705   6.378   5.912
 6340TIP3    H218966   3.802   6.378   6.028
 6341TIP3   OH218967   6.864   5.228   6.033
 6341TIP3    H118968   6.952   5.262   6.052
 6341TIP3    H218969   6.879   5.159   5.969
 6342TIP3   OH218970   2.426   0.353   2.587
 6342TIP3    H118971   2.443   0.322   2.498
 6342TIP3    H218972   2.384   0.280   2.631
 6343TIP3   OH218973   5.748   5.998   4.141
 6343TIP3    H118974   5.688   6.071   4.156
 6343TIP3    H218975   5.802   6.026   4.067
 6344TIP3   OH218976  -0.005   0.676   5.605
 6344TIP3    H118977   0.004   0.675   5.701
 6344TIP3    H218978   0.081   0.702   5.573
 6345TIP3   OH218979   4.119   3.016   2.876
 6345TIP3    H118980   4.033   3.053   2.895
 6345TIP3    H218981   4.132   2.949   2.943
 6346TIP3   OH218982   1.632   1.739   5.664
 6346TIP3    H118983   1.584   1.668   5.707
 6346TIP3    H218984   1.635   1.809   5.729
 6347TIP3   OH218985   2.746   4.108   0.393
 6347TIP3    H118986   2.833   4.142   0.417
 6347TIP3    H218987   2.764   4.022   0.354
 6348TIP3   OH218988   1.104   1.565   2.917
 6348TIP3    H118989   1.179   1.611   2.953
 6348TIP3    H218990   1.059   1.630   2.863
 6349TIP3   OH218991   7.480   1.344   2.063
 6349TIP3    H118992   7.522   1.336   2.149
 6349TIP3    H218993   7.483   1.438   2.044
 6350TIP3   OH218994   2.721   6.816   3.041
 6350TIP3    H118995   2.751   6.906   3.050
 6350TIP3    H218996   2.711   6.803   2.947
 6351TIP3   OH218997   4.935   4.403   0.349
 6351TIP3    H118998   4.871   4.334   0.365
 6351TIP3    H218999   4.968   4.385   0.261
 6352TIP3   OH219000   2.105   2.841   6.038
 6352TIP3    H119001   2.120   2.759   6.084
 6352TIP3    H219002   2.016   2.833   6.003
 6353TIP3   OH219003   4.003   7.749   4.948
 6353TIP3    H119004   3.935   7.689   4.917
 6353TIP3    H219005   4.072   7.691   4.981
 6354TIP3   OH219006   4.811   5.576   1.024
 6354TIP3    H119007   4.864   5.504   1.059
 6354TIP3    H219008   4.820   5.646   1.088
 6355TIP3   OH219009   6.407   1.034   0.480
 6355TIP3    H119010   6.497   1.040   0.512
 6355TIP3    H219011   6.384   1.123   0.456
 6356TIP3   OH219012   7.119   4.842   3.037
 6356TIP3    H119013   7.133   4.755   3.000
 6356TIP3    H219014   7.207   4.874   3.056
 6357TIP3   OH219015   3.140   1.022   2.768
 6357TIP3    H119016   3.095   1.042   2.851
 6357TIP3    H219017   3.109   0.935   2.744
 6358TIP3   OH219018   3.874   3.558   0.398
 6358TIP3    H119019   3.964   3.575   0.369
 6358TIP3    H219020   3.880   3.557   0.494
 6359TIP3   OH219021   3.122   7.615   5.498
 6359TIP3    H119022   3.187   7.684   5.510
 6359TIP3    H219023   3.059   7.627   5.570
 6360TIP3   OH219024   0.231   4.519   4.312
 6360TIP3    H119025   0.254   4.471   4.391
 6360TIP3    H219026   0.243   4.611   4.335
 6361TIP3   OH219027   5.123   0.409   6.473
 6361TIP3    H119028   5.152   0.414   6.564
 6361TIP3    H219029   5.083   0.323   6.464
 6362TIP3   OH219030   0.637   7.612   4.148
 6362TIP3    H119031   0.729   7.585   4.148
 6362TIP3    H219032   0.592   7.543   4.197
 6363TIP3   OH219033   7.072   7.266   5.200
 6363TIP3    H119034   7.079   7.348   5.151
 6363TIP3    H219035   7.162   7.243   5.222
 6364TIP3   OH219036   7.475   7.048   3.624
 6364TIP3    H119037   7.523   6.977   3.580
 6364TIP3    H219038   7.529   7.126   3.610
 6365TIP3   OH219039   0.569   1.919   0.772
 6365TIP3    H119040   0.508   1.969   0.827
 6365TIP3    H219041   0.531   1.924   0.684
 6366TIP3   OH219042   6.220   3.324   3.524
 6366TIP3    H119043   6.281   3.343   3.595
 6366TIP3    H219044   6.144   3.285   3.568
 6367TIP3   OH219045   5.902   7.604   2.890
 6367TIP3    H119046   5.923   7.531   2.948
 6367TIP3    H219047   5.968   7.600   2.821
 6368TIP3   OH219048   0.407   1.429   6.322
 6368TIP3    H119049   0.441   1.347   6.286
 6368TIP3    H219050   0.324   1.406   6.363
 6369TIP3   OH219051   2.864   4.149   4.756
 6369TIP3    H119052   2.959   4.159   4.749
 6369TIP3    H219053   2.847   4.132   4.848
 6370TIP3   OH219054   0.792   5.139   4.705
 6370TIP3    H119055   0.774   5.060   4.756
 6370TIP3    H219056   0.830   5.200   4.769
 6371TIP3   OH219057   3.111   4.503   6.596
 6371TIP3    H119058   3.034   4.517   6.651
 6371TIP3    H219059   3.136   4.412   6.612
 6372TIP3   OH219060   6.156   2.231   4.523
 6372TIP3    H119061   6.113   2.290   4.460
 6372TIP3    H219062   6.157   2.146   4.478
 6373TIP3   OH219063   0.265   2.551   2.617
 6373TIP3    H119064   0.292   2.638   2.646
 6373TIP3    H219065   0.323   2.531   2.543
 6374TIP3   OH219066   4.039   3.338   4.098
 6374TIP3    H119067   4.044   3.276   4.171
 6374TIP3    H219068   4.118   3.321   4.047
 6375TIP3   OH219069   0.862   4.738   1.457
 6375TIP3    H119070   0.909   4.814   1.491
 6375TIP3    H219071   0.901   4.663   1.502
 6376TIP3   OH219072   7.491   5.136   0.751
 6376TIP3    H119073   7.581   5.105   0.744
 6376TIP3    H219074   7.439   5.057   0.764
 6377TIP3   OH219075   7.126   1.064   5.621
 6377TIP3    H119076   7.083   1.082   5.537
 6377TIP3    H219077   7.148   1.151   5.655
 6378TIP3   OH219078   1.546   2.960   5.290
 6378TIP3    H119079   1.629   2.980   5.334
 6378TIP3    H219080   1.571   2.901   5.218
 6379TIP3   OH219081   4.776   6.357   1.550
 6379TIP3    H119082   4.782   6.414   1.627
 6379TIP3    H219083   4.802   6.412   1.476
 6380TIP3   OH219084   1.385   7.372   2.875
 6380TIP3    H119085   1.297   7.392   2.908
 6380TIP3    H219086   1.374   7.370   2.780
 6381TIP3   OH219087   3.507   6.493   4.089
 6381TIP3    H119088   3.446   6.476   4.160
 6381TIP3    H219089   3.452   6.500   4.011
 6382TIP3   OH219090   6.021   2.208   5.164
 6382TIP3    H119091   5.969   2.228   5.242
 6382TIP3    H219092   5.960   2.167   5.104
 6383TIP3   OH219093   1.711   5.819   1.800
 6383TIP3    H119094   1.654   5.875   1.852
 6383TIP3    H219095   1.694   5.730   1.833
 6384TIP3   OH219096   2.994   5.110   2.183
 6384TIP3    H119097   2.944   5.120   2.265
 6384TIP3    H219098   3.080   5.146   2.203
 6385TIP3   OH219099   0.555   6.132   0.328
 6385TIP3    H119100   0.643   6.114   0.361
 6385TIP3    H219101   0.559   6.222   0.297
 6386TIP3   OH219102   6.250   4.227   3.448
 6386TIP3    H119103   6.182   4.160   3.439
 6386TIP3    H219104   6.333   4.180   3.434
 6387TIP3   OH219105   1.411   5.376   4.345
 6387TIP3    H119106   1.332   5.427   4.363
 6387TIP3    H219107   1.397   5.293   4.390
 6388TIP3   OH219108   1.505   6.401   4.564
 6388TIP3    H119109   1.582   6.404   4.508
 6388TIP3    H219110   1.539   6.418   4.652
 6389TIP3   OH219111   2.106   6.787   0.737
 6389TIP3    H119112   2.017   6.771   0.704
 6389TIP3    H219113   2.159   6.792   0.658
 6390TIP3   OH219114   1.814   4.352   4.442
 6390TIP3    H119115   1.845   4.262   4.432
 6390TIP3    H219116   1.764   4.370   4.362
 6391TIP3   OH219117   8.216   6.925   1.373
 6391TIP3    H119118   8.269   6.845   1.373
 6391TIP3    H219119   8.227   6.960   1.462
 6392TIP3   OH219120   6.471   7.664   6.298
 6392TIP3    H119121   6.552   7.679   6.250
 6392TIP3    H219122   6.406   7.717   6.251
 6393TIP3   OH219123   7.624   0.669   4.810
 6393TIP3    H119124   7.578   0.605   4.756
 6393TIP3    H219125   7.661   0.617   4.882
 6394TIP3   OH219126   2.842   4.884   5.641
 6394TIP3    H119127   2.796   4.855   5.562
 6394TIP3    H219128   2.793   4.845   5.713
 6395TIP3   OH219129   3.540   5.099   1.161
 6395TIP3    H119130   3.555   5.013   1.121
 6395TIP3    H219131   3.611   5.154   1.127
 6396TIP3   OH219132   4.640   4.812   1.129
 6396TIP3    H119133   4.697   4.735   1.125
 6396TIP3    H219134   4.699   4.884   1.150
 6397TIP3   OH219135   1.669   1.960   6.183
 6397TIP3    H119136   1.682   1.884   6.126
 6397TIP3    H219137   1.740   1.954   6.246
 6398TIP3   OH219138   0.796   5.148   5.318
 6398TIP3    H119139   0.819   5.058   5.293
 6398TIP3    H219140   0.835   5.159   5.405
 6399TIP3   OH219141   1.090   5.802   3.381
 6399TIP3    H119142   1.058   5.889   3.360
 6399TIP3    H219143   1.182   5.802   3.355
 6400TIP3   OH219144   1.861   3.311   4.146
 6400TIP3    H119145   1.835   3.337   4.058
 6400TIP3    H219146   1.869   3.394   4.194
 6401TIP3   OH219147   0.386   6.451   3.510
 6401TIP3    H119148   0.470   6.483   3.476
 6401TIP3    H219149   0.369   6.506   3.586
 6402TIP3   OH219150   4.518   3.094   3.528
 6402TIP3    H119151   4.587   3.029   3.518
 6402TIP3    H219152   4.524   3.121   3.619
 6403TIP3   OH219153   1.229   7.526   2.405
 6403TIP3    H119154   1.285   7.478   2.344
 6403TIP3    H219155   1.151   7.471   2.413
 6404TIP3   OH219156   7.160   5.150   1.283
 6404TIP3    H119157   7.154   5.055   1.270
 6404TIP3    H219158   7.247   5.173   1.248
 6405TIP3   OH219159   6.587   0.347   0.282
 6405TIP3    H119160   6.673   0.349   0.324
 6405TIP3    H219161   6.599   0.293   0.204
 6406TIP3   OH219162   1.325   4.990   3.803
 6406TIP3    H119163   1.308   4.912   3.855
 6406TIP3    H219164   1.354   4.956   3.718
 6407TIP3   OH219165   5.692   5.149   2.081
 6407TIP3    H119166   5.753   5.149   2.155
 6407TIP3    H219167   5.695   5.060   2.047
 6408TIP3   OH219168   2.359   2.011   5.051
 6408TIP3    H119169   2.444   2.034   5.014
 6408TIP3    H219170   2.358   1.915   5.049
 6409TIP3   OH219171   5.370   7.531   5.277
 6409TIP3    H119172   5.290   7.554   5.228
 6409TIP3    H219173   5.440   7.573   5.228
 6410TIP3   OH219174   5.198   5.909   2.963
 6410TIP3    H119175   5.253   5.936   3.036
 6410TIP3    H219176   5.163   5.991   2.928
 6411TIP3   OH219177   7.209   7.662   1.891
 6411TIP3    H119178   7.134   7.609   1.918
 6411TIP3    H219179   7.194   7.679   1.798
 6412TIP3   OH219180   3.146   3.591   2.128
 6412TIP3    H119181   3.114   3.503   2.151
 6412TIP3    H219182   3.204   3.575   2.053
 6413TIP3   OH219183   5.815   0.794   0.984
 6413TIP3    H119184   5.864   0.875   0.974
 6413TIP3    H219185   5.799   0.764   0.894
 6414TIP3   OH219186   5.906   3.544   5.736
 6414TIP3    H119187   5.884   3.558   5.828
 6414TIP3    H219188   5.857   3.612   5.689
 6415TIP3   OH219189   4.156   1.669   6.663
 6415TIP3    H119190   4.094   1.675   6.590
 6415TIP3    H219191   4.102   1.678   6.741
 6416TIP3   OH219192   0.963   5.822   1.975
 6416TIP3    H119193   0.886   5.872   2.003
 6416TIP3    H219194   0.927   5.749   1.924
 6417TIP3   OH219195   8.293   3.092   2.119
 6417TIP3    H119196   8.241   3.074   2.041
 6417TIP3    H219197   8.276   3.019   2.177
 6418TIP3   OH219198   2.058   4.093   3.321
 6418TIP3    H119199   2.130   4.058   3.374
 6418TIP3    H219200   2.007   4.016   3.295
 6419TIP3   OH219201   3.428   1.949   5.813
 6419TIP3    H119202   3.415   1.864   5.855
 6419TIP3    H219203   3.479   1.930   5.735
 6420TIP3   OH219204   3.789   2.452   2.352
 6420TIP3    H119205   3.815   2.480   2.264
 6420TIP3    H219206   3.783   2.357   2.347
 6421TIP3   OH219207   4.166   1.568   5.683
 6421TIP3    H119208   4.120   1.487   5.703
 6421TIP3    H219209   4.200   1.598   5.768
 6422TIP3   OH219210   1.239   7.444   4.766
 6422TIP3    H119211   1.205   7.533   4.759
 6422TIP3    H219212   1.206   7.412   4.850
 6423TIP3   OH219213   7.208   4.576   5.041
 6423TIP3    H119214   7.119   4.566   5.008
 6423TIP3    H219215   7.216   4.510   5.110
 6424TIP3   OH219216   2.083   5.566   5.884
 6424TIP3    H119217   2.151   5.521   5.834
 6424TIP3    H219218   2.008   5.506   5.882
 6425TIP3   OH219219   2.110   5.692   1.720
 6425TIP3    H119220   2.102   5.752   1.646
 6425TIP3    H219221   2.062   5.734   1.791
 6426TIP3   OH219222   0.152   1.765   0.176
 6426TIP3    H119223   0.160   1.700   0.106
 6426TIP3    H219224   0.057   1.771   0.192
 6427TIP3   OH219225   6.929   6.892   6.001
 6427TIP3    H119226   6.861   6.890   6.069
 6427TIP3    H219227   6.982   6.968   6.023
 6428TIP3   OH219228   3.794   5.532   3.660
 6428TIP3    H119229   3.831   5.521   3.747
 6428TIP3    H219230   3.713   5.580   3.673
 6429TIP3   OH219231   6.291   4.149   1.145
 6429TIP3    H119232   6.236   4.160   1.223
 6429TIP3    H219233   6.233   4.170   1.072
 6430TIP3   OH219234   0.151   0.338   2.090
 6430TIP3    H119235   0.135   0.388   2.170
 6430TIP3    H219236   0.077   0.361   2.033
 6431TIP3   OH219237   1.299   6.883   4.354
 6431TIP3    H119238   1.215   6.885   4.399
 6431TIP3    H219239   1.327   6.792   4.358
 6432TIP3   OH219240   7.557   4.807   1.868
 6432TIP3    H119241   7.543   4.759   1.950
 6432TIP3    H219242   7.548   4.740   1.800
 6433TIP3   OH219243   5.446   0.763   1.753
 6433TIP3    H119244   5.374   0.702   1.769
 6433TIP3    H219245   5.406   0.849   1.763
 6434TIP3   OH219246   5.038   4.984   6.693
 6434TIP3    H119247   5.133   4.998   6.700
 6434TIP3    H219248   5.008   5.055   6.637
 6435TIP3   OH219249   1.094   2.910   5.346
 6435TIP3    H119250   1.178   2.896   5.389
 6435TIP3    H219251   1.040   2.836   5.374
 6436TIP3   OH219252   5.329   1.832   2.822
 6436TIP3    H119253   5.366   1.920   2.815
 6436TIP3    H219254   5.399   1.774   2.791
 6437TIP3   OH219255   0.941   2.201   4.797
 6437TIP3    H119256   0.934   2.297   4.801
 6437TIP3    H219257   1.026   2.182   4.837
 6438TIP3   OH219258   5.099   3.112   6.255
 6438TIP3    H119259   5.185   3.074   6.238
 6438TIP3    H219260   5.114   3.176   6.324
 6439TIP3   OH219261   4.563   3.536   5.799
 6439TIP3    H119262   4.618   3.580   5.864
 6439TIP3    H219263   4.478   3.529   5.840
 6440TIP3   OH219264   7.497   2.913   6.364
 6440TIP3    H119265   7.413   2.958   6.352
 6440TIP3    H219266   7.528   2.944   6.450
 6441TIP3   OH219267   1.996   0.043   3.539
 6441TIP3    H119268   1.944  -0.034   3.563
 6441TIP3    H219269   2.086   0.011   3.539
 6442TIP3   OH219270   7.379   3.357   3.213
 6442TIP3    H119271   7.295   3.400   3.229
 6442TIP3    H219272   7.370   3.315   3.128
 6443TIP3   OH219273   5.025   5.677   4.059
 6443TIP3    H119274   5.038   5.702   4.151
 6443TIP3    H219275   4.930   5.672   4.050
 6444TIP3   OH219276   7.572   6.228   1.292
 6444TIP3    H119277   7.639   6.163   1.270
 6444TIP3    H219278   7.563   6.222   1.387
 6445TIP3   OH219279   2.709   1.622   0.264
 6445TIP3    H119280   2.633   1.564   0.258
 6445TIP3    H219281   2.749   1.601   0.348
 6446TIP3   OH219282   6.663   6.836   1.419
 6446TIP3    H119283   6.582   6.877   1.387
 6446TIP3    H219284   6.657   6.745   1.388
 6447TIP3   OH219285   1.182   0.847   4.905
 6447TIP3    H119286   1.234   0.798   4.841
 6447TIP3    H219287   1.098   0.802   4.907
 6448TIP3   OH219288   7.308   5.399   2.563
 6448TIP3    H119289   7.376   5.347   2.521
 6448TIP3    H219290   7.331   5.400   2.656
 6449TIP3   OH219291   5.822   6.650   0.365
 6449TIP3    H119292   5.855   6.570   0.405
 6449TIP3    H219293   5.744   6.672   0.416
 6450TIP3   OH219294   2.735   0.235   4.665
 6450TIP3    H119295   2.712   0.321   4.699
 6450TIP3    H219296   2.786   0.253   4.586
 6451TIP3   OH219297   6.194   1.756   1.547
 6451TIP3    H119298   6.139   1.808   1.606
 6451TIP3    H219299   6.217   1.816   1.476
 6452TIP3   OH219300   5.282   1.301   2.555
 6452TIP3    H119301   5.238   1.383   2.579
 6452TIP3    H219302   5.343   1.284   2.626
 6453TIP3   OH219303   1.413   1.159   3.031
 6453TIP3    H119304   1.461   1.079   3.010
 6453TIP3    H219305   1.332   1.154   2.979
 6454TIP3   OH219306   6.302   3.609   6.262
 6454TIP3    H119307   6.316   3.518   6.238
 6454TIP3    H219308   6.296   3.655   6.178
 6455TIP3   OH219309   2.785   2.637   5.060
 6455TIP3    H119310   2.880   2.647   5.057
 6455TIP3    H219311   2.753   2.686   4.984
 6456TIP3   OH219312   5.590   0.040   6.576
 6456TIP3    H119313   5.601   0.014   6.667
 6456TIP3    H219314   5.538  -0.031   6.537
 6457TIP3   OH219315   6.351   3.706   5.811
 6457TIP3    H119316   6.303   3.625   5.795
 6457TIP3    H219317   6.385   3.732   5.725
 6458TIP3   OH219318   4.771   1.531   4.883
 6458TIP3    H119319   4.821   1.575   4.952
 6458TIP3    H219320   4.745   1.448   4.922
 6459TIP3   OH219321   3.960   6.270   6.009
 6459TIP3    H119322   4.046   6.254   5.971
 6459TIP3    H219323   3.975   6.268   6.103
 6460TIP3   OH219324   0.582   3.657   5.610
 6460TIP3    H119325   0.540   3.571   5.606
 6460TIP3    H219326   0.666   3.645   5.565
 6461TIP3   OH219327   8.079   6.400   0.197
 6461TIP3    H119328   7.987   6.374   0.208
 6461TIP3    H219329   8.107   6.426   0.285
 6462TIP3   OH219330   8.067   7.788   2.565
 6462TIP3    H119331   8.107   7.874   2.578
 6462TIP3    H219332   7.972   7.805   2.569
 6463TIP3   OH219333   1.477   1.968   1.515
 6463TIP3    H119334   1.404   2.002   1.565
 6463TIP3    H219335   1.522   1.908   1.575
 6464TIP3   OH219336   6.294   4.973   0.557
 6464TIP3    H119337   6.388   4.953   0.551
 6464TIP3    H219338   6.254   4.890   0.582
 6465TIP3   OH219339   6.521   1.612   6.236
 6465TIP3    H119340   6.430   1.612   6.206
 6465TIP3    H219341   6.571   1.585   6.159
 6466TIP3   OH219342   4.632   6.867   0.077
 6466TIP3    H119343   4.624   6.960   0.097
 6466TIP3    H219344   4.720   6.858   0.040
 6467TIP3   OH219345   2.915   6.634   5.371
 6467TIP3    H119346   2.973   6.698   5.413
 6467TIP3    H219347   2.948   6.626   5.282
 6468TIP3   OH219348   4.244   6.109   6.573
 6468TIP3    H119349   4.207   6.095   6.661
 6468TIP3    H219350   4.247   6.021   6.534
 6469TIP3   OH219351   6.665   5.961   1.738
 6469TIP3    H119352   6.674   6.048   1.776
 6469TIP3    H219353   6.754   5.929   1.727
 6470TIP3   OH219354   2.756   2.637   5.582
 6470TIP3    H119355   2.687   2.640   5.516
 6470TIP3    H219356   2.727   2.698   5.650
 6471TIP3   OH219357   2.181   1.525   3.505
 6471TIP3    H119358   2.148   1.497   3.590
 6471TIP3    H219359   2.124   1.481   3.441
 6472TIP3   OH219360   1.706   1.228   5.454
 6472TIP3    H119361   1.615   1.255   5.469
 6472TIP3    H219362   1.756   1.274   5.521
 6473TIP3   OH219363   7.414   5.247   3.414
 6473TIP3    H119364   7.356   5.271   3.343
 6473TIP3    H219365   7.357   5.239   3.491
 6474TIP3   OH219366   4.154   4.406   5.150
 6474TIP3    H119367   4.215   4.358   5.094
 6474TIP3    H219368   4.201   4.419   5.232
 6475TIP3   OH219369   3.264   3.888   2.030
 6475TIP3    H119370   3.212   3.845   2.098
 6475TIP3    H219371   3.257   3.830   1.954
 6476TIP3   OH219372   4.954   4.422   0.652
 6476TIP3    H119373   4.998   4.358   0.596
 6476TIP3    H219374   5.019   4.443   0.720
 6477TIP3   OH219375   0.394   4.757   0.047
 6477TIP3    H119376   0.317   4.767   0.103
 6477TIP3    H219377   0.399   4.839  -0.002
 6478TIP3   OH219378   7.051   5.959   3.399
 6478TIP3    H119379   7.043   6.049   3.367
 6478TIP3    H219380   7.046   5.967   3.494
 6479TIP3   OH219381   2.972   6.049   6.205
 6479TIP3    H119382   2.890   6.034   6.251
 6479TIP3    H219383   2.956   6.014   6.117
 6480TIP3   OH219384   3.302   2.173   2.179
 6480TIP3    H119385   3.217   2.137   2.154
 6480TIP3    H219386   3.348   2.099   2.219
 6481TIP3   OH219387   6.438   6.289   5.796
 6481TIP3    H119388   6.522   6.274   5.753
 6481TIP3    H219389   6.451   6.368   5.848
 6482TIP3   OH219390   2.229   7.003   3.028
 6482TIP3    H119391   2.289   6.958   3.087
 6482TIP3    H219392   2.206   6.937   2.962
 6483TIP3   OH219393   0.932   3.527   0.294
 6483TIP3    H119394   0.842   3.545   0.264
 6483TIP3    H219395   0.927   3.441   0.335
 6484TIP3   OH219396   2.039   1.742   3.585
 6484TIP3    H119397   1.956   1.715   3.544
 6484TIP3    H219398   2.106   1.693   3.539
 6485TIP3   OH219399   5.737   5.246   2.641
 6485TIP3    H119400   5.715   5.287   2.724
 6485TIP3    H219401   5.788   5.169   2.666
 6486TIP3   OH219402   4.146   5.163   0.139
 6486TIP3    H119403   4.084   5.168   0.212
 6486TIP3    H219404   4.095   5.124   0.068
 6487TIP3   OH219405   7.584   7.147   5.091
 6487TIP3    H119406   7.595   7.075   5.153
 6487TIP3    H219407   7.587   7.226   5.145
 6488TIP3   OH219408   3.342   3.508   6.267
 6488TIP3    H119409   3.414   3.569   6.254
 6488TIP3    H219410   3.263   3.562   6.260
 6489TIP3   OH219411   5.846   6.859   0.834
 6489TIP3    H119412   5.892   6.817   0.761
 6489TIP3    H219413   5.872   6.808   0.911
 6490TIP3   OH219414   4.625   4.443   5.819
 6490TIP3    H119415   4.593   4.354   5.835
 6490TIP3    H219416   4.707   4.448   5.867
 6491TIP3   OH219417   0.982   0.482   0.061
 6491TIP3    H119418   0.971   0.407   0.001
 6491TIP3    H219419   1.072   0.510   0.047
 6492TIP3   OH219420   3.854   6.986   0.820
 6492TIP3    H119421   3.919   6.917   0.807
 6492TIP3    H219422   3.773   6.939   0.842
 6493TIP3   OH219423   2.981   6.072   6.571
 6493TIP3    H119424   3.020   6.120   6.644
 6493TIP3    H219425   2.897   6.114   6.554
 6494TIP3   OH219426   7.978   4.562   2.946
 6494TIP3    H119427   8.023   4.603   3.020
 6494TIP3    H219428   7.958   4.473   2.976
 6495TIP3   OH219429   3.020   1.882   2.978
 6495TIP3    H119430   2.971   1.928   2.910
 6495TIP3    H219431   3.112   1.893   2.953
 6496TIP3   OH219432   3.251   5.720   0.617
 6496TIP3    H119433   3.235   5.666   0.695
 6496TIP3    H219434   3.249   5.810   0.650
 6497TIP3   OH219435   5.047   6.748   5.888
 6497TIP3    H119436   5.088   6.687   5.950
 6497TIP3    H219437   4.988   6.801   5.941
 6498TIP3   OH219438   4.885   2.889   4.313
 6498TIP3    H119439   4.883   2.793   4.312
 6498TIP3    H219440   4.930   2.913   4.232
 6499TIP3   OH219441   6.652   4.566   4.159
 6499TIP3    H119442   6.689   4.636   4.106
 6499TIP3    H219443   6.601   4.514   4.097
 6500TIP3   OH219444   7.059   6.285   3.517
 6500TIP3    H119445   7.067   6.259   3.426
 6500TIP3    H219446   6.993   6.354   3.516
 6501TIP3   OH219447   3.171   5.182   4.475
 6501TIP3    H119448   3.111   5.256   4.489
 6501TIP3    H219449   3.137   5.112   4.531
 6502TIP3   OH219450   6.749   7.483   5.272
 6502TIP3    H119451   6.722   7.414   5.211
 6502TIP3    H219452   6.711   7.457   5.356
 6503TIP3   OH219453   1.322   6.922   6.676
 6503TIP3    H119454   1.409   6.901   6.711
 6503TIP3    H219455   1.279   6.836   6.668
 6504TIP3   OH219456   4.701   4.493   3.782
 6504TIP3    H119457   4.708   4.451   3.696
 6504TIP3    H219458   4.782   4.544   3.790
 6505TIP3   OH219459   4.630   3.974   0.886
 6505TIP3    H119460   4.611   3.988   0.979
 6505TIP3    H219461   4.716   4.015   0.873
 6506TIP3   OH219462   6.322   7.363   3.549
 6506TIP3    H119463   6.391   7.395   3.607
 6506TIP3    H219464   6.247   7.419   3.570
 6507TIP3   OH219465   7.923   1.094   0.587
 6507TIP3    H119466   7.889   1.141   0.663
 6507TIP3    H219467   7.983   1.156   0.546
 6508TIP3   OH219468   2.642   6.278   3.251
 6508TIP3    H119469   2.610   6.330   3.325
 6508TIP3    H219470   2.626   6.188   3.277
 6509TIP3   OH219471   4.552   1.397   6.265
 6509TIP3    H119472   4.579   1.333   6.332
 6509TIP3    H219473   4.458   1.382   6.254
 6510TIP3   OH219474   4.947   1.469   5.346
 6510TIP3    H119475   4.968   1.543   5.404
 6510TIP3    H219476   5.028   1.419   5.342
 6511TIP3   OH219477   4.407   0.073   3.407
 6511TIP3    H119478   4.435   0.082   3.316
 6511TIP3    H219479   4.334   0.011   3.404
 6512TIP3   OH219480   5.482   5.009   2.766
 6512TIP3    H119481   5.409   5.072   2.762
 6512TIP3    H219482   5.527   5.021   2.682
 6513TIP3   OH219483   3.981   4.528   2.826
 6513TIP3    H119484   3.899   4.502   2.868
 6513TIP3    H219485   3.954   4.590   2.758
 6514TIP3   OH219486   2.242   0.901   3.469
 6514TIP3    H119487   2.197   0.908   3.553
 6514TIP3    H219488   2.300   0.977   3.467
 6515TIP3   OH219489   1.160   2.418   1.155
 6515TIP3    H119490   1.147   2.513   1.148
 6515TIP3    H219491   1.230   2.399   1.093
 6516TIP3   OH219492   3.606   0.981   1.671
 6516TIP3    H119493   3.683   0.968   1.615
 6516TIP3    H219494   3.531   0.969   1.612
 6517TIP3   OH219495   5.900   7.551   4.214
 6517TIP3    H119496   5.990   7.548   4.183
 6517TIP3    H219497   5.905   7.521   4.305
 6518TIP3   OH219498   3.714   1.460   2.060
 6518TIP3    H119499   3.739   1.378   2.103
 6518TIP3    H219500   3.769   1.527   2.101
 6519TIP3   OH219501   6.531   6.550   1.695
 6519TIP3    H119502   6.550   6.618   1.759
 6519TIP3    H219503   6.600   6.486   1.707
 6520TIP3   OH219504   0.237   1.060   4.823
 6520TIP3    H119505   0.312   1.117   4.802
 6520TIP3    H219506   0.181   1.114   4.879
 6521TIP3   OH219507   7.289   2.802   1.988
 6521TIP3    H119508   7.343   2.865   2.036
 6521TIP3    H219509   7.209   2.796   2.039
 6522TIP3   OH219510   6.242   7.462   1.427
 6522TIP3    H119511   6.190   7.439   1.350
 6522TIP3    H219512   6.178   7.467   1.499
 6523TIP3   OH219513   5.023   6.343   6.397
 6523TIP3    H119514   4.992   6.419   6.348
 6523TIP3    H219515   4.943   6.305   6.435
 6524TIP3   OH219516   7.712   2.688   1.338
 6524TIP3    H119517   7.679   2.598   1.348
 6524TIP3    H219518   7.740   2.692   1.247
 6525TIP3   OH219519   5.646   3.778   4.996
 6525TIP3    H119520   5.583   3.848   4.976
 6525TIP3    H219521   5.713   3.787   4.929
 6526TIP3   OH219522   1.718   3.848   0.229
 6526TIP3    H119523   1.675   3.901   0.296
 6526TIP3    H219524   1.770   3.910   0.179
 6527TIP3   OH219525   7.353   2.730   3.709
 6527TIP3    H119526   7.299   2.791   3.760
 6527TIP3    H219527   7.338   2.757   3.618
 6528TIP3   OH219528   6.297   5.902   4.078
 6528TIP3    H119529   6.256   5.976   4.123
 6528TIP3    H219530   6.321   5.841   4.148
 6529TIP3   OH219531   4.951   2.477   2.016
 6529TIP3    H119532   4.872   2.476   2.070
 6529TIP3    H219533   4.922   2.446   1.930
 6530TIP3   OH219534   7.249   4.052   5.360
 6530TIP3    H119535   7.342   4.057   5.336
 6530TIP3    H219536   7.229   3.959   5.359
 6531TIP3   OH219537   5.188   3.417   0.238
 6531TIP3    H119538   5.170   3.508   0.260
 6531TIP3    H219539   5.103   3.373   0.242
 6532TIP3   OH219540   2.676   0.418   1.959
 6532TIP3    H119541   2.696   0.333   1.998
 6532TIP3    H219542   2.633   0.467   2.030
 6533TIP3   OH219543   6.393   5.136   6.243
 6533TIP3    H119544   6.388   5.113   6.150
 6533TIP3    H219545   6.472   5.190   6.249
 6534TIP3   OH219546   7.031   2.805   2.064
 6534TIP3    H119547   6.936   2.805   2.057
 6534TIP3    H219548   7.049   2.812   2.157
 6535TIP3   OH219549   1.638   1.960   3.505
 6535TIP3    H119550   1.697   1.992   3.574
 6535TIP3    H219551   1.551   1.969   3.543
 6536TIP3   OH219552   4.399   2.260   6.672
 6536TIP3    H119553   4.383   2.170   6.702
 6536TIP3    H219554   4.490   2.277   6.696
 6537TIP3   OH219555   3.274   2.109   1.365
 6537TIP3    H119556   3.210   2.079   1.430
 6537TIP3    H219557   3.320   2.180   1.408
 6538TIP3   OH219558   8.254   2.185   5.901
 6538TIP3    H119559   8.180   2.138   5.862
 6538TIP3    H219560   8.301   2.119   5.951
 6539TIP3   OH219561   1.961   3.865   3.697
 6539TIP3    H119562   2.016   3.835   3.625
 6539TIP3    H219563   1.932   3.952   3.671
 6540TIP3   OH219564   0.969   5.997   6.554
 6540TIP3    H119565   1.032   5.962   6.617
 6540TIP3    H219566   0.967   5.932   6.483
 6541TIP3   OH219567   4.645   5.024   0.257
 6541TIP3    H119568   4.609   4.940   0.284
 6541TIP3    H219569   4.634   5.081   0.333
 6542TIP3   OH219570   8.104   0.659   1.635
 6542TIP3    H119571   8.183   0.679   1.584
 6542TIP3    H219572   8.052   0.603   1.578
 6543TIP3   OH219573   3.679   5.897   6.743
 6543TIP3    H119574   3.722   5.907   6.828
 6543TIP3    H219575   3.745   5.924   6.679
 6544TIP3   OH219576   6.122   5.609   4.382
 6544TIP3    H119577   6.097   5.634   4.471
 6544TIP3    H219578   6.119   5.513   4.383
 6545TIP3   OH219579   0.955   6.076   5.642
 6545TIP3    H119580   0.917   6.164   5.634
 6545TIP3    H219581   0.883   6.017   5.617
 6546TIP3   OH219582   7.406   7.234   3.951
 6546TIP3    H119583   7.418   7.155   4.004
 6546TIP3    H219584   7.315   7.260   3.966
 6547TIP3   OH219585   3.353   1.556   4.918
 6547TIP3    H119586   3.433   1.580   4.871
 6547TIP3    H219587   3.383   1.537   5.008
 6548TIP3   OH219588   4.567   0.600   5.684
 6548TIP3    H119589   4.511   0.654   5.628
 6548TIP3    H219590   4.538   0.510   5.668
 6549TIP3   OH219591   0.495   2.908   1.557
 6549TIP3    H119592   0.500   2.894   1.463
 6549TIP3    H219593   0.466   2.824   1.593
 6550TIP3   OH219594   1.988   4.907   2.589
 6550TIP3    H119595   1.945   4.908   2.674
 6550TIP3    H219596   1.931   4.960   2.533
 6551TIP3   OH219597   3.881   1.075   5.619
 6551TIP3    H119598   3.898   1.043   5.530
 6551TIP3    H219599   3.965   1.108   5.649
 6552TIP3   OH219600   5.568   3.799   0.659
 6552TIP3    H119601   5.574   3.720   0.606
 6552TIP3    H219602   5.569   3.768   0.750
 6553TIP3   OH219603   1.232   1.694   0.575
 6553TIP3    H119604   1.271   1.625   0.522
 6553TIP3    H219605   1.297   1.764   0.575
 6554TIP3   OH219606   2.835   3.681   6.620
 6554TIP3    H119607   2.864   3.689   6.711
 6554TIP3    H219608   2.904   3.724   6.569
 6555TIP3   OH219609   1.368   5.758   3.355
 6555TIP3    H119610   1.381   5.666   3.376
 6555TIP3    H219611   1.443   5.803   3.395
 6556TIP3   OH219612   1.418   1.985   5.129
 6556TIP3    H119613   1.407   1.898   5.168
 6556TIP3    H219614   1.365   2.042   5.184
 6557TIP3   OH219615   4.802   7.623   0.390
 6557TIP3    H119616   4.764   7.665   0.313
 6557TIP3    H219617   4.897   7.632   0.378
 6558TIP3   OH219618   5.401   2.241   4.812
 6558TIP3    H119619   5.317   2.213   4.776
 6558TIP3    H219620   5.464   2.219   4.744
 6559TIP3   OH219621   6.391   5.198   4.860
 6559TIP3    H119622   6.338   5.125   4.893
 6559TIP3    H219623   6.478   5.160   4.846
 6560TIP3   OH219624   6.631   1.066   1.136
 6560TIP3    H119625   6.625   1.017   1.054
 6560TIP3    H219626   6.712   1.034   1.177
 6561TIP3   OH219627   6.595   2.157   3.045
 6561TIP3    H119628   6.555   2.090   3.101
 6561TIP3    H219629   6.537   2.232   3.050
 6562TIP3   OH219630   7.025   0.190   3.817
 6562TIP3    H119631   7.052   0.172   3.907
 6562TIP3    H219632   6.932   0.169   3.815
 6563TIP3   OH219633   7.943   1.261   3.865
 6563TIP3    H119634   7.900   1.313   3.933
 6563TIP3    H219635   8.031   1.245   3.899
 6564TIP3   OH219636   5.550   1.142   3.738
 6564TIP3    H119637   5.472   1.100   3.773
 6564TIP3    H219638   5.517   1.212   3.681
 6565TIP3   OH219639   4.641   1.178   2.992
 6565TIP3    H119640   4.686   1.215   3.068
 6565TIP3    H219641   4.574   1.243   2.970
 6566TIP3   OH219642   7.508   5.413   5.921
 6566TIP3    H119643   7.596   5.434   5.889
 6566TIP3    H219644   7.481   5.491   5.969
 6567TIP3   OH219645   1.402   3.044   3.820
 6567TIP3    H119646   1.331   3.092   3.862
 6567TIP3    H219647   1.384   2.952   3.839
 6568TIP3   OH219648   5.631   1.445   1.760
 6568TIP3    H119649   5.702   1.422   1.700
 6568TIP3    H219650   5.660   1.414   1.846
 6569TIP3   OH219651   1.886   6.250   3.008
 6569TIP3    H119652   1.891   6.224   2.916
 6569TIP3    H219653   1.957   6.202   3.050
 6570TIP3   OH219654   4.455   2.428   1.786
 6570TIP3    H119655   4.433   2.517   1.815
 6570TIP3    H219656   4.499   2.441   1.702
 6571TIP3   OH219657   5.302   0.283   2.242
 6571TIP3    H119658   5.287   0.297   2.336
 6571TIP3    H219659   5.242   0.212   2.218
 6572TIP3   OH219660   5.435   2.618   1.313
 6572TIP3    H119661   5.529   2.638   1.307
 6572TIP3    H219662   5.397   2.696   1.352
 6573TIP3   OH219663   0.345   6.795   2.158
 6573TIP3    H119664   0.297   6.718   2.129
 6573TIP3    H219665   0.327   6.862   2.092
 6574TIP3   OH219666   2.936   5.904   0.244
 6574TIP3    H119667   2.867   5.862   0.192
 6574TIP3    H219668   2.953   5.842   0.315
 6575TIP3   OH219669   7.933   5.718   5.740
 6575TIP3    H119670   7.932   5.811   5.719
 6575TIP3    H219671   8.012   5.706   5.793
 6576TIP3   OH219672   1.467   2.885   4.433
 6576TIP3    H119673   1.517   2.962   4.461
 6576TIP3    H219674   1.533   2.820   4.410
 6577TIP3   OH219675   4.236   5.961   0.989
 6577TIP3    H119676   4.143   5.945   1.004
 6577TIP3    H219677   4.280   5.882   1.019
 6578TIP3   OH219678   3.238   5.259   1.998
 6578TIP3    H119679   3.216   5.276   2.090
 6578TIP3    H219680   3.189   5.180   1.976
 6579TIP3   OH219681   7.591   0.373   5.928
 6579TIP3    H119682   7.684   0.389   5.913
 6579TIP3    H219683   7.589   0.326   6.012
 6580TIP3   OH219684   4.244   2.436   0.782
 6580TIP3    H119685   4.234   2.471   0.693
 6580TIP3    H219686   4.338   2.427   0.794
 6581TIP3   OH219687   0.030   5.737   0.324
 6581TIP3    H119688  -0.043   5.694   0.279
 6581TIP3    H219689   0.036   5.823   0.285
 6582TIP3   OH219690   8.151   6.775   6.330
 6582TIP3    H119691   8.182   6.795   6.418
 6582TIP3    H219692   8.206   6.702   6.301
 6583TIP3   OH219693   2.480   6.319   0.138
 6583TIP3    H119694   2.419   6.275   0.078
 6583TIP3    H219695   2.502   6.252   0.202
 6584TIP3   OH219696   0.641   7.007   4.962
 6584TIP3    H119697   0.588   7.087   4.966
 6584TIP3    H219698   0.607   6.953   5.033
 6585TIP3   OH219699   4.227   3.820   6.429
 6585TIP3    H119700   4.294   3.823   6.497
 6585TIP3    H219701   4.145   3.840   6.476
 6586TIP3   OH219702   5.232   1.879   3.638
 6586TIP3    H119703   5.171   1.949   3.613
 6586TIP3    H219704   5.287   1.920   3.705
 6587TIP3   OH219705   6.621   5.425   0.691
 6587TIP3    H119706   6.690   5.372   0.651
 6587TIP3    H219707   6.668   5.486   0.748
 6588TIP3   OH219708   3.180   3.086   0.876
 6588TIP3    H119709   3.213   3.083   0.787
 6588TIP3    H219710   3.209   3.003   0.915
 6589TIP3   OH219711   2.581   3.581   4.641
 6589TIP3    H119712   2.539   3.607   4.723
 6589TIP3    H219713   2.536   3.500   4.615
 6590TIP3   OH219714   2.011   4.700   5.226
 6590TIP3    H119715   2.024   4.608   5.249
 6590TIP3    H219716   1.933   4.700   5.170
 6591TIP3   OH219717   2.856   7.661   5.671
 6591TIP3    H119718   2.865   7.580   5.721
 6591TIP3    H219719   2.843   7.632   5.581
 6592TIP3   OH219720   0.596   7.330   2.482
 6592TIP3    H119721   0.583   7.275   2.405
 6592TIP3    H219722   0.689   7.351   2.482
 6593TIP3   OH219723   3.892   4.117   5.136
 6593TIP3    H119724   3.933   4.130   5.051
 6593TIP3    H219725   3.798   4.110   5.117
 6594TIP3   OH219726   7.176   7.354   3.042
 6594TIP3    H119727   7.150   7.386   3.129
 6594TIP3    H219728   7.220   7.428   3.001
 6595TIP3   OH219729   4.435   0.412   1.814
 6595TIP3    H119730   4.499   0.402   1.743
 6595TIP3    H219731   4.450   0.337   1.871
 6596TIP3   OH219732   7.398   2.023   1.681
 6596TIP3    H119733   7.493   2.030   1.683
 6596TIP3    H219734   7.376   1.974   1.761
 6597TIP3   OH219735   2.261   7.553   6.251
 6597TIP3    H119736   2.167   7.556   6.265
 6597TIP3    H219737   2.289   7.470   6.289
 6598TIP3   OH219738   6.951   0.573   2.984
 6598TIP3    H119739   7.016   0.565   2.914
 6598TIP3    H219740   6.940   0.484   3.016
 6599TIP3   OH219741   7.183   0.709   0.022
 6599TIP3    H119742   7.116   0.777   0.032
 6599TIP3    H219743   7.136   0.627   0.034
 6600TIP3   OH219744   0.990   2.421   0.810
 6600TIP3    H119745   0.998   2.333   0.773
 6600TIP3    H219746   0.960   2.474   0.736
 6601TIP3   OH219747   5.069   4.528   3.235
 6601TIP3    H119748   5.093   4.510   3.144
 6601TIP3    H219749   5.139   4.487   3.286
 6602TIP3   OH219750   8.154   5.022   5.767
 6602TIP3    H119751   8.174   5.106   5.725
 6602TIP3    H219752   8.239   4.978   5.772
 6603TIP3   OH219753   1.074   0.664   1.697
 6603TIP3    H119754   1.140   0.659   1.766
 6603TIP3    H219755   0.991   0.669   1.743
 6604TIP3   OH219756   5.887   2.472   4.183
 6604TIP3    H119757   5.842   2.399   4.227
 6604TIP3    H219758   5.816   2.525   4.147
 6605TIP3   OH219759   5.693   1.748   1.056
 6605TIP3    H119760   5.744   1.668   1.042
 6605TIP3    H219761   5.603   1.721   1.042
 6606TIP3   OH219762   0.743   6.624   3.743
 6606TIP3    H119763   0.784   6.629   3.829
 6606TIP3    H219764   0.726   6.531   3.730
 6607TIP3   OH219765   0.141   1.559   3.653
 6607TIP3    H119766   0.196   1.529   3.581
 6607TIP3    H219767   0.086   1.483   3.675
 6608TIP3   OH219768   3.353   0.069   3.151
 6608TIP3    H119769   3.334   0.074   3.244
 6608TIP3    H219770   3.402   0.149   3.132
 6609TIP3   OH219771   6.454   5.534   2.776
 6609TIP3    H119772   6.514   5.466   2.745
 6609TIP3    H219773   6.470   5.540   2.870
 6610TIP3   OH219774   3.601   1.612   1.189
 6610TIP3    H119775   3.651   1.672   1.244
 6610TIP3    H219776   3.658   1.597   1.113
 6611TIP3   OH219777   7.956   2.219   0.103
 6611TIP3    H119778   7.883   2.159   0.111
 6611TIP3    H219779   7.922   2.303   0.134
 6612TIP3   OH219780   7.431   3.646   4.083
 6612TIP3    H119781   7.423   3.594   4.003
 6612TIP3    H219782   7.341   3.669   4.106
 6613TIP3   OH219783   7.639   4.716   0.087
 6613TIP3    H119784   7.584   4.727   0.010
 6613TIP3    H219785   7.613   4.785   0.147
 6614TIP3   OH219786   2.184   7.535   2.823
 6614TIP3    H119787   2.224   7.547   2.909
 6614TIP3    H219788   2.164   7.624   2.793
 6615TIP3   OH219789   4.093   0.569   6.283
 6615TIP3    H119790   4.063   0.553   6.194
 6615TIP3    H219791   4.163   0.634   6.274
 6616TIP3   OH219792   6.564   1.009   5.494
 6616TIP3    H119793   6.507   0.965   5.431
 6616TIP3    H219794   6.624   1.060   5.440
 6617TIP3   OH219795   3.303   2.080   0.381
 6617TIP3    H119796   3.233   2.081   0.446
 6617TIP3    H219797   3.310   2.171   0.352
 6618TIP3   OH219798   6.189   2.684   5.158
 6618TIP3    H119799   6.223   2.751   5.217
 6618TIP3    H219800   6.242   2.692   5.079
 6619TIP3   OH219801   1.484   4.099   3.475
 6619TIP3    H119802   1.525   4.134   3.555
 6619TIP3    H219803   1.416   4.040   3.508
 6620TIP3   OH219804   4.125   5.637   1.023
 6620TIP3    H119805   4.080   5.608   1.102
 6620TIP3    H219806   4.216   5.648   1.050
 6621TIP3   OH219807   4.661   7.156   0.139
 6621TIP3    H119808   4.700   7.220   0.080
 6621TIP3    H219809   4.688   7.184   0.226
 6622TIP3   OH219810   0.773   5.844   4.228
 6622TIP3    H119811   0.844   5.896   4.267
 6622TIP3    H219812   0.693   5.877   4.270
 6623TIP3   OH219813   4.961   0.875   0.127
 6623TIP3    H119814   4.947   0.796   0.180
 6623TIP3    H219815   5.022   0.847   0.058
 6624TIP3   OH219816   7.524   2.379   2.204
 6624TIP3    H119817   7.599   2.438   2.199
 6624TIP3    H219818   7.491   2.375   2.114
 6625TIP3   OH219819   2.791   6.686   6.306
 6625TIP3    H119820   2.822   6.691   6.396
 6625TIP3    H219821   2.870   6.671   6.254
 6626TIP3   OH219822   4.517   1.542   1.831
 6626TIP3    H119823   4.474   1.587   1.758
 6626TIP3    H219824   4.520   1.606   1.901
 6627TIP3   OH219825   4.725   7.661   0.657
 6627TIP3    H119826   4.720   7.619   0.572
 6627TIP3    H219827   4.676   7.603   0.716
 6628TIP3   OH219828   7.171   3.380   1.856
 6628TIP3    H119829   7.164   3.391   1.951
 6628TIP3    H219830   7.228   3.304   1.845
 6629TIP3   OH219831   4.976   4.896   5.531
 6629TIP3    H119832   5.033   4.820   5.540
 6629TIP3    H219833   5.024   4.955   5.474
 6630TIP3   OH219834   0.571   3.687   6.699
 6630TIP3    H119835   0.572   3.725   6.787
 6630TIP3    H219836   0.572   3.593   6.713
 6631TIP3   OH219837   7.357   4.898   0.721
 6631TIP3    H119838   7.269   4.862   0.708
 6631TIP3    H219839   7.408   4.825   0.756
 6632TIP3   OH219840   2.189   0.666   2.467
 6632TIP3    H119841   2.193   0.704   2.380
 6632TIP3    H219842   2.148   0.580   2.454
 6633TIP3   OH219843   2.208   1.616   0.708
 6633TIP3    H119844   2.114   1.600   0.715
 6633TIP3    H219845   2.224   1.691   0.765
 6634TIP3   OH219846   2.454   0.267   1.556
 6634TIP3    H119847   2.545   0.277   1.527
 6634TIP3    H219848   2.438   0.344   1.611
 6635TIP3   OH219849   6.966   6.772   4.050
 6635TIP3    H119850   6.945   6.761   4.143
 6635TIP3    H219851   7.053   6.733   4.041
 6636TIP3   OH219852   2.997   0.002   6.016
 6636TIP3    H119853   2.961   0.022   5.929
 6636TIP3    H219854   2.924   0.016   6.076
 6637TIP3   OH219855   2.163   4.303   1.742
 6637TIP3    H119856   2.167   4.351   1.659
 6637TIP3    H219857   2.127   4.366   1.804
 6638TIP3   OH219858   6.579   1.783   0.285
 6638TIP3    H119859   6.498   1.750   0.324
 6638TIP3    H219860   6.568   1.766   0.191
 6639TIP3   OH219861   3.328   2.611   1.619
 6639TIP3    H119862   3.285   2.639   1.699
 6639TIP3    H219863   3.408   2.665   1.615
 6640TIP3   OH219864   4.982   0.123   0.158
 6640TIP3    H119865   4.915   0.090   0.218
 6640TIP3    H219866   5.043   0.050   0.148
 6641TIP3   OH219867   0.203   2.427   5.461
 6641TIP3    H119868   0.159   2.491   5.406
 6641TIP3    H219869   0.134   2.391   5.517
 6642TIP3   OH219870   4.814   1.304   0.267
 6642TIP3    H119871   4.720   1.321   0.276
 6642TIP3    H219872   4.847   1.382   0.221
 6643TIP3   OH219873   6.804   7.139   0.994
 6643TIP3    H119874   6.730   7.100   1.040
 6643TIP3    H219875   6.875   7.075   1.005
 6644TIP3   OH219876   4.106   1.894   6.086
 6644TIP3    H119877   4.189   1.896   6.039
 6644TIP3    H219878   4.111   1.816   6.141
 6645TIP3   OH219879   0.696   3.501   1.022
 6645TIP3    H119880   0.742   3.494   0.938
 6645TIP3    H219881   0.688   3.410   1.052
 6646TIP3   OH219882   4.587   5.169   5.482
 6646TIP3    H119883   4.619   5.260   5.478
 6646TIP3    H219884   4.593   5.138   5.392
 6647TIP3   OH219885   4.559   2.370   5.009
 6647TIP3    H119886   4.550   2.309   4.936
 6647TIP3    H219887   4.508   2.332   5.080
 6648TIP3   OH219888   0.803   2.035   3.980
 6648TIP3    H119889   0.748   2.084   4.040
 6648TIP3    H219890   0.849   2.101   3.928
 6649TIP3   OH219891   0.907   2.786   5.736
 6649TIP3    H119892   0.925   2.709   5.681
 6649TIP3    H219893   0.928   2.757   5.825
 6650TIP3   OH219894   8.171   6.461   5.481
 6650TIP3    H119895   8.175   6.534   5.543
 6650TIP3    H219896   8.171   6.502   5.395
 6651TIP3   OH219897   2.407   7.306   1.597
 6651TIP3    H119898   2.391   7.215   1.620
 6651TIP3    H219899   2.320   7.347   1.598
 6652TIP3   OH219900   5.908   0.779   0.529
 6652TIP3    H119901   5.982   0.795   0.586
 6652TIP3    H219902   5.898   0.861   0.479
 6653TIP3   OH219903   7.431   3.804   2.124
 6653TIP3    H119904   7.424   3.795   2.029
 6653TIP3    H219905   7.464   3.893   2.138
 6654TIP3   OH219906   6.006   6.663   4.876
 6654TIP3    H119907   6.045   6.739   4.833
 6654TIP3    H219908   6.030   6.673   4.968
 6655TIP3   OH219909   3.568   5.694   0.937
 6655TIP3    H119910   3.583   5.604   0.907
 6655TIP3    H219911   3.487   5.688   0.988
 6656TIP3   OH219912   1.431   5.312   4.062
 6656TIP3    H119913   1.474   5.232   4.093
 6656TIP3    H219914   1.387   5.347   4.140
 6657TIP3   OH219915   2.323   4.951   2.938
 6657TIP3    H119916   2.354   4.860   2.933
 6657TIP3    H219917   2.386   5.000   2.885
 6658TIP3   OH219918   7.972   5.437   0.310
 6658TIP3    H119919   8.037   5.413   0.244
 6658TIP3    H219920   7.922   5.508   0.271
 6659TIP3   OH219921   2.548   2.259   5.697
 6659TIP3    H119922   2.589   2.174   5.685
 6659TIP3    H219923   2.603   2.304   5.762
 6660TIP3   OH219924   1.950   6.922   0.034
 6660TIP3    H119925   1.991   6.984   0.094
 6660TIP3    H219926   1.992   6.838   0.054
 6661TIP3   OH219927   5.241   2.902   3.114
 6661TIP3    H119928   5.305   2.897   3.042
 6661TIP3    H219929   5.277   2.846   3.182
 6662TIP3   OH219930   3.803   4.602   3.336
 6662TIP3    H119931   3.887   4.647   3.336
 6662TIP3    H219932   3.812   4.534   3.403
 6663TIP3   OH219933   2.826   2.326   0.369
 6663TIP3    H119934   2.860   2.409   0.402
 6663TIP3    H219935   2.878   2.307   0.291
 6664TIP3   OH219936   7.624   2.285   1.795
 6664TIP3    H119937   7.545   2.287   1.850
 6664TIP3    H219938   7.630   2.194   1.766
 6665TIP3   OH219939   6.447   5.591   3.791
 6665TIP3    H119940   6.447   5.524   3.859
 6665TIP3    H219941   6.483   5.668   3.834
 6666TIP3   OH219942   1.230   4.750   6.531
 6666TIP3    H119943   1.164   4.739   6.599
 6666TIP3    H219944   1.194   4.818   6.474
 6667TIP3   OH219945   1.436   0.627   3.901
 6667TIP3    H119946   1.497   0.626   3.828
 6667TIP3    H219947   1.457   0.548   3.951
 6668TIP3   OH219948   1.870   6.653   4.948
 6668TIP3    H119949   1.915   6.733   4.920
 6668TIP3    H219950   1.849   6.668   5.040
 6669TIP3   OH219951   0.247   2.315   6.580
 6669TIP3    H119952   0.210   2.242   6.630
 6669TIP3    H219953   0.328   2.280   6.543
 6670TIP3   OH219954   2.011   5.738   4.596
 6670TIP3    H119955   1.936   5.710   4.647
 6670TIP3    H219956   2.039   5.820   4.637
 6671TIP3   OH219957   6.091   2.010   2.140
 6671TIP3    H119958   6.090   2.088   2.084
 6671TIP3    H219959   6.183   2.000   2.164
 6672TIP3   OH219960   0.231   1.427   3.428
 6672TIP3    H119961   0.317   1.388   3.409
 6672TIP3    H219962   0.202   1.463   3.344
 6673TIP3   OH219963   6.513   4.013   6.163
 6673TIP3    H119964   6.442   3.951   6.148
 6673TIP3    H219965   6.475   4.081   6.218
 6674TIP3   OH219966   5.269  -0.008   1.971
 6674TIP3    H119967   5.363  -0.027   1.960
 6674TIP3    H219968   5.259   0.083   1.942
 6675TIP3   OH219969   1.283   6.845   5.109
 6675TIP3    H119970   1.362   6.806   5.146
 6675TIP3    H219971   1.219   6.773   5.108
 6676TIP3   OH219972   1.701   6.762   0.852
 6676TIP3    H119973   1.761   6.758   0.777
 6676TIP3    H219974   1.757   6.785   0.926
 6677TIP3   OH219975   3.533   2.380   0.773
 6677TIP3    H119976   3.615   2.366   0.725
 6677TIP3    H219977   3.552   2.349   0.862
 6678TIP3   OH219978   0.920   0.276   4.164
 6678TIP3    H119979   0.890   0.346   4.106
 6678TIP3    H219980   0.998   0.241   4.121
 6679TIP3   OH219981   7.419   3.025   2.090
 6679TIP3    H119982   7.492   3.063   2.041
 6679TIP3    H219983   7.438   3.045   2.182
 6680TIP3   OH219984   4.859   3.459   5.454
 6680TIP3    H119985   4.920   3.390   5.479
 6680TIP3    H219986   4.913   3.537   5.441
 6681TIP3   OH219987   4.550   3.427   4.675
 6681TIP3    H119988   4.465   3.466   4.693
 6681TIP3    H219989   4.560   3.358   4.741
 6682TIP3   OH219990   5.164   2.064   3.109
 6682TIP3    H119991   5.206   2.150   3.103
 6682TIP3    H219992   5.233   2.006   3.138
 6683TIP3   OH219993   0.600   0.617   2.351
 6683TIP3    H119994   0.559   0.684   2.296
 6683TIP3    H219995   0.675   0.661   2.391
 6684TIP3   OH219996   4.159   5.411   4.468
 6684TIP3    H119997   4.147   5.321   4.436
 6684TIP3    H219998   4.155   5.465   4.389
 6685TIP3   OH219999   2.498   2.642   1.537
 6685TIP3    H120000   2.453   2.714   1.494
 6685TIP3    H220001   2.443   2.620   1.612
 6686TIP3   OH220002   4.394   0.529   6.019
 6686TIP3    H120003   4.301   0.546   6.001
 6686TIP3    H220004   4.436   0.614   6.004
 6687TIP3   OH220005   6.668   0.186   1.600
 6687TIP3    H120006   6.741   0.166   1.542
 6687TIP3    H220007   6.659   0.281   1.595
 6688TIP3   OH220008   5.008   1.927   2.187
 6688TIP3    H120009   4.974   1.998   2.133
 6688TIP3    H220010   4.932   1.871   2.203
 6689TIP3   OH220011   6.557   2.355   4.397
 6689TIP3    H120012   6.640   2.311   4.417
 6689TIP3    H220013   6.575   2.406   4.318
 6690TIP3   OH220014   3.952   0.546   1.500
 6690TIP3    H120015   3.968   0.548   1.406
 6690TIP3    H220016   4.009   0.615   1.535
 6691TIP3   OH220017   7.115   0.879   3.328
 6691TIP3    H120018   7.109   0.952   3.267
 6691TIP3    H220019   7.209   0.859   3.332
 6692TIP3   OH220020   2.026   7.484   1.246
 6692TIP3    H120021   2.060   7.423   1.181
 6692TIP3    H220022   1.944   7.444   1.275
 6693TIP3   OH220023   5.406   6.357   4.023
 6693TIP3    H120024   5.451   6.305   3.956
 6693TIP3    H220025   5.452   6.441   4.023
 6694TIP3   OH220026   2.901   1.768   0.579
 6694TIP3    H120027   2.987   1.808   0.588
 6694TIP3    H220028   2.839   1.835   0.608
 6695TIP3   OH220029   6.042   6.930   4.803
 6695TIP3    H120030   6.082   7.014   4.779
 6695TIP3    H220031   5.961   6.954   4.848
 6696TIP3   OH220032   2.621   6.704   5.295
 6696TIP3    H120033   2.677   6.736   5.225
 6696TIP3    H220034   2.670   6.721   5.375
 6697TIP3   OH220035   7.124   6.351   1.225
 6697TIP3    H120036   7.089   6.269   1.193
 6697TIP3    H220037   7.219   6.343   1.215
 6698TIP3   OH220038   6.761   6.147   0.919
 6698TIP3    H120039   6.820   6.072   0.925
 6698TIP3    H220040   6.696   6.131   0.988
 6699TIP3   OH220041   2.340   4.619   6.682
 6699TIP3    H120042   2.332   4.555   6.753
 6699TIP3    H220043   2.275   4.686   6.704
 6700TIP3   OH220044   7.913   5.860   1.131
 6700TIP3    H120045   7.923   5.819   1.045
 6700TIP3    H220046   7.906   5.787   1.192
 6701TIP3   OH220047   0.482   5.193   4.210
 6701TIP3    H120048   0.487   5.115   4.155
 6701TIP3    H220049   0.572   5.224   4.217
 6702TIP3   OH220050   2.861   0.100   0.770
 6702TIP3    H120051   2.908   0.054   0.701
 6702TIP3    H220052   2.782   0.047   0.785
 6703TIP3   OH220053   0.779   0.917   0.388
 6703TIP3    H120054   0.809   1.008   0.394
 6703TIP3    H220055   0.806   0.877   0.471
 6704TIP3   OH220056   1.151   4.005   1.265
 6704TIP3    H120057   1.176   4.028   1.354
 6704TIP3    H220058   1.057   4.024   1.260
 6705TIP3   OH220059   6.403   6.943   5.955
 6705TIP3    H120060   6.475   6.880   5.950
 6705TIP3    H220061   6.386   6.967   5.864
 6706TIP3   OH220062   8.117   4.930   2.077
 6706TIP3    H120063   8.054   4.942   2.149
 6706TIP3    H220064   8.200   4.958   2.114
 6707TIP3   OH220065   4.493   2.064   2.049
 6707TIP3    H120066   4.568   2.123   2.052
 6707TIP3    H220067   4.431   2.107   1.991
 6708TIP3   OH220068   6.216   7.175   5.877
 6708TIP3    H120069   6.229   7.090   5.920
 6708TIP3    H220070   6.296   7.188   5.826
 6709TIP3   OH220071   2.201   1.483   6.375
 6709TIP3    H120072   2.248   1.409   6.336
 6709TIP3    H220073   2.111   1.450   6.386
 6710TIP3   OH220074   0.571   5.598   0.576
 6710TIP3    H120075   0.481   5.579   0.601
 6710TIP3    H220076   0.578   5.693   0.579
 6711TIP3   OH220077   4.067   1.306   2.915
 6711TIP3    H120078   4.065   1.306   2.820
 6711TIP3    H220079   4.035   1.219   2.939
 6712TIP3   OH220080   5.648   1.507   0.868
 6712TIP3    H120081   5.690   1.481   0.949
 6712TIP3    H220082   5.574   1.447   0.858
 6713TIP3   OH220083   3.039   6.945   0.527
 6713TIP3    H120084   3.071   7.035   0.528
 6713TIP3    H220085   3.096   6.899   0.588
 6714TIP3   OH220086   7.607   1.198   4.818
 6714TIP3    H120087   7.584   1.279   4.773
 6714TIP3    H220088   7.523   1.161   4.847
 6715TIP3   OH220089   5.098   7.727   0.138
 6715TIP3    H120090   5.039   7.697   0.069
 6715TIP3    H220091   5.182   7.686   0.117
 6716TIP3   OH220092   6.296   0.522   2.556
 6716TIP3    H120093   6.225   0.465   2.585
 6716TIP3    H220094   6.273   0.608   2.589
 6717TIP3   OH220095   5.270   1.100   4.288
 6717TIP3    H120096   5.322   1.060   4.358
 6717TIP3    H220097   5.286   1.194   4.297
 6718TIP3   OH220098   0.083   0.475   4.153
 6718TIP3    H120099   0.148   0.529   4.198
 6718TIP3    H220100   0.096   0.493   4.060
 6719TIP3   OH220101   6.056   6.134   2.364
 6719TIP3    H120102   5.971   6.133   2.407
 6719TIP3    H220103   6.103   6.060   2.402
 6720TIP3   OH220104   0.644   3.927   5.662
 6720TIP3    H120105   0.620   3.838   5.638
 6720TIP3    H220106   0.740   3.927   5.664
 6721TIP3   OH220107   1.922   0.251   3.803
 6721TIP3    H120108   1.965   0.177   3.844
 6721TIP3    H220109   1.981   0.278   3.733
 6722TIP3   OH220110   4.364   7.090   3.678
 6722TIP3    H120111   4.435   7.098   3.742
 6722TIP3    H220112   4.289   7.061   3.730
 6723TIP3   OH220113   3.986   6.189   3.513
 6723TIP3    H120114   3.918   6.191   3.581
 6723TIP3    H220115   3.972   6.105   3.469
 6724TIP3   OH220116   5.130   5.329   6.779
 6724TIP3    H120117   5.057   5.284   6.821
 6724TIP3    H220118   5.090   5.398   6.728
 6725TIP3   OH220119   1.524   6.655   2.289
 6725TIP3    H120120   1.497   6.594   2.220
 6725TIP3    H220121   1.609   6.622   2.318
 6726TIP3   OH220122   7.827   5.030   0.224
 6726TIP3    H120123   7.869   4.944   0.229
 6726TIP3    H220124   7.757   5.026   0.289
 6727TIP3   OH220125   7.096   2.318   3.969
 6727TIP3    H120126   7.056   2.277   3.893
 6727TIP3    H220127   7.136   2.246   4.018
 6728TIP3   OH220128   0.782   0.960   6.317
 6728TIP3    H120129   0.733   1.040   6.297
 6728TIP3    H220130   0.747   0.931   6.401
 6729TIP3   OH220131   2.982   0.156   2.643
 6729TIP3    H120132   3.026   0.118   2.718
 6729TIP3    H220133   3.018   0.245   2.635
 6730TIP3   OH220134   3.983   3.250   0.812
 6730TIP3    H120135   4.023   3.181   0.758
 6730TIP3    H220136   4.030   3.247   0.895
 6731TIP3   OH220137   6.635   6.219   0.688
 6731TIP3    H120138   6.646   6.313   0.673
 6731TIP3    H220139   6.674   6.204   0.774
 6732TIP3   OH220140   6.349   3.335   6.168
 6732TIP3    H120141   6.290   3.260   6.171
 6732TIP3    H220142   6.433   3.298   6.140
 6733TIP3   OH220143   3.039   0.810   0.442
 6733TIP3    H120144   3.000   0.893   0.418
 6733TIP3    H220145   3.127   0.812   0.402
 6734TIP3   OH220146   3.768   7.293   6.160
 6734TIP3    H120147   3.708   7.347   6.212
 6734TIP3    H220148   3.855   7.315   6.193
 6735TIP3   OH220149   1.177   2.391   5.769
 6735TIP3    H120150   1.183   2.474   5.722
 6735TIP3    H220151   1.234   2.331   5.720
 6736TIP3   OH220152   6.398   3.249   0.413
 6736TIP3    H120153   6.440   3.333   0.395
 6736TIP3    H220154   6.455   3.207   0.477
 6737TIP3   OH220155   1.610   4.420   2.885
 6737TIP3    H120156   1.689   4.431   2.939
 6737TIP3    H220157   1.541   4.464   2.934
 6738TIP3   OH220158   7.361   7.714   6.194
 6738TIP3    H120159   7.328   7.751   6.112
 6738TIP3    H220160   7.383   7.789   6.248
 6739TIP3   OH220161   1.994   2.008   3.015
 6739TIP3    H120162   1.991   2.017   3.110
 6739TIP3    H220163   2.054   1.935   3.000
 6740TIP3   OH220164   3.636   1.804   4.608
 6740TIP3    H120165   3.648   1.873   4.675
 6740TIP3    H220166   3.703   1.823   4.542
 6741TIP3   OH220167   1.388   2.860   2.593
 6741TIP3    H120168   1.319   2.859   2.527
 6741TIP3    H220169   1.346   2.827   2.672
 6742TIP3   OH220170   5.234   1.646   4.424
 6742TIP3    H120171   5.163   1.692   4.469
 6742TIP3    H220172   5.314   1.676   4.468
 6743TIP3   OH220173   2.171   5.100   0.250
 6743TIP3    H120174   2.221   5.078   0.329
 6743TIP3    H220175   2.180   5.023   0.194
 6744TIP3   OH220176   5.987   6.547   0.161
 6744TIP3    H120177   5.930   6.482   0.119
 6744TIP3    H220178   5.934   6.581   0.233
 6745TIP3   OH220179   2.626   4.304   5.992
 6745TIP3    H120180   2.622   4.302   5.897
 6745TIP3    H220181   2.577   4.383   6.017
 6746TIP3   OH220182   3.777   5.857   2.006
 6746TIP3    H120183   3.848   5.814   1.959
 6746TIP3    H220184   3.804   5.856   2.097
 6747TIP3   OH220185   7.121   6.379   6.405
 6747TIP3    H120186   7.178   6.399   6.331
 6747TIP3    H220187   7.171   6.316   6.458
 6748TIP3   OH220188   7.968   3.371   6.198
 6748TIP3    H120189   7.918   3.392   6.119
 6748TIP3    H220190   8.005   3.454   6.226
 6749TIP3   OH220191   4.261   1.649   3.076
 6749TIP3    H120192   4.183   1.698   3.050
 6749TIP3    H220193   4.333   1.712   3.067
 6750TIP3   OH220194   4.809   2.368   4.439
 6750TIP3    H120195   4.717   2.350   4.416
 6750TIP3    H220196   4.822   2.318   4.520
 6751TIP3   OH220197   4.525   4.195   1.074
 6751TIP3    H120198   4.468   4.175   1.000
 6751TIP3    H220199   4.584   4.263   1.041
 6752TIP3   OH220200   2.965   0.990   0.236
 6752TIP3    H120201   2.872   0.985   0.212
 6752TIP3    H220202   3.008   0.928   0.178
 6753TIP3   OH220203   5.423   5.512   5.354
 6753TIP3    H120204   5.376   5.594   5.368
 6753TIP3    H220205   5.500   5.536   5.304
 6754TIP3   OH220206   6.741   3.673   6.508
 6754TIP3    H120207   6.655   3.685   6.469
 6754TIP3    H220208   6.787   3.755   6.491
 6755TIP3   OH220209   6.755   4.008   1.854
 6755TIP3    H120210   6.778   3.926   1.810
 6755TIP3    H220211   6.666   4.027   1.825
 6756TIP3   OH220212   6.489   2.232   2.584
 6756TIP3    H120213   6.404   2.259   2.618
 6756TIP3    H220214   6.535   2.197   2.661
 6757TIP3   OH220215   4.095   3.994   2.864
 6757TIP3    H120216   4.033   4.017   2.795
 6757TIP3    H220217   4.110   4.076   2.910
 6758TIP3   OH220218   3.911   0.026   4.506
 6758TIP3    H120219   3.905   0.035   4.411
 6758TIP3    H220220   4.000  -0.006   4.521
 6759TIP3   OH220221   2.468   7.430   1.344
 6759TIP3    H120222   2.470   7.364   1.414
 6759TIP3    H220223   2.531   7.398   1.280
 6760TIP3   OH220224   6.047   4.165   2.980
 6760TIP3    H120225   6.029   4.073   3.002
 6760TIP3    H220226   5.973   4.213   3.017
 6761TIP3   OH220227   3.988   3.962   5.525
 6761TIP3    H120228   3.993   4.034   5.462
 6761TIP3    H220229   3.917   3.987   5.584
 6762TIP3   OH220230   4.312   2.735   6.467
 6762TIP3    H120231   4.260   2.718   6.389
 6762TIP3    H220232   4.370   2.660   6.475
 6763TIP3   OH220233   0.401   6.509   1.358
 6763TIP3    H120234   0.371   6.456   1.284
 6763TIP3    H220235   0.493   6.529   1.338
 6764TIP3   OH220236   1.306   6.248   5.302
 6764TIP3    H120237   1.359   6.175   5.271
 6764TIP3    H220238   1.368   6.319   5.317
 6765TIP3   OH220239   1.820   7.176   6.604
 6765TIP3    H120240   1.740   7.183   6.657
 6765TIP3    H220241   1.803   7.104   6.544
 6766TIP3   OH220242   6.226   6.496   5.537
 6766TIP3    H120243   6.153   6.498   5.475
 6766TIP3    H220244   6.184   6.508   5.622
 6767TIP3   OH220245   1.257   5.855   2.707
 6767TIP3    H120246   1.344   5.896   2.697
 6767TIP3    H220247   1.276   5.763   2.723
 6768TIP3   OH220248   3.457   4.302   2.263
 6768TIP3    H120249   3.445   4.217   2.221
 6768TIP3    H220250   3.524   4.286   2.330
 6769TIP3   OH220251   2.696   2.799   5.808
 6769TIP3    H120252   2.733   2.883   5.781
 6769TIP3    H220253   2.743   2.777   5.889
 6770TIP3   OH220254   2.000   2.785   2.992
 6770TIP3    H120255   2.021   2.857   2.933
 6770TIP3    H220256   1.935   2.733   2.944
 6771TIP3   OH220257   5.631   7.754   6.378
 6771TIP3    H120258   5.542   7.721   6.368
 6771TIP3    H220259   5.631   7.797   6.463
 6772TIP3   OH220260   4.549   1.509   0.790
 6772TIP3    H120261   4.544   1.599   0.757
 6772TIP3    H220262   4.562   1.456   0.711
 6773TIP3   OH220263   6.093   2.052   2.516
 6773TIP3    H120264   6.039   2.129   2.536
 6773TIP3    H220265   6.030   1.980   2.510
 6774TIP3   OH220266   2.843   4.604   2.893
 6774TIP3    H120267   2.918   4.588   2.949
 6774TIP3    H220268   2.804   4.517   2.880
 6775TIP3   OH220269   4.437   5.471   1.864
 6775TIP3    H120270   4.400   5.481   1.776
 6775TIP3    H220271   4.419   5.380   1.886
 6776TIP3   OH220272   4.100   2.734   0.709
 6776TIP3    H120273   4.129   2.769   0.624
 6776TIP3    H220274   4.014   2.697   0.691
 6777TIP3   OH220275   2.138   7.727   3.605
 6777TIP3    H120276   2.177   7.813   3.596
 6777TIP3    H220277   2.046   7.740   3.581
 6778TIP3   OH220278   5.861   6.989   1.880
 6778TIP3    H120279   5.768   7.013   1.881
 6778TIP3    H220280   5.890   7.011   1.791
 6779TIP3   OH220281   1.321   5.810   5.782
 6779TIP3    H120282   1.306   5.894   5.738
 6779TIP3    H220283   1.248   5.755   5.753
 6780TIP3   OH220284   0.862   1.314   3.331
 6780TIP3    H120285   0.811   1.257   3.274
 6780TIP3    H220286   0.953   1.292   3.312
 6781TIP3   OH220287   3.932   6.906   2.835
 6781TIP3    H120288   3.895   6.822   2.806
 6781TIP3    H220289   3.855   6.962   2.846
 6782TIP3   OH220290   5.469   6.136   0.075
 6782TIP3    H120291   5.449   6.200   0.143
 6782TIP3    H220292   5.546   6.089   0.109
 6783TIP3   OH220293   5.101   0.932   4.803
 6783TIP3    H120294   5.023   0.908   4.854
 6783TIP3    H220295   5.067   0.950   4.715
 6784TIP3   OH220296   6.435   5.636   2.009
 6784TIP3    H120297   6.513   5.686   1.983
 6784TIP3    H220298   6.402   5.680   2.087
 6785TIP3   OH220299   7.137   3.654   4.163
 6785TIP3    H120300   7.164   3.672   4.253
 6785TIP3    H220301   7.083   3.729   4.138
 6786TIP3   OH220302   8.086   0.285   4.237
 6786TIP3    H120303   8.177   0.296   4.207
 6786TIP3    H220304   8.033   0.295   4.158
 6787TIP3   OH220305   6.450   1.147   4.922
 6787TIP3    H120306   6.502   1.192   4.855
 6787TIP3    H220307   6.368   1.197   4.925
 6788TIP3   OH220308   3.978   0.477   5.691
 6788TIP3    H120309   3.940   0.453   5.607
 6788TIP3    H220310   3.922   0.433   5.756
 6789TIP3   OH220311   2.297   7.322   0.715
 6789TIP3    H120312   2.238   7.395   0.695
 6789TIP3    H220313   2.239   7.245   0.718
 6790TIP3   OH220314   7.595   4.089   2.947
 6790TIP3    H120315   7.598   4.012   2.890
 6790TIP3    H220316   7.566   4.054   3.032
 6791TIP3   OH220317   3.718   7.653   6.658
 6791TIP3    H120318   3.643   7.626   6.605
 6791TIP3    H220319   3.747   7.572   6.701
 6792TIP3   OH220320   3.364   5.681   1.516
 6792TIP3    H120321   3.415   5.635   1.449
 6792TIP3    H220322   3.283   5.630   1.523
 6793TIP3   OH220323   1.737   2.714   3.729
 6793TIP3    H120324   1.683   2.785   3.763
 6793TIP3    H220325   1.776   2.749   3.649
 6794TIP3   OH220326   4.328   1.411   3.635
 6794TIP3    H120327   4.245   1.455   3.655
 6794TIP3    H220328   4.376   1.413   3.718
 6795TIP3   OH220329   2.767   3.851   0.285
 6795TIP3    H120330   2.737   3.805   0.207
 6795TIP3    H220331   2.737   3.797   0.358
 6796TIP3   OH220332   0.208   4.088   1.931
 6796TIP3    H120333   0.130   4.100   1.875
 6796TIP3    H220334   0.267   4.158   1.904
 6797TIP3   OH220335   1.591   0.471   0.657
 6797TIP3    H120336   1.676   0.430   0.670
 6797TIP3    H220337   1.574   0.459   0.563
 6798TIP3   OH220338   1.377   0.104   3.892
 6798TIP3    H120339   1.467   0.134   3.885
 6798TIP3    H220340   1.336   0.131   3.809
 6799TIP3   OH220341   8.238   4.334   0.125
 6799TIP3    H120342   8.269   4.327   0.215
 6799TIP3    H220343   8.245   4.246   0.090
 6800TIP3   OH220344   8.220   3.598   2.072
 6800TIP3    H120345   8.128   3.573   2.072
 6800TIP3    H220346   8.255   3.559   1.992
 6801TIP3   OH220347   4.771   7.116   1.753
 6801TIP3    H120348   4.718   7.195   1.750
 6801TIP3    H220349   4.739   7.063   1.680
 6802TIP3   OH220350   1.767   5.976   6.025
 6802TIP3    H120351   1.749   5.945   5.937
 6802TIP3    H220352   1.793   5.897   6.073
 6803TIP3   OH220353   5.910   2.611   6.332
 6803TIP3    H120354   5.945   2.581   6.248
 6803TIP3    H220355   5.961   2.689   6.353
 6804TIP3   OH220356   5.651   7.245   5.249
 6804TIP3    H120357   5.584   7.180   5.229
 6804TIP3    H220358   5.625   7.282   5.333
 6805TIP3   OH220359   4.710   0.513   1.444
 6805TIP3    H120360   4.799   0.482   1.462
 6805TIP3    H220361   4.658   0.480   1.518
 6806TIP3   OH220362   2.248   0.667   5.725
 6806TIP3    H120363   2.178   0.605   5.707
 6806TIP3    H220364   2.207   0.735   5.777
 6807TIP3   OH220365   0.465   6.389   3.854
 6807TIP3    H120366   0.469   6.399   3.949
 6807TIP3    H220367   0.415   6.465   3.824
 6808TIP3   OH220368   5.259   3.983   6.396
 6808TIP3    H120369   5.215   3.898   6.396
 6808TIP3    H220370   5.261   4.009   6.489
 6809TIP3   OH220371   2.915   6.793   2.207
 6809TIP3    H120372   2.950   6.852   2.273
 6809TIP3    H220373   2.963   6.815   2.127
 6810TIP3   OH220374   4.191   2.795   4.195
 6810TIP3    H120375   4.132   2.759   4.261
 6810TIP3    H220376   4.242   2.860   4.241
 6811TIP3   OH220377   1.243   5.526   0.539
 6811TIP3    H120378   1.287   5.607   0.514
 6811TIP3    H220379   1.290   5.496   0.617
 6812TIP3   OH220380   7.655   0.131   3.899
 6812TIP3    H120381   7.562   0.137   3.922
 6812TIP3    H220382   7.663   0.044   3.860
 6813TIP3   OH220383   2.797   0.450   1.725
 6813TIP3    H120384   2.759   0.376   1.678
 6813TIP3    H220385   2.789   0.427   1.818
 6814TIP3   OH220386   0.146   6.915   4.768
 6814TIP3    H120387   0.112   6.945   4.684
 6814TIP3    H220388   0.100   6.833   4.785
 6815TIP3   OH220389   2.316   0.719   3.114
 6815TIP3    H120390   2.393   0.753   3.068
 6815TIP3    H220391   2.282   0.794   3.163
 6816TIP3   OH220392   3.146   5.687   1.919
 6816TIP3    H120393   3.148   5.603   1.874
 6816TIP3    H220394   3.225   5.688   1.973
 6817TIP3   OH220395   3.028   5.262   4.161
 6817TIP3    H120396   3.020   5.355   4.143
 6817TIP3    H220397   2.998   5.251   4.251
 6818TIP3   OH220398   5.852   3.165   3.930
 6818TIP3    H120399   5.924   3.133   3.875
 6818TIP3    H220400   5.857   3.111   4.009
 6819TIP3   OH220401   5.252   3.621   3.049
 6819TIP3    H120402   5.197   3.699   3.060
 6819TIP3    H220403   5.204   3.567   2.987
 6820TIP3   OH220404   7.048   6.234   3.254
 6820TIP3    H120405   6.963   6.227   3.209
 6820TIP3    H220406   7.111   6.195   3.193
 6821TIP3   OH220407   0.235   4.602   6.356
 6821TIP3    H120408   0.212   4.651   6.277
 6821TIP3    H220409   0.313   4.647   6.390
 6822TIP3   OH220410   5.214   3.503   2.757
 6822TIP3    H120411   5.186   3.475   2.844
 6822TIP3    H220412   5.141   3.481   2.699
 6823TIP3   OH220413   1.370   4.311   1.339
 6823TIP3    H120414   1.336   4.222   1.343
 6823TIP3    H220415   1.293   4.367   1.331
 6824TIP3   OH220416   7.663   6.955   1.310
 6824TIP3    H120417   7.757   6.958   1.292
 6824TIP3    H220418   7.637   6.865   1.287
 6825TIP3   OH220419   1.973   4.192   1.201
 6825TIP3    H120420   1.891   4.226   1.237
 6825TIP3    H220421   2.014   4.268   1.159
 6826TIP3   OH220422   0.335   1.462   0.801
 6826TIP3    H120423   0.411   1.492   0.850
 6826TIP3    H220424   0.289   1.404   0.862
 6827TIP3   OH220425   5.719   6.275   2.235
 6827TIP3    H120426   5.663   6.351   2.250
 6827TIP3    H220427   5.701   6.251   2.144
 6828TIP3   OH220428   5.460   4.319   5.707
 6828TIP3    H120429   5.536   4.362   5.747
 6828TIP3    H220430   5.455   4.234   5.750
 6829TIP3   OH220431   1.180   0.849   0.065
 6829TIP3    H120432   1.104   0.875   0.013
 6829TIP3    H220433   1.256   0.879   0.015
 6830TIP3   OH220434   2.626   0.379   2.984
 6830TIP3    H120435   2.563   0.363   2.913
 6830TIP3    H220436   2.571   0.397   3.060
 6831TIP3   OH220437   3.809   4.151   3.361
 6831TIP3    H120438   3.753   4.198   3.422
 6831TIP3    H220439   3.748   4.098   3.309
 6832TIP3   OH220440   0.443   0.027   3.931
 6832TIP3    H120441   0.420   0.046   3.840
 6832TIP3    H220442   0.481   0.109   3.964
 6833TIP3   OH220443   2.833   3.218   1.142
 6833TIP3    H120444   2.753   3.169   1.121
 6833TIP3    H220445   2.896   3.150   1.166
 6834TIP3   OH220446   3.356   0.945   4.367
 6834TIP3    H120447   3.311   1.000   4.432
 6834TIP3    H220448   3.374   0.863   4.413
 6835TIP3   OH220449   5.859   1.498   4.022
 6835TIP3    H120450   5.793   1.439   3.986
 6835TIP3    H220451   5.925   1.504   3.953
 6836TIP3   OH220452   6.875   3.441   6.457
 6836TIP3    H120453   6.829   3.525   6.465
 6836TIP3    H220454   6.952   3.450   6.514
 6837TIP3   OH220455   4.507   5.994   1.237
 6837TIP3    H120456   4.600   5.992   1.258
 6837TIP3    H220457   4.495   5.925   1.171
 6838TIP3   OH220458   5.464   5.026   4.038
 6838TIP3    H120459   5.548   4.985   4.021
 6838TIP3    H220460   5.456   5.028   4.134
 6839TIP3   OH220461   1.410   1.628   2.948
 6839TIP3    H120462   1.463   1.550   2.930
 6839TIP3    H220463   1.372   1.652   2.863
 6840TIP3   OH220464   4.995   1.455   1.893
 6840TIP3    H120465   5.059   1.509   1.846
 6840TIP3    H220466   4.919   1.513   1.905
 6841TIP3   OH220467   1.848   4.302   4.101
 6841TIP3    H120468   1.932   4.296   4.147
 6841TIP3    H220469   1.812   4.386   4.131
 6842TIP3   OH220470   3.381   0.969   3.532
 6842TIP3    H120471   3.364   1.050   3.485
 6842TIP3    H220472   3.306   0.957   3.590
 6843TIP3   OH220473   2.383   4.794   3.234
 6843TIP3    H120474   2.441   4.776   3.309
 6843TIP3    H220475   2.434   4.853   3.179
 6844TIP3   OH220476   7.230   2.254   1.178
 6844TIP3    H120477   7.222   2.320   1.109
 6844TIP3    H220478   7.161   2.276   1.240
 6845TIP3   OH220479   3.151   7.789   1.413
 6845TIP3    H120480   3.227   7.800   1.355
 6845TIP3    H220481   3.084   7.847   1.377
 6846TIP3   OH220482   1.638   3.739   0.886
 6846TIP3    H120483   1.599   3.781   0.809
 6846TIP3    H220484   1.697   3.806   0.921
 6847TIP3   OH220485   2.259   6.656   4.712
 6847TIP3    H120486   2.204   6.613   4.647
 6847TIP3    H220487   2.348   6.641   4.682
 6848TIP3   OH220488   0.072   6.701   1.430
 6848TIP3    H120489   0.011   6.698   1.504
 6848TIP3    H220490   0.112   6.614   1.429
 6849TIP3   OH220491   0.161   3.444   6.683
 6849TIP3    H120492   0.238   3.429   6.739
 6849TIP3    H220493   0.138   3.357   6.650
 6850TIP3   OH220494   8.025   7.031   5.295
 6850TIP3    H120495   8.033   6.936   5.292
 6850TIP3    H220496   7.987   7.050   5.381
 6851TIP3   OH220497   6.594   5.272   2.486
 6851TIP3    H120498   6.632   5.321   2.559
 6851TIP3    H220499   6.538   5.336   2.441
 6852TIP3   OH220500   4.815   4.245   6.282
 6852TIP3    H120501   4.737   4.253   6.226
 6852TIP3    H220502   4.883   4.294   6.236
 6853TIP3   OH220503   1.163   5.566   3.502
 6853TIP3    H120504   1.126   5.649   3.470
 6853TIP3    H220505   1.194   5.586   3.590
 6854TIP3   OH220506   7.505   7.292   4.782
 6854TIP3    H120507   7.452   7.230   4.832
 6854TIP3    H220508   7.595   7.269   4.803
 6855TIP3   OH220509   3.449   2.674   0.694
 6855TIP3    H120510   3.526   2.720   0.662
 6855TIP3    H220511   3.474   2.582   0.696
 6856TIP3   OH220512   1.601   7.624   4.537
 6856TIP3    H120513   1.666   7.628   4.467
 6856TIP3    H220514   1.650   7.595   4.614
 6857TIP3   OH220515   3.080   7.439   3.316
 6857TIP3    H120516   3.147   7.376   3.292
 6857TIP3    H220517   3.043   7.468   3.232
 6858TIP3   OH220518   5.442   7.471   6.101
 6858TIP3    H120519   5.394   7.402   6.055
 6858TIP3    H220520   5.384   7.496   6.173
 6859TIP3   OH220521   1.550   1.608   2.677
 6859TIP3    H120522   1.502   1.679   2.633
 6859TIP3    H220523   1.605   1.653   2.741
 6860TIP3   OH220524   8.230   1.051   3.735
 6860TIP3    H120525   8.293   1.081   3.670
 6860TIP3    H220526   8.155   1.110   3.725
 6861TIP3   OH220527   3.334   6.749   6.399
 6861TIP3    H120528   3.313   6.768   6.491
 6861TIP3    H220529   3.430   6.755   6.395
 6862TIP3   OH220530   2.425   5.008   2.422
 6862TIP3    H120531   2.515   5.006   2.454
 6862TIP3    H220532   2.375   4.958   2.486
 6863TIP3   OH220533   6.200   3.440   5.813
 6863TIP3    H120534   6.113   3.470   5.787
 6863TIP3    H220535   6.184   3.373   5.880
 6864TIP3   OH220536   7.632   1.518   3.603
 6864TIP3    H120537   7.636   1.560   3.689
 6864TIP3    H220538   7.614   1.426   3.622
 6865TIP3   OH220539   7.906   2.679   2.029
 6865TIP3    H120540   7.861   2.604   1.991
 6865TIP3    H220541   7.879   2.754   1.977
 6866TIP3   OH220542   3.239   1.630  -0.008
 6866TIP3    H120543   3.172   1.572   0.028
 6866TIP3    H220544   3.303   1.638   0.062
 6867TIP3   OH220545   3.911   4.783   3.124
 6867TIP3    H120546   3.951   4.816   3.205
 6867TIP3    H220547   3.966   4.708   3.100
 6868TIP3   OH220548   1.031   1.059   3.046
 6868TIP3    H120549   0.955   1.013   3.082
 6868TIP3    H220550   1.105   1.002   3.066
 6869TIP3   OH220551   5.827   2.302   2.274
 6869TIP3    H120552   5.896   2.311   2.339
 6869TIP3    H220553   5.796   2.212   2.284
 6870TIP3   OH220554   7.029   2.427   2.945
 6870TIP3    H120555   7.060   2.340   2.921
 6870TIP3    H220556   6.956   2.444   2.885
 6871TIP3   OH220557   6.273   2.780   3.275
 6871TIP3    H120558   6.298   2.829   3.352
 6871TIP3    H220559   6.207   2.835   3.232
 6872TIP3   OH220560   7.127   2.445   5.646
 6872TIP3    H120561   7.218   2.469   5.627
 6872TIP3    H220562   7.103   2.383   5.577
 6873TIP3   OH220563   2.365   7.241   3.695
 6873TIP3    H120564   2.394   7.171   3.753
 6873TIP3    H220565   2.329   7.308   3.753
 6874TIP3   OH220566   6.775   7.368   2.340
 6874TIP3    H120567   6.859   7.337   2.305
 6874TIP3    H220568   6.763   7.318   2.421
 6875TIP3   OH220569   6.696   7.524   5.740
 6875TIP3    H120570   6.668   7.534   5.831
 6875TIP3    H220571   6.774   7.470   5.745
 6876TIP3   OH220572   1.555   4.540   4.924
 6876TIP3    H120573   1.601   4.471   4.876
 6876TIP3    H220574   1.555   4.615   4.865
 6877TIP3   OH220575   4.886   3.875   2.679
 6877TIP3    H120576   4.928   3.815   2.618
 6877TIP3    H220577   4.795   3.879   2.649
 6878TIP3   OH220578   6.338   2.432   3.559
 6878TIP3    H120579   6.323   2.350   3.605
 6878TIP3    H220580   6.265   2.488   3.586
 6879TIP3   OH220581   7.142   7.244   4.119
 6879TIP3    H120582   7.136   7.251   4.214
 6879TIP3    H220583   7.077   7.177   4.096
 6880TIP3   OH220584   7.954   6.729   0.157
 6880TIP3    H120585   7.874   6.754   0.203
 6880TIP3    H220586   7.926   6.664   0.092
 6881TIP3   OH220587   6.645   7.161   3.297
 6881TIP3    H120588   6.600   7.185   3.378
 6881TIP3    H220589   6.578   7.113   3.246
 6882TIP3   OH220590   3.594   0.214   6.372
 6882TIP3    H120591   3.545   0.149   6.322
 6882TIP3    H220592   3.626   0.275   6.305
 6883TIP3   OH220593   6.536   5.235   1.187
 6883TIP3    H120594   6.631   5.239   1.176
 6883TIP3    H220595   6.501   5.280   1.109
 6884TIP3   OH220596   3.670   1.330   2.648
 6884TIP3    H120597   3.637   1.243   2.673
 6884TIP3    H220598   3.597   1.369   2.600
 6885TIP3   OH220599   3.341   2.524   2.820
 6885TIP3    H120600   3.387   2.600   2.855
 6885TIP3    H220601   3.326   2.545   2.728
 6886TIP3   OH220602   0.119   2.192   2.367
 6886TIP3    H120603   0.125   2.147   2.283
 6886TIP3    H220604   0.087   2.124   2.428
 6887TIP3   OH220605   2.092   3.726   0.929
 6887TIP3    H120606   2.028   3.670   0.974
 6887TIP3    H220607   2.073   3.814   0.961
 6888TIP3   OH220608   3.053   3.579   3.963
 6888TIP3    H120609   3.047   3.531   4.046
 6888TIP3    H220610   3.108   3.525   3.907
 6889TIP3   OH220611   1.221   7.186   0.461
 6889TIP3    H120612   1.236   7.247   0.533
 6889TIP3    H220613   1.282   7.214   0.393
 6890TIP3   OH220614   6.312   2.334   0.714
 6890TIP3    H120615   6.400   2.339   0.753
 6890TIP3    H220616   6.276   2.422   0.725
 6891TIP3   OH220617   1.696   2.154   6.479
 6891TIP3    H120618   1.711   2.241   6.516
 6891TIP3    H220619   1.762   2.099   6.521
 6892TIP3   OH220620   2.868   4.197   5.994
 6892TIP3    H120621   2.843   4.110   5.964
 6892TIP3    H220622   2.787   4.235   6.028
 6893TIP3   OH220623   5.495   1.185   1.514
 6893TIP3    H120624   5.443   1.265   1.513
 6893TIP3    H220625   5.443   1.122   1.562
 6894TIP3   OH220626   7.524   1.659   2.596
 6894TIP3    H120627   7.602   1.604   2.600
 6894TIP3    H220628   7.550   1.741   2.640
 6895TIP3   OH220629   0.903   4.964   4.158
 6895TIP3    H120630   0.935   5.000   4.075
 6895TIP3    H220631   0.878   5.041   4.210
 6896TIP3   OH220632   5.935   5.475   5.423
 6896TIP3    H120633   5.856   5.526   5.440
 6896TIP3    H220634   5.937   5.410   5.494
 6897TIP3   OH220635   8.027   0.154   1.115
 6897TIP3    H120636   7.942   0.172   1.157
 6897TIP3    H220637   8.084   0.224   1.147
 6898TIP3   OH220638   4.209   3.985   4.949
 6898TIP3    H120639   4.179   3.896   4.931
 6898TIP3    H220640   4.304   3.977   4.960
 6899TIP3   OH220641   1.766   4.268   0.356
 6899TIP3    H120642   1.762   4.277   0.261
 6899TIP3    H220643   1.698   4.204   0.378
 6900TIP3   OH220644   7.690   2.218   2.380
 6900TIP3    H120645   7.646   2.136   2.356
 6900TIP3    H220646   7.650   2.284   2.323
 6901TIP3   OH220647   8.232   4.236   4.033
 6901TIP3    H120648   8.303   4.208   4.090
 6901TIP3    H220649   8.188   4.155   4.008
 6902TIP3   OH220650   2.204   0.844   4.878
 6902TIP3    H120651   2.292   0.880   4.889
 6902TIP3    H220652   2.161   0.859   4.962
 6903TIP3   OH220653   6.380   3.482   5.568
 6903TIP3    H120654   6.337   3.429   5.636
 6903TIP3    H220655   6.440   3.422   5.525
 6904TIP3   OH220656   1.818   3.630   6.307
 6904TIP3    H120657   1.777   3.615   6.392
 6904TIP3    H220658   1.754   3.598   6.243
 6905TIP3   OH220659   2.994   6.632   0.807
 6905TIP3    H120660   3.004   6.539   0.823
 6905TIP3    H220661   2.903   6.642   0.779
 6906TIP3   OH220662   3.506   5.825   5.384
 6906TIP3    H120663   3.494   5.796   5.474
 6906TIP3    H220664   3.481   5.750   5.330
 6907TIP3   OH220665   3.892   0.745   4.762
 6907TIP3    H120666   3.965   0.782   4.712
 6907TIP3    H220667   3.917   0.654   4.776
 6908TIP3   OH220668   6.676   4.931   4.154
 6908TIP3    H120669   6.701   4.980   4.076
 6908TIP3    H220670   6.750   4.942   4.214
 6909TIP3   OH220671   0.014   3.572   0.129
 6909TIP3    H120672  -0.050   3.511   0.091
 6909TIP3    H220673   0.090   3.517   0.147
 6910TIP3   OH220674   4.276   1.407   6.252
 6910TIP3    H120675   4.292   1.470   6.321
 6910TIP3    H220676   4.222   1.339   6.293
 6911TIP3   OH220677   6.850   4.566   1.537
 6911TIP3    H120678   6.882   4.632   1.476
 6911TIP3    H220679   6.856   4.607   1.623
 6912TIP3   OH220680   7.569   0.172   2.594
 6912TIP3    H120681   7.513   0.128   2.658
 6912TIP3    H220682   7.509   0.223   2.540
 6913TIP3   OH220683   0.462   2.456   5.363
 6913TIP3    H120684   0.394   2.413   5.415
 6913TIP3    H220685   0.414   2.508   5.298
 6914TIP3   OH220686   4.958   5.473   6.611
 6914TIP3    H120687   4.879   5.525   6.596
 6914TIP3    H220688   5.024   5.515   6.556
 6915TIP3   OH220689   1.473   3.723   5.631
 6915TIP3    H120690   1.532   3.769   5.690
 6915TIP3    H220691   1.419   3.791   5.592
 6916TIP3   OH220692   3.618   6.084   2.267
 6916TIP3    H120693   3.611   6.092   2.172
 6916TIP3    H220694   3.711   6.070   2.284
 6917TIP3   OH220695   0.938   0.596   4.278
 6917TIP3    H120696   0.974   0.508   4.284
 6917TIP3    H220697   0.989   0.647   4.342
 6918TIP3   OH220698   2.016   7.833   3.341
 6918TIP3    H120699   1.967   7.829   3.259
 6918TIP3    H220700   2.008   7.745   3.378
 6919TIP3   OH220701   4.681   7.018   6.264
 6919TIP3    H120702   4.619   6.995   6.195
 6919TIP3    H220703   4.696   6.936   6.311
 6920TIP3   OH220704   1.745   4.541   6.532
 6920TIP3    H120705   1.650   4.530   6.522
 6920TIP3    H220706   1.754   4.611   6.597
 6921TIP3   OH220707   3.909   5.663   2.976
 6921TIP3    H120708   3.835   5.718   3.003
 6921TIP3    H220709   3.903   5.585   3.032
 6922TIP3   OH220710   2.320   1.244   6.214
 6922TIP3    H120711   2.405   1.203   6.201
 6922TIP3    H220712   2.263   1.173   6.243
 6923TIP3   OH220713   2.210   4.286   3.183
 6923TIP3    H120714   2.190   4.338   3.105
 6923TIP3    H220715   2.137   4.225   3.191
 6924TIP3   OH220716   1.025   1.928   4.444
 6924TIP3    H120717   1.070   1.900   4.523
 6924TIP3    H220718   0.960   1.859   4.428
 6925TIP3   OH220719   2.071   1.410   1.572
 6925TIP3    H120720   2.131   1.385   1.502
 6925TIP3    H220721   2.001   1.458   1.528
 6926TIP3   OH220722   0.183   3.352   3.420
 6926TIP3    H120723   0.254   3.416   3.421
 6926TIP3    H220724   0.111   3.396   3.375
 6927TIP3   OH220725   2.574   2.079   0.162
 6927TIP3    H120726   2.511   2.107   0.228
 6927TIP3    H220727   2.624   2.158   0.140
 6928TIP3   OH220728   1.793   4.068   4.386
 6928TIP3    H120729   1.865   4.006   4.391
 6928TIP3    H220730   1.731   4.029   4.325
 6929TIP3   OH220731   3.848   3.133   2.924
 6929TIP3    H120732   3.819   3.062   2.980
 6929TIP3    H220733   3.851   3.210   2.982
 6930TIP3   OH220734   6.103   7.000   2.842
 6930TIP3    H120735   6.024   7.021   2.791
 6930TIP3    H220736   6.093   6.908   2.864
 6931TIP3   OH220737   8.152   5.342   5.853
 6931TIP3    H120738   8.202   5.289   5.915
 6931TIP3    H220739   8.197   5.327   5.769
 6932TIP3   OH220740   0.474   2.664   1.712
 6932TIP3    H120741   0.552   2.634   1.665
 6932TIP3    H220742   0.502   2.666   1.804
 6933TIP3   OH220743   5.295   1.982   5.208
 6933TIP3    H120744   5.355   2.056   5.203
 6933TIP3    H220745   5.300   1.953   5.299
 6934TIP3   OH220746   0.028   4.005   1.720
 6934TIP3    H120747   0.093   3.937   1.741
 6934TIP3    H220748  -0.056   3.966   1.747
 6935TIP3   OH220749   2.617   5.229   0.950
 6935TIP3    H120750   2.647   5.320   0.951
 6935TIP3    H220751   2.603   5.208   1.042
 6936TIP3   OH220752   0.772   3.105   4.281
 6936TIP3    H120753   0.726   3.101   4.197
 6936TIP3    H220754   0.830   3.180   4.272
 6937TIP3   OH220755   1.434   4.705   6.318
 6937TIP3    H120756   1.365   4.732   6.378
 6937TIP3    H220757   1.420   4.759   6.240
 6938TIP3   OH220758   3.595   4.732   5.565
 6938TIP3    H120759   3.577   4.659   5.624
 6938TIP3    H220760   3.661   4.783   5.611
 6939TIP3   OH220761   2.131   5.513   0.046
 6939TIP3    H120762   2.186   5.440   0.018
 6939TIP3    H220763   2.193   5.578   0.080
 6940TIP3   OH220764   0.274   7.778   5.601
 6940TIP3    H120765   0.226   7.839   5.658
 6940TIP3    H220766   0.233   7.693   5.617
 6941TIP3   OH220767   2.367   4.536   4.682
 6941TIP3    H120768   2.408   4.461   4.725
 6941TIP3    H220769   2.276   4.535   4.712
 6942TIP3   OH220770   3.104   1.469   4.992
 6942TIP3    H120771   3.186   1.491   4.949
 6942TIP3    H220772   3.037   1.518   4.944
 6943TIP3   OH220773   2.278   6.028   5.370
 6943TIP3    H120774   2.370   6.016   5.346
 6943TIP3    H220775   2.275   6.012   5.464
 6944TIP3   OH220776   7.064   2.500   4.752
 6944TIP3    H120777   7.132   2.451   4.706
 6944TIP3    H220778   6.998   2.434   4.774
 6945TIP3   OH220779   0.479   4.851   6.074
 6945TIP3    H120780   0.411   4.884   6.132
 6945TIP3    H220781   0.526   4.786   6.126
 6946TIP3   OH220782   6.109   4.918   4.383
 6946TIP3    H120783   6.083   4.960   4.465
 6946TIP3    H220784   6.203   4.902   4.394
 6947TIP3   OH220785   3.233   6.260   3.350
 6947TIP3    H120786   3.284   6.217   3.419
 6947TIP3    H220787   3.177   6.322   3.397
 6948TIP3   OH220788   7.217   3.700   4.414
 6948TIP3    H120789   7.258   3.774   4.460
 6948TIP3    H220790   7.244   3.623   4.464
 6949TIP3   OH220791   4.001   1.046   1.960
 6949TIP3    H120792   4.015   1.116   1.896
 6949TIP3    H220793   3.941   0.985   1.916
 6950TIP3   OH220794   2.751   0.202   6.582
 6950TIP3    H120795   2.660   0.178   6.567
 6950TIP3    H220796   2.770   0.268   6.515
 6951TIP3   OH220797   8.089   7.455   3.180
 6951TIP3    H120798   8.078   7.362   3.201
 6951TIP3    H220799   8.099   7.457   3.085
 6952TIP3   OH220800   7.563   3.200   2.900
 6952TIP3    H120801   7.487   3.142   2.891
 6952TIP3    H220802   7.533   3.284   2.865
 6953TIP3   OH220803   1.137   5.815   2.435
 6953TIP3    H120804   1.147   5.851   2.523
 6953TIP3    H220805   1.115   5.890   2.381
 6954TIP3   OH220806   1.479   5.660   2.884
 6954TIP3    H120807   1.568   5.673   2.853
 6954TIP3    H220808   1.462   5.735   2.941
 6955TIP3   OH220809   7.480   3.513   5.953
 6955TIP3    H120810   7.466   3.506   5.858
 6955TIP3    H220811   7.521   3.598   5.965
 6956TIP3   OH220812   5.454   3.527   1.454
 6956TIP3    H120813   5.364   3.496   1.448
 6956TIP3    H220814   5.500   3.481   1.384
 6957TIP3   OH220815   6.355   3.397   0.106
 6957TIP3    H120816   6.289   3.415   0.174
 6957TIP3    H220817   6.327   3.449   0.031
 6958TIP3   OH220818   0.780   0.425   2.638
 6958TIP3    H120819   0.830   0.476   2.574
 6958TIP3    H220820   0.834   0.428   2.717
 6959TIP3   OH220821   2.180   3.022   5.843
 6959TIP3    H120822   2.198   3.093   5.904
 6959TIP3    H220823   2.159   2.947   5.898
 6960TIP3   OH220824   8.090   3.821   3.603
 6960TIP3    H120825   8.014   3.770   3.631
 6960TIP3    H220826   8.155   3.807   3.672
 6961TIP3   OH220827   0.876   5.670   3.218
 6961TIP3    H120828   0.937   5.670   3.292
 6961TIP3    H220829   0.930   5.648   3.142
 6962TIP3   OH220830   5.060   1.013   6.386
 6962TIP3    H120831   5.046   0.968   6.470
 6962TIP3    H220832   5.044   0.946   6.320
 6963TIP3   OH220833   5.579   2.319   3.604
 6963TIP3    H120834   5.607   2.386   3.542
 6963TIP3    H220835   5.633   2.333   3.681
 6964TIP3   OH220836   0.732   5.694   2.943
 6964TIP3    H120837   0.714   5.656   3.028
 6964TIP3    H220838   0.764   5.782   2.962
 6965TIP3   OH220839   4.419   0.193   5.648
 6965TIP3    H120840   4.401   0.287   5.643
 6965TIP3    H220841   4.332   0.152   5.656
 6966TIP3   OH220842   4.611   4.102   4.060
 6966TIP3    H120843   4.597   4.039   4.131
 6966TIP3    H220844   4.530   4.152   4.056
 6967TIP3   OH220845   1.572   3.091   3.412
 6967TIP3    H120846   1.642   3.131   3.360
 6967TIP3    H220847   1.492   3.136   3.383
 6968TIP3   OH220848   4.934   4.042   4.961
 6968TIP3    H120849   5.011   4.080   4.917
 6968TIP3    H220850   4.871   4.028   4.891
 6969TIP3   OH220851   0.398   2.887   0.809
 6969TIP3    H120852   0.448   2.832   0.749
 6969TIP3    H220853   0.341   2.826   0.856
 6970TIP3   OH220854   6.495   5.952   4.989
 6970TIP3    H120855   6.541   5.958   4.905
 6970TIP3    H220856   6.452   6.037   4.999
 6971TIP3   OH220857   7.781   6.127   5.546
 6971TIP3    H120858   7.725   6.201   5.570
 6971TIP3    H220859   7.865   6.146   5.587
 6972TIP3   OH220860   1.666   5.742   0.704
 6972TIP3    H120861   1.595   5.799   0.731
 6972TIP3    H220862   1.719   5.796   0.645
 6973TIP3   OH220863   2.149   1.506   1.927
 6973TIP3    H120864   2.125   1.497   2.019
 6973TIP3    H220865   2.201   1.429   1.907
 6974TIP3   OH220866   6.962   4.234   1.733
 6974TIP3    H120867   6.986   4.190   1.814
 6974TIP3    H220868   6.922   4.164   1.680
 6975TIP3   OH220869   0.231   0.866   2.763
 6975TIP3    H120870   0.250   0.956   2.737
 6975TIP3    H220871   0.315   0.832   2.793
 6976TIP3   OH220872   0.079   7.748   2.540
 6976TIP3    H120873   0.059   7.715   2.627
 6976TIP3    H220874   0.115   7.835   2.555
 6977TIP3   OH220875   8.152   0.596   5.359
 6977TIP3    H120876   8.167   0.583   5.453
 6977TIP3    H220877   8.234   0.633   5.327
 6978TIP3   OH220878   4.404   6.738   0.496
 6978TIP3    H120879   4.479   6.725   0.437
 6978TIP3    H220880   4.336   6.681   0.461
 6979TIP3   OH220881   5.044   0.827   2.276
 6979TIP3    H120882   4.980   0.788   2.216
 6979TIP3    H220883   5.083   0.753   2.321
 6980TIP3   OH220884   2.515   3.053   3.400
 6980TIP3    H120885   2.473   3.115   3.459
 6980TIP3    H220886   2.476   3.070   3.314
 6981TIP3   OH220887   5.398   0.983   5.523
 6981TIP3    H120888   5.322   0.947   5.568
 6981TIP3    H220889   5.466   0.989   5.590
 6982TIP3   OH220890   5.359   0.515   2.130
 6982TIP3    H120891   5.274   0.557   2.137
 6982TIP3    H220892   5.358   0.446   2.197
 6983TIP3   OH220893   0.997   3.316   0.671
 6983TIP3    H120894   1.059   3.292   0.740
 6983TIP3    H220895   1.049   3.366   0.609
 6984TIP3   OH220896   5.708   4.055   4.678
 6984TIP3    H120897   5.644   4.002   4.724
 6984TIP3    H220898   5.679   4.052   4.586
 6985TIP3   OH220899   5.213   1.538   5.023
 6985TIP3    H120900   5.156   1.613   5.038
 6985TIP3    H220901   5.249   1.553   4.935
 6986TIP3   OH220902   6.943   0.113   5.829
 6986TIP3    H120903   7.033   0.127   5.800
 6986TIP3    H220904   6.943   0.139   5.921
 6987TIP3   OH220905   6.773   7.404   0.128
 6987TIP3    H120906   6.811   7.384   0.214
 6987TIP3    H220907   6.826   7.477   0.095
 6988TIP3   OH220908   3.919   1.724   0.380
 6988TIP3    H120909   3.895   1.631   0.378
 6988TIP3    H220910   3.976   1.732   0.456
 6989TIP3   OH220911   0.920   4.648   5.992
 6989TIP3    H120912   0.911   4.555   6.010
 6989TIP3    H220913   0.923   4.690   6.078
 6990TIP3   OH220914   7.432   3.435   2.877
 6990TIP3    H120915   7.359   3.405   2.931
 6990TIP3    H220916   7.412   3.527   2.857
 6991TIP3   OH220917   4.165   5.726   3.755
 6991TIP3    H120918   4.229   5.712   3.686
 6991TIP3    H220919   4.097   5.660   3.740
 6992TIP3   OH220920   5.982   0.137   0.328
 6992TIP3    H120921   5.957   0.048   0.302
 6992TIP3    H220922   6.074   0.144   0.303
 6993TIP3   OH220923   3.202   2.175   3.349
 6993TIP3    H120924   3.209   2.101   3.410
 6993TIP3    H220925   3.235   2.250   3.398
 6994TIP3   OH220926   3.565   5.429   3.961
 6994TIP3    H120927   3.482   5.448   3.918
 6994TIP3    H220928   3.543   5.421   4.054
 6995TIP3   OH220929   2.857   4.949   2.956
 6995TIP3    H120930   2.867   4.891   2.880
 6995TIP3    H220931   2.870   5.037   2.920
 6996TIP3   OH220932   5.826   7.031   5.742
 6996TIP3    H120933   5.780   7.061   5.664
 6996TIP3    H220934   5.878   6.956   5.712
 6997TIP3   OH220935   8.284   4.796   5.042
 6997TIP3    H120936   8.220   4.849   5.090
 6997TIP3    H220937   8.352   4.859   5.016
 6998TIP3   OH220938   2.756   2.438   3.180
 6998TIP3    H120939   2.791   2.405   3.097
 6998TIP3    H220940   2.747   2.532   3.166
 6999TIP3   OH220941   3.059   4.648   6.362
 6999TIP3    H120942   3.115   4.621   6.435
 6999TIP3    H220943   3.067   4.577   6.298
 7000TIP3   OH220944   5.108   7.222   4.389
 7000TIP3    H120945   5.155   7.234   4.472
 7000TIP3    H220946   5.017   7.241   4.411
 7001TIP3   OH220947   2.718   2.902   3.486
 7001TIP3    H120948   2.739   2.964   3.556
 7001TIP3    H220949   2.640   2.937   3.445
 7002TIP3   OH220950   2.023   2.731   5.514
 7002TIP3    H120951   2.100   2.686   5.550
 7002TIP3    H220952   1.999   2.795   5.581
 7003TIP3   OH220953   1.670   5.229   0.773
 7003TIP3    H120954   1.592   5.256   0.822
 7003TIP3    H220955   1.641   5.155   0.720
 7004TIP3   OH220956   7.515   0.209   1.188
 7004TIP3    H120957   7.525   0.118   1.215
 7004TIP3    H220958   7.445   0.243   1.244
 7005TIP3   OH220959   7.045   7.321   2.237
 7005TIP3    H120960   7.103   7.374   2.182
 7005TIP3    H220961   7.085   7.234   2.237
 7006TIP3   OH220962   3.299   3.305   5.739
 7006TIP3    H120963   3.330   3.214   5.740
 7006TIP3    H220964   3.369   3.354   5.782
 7007TIP3   OH220965   4.212   0.856   2.825
 7007TIP3    H120966   4.242   0.789   2.763
 7007TIP3    H220967   4.150   0.908   2.775
 7008TIP3   OH220968   1.054   0.773   6.485
 7008TIP3    H120969   0.998   0.734   6.552
 7008TIP3    H220970   1.042   0.868   6.496
 7009TIP3   OH220971   1.272   6.881   3.150
 7009TIP3    H120972   1.316   6.956   3.189
 7009TIP3    H220973   1.239   6.831   3.224
 7010TIP3   OH220974   0.864   4.769   3.874
 7010TIP3    H120975   0.817   4.841   3.833
 7010TIP3    H220976   0.797   4.719   3.921
 7011TIP3   OH220977   3.627   7.376   4.256
 7011TIP3    H120978   3.568   7.446   4.284
 7011TIP3    H220979   3.715   7.409   4.274
 7012TIP3   OH220980   1.962   3.015   2.346
 7012TIP3    H120981   2.013   3.066   2.409
 7012TIP3    H220982   1.961   3.069   2.266
 7013TIP3   OH220983   5.635   6.163   6.409
 7013TIP3    H120984   5.665   6.145   6.498
 7013TIP3    H220985   5.670   6.090   6.357
 7014TIP3   OH220986   3.812   6.283   0.314
 7014TIP3    H120987   3.842   6.374   0.310
 7014TIP3    H220988   3.768   6.269   0.230
 7015TIP3   OH220989   0.905   7.365   4.240
 7015TIP3    H120990   0.879   7.326   4.156
 7015TIP3    H220991   0.893   7.296   4.304
 7016TIP3   OH220992   6.790   0.398   4.346
 7016TIP3    H120993   6.785   0.334   4.417
 7016TIP3    H220994   6.814   0.480   4.388
 7017TIP3   OH220995   5.995   7.377   0.248
 7017TIP3    H120996   5.972   7.427   0.326
 7017TIP3    H220997   5.939   7.300   0.252
 7018TIP3   OH220998   7.320   1.653   2.117
 7018TIP3    H120999   7.273   1.735   2.136
 7018TIP3    H221000   7.382   1.644   2.190
 7019TIP3   OH221001   6.640   5.619   4.653
 7019TIP3    H121002   6.590   5.575   4.721
 7019TIP3    H221003   6.610   5.579   4.571
 7020TIP3   OH221004   0.515   3.330   2.044
 7020TIP3    H121005   0.531   3.382   1.965
 7020TIP3    H221006   0.593   3.344   2.099
 7021TIP3   OH221007   5.561   2.841   4.497
 7021TIP3    H121008   5.517   2.914   4.542
 7021TIP3    H221009   5.523   2.763   4.536
 7022TIP3   OH221010   0.673   4.999   1.799
 7022TIP3    H121011   0.758   5.043   1.805
 7022TIP3    H221012   0.639   5.023   1.713
 7023TIP3   OH221013   7.326   4.337   0.726
 7023TIP3    H121014   7.410   4.301   0.697
 7023TIP3    H221015   7.321   4.422   0.682
 7024TIP3   OH221016   1.743   4.237   0.085
 7024TIP3    H121017   1.659   4.263   0.047
 7024TIP3    H221018   1.806   4.299   0.047
 7025TIP3   OH221019   1.200   5.546   4.286
 7025TIP3    H121020   1.200   5.621   4.344
 7025TIP3    H221021   1.136   5.567   4.218
 7026TIP3   OH221022   2.896   2.807   2.584
 7026TIP3    H121023   2.957   2.733   2.589
 7026TIP3    H221024   2.834   2.781   2.516
 7027TIP3   OH221025   7.442   6.967   2.015
 7027TIP3    H121026   7.374   7.019   1.971
 7027TIP3    H221027   7.506   6.948   1.946
 7028TIP3   OH221028   2.831   1.035   1.830
 7028TIP3    H121029   2.926   1.032   1.841
 7028TIP3    H221030   2.817   1.001   1.741
 7029TIP3   OH221031   3.089   6.979   6.428
 7029TIP3    H121032   3.008   6.937   6.455
 7029TIP3    H221033   3.090   6.970   6.333
 7030TIP3   OH221034   6.483   7.412   0.579
 7030TIP3    H121035   6.536   7.336   0.557
 7030TIP3    H221036   6.516   7.481   0.521
 7031TIP3   OH221037   4.774   3.602   2.311
 7031TIP3    H121038   4.808   3.692   2.309
 7031TIP3    H221039   4.684   3.610   2.279
 7032TIP3   OH221040   1.553   0.001   4.838
 7032TIP3    H121041   1.598   0.068   4.889
 7032TIP3    H221042   1.521  -0.062   4.904
 7033TIP3   OH221043   1.054   4.584   4.473
 7033TIP3    H121044   1.003   4.641   4.415
 7033TIP3    H221045   0.988   4.537   4.524
 7034TIP3   OH221046   1.836   4.572   6.276
 7034TIP3    H121047   1.797   4.543   6.358
 7034TIP3    H221048   1.804   4.509   6.211
 7035TIP3   OH221049   4.372   2.300   3.291
 7035TIP3    H121050   4.444   2.330   3.347
 7035TIP3    H221051   4.374   2.204   3.299
 7036TIP3   OH221052   2.415   2.134   3.685
 7036TIP3    H121053   2.472   2.205   3.715
 7036TIP3    H221054   2.463   2.095   3.612
 7037TIP3   OH221055   6.583   2.573   0.180
 7037TIP3    H121056   6.677   2.589   0.187
 7037TIP3    H221057   6.577   2.491   0.131
 7038TIP3   OH221058   5.343   2.624   2.927
 7038TIP3    H121059   5.376   2.627   3.017
 7038TIP3    H221060   5.347   2.715   2.897
 7039TIP3   OH221061   5.723   0.148   4.317
 7039TIP3    H121062   5.688   0.169   4.230
 7039TIP3    H221063   5.817   0.136   4.302
 7040TIP3   OH221064   2.526   2.277   2.444
 7040TIP3    H121065   2.463   2.279   2.517
 7040TIP3    H221066   2.547   2.184   2.433
 7041TIP3   OH221067   6.316   1.563   3.112
 7041TIP3    H121068   6.286   1.514   3.188
 7041TIP3    H221069   6.354   1.497   3.054
 7042TIP3   OH221070   6.578   2.145   1.653
 7042TIP3    H121071   6.530   2.072   1.693
 7042TIP3    H221072   6.609   2.111   1.569
 7043TIP3   OH221073   0.260   6.820   2.416
 7043TIP3    H121074   0.316   6.811   2.339
 7043TIP3    H221075   0.233   6.730   2.437
 7044TIP3   OH221076   6.878   0.497   1.713
 7044TIP3    H121077   6.923   0.572   1.751
 7044TIP3    H221078   6.869   0.435   1.785
 7045TIP3   OH221079   6.181   3.420   0.983
 7045TIP3    H121080   6.169   3.327   1.000
 7045TIP3    H221081   6.165   3.462   1.067
 7046TIP3   OH221082   2.157   0.272   4.123
 7046TIP3    H121083   2.071   0.287   4.082
 7046TIP3    H221084   2.159   0.334   4.196
 7047TIP3   OH221085   5.745   1.459   0.407
 7047TIP3    H121086   5.719   1.374   0.443
 7047TIP3    H221087   5.724   1.522   0.476
 7048TIP3   OH221088   1.045   2.219   4.526
 7048TIP3    H121089   1.049   2.157   4.454
 7048TIP3    H221090   1.009   2.169   4.599
 7049TIP3   OH221091   3.777   7.724   1.961
 7049TIP3    H121092   3.841   7.787   1.929
 7049TIP3    H221093   3.802   7.709   2.052
 7050TIP3   OH221094   6.723   6.600   4.167
 7050TIP3    H121095   6.788   6.664   4.196
 7050TIP3    H221096   6.703   6.625   4.077
 7051TIP3   OH221097   7.163   5.184   3.031
 7051TIP3    H121098   7.132   5.093   3.026
 7051TIP3    H221099   7.183   5.208   2.940
 7052TIP3   OH221100   6.427   3.660   2.765
 7052TIP3    H121101   6.420   3.749   2.732
 7052TIP3    H221102   6.340   3.622   2.752
 7053TIP3   OH221103   4.921   0.884   3.079
 7053TIP3    H121104   4.915   0.973   3.044
 7053TIP3    H221105   4.839   0.842   3.052
 7054TIP3   OH221106   3.062   3.218   4.372
 7054TIP3    H121107   3.082   3.180   4.458
 7054TIP3    H221108   3.115   3.167   4.311
 7055TIP3   OH221109   1.146   4.562   5.571
 7055TIP3    H121110   1.231   4.590   5.603
 7055TIP3    H221111   1.088   4.636   5.591
 7056TIP3   OH221112   2.248   0.144   5.343
 7056TIP3    H121113   2.189   0.071   5.328
 7056TIP3    H221114   2.191   0.216   5.371
 7057TIP3   OH221115   2.089   4.947   1.742
 7057TIP3    H121116   2.094   4.953   1.838
 7057TIP3    H221117   2.065   5.035   1.714
 7058TIP3   OH221118   3.565   0.610   4.911
 7058TIP3    H121119   3.602   0.603   4.999
 7058TIP3    H221120   3.487   0.664   4.921
 7059TIP3   OH221121   7.521   6.025   1.907
 7059TIP3    H121122   7.456   6.068   1.962
 7059TIP3    H221123   7.515   5.933   1.930
 7060TIP3   OH221124   3.583   5.918   3.209
 7060TIP3    H121125   3.511   5.925   3.146
 7060TIP3    H221126   3.634   5.998   3.194
 7061TIP3   OH221127   3.773   7.848   0.684
 7061TIP3    H121128   3.703   7.843   0.619
 7061TIP3    H221129   3.806   7.759   0.691
 7062TIP3   OH221130   3.927   5.294   5.306
 7062TIP3    H121131   3.835   5.319   5.314
 7062TIP3    H221132   3.951   5.259   5.392
 7063TIP3   OH221133   6.164   7.236   4.464
 7063TIP3    H121134   6.114   7.168   4.420
 7063TIP3    H221135   6.206   7.191   4.538
 7064TIP3   OH221136   2.240   5.707   4.212
 7064TIP3    H121137   2.221   5.669   4.126
 7064TIP3    H221138   2.175   5.669   4.270
 7065TIP3   OH221139   1.768   4.398   1.197
 7065TIP3    H121140   1.697   4.404   1.133
 7065TIP3    H221141   1.792   4.488   1.216
 7066TIP3   OH221142   2.933   1.038   5.708
 7066TIP3    H121143   2.861   1.094   5.737
 7066TIP3    H221144   2.926   1.036   5.613
 7067TIP3   OH221145   5.039   5.555   0.727
 7067TIP3    H121146   5.053   5.465   0.755
 7067TIP3    H221147   4.952   5.554   0.688
 7068TIP3   OH221148   2.759   6.402   6.665
 7068TIP3    H121149   2.773   6.331   6.728
 7068TIP3    H221150   2.733   6.357   6.584
 7069TIP3   OH221151   3.484   0.642   2.607
 7069TIP3    H121152   3.391   0.627   2.589
 7069TIP3    H221153   3.515   0.693   2.533
 7070TIP3   OH221154   2.309   5.030   3.425
 7070TIP3    H121155   2.301   5.015   3.330
 7070TIP3    H221156   2.383   4.975   3.451
 7071TIP3   OH221157   7.042   4.127   2.238
 7071TIP3    H121158   7.077   4.178   2.311
 7071TIP3    H221159   6.996   4.054   2.280
 7072TIP3   OH221160   7.831   6.376   1.779
 7072TIP3    H121161   7.751   6.350   1.733
 7072TIP3    H221162   7.802   6.391   1.870
 7073TIP3   OH221163   0.945   6.185   6.063
 7073TIP3    H121164   0.976   6.099   6.037
 7073TIP3    H221165   0.851   6.183   6.046
 7074TIP3   OH221166   7.929   7.294   0.870
 7074TIP3    H121167   7.872   7.262   0.941
 7074TIP3    H221168   7.869   7.307   0.796
 7075TIP3   OH221169   0.382   3.475   0.111
 7075TIP3    H121170   0.370   3.481   0.205
 7075TIP3    H221171   0.422   3.559   0.087
 7076TIP3   OH221172   2.028   6.390   1.010
 7076TIP3    H121173   2.107   6.335   1.009
 7076TIP3    H221174   2.039   6.446   1.087
 7077TIP3   OH221175   3.066   4.306   2.112
 7077TIP3    H121176   3.135   4.335   2.053
 7077TIP3    H221177   3.000   4.375   2.107
 7078TIP3   OH221178   3.126   6.998   1.419
 7078TIP3    H121179   3.043   7.003   1.466
 7078TIP3    H221180   3.173   6.926   1.460
 7079TIP3   OH221181   0.433   1.998   1.139
 7079TIP3    H121182   0.384   1.961   1.065
 7079TIP3    H221183   0.422   1.934   1.209
 7080TIP3   OH221184   0.576   6.582   0.997
 7080TIP3    H121185   0.501   6.604   0.941
 7080TIP3    H221186   0.651   6.619   0.951
 7081TIP3   OH221187   3.459   3.471   0.461
 7081TIP3    H121188   3.476   3.406   0.529
 7081TIP3    H221189   3.453   3.554   0.509
 7082TIP3   OH221190   1.009   0.854   4.048
 7082TIP3    H121191   0.989   0.813   4.132
 7082TIP3    H221192   1.043   0.941   4.070
 7083TIP3   OH221193   2.797   3.023   3.781
 7083TIP3    H121194   2.890   3.030   3.759
 7083TIP3    H221195   2.789   2.939   3.825
 7084TIP3   OH221196   0.127   1.116   6.097
 7084TIP3    H121197   0.086   1.031   6.114
 7084TIP3    H221198   0.053   1.175   6.081
 7085TIP3   OH221199   0.246   5.064   1.616
 7085TIP3    H121200   0.319   5.064   1.678
 7085TIP3    H221201   0.197   5.144   1.635
 7086TIP3   OH221202   3.174   4.371   5.762
 7086TIP3    H121203   3.268   4.358   5.752
 7086TIP3    H221204   3.167   4.455   5.808
 7087TIP3   OH221205   7.558   0.571   5.143
 7087TIP3    H121206   7.647   0.556   5.175
 7087TIP3    H221207   7.515   0.486   5.149
 7088TIP3   OH221208   7.150   5.088   2.171
 7088TIP3    H121209   7.222   5.045   2.125
 7088TIP3    H221210   7.084   5.020   2.182
 7089TIP3   OH221211   5.626   2.507   6.600
 7089TIP3    H121212   5.552   2.566   6.619
 7089TIP3    H221213   5.585   2.423   6.581
 7090TIP3   OH221214   5.264   4.568   4.177
 7090TIP3    H121215   5.168   4.574   4.170
 7090TIP3    H221216   5.287   4.636   4.240
 7091TIP3   OH221217   2.469   3.221   0.118
 7091TIP3    H121218   2.525   3.283   0.071
 7091TIP3    H221219   2.502   3.135   0.092
 7092TIP3   OH221220   5.093   6.235   0.540
 7092TIP3    H121221   5.186   6.223   0.560
 7092TIP3    H221222   5.056   6.274   0.620
 7093TIP3   OH221223   1.296   3.217   5.640
 7093TIP3    H121224   1.391   3.220   5.631
 7093TIP3    H221225   1.273   3.126   5.620
 7094TIP3   OH221226   0.767   1.379   3.578
 7094TIP3    H121227   0.806   1.352   3.495
 7094TIP3    H221228   0.802   1.467   3.594
 7095TIP3   OH221229   2.069   4.538   5.577
 7095TIP3    H121230   2.163   4.547   5.587
 7095TIP3    H221231   2.034   4.626   5.595
 7096TIP3   OH221232   5.047   7.375   0.393
 7096TIP3    H121233   5.135   7.339   0.391
 7096TIP3    H221234   5.013   7.350   0.479
 7097TIP3   OH221235   1.033   2.625   3.371
 7097TIP3    H121236   1.101   2.646   3.307
 7097TIP3    H221237   0.971   2.570   3.323
 7098TIP3   OH221238   0.645   3.356   5.663
 7098TIP3    H121239   0.662   3.376   5.571
 7098TIP3    H221240   0.708   3.287   5.684
 7099TIP3   OH221241   1.665   3.476   4.805
 7099TIP3    H121242   1.585   3.514   4.769
 7099TIP3    H221243   1.679   3.396   4.755
 7100TIP3   OH221244   0.506   3.560   3.083
 7100TIP3    H121245   0.489   3.604   3.166
 7100TIP3    H221246   0.469   3.619   3.017
 7101TIP3   OH221247   8.042   5.316   1.980
 7101TIP3    H121248   7.998   5.389   1.936
 7101TIP3    H221249   8.124   5.304   1.932
 7102TIP3   OH221250   5.955   3.387   6.109
 7102TIP3    H121251   5.977   3.325   6.040
 7102TIP3    H221252   6.012   3.462   6.094
 7103TIP3   OH221253   6.532   1.924   5.107
 7103TIP3    H121254   6.596   1.870   5.061
 7103TIP3    H221255   6.479   1.862   5.157
 7104TIP3   OH221256   1.514   2.962   5.800
 7104TIP3    H121257   1.591   3.016   5.783
 7104TIP3    H221258   1.540   2.874   5.773
 7105TIP3   OH221259   7.810   7.846   3.307
 7105TIP3    H121260   7.752   7.777   3.340
 7105TIP3    H221261   7.844   7.811   3.225
 7106TIP3   OH221262   3.158   1.145   2.065
 7106TIP3    H121263   3.138   1.094   1.986
 7106TIP3    H221264   3.125   1.232   2.045
 7107TIP3   OH221265   3.043   2.865   4.900
 7107TIP3    H121266   3.135   2.844   4.888
 7107TIP3    H221267   3.043   2.943   4.955
 7108TIP3   OH221268   0.070   0.820   2.099
 7108TIP3    H121269  -0.013   0.855   2.068
 7108TIP3    H221270   0.137   0.869   2.050
 7109TIP3   OH221271   1.863   2.231   1.208
 7109TIP3    H121272   1.779   2.187   1.223
 7109TIP3    H221273   1.849   2.321   1.238
 7110TIP3   OH221274   4.853   1.439   6.079
 7110TIP3    H121275   4.864   1.507   6.013
 7110TIP3    H221276   4.765   1.452   6.113
 7111TIP3   OH221277   0.963   1.151   3.778
 7111TIP3    H121278   0.910   1.202   3.840
 7111TIP3    H221279   1.035   1.209   3.755
 7112TIP3   OH221280   6.696   6.166   2.369
 7112TIP3    H121281   6.645   6.246   2.352
 7112TIP3    H221282   6.696   6.120   2.285
 7113TIP3   OH221283   0.207   0.761   3.437
 7113TIP3    H121284   0.295   0.792   3.417
 7113TIP3    H221285   0.219   0.697   3.507
 7114TIP3   OH221286   0.424   4.931   2.424
 7114TIP3    H121287   0.337   4.893   2.411
 7114TIP3    H221288   0.484   4.867   2.386
 7115TIP3   OH221289  -0.009   0.036   4.859
 7115TIP3    H121290   0.040  -0.005   4.787
 7115TIP3    H221291   0.052   0.101   4.896
 7116TIP3   OH221292   6.345   1.855   2.841
 7116TIP3    H121293   6.324   1.913   2.768
 7116TIP3    H221294   6.266   1.801   2.852
 7117TIP3   OH221295   2.477   6.270   2.258
 7117TIP3    H121296   2.554   6.242   2.308
 7117TIP3    H221297   2.511   6.287   2.170
 7118TIP3   OH221298   1.544   6.567   1.037
 7118TIP3    H121299   1.584   6.552   0.952
 7118TIP3    H221300   1.532   6.662   1.042
 7119TIP3   OH221301   2.284   4.238   5.846
 7119TIP3    H121302   2.333   4.167   5.888
 7119TIP3    H221303   2.350   4.287   5.798
 7120TIP3   OH221304   6.086   6.012   4.905
 7120TIP3    H121305   6.153   6.079   4.916
 7120TIP3    H221306   6.017   6.037   4.965
 7121TIP3   OH221307   5.207   4.384   5.703
 7121TIP3    H121308   5.206   4.480   5.704
 7121TIP3    H221309   5.299   4.361   5.698
 7122TIP3   OH221310   3.733   3.784   0.235
 7122TIP3    H121311   3.659   3.760   0.180
 7122TIP3    H221312   3.740   3.714   0.299
 7123TIP3   OH221313   5.803   4.063   5.726
 7123TIP3    H121314   5.817   4.003   5.799
 7123TIP3    H221315   5.775   4.145   5.766
 7124TIP3   OH221316   6.154   1.738   6.446
 7124TIP3    H121317   6.064   1.770   6.434
 7124TIP3    H221318   6.196   1.806   6.498
 7125TIP3   OH221319   1.665   6.852   2.431
 7125TIP3    H121320   1.573   6.857   2.455
 7125TIP3    H221321   1.678   6.761   2.403
 7126TIP3   OH221322   4.646   4.621   1.890
 7126TIP3    H121323   4.652   4.601   1.983
 7126TIP3    H221324   4.675   4.712   1.883
 7127TIP3   OH221325   3.520   3.133   4.506
 7127TIP3    H121326   3.584   3.192   4.465
 7127TIP3    H221327   3.451   3.192   4.538
 7128TIP3   OH221328   1.610   4.609   1.528
 7128TIP3    H121329   1.639   4.525   1.493
 7128TIP3    H221330   1.618   4.600   1.623
 7129TIP3   OH221331   2.040   2.609   2.648
 7129TIP3    H121332   1.982   2.570   2.583
 7129TIP3    H221333   2.127   2.577   2.624
 7130TIP3   OH221334   0.848   3.833   4.657
 7130TIP3    H121335   0.870   3.759   4.713
 7130TIP3    H221336   0.787   3.886   4.708
 7131TIP3   OH221337   3.640   0.204   2.583
 7131TIP3    H121338   3.679   0.137   2.639
 7131TIP3    H221339   3.659   0.175   2.494
 7132TIP3   OH221340   6.150   4.413   5.713
 7132TIP3    H121341   6.220   4.460   5.667
 7132TIP3    H221342   6.073   4.425   5.658
 7133TIP3   OH221343   3.205   4.689   2.706
 7133TIP3    H121344   3.287   4.717   2.746
 7133TIP3    H221345   3.218   4.596   2.687
 7134TIP3   OH221346   3.696   2.716   3.830
 7134TIP3    H121347   3.706   2.790   3.771
 7134TIP3    H221348   3.694   2.756   3.918
 7135TIP3   OH221349   8.209   2.892   2.306
 7135TIP3    H121350   8.283   2.836   2.281
 7135TIP3    H221351   8.189   2.866   2.396
 7136TIP3   OH221352   4.473   2.494   2.775
 7136TIP3    H121353   4.557   2.539   2.770
 7136TIP3    H221354   4.429   2.518   2.693
 7137TIP3   OH221355   1.423   2.738   2.153
 7137TIP3    H121356   1.391   2.653   2.184
 7137TIP3    H221357   1.349   2.776   2.105
 7138TIP3   OH221358   7.163   3.114   5.162
 7138TIP3    H121359   7.088   3.086   5.109
 7138TIP3    H221360   7.124   3.162   5.235
 7139TIP3   OH221361   5.700   0.955   0.747
 7139TIP3    H121362   5.740   1.042   0.759
 7139TIP3    H221363   5.609   0.974   0.722
 7140TIP3   OH221364   2.975   7.735   0.736
 7140TIP3    H121365   3.045   7.721   0.800
 7140TIP3    H221366   2.999   7.816   0.691
 7141TIP3   OH221367   6.173   3.501   1.255
 7141TIP3    H121368   6.156   3.593   1.273
 7141TIP3    H221369   6.267   3.490   1.265
 7142TIP3   OH221370   0.395   1.678   4.869
 7142TIP3    H121371   0.460   1.745   4.890
 7142TIP3    H221372   0.355   1.656   4.953
 7143TIP3   OH221373   5.043   7.762   5.226
 7143TIP3    H121374   5.000   7.807   5.154
 7143TIP3    H221375   5.133   7.794   5.225
 7144TIP3   OH221376   6.000   1.649   3.063
 7144TIP3    H121377   6.055   1.631   3.139
 7144TIP3    H221378   5.916   1.676   3.100
 7145TIP3   OH221379   3.020   1.379   1.411
 7145TIP3    H121380   3.052   1.418   1.492
 7145TIP3    H221381   3.047   1.440   1.342
 7146TIP3   OH221382   2.560   2.876   4.325
 7146TIP3    H121383   2.614   2.920   4.260
 7146TIP3    H221384   2.476   2.863   4.282
 7147TIP3   OH221385   7.779   3.604   5.357
 7147TIP3    H121386   7.745   3.681   5.402
 7147TIP3    H221387   7.847   3.638   5.299
 7148TIP3   OH221388   0.704   6.402   5.822
 7148TIP3    H121389   0.781   6.443   5.861
 7148TIP3    H221390   0.738   6.357   5.745
 7149TIP3   OH221391   4.171   0.722   6.716
 7149TIP3    H121392   4.078   0.741   6.703
 7149TIP3    H221393   4.175   0.682   6.803
 7150TIP3   OH221394   3.287   1.932   3.439
 7150TIP3    H121395   3.380   1.917   3.452
 7150TIP3    H221396   3.244   1.858   3.481
 7151TIP3   OH221397   6.276   0.904   0.290
 7151TIP3    H121398   6.320   0.945   0.365
 7151TIP3    H221399   6.222   0.974   0.253
 7152TIP3   OH221400   7.886   1.133   5.970
 7152TIP3    H121401   7.861   1.058   6.024
 7152TIP3    H221402   7.804   1.163   5.931
 7153TIP3   OH221403   6.867   6.467   4.962
 7153TIP3    H121404   6.824   6.388   4.930
 7153TIP3    H221405   6.796   6.529   4.976
 7154TIP3   OH221406   0.282   2.619   1.291
 7154TIP3    H121407   0.245   2.704   1.268
 7154TIP3    H221408   0.250   2.602   1.380
 7155TIP3   OH221409   8.176   1.759   0.162
 7155TIP3    H121410   8.138   1.835   0.118
 7155TIP3    H221411   8.141   1.684   0.114
 7156TIP3   OH221412   3.387   0.332   2.587
 7156TIP3    H121413   3.480   0.346   2.570
 7156TIP3    H221414   3.374   0.239   2.573
 7157TIP3   OH221415   6.687   7.287   5.076
 7157TIP3    H121416   6.753   7.225   5.109
 7157TIP3    H221417   6.732   7.337   5.009
 7158TIP3   OH221418   6.765   6.007   5.591
 7158TIP3    H121419   6.788   5.933   5.648
 7158TIP3    H221420   6.746   5.968   5.506
 7159TIP3   OH221421   5.167   2.552   0.472
 7159TIP3    H121422   5.157   2.646   0.482
 7159TIP3    H221423   5.224   2.542   0.396
 7160TIP3   OH221424   6.159   5.294   0.318
 7160TIP3    H121425   6.113   5.354   0.377
 7160TIP3    H221426   6.113   5.211   0.327
 7161TIP3   OH221427   6.007   1.574   5.050
 7161TIP3    H121428   5.980   1.660   5.084
 7161TIP3    H221429   5.969   1.512   5.112
 7162TIP3   OH221430   6.175   5.680   4.656
 7162TIP3    H121431   6.103   5.650   4.711
 7162TIP3    H221432   6.246   5.618   4.672
 7163TIP3   OH221433   7.867   4.566   6.417
 7163TIP3    H121434   7.927   4.585   6.344
 7163TIP3    H221435   7.925   4.542   6.490
 7164TIP3   OH221436   7.877   7.093   5.513
 7164TIP3    H121437   7.858   7.178   5.551
 7164TIP3    H221438   7.836   7.030   5.572
 7165TIP3   OH221439   3.602   2.298   1.036
 7165TIP3    H121440   3.540   2.266   1.102
 7165TIP3    H221441   3.680   2.322   1.086
 7166TIP3   OH221442   5.078   5.231   2.664
 7166TIP3    H121443   5.058   5.274   2.581
 7166TIP3    H221444   5.173   5.238   2.673
 7167TIP3   OH221445   5.041   1.142   3.057
 7167TIP3    H121446   5.067   1.201   2.986
 7167TIP3    H221447   4.957   1.176   3.086
 7168TIP3   OH221448   5.624   3.939   1.510
 7168TIP3    H121449   5.676   4.012   1.543
 7168TIP3    H221450   5.645   3.866   1.569
 7169TIP3   OH221451   0.194   5.881   3.116
 7169TIP3    H121452   0.103   5.851   3.112
 7169TIP3    H221453   0.231   5.835   3.192
 7170TIP3   OH221454   7.662   4.083   4.852
 7170TIP3    H121455   7.699   4.170   4.838
 7170TIP3    H221456   7.569   4.098   4.867
 7171TIP3   OH221457   1.549   5.024   0.634
 7171TIP3    H121458   1.484   5.033   0.564
 7171TIP3    H221459   1.580   4.934   0.627
 7172TIP3   OH221460   6.858   6.818   0.733
 7172TIP3    H121461   6.879   6.781   0.647
 7172TIP3    H221462   6.873   6.747   0.794
 7173TIP3   OH221463   4.572   3.877   5.635
 7173TIP3    H121464   4.581   3.819   5.559
 7173TIP3    H221465   4.478   3.882   5.651
 7174TIP3   OH221466   6.528   4.719   5.729
 7174TIP3    H121467   6.583   4.772   5.787
 7174TIP3    H221468   6.551   4.628   5.750
 7175TIP3   OH221469   6.915   7.507   1.953
 7175TIP3    H121470   6.908   7.428   2.006
 7175TIP3    H221471   6.825   7.529   1.930
 7176TIP3   OH221472   7.372   2.134   0.039
 7176TIP3    H121473   7.295   2.179   0.005
 7176TIP3    H221474   7.445   2.166  -0.015
 7177TIP3   OH221475   3.277   0.889   3.174
 7177TIP3    H121476   3.346   0.955   3.184
 7177TIP3    H221477   3.317   0.821   3.121
 7178TIP3   OH221478   2.804   2.316   6.043
 7178TIP3    H121479   2.710   2.297   6.046
 7178TIP3    H221480   2.843   2.238   6.002
 7179TIP3   OH221481   7.926   3.720   0.910
 7179TIP3    H121482   7.841   3.724   0.866
 7179TIP3    H221483   7.925   3.636   0.956
 7180TIP3   OH221484   7.090   0.895   2.286
 7180TIP3    H121485   7.168   0.843   2.265
 7180TIP3    H221486   7.108   0.932   2.372
 7181TIP3   OH221487   8.089   6.449   1.495
 7181TIP3    H121488   8.024   6.382   1.516
 7181TIP3    H221489   8.061   6.482   1.409
 7182TIP3   OH221490   7.799   7.526   3.251
 7182TIP3    H121491   7.713   7.565   3.264
 7182TIP3    H221492   7.789   7.468   3.175
 7183TIP3   OH221493   3.748   6.469   5.243
 7183TIP3    H121494   3.844   6.462   5.243
 7183TIP3    H221495   3.718   6.388   5.201
 7184TIP3   OH221496   3.629   7.109   6.731
 7184TIP3    H121497   3.565   7.172   6.698
 7184TIP3    H221498   3.577   7.039   6.770
 7185TIP3   OH221499   5.184   0.861   1.963
 7185TIP3    H121500   5.166   0.954   1.949
 7185TIP3    H221501   5.277   0.856   1.984
 7186TIP3   OH221502   4.267   0.821   3.344
 7186TIP3    H121503   4.239   0.849   3.256
 7186TIP3    H221504   4.330   0.751   3.327
 7187TIP3   OH221505   5.443   2.687   0.050
 7187TIP3    H121506   5.524   2.635   0.044
 7187TIP3    H221507   5.384   2.645  -0.012
 7188TIP3   OH221508   7.473   1.899   1.050
 7188TIP3    H121509   7.558   1.855   1.043
 7188TIP3    H221510   7.485   1.981   1.002
 7189TIP3   OH221511   0.209   4.986   0.619
 7189TIP3    H121512   0.280   5.050   0.610
 7189TIP3    H221513   0.167   5.008   0.702
 7190TIP3   OH221514   3.014   2.114   2.545
 7190TIP3    H121515   3.091   2.171   2.540
 7190TIP3    H221516   2.949   2.155   2.488
 7191TIP3   OH221517   3.804   3.166   0.409
 7191TIP3    H121518   3.861   3.240   0.428
 7191TIP3    H221519   3.802   3.162   0.313
 7192TIP3   OH221520   7.786   5.624   3.700
 7192TIP3    H121521   7.758   5.607   3.610
 7192TIP3    H221522   7.858   5.686   3.692
 7193TIP3   OH221523   4.708   6.950   6.563
 7193TIP3    H121524   4.717   7.041   6.591
 7193TIP3    H221525   4.635   6.917   6.615
 7194TIP3   OH221526   2.314   6.540   2.680
 7194TIP3    H121527   2.221   6.563   2.669
 7194TIP3    H221528   2.316   6.445   2.673
 7195TIP3   OH221529   2.780   2.352   1.837
 7195TIP3    H121530   2.870   2.353   1.870
 7195TIP3    H221531   2.761   2.444   1.818
 7196TIP3   OH221532   2.232   5.790   2.283
 7196TIP3    H121533   2.158   5.845   2.307
 7196TIP3    H221534   2.284   5.844   2.222
 7197TIP3   OH221535   0.724   1.395   5.371
 7197TIP3    H121536   0.748   1.464   5.433
 7197TIP3    H221537   0.804   1.377   5.323
 7198TIP3   OH221538   4.790   5.944   0.810
 7198TIP3    H121539   4.870   5.891   0.812
 7198TIP3    H221540   4.794   5.990   0.726
 7199TIP3   OH221541   8.073   4.991   5.435
 7199TIP3    H121542   8.029   5.062   5.481
 7199TIP3    H221543   8.154   5.030   5.401
 7200TIP3   OH221544   5.620   0.528   0.895
 7200TIP3    H121545   5.631   0.440   0.860
 7200TIP3    H221546   5.660   0.585   0.829
 7201TIP3   OH221547   6.016   6.316   1.372
 7201TIP3    H121548   5.957   6.375   1.419
 7201TIP3    H221549   5.995   6.330   1.280
 7202TIP3   OH221550   3.106   7.534   1.529
 7202TIP3    H121551   3.170   7.550   1.598
 7202TIP3    H221552   3.091   7.620   1.490
 7203TIP3   OH221553   0.819   7.513   4.851
 7203TIP3    H121554   0.890   7.482   4.794
 7203TIP3    H221555   0.863   7.571   4.914
 7204TIP3   OH221556   8.151   4.187   6.771
 7204TIP3    H121557   8.126   4.116   6.711
 7204TIP3    H221558   8.236   4.216   6.739
 7205TIP3   OH221559   7.388   4.398   5.912
 7205TIP3    H121560   7.350   4.461   5.973
 7205TIP3    H221561   7.482   4.406   5.926
 7206TIP3   OH221562   0.874   3.699   5.812
 7206TIP3    H121563   0.888   3.783   5.769
 7206TIP3    H221564   0.963   3.666   5.829
 7207TIP3   OH221565   5.978   6.439   5.369
 7207TIP3    H121566   5.942   6.367   5.421
 7207TIP3    H221567   5.926   6.515   5.394
 7208TIP3   OH221568   3.527   5.289   1.415
 7208TIP3    H121569   3.565   5.226   1.354
 7208TIP3    H221570   3.493   5.236   1.486
 7209TIP3   OH221571   3.084   4.606   5.226
 7209TIP3    H121572   3.032   4.601   5.146
 7209TIP3    H221573   3.034   4.556   5.291
 7210TIP3   OH221574   6.478   5.364   2.112
 7210TIP3    H121575   6.463   5.421   2.037
 7210TIP3    H221576   6.415   5.293   2.102
 7211TIP3   OH221577   6.771   2.484   4.576
 7211TIP3    H121578   6.825   2.509   4.500
 7211TIP3    H221579   6.819   2.411   4.615
 7212TIP3   OH221580   6.511   7.190   4.658
 7212TIP3    H121581   6.537   7.234   4.577
 7212TIP3    H221582   6.563   7.232   4.726
 7213TIP3   OH221583   8.095   5.332   4.384
 7213TIP3    H121584   8.071   5.249   4.343
 7213TIP3    H221585   8.190   5.332   4.386
 7214TIP3   OH221586   2.179   5.319   1.121
 7214TIP3    H121587   2.101   5.285   1.075
 7214TIP3    H221588   2.158   5.311   1.214
 7215TIP3   OH221589   0.185   5.215   2.236
 7215TIP3    H121590   0.257   5.266   2.198
 7215TIP3    H221591   0.107   5.267   2.218
 7216TIP3   OH221592   7.898   1.419   1.793
 7216TIP3    H121593   7.872   1.434   1.702
 7216TIP3    H221594   7.815   1.404   1.839
 7217TIP3   OH221595   0.315   4.953   6.302
 7217TIP3    H121596   0.322   5.037   6.349
 7217TIP3    H221597   0.221   4.934   6.301
 7218TIP3   OH221598   1.491   1.312   3.996
 7218TIP3    H121599   1.521   1.275   4.079
 7218TIP3    H221600   1.416   1.366   4.019
 7219TIP3   OH221601   7.167   1.637   5.845
 7219TIP3    H121602   7.121   1.674   5.920
 7219TIP3    H221603   7.183   1.546   5.869
 7220TIP3   OH221604   0.656   0.216   4.818
 7220TIP3    H121605   0.568   0.221   4.781
 7220TIP3    H221606   0.713   0.207   4.742
 7221TIP3   OH221607   0.476   6.072   3.237
 7221TIP3    H121608   0.421   6.129   3.290
 7221TIP3    H221609   0.540   6.036   3.299
 7222TIP3   OH221610   7.153   1.238   0.532
 7222TIP3    H121611   7.061   1.212   0.537
 7222TIP3    H221612   7.179   1.248   0.624
 7223TIP3   OH221613   0.171   3.788   0.027
 7223TIP3    H121614   0.119   3.711   0.051
 7223TIP3    H221615   0.215   3.813   0.108
 7224TIP3   OH221616   0.371   1.905   5.091
 7224TIP3    H121617   0.419   1.978   5.051
 7224TIP3    H221618   0.400   1.905   5.183
 7225TIP3   OH221619   7.710   2.425   5.191
 7225TIP3    H121620   7.670   2.464   5.113
 7225TIP3    H221621   7.641   2.369   5.228
 7226TIP3   OH221622   3.075   5.240   6.227
 7226TIP3    H121623   3.040   5.216   6.142
 7226TIP3    H221624   3.006   5.293   6.267
 7227TIP3   OH221625   0.397   1.955   3.194
 7227TIP3    H121626   0.399   2.049   3.178
 7227TIP3    H221627   0.340   1.944   3.270
 7228TIP3   OH221628   2.599   1.655   6.470
 7228TIP3    H121629   2.541   1.661   6.394
 7228TIP3    H221630   2.653   1.734   6.465
 7229TIP3   OH221631   0.510   6.075   1.311
 7229TIP3    H121632   0.602   6.098   1.312
 7229TIP3    H221633   0.468   6.141   1.366
 7230TIP3   OH221634   1.651   1.520   3.283
 7230TIP3    H121635   1.650   1.498   3.376
 7230TIP3    H221636   1.740   1.549   3.265
 7231TIP3   OH221637   5.573   7.373   1.433
 7231TIP3    H121638   5.600   7.296   1.382
 7231TIP3    H221639   5.479   7.380   1.417
 7232TIP3   OH221640   1.378   0.223   6.013
 7232TIP3    H121641   1.292   0.253   5.984
 7232TIP3    H221642   1.365   0.130   6.030
 7233TIP3   OH221643   2.691   6.171   0.858
 7233TIP3    H121644   2.669   6.108   0.927
 7233TIP3    H221645   2.764   6.221   0.894
 7234TIP3   OH221646   5.883   6.708   5.401
 7234TIP3    H121647   5.873   6.782   5.341
 7234TIP3    H221648   5.793   6.677   5.416
 7235TIP3   OH221649   1.837   5.583   3.388
 7235TIP3    H121650   1.922   5.539   3.382
 7235TIP3    H221651   1.800   5.552   3.471
 7236TIP3   OH221652   0.849   1.991   3.104
 7236TIP3    H121653   0.855   2.063   3.041
 7236TIP3    H221654   0.762   1.955   3.091
 7237TIP3   OH221655   3.049   3.490   4.476
 7237TIP3    H121656   2.955   3.482   4.494
 7237TIP3    H221657   3.075   3.403   4.446
 7238TIP3   OH221658   1.208   5.860   4.141
 7238TIP3    H121659   1.224   5.840   4.233
 7238TIP3    H221660   1.255   5.792   4.093
 7239TIP3   OH221661   0.808   4.001   3.551
 7239TIP3    H121662   0.771   3.913   3.548
 7239TIP3    H221663   0.791   4.032   3.640
 7240TIP3   OH221664   1.234   4.817   3.011
 7240TIP3    H121665   1.326   4.812   3.038
 7240TIP3    H221666   1.193   4.740   3.052
 7241TIP3   OH221667   3.362   1.018   2.206
 7241TIP3    H121668   3.419   0.968   2.148
 7241TIP3    H221669   3.300   1.061   2.148
 7242TIP3   OH221670   5.313   2.866   3.646
 7242TIP3    H121671   5.363   2.789   3.673
 7242TIP3    H221672   5.289   2.908   3.729
 7243TIP3   OH221673   3.112   5.620   6.172
 7243TIP3    H121674   3.189   5.675   6.187
 7243TIP3    H221675   3.086   5.591   6.259
 7244TIP3   OH221676   5.410   3.142   1.511
 7244TIP3    H121677   5.381   3.160   1.600
 7244TIP3    H221678   5.433   3.049   1.512
 7245TIP3   OH221679   6.936   5.777   5.101
 7245TIP3    H121680   6.939   5.804   5.193
 7245TIP3    H221681   7.013   5.721   5.089
 7246TIP3   OH221682   4.540   5.662   4.370
 7246TIP3    H121683   4.582   5.729   4.424
 7246TIP3    H221684   4.509   5.596   4.432
 7247TIP3   OH221685   2.967   3.056   0.027
 7247TIP3    H121686   2.938   3.146   0.043
 7247TIP3    H221687   3.063   3.060   0.033
 7248TIP3   OH221688   7.382   4.186   2.280
 7248TIP3    H121689   7.340   4.205   2.197
 7248TIP3    H221690   7.337   4.241   2.344
 7249TIP3   OH221691   2.620   3.399   0.904
 7249TIP3    H121692   2.677   3.475   0.908
 7249TIP3    H221693   2.629   3.366   0.815
 7250TIP3   OH221694   5.516   4.310   1.608
 7250TIP3    H121695   5.488   4.390   1.653
 7250TIP3    H221696   5.462   4.241   1.647
 7251TIP3   OH221697   7.142   6.176   0.220
 7251TIP3    H121698   7.167   6.215   0.136
 7251TIP3    H221699   7.047   6.174   0.218
 7252TIP3   OH221700   2.162   0.219   3.086
 7252TIP3    H121701   2.136   0.139   3.131
 7252TIP3    H221702   2.138   0.289   3.146
 7253TIP3   OH221703   2.151   0.788   1.697
 7253TIP3    H121704   2.167   0.757   1.786
 7253TIP3    H221705   2.164   0.882   1.701
 7254TIP3   OH221706   5.950   6.723   1.836
 7254TIP3    H121707   5.921   6.813   1.851
 7254TIP3    H221708   5.969   6.719   1.743
 7255TIP3   OH221709   6.156   3.690   0.480
 7255TIP3    H121710   6.139   3.601   0.511
 7255TIP3    H221711   6.098   3.745   0.533
 7256TIP3   OH221712   4.357   2.393   4.819
 7256TIP3    H121713   4.419   2.465   4.811
 7256TIP3    H221714   4.405   2.316   4.788
 7257TIP3   OH221715   4.603   3.590   0.639
 7257TIP3    H121716   4.557   3.669   0.610
 7257TIP3    H221717   4.542   3.519   0.622
 7258TIP3   OH221718   5.276   7.038   1.004
 7258TIP3    H121719   5.336   7.097   1.049
 7258TIP3    H221720   5.195   7.042   1.054
 7259TIP3   OH221721   4.988   4.676   2.740
 7259TIP3    H121722   5.072   4.653   2.700
 7259TIP3    H221723   4.950   4.593   2.767
 7260TIP3   OH221724   5.890   4.664   4.471
 7260TIP3    H121725   5.808   4.694   4.511
 7260TIP3    H221726   5.878   4.570   4.459
 7261TIP3   OH221727   7.194   6.631   3.078
 7261TIP3    H121728   7.266   6.677   3.036
 7261TIP3    H221729   7.167   6.564   3.015
 7262TIP3   OH221730   5.314   6.727   6.316
 7262TIP3    H121731   5.364   6.805   6.293
 7262TIP3    H221732   5.244   6.759   6.372
 7263TIP3   OH221733   7.522   2.830   5.921
 7263TIP3    H121734   7.501   2.920   5.896
 7263TIP3    H221735   7.606   2.813   5.879
 7264TIP3   OH221736   7.639   5.744   1.566
 7264TIP3    H121737   7.691   5.808   1.518
 7264TIP3    H221738   7.703   5.690   1.612
 7265TIP3   OH221739   4.848   4.690   0.122
 7265TIP3    H121740   4.942   4.701   0.105
 7265TIP3    H221741   4.843   4.662   0.213
 7266TIP3   OH221742   8.073   4.773   2.488
 7266TIP3    H121743   8.063   4.700   2.549
 7266TIP3    H221744   8.128   4.738   2.418
 7267TIP3   OH221745   3.167   3.667   2.755
 7267TIP3    H121746   3.150   3.677   2.661
 7267TIP3    H221747   3.153   3.755   2.791
 7268TIP3   OH221748   0.496   5.136   0.673
 7268TIP3    H121749   0.466   5.210   0.620
 7268TIP3    H221750   0.557   5.089   0.616
 7269TIP3   OH221751   4.434   5.245   2.780
 7269TIP3    H121752   4.524   5.219   2.762
 7269TIP3    H221753   4.383   5.204   2.711
 7270TIP3   OH221754   5.106   3.258   6.540
 7270TIP3    H121755   5.106   3.337   6.486
 7270TIP3    H221756   5.116   3.291   6.630
 7271TIP3   OH221757   4.806   4.611   0.859
 7271TIP3    H121758   4.888   4.588   0.815
 7271TIP3    H221759   4.834   4.657   0.939
 7272TIP3   OH221760   2.360   2.989   4.503
 7272TIP3    H121761   2.386   3.044   4.576
 7272TIP3    H221762   2.442   2.950   4.472
 7273TIP3   OH221763   1.620   5.705   4.850
 7273TIP3    H121764   1.592   5.615   4.866
 7273TIP3    H221765   1.697   5.716   4.905
 7274TIP3   OH221766   8.185   6.009   1.323
 7274TIP3    H121767   8.090   6.024   1.325
 7274TIP3    H221768   8.213   6.048   1.240
 7275TIP3   OH221769   1.587   1.359   0.485
 7275TIP3    H121770   1.620   1.326   0.401
 7275TIP3    H221771   1.493   1.366   0.473
 7276TIP3   OH221772   2.504   6.168   2.802
 7276TIP3    H121773   2.497   6.102   2.733
 7276TIP3    H221774   2.532   6.119   2.879
 7277TIP3   OH221775   1.089   2.014   2.706
 7277TIP3    H121776   1.152   2.080   2.680
 7277TIP3    H221777   1.010   2.036   2.657
 7278TIP3   OH221778   7.643   0.931   4.503
 7278TIP3    H121779   7.644   0.838   4.479
 7278TIP3    H221780   7.697   0.974   4.437
 7279TIP3   OH221781   2.740   5.808   1.263
 7279TIP3    H121782   2.645   5.797   1.252
 7279TIP3    H221783   2.770   5.839   1.178
 7280TIP3   OH221784   7.235   4.479   3.101
 7280TIP3    H121785   7.298   4.413   3.071
 7280TIP3    H221786   7.263   4.560   3.059
 7281TIP3   OH221787   4.079   2.455   2.891
 7281TIP3    H121788   4.129   2.471   2.971
 7281TIP3    H221789   4.115   2.518   2.828
 7282TIP3   OH221790   3.762   3.108   3.408
 7282TIP3    H121791   3.811   3.026   3.414
 7282TIP3    H221792   3.724   3.107   3.320
 7283TIP3   OH221793   5.791   1.704   2.660
 7283TIP3    H121794   5.774   1.699   2.566
 7283TIP3    H221795   5.879   1.668   2.671
 7284TIP3   OH221796   0.908   1.406   1.132
 7284TIP3    H121797   0.888   1.490   1.174
 7284TIP3    H221798   0.832   1.388   1.076
 7285TIP3   OH221799   2.126   1.173   0.727
 7285TIP3    H121800   2.057   1.110   0.706
 7285TIP3    H221801   2.122   1.237   0.655
 7286TIP3   OH221802   2.056   2.910   3.553
 7286TIP3    H121803   2.036   2.849   3.481
 7286TIP3    H221804   2.033   2.861   3.632
 7287TIP3   OH221805   5.284   5.899   5.648
 7287TIP3    H121806   5.210   5.953   5.675
 7287TIP3    H221807   5.287   5.907   5.553
 7288TIP3   OH221808   4.312   4.711   2.700
 7288TIP3    H121809   4.385   4.762   2.665
 7288TIP3    H221810   4.245   4.776   2.719
 7289TIP3   OH221811   0.392   5.380   6.656
 7289TIP3    H121812   0.402   5.388   6.751
 7289TIP3    H221813   0.312   5.428   6.636
 7290TIP3   OH221814   2.757   4.757   5.032
 7290TIP3    H121815   2.688   4.753   5.097
 7290TIP3    H221816   2.713   4.741   4.948
 7291TIP3   OH221817   0.733   3.917   3.110
 7291TIP3    H121818   0.804   3.970   3.074
 7291TIP3    H221819   0.694   3.972   3.177
 7292TIP3   OH221820   7.197   4.509   2.550
 7292TIP3    H121821   7.274   4.553   2.587
 7292TIP3    H221822   7.132   4.511   2.620
 7293TIP3   OH221823   4.180   0.086   1.154
 7293TIP3    H121824   4.192  -0.003   1.187
 7293TIP3    H221825   4.269   0.120   1.144
 7294TIP3   OH221826   0.631   5.039   2.928
 7294TIP3    H121827   0.718   5.039   2.967
 7294TIP3    H221828   0.576   4.992   2.990
 7295TIP3   OH221829   6.632   1.452   5.937
 7295TIP3    H121830   6.636   1.363   5.904
 7295TIP3    H221831   6.625   1.507   5.859
 7296TIP3   OH221832   3.714   3.303   6.081
 7296TIP3    H121833   3.785   3.360   6.052
 7296TIP3    H221834   3.709   3.317   6.176
 7297TIP3   OH221835   0.523   3.274   4.350
 7297TIP3    H121836   0.520   3.320   4.434
 7297TIP3    H221837   0.578   3.198   4.366
 7298TIP3   OH221838   3.043   1.979   0.468
 7298TIP3    H121839   3.006   1.956   0.382
 7298TIP3    H221840   2.982   2.044   0.503
 7299TIP3   OH221841   0.939   7.045   3.739
 7299TIP3    H121842   0.915   7.020   3.650
 7299TIP3    H221843   0.913   7.137   3.746
 7300TIP3   OH221844   2.604   2.540   5.965
 7300TIP3    H121845   2.676   2.479   5.978
 7300TIP3    H221846   2.622   2.582   5.881
 7301TIP3   OH221847   0.936   7.027   2.050
 7301TIP3    H121848   0.941   7.102   1.991
 7301TIP3    H221849   0.842   7.016   2.068
 7302TIP3   OH221850   3.397   5.907   2.211
 7302TIP3    H121851   3.456   5.972   2.249
 7302TIP3    H221852   3.447   5.825   2.214
 7303TIP3   OH221853   6.825   7.588   4.580
 7303TIP3    H121854   6.914   7.622   4.591
 7303TIP3    H221855   6.790   7.635   4.505
 7304TIP3   OH221856   6.340   1.778   6.664
 7304TIP3    H121857   6.309   1.843   6.727
 7304TIP3    H221858   6.327   1.694   6.708
 7305TIP3   OH221859   7.686   4.100   2.542
 7305TIP3    H121860   7.751   4.060   2.600
 7305TIP3    H221861   7.650   4.173   2.593
 7306TIP3   OH221862   2.713   1.189   1.124
 7306TIP3    H121863   2.636   1.244   1.109
 7306TIP3    H221864   2.782   1.232   1.073
 7307TIP3   OH221865   4.783   3.738   5.141
 7307TIP3    H121866   4.771   3.653   5.099
 7307TIP3    H221867   4.850   3.782   5.088
 7308TIP3   OH221868   6.662   3.341   1.329
 7308TIP3    H121869   6.607   3.307   1.400
 7308TIP3    H221870   6.632   3.431   1.318
 7309TIP3   OH221871   6.978   3.588   2.120
 7309TIP3    H121872   6.963   3.569   2.212
 7309TIP3    H221873   6.996   3.503   2.080
 7310TIP3   OH221874   6.090   6.673   3.306
 7310TIP3    H121875   6.067   6.660   3.214
 7310TIP3    H221876   6.088   6.585   3.344
 7311TIP3   OH221877   5.935   2.121   3.577
 7311TIP3    H121878   6.026   2.096   3.562
 7311TIP3    H221879   5.885   2.041   3.563
 7312TIP3   OH221880   6.699   5.356   3.264
 7312TIP3    H121881   6.678   5.318   3.179
 7312TIP3    H221882   6.795   5.359   3.266
 7313TIP3   OH221883   0.667   5.848   6.726
 7313TIP3    H121884   0.674   5.814   6.636
 7313TIP3    H221885   0.590   5.805   6.763
 7314TIP3   OH221886   2.220   5.949   4.325
 7314TIP3    H121887   2.242   5.870   4.276
 7314TIP3    H221888   2.271   6.018   4.283
 7315TIP3   OH221889   0.400   5.049   4.818
 7315TIP3    H121890   0.454   5.122   4.846
 7315TIP3    H221891   0.413   4.982   4.886
 7316TIP3   OH221892   1.240   5.433   3.798
 7316TIP3    H121893   1.290   5.431   3.716
 7316TIP3    H221894   1.255   5.348   3.839
 7317TIP3   OH221895   4.404   6.674   4.536
 7317TIP3    H121896   4.420   6.582   4.515
 7317TIP3    H221897   4.490   6.708   4.560
 7318TIP3   OH221898   6.004   7.158   3.664
 7318TIP3    H121899   6.048   7.121   3.742
 7318TIP3    H221900   6.053   7.237   3.645
 7319TIP3   OH221901   6.978   6.631   3.442
 7319TIP3    H121902   7.005   6.722   3.436
 7319TIP3    H221903   7.054   6.581   3.415
 7320TIP3   OH221904   2.325   6.223   5.123
 7320TIP3    H121905   2.410   6.203   5.164
 7320TIP3    H221906   2.332   6.314   5.097
 7321TIP3   OH221907   4.779   0.765   5.631
 7321TIP3    H121908   4.706   0.708   5.658
 7321TIP3    H221909   4.857   0.721   5.665
 7322TIP3   OH221910   2.754   6.794   5.560
 7322TIP3    H121911   2.768   6.714   5.610
 7322TIP3    H221912   2.840   6.815   5.523
 7323TIP3   OH221913   0.736   6.299   5.113
 7323TIP3    H121914   0.709   6.317   5.023
 7323TIP3    H221915   0.665   6.248   5.151
 7324TIP3   OH221916   3.934   0.260   0.563
 7324TIP3    H121917   3.916   0.185   0.620
 7324TIP3    H221918   3.853   0.312   0.564
 7325TIP3   OH221919   0.692   3.701   3.601
 7325TIP3    H121920   0.641   3.620   3.601
 7325TIP3    H221921   0.782   3.672   3.619
 7326TIP3   OH221922   6.037   1.837   5.320
 7326TIP3    H121923   6.114   1.890   5.299
 7326TIP3    H221924   5.990   1.888   5.386
 7327TIP3   OH221925   6.169   3.633   6.490
 7327TIP3    H121926   6.085   3.590   6.473
 7327TIP3    H221927   6.222   3.614   6.412
 7328TIP3   OH221928   6.182   0.582   4.224
 7328TIP3    H121929   6.114   0.645   4.200
 7328TIP3    H221930   6.209   0.542   4.141
 7329TIP3   OH221931   1.918   5.210   2.376
 7329TIP3    H121932   1.962   5.283   2.333
 7329TIP3    H221933   1.943   5.217   2.468
 7330TIP3   OH221934   4.534   2.174   5.221
 7330TIP3    H121935   4.492   2.093   5.252
 7330TIP3    H221936   4.627   2.162   5.242
 7331TIP3   OH221937   4.175   6.590   1.390
 7331TIP3    H121938   4.150   6.626   1.305
 7331TIP3    H221939   4.268   6.612   1.400
 7332TIP3   OH221940   7.749   0.954   4.813
 7332TIP3    H121941   7.714   0.948   4.724
 7332TIP3    H221942   7.691   1.015   4.858
 7333TIP3   OH221943   8.105   5.890   6.505
 7333TIP3    H121944   8.096   5.980   6.473
 7333TIP3    H221945   8.032   5.878   6.564
 7334TIP3   OH221946   7.370   4.055   1.870
 7334TIP3    H121947   7.321   3.972   1.864
 7334TIP3    H221948   7.442   4.044   1.808
 7335TIP3   OH221949   5.773   1.013   5.529
 7335TIP3    H121950   5.720   0.969   5.595
 7335TIP3    H221951   5.841   0.950   5.507
 7336TIP3   OH221952   6.109   3.641   3.819
 7336TIP3    H121953   6.162   3.706   3.772
 7336TIP3    H221954   6.020   3.655   3.787
 7337TIP3   OH221955   7.830   0.471   5.818
 7337TIP3    H121956   7.838   0.547   5.759
 7337TIP3    H221957   7.908   0.473   5.872
 7338TIP3   OH221958   4.502   4.160   0.743
 7338TIP3    H121959   4.567   4.227   0.765
 7338TIP3    H221960   4.540   4.078   0.772
 7339TIP3   OH221961   4.121   2.170   4.590
 7339TIP3    H121962   4.085   2.082   4.607
 7339TIP3    H221963   4.211   2.154   4.562
 7340TIP3   OH221964   6.756   1.708   3.662
 7340TIP3    H121965   6.698   1.745   3.596
 7340TIP3    H221966   6.730   1.616   3.668
 7341TIP3   OH221967   7.657   0.664   6.495
 7341TIP3    H121968   7.712   0.650   6.572
 7341TIP3    H221969   7.719   0.686   6.425
 7342TIP3   OH221970   0.083   7.775   2.836
 7342TIP3    H121971   0.018   7.835   2.872
 7342TIP3    H221972   0.075   7.696   2.890
 7343TIP3   OH221973   3.898   0.837   6.738
 7343TIP3    H121974   3.878   0.842   6.645
 7343TIP3    H221975   3.812   0.835   6.781
 7344TIP3   OH221976   2.837   0.745   2.074
 7344TIP3    H121977   2.776   0.812   2.106
 7344TIP3    H221978   2.813   0.732   1.983
 7345TIP3   OH221979   7.811   1.062   1.834
 7345TIP3    H121980   7.805   1.152   1.802
 7345TIP3    H221981   7.866   1.017   1.770
 7346TIP3   OH221982   5.532   0.472   2.955
 7346TIP3    H121983   5.478   0.495   2.879
 7346TIP3    H221984   5.609   0.431   2.916
 7347TIP3   OH221985   0.029   1.095   4.246
 7347TIP3    H121986   0.049   1.007   4.213
 7347TIP3    H221987   0.064   1.154   4.179
 7348TIP3   OH221988   2.682   5.032   2.490
 7348TIP3    H121989   2.668   5.122   2.461
 7348TIP3    H221990   2.770   5.010   2.460
 7349TIP3   OH221991   7.958   4.600   2.675
 7349TIP3    H121992   7.931   4.586   2.766
 7349TIP3    H221993   7.952   4.513   2.635
 7350TIP3   OH221994   0.539   1.037   6.478
 7350TIP3    H121995   0.493   0.991   6.549
 7350TIP3    H221996   0.475   1.098   6.443
 7351TIP3   OH221997   4.004   0.237   3.912
 7351TIP3    H121998   4.008   0.146   3.885
 7351TIP3    H221999   4.064   0.283   3.854
 7352TIP3   OH222000   5.392   6.473   3.128
 7352TIP3    H122001   5.308   6.512   3.103
 7352TIP3    H222002   5.435   6.540   3.181
 7353TIP3   OH222003   7.139   0.274   3.369
 7353TIP3    H122004   7.226   0.247   3.340
 7353TIP3    H222005   7.130   0.364   3.337
 7354TIP3   OH222006   4.587   3.856   6.655
 7354TIP3    H122007   4.520   3.916   6.624
 7354TIP3    H222008   4.546   3.811   6.729
 7355TIP3   OH222009   0.176   4.784   3.531
 7355TIP3    H122010   0.199   4.792   3.623
 7355TIP3    H222011   0.208   4.865   3.491
 7356TIP3   OH222012   1.275   1.485   4.004
 7356TIP3    H122013   1.204   1.522   4.056
 7356TIP3    H222014   1.276   1.537   3.924
 7357TIP3   OH222015   4.132   6.039   5.252
 7357TIP3    H122016   4.175   5.968   5.204
 7357TIP3    H222017   4.139   6.014   5.344
 7358TIP3   OH222018   3.227   7.311   0.751
 7358TIP3    H122019   3.237   7.289   0.844
 7358TIP3    H222020   3.237   7.407   0.748
 7359TIP3   OH222021   5.964   4.014   5.490
 7359TIP3    H122022   5.917   4.053   5.564
 7359TIP3    H222023   6.032   3.960   5.531
 7360TIP3   OH222024   6.857   4.912   2.915
 7360TIP3    H122025   6.945   4.930   2.947
 7360TIP3    H222026   6.834   4.828   2.954
 7361TIP3   OH222027   7.535   2.722   3.985
 7361TIP3    H122028   7.527   2.817   3.998
 7361TIP3    H222029   7.574   2.713   3.898
 7362TIP3   OH222030   3.702   6.383   2.648
 7362TIP3    H122031   3.646   6.310   2.621
 7362TIP3    H222032   3.654   6.461   2.622
 7363TIP3   OH222033   3.831   4.316   4.511
 7363TIP3    H122034   3.793   4.362   4.585
 7363TIP3    H222035   3.922   4.300   4.537
 7364TIP3   OH222036   4.927   3.479   1.652
 7364TIP3    H122037   4.843   3.505   1.691
 7364TIP3    H222038   4.919   3.385   1.639
 7365TIP3   OH222039   8.019   3.495   1.701
 7365TIP3    H122040   7.975   3.575   1.671
 7365TIP3    H222041   8.005   3.494   1.796
 7366TIP3   OH222042   7.186   7.644   2.863
 7366TIP3    H122043   7.166   7.638   2.957
 7366TIP3    H222044   7.105   7.677   2.824
 7367TIP3   OH222045   7.039   5.519   6.463
 7367TIP3    H122046   7.027   5.479   6.549
 7367TIP3    H222047   7.049   5.445   6.403
 7368TIP3   OH222048   0.189   0.082   6.147
 7368TIP3    H122049   0.145   0.010   6.101
 7368TIP3    H222050   0.187   0.056   6.239
 7369TIP3   OH222051   5.967   4.175   0.894
 7369TIP3    H122052   5.942   4.219   0.813
 7369TIP3    H222053   6.058   4.149   0.881
 7370TIP3   OH222054   0.439   6.347   6.631
 7370TIP3    H122055   0.488   6.306   6.560
 7370TIP3    H222056   0.360   6.293   6.639
 7371TIP3   OH222057   6.638   2.527   4.195
 7371TIP3    H122058   6.629   2.618   4.167
 7371TIP3    H222059   6.730   2.521   4.224
 7372TIP3   OH222060   2.105   2.942   1.502
 7372TIP3    H122061   2.173   2.985   1.450
 7372TIP3    H222062   2.120   2.848   1.490
 7373TIP3   OH222063   5.558   1.813   6.533
 7373TIP3    H122064   5.618   1.749   6.572
 7373TIP3    H222065   5.471   1.782   6.557
 7374TIP3   OH222066   1.442   0.927   5.092
 7374TIP3    H122067   1.528   0.891   5.115
 7374TIP3    H222068   1.437   1.010   5.140
 7375TIP3   OH222069   3.996   7.725   6.433
 7375TIP3    H122070   3.914   7.751   6.391
 7375TIP3    H222071   3.995   7.769   6.518
 7376TIP3   OH222072   1.328   6.135   6.326
 7376TIP3    H122073   1.312   6.069   6.259
 7376TIP3    H222074   1.420   6.159   6.316
 7377TIP3   OH222075   2.928   4.811   0.711
 7377TIP3    H122076   2.868   4.736   0.706
 7377TIP3    H222077   2.921   4.854   0.626
 7378TIP3   OH222078   6.017   1.089   2.307
 7378TIP3    H122079   6.045   1.069   2.218
 7378TIP3    H222080   5.931   1.047   2.315
 7379TIP3   OH222081   2.812   4.778   6.300
 7379TIP3    H122082   2.809   4.871   6.322
 7379TIP3    H222083   2.891   4.746   6.344
 7380TIP3   OH222084   4.728   5.684   4.073
 7380TIP3    H122085   4.733   5.623   4.147
 7380TIP3    H222086   4.658   5.649   4.018
 7381TIP3   OH222087   3.909   7.825   1.212
 7381TIP3    H122088   3.842   7.822   1.144
 7381TIP3    H222089   3.932   7.733   1.227
 7382TIP3   OH222090   4.744  -0.033   6.199
 7382TIP3    H122091   4.702   0.047   6.231
 7382TIP3    H222092   4.822  -0.002   6.152
 7383TIP3   OH222093   2.841   5.642   6.127
 7383TIP3    H122094   2.936   5.633   6.132
 7383TIP3    H222095   2.826   5.718   6.072
 7384TIP3   OH222096   4.557   2.870   5.925
 7384TIP3    H122097   4.597   2.804   5.867
 7384TIP3    H222098   4.617   2.945   5.920
 7385TIP3   OH222099   1.747   2.263   2.475
 7385TIP3    H122100   1.814   2.209   2.518
 7385TIP3    H222101   1.791   2.347   2.459
 7386TIP3   OH222102   5.483   7.464   4.357
 7386TIP3    H122103   5.538   7.539   4.336
 7386TIP3    H222104   5.411   7.501   4.408
 7387TIP3   OH222105   0.368   5.555   1.463
 7387TIP3    H122106   0.370   5.643   1.501
 7387TIP3    H222107   0.340   5.568   1.372
 7388TIP3   OH222108   0.805   4.346   0.533
 7388TIP3    H122109   0.742   4.418   0.541
 7388TIP3    H222110   0.782   4.286   0.604
 7389TIP3   OH222111   0.893   5.020   6.544
 7389TIP3    H122112   0.946   5.026   6.624
 7389TIP3    H222113   0.934   5.082   6.483
 7390TIP3   OH222114   2.649   2.902   4.614
 7390TIP3    H122115   2.658   2.869   4.525
 7390TIP3    H222116   2.715   2.855   4.664
 7391TIP3   OH222117   1.656   2.538   0.943
 7391TIP3    H122118   1.617   2.484   1.012
 7391TIP3    H222119   1.596   2.529   0.869
 7392TIP3   OH222120   5.515   6.594   1.212
 7392TIP3    H122121   5.588   6.583   1.152
 7392TIP3    H222122   5.437   6.578   1.159
 7393TIP3   OH222123   1.404   5.333   3.594
 7393TIP3    H122124   1.367   5.251   3.562
 7393TIP3    H222125   1.461   5.307   3.666
 7394TIP3   OH222126   0.862   2.507   5.672
 7394TIP3    H122127   0.913   2.427   5.676
 7394TIP3    H222128   0.799   2.492   5.602
 7395TIP3   OH222129   6.280   3.753   1.844
 7395TIP3    H122130   6.247   3.729   1.931
 7395TIP3    H222131   6.202   3.771   1.792
 7396TIP3   OH222132   1.355   5.397   2.449
 7396TIP3    H122133   1.325   5.333   2.384
 7396TIP3    H222134   1.340   5.482   2.408
 7397TIP3   OH222135   3.872   2.268   2.972
 7397TIP3    H122136   3.943   2.323   2.938
 7397TIP3    H222137   3.914   2.185   2.993
 7398TIP3   OH222138   8.159   3.000   5.201
 7398TIP3    H122139   8.171   2.950   5.120
 7398TIP3    H222140   8.107   3.076   5.175
 7399TIP3   OH222141   4.251   1.105   2.420
 7399TIP3    H122142   4.306   1.035   2.385
 7399TIP3    H222143   4.213   1.147   2.343
 7400TIP3   OH222144   6.619   3.729   3.156
 7400TIP3    H122145   6.565   3.797   3.196
 7400TIP3    H222146   6.560   3.655   3.144
 7401TIP3   OH222147   7.532   1.281   5.730
 7401TIP3    H122148   7.503   1.361   5.686
 7401TIP3    H222149   7.597   1.310   5.793
 7402TIP3   OH222150   5.136   1.976   4.379
 7402TIP3    H122151   5.164   1.946   4.466
 7402TIP3    H222152   5.216   1.981   4.328
 7403TIP3   OH222153   7.844   2.645   1.585
 7403TIP3    H122154   7.807   2.669   1.500
 7403TIP3    H222155   7.818   2.554   1.598
 7404TIP3   OH222156   1.131   4.425   0.173
 7404TIP3    H122157   1.127   4.413   0.078
 7404TIP3    H222158   1.092   4.345   0.208
 7405TIP3   OH222159   5.409   2.231   5.218
 7405TIP3    H122160   5.328   2.258   5.262
 7405TIP3    H222161   5.430   2.304   5.160
 7406TIP3   OH222162   8.214   4.740   1.896
 7406TIP3    H122163   8.197   4.788   1.815
 7406TIP3    H222164   8.172   4.793   1.964
 7407TIP3   OH222165   2.633   0.111   2.900
 7407TIP3    H122166   2.539   0.126   2.899
 7407TIP3    H222167   2.667   0.172   2.966
 7408TIP3   OH222168   3.372   4.672   5.701
 7408TIP3    H122169   3.354   4.761   5.672
 7408TIP3    H222170   3.361   4.618   5.623
 7409TIP3   OH222171   1.726   3.478   5.283
 7409TIP3    H122172   1.644   3.493   5.331
 7409TIP3    H222173   1.795   3.489   5.348
 7410TIP3   OH222174   7.417   2.537   1.222
 7410TIP3    H122175   7.512   2.546   1.228
 7410TIP3    H222176   7.400   2.445   1.244
 7411TIP3   OH222177   1.687   3.462   6.164
 7411TIP3    H122178   1.613   3.511   6.130
 7411TIP3    H222179   1.648   3.385   6.206
 7412TIP3   OH222180   6.610   4.042   4.264
 7412TIP3    H122181   6.646   4.071   4.180
 7412TIP3    H222182   6.681   3.992   4.304
 7413TIP3   OH222183   1.702   0.667   3.137
 7413TIP3    H122184   1.739   0.583   3.164
 7413TIP3    H222185   1.771   0.731   3.156
 7414TIP3   OH222186   8.090   1.724   2.178
 7414TIP3    H122187   8.083   1.725   2.274
 7414TIP3    H222188   8.052   1.808   2.151
 7415TIP3   OH222189   5.392   7.589   3.264
 7415TIP3    H122190   5.478   7.554   3.284
 7415TIP3    H222191   5.385   7.667   3.319
 7416TIP3   OH222192   1.757   4.656   1.267
 7416TIP3    H122193   1.708   4.660   1.349
 7416TIP3    H222194   1.720   4.726   1.213
 7417TIP3   OH222195   1.908   1.467   4.288
 7417TIP3    H122196   1.876   1.514   4.364
 7417TIP3    H222197   1.913   1.375   4.316
 7418TIP3   OH222198   6.912   0.788   4.571
 7418TIP3    H122199   6.869   0.873   4.582
 7418TIP3    H222200   6.997   0.809   4.534
 7419TIP3   OH222201   1.373   3.688   3.947
 7419TIP3    H122202   1.370   3.779   3.978
 7419TIP3    H222203   1.306   3.684   3.879
 7420TIP3   OH222204   1.098   0.878   1.411
 7420TIP3    H122205   1.115   0.937   1.337
 7420TIP3    H222206   1.093   0.936   1.487
 7421TIP3   OH222207   1.450   7.658   1.270
 7421TIP3    H122208   1.370   7.623   1.310
 7421TIP3    H222209   1.455   7.616   1.184
 7422TIP3   OH222210   7.097   5.649   3.120
 7422TIP3    H122211   7.016   5.658   3.171
 7422TIP3    H222212   7.163   5.694   3.172
 7423TIP3   OH222213   3.905   2.000   0.295
 7423TIP3    H122214   3.870   2.014   0.383
 7423TIP3    H222215   3.894   1.906   0.280
 7424TIP3   OH222216   5.207   6.380   6.174
 7424TIP3    H122217   5.289   6.332   6.158
 7424TIP3    H222218   5.184   6.357   6.264
 7425TIP3   OH222219   7.369   0.888   2.172
 7425TIP3    H122220   7.463   0.874   2.160
 7425TIP3    H222221   7.364   0.954   2.242
 7426TIP3   OH222222   7.858   5.879   4.769
 7426TIP3    H122223   7.859   5.973   4.782
 7426TIP3    H222224   7.892   5.842   4.851
 7427TIP3   OH222225   3.979   5.038   2.405
 7427TIP3    H122226   3.943   5.090   2.477
 7427TIP3    H222227   4.042   5.096   2.363
 7428TIP3   OH222228   1.608   2.544   3.294
 7428TIP3    H122229   1.618   2.455   3.328
 7428TIP3    H222230   1.677   2.551   3.227
 7429TIP3   OH222231   2.818   3.815   4.974
 7429TIP3    H122232   2.782   3.799   4.887
 7429TIP3    H222233   2.912   3.805   4.964
 7430TIP3   OH222234   6.104   1.519   1.481
 7430TIP3    H122235   6.149   1.601   1.501
 7430TIP3    H222236   6.134   1.458   1.548
 7431TIP3   OH222237   0.707   0.150   2.627
 7431TIP3    H122238   0.779   0.112   2.577
 7431TIP3    H222239   0.718   0.245   2.616
 7432TIP3   OH222240   0.249   2.129   6.197
 7432TIP3    H122241   0.173   2.101   6.147
 7432TIP3    H222242   0.226   2.109   6.288
 7433TIP3   OH222243   6.344   2.047   2.397
 7433TIP3    H122244   6.399   2.090   2.463
 7433TIP3    H222245   6.255   2.052   2.434
 7434TIP3   OH222246   0.497   6.313   6.019
 7434TIP3    H122247   0.529   6.321   6.109
 7434TIP3    H222248   0.574   6.329   5.964
 7435TIP3   OH222249   2.588   5.852   5.293
 7435TIP3    H122250   2.531   5.779   5.272
 7435TIP3    H222251   2.666   5.812   5.332
 7436TIP3   OH222252   4.022   6.154   0.832
 7436TIP3    H122253   3.973   6.079   0.865
 7436TIP3    H222254   4.095   6.116   0.784
 7437TIP3   OH222255   4.990   6.091   6.154
 7437TIP3    H122256   4.944   6.021   6.108
 7437TIP3    H222257   5.075   6.097   6.110
 7438TIP3   OH222258   3.842   1.571   5.049
 7438TIP3    H122259   3.832   1.500   4.985
 7438TIP3    H222260   3.931   1.561   5.082
 7439TIP3   OH222261   1.724   7.386   1.887
 7439TIP3    H122262   1.748   7.471   1.923
 7439TIP3    H222263   1.629   7.392   1.874
 7440TIP3   OH222264   4.326   5.329   6.706
 7440TIP3    H122265   4.235   5.323   6.676
 7440TIP3    H222266   4.331   5.415   6.749
 7441TIP3   OH222267   3.227   4.916   2.927
 7441TIP3    H122268   3.175   4.881   2.855
 7441TIP3    H222269   3.316   4.884   2.910
 7442TIP3   OH222270   1.889   1.421   3.498
 7442TIP3    H122271   1.832   1.498   3.505
 7442TIP3    H222272   1.925   1.410   3.586
 7443TIP3   OH222273   0.734   5.948   4.731
 7443TIP3    H122274   0.694   5.864   4.708
 7443TIP3    H222275   0.699   6.010   4.667
 7444TIP3   OH222276   3.025   4.559   4.693
 7444TIP3    H122277   3.094   4.497   4.669
 7444TIP3    H222278   3.030   4.627   4.626
 7445TIP3   OH222279   5.635   0.576   2.083
 7445TIP3    H122280   5.700   0.517   2.046
 7445TIP3    H222281   5.551   0.544   2.049
 7446TIP3   OH222282   6.570   2.035   2.790
 7446TIP3    H122283   6.563   2.077   2.876
 7446TIP3    H222284   6.615   1.953   2.807
 7447TIP3   OH222285   7.776   4.514   3.441
 7447TIP3    H122286   7.725   4.588   3.408
 7447TIP3    H222287   7.814   4.546   3.523
 7448TIP3   OH222288   7.174   7.734   0.829
 7448TIP3    H122289   7.116   7.808   0.845
 7448TIP3    H222290   7.195   7.701   0.917
 7449TIP3   OH222291   1.797   7.441   0.470
 7449TIP3    H122292   1.858   7.515   0.469
 7449TIP3    H222293   1.834   7.380   0.534
 7450TIP3   OH222294   5.114   0.162   5.509
 7450TIP3    H122295   5.042   0.205   5.464
 7450TIP3    H222296   5.110   0.197   5.598
 7451TIP3   OH222297   1.553   5.173   0.026
 7451TIP3    H122298   1.555   5.262   0.060
 7451TIP3    H222299   1.466   5.141   0.048
 7452TIP3   OH222300   0.122   2.716   1.539
 7452TIP3    H122301   0.117   2.800   1.494
 7452TIP3    H222302   0.040   2.709   1.588
 7453TIP3   OH222303   6.557   3.179   0.207
 7453TIP3    H122304   6.485   3.186   0.269
 7453TIP3    H222305   6.552   3.259   0.155
 7454TIP3   OH222306   6.268   3.612   3.402
 7454TIP3    H122307   6.226   3.537   3.444
 7454TIP3    H222308   6.262   3.682   3.466
 7455TIP3   OH222309   7.456   0.868   1.760
 7455TIP3    H122310   7.364   0.879   1.781
 7455TIP3    H222311   7.503   0.899   1.837
 7456TIP3   OH222312   6.267   7.101   4.716
 7456TIP3    H122313   6.223   7.169   4.767
 7456TIP3    H222314   6.358   7.129   4.710
 7457TIP3   OH222315   6.820   4.252   5.966
 7457TIP3    H122316   6.765   4.175   5.952
 7457TIP3    H222317   6.877   4.255   5.889
 7458TIP3   OH222318   2.447   1.931   1.910
 7458TIP3    H122319   2.409   2.019   1.917
 7458TIP3    H222320   2.388   1.876   1.961
 7459TIP3   OH222321   8.006   5.509   2.871
 7459TIP3    H122322   7.912   5.504   2.887
 7459TIP3    H222323   8.040   5.562   2.943
 7460TIP3   OH222324   4.759   0.783   1.768
 7460TIP3    H122325   4.788   0.786   1.859
 7460TIP3    H222326   4.689   0.848   1.764
 7461TIP3   OH222327   0.870   3.127   0.886
 7461TIP3    H122328   0.866   3.215   0.849
 7461TIP3    H222329   0.786   3.088   0.863
 7462TIP3   OH222330   0.254   0.886   0.400
 7462TIP3    H122331   0.316   0.823   0.436
 7462TIP3    H222332   0.168   0.852   0.424
 7463TIP3   OH222333   4.302   1.060   1.897
 7463TIP3    H122334   4.218   1.017   1.912
 7463TIP3    H222335   4.304   1.131   1.962
 7464TIP3   OH222336   8.275   6.207   0.096
 7464TIP3    H122337   8.193   6.247   0.123
 7464TIP3    H222338   8.343   6.266   0.129
 7465TIP3   OH222339   2.996   2.149   3.608
 7465TIP3    H122340   2.943   2.218   3.568
 7465TIP3    H222341   3.069   2.136   3.547
 7466TIP3   OH222342   2.940   7.658   3.658
 7466TIP3    H122343   3.017   7.610   3.626
 7466TIP3    H222344   2.930   7.731   3.596
 7467TIP3   OH222345   1.862   0.118   4.488
 7467TIP3    H122346   1.930   0.053   4.469
 7467TIP3    H222347   1.850   0.165   4.406
 7468TIP3   OH222348   5.797   7.382   1.584
 7468TIP3    H122349   5.772   7.386   1.676
 7468TIP3    H222350   5.715   7.393   1.536
 7469TIP3   OH222351   4.642   2.644   0.240
 7469TIP3    H122352   4.651   2.700   0.163
 7469TIP3    H222353   4.657   2.703   0.314
 7470TIP3   OH222354   2.948   5.372   1.297
 7470TIP3    H122355   3.015   5.309   1.321
 7470TIP3    H222356   2.874   5.319   1.265
 7471TIP3   OH222357   0.541   5.926   3.451
 7471TIP3    H122358   0.520   5.873   3.528
 7471TIP3    H222359   0.610   5.985   3.481
 7472TIP3   OH222360   1.844   0.265   3.418
 7472TIP3    H122361   1.862   0.245   3.326
 7472TIP3    H222362   1.881   0.191   3.466
 7473TIP3   OH222363   2.816   3.678   6.187
 7473TIP3    H122364   2.750   3.619   6.150
 7473TIP3    H222365   2.880   3.690   6.117
 7474TIP3   OH222366   1.877   2.688   5.275
 7474TIP3    H122367   1.805   2.626   5.267
 7474TIP3    H222368   1.899   2.688   5.368
 7475TIP3   OH222369   5.934   4.288   3.284
 7475TIP3    H122370   5.857   4.290   3.341
 7475TIP3    H222371   5.980   4.208   3.308
 7476TIP3   OH222372   0.023   6.087   3.651
 7476TIP3    H122373   0.048   6.008   3.698
 7476TIP3    H222374   0.080   6.155   3.687
 7477TIP3   OH222375   5.103   1.772   5.076
 7477TIP3    H122376   5.187   1.811   5.100
 7477TIP3    H222377   5.064   1.834   5.014
 7478TIP3   OH222378   6.644   2.889   5.875
 7478TIP3    H122379   6.725   2.929   5.845
 7478TIP3    H222380   6.622   2.937   5.955
 7479TIP3   OH222381   7.717   1.914   5.299
 7479TIP3    H122382   7.729   1.967   5.220
 7479TIP3    H222383   7.806   1.900   5.332
 7480TIP3   OH222384   1.575   5.183   3.774
 7480TIP3    H122385   1.514   5.110   3.785
 7480TIP3    H222386   1.613   5.196   3.861
 7481TIP3   OH222387   6.919   3.915   5.970
 7481TIP3    H122388   6.891   3.829   5.938
 7481TIP3    H222389   6.839   3.968   5.968
 7482TIP3   OH222390   2.788   4.979   4.491
 7482TIP3    H122391   2.797   4.884   4.484
 7482TIP3    H222392   2.796   4.997   4.585
 7483TIP3   OH222393   4.506   4.373   4.231
 7483TIP3    H122394   4.581   4.377   4.172
 7483TIP3    H222395   4.448   4.309   4.192
 7484TIP3   OH222396   2.343   7.017   0.432
 7484TIP3    H122397   2.336   7.112   0.420
 7484TIP3    H222398   2.437   7.001   0.435
 7485TIP3   OH222399   6.578   3.270   6.017
 7485TIP3    H122400   6.569   3.219   5.936
 7485TIP3    H222401   6.668   3.253   6.046
 7486TIP3   OH222402   4.415   0.244   6.498
 7486TIP3    H122403   4.389   0.191   6.573
 7486TIP3    H222404   4.337   0.293   6.474
 7487TIP3   OH222405   0.532   6.155   3.696
 7487TIP3    H122406   0.501   6.237   3.735
 7487TIP3    H222407   0.570   6.181   3.612
 7488TIP3   OH222408   6.115   1.417   1.732
 7488TIP3    H122409   6.164   1.335   1.735
 7488TIP3    H222410   6.052   1.410   1.803
 7489TIP3   OH222411   5.849   0.173   5.264
 7489TIP3    H122412   5.789   0.139   5.330
 7489TIP3    H222413   5.818   0.135   5.182
 7490TIP3   OH222414   0.025   1.187   0.119
 7490TIP3    H122415   0.115   1.176   0.090
 7490TIP3    H222416  -0.022   1.112   0.080
 7491TIP3   OH222417   6.793   5.487   5.373
 7491TIP3    H122418   6.864   5.467   5.311
 7491TIP3    H222419   6.832   5.470   5.459
 7492TIP3   OH222420   5.357   5.238   2.705
 7492TIP3    H122421   5.393   5.191   2.630
 7492TIP3    H222422   5.359   5.330   2.679
 7493TIP3   OH222423   0.651   2.273   3.417
 7493TIP3    H122424   0.576   2.219   3.440
 7493TIP3    H222425   0.719   2.211   3.393
 7494TIP3   OH222426   3.545   6.606   5.819
 7494TIP3    H122427   3.587   6.543   5.760
 7494TIP3    H222428   3.452   6.585   5.812
 7495TIP3   OH222429   6.092   4.086   2.422
 7495TIP3    H122430   6.168   4.118   2.373
 7495TIP3    H222431   6.115   4.098   2.514
 7496TIP3   OH222432   3.903   2.502   4.148
 7496TIP3    H122433   3.881   2.595   4.147
 7496TIP3    H222434   3.846   2.464   4.216
 7497TIP3   OH222435   5.374   4.459   1.975
 7497TIP3    H122436   5.450   4.494   2.021
 7497TIP3    H222437   5.383   4.364   1.982
 7498TIP3   OH222438   2.395   4.027   0.711
 7498TIP3    H122439   2.474   3.976   0.696
 7498TIP3    H222440   2.421   4.118   0.696
 7499TIP3   OH222441   8.260   6.488   0.416
 7499TIP3    H122442   8.355   6.502   0.421
 7499TIP3    H222443   8.250   6.393   0.412
 7500TIP3   OH222444   4.488   1.641   4.892
 7500TIP3    H122445   4.506   1.578   4.823
 7500TIP3    H222446   4.408   1.608   4.935
 7501TIP3   OH222447   0.413   7.645   3.302
 7501TIP3    H122448   0.407   7.603   3.216
 7501TIP3    H222449   0.406   7.739   3.283
 7502TIP3   OH222450   7.373   6.073   5.059
 7502TIP3    H122451   7.297   6.130   5.057
 7502TIP3    H222452   7.401   6.074   5.151
 7503TIP3   OH222453   3.691   4.195   2.019
 7503TIP3    H122454   3.755   4.130   1.992
 7503TIP3    H222455   3.618   4.144   2.054
 7504TIP3   OH222456   4.785   5.232   2.120
 7504TIP3    H122457   4.693   5.216   2.141
 7504TIP3    H222458   4.801   5.322   2.150
 7505TIP3   OH222459   1.236   0.166   2.598
 7505TIP3    H122460   1.310   0.199   2.548
 7505TIP3    H222461   1.168   0.150   2.532
 7506TIP3   OH222462   3.001   7.498   4.457
 7506TIP3    H122463   3.040   7.543   4.532
 7506TIP3    H222464   2.957   7.422   4.495
 7507TIP3   OH222465   2.116   1.887   6.499
 7507TIP3    H122466   2.155   1.950   6.560
 7507TIP3    H222467   2.192   1.848   6.454
 7508TIP3   OH222468   1.613   3.746   3.633
 7508TIP3    H122469   1.695   3.763   3.679
 7508TIP3    H222470   1.593   3.654   3.652
 7509TIP3   OH222471  -0.005   4.231   5.236
 7509TIP3    H122472   0.076   4.182   5.222
 7509TIP3    H222473  -0.051   4.226   5.151
 7510TIP3   OH222474   1.914   6.853   2.817
 7510TIP3    H122475   1.935   6.809   2.899
 7510TIP3    H222476   1.999   6.883   2.784
 7511TIP3   OH222477   7.385   6.393   2.269
 7511TIP3    H122478   7.416   6.444   2.343
 7511TIP3    H222479   7.384   6.303   2.301
 7512TIP3   OH222480   7.915   2.537   3.517
 7512TIP3    H122481   7.925   2.590   3.438
 7512TIP3    H222482   7.968   2.459   3.501
 7513TIP3   OH222483   6.084   1.594   0.470
 7513TIP3    H122484   6.118   1.641   0.546
 7513TIP3    H222485   6.012   1.648   0.438
 7514TIP3   OH222486   0.439   1.796   2.221
 7514TIP3    H122487   0.494   1.736   2.270
 7514TIP3    H222488   0.377   1.740   2.174
 7515TIP3   OH222489   4.192   7.675   2.603
 7515TIP3    H122490   4.112   7.710   2.564
 7515TIP3    H222491   4.218   7.603   2.545
 7516TIP3   OH222492   6.275   7.626   2.905
 7516TIP3    H122493   6.241   7.623   2.816
 7516TIP3    H222494   6.340   7.556   2.909
 7517TIP3   OH222495   6.886   2.732   6.201
 7517TIP3    H122496   6.844   2.818   6.202
 7517TIP3    H222497   6.845   2.686   6.128
 7518TIP3   OH222498   0.155   4.465   5.638
 7518TIP3    H122499   0.237   4.417   5.629
 7518TIP3    H222500   0.115   4.461   5.551
 7519TIP3   OH222501   2.530   3.312   4.897
 7519TIP3    H122502   2.497   3.401   4.892
 7519TIP3    H222503   2.521   3.288   4.990
 7520TIP3   OH222504   1.186   4.540   5.898
 7520TIP3    H122505   1.158   4.508   5.812
 7520TIP3    H222506   1.117   4.601   5.924
 7521TIP3   OH222507   5.416   7.631   1.593
 7521TIP3    H122508   5.456   7.554   1.634
 7521TIP3    H222509   5.368   7.595   1.518
 7522TIP3   OH222510   2.188   4.888   1.406
 7522TIP3    H122511   2.226   4.966   1.446
 7522TIP3    H222512   2.263   4.837   1.376
 7523TIP3   OH222513   1.147   0.191   6.754
 7523TIP3    H122514   1.104   0.270   6.722
 7523TIP3    H222515   1.093   0.164   6.828
 7524TIP3   OH222516   0.200   5.161   2.972
 7524TIP3    H122517   0.264   5.176   3.042
 7524TIP3    H222518   0.119   5.198   3.007
 7525TIP3   OH222519   4.474   2.826   1.359
 7525TIP3    H122520   4.566   2.815   1.383
 7525TIP3    H222521   4.463   2.769   1.283
 7526TIP3   OH222522   2.599   5.589   2.547
 7526TIP3    H122523   2.623   5.553   2.632
 7526TIP3    H222524   2.509   5.560   2.532
 7527TIP3   OH222525   0.313   0.402   1.463
 7527TIP3    H122526   0.223   0.370   1.466
 7527TIP3    H222527   0.346   0.371   1.379
 7528TIP3   OH222528   7.706   4.165   0.336
 7528TIP3    H122529   7.630   4.221   0.352
 7528TIP3    H222530   7.670   4.090   0.289
 7529TIP3   OH222531   2.429   2.454   4.152
 7529TIP3    H122532   2.450   2.396   4.226
 7529TIP3    H222533   2.348   2.417   4.115
 7530TIP3   OH222534   8.235   4.868   2.805
 7530TIP3    H122535   8.231   4.871   2.709
 7530TIP3    H222536   8.328   4.864   2.826
 7531TIP3   OH222537   7.541   5.441   1.606
 7531TIP3    H122538   7.520   5.356   1.643
 7531TIP3    H222539   7.608   5.477   1.663
 7532TIP3   OH222540   7.228   6.613   1.481
 7532TIP3    H122541   7.132   6.612   1.487
 7532TIP3    H222542   7.245   6.592   1.389
 7533TIP3   OH222543   5.283   7.374   1.441
 7533TIP3    H122544   5.211   7.380   1.378
 7533TIP3    H222545   5.250   7.314   1.508
 7534TIP3   OH222546   5.717   6.460   6.446
 7534TIP3    H122547   5.751   6.383   6.401
 7534TIP3    H222548   5.630   6.433   6.477
 7535TIP3   OH222549   1.099   0.090   4.320
 7535TIP3    H122550   1.093   0.186   4.312
 7535TIP3    H222551   1.105   0.074   4.414
 7536TIP3   OH222552   0.677   5.110   6.375
 7536TIP3    H122553   0.635   5.173   6.316
 7536TIP3    H222554   0.769   5.110   6.348
 7537TIP3   OH222555   8.119   3.179   6.075
 7537TIP3    H122556   8.047   3.201   6.135
 7537TIP3    H222557   8.168   3.260   6.066
 7538TIP3   OH222558   4.632   3.133   2.994
 7538TIP3    H122559   4.647   3.095   3.080
 7538TIP3    H222560   4.580   3.211   3.011
 7539TIP3   OH222561   1.143   0.077   1.550
 7539TIP3    H122562   1.111   0.150   1.496
 7539TIP3    H222563   1.237   0.091   1.555
 7540TIP3   OH222564   6.773   1.723   2.049
 7540TIP3    H122565   6.739   1.682   1.969
 7540TIP3    H222566   6.694   1.749   2.097
 7541TIP3   OH222567   2.136   1.752   2.978
 7541TIP3    H122568   2.151   1.777   3.069
 7541TIP3    H222569   2.153   1.658   2.975
 7542TIP3   OH222570   4.213   6.687   2.238
 7542TIP3    H122571   4.171   6.699   2.323
 7542TIP3    H222572   4.304   6.711   2.252
 7543TIP3   OH222573   7.915   1.768   3.993
 7543TIP3    H122574   7.880   1.718   4.067
 7543TIP3    H222575   8.010   1.767   4.006
 7544TIP3   OH222576   3.916   2.901   2.418
 7544TIP3    H122577   3.838   2.867   2.461
 7544TIP3    H222578   3.965   2.944   2.488
 7545TIP3   OH222579   6.541   4.508   1.507
 7545TIP3    H122580   6.497   4.425   1.527
 7545TIP3    H222581   6.634   4.488   1.511
 7546TIP3   OH222582   4.145   3.465   5.597
 7546TIP3    H122583   4.172   3.549   5.561
 7546TIP3    H222584   4.064   3.443   5.550
 7547TIP3   OH222585   6.224   2.897   6.469
 7547TIP3    H122586   6.157   2.871   6.406
 7547TIP3    H222587   6.307   2.884   6.423
 7548TIP3   OH222588   2.042   2.074   1.348
 7548TIP3    H122589   2.133   2.089   1.320
 7548TIP3    H222590   1.990   2.130   1.290
 7549TIP3   OH222591   5.875   3.921   6.019
 7549TIP3    H122592   5.903   3.991   6.078
 7549TIP3    H222593   5.855   3.847   6.077
 7550TIP3   OH222594   7.194   2.862   5.630
 7550TIP3    H122595   7.267   2.885   5.573
 7550TIP3    H222596   7.236   2.834   5.711
 7551TIP3   OH222597   1.963   4.275   6.073
 7551TIP3    H122598   2.042   4.325   6.095
 7551TIP3    H222599   1.938   4.233   6.155
 7552TIP3   OH222600   0.539   1.642   3.590
 7552TIP3    H122601   0.449   1.610   3.586
 7552TIP3    H222602   0.568   1.643   3.499
 7553TIP3   OH222603   1.418   4.545   3.894
 7553TIP3    H122604   1.458   4.606   3.957
 7553TIP3    H222605   1.332   4.526   3.931
 7554TIP3   OH222606   3.994   1.313   2.461
 7554TIP3    H122607   4.045   1.283   2.386
 7554TIP3    H222608   3.961   1.398   2.435
 7555TIP3   OH222609   2.820   7.649   5.144
 7555TIP3    H122610   2.799   7.581   5.208
 7555TIP3    H222611   2.764   7.629   5.069
 7556TIP3   OH222612   0.361   0.177   4.704
 7556TIP3    H122613   0.343   0.090   4.740
 7556TIP3    H222614   0.360   0.165   4.609
 7557TIP3   OH222615   7.700   5.750   2.773
 7557TIP3    H122616   7.725   5.734   2.864
 7557TIP3    H222617   7.612   5.789   2.780
 7558TIP3   OH222618   2.034   5.995   4.722
 7558TIP3    H122619   2.067   6.056   4.788
 7558TIP3    H222620   1.969   6.046   4.673
 7559TIP3   OH222621   0.372   0.972   3.796
 7559TIP3    H122622   0.437   0.955   3.864
 7559TIP3    H222623   0.351   0.886   3.761
 7560TIP3   OH222624   1.949   2.991   5.645
 7560TIP3    H122625   1.854   2.996   5.656
 7560TIP3    H222626   1.984   3.035   5.723
 7561TIP3   OH222627   7.245   2.982   6.169
 7561TIP3    H122628   7.270   3.055   6.113
 7561TIP3    H222629   7.255   2.904   6.114
 7562TIP3   OH222630   1.032   4.799   1.998
 7562TIP3    H122631   1.097   4.737   2.032
 7562TIP3    H222632   0.955   4.746   1.980
 7563TIP3   OH222633   2.012   6.845   6.435
 7563TIP3    H122634   1.946   6.914   6.424
 7563TIP3    H222635   2.090   6.891   6.465
 7564TIP3   OH222636   2.254   4.679   0.812
 7564TIP3    H122637   2.297   4.762   0.791
 7564TIP3    H222638   2.297   4.615   0.755
 7565TIP3   OH222639   5.959   6.852   6.306
 7565TIP3    H122640   5.933   6.934   6.263
 7565TIP3    H222641   5.953   6.872   6.400
 7566TIP3   OH222642   3.665   2.584   2.710
 7566TIP3    H122643   3.630   2.498   2.729
 7566TIP3    H222644   3.617   2.643   2.769
 7567TIP3   OH222645   2.294   5.082   3.164
 7567TIP3    H122646   2.236   5.152   3.137
 7567TIP3    H222647   2.288   5.017   3.094
 7568TIP3   OH222648   4.321   5.079   4.334
 7568TIP3    H122649   4.385   5.130   4.383
 7568TIP3    H222650   4.373   5.021   4.278
 7569TIP3   OH222651   4.556   2.026   4.051
 7569TIP3    H122652   4.568   2.111   4.093
 7569TIP3    H222653   4.527   1.968   4.122
 7570TIP3   OH222654   2.185   5.638   6.124
 7570TIP3    H122655   2.152   5.630   6.034
 7570TIP3    H222656   2.177   5.549   6.159
 7571TIP3   OH222657   6.048   5.565   3.129
 7571TIP3    H122658   6.134   5.555   3.090
 7571TIP3    H222659   6.063   5.613   3.211
 7572TIP3   OH222660   2.716   0.411   3.476
 7572TIP3    H122661   2.701   0.345   3.408
 7572TIP3    H222662   2.681   0.492   3.438
 7573TIP3   OH222663   1.099   4.971   2.409
 7573TIP3    H122664   1.105   5.002   2.319
 7573TIP3    H222665   1.090   5.050   2.461
 7574TIP3   OH222666   4.864   6.466   5.235
 7574TIP3    H122667   4.838   6.438   5.323
 7574TIP3    H222668   4.805   6.538   5.215
 7575TIP3   OH222669   0.606   7.833   5.686
 7575TIP3    H122670   0.513   7.816   5.674
 7575TIP3    H222671   0.650   7.774   5.624
 7576TIP3   OH222672   1.771   2.008   2.838
 7576TIP3    H122673   1.742   1.917   2.845
 7576TIP3    H222674   1.835   2.018   2.909
 7577TIP3   OH222675   7.172   7.814   1.268
 7577TIP3    H122676   7.175   7.744   1.203
 7577TIP3    H222677   7.079   7.819   1.293
 7578TIP3   OH222678   2.492   4.319   1.170
 7578TIP3    H122679   2.465   4.248   1.228
 7578TIP3    H222680   2.470   4.287   1.082
 7579TIP3   OH222681   4.305   0.103   2.424
 7579TIP3    H122682   4.221   0.060   2.443
 7579TIP3    H222683   4.351   0.106   2.508
 7580TIP3   OH222684   0.275   7.232   1.359
 7580TIP3    H122685   0.319   7.225   1.274
 7580TIP3    H222686   0.183   7.244   1.338
 7581TIP3   OH222687   4.138   4.538   1.243
 7581TIP3    H122688   4.197   4.489   1.186
 7581TIP3    H222689   4.134   4.486   1.324
 7582TIP3   OH222690   7.119   6.138   6.584
 7582TIP3    H122691   7.144   6.051   6.614
 7582TIP3    H222692   7.023   6.135   6.578
 7583TIP3   OH222693   6.118   0.282   5.234
 7583TIP3    H122694   6.030   0.251   5.256
 7583TIP3    H222695   6.108   0.377   5.224
 7584TIP3   OH222696   8.096   5.846   2.868
 7584TIP3    H122697   8.122   5.934   2.841
 7584TIP3    H222698   8.059   5.806   2.789
 7585TIP3   OH222699   3.878   2.231   3.863
 7585TIP3    H122700   3.866   2.324   3.842
 7585TIP3    H222701   3.954   2.229   3.921
 7586TIP3   OH222702   0.822   4.134   4.323
 7586TIP3    H122703   0.852   4.208   4.271
 7586TIP3    H222704   0.902   4.093   4.356
 7587TIP3   OH222705   2.611   5.121   0.197
 7587TIP3    H122706   2.587   5.037   0.239
 7587TIP3    H222707   2.659   5.096   0.119
 7588TIP3   OH222708   2.693   4.452   5.230
 7588TIP3    H122709   2.640   4.460   5.151
 7588TIP3    H222710   2.684   4.360   5.255
 7589TIP3   OH222711   0.359   2.783   0.009
 7589TIP3    H122712   0.327   2.694  -0.008
 7589TIP3    H222713   0.303   2.815   0.080
 7590TIP3   OH222714   6.793   1.617   3.308
 7590TIP3    H122715   6.727   1.646   3.370
 7590TIP3    H222716   6.876   1.651   3.343
 7591TIP3   OH222717   0.203   6.128   1.265
 7591TIP3    H122718   0.173   6.173   1.344
 7591TIP3    H222719   0.279   6.178   1.237
 7592TIP3   OH222720   0.527   0.353   6.697
 7592TIP3    H122721   0.541   0.262   6.723
 7592TIP3    H222722   0.613   0.383   6.667
 7593TIP3   OH222723   1.080   7.697   1.694
 7593TIP3    H122724   1.166   7.720   1.730
 7593TIP3    H222725   1.090   7.606   1.666
 7594TIP3   OH222726   2.798   6.784   3.846
 7594TIP3    H122727   2.836   6.872   3.840
 7594TIP3    H222728   2.794   6.766   3.940
 7595TIP3   OH222729   4.107   2.220   3.359
 7595TIP3    H122730   4.110   2.312   3.385
 7595TIP3    H222731   4.195   2.187   3.379
 7596TIP3   OH222732   5.458   2.135   2.397
 7596TIP3    H122733   5.395   2.199   2.365
 7596TIP3    H222734   5.524   2.129   2.328
 7597TIP3   OH222735   4.920   7.324   3.333
 7597TIP3    H122736   4.845   7.272   3.361
 7597TIP3    H222737   4.884   7.383   3.267
 7598TIP3   OH222738   1.832   2.271   3.441
 7598TIP3    H122739   1.888   2.328   3.388
 7598TIP3    H222740   1.872   2.272   3.528
 7599TIP3   OH222741   0.318   7.505   5.196
 7599TIP3    H122742   0.262   7.429   5.216
 7599TIP3    H222743   0.348   7.490   5.107
 7600TIP3   OH222744   0.115   0.324   3.837
 7600TIP3    H122745   0.077   0.271   3.907
 7600TIP3    H222746   0.052   0.395   3.823
 7601TIP3   OH222747   1.846   2.742   2.263
 7601TIP3    H122748   1.818   2.750   2.172
 7601TIP3    H222749   1.895   2.822   2.280
 7602TIP3   OH222750   5.904   4.466   1.416
 7602TIP3    H122751   5.899   4.420   1.333
 7602TIP3    H222752   5.980   4.524   1.407
 7603TIP3   OH222753   7.756   1.534   4.264
 7603TIP3    H122754   7.815   1.512   4.191
 7603TIP3    H222755   7.758   1.457   4.321
 7604TIP3   OH222756   1.537   1.061   3.359
 7604TIP3    H122757   1.541   1.075   3.264
 7604TIP3    H222758   1.580   1.137   3.397
 7605TIP3   OH222759   5.544   6.281   2.958
 7605TIP3    H122760   5.516   6.350   3.019
 7605TIP3    H222761   5.523   6.316   2.872
 7606TIP3   OH222762   2.415   6.829   1.776
 7606TIP3    H122763   2.457   6.753   1.735
 7606TIP3    H222764   2.406   6.804   1.868
 7607TIP3   OH222765   5.262   7.156   2.562
 7607TIP3    H122766   5.174   7.179   2.531
 7607TIP3    H222767   5.313   7.237   2.552
 7608TIP3   OH222768   0.475   2.196   5.182
 7608TIP3    H122769   0.513   2.279   5.211
 7608TIP3    H222770   0.408   2.222   5.119
 7609TIP3   OH222771   7.947   5.769   4.551
 7609TIP3    H122772   8.036   5.805   4.550
 7609TIP3    H222773   7.914   5.791   4.638
 7610TIP3   OH222774   6.051   4.361   3.606
 7610TIP3    H122775   6.144   4.365   3.583
 7610TIP3    H222776   6.047   4.397   3.695
 7611TIP3   OH222777   5.880   6.487   1.957
 7611TIP3    H122778   5.879   6.569   1.907
 7611TIP3    H222779   5.790   6.455   1.953
 7612TIP3   OH222780   3.089   0.651   5.521
 7612TIP3    H122781   3.035   0.615   5.592
 7612TIP3    H222782   3.179   0.633   5.549
 7613TIP3   OH222783   2.145   0.906   2.611
 7613TIP3    H122784   2.174   0.829   2.563
 7613TIP3    H222785   2.053   0.918   2.586
 7614TIP3   OH222786   3.031   7.604   5.935
 7614TIP3    H122787   3.079   7.533   5.978
 7614TIP3    H222788   3.095   7.675   5.928
 7615TIP3   OH222789   0.882   2.952   3.927
 7615TIP3    H122790   0.921   2.932   4.012
 7615TIP3    H222791   0.949   2.928   3.863
 7616TIP3   OH222792   6.494   7.237   1.946
 7616TIP3    H122793   6.484   7.304   1.878
 7616TIP3    H222794   6.536   7.164   1.902
 7617TIP3   OH222795   1.893   0.510   0.530
 7617TIP3    H122796   1.861   0.421   0.518
 7617TIP3    H222797   1.888   0.548   0.442
 7618TIP3   OH222798   0.349   4.206   1.658
 7618TIP3    H122799   0.275   4.245   1.612
 7618TIP3    H222800   0.397   4.158   1.590
 7619TIP3   OH222801   4.906   6.923   5.258
 7619TIP3    H122802   4.929   6.965   5.174
 7619TIP3    H222803   4.867   6.994   5.310
 7620TIP3   OH222804   4.649   1.657   1.575
 7620TIP3    H122805   4.575   1.650   1.514
 7620TIP3    H222806   4.718   1.606   1.533
 7621TIP3   OH222807   7.800   0.205   4.738
 7621TIP3    H122808   7.709   0.179   4.753
 7621TIP3    H222809   7.802   0.237   4.647
 7622TIP3   OH222810   3.874   6.233   4.087
 7622TIP3    H122811   3.878   6.318   4.043
 7622TIP3    H222812   3.946   6.183   4.049
 7623TIP3   OH222813   5.558   5.107   5.418
 7623TIP3    H122814   5.622   5.150   5.474
 7623TIP3    H222815   5.600   5.101   5.333
 7624TIP3   OH222816   7.868   5.091   2.981
 7624TIP3    H122817   7.926   5.113   3.053
 7624TIP3    H222818   7.906   5.011   2.944
 7625TIP3   OH222819   3.525   4.156   0.683
 7625TIP3    H122820   3.528   4.121   0.773
 7625TIP3    H222821   3.493   4.245   0.693
 7626TIP3   OH222822   5.422   2.185   2.789
 7626TIP3    H122823   5.474   2.241   2.732
 7626TIP3    H222824   5.359   2.142   2.730
 7627TIP3   OH222825   2.941   2.185   6.622
 7627TIP3    H122826   2.846   2.199   6.617
 7627TIP3    H222827   2.977   2.241   6.553
 7628TIP3   OH222828   2.711   1.575   2.308
 7628TIP3    H122829   2.773   1.626   2.256
 7628TIP3    H222830   2.626   1.614   2.288
 7629TIP3   OH222831   8.328   6.626   3.751
 7629TIP3    H122832   8.277   6.550   3.726
 7629TIP3    H222833   8.270   6.701   3.736
 7630TIP3   OH222834   4.281   6.956   5.888
 7630TIP3    H122835   4.367   6.930   5.855
 7630TIP3    H222836   4.261   7.038   5.843
 7631TIP3   OH222837   2.740   0.725   5.387
 7631TIP3    H122838   2.757   0.643   5.434
 7631TIP3    H222839   2.645   0.725   5.373
 7632TIP3   OH222840   5.238   7.394   2.091
 7632TIP3    H122841   5.216   7.486   2.107
 7632TIP3    H222842   5.172   7.363   2.029
 7633TIP3   OH222843   3.343   7.169   1.462
 7633TIP3    H122844   3.414   7.139   1.405
 7633TIP3    H222845   3.269   7.112   1.440
 7634TIP3   OH222846   5.067   2.022   1.531
 7634TIP3    H122847   5.128   2.080   1.577
 7634TIP3    H222848   5.037   1.961   1.598
 7635TIP3   OH222849   2.862   2.608   2.226
 7635TIP3    H122850   2.877   2.702   2.218
 7635TIP3    H222851   2.776   2.593   2.187
 7636TIP3   OH222852   6.300   5.946   2.749
 7636TIP3    H122853   6.351   5.969   2.826
 7636TIP3    H222854   6.253   5.866   2.774
 7637TIP3   OH222855   5.732   7.658   3.307
 7637TIP3    H122856   5.766   7.570   3.295
 7637TIP3    H222857   5.673   7.651   3.382
 7638TIP3   OH222858   5.935   0.807   5.469
 7638TIP3    H122859   6.011   0.787   5.523
 7638TIP3    H222860   5.913   0.725   5.426
 7639TIP3   OH222861   5.263   3.959   2.790
 7639TIP3    H122862   5.347   3.914   2.804
 7639TIP3    H222863   5.231   3.924   2.707
 7640TIP3   OH222864   0.487   0.401   0.057
 7640TIP3    H122865   0.558   0.379  -0.003
 7640TIP3    H222866   0.526   0.462   0.119
 7641TIP3   OH222867   1.937   7.612   4.470
 7641TIP3    H122868   2.032   7.614   4.462
 7641TIP3    H222869   1.907   7.577   4.386
 7642TIP3   OH222870   5.954   3.625   3.467
 7642TIP3    H122871   5.997   3.541   3.454
 7642TIP3    H222872   5.967   3.644   3.559
 7643TIP3   OH222873   8.131   2.484   3.926
 7643TIP3    H122874   8.197   2.554   3.923
 7643TIP3    H222875   8.115   2.470   4.019
 7644TIP3   OH222876   0.096   3.486   4.105
 7644TIP3    H122877   0.112   3.398   4.072
 7644TIP3    H222878   0.174   3.507   4.157
 7645TIP3   OH222879   0.479   5.198   3.383
 7645TIP3    H122880   0.417   5.259   3.341
 7645TIP3    H222881   0.555   5.198   3.325
 7646TIP3   OH222882   3.890   2.207   2.432
 7646TIP3    H122883   3.959   2.256   2.387
 7646TIP3    H222884   3.903   2.227   2.524
 7647TIP3   OH222885   4.894   5.358   1.209
 7647TIP3    H122886   4.899   5.365   1.304
 7647TIP3    H222887   4.985   5.364   1.180
 7648TIP3   OH222888   6.053   1.490   0.135
 7648TIP3    H122889   6.005   1.408   0.124
 7648TIP3    H222890   6.136   1.464   0.175
 7649TIP3   OH222891   3.427   5.683   3.421
 7649TIP3    H122892   3.366   5.757   3.417
 7649TIP3    H222893   3.370   5.606   3.415
 7650TIP3   OH222894   6.070   1.092   3.023
 7650TIP3    H122895   6.160   1.086   3.056
 7650TIP3    H222896   6.046   1.184   3.037
 7651TIP3   OH222897   4.665   1.620   6.192
 7651TIP3    H122898   4.642   1.539   6.237
 7651TIP3    H222899   4.719   1.668   6.255
 7652TIP3   OH222900   4.154   0.384   6.489
 7652TIP3    H122901   4.099   0.323   6.440
 7652TIP3    H222902   4.172   0.455   6.427
 7653TIP3   OH222903   1.723   0.228   1.218
 7653TIP3    H122904   1.711   0.133   1.222
 7653TIP3    H222905   1.657   0.258   1.156
 7654TIP3   OH222906   3.689   1.536   0.789
 7654TIP3    H122907   3.660   1.458   0.741
 7654TIP3    H222908   3.610   1.590   0.796
 7655TIP3   OH222909   1.224   5.045   4.303
 7655TIP3    H122910   1.214   5.015   4.393
 7655TIP3    H222911   1.147   5.100   4.287
 7656TIP3   OH222912   1.448   6.421   6.111
 7656TIP3    H122913   1.360   6.410   6.074
 7656TIP3    H222914   1.503   6.362   6.060
 7657TIP3   OH222915   4.885   7.632   5.835
 7657TIP3    H122916   4.871   7.542   5.863
 7657TIP3    H222917   4.938   7.625   5.755
 7658TIP3   OH222918   8.100   6.242   4.636
 7658TIP3    H122919   8.135   6.171   4.689
 7658TIP3    H222920   8.034   6.200   4.580
 7659TIP3   OH222921   2.523   2.263   1.705
 7659TIP3    H122922   2.521   2.212   1.624
 7659TIP3    H222923   2.616   2.278   1.722
 7660TIP3   OH222924   7.497   6.768   6.100
 7660TIP3    H122925   7.433   6.839   6.105
 7660TIP3    H222926   7.560   6.798   6.034
 7661TIP3   OH222927   6.810   0.977   3.476
 7661TIP3    H122928   6.898   0.939   3.474
 7661TIP3    H222929   6.807   1.033   3.399
 7662TIP3   OH222930   0.310   0.407   2.760
 7662TIP3    H122931   0.240   0.345   2.778
 7662TIP3    H222932   0.360   0.368   2.689
 7663TIP3   OH222933   4.274   5.104   2.606
 7663TIP3    H122934   4.219   5.034   2.641
 7663TIP3    H222935   4.318   5.065   2.531
 7664TIP3   OH222936   8.150   2.418   3.669
 7664TIP3    H122937   8.144   2.506   3.631
 7664TIP3    H222938   8.120   2.429   3.759
 7665TIP3   OH222939   2.788   6.802   1.236
 7665TIP3    H122940   2.807   6.801   1.330
 7665TIP3    H222941   2.861   6.754   1.196
 7666TIP3   OH222942   7.959   3.534   2.527
 7666TIP3    H122943   7.922   3.451   2.497
 7666TIP3    H222944   7.957   3.590   2.449
 7667TIP3   OH222945   7.299   2.988   3.297
 7667TIP3    H122946   7.346   2.970   3.216
 7667TIP3    H222947   7.258   2.904   3.320
 7668TIP3   OH222948   8.036   7.417   1.409
 7668TIP3    H122949   8.015   7.376   1.494
 7668TIP3    H222950   7.966   7.388   1.351
 7669TIP3   OH222951   7.886   6.527   5.925
 7669TIP3    H122952   7.978   6.554   5.919
 7669TIP3    H222953   7.854   6.568   6.005
 7670TIP3   OH222954   3.640   0.651   3.113
 7670TIP3    H122955   3.703   0.711   3.153
 7670TIP3    H222956   3.680   0.628   3.029
 7671TIP3   OH222957   8.281   5.363   3.815
 7671TIP3    H122958   8.255   5.271   3.810
 7671TIP3    H222959   8.364   5.367   3.767
 7672TIP3   OH222960   7.897   7.034   0.512
 7672TIP3    H122961   7.822   7.039   0.570
 7672TIP3    H222962   7.872   7.088   0.436
 7673TIP3   OH222963   4.943   6.444   5.896
 7673TIP3    H122964   4.914   6.488   5.816
 7673TIP3    H222965   5.038   6.437   5.886
 7674TIP3   OH222966   5.270   5.212   3.982
 7674TIP3    H122967   5.296   5.304   3.992
 7674TIP3    H222968   5.353   5.164   3.984
 7675TIP3   OH222969   2.510   5.423   3.332
 7675TIP3    H122970   2.557   5.432   3.415
 7675TIP3    H222971   2.537   5.337   3.299
 7676TIP3   OH222972   7.115   0.382   5.786
 7676TIP3    H122973   7.024   0.357   5.802
 7676TIP3    H222974   7.116   0.415   5.696
 7677TIP3   OH222975   1.934   2.555   0.990
 7677TIP3    H122976   2.002   2.509   0.941
 7677TIP3    H222977   1.852   2.525   0.952
 7678TIP3   OH222978   0.263   7.253   5.047
 7678TIP3    H122979   0.335   7.216   5.099
 7678TIP3    H222980   0.260   7.199   4.968
 7679TIP3   OH222981   6.579   0.960   5.993
 7679TIP3    H122982   6.669   0.987   5.972
 7679TIP3    H222983   6.544   1.031   6.045
 7680TIP3   OH222984   4.694   2.161   2.707
 7680TIP3    H122985   4.598   2.158   2.705
 7680TIP3    H222986   4.717   2.121   2.791
 7681TIP3   OH222987   1.072   4.241   6.313
 7681TIP3    H122988   1.123   4.210   6.388
 7681TIP3    H222989   1.085   4.336   6.313
 7682TIP3   OH222990   5.245   1.287   1.502
 7682TIP3    H122991   5.265   1.360   1.444
 7682TIP3    H222992   5.246   1.326   1.590
 7683TIP3   OH222993   7.405   1.762   5.774
 7683TIP3    H122994   7.328   1.707   5.760
 7683TIP3    H222995   7.370   1.846   5.805
 7684TIP3   OH222996   0.284   6.443   1.100
 7684TIP3    H122997   0.205   6.429   1.049
 7684TIP3    H222998   0.356   6.420   1.040
 7685TIP3   OH222999   0.675   6.023   0.763
 7685TIP3    H123000   0.683   6.070   0.846
 7685TIP3    H223001   0.764   6.024   0.726
 7686TIP3   OH223002   2.711   6.116   3.985
 7686TIP3    H123003   2.638   6.151   4.035
 7686TIP3    H223004   2.672   6.086   3.903
 7687TIP3   OH223005   0.069   1.766   1.492
 7687TIP3    H123006   0.127   1.732   1.560
 7687TIP3    H223007   0.104   1.853   1.472
 7688TIP3   OH223008   7.194   6.126   6.055
 7688TIP3    H123009   7.129   6.196   6.060
 7688TIP3    H223010   7.275   6.166   6.088
 7689TIP3   OH223011   1.768   7.823   4.788
 7689TIP3    H123012   1.688   7.779   4.817
 7689TIP3    H223013   1.755   7.837   4.695
 7690TIP3   OH223014   7.959   4.987   3.936
 7690TIP3    H123015   7.910   4.990   4.018
 7690TIP3    H223016   7.901   4.939   3.876
 7691TIP3   OH223017   2.456   7.188   5.928
 7691TIP3    H123018   2.533   7.244   5.924
 7691TIP3    H223019   2.392   7.231   5.871
 7692TIP3   OH223020   8.042   6.685   4.025
 7692TIP3    H123021   7.991   6.632   3.965
 7692TIP3    H223022   7.988   6.691   4.104
 7693TIP3   OH223023   1.653   2.123   0.923
 7693TIP3    H123024   1.573   2.076   0.945
 7693TIP3    H223025   1.638   2.213   0.953
 7694TIP3   OH223026   1.983   5.254   2.645
 7694TIP3    H123027   1.994   5.175   2.699
 7694TIP3    H223028   1.954   5.321   2.706
 7695TIP3   OH223029   3.073   4.601   5.971
 7695TIP3    H123030   2.977   4.601   5.969
 7695TIP3    H223031   3.098   4.692   5.962
 7696TIP3   OH223032   4.868   0.354   6.244
 7696TIP3    H123033   4.788   0.349   6.295
 7696TIP3    H223034   4.927   0.291   6.286
 7697TIP3   OH223035   5.489   4.747   0.581
 7697TIP3    H123036   5.454   4.688   0.513
 7697TIP3    H223037   5.443   4.829   0.568
 7698TIP3   OH223038   5.168   4.278   2.455
 7698TIP3    H123039   5.134   4.205   2.403
 7698TIP3    H223040   5.253   4.298   2.416
 7699TIP3   OH223041   8.316   3.302   2.957
 7699TIP3    H123042   8.237   3.270   2.999
 7699TIP3    H223043   8.323   3.251   2.876
 7700TIP3   OH223044   8.238   7.472   4.837
 7700TIP3    H123045   8.165   7.526   4.868
 7700TIP3    H223046   8.255   7.412   4.910
 7701TIP3   OH223047   7.570   1.268   6.259
 7701TIP3    H123048   7.519   1.342   6.291
 7701TIP3    H223049   7.524   1.191   6.291
 7702TIP3   OH223050   1.186   3.076   6.590
 7702TIP3    H123051   1.175   2.982   6.607
 7702TIP3    H223052   1.200   3.115   6.676
 7703TIP3   OH223053   5.995   6.929   6.561
 7703TIP3    H123054   6.088   6.932   6.537
 7703TIP3    H223055   5.991   6.871   6.637
 7704TIP3   OH223056   1.274   4.790   0.034
 7704TIP3    H123057   1.183   4.765   0.045
 7704TIP3    H223058   1.312   4.719  -0.018
 7705TIP3   OH223059   2.856   6.400   5.037
 7705TIP3    H123060   2.779   6.399   5.094
 7705TIP3    H223061   2.896   6.486   5.053
 7706TIP3   OH223062   4.115   1.585   2.008
 7706TIP3    H123063   4.134   1.661   1.953
 7706TIP3    H223064   4.020   1.574   2.000
 7707TIP3   OH223065   4.515   4.272   1.347
 7707TIP3    H123066   4.593   4.239   1.391
 7707TIP3    H223067   4.527   4.246   1.255
 7708TIP3   OH223068   1.285   0.650   5.144
 7708TIP3    H123069   1.210   0.609   5.187
 7708TIP3    H223070   1.353   0.583   5.145
 7709TIP3   OH223071   0.336   0.679   1.548
 7709TIP3    H123072   0.378   0.687   1.634
 7709TIP3    H223073   0.342   0.586   1.527
 7710TIP3   OH223074   8.032   4.391   3.896
 7710TIP3    H123075   8.109   4.344   3.930
 7710TIP3    H223076   7.960   4.329   3.907
 7711TIP3   OH223077   6.737   1.953   3.807
 7711TIP3    H123078   6.803   1.952   3.876
 7711TIP3    H223079   6.761   1.880   3.749
 7712TIP3   OH223080   0.721   2.068   5.423
 7712TIP3    H123081   0.816   2.079   5.416
 7712TIP3    H223082   0.690   2.150   5.460
 7713TIP3   OH223083   0.063   1.573   2.426
 7713TIP3    H123084  -0.018   1.542   2.385
 7713TIP3    H223085   0.127   1.506   2.405
 7714TIP3   OH223086   2.388   4.166   2.740
 7714TIP3    H123087   2.448   4.223   2.788
 7714TIP3    H223088   2.308   4.218   2.731
 7715TIP3   OH223089   3.065   3.069   4.599
 7715TIP3    H123090   3.032   3.023   4.521
 7715TIP3    H223091   3.116   3.003   4.646
 7716TIP3   OH223092   1.641   5.085   4.457
 7716TIP3    H123093   1.695   5.013   4.489
 7716TIP3    H223094   1.598   5.051   4.380
 7717TIP3   OH223095   5.460   1.246   3.250
 7717TIP3    H123096   5.453   1.340   3.234
 7717TIP3    H223097   5.417   1.205   3.175
 7718TIP3   OH223098   7.094   0.348   1.216
 7718TIP3    H123099   7.088   0.254   1.197
 7718TIP3    H223100   7.018   0.366   1.271
 7719TIP3   OH223101   7.678   4.356   2.359
 7719TIP3    H123102   7.710   4.341   2.270
 7719TIP3    H223103   7.683   4.270   2.401
 7720TIP3   OH223104   0.795   2.309   4.022
 7720TIP3    H123105   0.729   2.306   3.953
 7720TIP3    H223106   0.745   2.295   4.103
 7721TIP3   OH223107   3.718   2.400   6.161
 7721TIP3    H123108   3.625   2.381   6.147
 7721TIP3    H223109   3.720   2.459   6.236
 7722TIP3   OH223110   5.366   5.495   3.063
 7722TIP3    H123111   5.340   5.404   3.056
 7722TIP3    H223112   5.296   5.544   3.021
 7723TIP3   OH223113   8.203   2.018   5.122
 7723TIP3    H123114   8.249   2.092   5.161
 7723TIP3    H223115   8.222   2.025   5.028
 7724TIP3   OH223116   1.922   4.020   0.167
 7724TIP3    H123117   2.013   4.046   0.185
 7724TIP3    H223118   1.881   4.099   0.132
 7725TIP3   OH223119   1.182   7.291   6.039
 7725TIP3    H123120   1.189   7.383   6.012
 7725TIP3    H223121   1.174   7.243   5.957
 7726TIP3   OH223122   7.803   3.107   0.165
 7726TIP3    H123123   7.798   3.021   0.207
 7726TIP3    H223124   7.751   3.098   0.085
 7727TIP3   OH223125   7.242   5.357   4.658
 7727TIP3    H123126   7.294   5.433   4.631
 7727TIP3    H223127   7.156   5.371   4.618
 7728TIP3   OH223128   2.484   2.783   2.095
 7728TIP3    H123129   2.497   2.854   2.157
 7728TIP3    H223130   2.506   2.820   2.009
 7729TIP3   OH223131   4.604   5.717   5.673
 7729TIP3    H123132   4.597   5.798   5.724
 7729TIP3    H223133   4.616   5.648   5.739
 7730TIP3   OH223134   1.530   5.271   6.198
 7730TIP3    H123135   1.599   5.224   6.151
 7730TIP3    H223136   1.490   5.327   6.132
 7731TIP3   OH223137   0.080   5.418   4.266
 7731TIP3    H123138   0.079   5.327   4.237
 7731TIP3    H223139   0.165   5.428   4.310
 7732TIP3   OH223140   2.702   3.477   2.531
 7732TIP3    H123141   2.669   3.455   2.618
 7732TIP3    H223142   2.789   3.514   2.546
 7733TIP3   OH223143   4.789   6.241   0.433
 7733TIP3    H123144   4.811   6.253   0.341
 7733TIP3    H223145   4.717   6.303   0.449
 7734TIP3   OH223146   2.219   6.982   6.544
 7734TIP3    H123147   2.247   6.925   6.615
 7734TIP3    H223148   2.290   6.977   6.480
 7735TIP3   OH223149   4.983   4.021   0.114
 7735TIP3    H123150   5.059   3.964   0.116
 7735TIP3    H223151   4.992   4.077   0.190
 7736TIP3   OH223152   3.699   5.258   5.069
 7736TIP3    H123153   3.717   5.179   5.120
 7736TIP3    H223154   3.745   5.243   4.986
 7737TIP3   OH223155   7.207   0.140   5.728
 7737TIP3    H123156   7.184   0.113   5.639
 7737TIP3    H223157   7.212   0.235   5.724
 7738TIP3   OH223158   7.878   6.783   3.116
 7738TIP3    H123159   7.971   6.809   3.123
 7738TIP3    H223160   7.843   6.840   3.048
 7739TIP3   OH223161   0.697   7.416   6.628
 7739TIP3    H123162   0.659   7.470   6.697
 7739TIP3    H223163   0.646   7.437   6.550
 7740TIP3   OH223164   4.618   6.316   2.581
 7740TIP3    H123165   4.574   6.260   2.646
 7740TIP3    H223166   4.547   6.354   2.530
 7741TIP3   OH223167   6.461   0.691   1.958
 7741TIP3    H123168   6.538   0.730   1.917
 7741TIP3    H223169   6.474   0.597   1.951
 7742TIP3   OH223170   0.764   0.842   0.664
 7742TIP3    H123171   0.759   0.746   0.665
 7742TIP3    H223172   0.711   0.870   0.739
 7743TIP3   OH223173   6.110   5.582   3.638
 7743TIP3    H123174   6.090   5.489   3.630
 7743TIP3    H223175   6.077   5.606   3.725
 7744TIP3   OH223176   4.627   4.187   1.976
 7744TIP3    H123177   4.584   4.194   1.891
 7744TIP3    H223178   4.595   4.262   2.026
 7745TIP3   OH223179   5.546   2.994   3.948
 7745TIP3    H123180   5.586   2.968   4.031
 7745TIP3    H223181   5.547   2.914   3.895
 7746TIP3   OH223182   7.992   5.528   6.560
 7746TIP3    H123183   7.931   5.600   6.545
 7746TIP3    H223184   7.940   5.449   6.542
 7747TIP3   OH223185   1.493   1.078   3.653
 7747TIP3    H123186   1.523   1.036   3.573
 7747TIP3    H223187   1.423   1.022   3.685
 7748TIP3   OH223188   1.684   7.745   0.553
 7748TIP3    H123189   1.759   7.805   0.553
 7748TIP3    H223190   1.712   7.673   0.496
 7749TIP3   OH223191   3.853   2.315   3.327
 7749TIP3    H123192   3.857   2.385   3.391
 7749TIP3    H223193   3.945   2.300   3.303
 7750TIP3   OH223194   1.177   0.372   4.308
 7750TIP3    H123195   1.191   0.362   4.213
 7750TIP3    H223196   1.265   0.376   4.344
 7751TIP3   OH223197   1.493   1.651   1.548
 7751TIP3    H123198   1.401   1.625   1.539
 7751TIP3    H223199   1.490   1.731   1.602
 7752TIP3   OH223200   1.034   7.355   2.049
 7752TIP3    H123201   1.002   7.389   2.132
 7752TIP3    H223202   1.035   7.430   1.990
 7753TIP3   OH223203   4.697   0.506   1.741
 7753TIP3    H123204   4.696   0.598   1.770
 7753TIP3    H223205   4.714   0.456   1.821
 7754TIP3   OH223206   2.044   4.044   5.929
 7754TIP3    H123207   2.004   4.112   5.983
 7754TIP3    H223208   2.122   4.086   5.892
 7755TIP3   OH223209   2.782   0.719   1.776
 7755TIP3    H123210   2.834   0.755   1.705
 7755TIP3    H223211   2.781   0.625   1.759
 7756TIP3   OH223212   0.584   4.878   5.276
 7756TIP3    H123213   0.615   4.964   5.248
 7756TIP3    H223214   0.633   4.861   5.357
 7757TIP3   OH223215   5.403   1.389   4.119
 7757TIP3    H123216   5.445   1.474   4.133
 7757TIP3    H223217   5.341   1.381   4.192
 7758TIP3   OH223218   8.244   5.523   0.111
 7758TIP3    H123219   8.339   5.534   0.116
 7758TIP3    H223220   8.215   5.590   0.049
 7759TIP3   OH223221   3.058   6.799   1.943
 7759TIP3    H123222   3.033   6.884   1.907
 7759TIP3    H223223   3.145   6.783   1.907
 7760TIP3   OH223224   0.918   4.466   1.288
 7760TIP3    H123225   0.894   4.554   1.317
 7760TIP3    H223226   0.837   4.431   1.249
 7761TIP3   OH223227   2.022   4.018   4.812
 7761TIP3    H123228   1.956   3.950   4.803
 7761TIP3    H223229   2.076   4.009   4.733
 7762TIP3   OH223230   7.257   2.327   4.502
 7762TIP3    H123231   7.327   2.350   4.441
 7762TIP3    H223232   7.178   2.325   4.448
 7763TIP3   OH223233   4.158   0.881   5.532
 7763TIP3    H123234   4.159   0.966   5.577
 7763TIP3    H223235   4.075   0.881   5.484
 7764TIP3   OH223236   0.245   1.204   5.403
 7764TIP3    H123237   0.152   1.213   5.382
 7764TIP3    H223238   0.284   1.167   5.324
 7765TIP3   OH223239   1.839   7.002   2.612
 7765TIP3    H123240   1.792   6.947   2.549
 7765TIP3    H223241   1.846   6.948   2.690
 7766TIP3   OH223242   7.899   1.473   3.541
 7766TIP3    H123243   7.928   1.474   3.632
 7766TIP3    H223244   7.817   1.522   3.542
 7767TIP3   OH223245   0.405   7.500   4.946
 7767TIP3    H123246   0.338   7.463   4.888
 7767TIP3    H223247   0.443   7.572   4.895
 7768TIP3   OH223248   2.584   7.312   3.525
 7768TIP3    H123249   2.580   7.408   3.528
 7768TIP3    H223250   2.495   7.284   3.548
 7769TIP3   OH223251   8.097   0.719   2.634
 7769TIP3    H123252   8.076   0.766   2.553
 7769TIP3    H223253   8.119   0.787   2.697
 7770TIP3   OH223254   7.783   1.184   5.518
 7770TIP3    H123255   7.751   1.271   5.538
 7770TIP3    H223256   7.704   1.132   5.504
 7771TIP3   OH223257   6.114   4.543   1.192
 7771TIP3    H123258   6.053   4.481   1.153
 7771TIP3    H223259   6.198   4.524   1.151
 7772TIP3   OH223260   2.699   6.772   2.768
 7772TIP3    H123261   2.676   6.815   2.686
 7772TIP3    H223262   2.671   6.682   2.757
 7773TIP3   OH223263   5.627   2.888   5.759
 7773TIP3    H123264   5.682   2.820   5.799
 7773TIP3    H223265   5.538   2.853   5.764
 7774TIP3   OH223266   3.583   0.143   0.223
 7774TIP3    H123267   3.650   0.095   0.175
 7774TIP3    H223268   3.522   0.076   0.254
 7775TIP3   OH223269   5.772   5.597   4.227
 7775TIP3    H123270   5.853   5.575   4.272
 7775TIP3    H223271   5.719   5.517   4.231
 7776TIP3   OH223272   7.001   3.820   1.976
 7776TIP3    H123273   6.985   3.757   2.046
 7776TIP3    H223274   7.055   3.772   1.913
 7777TIP3   OH223275   6.058   0.532   6.216
 7777TIP3    H123276   5.986   0.481   6.252
 7777TIP3    H223277   6.067   0.502   6.126
 7778TIP3   OH223278   4.422   6.191   2.788
 7778TIP3    H123279   4.407   6.176   2.882
 7778TIP3    H223280   4.393   6.281   2.773
 7779TIP3   OH223281   5.770   4.243   1.850
 7779TIP3    H123282   5.686   4.246   1.894
 7779TIP3    H223283   5.780   4.331   1.811
 7780TIP3   OH223284   3.332   4.089   2.992
 7780TIP3    H123285   3.321   3.995   2.973
 7780TIP3    H223286   3.243   4.122   3.000
 7781TIP3   OH223287   6.280   0.865   6.665
 7781TIP3    H123288   6.338   0.918   6.610
 7781TIP3    H223289   6.283   0.908   6.751
 7782TIP3   OH223290   7.164   5.910   1.355
 7782TIP3    H123291   7.184   5.986   1.411
 7782TIP3    H223292   7.215   5.839   1.393
 7783TIP3   OH223293   3.045   4.793   4.527
 7783TIP3    H123294   2.995   4.777   4.447
 7783TIP3    H223295   3.130   4.825   4.497
 7784TIP3   OH223296   4.336   7.402   5.177
 7784TIP3    H123297   4.409   7.343   5.194
 7784TIP3    H223298   4.346   7.471   5.243
 7785TIP3   OH223299   3.752   1.981   2.368
 7785TIP3    H123300   3.784   2.068   2.390
 7785TIP3    H223301   3.675   1.969   2.422
 7786TIP3   OH223302   0.825   3.450   1.703
 7786TIP3    H123303   0.868   3.448   1.618
 7786TIP3    H223304   0.897   3.453   1.766
 7787TIP3   OH223305   4.789   3.970   6.215
 7787TIP3    H123306   4.770   4.062   6.231
 7787TIP3    H223307   4.797   3.931   6.302
 7788TIP3   OH223308   4.271   1.361   1.963
 7788TIP3    H123309   4.225   1.445   1.958
 7788TIP3    H223310   4.363   1.383   1.945
 7789TIP3   OH223311   2.989   0.646   1.069
 7789TIP3    H123312   3.013   0.737   1.054
 7789TIP3    H223313   2.893   0.645   1.066
 7790TIP3   OH223314   1.350   1.534   0.350
 7790TIP3    H123315   1.399   1.569   0.276
 7790TIP3    H223316   1.345   1.440   0.334
 7791TIP3   OH223317   3.256   3.494   3.569
 7791TIP3    H123318   3.250   3.589   3.564
 7791TIP3    H223319   3.226   3.473   3.658
 7792TIP3   OH223320   0.390   1.166   5.166
 7792TIP3    H123321   0.462   1.218   5.130
 7792TIP3    H223322   0.319   1.177   5.102
 7793TIP3   OH223323   1.047   2.196   5.904
 7793TIP3    H123324   1.119   2.137   5.924
 7793TIP3    H223325   1.090   2.274   5.868
 7794TIP3   OH223326   3.257   7.733   1.682
 7794TIP3    H123327   3.205   7.792   1.627
 7794TIP3    H223328   3.316   7.690   1.621
 7795TIP3   OH223329   0.865   7.536   6.233
 7795TIP3    H123330   0.900   7.517   6.320
 7795TIP3    H223331   0.811   7.460   6.212
 7796TIP3   OH223332   7.151   3.791   2.265
 7796TIP3    H123333   7.234   3.825   2.231
 7796TIP3    H223334   7.112   3.746   2.190
 7797TIP3   OH223335   5.675   6.544   2.283
 7797TIP3    H123336   5.685   6.616   2.345
 7797TIP3    H223337   5.646   6.586   2.202
 7798TIP3   OH223338   4.253   4.229   1.909
 7798TIP3    H123339   4.253   4.197   1.999
 7798TIP3    H223340   4.165   4.265   1.897
 7799TIP3   OH223341   6.630   1.936   2.531
 7799TIP3    H123342   6.580   2.008   2.570
 7799TIP3    H223343   6.678   1.899   2.605
 7800TIP3   OH223344   6.936   3.014   6.590
 7800TIP3    H123345   6.891   3.097   6.609
 7800TIP3    H223346   7.005   3.038   6.528
 7801TIP3   OH223347   7.871   1.879   2.550
 7801TIP3    H123348   7.828   1.908   2.631
 7801TIP3    H223349   7.936   1.947   2.532
 7802TIP3   OH223350   1.096   0.551   6.289
 7802TIP3    H123351   1.068   0.604   6.364
 7802TIP3    H223352   1.042   0.472   6.295
 7803TIP3   OH223353   3.884   6.952   2.083
 7803TIP3    H123354   3.829   6.894   2.135
 7803TIP3    H223355   3.960   6.969   2.138
 7804TIP3   OH223356   3.278   1.926   6.647
 7804TIP3    H123357   3.320   2.003   6.610
 7804TIP3    H223358   3.284   1.860   6.579
 7805TIP3   OH223359   6.929   5.720   3.333
 7805TIP3    H123360   6.974   5.797   3.367
 7805TIP3    H223361   6.841   5.750   3.313
 7806TIP3   OH223362   6.096   7.435   3.699
 7806TIP3    H123363   6.049   7.498   3.755
 7806TIP3    H223364   6.042   7.429   3.620
 7807TIP3   OH223365   0.322   1.828   4.514
 7807TIP3    H123366   0.288   1.842   4.426
 7807TIP3    H223367   0.416   1.812   4.502
 7808TIP3   OH223368   6.570   0.468   2.664
 7808TIP3    H123369   6.565   0.452   2.759
 7808TIP3    H223370   6.486   0.510   2.643
 7809TIP3   OH223371   2.380   2.861   6.479
 7809TIP3    H123372   2.309   2.913   6.440
 7809TIP3    H223373   2.346   2.771   6.479
 7810TIP3   OH223374   0.398   4.501   3.290
 7810TIP3    H123375   0.477   4.448   3.302
 7810TIP3    H223376   0.401   4.527   3.198
 7811TIP3   OH223377   7.219   5.837   4.694
 7811TIP3    H123378   7.153   5.901   4.668
 7811TIP3    H223379   7.295   5.857   4.640
 7812TIP3   OH223380   6.076   3.983   3.419
 7812TIP3    H123381   5.987   3.999   3.389
 7812TIP3    H223382   6.070   3.901   3.469
 7813TIP3   OH223383   3.423   3.465   4.821
 7813TIP3    H123384   3.391   3.553   4.838
 7813TIP3    H223385   3.496   3.478   4.760
 7814TIP3   OH223386   4.060   4.109   0.795
 7814TIP3    H123387   4.108   4.188   0.771
 7814TIP3    H223388   3.976   4.118   0.750
 7815TIP3   OH223389   3.408   3.848   6.634
 7815TIP3    H123390   3.470   3.921   6.626
 7815TIP3    H223391   3.384   3.848   6.727
 7816TIP3   OH223392   2.776   7.765   1.947
 7816TIP3    H123393   2.799   7.694   2.007
 7816TIP3    H223394   2.832   7.837   1.973
 7817TIP3   OH223395   5.322   0.933   2.222
 7817TIP3    H123396   5.321   1.026   2.246
 7817TIP3    H223397   5.231   0.904   2.231
 7818TIP3   OH223398   1.094   0.319   1.386
 7818TIP3    H123399   1.152   0.362   1.323
 7818TIP3    H223400   1.081   0.383   1.456
 7819TIP3   OH223401   4.191   7.694   6.719
 7819TIP3    H123402   4.096   7.706   6.712
 7819TIP3    H223403   4.228   7.768   6.671
 7820TIP3   OH223404   0.519   4.871   3.439
 7820TIP3    H123405   0.460   4.944   3.458
 7820TIP3    H223406   0.516   4.816   3.517
 7821TIP3   OH223407   0.491   0.487   4.053
 7821TIP3    H123408   0.552   0.537   4.108
 7821TIP3    H223409   0.461   0.415   4.109
 7822TIP3   OH223410   4.742   4.096   1.538
 7822TIP3    H123411   4.763   4.176   1.585
 7822TIP3    H223412   4.783   4.107   1.452
 7823TIP3   OH223413   1.112   2.761   1.769
 7823TIP3    H123414   1.053   2.724   1.834
 7823TIP3    H223415   1.053   2.802   1.705
 7824TIP3   OH223416   5.871   1.408   2.441
 7824TIP3    H123417   5.858   1.320   2.475
 7824TIP3    H223418   5.943   1.444   2.492
 7825TIP3   OH223419   6.862   6.131   5.210
 7825TIP3    H123420   6.847   6.079   5.290
 7825TIP3    H223421   6.796   6.200   5.215
 7826TIP3   OH223422   2.078   3.946   1.920
 7826TIP3    H123423   2.027   4.012   1.966
 7826TIP3    H223424   2.121   3.897   1.990
 7827TIP3   OH223425   5.437   5.839   1.761
 7827TIP3    H123426   5.470   5.763   1.714
 7827TIP3    H223427   5.352   5.812   1.795
 7828TIP3   OH223428   7.299   6.965   1.746
 7828TIP3    H123429   7.387   6.988   1.717
 7828TIP3    H223430   7.250   7.047   1.740
 7829TIP3   OH223431   5.746   4.095   6.522
 7829TIP3    H123432   5.679   4.151   6.561
 7829TIP3    H223433   5.707   4.064   6.440
 7830TIP3   OH223434   7.626   5.910   5.650
 7830TIP3    H123435   7.671   5.985   5.611
 7830TIP3    H223436   7.577   5.871   5.578
 7831TIP3   OH223437   3.884   2.330   6.376
 7831TIP3    H123438   3.861   2.375   6.295
 7831TIP3    H223439   3.941   2.258   6.349
 7832TIP3   OH223440   2.934   6.698   4.863
 7832TIP3    H123441   2.981   6.693   4.780
 7832TIP3    H223442   2.868   6.767   4.850
 7833TIP3   OH223443   4.997   5.220   5.317
 7833TIP3    H123444   4.977   5.281   5.389
 7833TIP3    H223445   5.084   5.245   5.288
 7834TIP3   OH223446   7.633   3.591   5.071
 7834TIP3    H123447   7.654   3.601   5.163
 7834TIP3    H223448   7.590   3.673   5.047
 7835TIP3   OH223449   4.484   6.720   1.036
 7835TIP3    H123450   4.425   6.651   1.067
 7835TIP3    H223451   4.439   6.758   0.960
 7836TIP3   OH223452   3.843   5.199   3.448
 7836TIP3    H123453   3.820   5.131   3.385
 7836TIP3    H223454   3.769   5.260   3.445
 7837TIP3   OH223455   3.888   4.014   4.458
 7837TIP3    H123456   3.893   4.107   4.480
 7837TIP3    H223457   3.979   3.984   4.457
 7838TIP3   OH223458   5.380   6.980   6.288
 7838TIP3    H123459   5.441   7.037   6.242
 7838TIP3    H223460   5.302   6.977   6.231
 7839TIP3   OH223461   7.633   5.135   4.396
 7839TIP3    H123462   7.564   5.106   4.455
 7839TIP3    H223463   7.604   5.106   4.309
 7840TIP3   OH223464   0.267   5.396   5.551
 7840TIP3    H123465   0.247   5.302   5.549
 7840TIP3    H223466   0.353   5.400   5.592
 7841TIP3   OH223467   5.373   6.238   5.114
 7841TIP3    H123468   5.282   6.266   5.114
 7841TIP3    H223469   5.411   6.277   5.193
 7842TIP3   OH223470   2.071   4.552   1.835
 7842TIP3    H123471   2.035   4.593   1.913
 7842TIP3    H223472   2.118   4.622   1.790
 7843TIP3   OH223473   6.547   3.271   1.602
 7843TIP3    H123474   6.590   3.188   1.623
 7843TIP3    H223475   6.473   3.274   1.662
 7844TIP3   OH223476   6.436   5.395   6.558
 7844TIP3    H123477   6.347   5.383   6.592
 7844TIP3    H223478   6.481   5.314   6.580
 7845TIP3   OH223479   7.601   0.851   3.618
 7845TIP3    H123480   7.590   0.759   3.642
 7845TIP3    H223481   7.545   0.863   3.542
 7846TIP3   OH223482   5.191   7.819   6.094
 7846TIP3    H123483   5.178   7.876   6.170
 7846TIP3    H223484   5.104   7.788   6.072
 7847TIP3   OH223485   2.347   2.700   4.241
 7847TIP3    H123486   2.376   2.620   4.198
 7847TIP3    H223487   2.320   2.672   4.328
 7848TIP3   OH223488   7.570   2.252   5.340
 7848TIP3    H123489   7.556   2.300   5.422
 7848TIP3    H223490   7.493   2.196   5.332
 7849TIP3   OH223491   2.706   2.706   3.157
 7849TIP3    H123492   2.628   2.723   3.210
 7849TIP3    H223493   2.775   2.759   3.197
 7850TIP3   OH223494   6.839   0.493   2.591
 7850TIP3    H123495   6.867   0.405   2.566
 7850TIP3    H223496   6.754   0.481   2.633
 7851TIP3   OH223497   0.058   5.680   1.345
 7851TIP3    H123498   0.138   5.691   1.294
 7851TIP3    H223499   0.089   5.673   1.436
 7852TIP3   OH223500   6.722   1.062   6.453
 7852TIP3    H123501   6.804   1.021   6.480
 7852TIP3    H223502   6.665   1.055   6.529
 7853TIP3   OH223503   7.388   1.197   1.872
 7853TIP3    H123504   7.403   1.234   1.959
 7853TIP3    H223505   7.297   1.217   1.852
 7854TIP3   OH223506   6.941   1.938   2.102
 7854TIP3    H123507   6.995   1.976   2.033
 7854TIP3    H223508   6.902   1.860   2.062
 7855TIP3   OH223509   5.363   7.115   5.563
 7855TIP3    H123510   5.366   7.178   5.491
 7855TIP3    H223511   5.396   7.164   5.639
 7856TIP3   OH223512   1.054   2.393   4.034
 7856TIP3    H123513   0.975   2.339   4.033
 7856TIP3    H223514   1.023   2.479   4.062
 7857TIP3   OH223515   5.476   2.600   1.635
 7857TIP3    H123516   5.407   2.635   1.580
 7857TIP3    H223517   5.441   2.517   1.667
 7858TIP3   OH223518   3.814   6.718   6.205
 7858TIP3    H123519   3.766   6.797   6.181
 7858TIP3    H223520   3.900   6.750   6.233
 7859TIP3   OH223521   6.480   4.174   5.593
 7859TIP3    H123522   6.453   4.266   5.602
 7859TIP3    H223523   6.410   4.134   5.543
 7860TIP3   OH223524   8.135   1.678   3.660
 7860TIP3    H123525   8.053   1.652   3.702
 7860TIP3    H223526   8.201   1.621   3.699
 7861TIP3   OH223527   1.642   3.940   0.490
 7861TIP3    H123528   1.579   4.006   0.460
 7861TIP3    H223529   1.599   3.897   0.563
 7862TIP3   OH223530   7.223   3.090   0.270
 7862TIP3    H123531   7.173   3.121   0.345
 7862TIP3    H223532   7.188   3.002   0.253
 7863TIP3   OH223533   0.636   4.342   5.122
 7863TIP3    H123534   0.667   4.369   5.035
 7863TIP3    H223535   0.558   4.290   5.105
 7864TIP3   OH223536   6.502   7.138   3.522
 7864TIP3    H123537   6.463   7.189   3.593
 7864TIP3    H223538   6.462   7.051   3.531
 7865TIP3   OH223539   7.511   7.622   2.435
 7865TIP3    H123540   7.458   7.623   2.355
 7865TIP3    H223541   7.457   7.573   2.497
 7866TIP3   OH223542   1.609   2.677   2.653
 7866TIP3    H123543   1.572   2.600   2.698
 7866TIP3    H223544   1.532   2.729   2.629
 7867TIP3   OH223545   7.644   4.907   5.595
 7867TIP3    H123546   7.715   4.930   5.655
 7867TIP3    H223547   7.686   4.905   5.509
 7868TIP3   OH223548   3.948   2.070   1.199
 7868TIP3    H123549   3.998   2.040   1.275
 7868TIP3    H223550   3.982   2.020   1.126
 7869TIP3   OH223551   4.725   4.234   0.341
 7869TIP3    H123552   4.716   4.144   0.371
 7869TIP3    H223553   4.672   4.237   0.261
 7870TIP3   OH223554   6.848   6.008   4.976
 7870TIP3    H123555   6.865   6.047   5.062
 7870TIP3    H223556   6.853   5.914   4.991
 7871TIP3   OH223557   0.021   3.185   3.598
 7871TIP3    H123558   0.068   3.261   3.561
 7871TIP3    H223559  -0.050   3.169   3.536
 7872TIP3   OH223560   1.075   7.674   0.865
 7872TIP3    H123561   1.028   7.702   0.944
 7872TIP3    H223562   1.055   7.581   0.857
 7873TIP3   OH223563   5.432   5.716   6.240
 7873TIP3    H123564   5.421   5.704   6.334
 7873TIP3    H223565   5.414   5.630   6.202
 7874TIP3   OH223566   6.988   5.859   5.356
 7874TIP3    H123567   6.899   5.847   5.388
 7874TIP3    H223568   7.035   5.899   5.429
 7875TIP3   OH223569   3.423   7.044   6.352
 7875TIP3    H123570   3.445   7.003   6.269
 7875TIP3    H223571   3.350   6.992   6.387
 7876TIP3   OH223572   1.439   0.368   4.724
 7876TIP3    H123573   1.464   0.281   4.693
 7876TIP3    H223574   1.482   0.429   4.664
 7877TIP3   OH223575   2.439   0.892   4.590
 7877TIP3    H123576   2.433   0.945   4.669
 7877TIP3    H223577   2.367   0.921   4.535
 7878TIP3   OH223578   0.277   1.656   2.032
 7878TIP3    H123579   0.183   1.653   2.017
 7878TIP3    H223580   0.313   1.695   1.951
 7879TIP3   OH223581   4.993   5.405   3.019
 7879TIP3    H123582   4.943   5.330   2.986
 7879TIP3    H223583   4.930   5.476   3.022
 7880TIP3   OH223584   2.320   6.144   4.660
 7880TIP3    H123585   2.295   6.064   4.614
 7880TIP3    H223586   2.283   6.135   4.747
 7881TIP3   OH223587   4.905   5.959   4.614
 7881TIP3    H123588   4.929   6.038   4.663
 7881TIP3    H223589   4.941   5.887   4.665
 7882TIP3   OH223590   0.812   2.204   6.495
 7882TIP3    H123591   0.833   2.148   6.569
 7882TIP3    H223592   0.890   2.258   6.483
 7883TIP3   OH223593   1.087   1.462   5.680
 7883TIP3    H123594   1.009   1.482   5.629
 7883TIP3    H223595   1.073   1.505   5.764
 7884TIP3   OH223596   0.874   3.665   5.554
 7884TIP3    H123597   0.903   3.651   5.644
 7884TIP3    H223598   0.878   3.578   5.514
 7885TIP3   OH223599   0.632   3.927   2.156
 7885TIP3    H123600   0.538   3.942   2.162
 7885TIP3    H223601   0.671   3.989   2.217
 7886TIP3   OH223602   2.937   7.321   1.495
 7886TIP3    H123603   2.952   7.246   1.552
 7886TIP3    H223604   2.995   7.389   1.529
 7887TIP3   OH223605   8.177   0.056   5.120
 7887TIP3    H123606   8.241   0.046   5.191
 7887TIP3    H223607   8.229   0.054   5.040
 7888TIP3   OH223608   4.406   7.707   4.141
 7888TIP3    H123609   4.475   7.642   4.150
 7888TIP3    H223610   4.446   7.778   4.089
 7889TIP3   OH223611   0.230   3.719   1.422
 7889TIP3    H123612   0.161   3.782   1.441
 7889TIP3    H223613   0.285   3.717   1.500
 7890TIP3   OH223614   4.683   4.022   2.363
 7890TIP3    H123615   4.646   4.094   2.414
 7890TIP3    H223616   4.618   4.005   2.296
 7891TIP3   OH223617   1.344   3.314   0.187
 7891TIP3    H123618   1.377   3.367   0.115
 7891TIP3    H223619   1.263   3.276   0.154
 7892TIP3   OH223620   5.105   0.614   3.543
 7892TIP3    H123621   5.191   0.655   3.534
 7892TIP3    H223622   5.055   0.674   3.599
 7893TIP3   OH223623   2.193   4.016   1.210
 7893TIP3    H123624   2.177   4.007   1.116
 7893TIP3    H223625   2.119   4.069   1.241
 7894TIP3   OH223626   5.298   7.557   5.593
 7894TIP3    H123627   5.381   7.582   5.553
 7894TIP3    H223628   5.297   7.602   5.677
 7895TIP3   OH223629   3.052   2.608   5.532
 7895TIP3    H123630   3.135   2.652   5.519
 7895TIP3    H223631   2.990   2.659   5.479
 7896TIP3   OH223632   1.040   0.663   3.542
 7896TIP3    H123633   0.977   0.637   3.609
 7896TIP3    H223634   1.047   0.758   3.550
 7897TIP3   OH223635   0.658   6.547   1.269
 7897TIP3    H123636   0.728   6.494   1.231
 7897TIP3    H223637   0.612   6.582   1.192
 7898TIP3   OH223638   2.711   0.449   5.538
 7898TIP3    H123639   2.713   0.382   5.469
 7898TIP3    H223640   2.626   0.436   5.581
 7899TIP3   OH223641   2.115   2.797   4.960
 7899TIP3    H123642   2.131   2.760   4.873
 7899TIP3    H223643   2.152   2.885   4.955
 7900TIP3   OH223644   0.184   6.007   2.848
 7900TIP3    H123645   0.244   5.962   2.907
 7900TIP3    H223646   0.117   6.045   2.905
 7901TIP3   OH223647   1.345   0.359   3.261
 7901TIP3    H123648   1.384   0.336   3.177
 7901TIP3    H223649   1.336   0.275   3.307
 7902TIP3   OH223650   5.964   2.297   1.341
 7902TIP3    H123651   6.000   2.337   1.262
 7902TIP3    H223652   6.032   2.310   1.407
 7903TIP3   OH223653   3.250   5.455   5.438
 7903TIP3    H123654   3.221   5.485   5.524
 7903TIP3    H223655   3.198   5.377   5.421
 7904TIP3   OH223656   4.819   7.497   2.359
 7904TIP3    H123657   4.889   7.453   2.310
 7904TIP3    H223658   4.843   7.589   2.359
 7905TIP3   OH223659   7.036   4.567   0.700
 7905TIP3    H123660   7.018   4.654   0.734
 7905TIP3    H223661   7.127   4.571   0.670
 7906TIP3   OH223662   2.284   1.145   5.716
 7906TIP3    H123663   2.211   1.142   5.654
 7906TIP3    H223664   2.243   1.139   5.802
 7907TIP3   OH223665   5.797   6.293   1.735
 7907TIP3    H123666   5.774   6.360   1.671
 7907TIP3    H223667   5.891   6.305   1.749
 7908TIP3   OH223668   5.550   0.997   2.725
 7908TIP3    H123669   5.640   1.011   2.754
 7908TIP3    H223670   5.540   1.056   2.650
 7909TIP3   OH223671   5.782   5.783   3.156
 7909TIP3    H123672   5.807   5.873   3.135
 7909TIP3    H223673   5.863   5.741   3.185
 7910TIP3   OH223674   4.047   7.565   1.310
 7910TIP3    H123675   4.122   7.596   1.361
 7910TIP3    H223676   4.085   7.540   1.225
 7911TIP3   OH223677   6.349   6.722   5.688
 7911TIP3    H123678   6.277   6.678   5.732
 7911TIP3    H223679   6.362   6.672   5.607
 7912TIP3   OH223680   5.058   7.754   4.171
 7912TIP3    H123681   5.143   7.771   4.129
 7912TIP3    H223682   4.994   7.797   4.114
 7913TIP3   OH223683   4.992   4.436   6.159
 7913TIP3    H123684   5.013   4.518   6.116
 7913TIP3    H223685   5.005   4.369   6.092
 7914TIP3   OH223686   4.684   7.059   2.556
 7914TIP3    H123687   4.773   7.068   2.523
 7914TIP3    H223688   4.667   7.140   2.603
 7915TIP3   OH223689   0.720   1.796   5.445
 7915TIP3    H123690   0.712   1.776   5.352
 7915TIP3    H223691   0.737   1.890   5.448
 7916TIP3   OH223692   5.597   3.907   2.826
 7916TIP3    H123693   5.687   3.941   2.827
 7916TIP3    H223694   5.562   3.935   2.741
 7917TIP3   OH223695   1.521   5.012   0.949
 7917TIP3    H123696   1.564   4.953   0.887
 7917TIP3    H223697   1.430   5.016   0.919
 7918TIP3   OH223698   2.469   1.523   3.596
 7918TIP3    H123699   2.417   1.542   3.518
 7918TIP3    H223700   2.411   1.543   3.669
 7919TIP3   OH223701   3.787   1.144   4.307
 7919TIP3    H123702   3.778   1.053   4.279
 7919TIP3    H223703   3.765   1.143   4.400
 7920TIP3   OH223704   1.698   0.663   1.876
 7920TIP3    H123705   1.744   0.581   1.864
 7920TIP3    H223706   1.767   0.729   1.882
 7921TIP3   OH223707   2.552   5.912   2.297
 7921TIP3    H123708   2.558   5.898   2.391
 7921TIP3    H223709   2.585   6.001   2.284
 7922TIP3   OH223710   5.960   3.463   1.957
 7922TIP3    H123711   5.932   3.444   1.867
 7922TIP3    H223712   6.006   3.384   1.984
 7923TIP3   OH223713   4.941   0.683   3.287
 7923TIP3    H123714   5.029   0.672   3.323
 7923TIP3    H223715   4.946   0.764   3.237
 7924TIP3   OH223716   1.865   7.267   6.180
 7924TIP3    H123717   1.948   7.314   6.192
 7924TIP3    H223718   1.811   7.296   6.253
 7925TIP3   OH223719   2.140   1.403   0.169
 7925TIP3    H123720   2.155   1.498   0.166
 7925TIP3    H223721   2.047   1.394   0.190
 7926TIP3   OH223722   4.245   4.862   3.403
 7926TIP3    H123723   4.289   4.943   3.429
 7926TIP3    H223724   4.309   4.814   3.351
 7927TIP3   OH223725   3.357   3.296   3.074
 7927TIP3    H123726   3.314   3.214   3.051
 7927TIP3    H223727   3.303   3.333   3.145
 7928TIP3   OH223728   5.458   4.855   3.809
 7928TIP3    H123729   5.463   4.903   3.891
 7928TIP3    H223730   5.429   4.920   3.745
 7929TIP3   OH223731   2.368   6.861   4.324
 7929TIP3    H123732   2.378   6.899   4.237
 7929TIP3    H223733   2.427   6.785   4.325
 7930TIP3   OH223734   3.830   2.485   3.557
 7930TIP3    H123735   3.738   2.505   3.540
 7930TIP3    H223736   3.838   2.488   3.652
 7931TIP3   OH223737   4.342   2.861   0.783
 7931TIP3    H123738   4.366   2.848   0.692
 7931TIP3    H223739   4.274   2.796   0.800
 7932TIP3   OH223740   2.299   1.686   1.794
 7932TIP3    H123741   2.236   1.614   1.807
 7932TIP3    H223742   2.251   1.764   1.822
 7933TIP3   OH223743   6.536   5.698   2.374
 7933TIP3    H123744   6.489   5.780   2.393
 7933TIP3    H223745   6.607   5.724   2.316
 7934TIP3   OH223746   4.272   1.946   6.370
 7934TIP3    H123747   4.182   1.921   6.391
 7934TIP3    H223748   4.306   1.870   6.323
 7935TIP3   OH223749   2.371   5.780   4.833
 7935TIP3    H123750   2.383   5.704   4.891
 7935TIP3    H223751   2.401   5.855   4.885
 7936TIP3   OH223752   7.427   7.692   1.608
 7936TIP3    H123753   7.397   7.782   1.598
 7936TIP3    H223754   7.419   7.655   1.520
 7937TIP3   OH223755   5.681   2.687   0.743
 7937TIP3    H123756   5.765   2.710   0.783
 7937TIP3    H223757   5.656   2.605   0.785
 7938TIP3   OH223758   5.101   6.468   5.492
 7938TIP3    H123759   5.157   6.515   5.430
 7938TIP3    H223760   5.057   6.536   5.543
 7939TIP3   OH223761   3.200   5.607   2.922
 7939TIP3    H123762   3.180   5.644   2.836
 7939TIP3    H223763   3.252   5.674   2.965
 7940TIP3   OH223764   0.477   7.073   0.203
 7940TIP3    H123765   0.418   7.110   0.268
 7940TIP3    H223766   0.440   6.987   0.183
 7941TIP3   OH223767   6.018   7.024   4.314
 7941TIP3    H123768   5.928   7.031   4.347
 7941TIP3    H223769   6.021   6.939   4.270
 7942TIP3   OH223770   0.746   1.035   0.128
 7942TIP3    H123771   0.730   1.003   0.217
 7942TIP3    H223772   0.723   1.128   0.132
 7943TIP3   OH223773   7.140   5.604   2.337
 7943TIP3    H123774   7.148   5.509   2.347
 7943TIP3    H223775   7.051   5.618   2.306
 7944TIP3   OH223776   2.640   3.796   3.616
 7944TIP3    H123777   2.698   3.723   3.634
 7944TIP3    H223778   2.655   3.857   3.688
 7945TIP3   OH223779   3.575   4.221   0.280
 7945TIP3    H123780   3.576   4.239   0.186
 7945TIP3    H223781   3.552   4.304   0.321
 7946TIP3   OH223782   5.311   6.690   4.210
 7946TIP3    H123783   5.223   6.718   4.186
 7946TIP3    H223784   5.299   6.606   4.253
 7947TIP3   OH223785   4.038   1.756   2.976
 7947TIP3    H123786   4.075   1.746   2.888
 7947TIP3    H223787   3.964   1.695   2.977
 7948TIP3   OH223788   7.780   1.501   5.164
 7948TIP3    H123789   7.796   1.409   5.187
 7948TIP3    H223790   7.710   1.529   5.224
 7949TIP3   OH223791   2.905   0.694   4.330
 7949TIP3    H123792   2.893   0.775   4.281
 7949TIP3    H223793   2.996   0.669   4.311
 7950TIP3   OH223794   2.118   2.767   1.747
 7950TIP3    H123795   2.142   2.827   1.676
 7950TIP3    H223796   2.148   2.681   1.717
 7951TIP3   OH223797   6.120   5.314   1.727
 7951TIP3    H123798   6.159   5.350   1.806
 7951TIP3    H223799   6.191   5.268   1.683
 7952TIP3   OH223800   3.484   3.070   0.959
 7952TIP3    H123801   3.514   2.983   0.932
 7952TIP3    H223802   3.418   3.052   1.026
 7953TIP3   OH223803   0.154   6.764   3.542
 7953TIP3    H123804   0.236   6.735   3.503
 7953TIP3    H223805   0.120   6.688   3.588
 7954TIP3   OH223806   8.107   7.246   1.064
 7954TIP3    H123807   8.058   7.278   0.988
 7954TIP3    H223808   8.050   7.180   1.103
 7955TIP3   OH223809   4.514   0.128   4.089
 7955TIP3    H123810   4.548   0.045   4.055
 7955TIP3    H223811   4.582   0.192   4.068
 7956TIP3   OH223812   3.074   2.781   3.937
 7956TIP3    H123813   3.020   2.705   3.916
 7956TIP3    H223814   3.144   2.746   3.992
 7957TIP3   OH223815   2.547   2.190   6.009
 7957TIP3    H123816   2.525   2.168   6.099
 7957TIP3    H223817   2.511   2.118   5.957
 7958TIP3   OH223818   2.426   6.533   6.305
 7958TIP3    H123819   2.509   6.517   6.260
 7958TIP3    H223820   2.376   6.588   6.244
 7959TIP3   OH223821   5.549   1.860   3.282
 7959TIP3    H123822   5.552   1.901   3.368
 7959TIP3    H223823   5.456   1.844   3.266
 7960TIP3   OH223824   3.087   4.727   1.778
 7960TIP3    H123825   3.006   4.702   1.822
 7960TIP3    H223826   3.065   4.727   1.685
 7961TIP3   OH223827   3.112   5.701   4.991
 7961TIP3    H123828   3.069   5.780   4.959
 7961TIP3    H223829   3.094   5.700   5.085
 7962TIP3   OH223830   5.596   5.267   1.807
 7962TIP3    H123831   5.668   5.313   1.764
 7962TIP3    H223832   5.633   5.240   1.892
 7963TIP3   OH223833   1.180   2.064   0.656
 7963TIP3    H123834   1.218   2.005   0.722
 7963TIP3    H223835   1.112   2.011   0.613
 7964TIP3   OH223836   2.038   0.498   6.235
 7964TIP3    H123837   2.010   0.409   6.211
 7964TIP3    H223838   2.106   0.519   6.172
 7965TIP3   OH223839   3.935   4.070   4.851
 7965TIP3    H123840   3.957   4.145   4.795
 7965TIP3    H223841   3.989   3.998   4.818
 7966TIP3   OH223842   7.580   4.037   2.126
 7966TIP3    H123843   7.622   4.096   2.063
 7966TIP3    H223844   7.522   4.094   2.176
 7967TIP3   OH223845   0.611   2.816   5.844
 7967TIP3    H123846   0.673   2.851   5.781
 7967TIP3    H223847   0.642   2.848   5.929
 7968TIP3   OH223848   2.340   2.574   2.771
 7968TIP3    H123849   2.332   2.635   2.845
 7968TIP3    H223850   2.336   2.487   2.811
 7969TIP3   OH223851   6.537   5.544   4.338
 7969TIP3    H123852   6.620   5.544   4.289
 7969TIP3    H223853   6.544   5.469   4.397
 7970TIP3   OH223854   7.581   1.927   4.321
 7970TIP3    H123855   7.640   1.961   4.253
 7970TIP3    H223856   7.633   1.861   4.367
 7971TIP3   OH223857   5.933   3.064   1.118
 7971TIP3    H123858   5.855   3.086   1.169
 7971TIP3    H223859   5.976   3.148   1.103
 7972TIP3   OH223860   3.146   0.427   1.059
 7972TIP3    H123861   3.090   0.382   0.996
 7972TIP3    H223862   3.102   0.510   1.077
 7973TIP3   OH223863   1.080   7.693   3.526
 7973TIP3    H123864   1.086   7.652   3.439
 7973TIP3    H223865   1.065   7.620   3.586
 7974TIP3   OH223866   1.696   4.540   4.153
 7974TIP3    H123867   1.605   4.513   4.167
 7974TIP3    H223868   1.701   4.629   4.188
 7975TIP3   OH223869   5.174   5.296   0.470
 7975TIP3    H123870   5.255   5.291   0.421
 7975TIP3    H223871   5.105   5.296   0.404
 7976TIP3   OH223872   7.790   0.770   2.459
 7976TIP3    H123873   7.778   0.822   2.380
 7976TIP3    H223874   7.753   0.823   2.530
 7977TIP3   OH223875   7.166   5.470   1.454
 7977TIP3    H123876   7.210   5.483   1.538
 7977TIP3    H223877   7.215   5.525   1.393
 7978TIP3   OH223878   5.301   1.206   3.872
 7978TIP3    H123879   5.322   1.266   3.945
 7978TIP3    H223880   5.259   1.262   3.807
 7979TIP3   OH223881   5.553   1.664   4.181
 7979TIP3    H123882   5.617   1.709   4.126
 7979TIP3    H223883   5.586   1.676   4.270
 7980TIP3   OH223884   6.806   3.784   1.698
 7980TIP3    H123885   6.894   3.794   1.662
 7980TIP3    H223886   6.774   3.702   1.660
 7981TIP3   OH223887   5.777   3.560   5.203
 7981TIP3    H123888   5.781   3.651   5.232
 7981TIP3    H223889   5.706   3.559   5.138
 7982TIP3   OH223890   7.522   2.711   1.755
 7982TIP3    H123891   7.564   2.689   1.672
 7982TIP3    H223892   7.588   2.691   1.821
 7983TIP3   OH223893   7.542   3.993   0.233
 7983TIP3    H123894   7.456   4.004   0.191
 7983TIP3    H223895   7.535   3.909   0.280
 7984TIP3   OH223896   4.867   6.604   3.173
 7984TIP3    H123897   4.823   6.656   3.240
 7984TIP3    H223898   4.803   6.537   3.148
 7985TIP3   OH223899   2.004   6.284   2.160
 7985TIP3    H123900   2.025   6.255   2.071
 7985TIP3    H223901   2.077   6.254   2.214
 7986TIP3   OH223902   7.708   1.166   1.296
 7986TIP3    H123903   7.615   1.186   1.294
 7986TIP3    H223904   7.739   1.204   1.378
 7987TIP3   OH223905   6.080   1.115   0.677
 7987TIP3    H123906   6.153   1.166   0.713
 7987TIP3    H223907   6.017   1.180   0.648
 7988TIP3   OH223908   1.861   0.275   5.749
 7988TIP3    H123909   1.866   0.180   5.741
 7988TIP3    H223910   1.774   0.291   5.786
 7989TIP3   OH223911   8.125   6.160   6.496
 7989TIP3    H123912   8.124   6.217   6.420
 7989TIP3    H223913   8.169   6.212   6.564
 7990TIP3   OH223914   3.515   1.411   5.925
 7990TIP3    H123915   3.465   1.373   5.853
 7990TIP3    H223916   3.510   1.347   5.995
 7991TIP3   OH223917   8.199   3.641   4.037
 7991TIP3    H123918   8.190   3.722   4.088
 7991TIP3    H223919   8.258   3.587   4.089
 7992TIP3   OH223920   5.848   7.439   4.830
 7992TIP3    H123921   5.827   7.351   4.799
 7992TIP3    H223922   5.851   7.430   4.925
 7993TIP3   OH223923   4.794   1.708   2.983
 7993TIP3    H123924   4.814   1.643   3.050
 7993TIP3    H223925   4.723   1.761   3.021
 7994TIP3   OH223926   2.971   7.626   4.747
 7994TIP3    H123927   3.023   7.582   4.814
 7994TIP3    H223928   3.029   7.695   4.713
 7995TIP3   OH223929   6.790   3.257   4.642
 7995TIP3    H123930   6.700   3.253   4.611
 7995TIP3    H223931   6.824   3.168   4.630
 7996TIP3   OH223932   4.164   3.643   2.588
 7996TIP3    H123933   4.224   3.682   2.652
 7996TIP3    H223934   4.144   3.715   2.528
 7997TIP3   OH223935   0.729   1.671   4.397
 7997TIP3    H123936   0.696   1.745   4.447
 7997TIP3    H223937   0.798   1.633   4.451
 7998TIP3   OH223938   4.312   0.552   3.863
 7998TIP3    H123939   4.253   0.628   3.861
 7998TIP3    H223940   4.303   0.513   3.777
 7999TIP3   OH223941   6.451   1.961   0.979
 7999TIP3    H123942   6.378   2.006   0.937
 7999TIP3    H223943   6.504   1.928   0.907
 8000TIP3   OH223944   3.003   6.241   5.913
 8000TIP3    H123945   3.059   6.272   5.984
 8000TIP3    H223946   2.916   6.273   5.934
 8001TIP3   OH223947   7.477   7.459   3.145
 8001TIP3    H123948   7.440   7.544   3.170
 8001TIP3    H223949   7.512   7.472   3.057
 8002TIP3   OH223950   2.975   0.569   5.283
 8002TIP3    H123951   3.057   0.521   5.271
 8002TIP3    H223952   2.988   0.619   5.363
 8003TIP3   OH223953   7.359   5.268   5.421
 8003TIP3    H123954   7.341   5.320   5.498
 8003TIP3    H223955   7.401   5.188   5.454
 8004TIP3   OH223956   7.776   3.277   3.796
 8004TIP3    H123957   7.792   3.361   3.839
 8004TIP3    H223958   7.844   3.273   3.728
 8005TIP3   OH223959   2.098   0.865   0.434
 8005TIP3    H123960   2.048   0.933   0.389
 8005TIP3    H223961   2.157   0.913   0.492
 8006TIP3   OH223962   2.100   0.075   4.975
 8006TIP3    H123963   2.055   0.050   5.055
 8006TIP3    H223964   2.032   0.079   4.908
 8007TIP3   OH223965   1.599   6.965   4.321
 8007TIP3    H123966   1.562   7.053   4.316
 8007TIP3    H223967   1.524   6.908   4.339
 8008TIP3   OH223968   1.158   6.182   3.448
 8008TIP3    H123969   1.244   6.141   3.462
 8008TIP3    H223970   1.107   6.157   3.525
 8009TIP3   OH223971   5.022   0.040   1.117
 8009TIP3    H123972   4.978  -0.044   1.101
 8009TIP3    H223973   5.015   0.053   1.211
 8010TIP3   OH223974   7.162   0.831   4.504
 8010TIP3    H123975   7.193   0.751   4.461
 8010TIP3    H223976   7.241   0.884   4.515
 8011TIP3   OH223977   1.545   0.915   0.130
 8011TIP3    H123978   1.593   0.833   0.120
 8011TIP3    H223979   1.531   0.946   0.040
 8012TIP3   OH223980   2.278   4.814   2.085
 8012TIP3    H123981   2.351   4.801   2.025
 8012TIP3    H223982   2.240   4.898   2.060
 8013TIP3   OH223983   5.977   1.539   6.229
 8013TIP3    H123984   6.013   1.451   6.217
 8013TIP3    H223985   5.993   1.582   6.145
 8014TIP3   OH223986   5.977   5.183   6.573
 8014TIP3    H123987   5.989   5.117   6.641
 8014TIP3    H223988   6.038   5.159   6.504
 8015TIP3   OH223989   7.732   4.972   3.208
 8015TIP3    H123990   7.743   5.023   3.128
 8015TIP3    H223991   7.821   4.960   3.241
 8016TIP3   OH223992   3.294   2.969   3.153
 8016TIP3    H123993   3.281   2.886   3.199
 8016TIP3    H223994   3.290   3.035   3.222
 8017TIP3   OH223995   2.404   1.718   6.655
 8017TIP3    H123996   2.336   1.757   6.600
 8017TIP3    H223997   2.462   1.672   6.594
 8018TIP3   OH223998   6.806   7.436   3.686
 8018TIP3    H123999   6.827   7.520   3.725
 8018TIP3    H224000   6.833   7.371   3.751
 8019TIP3   OH224001   1.911   4.252   4.926
 8019TIP3    H124002   1.870   4.204   4.998
 8019TIP3    H224003   1.952   4.184   4.872
 8020TIP3   OH224004   3.903   1.744   4.830
 8020TIP3    H124005   3.936   1.663   4.792
 8020TIP3    H224006   3.913   1.733   4.924
 8021TIP3   OH224007   3.602   0.881   4.246
 8021TIP3    H124008   3.550   0.843   4.176
 8021TIP3    H224009   3.543   0.944   4.288
 8022TIP3   OH224010   4.610   0.971   4.122
 8022TIP3    H124011   4.701   0.988   4.146
 8022TIP3    H224012   4.602   0.876   4.120
 8023TIP3   OH224013   6.971   5.140   3.803
 8023TIP3    H124014   6.913   5.139   3.727
 8023TIP3    H224015   7.033   5.069   3.787
 8024TIP3   OH224016   3.763   4.043   0.179
 8024TIP3    H124017   3.698   4.098   0.222
 8024TIP3    H224018   3.741   3.954   0.205
 8025TIP3   OH224019   2.933   1.331   4.591
 8025TIP3    H124020   3.017   1.335   4.637
 8025TIP3    H224021   2.955   1.297   4.504
 8026TIP3   OH224022   1.906   4.351   2.524
 8026TIP3    H124023   1.959   4.348   2.444
 8026TIP3    H224024   1.817   4.365   2.494
 8027TIP3   OH224025   2.073   4.716   3.575
 8027TIP3    H124026   1.990   4.672   3.589
 8027TIP3    H224027   2.071   4.742   3.483
 8028TIP3   OH224028   4.226   6.690   6.374
 8028TIP3    H124029   4.279   6.754   6.326
 8028TIP3    H224030   4.148   6.739   6.400
 8029TIP3   OH224031   6.059   7.488   1.634
 8029TIP3    H124032   5.982   7.432   1.619
 8029TIP3    H224033   6.023   7.569   1.670
 8030TIP3   OH224034   7.171   1.247   2.847
 8030TIP3    H124035   7.228   1.184   2.891
 8030TIP3    H224036   7.210   1.259   2.761
 8031TIP3   OH224037   8.102   1.840   6.040
 8031TIP3    H124038   8.065   1.926   6.058
 8031TIP3    H224039   8.063   1.783   6.106
 8032TIP3   OH224040   7.882   2.848   3.046
 8032TIP3    H124041   7.795   2.831   3.010
 8032TIP3    H224042   7.942   2.826   2.974
 8033TIP3   OH224043   4.919   6.505   0.409
 8033TIP3    H124044   4.859   6.463   0.348
 8033TIP3    H224045   4.903   6.462   0.493
 8034TIP3   OH224046   2.637   7.335   4.878
 8034TIP3    H124047   2.655   7.428   4.896
 8034TIP3    H224048   2.611   7.333   4.786
 8035TIP3   OH224049   4.853   7.824   0.830
 8035TIP3    H124050   4.852   7.780   0.915
 8035TIP3    H224051   4.809   7.763   0.770
 8036TIP3   OH224052   4.018   2.171   6.735
 8036TIP3    H124053   4.081   2.184   6.665
 8036TIP3    H224054   4.002   2.076   6.735
 8037TIP3   OH224055   1.763   2.993   6.095
 8037TIP3    H124056   1.760   2.899   6.083
 8037TIP3    H224057   1.676   3.024   6.068
 8038TIP3   OH224058   2.662   4.850   0.502
 8038TIP3    H124059   2.689   4.760   0.521
 8038TIP3    H224060   2.609   4.842   0.423
 8039TIP3   OH224061   7.540   3.261   4.088
 8039TIP3    H124062   7.453   3.300   4.084
 8039TIP3    H224063   7.593   3.314   4.029
 8040TIP3   OH224064   8.268   3.259   1.445
 8040TIP3    H124065   8.344   3.314   1.465
 8040TIP3    H224066   8.258   3.266   1.350
 8041TIP3   OH224067   6.206   0.541   3.680
 8041TIP3    H124068   6.257   0.540   3.599
 8041TIP3    H224069   6.120   0.574   3.655
 8042TIP3   OH224070   1.460   0.662   3.249
 8042TIP3    H124071   1.522   0.662   3.176
 8042TIP3    H224072   1.444   0.569   3.266
 8043TIP3   OH224073   3.842   2.484   0.737
 8043TIP3    H124074   3.892   2.407   0.712
 8043TIP3    H224075   3.878   2.555   0.684
 8044TIP3   OH224076   0.904   3.278   1.993
 8044TIP3    H124077   0.957   3.233   1.928
 8044TIP3    H224078   0.902   3.369   1.964
 8045TIP3   OH224079   4.153   5.570   6.371
 8045TIP3    H124080   4.163   5.562   6.276
 8045TIP3    H224081   4.185   5.659   6.391
 8046TIP3   OH224082   2.240   7.615   4.493
 8046TIP3    H124083   2.306   7.558   4.531
 8046TIP3    H224084   2.280   7.648   4.412
 8047TIP3   OH224085   3.974   5.709   4.038
 8047TIP3    H124086   3.943   5.641   3.979
 8047TIP3    H224087   3.963   5.790   3.990
 8048TIP3   OH224088   3.966   6.592   2.108
 8048TIP3    H124089   3.886   6.557   2.069
 8048TIP3    H224090   3.936   6.642   2.184
 8049TIP3   OH224091   4.641   2.926   1.802
 8049TIP3    H124092   4.571   2.924   1.736
 8049TIP3    H224093   4.702   2.993   1.769
 8050TIP3   OH224094   7.478   2.994   3.946
 8050TIP3    H124095   7.494   3.085   3.970
 8050TIP3    H224096   7.402   2.997   3.888
 8051TIP3   OH224097   6.910   2.213   0.604
 8051TIP3    H124098   6.916   2.208   0.509
 8051TIP3    H224099   6.830   2.166   0.626
 8052TIP3   OH224100   0.556   2.978   2.991
 8052TIP3    H124101   0.559   2.926   3.071
 8052TIP3    H224102   0.484   3.039   3.005
 8053TIP3   OH224103   6.653   0.100   6.208
 8053TIP3    H124104   6.612   0.105   6.121
 8053TIP3    H224105   6.607   0.029   6.252
 8054TIP3   OH224106   6.140   5.747   6.620
 8054TIP3    H124107   6.093   5.672   6.656
 8054TIP3    H224108   6.167   5.719   6.533
 8055TIP3   OH224109   6.589   6.029   2.147
 8055TIP3    H124110   6.514   6.037   2.088
 8055TIP3    H224111   6.663   6.063   2.097
 8056TIP3   OH224112   4.721   3.251   1.949
 8056TIP3    H124113   4.724   3.243   1.853
 8056TIP3    H224114   4.781   3.183   1.980
 8057TIP3   OH224115   5.516   4.827   0.286
 8057TIP3    H124116   5.449   4.889   0.256
 8057TIP3    H224117   5.466   4.753   0.320
 8058TIP3   OH224118   0.056   5.078   6.716
 8058TIP3    H124119   0.012   4.997   6.689
 8058TIP3    H224120   0.104   5.053   6.796
 8059TIP3   OH224121   6.678   7.377   4.766
 8059TIP3    H124122   6.640   7.443   4.708
 8059TIP3    H224123   6.769   7.405   4.777
 8060TIP3   OH224124   6.443   2.097   4.369
 8060TIP3    H124125   6.354   2.081   4.338
 8060TIP3    H224126   6.459   2.189   4.351
 8061TIP3   OH224127   5.722   3.638   2.794
 8061TIP3    H124128   5.795   3.635   2.856
 8061TIP3    H224129   5.661   3.701   2.833
 8062TIP3   OH224130   4.798   3.313   6.487
 8062TIP3    H124131   4.877   3.351   6.448
 8062TIP3    H224132   4.769   3.248   6.423
 8063TIP3   OH224133   5.468   1.481   5.496
 8063TIP3    H124134   5.530   1.420   5.536
 8063TIP3    H224135   5.411   1.507   5.568
 8064TIP3   OH224136   7.426   6.159   0.892
 8064TIP3    H124137   7.522   6.158   0.890
 8064TIP3    H224138   7.404   6.248   0.921
 8065TIP3   OH224139   8.036   7.540   5.771
 8065TIP3    H124140   8.075   7.537   5.683
 8065TIP3    H224141   8.021   7.449   5.794
 8066TIP3   OH224142   7.238   3.543   1.095
 8066TIP3    H124143   7.242   3.450   1.076
 8066TIP3    H224144   7.312   3.559   1.155
 8067TIP3   OH224145   1.911   2.406   1.781
 8067TIP3    H124146   1.964   2.373   1.854
 8067TIP3    H224147   1.951   2.368   1.704
 8068TIP3   OH224148   7.059   1.983   4.317
 8068TIP3    H124149   7.000   1.911   4.337
 8068TIP3    H224150   7.126   1.944   4.260
 8069TIP3   OH224151   5.263   0.650   3.227
 8069TIP3    H124152   5.290   0.648   3.318
 8069TIP3    H224153   5.282   0.739   3.197
 8070TIP3   OH224154   1.402   3.444   2.159
 8070TIP3    H124155   1.360   3.400   2.085
 8070TIP3    H224156   1.450   3.374   2.204
 8071TIP3   OH224157   2.932   5.837   0.720
 8071TIP3    H124158   2.991   5.769   0.753
 8071TIP3    H224159   2.876   5.858   0.795
 8072TIP3   OH224160   6.501   7.452   2.930
 8072TIP3    H124161   6.532   7.400   3.004
 8072TIP3    H224162   6.558   7.427   2.858
 8073TIP3   OH224163   2.984   3.548   1.758
 8073TIP3    H124164   2.938   3.559   1.841
 8073TIP3    H224165   2.923   3.583   1.692
 8074TIP3   OH224166   7.933   1.126   3.333
 8074TIP3    H124167   7.925   1.098   3.424
 8074TIP3    H224168   7.987   1.205   3.336
 8075TIP3   OH224169   7.428   4.544   1.015
 8075TIP3    H124170   7.519   4.560   1.038
 8075TIP3    H224171   7.416   4.588   0.931
 8076TIP3   OH224172   5.634   0.089   0.350
 8076TIP3    H124173   5.631   0.097   0.255
 8076TIP3    H224174   5.561   0.030   0.371
 8077TIP3   OH224175   5.566   5.816   6.773
 8077TIP3    H124176   5.598   5.890   6.721
 8077TIP3    H224177   5.490   5.851   6.820
 8078TIP3   OH224178   6.933   6.548   3.827
 8078TIP3    H124179   6.890   6.614   3.882
 8078TIP3    H224180   7.002   6.596   3.781
 8079TIP3   OH224181   2.190   2.247   0.915
 8079TIP3    H124182   2.102   2.216   0.938
 8079TIP3    H224183   2.174   2.324   0.860
 8080TIP3   OH224184   3.764   2.861   2.133
 8080TIP3    H124185   3.782   2.773   2.168
 8080TIP3    H224186   3.674   2.857   2.102
 8081TIP3   OH224187   3.883   3.763   6.384
 8081TIP3    H124188   3.828   3.695   6.343
 8081TIP3    H224189   3.856   3.844   6.341
 8082TIP3   OH224190   1.375   3.301   0.712
 8082TIP3    H124191   1.442   3.277   0.776
 8082TIP3    H224192   1.293   3.300   0.761
 8083TIP3   OH224193   4.842   1.568   0.545
 8083TIP3    H124194   4.799   1.484   0.559
 8083TIP3    H224195   4.830   1.615   0.628
 8084TIP3   OH224196   3.667   6.142   4.232
 8084TIP3    H124197   3.726   6.177   4.165
 8084TIP3    H224198   3.683   6.048   4.231
 8085TIP3   OH224199   4.203   7.601   5.030
 8085TIP3    H124200   4.275   7.640   4.980
 8085TIP3    H224201   4.236   7.515   5.057
 8086TIP3   OH224202   2.895   0.713   3.467
 8086TIP3    H124203   2.960   0.649   3.496
 8086TIP3    H224204   2.827   0.661   3.425
 8087TIP3   OH224205   3.860   0.277   4.621
 8087TIP3    H124206   3.871   0.194   4.573
 8087TIP3    H224207   3.843   0.342   4.553
 8088TIP3   OH224208   5.931   4.254   5.124
 8088TIP3    H124209   5.846   4.294   5.140
 8088TIP3    H224210   5.919   4.162   5.147
 8089TIP3   OH224211   1.554   6.505   1.977
 8089TIP3    H124212   1.506   6.578   2.015
 8089TIP3    H224213   1.646   6.524   1.998
 8090TIP3   OH224214   3.903   6.718   3.437
 8090TIP3    H124215   3.875   6.632   3.467
 8090TIP3    H224216   3.867   6.779   3.501
 8091TIP3   OH224217   4.827   2.654   0.713
 8091TIP3    H124218   4.854   2.562   0.717
 8091TIP3    H224219   4.814   2.679   0.805
 8092TIP3   OH224220   2.132   2.148   5.454
 8092TIP3    H124221   2.138   2.241   5.473
 8092TIP3    H224222   2.213   2.126   5.409
 8093TIP3   OH224223   5.126   0.939   0.623
 8093TIP3    H124224   5.068   0.880   0.576
 8093TIP3    H224225   5.179   0.982   0.555
 8094TIP3   OH224226   0.466   2.611   3.656
 8094TIP3    H124227   0.535   2.563   3.608
 8094TIP3    H224228   0.485   2.703   3.639
 8095TIP3   OH224229   6.188   4.750   2.422
 8095TIP3    H124230   6.212   4.675   2.368
 8095TIP3    H224231   6.104   4.779   2.386
 8096TIP3   OH224232   6.201   2.520   0.918
 8096TIP3    H124233   6.283   2.472   0.931
 8096TIP3    H224234   6.228   2.610   0.901
 8097TIP3   OH224235   1.350   6.511   0.460
 8097TIP3    H124236   1.328   6.460   0.382
 8097TIP3    H224237   1.268   6.555   0.484
 8098TIP3   OH224238   6.024   7.665   6.087
 8098TIP3    H124239   6.084   7.622   6.026
 8098TIP3    H224240   5.963   7.713   6.032
 8099TIP3   OH224241   6.166   2.934   2.332
 8099TIP3    H124242   6.206   2.896   2.410
 8099TIP3    H224243   6.088   2.979   2.365
 8100TIP3   OH224244   2.687   2.259   6.577
 8100TIP3    H124245   2.626   2.194   6.541
 8100TIP3    H224246   2.661   2.268   6.669
 8101TIP3   OH224247   6.766   3.604   6.159
 8101TIP3    H124248   6.782   3.587   6.252
 8101TIP3    H224249   6.809   3.687   6.142
 8102TIP3   OH224250   4.947   4.610   3.816
 8102TIP3    H124251   5.012   4.555   3.772
 8102TIP3    H224252   4.964   4.698   3.782
 8103TIP3   OH224253   6.543   0.268   5.539
 8103TIP3    H124254   6.562   0.202   5.605
 8103TIP3    H224255   6.604   0.339   5.557
 8104TIP3   OH224256   5.946   5.669   3.849
 8104TIP3    H124257   5.990   5.753   3.864
 8104TIP3    H224258   5.983   5.611   3.914
 8105TIP3   OH224259   3.124   3.923   2.813
 8105TIP3    H124260   3.082   3.972   2.884
 8105TIP3    H224261   3.161   3.991   2.756
 8106TIP3   OH224262   2.219   6.432   5.608
 8106TIP3    H124263   2.140   6.446   5.555
 8106TIP3    H224264   2.284   6.488   5.567
 8107TIP3   OH224265   2.271   0.553   4.202
 8107TIP3    H124266   2.321   0.517   4.274
 8107TIP3    H224267   2.297   0.500   4.126
 8108TIP3   OH224268   7.236   7.419   4.730
 8108TIP3    H124269   7.206   7.337   4.768
 8108TIP3    H224270   7.284   7.394   4.651
 8109TIP3   OH224271   2.613   5.919   0.561
 8109TIP3    H124272   2.580   5.835   0.529
 8109TIP3    H224273   2.694   5.897   0.608
 8110TIP3   OH224274   7.391   2.420   0.824
 8110TIP3    H124275   7.435   2.503   0.804
 8110TIP3    H224276   7.318   2.416   0.763
 8111TIP3   OH224277   7.917   0.839   6.384
 8111TIP3    H124278   7.914   0.798   6.297
 8111TIP3    H224279   7.931   0.765   6.444
 8112TIP3   OH224280   0.174   5.061   6.045
 8112TIP3    H124281   0.233   5.026   5.979
 8112TIP3    H224282   0.231   5.096   6.113
 8113TIP3   OH224283   5.929   4.399   0.587
 8113TIP3    H124284   5.852   4.353   0.554
 8113TIP3    H224285   6.002   4.358   0.542
 8114TIP3   OH224286   0.757   0.374   6.511
 8114TIP3    H124287   0.749   0.284   6.480
 8114TIP3    H224288   0.851   0.387   6.525
 8115TIP3   OH224289   5.421   0.308   4.060
 8115TIP3    H124290   5.365   0.276   3.989
 8115TIP3    H224291   5.486   0.239   4.072
 8116TIP3   OH224292   2.466   6.866   0.145
 8116TIP3    H124293   2.433   6.847   0.057
 8116TIP3    H224294   2.496   6.782   0.179
 8117TIP3   OH224295   5.810   2.674   3.650
 8117TIP3    H124296   5.865   2.742   3.611
 8117TIP3    H224297   5.852   2.592   3.625
 8118TIP3   OH224298   0.132   0.029   2.571
 8118TIP3    H124299   0.146   0.116   2.609
 8118TIP3    H224300   0.206   0.017   2.511
 8119TIP3   OH224301   1.595   3.938   3.936
 8119TIP3    H124302   1.544   3.932   3.855
 8119TIP3    H224303   1.673   3.988   3.911
 8120TIP3   OH224304   1.495   6.323   1.773
 8120TIP3    H124305   1.520   6.359   1.858
 8120TIP3    H224306   1.561   6.357   1.712
 8121TIP3   OH224307   7.483   4.311   6.810
 8121TIP3    H124308   7.548   4.328   6.742
 8121TIP3    H224309   7.408   4.276   6.763
 8122TIP3   OH224310   6.346   5.743   4.306
 8122TIP3    H124311   6.259   5.713   4.333
 8122TIP3    H224312   6.405   5.674   4.336
 8123TIP3   OH224313   1.505   5.515   3.429
 8123TIP3    H124314   1.597   5.510   3.453
 8123TIP3    H224315   1.461   5.457   3.491
 8124TIP3   OH224316   6.274   1.359   5.171
 8124TIP3    H124317   6.354   1.407   5.148
 8124TIP3    H224318   6.248   1.314   5.091
 8125TIP3   OH224319   7.710   2.583   4.766
 8125TIP3    H124320   7.665   2.565   4.849
 8125TIP3    H224321   7.779   2.646   4.790
 8126TIP3   OH224322   3.366   7.588   4.893
 8126TIP3    H124323   3.344   7.562   4.804
 8126TIP3    H224324   3.413   7.512   4.929
 8127TIP3   OH224325   5.221   2.850   1.775
 8127TIP3    H124326   5.163   2.920   1.804
 8127TIP3    H224327   5.286   2.842   1.845
 8128TIP3   OH224328   3.795   5.849   1.177
 8128TIP3    H124329   3.706   5.829   1.206
 8128TIP3    H224330   3.830   5.908   1.243
 8129TIP3   OH224331   8.087   5.016   0.187
 8129TIP3    H124332   8.004   5.039   0.145
 8129TIP3    H224333   8.093   5.076   0.261
 8130TIP3   OH224334   7.753   2.242   2.646
 8130TIP3    H124335   7.680   2.280   2.695
 8130TIP3    H224336   7.725   2.246   2.555
 8131TIP3   OH224337   7.015   1.041   4.320
 8131TIP3    H124338   7.046   0.954   4.296
 8131TIP3    H224339   6.953   1.064   4.250
 8132TIP3   OH224340   8.071   4.272   5.769
 8132TIP3    H124341   8.110   4.333   5.707
 8132TIP3    H224342   8.145   4.225   5.806
 8133TIP3   OH224343   1.459   6.132   1.393
 8133TIP3    H124344   1.459   6.184   1.313
 8133TIP3    H224345   1.466   6.041   1.363
 8134TIP3   OH224346   2.463   1.042   3.354
 8134TIP3    H124347   2.514   1.053   3.273
 8134TIP3    H224348   2.489   1.116   3.409
 8135TIP3   OH224349   8.120   7.167   4.766
 8135TIP3    H124350   8.071   7.088   4.790
 8135TIP3    H224351   8.179   7.181   4.839
 8136TIP3   OH224352   2.210   3.015   0.361
 8136TIP3    H124353   2.168   3.065   0.431
 8136TIP3    H224354   2.137   2.971   0.317
 8137TIP3   OH224355   2.079   2.522   5.835
 8137TIP3    H124356   2.012   2.454   5.840
 8137TIP3    H224357   2.155   2.485   5.880
 8138TIP3   OH224358   6.119   2.546   3.139
 8138TIP3    H124359   6.096   2.465   3.185
 8138TIP3    H224360   6.167   2.598   3.204
 8139TIP3   OH224361   1.778   0.899   3.737
 8139TIP3    H124362   1.816   0.961   3.799
 8139TIP3    H224363   1.738   0.954   3.669
 8140TIP3   OH224364   1.840   5.671   1.522
 8140TIP3    H124365   1.837   5.702   1.613
 8140TIP3    H224366   1.760   5.706   1.483
 8141TIP3   OH224367   3.256   6.101   3.662
 8141TIP3    H124368   3.251   6.192   3.690
 8141TIP3    H224369   3.257   6.050   3.743
 8142TIP3   OH224370   4.042   4.519   5.477
 8142TIP3    H124371   4.072   4.500   5.566
 8142TIP3    H224372   4.114   4.568   5.437
 8143TIP3   OH224373   4.378   0.918   2.235
 8143TIP3    H124374   4.384   1.000   2.186
 8143TIP3    H224375   4.468   0.887   2.241
 8144TIP3   OH224376   0.964   1.720   0.583
 8144TIP3    H124377   0.955   1.810   0.550
 8144TIP3    H224378   1.056   1.698   0.565
 8145TIP3   OH224379   4.184   3.057   2.297
 8145TIP3    H124380   4.251   3.125   2.306
 8145TIP3    H224381   4.154   3.041   2.386
 8146TIP3   OH224382   7.515   5.562   5.446
 8146TIP3    H124383   7.576   5.599   5.382
 8146TIP3    H224384   7.429   5.578   5.408
 8147TIP3   OH224385   1.265   5.343   0.314
 8147TIP3    H124386   1.225   5.391   0.387
 8147TIP3    H224387   1.194   5.287   0.281
 8148TIP3   OH224388   3.580   3.200   2.073
 8148TIP3    H124389   3.650   3.236   2.018
 8148TIP3    H224390   3.527   3.147   2.013
 8149TIP3   OH224391   1.153   4.456   5.309
 8149TIP3    H124392   1.176   4.473   5.400
 8149TIP3    H224393   1.225   4.492   5.258
 8150TIP3   OH224394   1.674   4.906   5.394
 8150TIP3    H124395   1.669   4.986   5.341
 8150TIP3    H224396   1.634   4.838   5.339
 8151TIP3   OH224397   2.454   1.370   2.992
 8151TIP3    H124398   2.462   1.306   2.921
 8151TIP3    H224399   2.538   1.416   2.993
 8152TIP3   OH224400   6.085   0.068   4.064
 8152TIP3    H124401   6.149   0.051   3.995
 8152TIP3    H224402   6.013   0.008   4.044
 8153TIP3   OH224403   0.747   7.138   4.569
 8153TIP3    H124404   0.677   7.173   4.514
 8153TIP3    H224405   0.825   7.138   4.513
 8154TIP3   OH224406   0.077   7.561   0.582
 8154TIP3    H124407   0.140   7.631   0.561
 8154TIP3    H224408   0.053   7.577   0.673
 8155TIP3   OH224409   7.578   4.348   4.470
 8155TIP3    H124410   7.656   4.317   4.515
 8155TIP3    H224411   7.610   4.381   4.386
 8156TIP3   OH224412   5.754   0.690   0.740
 8156TIP3    H124413   5.809   0.681   0.662
 8156TIP3    H224414   5.717   0.778   0.733
 8157TIP3   OH224415   7.830   0.129   0.281
 8157TIP3    H124416   7.827   0.051   0.226
 8157TIP3    H224417   7.779   0.194   0.233
 8158TIP3   OH224418   6.288   4.802   1.801
 8158TIP3    H124419   6.279   4.800   1.897
 8158TIP3    H224420   6.354   4.869   1.785
 8159TIP3   OH224421   0.598   7.103   5.963
 8159TIP3    H124422   0.580   7.197   5.975
 8159TIP3    H224423   0.544   7.078   5.889
 8160TIP3   OH224424   0.492   0.781   3.505
 8160TIP3    H124425   0.495   0.729   3.585
 8160TIP3    H224426   0.542   0.731   3.441
 8161TIP3   OH224427   6.341   6.539   4.105
 8161TIP3    H124428   6.249   6.560   4.122
 8161TIP3    H224429   6.345   6.444   4.110
 8162TIP3   OH224430   4.859   0.998   4.655
 8162TIP3    H124431   4.777   1.023   4.612
 8162TIP3    H224432   4.842   0.910   4.690
 8163TIP3   OH224433   1.442   0.254   1.115
 8163TIP3    H124434   1.414   0.204   1.038
 8163TIP3    H224435   1.433   0.345   1.090
 8164TIP3   OH224436   6.540   6.185   3.224
 8164TIP3    H124437   6.466   6.180   3.284
 8164TIP3    H224438   6.568   6.276   3.226
 8165TIP3   OH224439   4.802   7.627   4.798
 8165TIP3    H124440   4.770   7.578   4.873
 8165TIP3    H224441   4.760   7.587   4.722
 8166TIP3   OH224442   2.026   6.538   2.684
 8166TIP3    H124443   2.007   6.540   2.590
 8166TIP3    H224444   1.955   6.590   2.723
 8167TIP3   OH224445   6.205   7.096   1.237
 8167TIP3    H124446   6.232   7.024   1.294
 8167TIP3    H224447   6.250   7.080   1.154
 8168TIP3   OH224448   6.787   6.142   2.708
 8168TIP3    H124449   6.762   6.155   2.617
 8168TIP3    H224450   6.753   6.218   2.754
 8169TIP3   OH224451   5.474   1.782   2.557
 8169TIP3    H124452   5.492   1.788   2.463
 8169TIP3    H224453   5.534   1.845   2.597
 8170TIP3   OH224454   5.250   4.282   5.424
 8170TIP3    H124455   5.214   4.228   5.495
 8170TIP3    H224456   5.294   4.219   5.367
 8171TIP3   OH224457   5.140   2.107   2.347
 8171TIP3    H124458   5.186   2.076   2.425
 8171TIP3    H224459   5.113   2.027   2.301
 8172TIP3   OH224460   5.209   4.639   1.100
 8172TIP3    H124461   5.222   4.728   1.069
 8172TIP3    H224462   5.297   4.602   1.107
 8173TIP3   OH224463   5.659   1.024   3.489
 8173TIP3    H124464   5.749   1.015   3.460
 8173TIP3    H224465   5.665   1.030   3.584
 8174TIP3   OH224466   2.110   0.487   3.862
 8174TIP3    H124467   2.146   0.446   3.783
 8174TIP3    H224468   2.088   0.576   3.835
 8175TIP3   OH224469   2.616   1.866   3.220
 8175TIP3    H124470   2.568   1.912   3.290
 8175TIP3    H224471   2.694   1.832   3.263
 8176TIP3   OH224472   4.489   2.223   3.690
 8176TIP3    H124473   4.537   2.265   3.762
 8176TIP3    H224474   4.522   2.267   3.611
 8177TIP3   OH224475   6.128   0.218   2.064
 8177TIP3    H124476   6.176   0.140   2.039
 8177TIP3    H224477   6.081   0.244   1.984
 8178TIP3   OH224478   3.288   0.540   0.491
 8178TIP3    H124479   3.334   0.624   0.496
 8178TIP3    H224480   3.213   0.556   0.434
 8179TIP3   OH224481   3.886   0.568   0.766
 8179TIP3    H124482   3.942   0.517   0.824
 8179TIP3    H224483   3.936   0.577   0.685
 8180TIP3   OH224484   2.037   0.369   2.849
 8180TIP3    H124485   1.963   0.423   2.874
 8180TIP3    H224486   2.087   0.358   2.929
 8181TIP3   OH224487   7.217   7.555   5.341
 8181TIP3    H124488   7.265   7.476   5.317
 8181TIP3    H224489   7.181   7.586   5.258
 8182TIP3   OH224490   5.271   7.472   3.573
 8182TIP3    H124491   5.307   7.488   3.660
 8182TIP3    H224492   5.273   7.557   3.529
 8183TIP3   OH224493   2.013   1.793   4.613
 8183TIP3    H124494   2.074   1.842   4.559
 8183TIP3    H224495   2.030   1.823   4.703
 8184TIP3   OH224496   8.285   5.883   0.607
 8184TIP3    H124497   8.307   5.833   0.528
 8184TIP3    H224498   8.200   5.922   0.588
 8185TIP3   OH224499   7.378   3.077   4.265
 8185TIP3    H124500   7.433   3.016   4.314
 8185TIP3    H224501   7.439   3.124   4.208
 8186TIP3   OH224502   0.475   4.080   5.522
 8186TIP3    H124503   0.534   4.025   5.574
 8186TIP3    H224504   0.480   4.044   5.434
 8187TIP3   OH224505   0.721   0.192   6.017
 8187TIP3    H124506   0.778   0.245   5.961
 8187TIP3    H224507   0.655   0.157   5.957
 8188TIP3   OH224508   3.807   1.606   1.026
 8188TIP3    H124509   3.796   1.610   0.931
 8188TIP3    H224510   3.892   1.648   1.042
 8189TIP3   OH224511   6.039   0.940   6.019
 8189TIP3    H124512   6.039   0.960   5.926
 8189TIP3    H224513   5.948   0.949   6.046
 8190TIP3   OH224514   0.379   5.794   4.070
 8190TIP3    H124515   0.432   5.720   4.099
 8190TIP3    H224516   0.290   5.759   4.062
 8191TIP3   OH224517   1.865   6.819   4.292
 8191TIP3    H124518   1.948   6.813   4.340
 8191TIP3    H224519   1.863   6.740   4.238
 8192TIP3   OH224520   3.536   5.246   3.622
 8192TIP3    H124521   3.519   5.335   3.592
 8192TIP3    H224522   3.501   5.190   3.552
 8193TIP3   OH224523   5.210   1.565   2.143
 8193TIP3    H124524   5.213   1.615   2.061
 8193TIP3    H224525   5.200   1.632   2.210
 8194TIP3   OH224526   7.835   2.302   5.750
 8194TIP3    H124527   7.894   2.355   5.696
 8194TIP3    H224528   7.791   2.365   5.807
 8195TIP3   OH224529   2.165   0.691   2.200
 8195TIP3    H124530   2.073   0.698   2.176
 8195TIP3    H224531   2.206   0.768   2.160
 8196TIP3   OH224532   3.465   0.782   1.777
 8196TIP3    H124533   3.548   0.822   1.750
 8196TIP3    H224534   3.400   0.820   1.718
 8197TIP3   OH224535   3.765   3.830   1.167
 8197TIP3    H124536   3.847   3.874   1.146
 8197TIP3    H224537   3.790   3.760   1.227
 8198TIP3   OH224538   6.390   7.696   3.174
 8198TIP3    H124539   6.327   7.693   3.102
 8198TIP3    H224540   6.386   7.609   3.214
 8199TIP3   OH224541   8.134   1.399   4.226
 8199TIP3    H124542   8.198   1.367   4.289
 8199TIP3    H224543   8.081   1.462   4.276
 8200TIP3   OH224544   0.395   2.577   3.915
 8200TIP3    H124545   0.425   2.563   3.826
 8200TIP3    H224546   0.457   2.640   3.952
 8201TIP3   OH224547   3.199   2.175   6.174
 8201TIP3    H124548   3.214   2.185   6.080
 8201TIP3    H224549   3.151   2.093   6.183
 8202TIP3   OH224550   0.397   0.927   5.445
 8202TIP3    H124551   0.341   1.001   5.422
 8202TIP3    H224552   0.373   0.859   5.381
 8203TIP3   OH224553   3.682   1.337   3.964
 8203TIP3    H124554   3.766   1.342   4.009
 8203TIP3    H224555   3.651   1.247   3.981
 8204TIP3   OH224556   1.318   6.308   1.565
 8204TIP3    H124557   1.376   6.262   1.505
 8204TIP3    H224558   1.371   6.322   1.644
 8205TIP3   OH224559   2.061   5.805   4.902
 8205TIP3    H124560   2.102   5.835   4.983
 8205TIP3    H224561   2.032   5.885   4.858
 8206TIP3   OH224562   7.075   5.708   2.698
 8206TIP3    H124563   7.057   5.787   2.750
 8206TIP3    H224564   6.995   5.693   2.648
 8207TIP3   OH224565   1.345   5.629   4.029
 8207TIP3    H124566   1.354   5.542   3.990
 8207TIP3    H224567   1.382   5.620   4.116
 8208TIP3   OH224568   0.265   6.225   2.536
 8208TIP3    H124569   0.208   6.290   2.496
 8208TIP3    H224570   0.216   6.192   2.611
 8209TIP3   OH224571   0.059   2.609   5.305
 8209TIP3    H124572   0.005   2.536   5.274
 8209TIP3    H224573   0.076   2.661   5.227
 8210TIP3   OH224574   3.980   7.486   0.689
 8210TIP3    H124575   4.041   7.531   0.630
 8210TIP3    H224576   3.982   7.395   0.661
 8211TIP3   OH224577   3.775   3.635   1.414
 8211TIP3    H124578   3.742   3.545   1.413
 8211TIP3    H224579   3.864   3.628   1.448
 8212TIP3   OH224580   6.147   6.606   6.044
 8212TIP3    H124581   6.083   6.615   6.114
 8212TIP3    H224582   6.229   6.587   6.089
 8213TIP3   OH224583   0.599   6.914   1.244
 8213TIP3    H124584   0.524   6.870   1.204
 8213TIP3    H224585   0.638   6.963   1.172
 8214TIP3   OH224586   6.317   2.133   5.698
 8214TIP3    H124587   6.410   2.121   5.713
 8214TIP3    H224588   6.305   2.123   5.604
 8215TIP3   OH224589   1.046   2.689   1.166
 8215TIP3    H124590   1.010   2.733   1.089
 8215TIP3    H224591   0.981   2.702   1.234
 8216TIP3   OH224592   5.235   6.215   5.475
 8216TIP3    H124593   5.320   6.255   5.457
 8216TIP3    H224594   5.176   6.289   5.488
 8217TIP3   OH224595   4.885   2.948   4.039
 8217TIP3    H124596   4.922   2.869   4.000
 8217TIP3    H224597   4.870   3.006   3.965
 8218TIP3   OH224598   6.033   1.329   6.060
 8218TIP3    H124599   6.088   1.288   5.993
 8218TIP3    H224600   6.011   1.414   6.023
 8219TIP3   OH224601   2.714   7.700   0.840
 8219TIP3    H124602   2.802   7.681   0.808
 8219TIP3    H224603   2.696   7.788   0.807
 8220TIP3   OH224604   3.614   0.654   4.006
 8220TIP3    H124605   3.533   0.700   4.027
 8220TIP3    H224606   3.679   0.724   3.995
 8221TIP3   OH224607   2.016   5.372   5.042
 8221TIP3    H124608   2.086   5.352   5.104
 8221TIP3    H224609   2.059   5.373   4.957
 8222TIP3   OH224610   2.734   6.242   6.002
 8222TIP3    H124611   2.662   6.305   6.000
 8222TIP3    H224612   2.695   6.162   6.036
 8223TIP3   OH224613   3.339   6.717   4.101
 8223TIP3    H124614   3.387   6.681   4.027
 8223TIP3    H224615   3.403   6.768   4.150
 8224TIP3   OH224616   6.452   5.637   0.419
 8224TIP3    H124617   6.403   5.634   0.501
 8224TIP3    H224618   6.537   5.675   0.443
 8225TIP3   OH224619   6.530   5.458   4.881
 8225TIP3    H124620   6.475   5.380   4.875
 8225TIP3    H224621   6.590   5.438   4.954
 8226TIP3   OH224622   5.639   6.859   0.181
 8226TIP3    H124623   5.587   6.904   0.115
 8226TIP3    H224624   5.703   6.809   0.132
 8227TIP3   OH224625   0.655   4.700   6.728
 8227TIP3    H124626   0.659   4.656   6.643
 8227TIP3    H224627   0.744   4.695   6.762
 8228TIP3   OH224628   1.472   6.290   2.849
 8228TIP3    H124629   1.456   6.301   2.942
 8228TIP3    H224630   1.474   6.195   2.836
 8229TIP3   OH224631   7.001   1.283   6.335
 8229TIP3    H124632   7.003   1.285   6.240
 8229TIP3    H224633   6.911   1.309   6.357
 8230TIP3   OH224634   5.553   0.838   6.448
 8230TIP3    H124635   5.469   0.848   6.492
 8230TIP3    H224636   5.571   0.925   6.411
 8231TIP3   OH224637   4.149   0.078   2.193
 8231TIP3    H124638   4.154  -0.011   2.157
 8231TIP3    H224639   4.222   0.083   2.255
 8232TIP3   OH224640   3.227   7.006   5.871
 8232TIP3    H124641   3.307   7.027   5.918
 8232TIP3    H224642   3.246   6.924   5.826
 8233TIP3   OH224643   8.144   5.948   4.458
 8233TIP3    H124644   8.201   5.876   4.483
 8233TIP3    H224645   8.203   6.018   4.430
 8234TIP3   OH224646   7.824   6.521   0.478
 8234TIP3    H124647   7.843   6.613   0.461
 8234TIP3    H224648   7.804   6.484   0.392
 8235TIP3   OH224649   0.291   1.401   2.157
 8235TIP3    H124650   0.341   1.380   2.236
 8235TIP3    H224651   0.275   1.495   2.162
 8236TIP3   OH224652   3.276   1.455   0.599
 8236TIP3    H124653   3.245   1.380   0.548
 8236TIP3    H224654   3.200   1.482   0.651
 8237TIP3   OH224655   6.387   5.566   0.660
 8237TIP3    H124656   6.445   5.491   0.676
 8237TIP3    H224657   6.302   5.537   0.693
 8238TIP3   OH224658   6.385   2.073   3.238
 8238TIP3    H124659   6.363   1.980   3.234
 8238TIP3    H224660   6.440   2.081   3.316
 8239TIP3   OH224661   1.813   1.790   0.386
 8239TIP3    H124662   1.893   1.816   0.433
 8239TIP3    H224663   1.813   1.843   0.307
 8240TIP3   OH224664   6.898   2.790   2.946
 8240TIP3    H124665   6.847   2.777   2.867
 8240TIP3    H224666   6.834   2.810   3.014
 8241TIP3   OH224667   1.325   0.491   0.354
 8241TIP3    H124668   1.416   0.465   0.370
 8241TIP3    H224669   1.317   0.495   0.259
 8242TIP3   OH224670   7.344   2.108   4.752
 8242TIP3    H124671   7.295   2.032   4.721
 8242TIP3    H224672   7.427   2.104   4.705
 8243TIP3   OH224673   4.738   0.104   1.575
 8243TIP3    H124674   4.677   0.124   1.505
 8243TIP3    H224675   4.684   0.098   1.654
 8244TIP3   OH224676   1.367   7.306   1.378
 8244TIP3    H124677   1.392   7.342   1.463
 8244TIP3    H224678   1.291   7.251   1.396
 8245TIP3   OH224679   1.868   3.360   0.482
 8245TIP3    H124680   1.875   3.455   0.472
 8245TIP3    H224681   1.807   3.348   0.555
 8246TIP3   OH224682   3.742   6.758   2.195
 8246TIP3    H124683   3.695   6.745   2.277
 8246TIP3    H224684   3.704   6.694   2.135
 8247TIP3   OH224685   1.829   7.678   3.494
 8247TIP3    H124686   1.771   7.754   3.489
 8247TIP3    H224687   1.781   7.614   3.546
 8248TIP3   OH224688   0.662   4.654   3.565
 8248TIP3    H124689   0.600   4.585   3.585
 8248TIP3    H224690   0.730   4.612   3.512
 8249TIP3   OH224691   4.639   7.665   3.816
 8249TIP3    H124692   4.618   7.753   3.847
 8249TIP3    H224693   4.555   7.628   3.789
 8250TIP3   OH224694   4.972   4.154   6.522
 8250TIP3    H124695   5.012   4.226   6.473
 8250TIP3    H224696   4.911   4.114   6.461
 8251TIP3   OH224697   6.121   0.449   5.939
 8251TIP3    H124698   6.186   0.387   5.905
 8251TIP3    H224699   6.085   0.491   5.861
 8252TIP3   OH224700   6.849   7.158   2.511
 8252TIP3    H124701   6.803   7.074   2.518
 8252TIP3    H224702   6.925   7.138   2.457
 8253TIP3   OH224703   6.521   1.772   6.460
 8253TIP3    H124704   6.512   1.704   6.393
 8253TIP3    H224705   6.443   1.763   6.514
 8254TIP3   OH224706   2.169   3.760   4.111
 8254TIP3    H124707   2.195   3.710   4.188
 8254TIP3    H224708   2.250   3.798   4.078
 8255TIP3   OH224709   6.634   5.727   5.108
 8255TIP3    H124710   6.729   5.735   5.096
 8255TIP3    H224711   6.600   5.811   5.077
 8256TIP3   OH224712   0.889   6.436   1.370
 8256TIP3    H124713   0.882   6.387   1.452
 8256TIP3    H224714   0.982   6.458   1.362
 8257TIP3   OH224715   3.661   0.586   5.528
 8257TIP3    H124716   3.629   0.541   5.606
 8257TIP3    H224717   3.677   0.676   5.557
 8258TIP3   OH224718   1.916   5.818   4.038
 8258TIP3    H124719   1.845   5.794   4.098
 8258TIP3    H224720   1.944   5.736   3.999
 8259TIP3   OH224721   2.919   6.548   1.878
 8259TIP3    H124722   2.964   6.631   1.893
 8259TIP3    H224723   2.878   6.559   1.792
 8260TIP3   OH224724   1.529   2.567   4.621
 8260TIP3    H124725   1.445   2.523   4.608
 8260TIP3    H224726   1.569   2.567   4.534
 8261TIP3   OH224727   2.797   4.665   3.198
 8261TIP3    H124728   2.880   4.708   3.176
 8261TIP3    H224729   2.821   4.602   3.267
 8262TIP3   OH224730   2.192   2.408   4.670
 8262TIP3    H124731   2.274   2.371   4.701
 8262TIP3    H224732   2.124   2.356   4.713
 8263TIP3   OH224733   3.357   6.821   6.656
 8263TIP3    H124734   3.302   6.774   6.718
 8263TIP3    H224735   3.361   6.911   6.690
 8264TIP3   OH224736   4.193   7.567   3.917
 8264TIP3    H124737   4.263   7.586   3.855
 8264TIP3    H224738   4.181   7.472   3.911
 8265TIP3   OH224739   1.835   3.847   1.428
 8265TIP3    H124740   1.919   3.817   1.464
 8265TIP3    H224741   1.782   3.768   1.423
 8266TIP3   OH224742   1.870   4.119   3.540
 8266TIP3    H124743   1.918   4.118   3.458
 8266TIP3    H224744   1.936   4.135   3.607
 8267TIP3   OH224745   3.892   5.724   0.587
 8267TIP3    H124746   3.959   5.790   0.566
 8267TIP3    H224747   3.829   5.771   0.642
 8268TIP3   OH224748   7.480   6.899   0.294
 8268TIP3    H124749   7.557   6.842   0.297
 8268TIP3    H224750   7.499   6.961   0.223
 8269TIP3   OH224751   6.828   0.652   6.657
 8269TIP3    H124752   6.836   0.653   6.562
 8269TIP3    H224753   6.746   0.605   6.674
 8270TIP3   OH224754   0.726   5.652   3.742
 8270TIP3    H124755   0.818   5.625   3.736
 8270TIP3    H224756   0.688   5.624   3.659
 8271TIP3   OH224757   4.433   3.139   4.163
 8271TIP3    H124758   4.486   3.060   4.159
 8271TIP3    H224759   4.360   3.122   4.104
 8272TIP3   OH224760   0.274   2.717   6.166
 8272TIP3    H124761   0.282   2.625   6.138
 8272TIP3    H224762   0.184   2.725   6.197
 8273TIP3   OH224763   1.877   1.565   4.540
 8273TIP3    H124764   1.930   1.642   4.558
 8273TIP3    H224765   1.859   1.527   4.627
 8274TIP3   OH224766   5.120   6.337   5.146
 8274TIP3    H124767   5.069   6.409   5.181
 8274TIP3    H224768   5.096   6.262   5.201
 8275TIP3   OH224769   6.859   1.643   1.393
 8275TIP3    H124770   6.935   1.681   1.351
 8275TIP3    H224771   6.789   1.650   1.328
 8276TIP3   OH224772   5.591   1.820   6.247
 8276TIP3    H124773   5.625   1.833   6.335
 8276TIP3    H224774   5.506   1.779   6.260
 8277TIP3   OH224775   4.114   6.777   1.170
 8277TIP3    H124776   4.138   6.868   1.187
 8277TIP3    H224777   4.125   6.767   1.075
 8278TIP3   OH224778   2.095   4.731   4.508
 8278TIP3    H124779   2.085   4.782   4.427
 8278TIP3    H224780   2.179   4.759   4.544
 8279TIP3   OH224781   1.148   1.638   5.863
 8279TIP3    H124782   1.173   1.698   5.934
 8279TIP3    H224783   1.138   1.695   5.787
 8280TIP3   OH224784   8.213   5.763   4.792
 8280TIP3    H124785   8.157   5.687   4.779
 8280TIP3    H224786   8.271   5.763   4.716
 8281TIP3   OH224787   7.829   2.329   0.949
 8281TIP3    H124788   7.782   2.374   0.878
 8281TIP3    H224789   7.824   2.236   0.925
 8282TIP3   OH224790   4.500   3.932   4.965
 8282TIP3    H124791   4.530   3.889   5.045
 8282TIP3    H224792   4.544   4.016   4.964
 8283TIP3   OH224793   5.833   7.041   6.177
 8283TIP3    H124794   5.741   7.022   6.161
 8283TIP3    H224795   5.879   6.997   6.106
 8284TIP3   OH224796   2.142   4.442   5.089
 8284TIP3    H124797   2.156   4.360   5.042
 8284TIP3    H224798   2.109   4.416   5.175
 8285TIP3   OH224799   8.168   6.224   0.439
 8285TIP3    H124800   8.135   6.205   0.526
 8285TIP3    H224801   8.196   6.139   0.405
 8286TIP3   OH224802   0.157   1.208   1.410
 8286TIP3    H124803   0.152   1.302   1.431
 8286TIP3    H224804   0.244   1.197   1.370
 8287TIP3   OH224805   0.391   2.876   5.188
 8287TIP3    H124806   0.303   2.874   5.150
 8287TIP3    H224807   0.417   2.784   5.192
 8288TIP3   OH224808   2.130   1.185   6.457
 8288TIP3    H124809   2.163   1.096   6.454
 8288TIP3    H224810   2.035   1.176   6.450
 8289TIP3   OH224811   3.732   1.419   5.513
 8289TIP3    H124812   3.757   1.341   5.464
 8289TIP3    H224813   3.644   1.440   5.482
 8290TIP3   OH224814   3.052   6.413   3.449
 8290TIP3    H124815   2.975   6.361   3.468
 8290TIP3    H224816   3.019   6.502   3.438
 8291TIP3   OH224817   0.871   0.663   6.655
 8291TIP3    H124818   0.841   0.656   6.745
 8291TIP3    H224819   0.793   0.688   6.606
 8292TIP3   OH224820   2.186   7.231   3.141
 8292TIP3    H124821   2.106   7.271   3.107
 8292TIP3    H224822   2.186   7.142   3.106
 8293TIP3   OH224823   2.842   4.490   1.436
 8293TIP3    H124824   2.889   4.426   1.383
 8293TIP3    H224825   2.749   4.475   1.415
 8294TIP3   OH224826   3.847   2.518   0.089
 8294TIP3    H124827   3.811   2.474   0.012
 8294TIP3    H224828   3.921   2.568   0.056
 8295TIP3   OH224829   7.147   3.768   3.207
 8295TIP3    H124830   7.147   3.836   3.275
 8295TIP3    H224831   7.119   3.814   3.128
 8296TIP3   OH224832   7.991   3.603   3.449
 8296TIP3    H124833   8.019   3.565   3.532
 8296TIP3    H224834   8.062   3.661   3.424
 8297TIP3   OH224835   3.686   4.710   4.932
 8297TIP3    H124836   3.662   4.700   5.024
 8297TIP3    H224837   3.722   4.799   4.926
 8298TIP3   OH224838   1.795   4.785   5.614
 8298TIP3    H124839   1.886   4.797   5.585
 8298TIP3    H224840   1.743   4.835   5.552
 8299TIP3   OH224841   0.138   3.504   5.545
 8299TIP3    H124842   0.163   3.538   5.459
 8299TIP3    H224843   0.188   3.423   5.554
 8300TIP3   OH224844   5.511   2.053   6.103
 8300TIP3    H124845   5.519   2.023   6.013
 8300TIP3    H224846   5.537   1.978   6.156
 8301TIP3   OH224847   2.854   2.027   5.015
 8301TIP3    H124848   2.894   1.939   5.017
 8301TIP3    H224849   2.810   2.035   5.099
 8302TIP3   OH224850   1.241   0.580   0.125
 8302TIP3    H124851   1.190   0.661   0.116
 8302TIP3    H224852   1.318   0.595   0.071
 8303TIP3   OH224853   0.497   6.594   6.315
 8303TIP3    H124854   0.450   6.656   6.259
 8303TIP3    H224855   0.477   6.623   6.404
 8304TIP3   OH224856   5.578   0.898   3.110
 8304TIP3    H124857   5.517   0.972   3.114
 8304TIP3    H224858   5.556   0.853   3.028
 8305TIP3   OH224859   1.419   5.877   6.460
 8305TIP3    H124860   1.369   5.956   6.439
 8305TIP3    H224861   1.504   5.891   6.420
 8306TIP3   OH224862   1.919   3.445   1.560
 8306TIP3    H124863   1.971   3.458   1.640
 8306TIP3    H224864   1.848   3.509   1.567
 8307TIP3   OH224865   6.250   1.653   6.184
 8307TIP3    H124866   6.213   1.706   6.115
 8307TIP3    H224867   6.201   1.676   6.263
 8308TIP3   OH224868   5.923   0.593   0.190
 8308TIP3    H124869   5.894   0.504   0.206
 8308TIP3    H224870   5.848   0.636   0.150
 8309TIP3   OH224871   4.913   7.650   3.866
 8309TIP3    H124872   4.948   7.579   3.812
 8309TIP3    H224873   4.826   7.668   3.829
 8310TIP3   OH224874   7.518   0.675   6.076
 8310TIP3    H124875   7.460   0.606   6.045
 8310TIP3    H224876   7.532   0.731   6.000
 8311TIP3   OH224877   6.742   7.297   2.077
 8311TIP3    H124878   6.753   7.340   2.161
 8311TIP3    H224879   6.647   7.297   2.063
 8312TIP3   OH224880   5.955   7.634   2.026
 8312TIP3    H124881   5.936   7.726   2.046
 8312TIP3    H224882   6.021   7.608   2.090
 8313TIP3   OH224883   6.101   6.927   0.148
 8313TIP3    H124884   6.044   6.912   0.223
 8313TIP3    H224885   6.044   6.918   0.072
 8314TIP3   OH224886   6.609   4.049   3.849
 8314TIP3    H124887   6.661   4.028   3.927
 8314TIP3    H224888   6.651   4.127   3.813
 8315TIP3   OH224889   4.885   3.551   5.832
 8315TIP3    H124890   4.920   3.626   5.783
 8315TIP3    H224891   4.800   3.534   5.792
 8316TIP3   OH224892   5.664   4.437   2.952
 8316TIP3    H124893   5.583   4.430   3.002
 8316TIP3    H224894   5.705   4.351   2.960
 8317TIP3   OH224895   0.868   7.362   1.411
 8317TIP3    H124896   0.841   7.452   1.431
 8317TIP3    H224897   0.790   7.321   1.375
 8318TIP3   OH224898   1.667   2.458   5.569
 8318TIP3    H124899   1.674   2.477   5.476
 8318TIP3    H224900   1.716   2.377   5.580
 8319TIP3   OH224901   4.128   0.382   6.770
 8319TIP3    H124902   4.213   0.422   6.788
 8319TIP3    H224903   4.132   0.359   6.677
 8320TIP3   OH224904   1.127   7.551   5.126
 8320TIP3    H124905   1.211   7.541   5.172
 8320TIP3    H224906   1.121   7.473   5.071
 8321TIP3   OH224907   4.999   6.860   3.752
 8321TIP3    H124908   4.958   6.947   3.750
 8321TIP3    H224909   5.030   6.850   3.842
 8322TIP3   OH224910   2.803   4.100   5.028
 8322TIP3    H124911   2.808   4.005   5.017
 8322TIP3    H224912   2.776   4.113   5.119
 8323TIP3   OH224913   6.063   2.700   6.721
 8323TIP3    H124914   6.090   2.615   6.686
 8323TIP3    H224915   6.146   2.746   6.738
 8324TIP3   OH224916   7.354   1.068   4.875
 8324TIP3    H124917   7.259   1.073   4.878
 8324TIP3    H224918   7.375   0.984   4.916
 8325TIP3   OH224919   4.546   0.711   4.500
 8325TIP3    H124920   4.532   0.700   4.406
 8325TIP3    H224921   4.625   0.661   4.519
 8326TIP3   OH224922   7.161   6.102   4.335
 8326TIP3    H124923   7.088   6.160   4.317
 8326TIP3    H224924   7.224   6.120   4.264
 8327TIP3   OH224925   1.226   3.372   3.869
 8327TIP3    H124926   1.216   3.461   3.835
 8327TIP3    H224927   1.149   3.358   3.924
 8328TIP3   OH224928   1.595   7.053   0.592
 8328TIP3    H124929   1.569   6.962   0.607
 8328TIP3    H224930   1.650   7.050   0.514
 8329TIP3   OH224931   5.478   2.595   1.988
 8329TIP3    H124932   5.426   2.515   1.997
 8329TIP3    H224933   5.554   2.569   1.936
 8330TIP3   OH224934   1.056   2.741   6.376
 8330TIP3    H124935   0.990   2.807   6.355
 8330TIP3    H224936   1.125   2.790   6.420
 8331TIP3   OH224937   5.260   5.410   1.834
 8331TIP3    H124938   5.257   5.324   1.792
 8331TIP3    H224939   5.168   5.436   1.844
 8332TIP3   OH224940   0.284   1.451   1.498
 8332TIP3    H124941   0.227   1.502   1.555
 8332TIP3    H224942   0.348   1.410   1.557
 8333TIP3   OH224943   6.569   5.186   3.483
 8333TIP3    H124944   6.519   5.256   3.524
 8333TIP3    H224945   6.609   5.228   3.406
 8334TIP3   OH224946   7.771   0.003   2.693
 8334TIP3    H124947   7.717   0.076   2.662
 8334TIP3    H224948   7.787  -0.049   2.614
 8335TIP3   OH224949   5.222   5.946   2.052
 8335TIP3    H124950   5.311   5.958   2.088
 8335TIP3    H224951   5.211   6.017   1.990
 8336TIP3   OH224952   8.153   2.532   0.567
 8336TIP3    H124953   8.124   2.450   0.607
 8336TIP3    H224954   8.248   2.526   0.565
 8337TIP3   OH224955   3.800   4.407   6.143
 8337TIP3    H124956   3.819   4.404   6.049
 8337TIP3    H224957   3.775   4.498   6.160
 8338TIP3   OH224958   8.171   0.966   6.240
 8338TIP3    H124959   8.154   0.879   6.203
 8338TIP3    H224960   8.095   0.983   6.296
 8339TIP3   OH224961   6.785   1.453   6.753
 8339TIP3    H124962   6.844   1.496   6.692
 8339TIP3    H224963   6.789   1.507   6.832
 8340TIP3   OH224964   0.635   5.461   1.481
 8340TIP3    H124965   0.541   5.480   1.473
 8340TIP3    H224966   0.639   5.392   1.547
 8341TIP3   OH224967   6.049   1.028   6.561
 8341TIP3    H124968   6.069   0.937   6.580
 8341TIP3    H224969   5.954   1.029   6.546
 8342TIP3   OH224970   6.946   5.398   4.788
 8342TIP3    H124971   6.992   5.481   4.787
 8342TIP3    H224972   6.854   5.422   4.803
 8343TIP3   OH224973   6.873   7.265   0.351
 8343TIP3    H124974   6.934   7.316   0.405
 8343TIP3    H224975   6.798   7.248   0.408
 8344TIP3   OH224976   6.096   1.751   2.839
 8344TIP3    H124977   6.069   1.843   2.834
 8344TIP3    H224978   6.045   1.714   2.911
 8345TIP3   OH224979   1.223   5.717   1.087
 8345TIP3    H124980   1.171   5.638   1.104
 8345TIP3    H224981   1.313   5.691   1.105
 8346TIP3   OH224982   4.865   4.879   3.951
 8346TIP3    H124983   4.897   4.789   3.957
 8346TIP3    H224984   4.926   4.930   4.005
 8347TIP3   OH224985   6.169   5.042   5.704
 8347TIP3    H124986   6.102   5.018   5.640
 8347TIP3    H224987   6.121   5.092   5.771
 8348TIP3   OH224988   6.528   5.165   0.147
 8348TIP3    H124989   6.620   5.174   0.175
 8348TIP3    H224990   6.490   5.251   0.164
 8349TIP3   OH224991   2.046   3.328   4.427
 8349TIP3    H124992   2.067   3.239   4.456
 8349TIP3    H224993   2.022   3.374   4.507
 8350TIP3   OH224994   7.028   4.155   1.379
 8350TIP3    H124995   6.963   4.224   1.397
 8350TIP3    H224996   7.011   4.129   1.289
 8351TIP3   OH224997   8.278   3.990   0.873
 8351TIP3    H124998   8.220   3.937   0.927
 8351TIP3    H224999   8.332   3.927   0.826
 8352TIP3   OH225000   5.446   5.520   2.025
 8352TIP3    H125001   5.394   5.469   1.963
 8352TIP3    H225002   5.384   5.581   2.064
 8353TIP3   OH225003   2.383   6.961   4.908
 8353TIP3    H125004   2.344   6.974   4.994
 8353TIP3    H225005   2.398   6.866   4.903
 8354TIP3   OH225006   3.434   1.481   6.290
 8354TIP3    H125007   3.490   1.556   6.268
 8354TIP3    H225008   3.348   1.505   6.256
 8355TIP3   OH225009   3.293   5.834   6.120
 8355TIP3    H125010   3.360   5.892   6.156
 8355TIP3    H225011   3.290   5.856   6.027
 8356TIP3   OH225012   4.344   1.475   1.159
 8356TIP3    H125013   4.336   1.380   1.147
 8356TIP3    H225014   4.437   1.493   1.144
 8357TIP3   OH225015   4.649   3.678   1.499
 8357TIP3    H125016   4.688   3.759   1.466
 8357TIP3    H225017   4.638   3.623   1.421
 8358TIP3   OH225018   2.076   6.712   0.187
 8358TIP3    H125019   2.059   6.657   0.264
 8358TIP3    H225020   2.123   6.654   0.127
 8359TIP3   OH225021   7.485   1.647   1.890
 8359TIP3    H125022   7.439   1.654   1.974
 8359TIP3    H225023   7.542   1.724   1.887
 8360TIP3   OH225024   0.947   2.464   2.091
 8360TIP3    H125025   1.032   2.474   2.049
 8360TIP3    H225026   0.898   2.406   2.033
 8361TIP3   OH225027   5.605   6.010   2.573
 8361TIP3    H125028   5.576   5.951   2.643
 8361TIP3    H225029   5.534   6.073   2.565
 8362TIP3   OH225030   1.370   4.843   5.364
 8362TIP3    H125031   1.291   4.862   5.314
 8362TIP3    H225032   1.380   4.918   5.423
 8363TIP3   OH225033   5.503   2.741   3.826
 8363TIP3    H125034   5.482   2.650   3.806
 8363TIP3    H225035   5.465   2.756   3.913
 8364TIP3   OH225036   7.524   5.083   2.769
 8364TIP3    H125037   7.481   5.135   2.838
 8364TIP3    H225038   7.574   5.147   2.719
 8365TIP3   OH225039   4.085   1.568   3.296
 8365TIP3    H125040   4.142   1.567   3.219
 8365TIP3    H225041   3.997   1.559   3.260
 8366TIP3   OH225042   1.938   3.874   3.226
 8366TIP3    H125043   1.866   3.862   3.289
 8366TIP3    H225044   1.966   3.785   3.205
 8367TIP3   OH225045   3.108   0.293   5.909
 8367TIP3    H125046   3.065   0.208   5.916
 8367TIP3    H225047   3.119   0.306   5.815
 8368TIP3   OH225048   0.486   5.250   1.205
 8368TIP3    H125049   0.562   5.302   1.230
 8368TIP3    H225050   0.479   5.261   1.110
 8369TIP3   OH225051   1.062   5.531   1.172
 8369TIP3    H125052   1.030   5.548   1.261
 8369TIP3    H225053   1.108   5.447   1.180
 8370TIP3   OH225054   2.823   0.969   1.539
 8370TIP3    H125055   2.842   1.061   1.522
 8370TIP3    H225056   2.734   0.957   1.506
 8371TIP3   OH225057   2.619   3.361   5.872
 8371TIP3    H125058   2.708   3.347   5.904
 8371TIP3    H225059   2.602   3.454   5.888
 8372TIP3   OH225060   1.436   3.890   5.336
 8372TIP3    H125061   1.485   3.862   5.258
 8372TIP3    H225062   1.492   3.957   5.376
 8373TIP3   OH225063   5.391   3.852   5.550
 8373TIP3    H125064   5.296   3.860   5.558
 8373TIP3    H225065   5.412   3.892   5.466
 8374TIP3   OH225066   7.015   3.261   6.300
 8374TIP3    H125067   7.059   3.197   6.357
 8374TIP3    H225068   6.960   3.312   6.359
 8375TIP3   OH225069   6.703   5.869   5.350
 8375TIP3    H125070   6.675   5.789   5.305
 8375TIP3    H225071   6.623   5.919   5.364
 8376TIP3   OH225072   7.510   1.866   0.710
 8376TIP3    H125073   7.550   1.801   0.653
 8376TIP3    H225074   7.438   1.903   0.659
 8377TIP3   OH225075   0.364   0.596   6.550
 8377TIP3    H125076   0.421   0.592   6.474
 8377TIP3    H225077   0.424   0.605   6.625
 8378TIP3   OH225078   3.592   0.905   3.684
 8378TIP3    H125079   3.517   0.917   3.625
 8378TIP3    H225080   3.601   0.810   3.692
 8379TIP3   OH225081   4.358   2.118   4.473
 8379TIP3    H125082   4.376   2.039   4.523
 8379TIP3    H225083   4.323   2.087   4.390
 8380TIP3   OH225084   2.043   5.882   5.513
 8380TIP3    H125085   2.083   5.805   5.473
 8380TIP3    H225086   2.065   5.875   5.606
 8381TIP3   OH225087   3.611   0.835   5.190
 8381TIP3    H125088   3.680   0.825   5.124
 8381TIP3    H225089   3.549   0.897   5.151
 8382TIP3   OH225090   7.144   6.806   4.477
 8382TIP3    H125091   7.197   6.756   4.415
 8382TIP3    H225092   7.079   6.850   4.421
 8383TIP3   OH225093   6.756   1.443   5.529
 8383TIP3    H125094   6.758   1.367   5.587
 8383TIP3    H225095   6.836   1.491   5.552
 8384TIP3   OH225096   4.870   1.005   2.034
 8384TIP3    H125097   4.964   1.009   2.049
 8384TIP3    H225098   4.851   1.077   1.974
 8385TIP3   OH225099   0.938   0.219   3.528
 8385TIP3    H125100   0.985   0.139   3.506
 8385TIP3    H225101   0.872   0.228   3.459
 8386TIP3   OH225102   5.311   3.963   0.609
 8386TIP3    H125103   5.289   3.870   0.606
 8386TIP3    H225104   5.387   3.972   0.552
 8387TIP3   OH225105   0.118   7.062   5.801
 8387TIP3    H125106   0.041   7.119   5.790
 8387TIP3    H225107   0.083   6.981   5.836
 8388TIP3   OH225108   3.838   2.355   1.174
 8388TIP3    H125109   3.898   2.427   1.194
 8388TIP3    H225110   3.894   2.277   1.174
 8389TIP3   OH225111   6.057   4.741   1.004
 8389TIP3    H125112   6.110   4.810   1.045
 8389TIP3    H225113   6.076   4.662   1.054
 8390TIP3   OH225114   7.971   6.370   3.157
 8390TIP3    H125115   7.985   6.345   3.248
 8390TIP3    H225116   8.019   6.303   3.107
 8391TIP3   OH225117   3.007   7.644   0.147
 8391TIP3    H125118   3.008   7.617   0.239
 8391TIP3    H225119   2.929   7.699   0.139
 8392TIP3   OH225120   1.630   5.526   4.494
 8392TIP3    H125121   1.614   5.506   4.586
 8392TIP3    H225122   1.587   5.456   4.446
 8393TIP3   OH225123   3.618   0.528   1.357
 8393TIP3    H125124   3.685   0.589   1.326
 8393TIP3    H225125   3.576   0.572   1.430
 8394TIP3   OH225126   0.673   7.590   3.853
 8394TIP3    H125127   0.649   7.617   3.942
 8394TIP3    H225128   0.602   7.624   3.799
 8395TIP3   OH225129   4.179   6.078   4.325
 8395TIP3    H125130   4.179   6.146   4.392
 8395TIP3    H225131   4.267   6.040   4.329
 8396TIP3   OH225132   6.319   5.704   3.078
 8396TIP3    H125133   6.370   5.725   3.000
 8396TIP3    H225134   6.348   5.768   3.144
 8397TIP3   OH225135   2.017   6.217   3.876
 8397TIP3    H125136   1.924   6.236   3.869
 8397TIP3    H225137   2.061   6.290   3.832
 8398TIP3   OH225138   3.637   1.301   0.931
 8398TIP3    H125139   3.669   1.392   0.936
 8398TIP3    H225140   3.711   1.248   0.961
 8399TIP3   OH225141   4.895   2.207   3.515
 8399TIP3    H125142   4.874   2.137   3.577
 8399TIP3    H225143   4.810   2.243   3.490
 8400TIP3   OH225144   3.358   4.306   5.014
 8400TIP3    H125145   3.312   4.371   5.066
 8400TIP3    H225146   3.415   4.357   4.957
 8401TIP3   OH225147   4.139   5.023   6.351
 8401TIP3    H125148   4.147   5.119   6.346
 8401TIP3    H225149   4.221   4.991   6.314
 8402TIP3   OH225150   6.784   4.932   5.621
 8402TIP3    H125151   6.702   4.947   5.573
 8402TIP3    H225152   6.815   4.847   5.591
 8403TIP3   OH225153   0.490   5.679   4.889
 8403TIP3    H125154   0.557   5.611   4.893
 8403TIP3    H225155   0.413   5.636   4.851
 8404TIP3   OH225156   5.133   3.367   2.983
 8404TIP3    H125157   5.092   3.389   3.067
 8404TIP3    H225158   5.061   3.340   2.927
 8405TIP3   OH225159   8.339   1.430   3.174
 8405TIP3    H125160   8.270   1.404   3.235
 8405TIP3    H225161   8.297   1.495   3.117
 8406TIP3   OH225162   4.468   7.626   2.759
 8406TIP3    H125163   4.521   7.553   2.790
 8406TIP3    H225164   4.502   7.644   2.671
 8407TIP3   OH225165   4.434   1.458   3.400
 8407TIP3    H125166   4.442   1.419   3.487
 8407TIP3    H225167   4.382   1.394   3.350
 8408TIP3   OH225168   2.557   3.901   5.142
 8408TIP3    H125169   2.507   3.836   5.192
 8408TIP3    H225170   2.645   3.864   5.135
 8409TIP3   OH225171   1.433   1.644   1.906
 8409TIP3    H125172   1.470   1.630   1.993
 8409TIP3    H225173   1.508   1.638   1.847
 8410TIP3   OH225174   6.724   4.011   1.305
 8410TIP3    H125175   6.774   4.055   1.236
 8410TIP3    H225176   6.788   3.954   1.348
 8411TIP3   OH225177   1.675   2.435   6.021
 8411TIP3    H125178   1.677   2.371   6.092
 8411TIP3    H225179   1.755   2.420   5.971
 8412TIP3   OH225180   7.698   7.838   4.451
 8412TIP3    H125181   7.711   7.880   4.537
 8412TIP3    H225182   7.654   7.756   4.471
 8413TIP3   OH225183   6.910   2.363   5.281
 8413TIP3    H125184   6.891   2.327   5.368
 8413TIP3    H225185   6.993   2.323   5.257
 8414TIP3   OH225186   5.277   5.032   3.120
 8414TIP3    H125187   5.357   5.067   3.158
 8414TIP3    H225188   5.233   5.108   3.082
 8415TIP3   OH225189   3.648   6.439   3.758
 8415TIP3    H125190   3.625   6.474   3.672
 8415TIP3    H225191   3.564   6.425   3.802
 8416TIP3   OH225192   7.056   3.932   3.405
 8416TIP3    H125193   7.048   4.017   3.448
 8416TIP3    H225194   6.975   3.886   3.428
 8417TIP3   OH225195   1.316   1.374   3.207
 8417TIP3    H125196   1.373   1.304   3.174
 8417TIP3    H225197   1.330   1.446   3.145
 8418TIP3   OH225198   5.355   1.058   4.571
 8418TIP3    H125199   5.391   1.146   4.571
 8418TIP3    H225200   5.261   1.070   4.582
 8419TIP3   OH225201   5.005   1.255   4.852
 8419TIP3    H125202   4.918   1.276   4.886
 8419TIP3    H225203   5.064   1.317   4.897
 8420TIP3   OH225204   2.392   1.562   4.106
 8420TIP3    H125205   2.345   1.496   4.054
 8420TIP3    H225206   2.484   1.540   4.093
 8421TIP3   OH225207   2.029   1.255   0.461
 8421TIP3    H125208   2.028   1.340   0.417
 8421TIP3    H225209   1.997   1.194   0.395
 8422TIP3   OH225210   3.582   5.399   0.866
 8422TIP3    H125211   3.632   5.439   0.795
 8422TIP3    H225212   3.648   5.356   0.920
 8423TIP3   OH225213   5.866   0.186   1.011
 8423TIP3    H125214   5.878   0.268   1.059
 8423TIP3    H225215   5.796   0.205   0.948
 8424TIP3   OH225216   5.935   5.061   1.248
 8424TIP3    H125217   5.953   5.030   1.159
 8424TIP3    H225218   5.959   4.988   1.304
 8425TIP3   OH225219   4.244   6.272   5.124
 8425TIP3    H125220   4.317   6.303   5.178
 8425TIP3    H225221   4.212   6.194   5.168
 8426TIP3   OH225222   1.439   5.891   0.240
 8426TIP3    H125223   1.367   5.946   0.211
 8426TIP3    H225224   1.517   5.932   0.204
 8427TIP3   OH225225   1.726   5.766   2.330
 8427TIP3    H125226   1.803   5.722   2.295
 8427TIP3    H225227   1.678   5.697   2.376
 8428TIP3   OH225228   1.522   1.763   3.161
 8428TIP3    H125229   1.472   1.723   3.090
 8428TIP3    H225230   1.537   1.692   3.224
 8429TIP3   OH225231   1.931   5.217   6.035
 8429TIP3    H125232   1.872   5.147   6.064
 8429TIP3    H225233   2.019   5.180   6.046
 8430TIP3   OH225234   4.479   0.408   0.710
 8430TIP3    H125235   4.460   0.316   0.727
 8430TIP3    H225236   4.561   0.408   0.661
 8431TIP3   OH225237   5.545   5.996   5.858
 8431TIP3    H125238   5.469   6.043   5.823
 8431TIP3    H225239   5.599   6.064   5.898
 8432TIP3   OH225240   7.950   0.244   6.611
 8432TIP3    H125241   7.982   0.183   6.678
 8432TIP3    H225242   7.864   0.272   6.643
 8433TIP3   OH225243   1.935   6.146   0.978
 8433TIP3    H125244   1.982   6.126   0.897
 8433TIP3    H225245   1.952   6.239   0.993
 8434TIP3   OH225246   4.799   6.856   4.941
 8434TIP3    H125247   4.709   6.857   4.909
 8434TIP3    H225248   4.833   6.942   4.917
 8435TIP3   OH225249   4.256   2.711   3.497
 8435TIP3    H125250   4.288   2.753   3.417
 8435TIP3    H225251   4.322   2.646   3.518
 8436TIP3   OH225252   2.988   0.772   2.452
 8436TIP3    H125253   3.043   0.728   2.387
 8436TIP3    H225254   2.959   0.852   2.409
 8437TIP3   OH225255   0.511   4.374   6.211
 8437TIP3    H125256   0.494   4.363   6.305
 8437TIP3    H225257   0.534   4.286   6.180
 8438TIP3   OH225258   2.053   5.356   1.376
 8438TIP3    H125259   2.028   5.277   1.424
 8438TIP3    H225260   2.128   5.390   1.424
 8439TIP3   OH225261   5.482   4.348   3.825
 8439TIP3    H125262   5.437   4.422   3.867
 8439TIP3    H225263   5.570   4.381   3.806
 8440TIP3   OH225264   5.335   6.271   3.328
 8440TIP3    H125265   5.354   6.336   3.260
 8440TIP3    H225266   5.317   6.190   3.281
 8441TIP3   OH225267   3.874   0.479   6.745
 8441TIP3    H125268   3.892   0.518   6.660
 8441TIP3    H225269   3.959   0.451   6.778
 8442TIP3   OH225270   3.482   2.172   4.294
 8442TIP3    H125271   3.538   2.162   4.217
 8442TIP3    H225272   3.396   2.142   4.265
 8443TIP3   OH225273   3.700   3.555   6.706
 8443TIP3    H125274   3.792   3.579   6.714
 8443TIP3    H225275   3.700   3.460   6.693
 8444TIP3   OH225276   2.632   0.880   4.879
 8444TIP3    H125277   2.650   0.870   4.786
 8444TIP3    H225278   2.638   0.792   4.915
 8445TIP3   OH225279   3.941   3.535   0.676
 8445TIP3    H125280   3.972   3.482   0.749
 8445TIP3    H225281   3.847   3.544   0.692
 8446TIP3   OH225282   5.461   2.568   0.973
 8446TIP3    H125283   5.379   2.586   0.927
 8446TIP3    H225284   5.478   2.475   0.956
 8447TIP3   OH225285   4.547   4.647   2.528
 8447TIP3    H125286   4.567   4.740   2.529
 8447TIP3    H225287   4.504   4.632   2.443
 8448TIP3   OH225288   3.916   4.831   4.064
 8448TIP3    H125289   4.002   4.866   4.087
 8448TIP3    H225290   3.864   4.907   4.039
 8449TIP3   OH225291   0.314   0.020   4.449
 8449TIP3    H125292   0.289  -0.014   4.363
 8449TIP3    H225293   0.235   0.012   4.502
 8450TIP3   OH225294   2.435   2.613   6.744
 8450TIP3    H125295   2.347   2.645   6.764
 8450TIP3    H225296   2.490   2.652   6.812
 8451TIP3   OH225297   5.568   5.069   3.310
 8451TIP3    H125298   5.624   5.103   3.240
 8451TIP3    H225299   5.514   5.143   3.335
 8452TIP3   OH225300   7.837   2.287   5.434
 8452TIP3    H125301   7.757   2.287   5.381
 8452TIP3    H225302   7.812   2.240   5.514
 8453TIP3   OH225303   7.032   5.157   3.413
 8453TIP3    H125304   7.003   5.248   3.404
 8453TIP3    H225305   7.121   5.164   3.449
 8454TIP3   OH225306   4.030   1.646   1.426
 8454TIP3    H125307   4.029   1.642   1.522
 8454TIP3    H225308   4.063   1.561   1.398
 8455TIP3   OH225309   2.450   2.862   1.383
 8455TIP3    H125310   2.434   2.809   1.305
 8455TIP3    H225311   2.539   2.895   1.372
 8456TIP3   OH225312   6.551   6.418   2.045
 8456TIP3    H125313   6.526   6.409   2.137
 8456TIP3    H225314   6.620   6.484   2.045
 8457TIP3   OH225315   5.380   0.808   3.773
 8457TIP3    H125316   5.289   0.839   3.774
 8457TIP3    H225317   5.382   0.739   3.839
 8458TIP3   OH225318   3.205   7.065   5.309
 8458TIP3    H125319   3.173   7.018   5.233
 8458TIP3    H225320   3.301   7.060   5.302
 8459TIP3   OH225321   6.778   4.076   0.100
 8459TIP3    H125322   6.754   4.018   0.028
 8459TIP3    H225323   6.818   4.152   0.057
 8460TIP3   OH225324   0.127   2.569   4.378
 8460TIP3    H125325   0.054   2.533   4.328
 8460TIP3    H225326   0.087   2.638   4.431
 8461TIP3   OH225327   8.121   4.579   1.433
 8461TIP3    H125328   8.200   4.605   1.386
 8461TIP3    H225329   8.097   4.657   1.485
 8462TIP3   OH225330   7.850   4.523   5.298
 8462TIP3    H125331   7.844   4.568   5.382
 8462TIP3    H225332   7.908   4.578   5.245
 8463TIP3   OH225333   4.130   5.571   2.794
 8463TIP3    H125334   4.066   5.617   2.847
 8463TIP3    H225335   4.182   5.640   2.753
 8464TIP3   OH225336   5.724   4.222   0.498
 8464TIP3    H125337   5.683   4.161   0.559
 8464TIP3    H225338   5.722   4.177   0.414
 8465TIP3   OH225339   2.689   0.328   5.834
 8465TIP3    H125340   2.640   0.260   5.787
 8465TIP3    H225341   2.630   0.403   5.835
 8466TIP3   OH225342   2.482   1.446   4.623
 8466TIP3    H125343   2.530   1.426   4.704
 8466TIP3    H225344   2.551   1.455   4.556
 8467TIP3   OH225345   2.877   2.309   2.411
 8467TIP3    H125346   2.836   2.297   2.325
 8467TIP3    H225347   2.939   2.380   2.397
 8468TIP3   OH225348   0.977   3.261   4.771
 8468TIP3    H125349   0.897   3.269   4.823
 8468TIP3    H225350   0.954   3.199   4.702
 8469TIP3   OH225351   4.867   6.395   4.906
 8469TIP3    H125352   4.778   6.423   4.925
 8469TIP3    H225353   4.916   6.416   4.986
 8470TIP3   OH225354   0.667   0.627   4.200
 8470TIP3    H125355   0.762   0.618   4.188
 8470TIP3    H225356   0.658   0.705   4.255
 8471TIP3   OH225357   5.138   6.562   3.145
 8471TIP3    H125358   5.047   6.533   3.134
 8471TIP3    H225359   5.136   6.616   3.224
 8472TIP3   OH225360   6.252   3.432   2.576
 8472TIP3    H125361   6.218   3.455   2.490
 8472TIP3    H225362   6.287   3.343   2.565
 8473TIP3   OH225363   0.065   4.939   1.356
 8473TIP3    H125364   0.051   5.034   1.356
 8473TIP3    H225365   0.028   4.909   1.439
 8474TIP3   OH225366   3.514   2.564   6.552
 8474TIP3    H125367   3.470   2.635   6.599
 8474TIP3    H225368   3.553   2.606   6.476
 8475TIP3   OH225369   5.429   1.329   3.591
 8475TIP3    H125370   5.473   1.388   3.530
 8475TIP3    H225371   5.359   1.290   3.540
 8476TIP3   OH225372   2.792   5.608   1.890
 8476TIP3    H125373   2.830   5.545   1.828
 8476TIP3    H225374   2.860   5.619   1.956
 8477TIP3   OH225375   7.714   2.471   0.743
 8477TIP3    H125376   7.672   2.481   0.657
 8477TIP3    H225377   7.689   2.549   0.791
 8478TIP3   OH225378   3.759   1.684   5.272
 8478TIP3    H125379   3.765   1.611   5.333
 8478TIP3    H225380   3.779   1.647   5.187
 8479TIP3   OH225381   5.053   1.419   3.015
 8479TIP3    H125382   5.036   1.492   2.956
 8479TIP3    H225383   5.025   1.450   3.101
 8480TIP3   OH225384   7.885   1.275   4.745
 8480TIP3    H125385   7.889   1.283   4.840
 8480TIP3    H225386   7.798   1.238   4.727
 8481TIP3   OH225387   5.074   0.781   5.221
 8481TIP3    H125388   5.010   0.824   5.164
 8481TIP3    H225389   5.140   0.747   5.160
 8482TIP3   OH225390   2.611   6.019   3.414
 8482TIP3    H125391   2.699   6.008   3.379
 8482TIP3    H225392   2.595   5.940   3.466
 8483TIP3   OH225393   8.147   2.047   3.262
 8483TIP3    H125394   8.111   1.971   3.308
 8483TIP3    H225395   8.161   2.111   3.331
 8484TIP3   OH225396   4.432   1.845   4.566
 8484TIP3    H125397   4.351   1.798   4.586
 8484TIP3    H225398   4.477   1.852   4.650
 8485TIP3   OH225399   3.334   4.629   1.690
 8485TIP3    H125400   3.300   4.577   1.617
 8485TIP3    H225401   3.255   4.656   1.738
 8486TIP3   OH225402   5.818   0.788   3.834
 8486TIP3    H125403   5.756   0.854   3.865
 8486TIP3    H225404   5.782   0.705   3.866
 8487TIP3   OH225405   6.617   6.713   1.906
 8487TIP3    H125406   6.561   6.771   1.958
 8487TIP3    H225407   6.703   6.719   1.948
 8488TIP3   OH225408   1.349   2.515   0.259
 8488TIP3    H125409   1.348   2.563   0.342
 8488TIP3    H225410   1.417   2.449   0.271
 8489TIP3   OH225411   0.863   1.498   5.085
 8489TIP3    H125412   0.903   1.429   5.138
 8489TIP3    H225413   0.842   1.456   5.002
 8490TIP3   OH225414   0.533   3.025   6.189
 8490TIP3    H125415   0.464   3.037   6.254
 8490TIP3    H225416   0.501   3.071   6.111
 8491TIP3   OH225417   6.863   7.548   2.708
 8491TIP3    H125418   6.847   7.576   2.618
 8491TIP3    H225419   6.902   7.624   2.750
 8492TIP3   OH225420   2.437   5.183   1.182
 8492TIP3    H125421   2.353   5.228   1.184
 8492TIP3    H225422   2.445   5.144   1.270
 8493TIP3   OH225423   2.358   4.345   1.929
 8493TIP3    H125424   2.303   4.314   1.857
 8493TIP3    H225425   2.368   4.269   1.986
 8494TIP3   OH225426   2.236   5.584   4.673
 8494TIP3    H125427   2.174   5.632   4.616
 8494TIP3    H225428   2.270   5.651   4.732
 8495TIP3   OH225429   5.692   0.494   1.305
 8495TIP3    H125430   5.606   0.458   1.281
 8495TIP3    H225431   5.695   0.487   1.400
 8496TIP3   OH225432   3.221   7.359   1.821
 8496TIP3    H125433   3.285   7.371   1.750
 8496TIP3    H225434   3.151   7.420   1.801
 8497TIP3   OH225435   6.167   5.518   0.821
 8497TIP3    H125436   6.088   5.468   0.840
 8497TIP3    H225437   6.234   5.480   0.878
 8498TIP3   OH225438   1.454   3.310   1.688
 8498TIP3    H125439   1.408   3.270   1.762
 8498TIP3    H225440   1.479   3.397   1.719
 8499TIP3   OH225441   2.669   4.058   0.702
 8499TIP3    H125442   2.717   4.032   0.623
 8499TIP3    H225443   2.731   4.041   0.774
 8500TIP3   OH225444   4.339   3.067   1.429
 8500TIP3    H125445   4.420   3.062   1.378
 8500TIP3    H225446   4.357   3.015   1.508
 8501TIP3   OH225447   4.673   7.233   3.255
 8501TIP3    H125448   4.611   7.299   3.224
 8501TIP3    H225449   4.632   7.196   3.333
 8502TIP3   OH225450   4.686   5.658   2.441
 8502TIP3    H125451   4.600   5.699   2.427
 8502TIP3    H225452   4.730   5.666   2.356
 8503TIP3   OH225453   5.530   5.952   4.350
 8503TIP3    H125454   5.563   6.016   4.413
 8503TIP3    H225455   5.597   5.884   4.347
 8504TIP3   OH225456   0.292   3.290   2.777
 8504TIP3    H125457   0.341   3.368   2.751
 8504TIP3    H225458   0.200   3.317   2.773
 8505TIP3   OH225459   5.784   4.706   6.441
 8505TIP3    H125460   5.874   4.740   6.442
 8505TIP3    H225461   5.793   4.613   6.457
 8506TIP3   OH225462   3.024   1.961   1.155
 8506TIP3    H125463   2.978   1.892   1.204
 8506TIP3    H225464   2.998   2.042   1.198
 8507TIP3   OH225465   5.981   3.073   2.784
 8507TIP3    H125466   6.028   2.999   2.823
 8507TIP3    H225467   5.889   3.049   2.791
 8508TIP3   OH225468   1.881   1.110   3.859
 8508TIP3    H125469   1.814   1.172   3.830
 8508TIP3    H225470   1.892   1.129   3.952
 8509TIP3   OH225471   1.247   7.151   4.282
 8509TIP3    H125472   1.240   7.056   4.291
 8509TIP3    H225473   1.341   7.169   4.284
 8510TIP3   OH225474   1.057   0.608   1.423
 8510TIP3    H125475   1.036   0.606   1.516
 8510TIP3    H225476   1.080   0.699   1.405
 8511TIP3   OH225477   1.920   5.401   5.549
 8511TIP3    H125478   1.940   5.383   5.458
 8511TIP3    H225479   1.987   5.354   5.599
 8512TIP3   OH225480   3.900   3.702   4.714
 8512TIP3    H125481   3.980   3.699   4.766
 8512TIP3    H225482   3.861   3.786   4.736
 8513TIP3   OH225483   0.585   2.722   4.281
 8513TIP3    H125484   0.503   2.673   4.279
 8513TIP3    H225485   0.564   2.802   4.328
 8514TIP3   OH225486   4.091   3.200   4.328
 8514TIP3    H125487   4.072   3.262   4.399
 8514TIP3    H225488   4.132   3.125   4.372
 8515TIP3   OH225489   3.174   5.160   2.700
 8515TIP3    H125490   3.110   5.207   2.647
 8515TIP3    H225491   3.209   5.093   2.642
 8516TIP3   OH225492   1.941   7.721   5.314
 8516TIP3    H125493   1.923   7.797   5.369
 8516TIP3    H225494   1.863   7.712   5.259
 8517TIP3   OH225495   4.390   2.452   6.113
 8517TIP3    H125496   4.308   2.454   6.163
 8517TIP3    H225497   4.447   2.396   6.165
 8518TIP3   OH225498   4.613   0.186   5.846
 8518TIP3    H125499   4.555   0.193   5.922
 8518TIP3    H225500   4.556   0.160   5.774
 8519TIP3   OH225501   4.737   6.247   6.492
 8519TIP3    H125502   4.795   6.173   6.511
 8519TIP3    H225503   4.649   6.210   6.498
 8520TIP3   OH225504   2.729   0.953   0.809
 8520TIP3    H125505   2.769   1.039   0.795
 8520TIP3    H225506   2.679   0.936   0.729
 8521TIP3   OH225507   1.377   0.095   0.899
 8521TIP3    H125508   1.364   0.000   0.892
 8521TIP3    H225509   1.294   0.133   0.869
 8522TIP3   OH225510   0.459   4.975   0.902
 8522TIP3    H125511   0.528   4.911   0.920
 8522TIP3    H225512   0.467   4.993   0.808
 8523TIP3   OH225513   0.507   7.155   6.658
 8523TIP3    H125514   0.573   7.094   6.691
 8523TIP3    H225515   0.557   7.231   6.630
 8524TIP3   OH225516   6.803   4.319   4.292
 8524TIP3    H125517   6.739   4.363   4.348
 8524TIP3    H225518   6.838   4.249   4.347
 8525TIP3   OH225519   4.461   1.627   2.459
 8525TIP3    H125520   4.391   1.624   2.524
 8525TIP3    H225521   4.476   1.721   2.446
 8526TIP3   OH225522   0.755   2.199   2.221
 8526TIP3    H125523   0.724   2.114   2.189
 8526TIP3    H225524   0.675   2.248   2.239
 8527TIP3   OH225525   6.975   7.459   0.540
 8527TIP3    H125526   7.004   7.469   0.631
 8527TIP3    H225527   6.900   7.519   0.532
 8528TIP3   OH225528   1.041   2.161   3.185
 8528TIP3    H125529   1.121   2.110   3.201
 8528TIP3    H225530   0.970   2.098   3.200
 8529TIP3   OH225531   0.982   7.148   5.413
 8529TIP3    H125532   1.009   7.239   5.422
 8529TIP3    H225533   1.022   7.119   5.332
 8530TIP3   OH225534   7.405   1.116   0.440
 8530TIP3    H125535   7.328   1.170   0.457
 8530TIP3    H225536   7.397   1.090   0.348
 8531TIP3   OH225537   2.909   5.061   0.101
 8531TIP3    H125538   2.895   5.135   0.041
 8531TIP3    H225539   2.970   5.094   0.166
 8532TIP3   OH225540   7.982   3.142   4.817
 8532TIP3    H125541   8.020   3.142   4.905
 8532TIP3    H225542   7.958   3.233   4.801
 8533TIP3   OH225543   5.425   5.232   0.249
 8533TIP3    H125544   5.458   5.142   0.248
 8533TIP3    H225545   5.391   5.246   0.160
 8534TIP3   OH225546   3.022   3.343   3.050
 8534TIP3    H125547   2.954   3.408   3.035
 8534TIP3    H225548   3.051   3.359   3.140
 8535TIP3   OH225549   3.310   1.412   2.704
 8535TIP3    H125550   3.334   1.443   2.791
 8535TIP3    H225551   3.321   1.317   2.709
 8536TIP3   OH225552   0.576   3.044   1.794
 8536TIP3    H125553   0.543   2.988   1.724
 8536TIP3    H225554   0.554   3.133   1.767
 8537TIP3   OH225555   5.714   3.150   5.344
 8537TIP3    H125556   5.701   3.153   5.439
 8537TIP3    H225557   5.735   3.058   5.327
 8538TIP3   OH225558   3.131   1.410   5.815
 8538TIP3    H125559   3.166   1.499   5.810
 8538TIP3    H225560   3.106   1.388   5.725
 8539TIP3   OH225561   3.829   2.185   5.595
 8539TIP3    H125562   3.893   2.155   5.531
 8539TIP3    H225563   3.859   2.148   5.678
 8540TIP3   OH225564   5.481   5.430   3.671
 8540TIP3    H125565   5.568   5.446   3.632
 8540TIP3    H225566   5.469   5.504   3.731
 8541TIP3   OH225567   2.037   2.533   3.599
 8541TIP3    H125568   2.041   2.527   3.504
 8541TIP3    H225569   2.063   2.447   3.630
 8542TIP3   OH225570   4.334   1.943   1.670
 8542TIP3    H125571   4.402   2.000   1.634
 8542TIP3    H225572   4.252   1.987   1.649
 8543TIP3   OH225573   3.910   5.053   5.852
 8543TIP3    H125574   4.003   5.047   5.874
 8543TIP3    H225575   3.896   5.146   5.836
 8544TIP3   OH225576   5.745   1.191   0.494
 8544TIP3    H125577   5.662   1.148   0.478
 8544TIP3    H225578   5.763   1.179   0.587
 8545TIP3   OH225579   7.450   6.696   1.700
 8545TIP3    H125580   7.456   6.787   1.728
 8545TIP3    H225581   7.376   6.694   1.640
 8546TIP3   OH225582   0.464   5.443   2.252
 8546TIP3    H125583   0.556   5.465   2.267
 8546TIP3    H225584   0.415   5.503   2.309
 8547TIP3   OH225585   6.672   4.461   3.309
 8547TIP3    H125586   6.708   4.489   3.393
 8547TIP3    H225587   6.590   4.510   3.300
 8548TIP3   OH225588   5.926   1.828   5.698
 8548TIP3    H125589   5.863   1.863   5.635
 8548TIP3    H225590   5.873   1.796   5.770
 8549TIP3   OH225591   4.822   2.664   3.108
 8549TIP3    H125592   4.805   2.757   3.089
 8549TIP3    H225593   4.895   2.641   3.050
 8550TIP3   OH225594   1.897   4.510   0.920
 8550TIP3    H125595   1.825   4.468   0.967
 8550TIP3    H225596   1.974   4.459   0.944
 8551TIP3   OH225597   4.396   5.304   0.422
 8551TIP3    H125598   4.302   5.298   0.440
 8551TIP3    H225599   4.428   5.372   0.481
 8552TIP3   OH225600   6.216   1.843   3.775
 8552TIP3    H125601   6.310   1.847   3.792
 8552TIP3    H225602   6.175   1.878   3.854
 8553TIP3   OH225603   8.153   6.632   5.955
 8553TIP3    H125604   8.218   6.584   5.904
 8553TIP3    H225605   8.188   6.721   5.962
 8554TIP3   OH225606   4.521   2.132   3.054
 8554TIP3    H125607   4.448   2.177   3.012
 8554TIP3    H225608   4.584   2.118   2.984
 8555TIP3   OH225609   6.490   1.490   1.981
 8555TIP3    H125610   6.562   1.477   1.918
 8555TIP3    H225611   6.474   1.584   1.980
 8556TIP3   OH225612   4.271   2.578   5.023
 8556TIP3    H125613   4.291   2.487   5.041
 8556TIP3    H225614   4.181   2.590   5.051
 8557TIP3   OH225615   2.282   5.116   3.744
 8557TIP3    H125616   2.187   5.129   3.746
 8557TIP3    H225617   2.310   5.158   3.662
 8558TIP3   OH225618   1.878   3.376   5.974
 8558TIP3    H125619   1.804   3.413   6.022
 8558TIP3    H225620   1.899   3.296   6.022
 8559TIP3   OH225621   2.990   1.749   6.398
 8559TIP3    H125622   3.036   1.715   6.475
 8559TIP3    H225623   2.987   1.675   6.337
 8560TIP3   OH225624   1.446   6.092   3.429
 8560TIP3    H125625   1.502   6.015   3.435
 8560TIP3    H225626   1.447   6.115   3.336
 8561TIP3   OH225627   0.481   3.078   5.652
 8561TIP3    H125628   0.388   3.100   5.644
 8561TIP3    H225629   0.526   3.148   5.606
 8562TIP3   OH225630   5.984   2.339   2.505
 8562TIP3    H125631   6.063   2.392   2.506
 8562TIP3    H225632   5.932   2.371   2.579
 8563TIP3   OH225633   7.699   6.140   0.981
 8563TIP3    H125634   7.742   6.223   0.997
 8563TIP3    H225635   7.734   6.109   0.897
 8564TIP3   OH225636   7.080   3.345   2.655
 8564TIP3    H125637   7.040   3.294   2.584
 8564TIP3    H225638   7.022   3.331   2.730
 8565TIP3   OH225639   6.484   7.755   2.267
 8565TIP3    H125640   6.413   7.692   2.252
 8565TIP3    H225641   6.527   7.762   2.182
 8566TIP3   OH225642   2.556   5.108   3.824
 8566TIP3    H125643   2.622   5.050   3.861
 8566TIP3    H225644   2.480   5.099   3.881
 8567TIP3   OH225645   7.023   2.270   4.340
 8567TIP3    H125646   6.957   2.251   4.406
 8567TIP3    H225647   7.036   2.188   4.293
 8568TIP3   OH225648   2.474   4.323   4.265
 8568TIP3    H125649   2.426   4.241   4.259
 8568TIP3    H225650   2.504   4.327   4.356
 8569TIP3   OH225651   1.782   2.786   1.038
 8569TIP3    H125652   1.751   2.708   0.993
 8569TIP3    H225653   1.877   2.780   1.034
 8570TIP3   OH225654   6.270   7.528   1.892
 8570TIP3    H125655   6.208   7.593   1.860
 8570TIP3    H225656   6.288   7.472   1.815
 8571TIP3   OH225657   5.012   7.759   6.438
 8571TIP3    H125658   4.958   7.835   6.458
 8571TIP3    H225659   4.950   7.690   6.415
 8572TIP3   OH225660   2.605   6.882   3.602
 8572TIP3    H125661   2.617   6.970   3.639
 8572TIP3    H225662   2.597   6.896   3.508
 8573TIP3   OH225663   7.287   1.181   1.162
 8573TIP3    H125664   7.300   1.205   1.070
 8573TIP3    H225665   7.251   1.092   1.159
 8574TIP3   OH225666   6.531   2.575   6.245
 8574TIP3    H125667   6.569   2.552   6.160
 8574TIP3    H225668   6.580   2.523   6.308
 8575TIP3   OH225669   6.122   7.743   1.809
 8575TIP3    H125670   6.027   7.744   1.796
 8575TIP3    H225671   6.158   7.765   1.723
 8576TIP3   OH225672   6.605   1.108   2.153
 8576TIP3    H125673   6.637   1.195   2.128
 8576TIP3    H225674   6.665   1.080   2.223
 8577TIP3   OH225675   1.322   4.857   3.313
 8577TIP3    H125676   1.256   4.923   3.292
 8577TIP3    H225677   1.289   4.814   3.392
 8578TIP3   OH225678   7.231   5.175   6.145
 8578TIP3    H125679   7.244   5.268   6.163
 8578TIP3    H225680   7.312   5.133   6.171
 8579TIP3   OH225681   5.907   3.956   1.351
 8579TIP3    H125682   5.843   3.940   1.421
 8579TIP3    H225683   5.854   3.964   1.272
 8580TIP3   OH225684   3.549   0.325   6.066
 8580TIP3    H125685   3.460   0.300   6.041
 8580TIP3    H225686   3.602   0.247   6.050
 8581TIP3   OH225687   5.823   0.251   3.162
 8581TIP3    H125688   5.885   0.288   3.099
 8581TIP3    H225689   5.851   0.160   3.173
 8582TIP3   OH225690   1.359   5.124   0.455
 8582TIP3    H125691   1.314   5.186   0.396
 8582TIP3    H225692   1.410   5.069   0.396
 8583TIP3   OH225693   0.287   4.062   5.942
 8583TIP3    H125694   0.368   4.107   5.965
 8583TIP3    H225695   0.262   4.099   5.857
 8584TIP3   OH225696   8.071   2.346   0.769
 8584TIP3    H125697   8.093   2.272   0.713
 8584TIP3    H225698   8.059   2.309   0.856
 8585TIP3   OH225699   6.159   4.669   4.580
 8585TIP3    H125700   6.088   4.695   4.521
 8585TIP3    H225701   6.179   4.749   4.629
 8586TIP3   OH225702   1.809   3.429   2.428
 8586TIP3    H125703   1.881   3.431   2.365
 8586TIP3    H225704   1.845   3.382   2.504
 8587TIP3   OH225705   2.843   7.432   4.158
 8587TIP3    H125706   2.932   7.411   4.184
 8587TIP3    H225707   2.813   7.356   4.109
 8588TIP3   OH225708   0.313   4.516   4.925
 8588TIP3    H125709   0.274   4.433   4.897
 8588TIP3    H225710   0.320   4.567   4.844
 8589TIP3   OH225711   0.812   4.638   0.368
 8589TIP3    H125712   0.810   4.704   0.299
 8589TIP3    H225713   0.787   4.557   0.325
 8590TIP3   OH225714   1.987   5.774   0.379
 8590TIP3    H125715   2.001   5.742   0.290
 8590TIP3    H225716   1.997   5.697   0.434
 8591TIP3   OH225717   0.736   4.349   3.521
 8591TIP3    H125718   0.803   4.351   3.590
 8591TIP3    H225719   0.654   4.337   3.568
 8592TIP3   OH225720   0.950   2.745   2.184
 8592TIP3    H125721   0.933   2.654   2.160
 8592TIP3    H225722   0.890   2.763   2.256
 8593TIP3   OH225723   3.560   4.230   3.487
 8593TIP3    H125724   3.520   4.315   3.497
 8593TIP3    H225725   3.526   4.178   3.559
 8594TIP3   OH225726   7.144   6.748   1.833
 8594TIP3    H125727   7.093   6.721   1.756
 8594TIP3    H225728   7.173   6.837   1.812
 8595TIP3   OH225729   4.125   2.760   3.748
 8595TIP3    H125730   4.063   2.827   3.719
 8595TIP3    H225731   4.191   2.757   3.680
 8596TIP3   OH225732   8.297   7.073   0.183
 8596TIP3    H125733   8.240   7.144   0.151
 8596TIP3    H225734   8.255   6.993   0.151
 8597TIP3   OH225735   2.610   0.521   0.347
 8597TIP3    H125736   2.664   0.573   0.406
 8597TIP3    H225737   2.528   0.506   0.395
 8598TIP3   OH225738   1.974   3.166   2.952
 8598TIP3    H125739   2.015   3.210   2.878
 8598TIP3    H225740   1.921   3.096   2.912
 8599TIP3   OH225741   7.110   0.076   2.635
 8599TIP3    H125742   7.072  -0.011   2.622
 8599TIP3    H225743   7.131   0.079   2.728
 8600TIP3   OH225744   2.306   7.288   0.395
 8600TIP3    H125745   2.234   7.310   0.336
 8600TIP3    H225746   2.359   7.367   0.400
 8601TIP3   OH225747   1.939   4.163   0.756
 8601TIP3    H125748   2.001   4.236   0.764
 8601TIP3    H225749   1.969   4.116   0.678
 8602TIP3   OH225750   5.044   0.561   0.783
 8602TIP3    H125751   4.962   0.519   0.754
 8602TIP3    H225752   5.108   0.534   0.717
 8603TIP3   OH225753   6.945   1.612   5.639
 8603TIP3    H125754   6.920   1.666   5.714
 8603TIP3    H225755   7.038   1.594   5.653
 8604TIP3   OH225756   3.135   3.025   3.846
 8604TIP3    H125757   3.114   2.941   3.886
 8604TIP3    H225758   3.121   3.011   3.752
 8605TIP3   OH225759   3.186   1.197   5.238
 8605TIP3    H125760   3.211   1.164   5.324
 8605TIP3    H225761   3.155   1.120   5.191
 8606TIP3   OH225762   3.025   1.568   3.422
 8606TIP3    H125763   3.087   1.594   3.490
 8606TIP3    H225764   3.059   1.607   3.341
 8607TIP3   OH225765   1.853   0.399   5.333
 8607TIP3    H125766   1.829   0.385   5.241
 8607TIP3    H225767   1.773   0.428   5.375
 8608TIP3   OH225768   3.257   3.118   6.553
 8608TIP3    H125769   3.337   3.087   6.511
 8608TIP3    H225770   3.213   3.170   6.485
 8609TIP3   OH225771   3.758   0.621   0.144
 8609TIP3    H125772   3.817   0.586   0.078
 8609TIP3    H225773   3.814   0.642   0.219
 8610TIP3   OH225774   2.103   2.763   1.177
 8610TIP3    H125775   2.089   2.694   1.243
 8610TIP3    H225776   2.078   2.844   1.222
 8611TIP3   OH225777   5.563   0.165   1.752
 8611TIP3    H125778   5.487   0.119   1.717
 8611TIP3    H225779   5.549   0.166   1.846
 8612TIP3   OH225780   0.174   3.939   4.650
 8612TIP3    H125781   0.111   3.994   4.697
 8612TIP3    H225782   0.186   3.982   4.566
 8613TIP3   OH225783   3.883   6.916   1.297
 8613TIP3    H125784   3.885   6.823   1.273
 8613TIP3    H225785   3.961   6.929   1.352
 8614TIP3   OH225786   7.057   1.058   3.121
 8614TIP3    H125787   7.094   1.146   3.115
 8614TIP3    H225788   7.073   1.018   3.036
 8615TIP3   OH225789   1.177   1.610   4.854
 8615TIP3    H125790   1.210   1.645   4.771
 8615TIP3    H225791   1.221   1.526   4.864
 8616TIP3   OH225792   3.492   2.711   2.103
 8616TIP3    H125793   3.483   2.787   2.045
 8616TIP3    H225794   3.403   2.681   2.119
 8617TIP3   OH225795   2.312   1.503   5.714
 8617TIP3    H125796   2.341   1.449   5.640
 8617TIP3    H225797   2.293   1.440   5.783
 8618TIP3   OH225798   1.264   6.924   1.451
 8618TIP3    H125799   1.204   6.851   1.461
 8618TIP3    H225800   1.272   6.962   1.539
 8619TIP3   OH225801   8.268   0.804   3.002
 8619TIP3    H125802   8.210   0.745   2.954
 8619TIP3    H225803   8.214   0.841   3.071
 8620TIP3   OH225804   1.546   7.204   0.803
 8620TIP3    H125805   1.467   7.246   0.769
 8620TIP3    H225806   1.573   7.145   0.733
 8621TIP3   OH225807   1.396   2.824   4.917
 8621TIP3    H125808   1.355   2.849   5.000
 8621TIP3    H225809   1.330   2.843   4.850
 8622TIP3   OH225810   4.335   0.663   4.676
 8622TIP3    H125811   4.379   0.656   4.761
 8622TIP3    H225812   4.405   0.677   4.613
 8623TIP3   OH225813   2.194   6.464   6.403
 8623TIP3    H125814   2.266   6.505   6.355
 8623TIP3    H225815   2.205   6.370   6.387
 8624TIP3   OH225816   6.075   4.234   1.588
 8624TIP3    H125817   6.065   4.322   1.552
 8624TIP3    H225818   6.107   4.248   1.677
 8625TIP3   OH225819   2.282   1.958   4.743
 8625TIP3    H125820   2.315   1.869   4.752
 8625TIP3    H225821   2.211   1.964   4.806
 8626TIP3   OH225822   4.531   2.359   3.928
 8626TIP3    H125823   4.569   2.404   4.003
 8626TIP3    H225824   4.444   2.333   3.957
 8627TIP3   OH225825   5.097   2.491   4.164
 8627TIP3    H125826   5.180   2.448   4.142
 8627TIP3    H225827   5.122   2.581   4.184
 8628TIP3   OH225828   1.499   2.751   3.954
 8628TIP3    H125829   1.561   2.682   3.980
 8628TIP3    H225830   1.510   2.819   4.020
 8629TIP3   OH225831   2.508   2.844   4.891
 8629TIP3    H125832   2.509   2.804   4.805
 8629TIP3    H225833   2.556   2.926   4.881
 8630TIP3   OH225834   7.278   6.728   4.919
 8630TIP3    H125835   7.322   6.710   4.835
 8630TIP3    H225836   7.292   6.649   4.970
 8631TIP3   OH225837   7.685   2.455   6.573
 8631TIP3    H125838   7.735   2.514   6.516
 8631TIP3    H225839   7.606   2.434   6.523
 8632TIP3   OH225840   2.019   0.028   2.811
 8632TIP3    H125841   2.070  -0.020   2.746
 8632TIP3    H225842   2.048   0.119   2.802
 8633TIP3   OH225843   2.883   6.034   3.694
 8633TIP3    H125844   2.790   6.017   3.704
 8633TIP3    H225845   2.914   5.967   3.633
 8634TIP3   OH225846   7.393   0.354   0.358
 8634TIP3    H125847   7.331   0.413   0.402
 8634TIP3    H225848   7.417   0.290   0.425
 8635TIP3   OH225849   5.907   6.264   3.616
 8635TIP3    H125850   5.862   6.331   3.564
 8635TIP3    H225851   5.853   6.186   3.607
 8636TIP3   OH225852   6.664   4.119   2.101
 8636TIP3    H125853   6.724   4.168   2.156
 8636TIP3    H225854   6.717   4.086   2.029
 8637TIP3   OH225855   4.445   1.313   6.541
 8637TIP3    H125856   4.367   1.293   6.593
 8637TIP3    H225857   4.480   1.393   6.581
 8638TIP3   OH225858   3.978   3.998   1.991
 8638TIP3    H125859   4.068   3.969   1.978
 8638TIP3    H225860   3.971   4.013   2.085
 8639TIP3   OH225861   3.205   2.656   3.068
 8639TIP3    H125862   3.236   2.616   2.987
 8639TIP3    H225863   3.222   2.591   3.135
 8640TIP3   OH225864   2.671   5.468   6.769
 8640TIP3    H125865   2.765   5.454   6.776
 8640TIP3    H225866   2.655   5.478   6.675
 8641TIP3   OH225867   1.990   5.199   1.673
 8641TIP3    H125868   1.988   5.293   1.694
 8641TIP3    H225869   1.905   5.167   1.702
 8642TIP3   OH225870   0.551   2.946   4.453
 8642TIP3    H125871   0.612   3.014   4.482
 8642TIP3    H225872   0.466   2.991   4.446
 8643TIP3   OH225873   6.068   6.565   2.575
 8643TIP3    H125874   6.135   6.521   2.523
 8643TIP3    H225875   6.007   6.495   2.600
 8644TIP3   OH225876   3.747   6.450   4.259
 8644TIP3    H125877   3.656   6.475   4.244
 8644TIP3    H225878   3.747   6.355   4.248
 8645TIP3   OH225879   3.076   3.322   1.995
 8645TIP3    H125880   3.150   3.346   1.938
 8645TIP3    H225881   3.098   3.234   2.025
 8646TIP3   OH225882   0.619   0.365   0.639
 8646TIP3    H125883   0.713   0.352   0.628
 8646TIP3    H225884   0.598   0.324   0.722
 8647TIP3   OH225885   7.105   1.328   3.142
 8647TIP3    H125886   7.168   1.395   3.168
 8647TIP3    H225887   7.024   1.377   3.124
 8648TIP3   OH225888   4.888   6.813   6.120
 8648TIP3    H125889   4.806   6.785   6.161
 8648TIP3    H225890   4.956   6.763   6.165
 8649TIP3   OH225891   8.017   2.514   5.710
 8649TIP3    H125892   8.005   2.586   5.648
 8649TIP3    H225893   8.073   2.551   5.779
 8650TIP3   OH225894   1.347   1.534   3.418
 8650TIP3    H125895   1.334   1.466   3.351
 8650TIP3    H225896   1.438   1.523   3.446
 8651TIP3   OH225897   7.485   3.069   0.205
 8651TIP3    H125898   7.398   3.063   0.244
 8651TIP3    H225899   7.497   3.162   0.188
 8652TIP3   OH225900   2.012   6.542   4.513
 8652TIP3    H125901   2.026   6.530   4.419
 8652TIP3    H225902   2.012   6.637   4.526
 8653TIP3   OH225903   0.279   4.454   4.570
 8653TIP3    H125904   0.349   4.507   4.609
 8653TIP3    H225905   0.214   4.446   4.639
 8654TIP3   OH225906   5.202   4.092   6.146
 8654TIP3    H125907   5.168   4.014   6.191
 8654TIP3    H225908   5.234   4.148   6.217
 8655TIP3   OH225909   7.340   5.296   3.787
 8655TIP3    H125910   7.423   5.281   3.831
 8655TIP3    H225911   7.278   5.314   3.858
 8656TIP3   OH225912   6.914   3.556   4.340
 8656TIP3    H125913   6.999   3.567   4.296
 8656TIP3    H225914   6.895   3.463   4.330
 8657TIP3   OH225915   7.648   2.460   5.877
 8657TIP3    H125916   7.701   2.529   5.918
 8657TIP3    H225917   7.577   2.445   5.939
 8658TIP3   OH225918   0.142   4.562   1.630
 8658TIP3    H125919   0.064   4.614   1.653
 8658TIP3    H225920   0.204   4.627   1.597
 8659TIP3   OH225921   6.914   7.674   3.770
 8659TIP3    H125922   6.921   7.756   3.819
 8659TIP3    H225923   6.960   7.610   3.824
 8660TIP3   OH225924   4.913   3.868   2.356
 8660TIP3    H125925   4.836   3.922   2.375
 8660TIP3    H225926   4.984   3.931   2.344
 8661TIP3   OH225927   0.246   4.525   3.535
 8661TIP3    H125928   0.202   4.610   3.535
 8661TIP3    H225929   0.296   4.524   3.454
 8662TIP3   OH225930   2.769   4.175   2.240
 8662TIP3    H125931   2.703   4.243   2.250
 8662TIP3    H225932   2.721   4.093   2.248
 8663TIP3   OH225933   3.431   7.162   5.014
 8663TIP3    H125934   3.454   7.248   4.979
 8663TIP3    H225935   3.363   7.129   4.955
 8664TIP3   OH225936   5.613   4.989   5.848
 8664TIP3    H125937   5.615   4.994   5.943
 8664TIP3    H225938   5.547   5.054   5.822
 8665TIP3   OH225939   6.817   6.107   3.192
 8665TIP3    H125940   6.848   6.094   3.282
 8665TIP3    H225941   6.723   6.123   3.201
 8666TIP3   OH225942   4.366   7.052   0.984
 8666TIP3    H125943   4.343   7.000   0.906
 8666TIP3    H225944   4.282   7.074   1.024
 8667TIP3   OH225945   0.667   6.396   4.361
 8667TIP3    H125946   0.648   6.426   4.272
 8667TIP3    H225947   0.727   6.462   4.396
 8668TIP3   OH225948   5.643   4.736   4.639
 8668TIP3    H125949   5.576   4.712   4.575
 8668TIP3    H225950   5.594   4.748   4.721
 8669TIP3   OH225951   6.612   2.223   5.830
 8669TIP3    H125952   6.699   2.239   5.867
 8669TIP3    H225953   6.602   2.128   5.833
 8670TIP3   OH225954   2.920   2.654   2.880
 8670TIP3    H125955   2.849   2.590   2.885
 8670TIP3    H225956   2.957   2.642   2.792
 8671TIP3   OH225957   2.687   4.184   2.542
 8671TIP3    H125958   2.781   4.171   2.554
 8671TIP3    H225959   2.680   4.259   2.483
 8672TIP3   OH225960   0.629   1.492   4.188
 8672TIP3    H125961   0.615   1.567   4.132
 8672TIP3    H225962   0.657   1.529   4.272
 8673TIP3   OH225963   4.304   3.903   5.335
 8673TIP3    H125964   4.272   3.982   5.378
 8673TIP3    H225965   4.389   3.928   5.299
 8674TIP3   OH225966   2.134   6.183   4.910
 8674TIP3    H125967   2.156   6.189   5.003
 8674TIP3    H225968   2.088   6.265   4.892
 8675TIP3   OH225969   6.756   0.408   6.163
 8675TIP3    H125970   6.734   0.500   6.143
 8675TIP3    H225971   6.744   0.363   6.079
 8676TIP3   OH225972   7.462   0.312   5.681
 8676TIP3    H125973   7.507   0.228   5.677
 8676TIP3    H225974   7.512   0.363   5.745
 8677TIP3   OH225975   1.467   6.448   5.018
 8677TIP3    H125976   1.529   6.439   4.946
 8677TIP3    H225977   1.509   6.405   5.092
 8678TIP3   OH225978   0.154   6.294   0.895
 8678TIP3    H125979   0.189   6.264   0.811
 8678TIP3    H225980   0.220   6.271   0.959
 8679TIP3   OH225981   3.448   2.208   3.191
 8679TIP3    H125982   3.371   2.157   3.217
 8679TIP3    H225983   3.497   2.220   3.273
 8680TIP3   OH225984   7.051   2.593   4.007
 8680TIP3    H125985   7.051   2.498   4.022
 8680TIP3    H225986   7.144   2.618   4.014
 8681TIP3   OH225987   7.626   6.676   3.155
 8681TIP3    H125988   7.711   6.712   3.130
 8681TIP3    H225989   7.613   6.601   3.097
 8682TIP3   OH225990   0.460   3.476   5.371
 8682TIP3    H125991   0.447   3.563   5.407
 8682TIP3    H225992   0.393   3.468   5.303
 8683TIP3   OH225993   3.306   2.515   1.220
 8683TIP3    H125994   3.245   2.523   1.294
 8683TIP3    H225995   3.381   2.569   1.245
 8684TIP3   OH225996   4.824   3.060   6.320
 8684TIP3    H125997   4.767   2.991   6.287
 8684TIP3    H225998   4.909   3.042   6.280
 8685TIP3   OH225999   7.747   5.120   5.767
 8685TIP3    H126000   7.788   5.112   5.853
 8685TIP3    H226001   7.820   5.125   5.706
 8686TIP3   OH226002   2.553   7.199   0.564
 8686TIP3    H126003   2.618   7.269   0.570
 8686TIP3    H226004   2.469   7.243   0.577
 8687TIP3   OH226005   5.214   6.635   1.228
 8687TIP3    H126006   5.147   6.704   1.228
 8687TIP3    H226007   5.169   6.557   1.258
 8688TIP3   OH226008   2.847   4.001   1.088
 8688TIP3    H126009   2.892   4.000   1.003
 8688TIP3    H226010   2.785   3.929   1.083
 8689TIP3   OH226011   4.874   2.269   0.024
 8689TIP3    H126012   4.808   2.206   0.054
 8689TIP3    H226013   4.910   2.306   0.104
 8690TIP3   OH226014   6.653   7.765   2.053
 8690TIP3    H126015   6.618   7.843   2.010
 8690TIP3    H226016   6.672   7.705   1.982
 8691TIP3   OH226017   5.771   7.451   5.103
 8691TIP3    H126018   5.698   7.497   5.061
 8691TIP3    H226019   5.730   7.398   5.171
 8692TIP3   OH226020   5.249   4.188   1.618
 8692TIP3    H126021   5.254   4.202   1.523
 8692TIP3    H226022   5.235   4.276   1.654
 8693TIP3   OH226023   7.321   6.764   6.439
 8693TIP3    H126024   7.353   6.674   6.431
 8693TIP3    H226025   7.390   6.810   6.486
 8694TIP3   OH226026   5.472   7.437   4.066
 8694TIP3    H126027   5.508   7.413   4.151
 8694TIP3    H226028   5.424   7.519   4.082
 8695TIP3   OH226029   2.605   3.800   0.565
 8695TIP3    H126030   2.580   3.713   0.534
 8695TIP3    H226031   2.623   3.788   0.658
 8696TIP3   OH226032   5.299   5.264   6.394
 8696TIP3    H126033   5.318   5.173   6.417
 8696TIP3    H226034   5.295   5.310   6.477
 8697TIP3   OH226035   5.061   1.990   0.218
 8697TIP3    H126036   5.045   1.928   0.290
 8697TIP3    H226037   5.052   2.076   0.258
 8698TIP3   OH226038   6.983   6.905   5.563
 8698TIP3    H126039   6.998   6.886   5.470
 8698TIP3    H226040   6.928   6.833   5.593
 8699TIP3   OH226041   3.568   1.883   1.644
 8699TIP3    H126042   3.626   1.809   1.659
 8699TIP3    H226043   3.548   1.916   1.732
 8700TIP3   OH226044   7.862   4.841   5.806
 8700TIP3    H126045   7.942   4.792   5.825
 8700TIP3    H226046   7.813   4.841   5.889
 8701TIP3   OH226047   1.327   3.701   6.622
 8701TIP3    H126048   1.357   3.637   6.558
 8701TIP3    H226049   1.289   3.649   6.693
 8702TIP3   OH226050   1.685   6.252   2.032
 8702TIP3    H126051   1.661   6.159   2.036
 8702TIP3    H226052   1.602   6.298   2.039
 8703TIP3   OH226053   6.848   4.053   4.972
 8703TIP3    H126054   6.852   4.049   4.877
 8703TIP3    H226055   6.828   4.144   4.992
 8704TIP3   OH226056   2.462   5.809   6.473
 8704TIP3    H126057   2.549   5.784   6.444
 8704TIP3    H226058   2.411   5.816   6.391
 8705TIP3   OH226059   6.541   1.637   0.960
 8705TIP3    H126060   6.453   1.669   0.977
 8705TIP3    H226061   6.572   1.688   0.885
 8706TIP3   OH226062   5.518   7.059   0.433
 8706TIP3    H126063   5.554   6.998   0.369
 8706TIP3    H226064   5.484   7.131   0.381
 8707TIP3   OH226065   2.345   3.356   2.635
 8707TIP3    H126066   2.332   3.358   2.730
 8707TIP3    H226067   2.431   3.317   2.623
 8708TIP3   OH226068   5.186   5.519   1.037
 8708TIP3    H126069   5.158   5.545   0.949
 8708TIP3    H226070   5.204   5.602   1.081
 8709TIP3   OH226071   1.331   0.074   3.286
 8709TIP3    H126072   1.239   0.052   3.298
 8709TIP3    H226073   1.377   0.024   3.354
 8710TIP3   OH226074   4.637   2.378   0.222
 8710TIP3    H126075   4.656   2.470   0.239
 8710TIP3    H226076   4.595   2.377   0.136
 8711TIP3   OH226077   7.686   4.558   4.257
 8711TIP3    H126078   7.597   4.582   4.283
 8711TIP3    H226079   7.729   4.642   4.241
 8712TIP3   OH226080   6.039   2.499   3.906
 8712TIP3    H126081   6.056   2.405   3.908
 8712TIP3    H226082   6.044   2.526   3.998
 8713TIP3   OH226083   3.744   6.693   3.887
 8713TIP3    H126084   3.742   6.598   3.882
 8713TIP3    H226085   3.683   6.722   3.819
 8714TIP3   OH226086   7.652   1.364   3.343
 8714TIP3    H126087   7.659   1.445   3.394
 8714TIP3    H226088   7.732   1.316   3.364
 8715TIP3   OH226089   2.664   4.858   3.787
 8715TIP3    H126090   2.709   4.775   3.802
 8715TIP3    H226091   2.714   4.901   3.718
 8716TIP3   OH226092   3.235   3.614   4.330
 8716TIP3    H126093   3.155   3.588   4.377
 8716TIP3    H226094   3.281   3.531   4.314
 8717TIP3   OH226095   5.124   4.651   0.738
 8717TIP3    H126096   5.074   4.722   0.698
 8717TIP3    H226097   5.199   4.694   0.778
 8718TIP3   OH226098   2.002   0.853   1.146
 8718TIP3    H126099   1.990   0.784   1.080
 8718TIP3    H226100   2.089   0.889   1.127
 8719TIP3   OH226101   4.971   6.555   1.762
 8719TIP3    H126102   5.036   6.612   1.721
 8719TIP3    H226103   5.007   6.467   1.751
 8720TIP3   OH226104   2.676   2.026   5.622
 8720TIP3    H126105   2.744   2.044   5.558
 8720TIP3    H226106   2.715   1.961   5.681
 8721TIP3   OH226107   1.675   0.414   3.806
 8721TIP3    H126108   1.763   0.391   3.778
 8721TIP3    H226109   1.664   0.505   3.778
 8722TIP3   OH226110   3.133   5.542   1.483
 8722TIP3    H126111   3.095   5.514   1.400
 8722TIP3    H226112   3.183   5.466   1.513
 8723TIP3   OH226113   0.183   2.436   6.133
 8723TIP3    H126114   0.101   2.468   6.170
 8723TIP3    H226115   0.191   2.346   6.164
 8724TIP3   OH226116   3.647   7.073   4.594
 8724TIP3    H126117   3.663   6.986   4.558
 8724TIP3    H226118   3.716   7.084   4.660
 8725TIP3   OH226119   1.298   2.356   4.823
 8725TIP3    H126120   1.364   2.355   4.892
 8725TIP3    H226121   1.240   2.282   4.844
 8726TIP3   OH226122   3.068   6.663   6.446
 8726TIP3    H126123   3.157   6.691   6.465
 8726TIP3    H226124   3.059   6.673   6.351
 8727TIP3   OH226125   6.605   3.696   0.743
 8727TIP3    H126126   6.543   3.698   0.670
 8727TIP3    H226127   6.571   3.629   0.802
 8728TIP3   OH226128   7.166   4.890   5.399
 8728TIP3    H126129   7.241   4.932   5.442
 8728TIP3    H226130   7.089   4.935   5.435
 8729TIP3   OH226131   2.845   1.328   1.974
 8729TIP3    H126132   2.865   1.282   1.893
 8729TIP3    H226133   2.907   1.402   1.976
 8730TIP3   OH226134   2.537   7.353   6.213
 8730TIP3    H126135   2.485   7.432   6.204
 8730TIP3    H226136   2.580   7.342   6.128
 8731TIP3   OH226137   3.280   7.078   6.719
 8731TIP3    H126138   3.193   7.093   6.680
 8731TIP3    H226139   3.337   7.139   6.672
 8732TIP3   OH226140   7.233   5.405   4.003
 8732TIP3    H126141   7.232   5.489   4.049
 8732TIP3    H226142   7.172   5.350   4.052
 8733TIP3   OH226143   0.260   3.923   6.721
 8733TIP3    H126144   0.301   3.846   6.760
 8733TIP3    H226145   0.333   3.983   6.706
 8734TIP3   OH226146   5.358   7.684   6.361
 8734TIP3    H126147   5.339   7.622   6.432
 8734TIP3    H226148   5.307   7.652   6.287
 8735TIP3   OH226149   6.132   5.194   0.634
 8735TIP3    H126150   6.187   5.121   0.606
 8735TIP3    H226151   6.094   5.164   0.717
 8736TIP3   OH226152   0.784   3.852   2.513
 8736TIP3    H126153   0.703   3.822   2.471
 8736TIP3    H226154   0.797   3.790   2.585
 8737TIP3   OH226155   0.841   0.017   6.558
 8737TIP3    H126156   0.848   0.064   6.475
 8737TIP3    H226157   0.767  -0.042   6.546
 8738TIP3   OH226158   2.129   0.981   6.701
 8738TIP3    H126159   2.049   0.972   6.650
 8738TIP3    H226160   2.114   1.057   6.757
 8739TIP3   OH226161   6.093   0.647   0.900
 8739TIP3    H126162   6.082   0.733   0.860
 8739TIP3    H226163   6.079   0.662   0.993
 8740TIP3   OH226164   8.196   0.341   1.161
 8740TIP3    H126165   8.181   0.425   1.204
 8740TIP3    H226166   8.196   0.362   1.067
 8741TIP3   OH226167   6.313   5.357   0.987
 8741TIP3    H126168   6.335   5.437   1.034
 8741TIP3    H226169   6.280   5.297   1.054
 8742TIP3   OH226170   4.613   2.298   4.741
 8742TIP3    H126171   4.571   2.325   4.660
 8742TIP3    H226172   4.685   2.241   4.713
 8743TIP3   OH226173   7.494   0.681   4.169
 8743TIP3    H126174   7.418   0.642   4.212
 8743TIP3    H226175   7.505   0.629   4.089
 8744TIP3   OH226176   4.851   7.623   4.321
 8744TIP3    H126177   4.817   7.706   4.354
 8744TIP3    H226178   4.946   7.637   4.314
 8745TIP3   OH226179   2.988   2.125   4.622
 8745TIP3    H126180   2.916   2.093   4.569
 8745TIP3    H226181   3.064   2.124   4.563
 8746TIP3   OH226182   1.564   6.806   4.662
 8746TIP3    H126183   1.487   6.773   4.708
 8746TIP3    H226184   1.588   6.735   4.602
 8747TIP3   OH226185   7.746   5.050   1.210
 8747TIP3    H126186   7.805   4.998   1.155
 8747TIP3    H226187   7.765   5.020   1.299
 8748TIP3   OH226188   4.217   5.547   6.096
 8748TIP3    H126189   4.165   5.522   6.019
 8748TIP3    H226190   4.287   5.602   6.061
 8749TIP3   OH226191   7.018   2.074   3.739
 8749TIP3    H126192   7.038   2.037   3.825
 8749TIP3    H226193   6.923   2.068   3.732
 8750TIP3   OH226194   3.209   3.393   4.981
 8750TIP3    H126195   3.286   3.404   4.926
 8750TIP3    H226196   3.136   3.384   4.919
 8751TIP3   OH226197   5.675   7.229   0.713
 8751TIP3    H126198   5.632   7.146   0.733
 8751TIP3    H226199   5.603   7.291   0.699
 8752TIP3   OH226200   0.144   2.372   1.293
 8752TIP3    H126201   0.187   2.454   1.266
 8752TIP3    H226202   0.196   2.340   1.366
 8753TIP3   OH226203   3.739   0.703   2.153
 8753TIP3    H126204   3.775   0.787   2.182
 8753TIP3    H226205   3.743   0.647   2.230
 8754TIP3   OH226206   5.036   5.995   5.728
 8754TIP3    H126207   4.968   5.965   5.668
 8754TIP3    H226208   5.044   6.089   5.712
 8755TIP3   OH226209   1.323   2.492   3.787
 8755TIP3    H126210   1.310   2.425   3.720
 8755TIP3    H226211   1.385   2.553   3.747
 8756TIP3   OH226212   0.791   3.965   6.785
 8756TIP3    H126213   0.821   3.875   6.781
 8756TIP3    H226214   0.854   4.014   6.732
 8757TIP3   OH226215   3.083   2.614   2.645
 8757TIP3    H126216   3.068   2.579   2.557
 8757TIP3    H226217   3.174   2.644   2.643
 8758TIP3   OH226218   6.083   1.485   3.845
 8758TIP3    H126219   6.123   1.514   3.926
 8758TIP3    H226220   6.054   1.395   3.863
 8759TIP3   OH226221   2.835   4.921   5.280
 8759TIP3    H126222   2.835   4.936   5.186
 8759TIP3    H226223   2.920   4.880   5.298
 8760TIP3   OH226224   7.915   2.237   4.408
 8760TIP3    H126225   7.884   2.284   4.485
 8760TIP3    H226226   7.909   2.145   4.432
 8761TIP3   OH226227   4.767   2.125   4.612
 8761TIP3    H126228   4.726   2.088   4.534
 8761TIP3    H226229   4.775   2.051   4.673
 8762TIP3   OH226230   3.775   2.605   5.982
 8762TIP3    H126231   3.794   2.565   5.898
 8762TIP3    H226232   3.706   2.551   6.020
 8763TIP3   OH226233   4.253   3.425   5.160
 8763TIP3    H126234   4.239   3.370   5.083
 8763TIP3    H226235   4.269   3.362   5.231
 8764TIP3   OH226236   3.556   7.623   0.416
 8764TIP3    H126237   3.592   7.706   0.383
 8764TIP3    H226238   3.627   7.585   0.466
 8765TIP3   OH226239   5.924   1.094   5.795
 8765TIP3    H126240   6.012   1.094   5.759
 8765TIP3    H226241   5.867   1.110   5.719
 8766TIP3   OH226242   7.412   6.776   2.942
 8766TIP3    H126243   7.380   6.861   2.910
 8766TIP3    H226244   7.468   6.799   3.016
 8767TIP3   OH226245   5.736   0.076   3.488
 8767TIP3    H126246   5.681   0.154   3.484
 8767TIP3    H226247   5.825   0.110   3.485
 8768TIP3   OH226248   1.865   7.036   3.651
 8768TIP3    H126249   1.827   7.098   3.589
 8768TIP3    H226250   1.960   7.047   3.641
 8769TIP3   OH226251   5.344   4.585   2.908
 8769TIP3    H126252   5.360   4.600   2.815
 8769TIP3    H226253   5.372   4.666   2.950
 8770TIP3   OH226254   4.837   3.052   3.454
 8770TIP3    H126255   4.835   2.963   3.490
 8770TIP3    H226256   4.870   3.106   3.525
 8771TIP3   OH226257   8.101   7.580   3.873
 8771TIP3    H126258   8.140   7.644   3.932
 8771TIP3    H226259   8.172   7.555   3.814
 8772TIP3   OH226260   5.923   7.030   1.286
 8772TIP3    H126261   5.912   6.936   1.301
 8772TIP3    H226262   6.017   7.042   1.276
 8773TIP3   OH226263   2.821   0.075   1.791
 8773TIP3    H126264   2.844   0.006   1.728
 8773TIP3    H226265   2.881   0.147   1.771
 8774TIP3   OH226266   3.143   7.221   5.736
 8774TIP3    H126267   3.220   7.201   5.682
 8774TIP3    H226268   3.157   7.171   5.816
 8775TIP3   OH226269   0.721   4.281   5.419
 8775TIP3    H126270   0.668   4.276   5.339
 8775TIP3    H226271   0.767   4.365   5.412
 8776TIP3   OH226272   5.345   3.091   4.802
 8776TIP3    H126273   5.278   3.063   4.864
 8776TIP3    H226274   5.379   3.173   4.838
 8777TIP3   OH226275   6.160   1.557   5.391
 8777TIP3    H126276   6.160   1.623   5.322
 8777TIP3    H226277   6.174   1.474   5.345
 8778TIP3   OH226278   0.101   3.000   2.540
 8778TIP3    H126279   0.018   2.960   2.516
 8778TIP3    H226280   0.103   2.997   2.635
 8779TIP3   OH226281   6.997   1.113   1.353
 8779TIP3    H126282   7.011   1.173   1.280
 8779TIP3    H226283   6.911   1.136   1.388
 8780TIP3   OH226284   5.780   1.774   4.046
 8780TIP3    H126285   5.846   1.839   4.073
 8780TIP3    H226286   5.826   1.690   4.051
 8781TIP3   OH226287   6.022   2.602   4.646
 8781TIP3    H126288   5.971   2.681   4.626
 8781TIP3    H226289   6.113   2.632   4.644
 8782TIP3   OH226290   5.640   7.634   0.123
 8782TIP3    H126291   5.732   7.609   0.118
 8782TIP3    H226292   5.640   7.716   0.172
 8783TIP3   OH226293   3.524   2.135   5.547
 8783TIP3    H126294   3.599   2.183   5.513
 8783TIP3    H226295   3.551   2.044   5.546
 8784TIP3   OH226296   5.180   7.529   6.197
 8784TIP3    H126297   5.119   7.480   6.141
 8784TIP3    H226298   5.155   7.503   6.286
 8785TIP3   OH226299   2.055   7.756   4.779
 8785TIP3    H126300   2.035   7.673   4.735
 8785TIP3    H226301   1.971   7.787   4.812
 8786TIP3   OH226302   7.461   0.568   3.938
 8786TIP3    H126303   7.377   0.601   3.906
 8786TIP3    H226304   7.510   0.546   3.858
 8787TIP3   OH226305   0.481   7.639   0.665
 8787TIP3    H126306   0.516   7.553   0.688
 8787TIP3    H226307   0.559   7.693   0.651
 8788TIP3   OH226308   0.827   2.098   6.241
 8788TIP3    H126309   0.817   2.151   6.320
 8788TIP3    H226310   0.739   2.066   6.222
 8789TIP3   OH226311   6.632   2.794   0.474
 8789TIP3    H126312   6.552   2.826   0.515
 8789TIP3    H226313   6.646   2.853   0.400
 8790TIP3   OH226314   8.244   2.246   3.463
 8790TIP3    H126315   8.317   2.307   3.450
 8790TIP3    H226316   8.196   2.283   3.537
 8791TIP3   OH226317   6.061   1.955   0.478
 8791TIP3    H126318   6.002   1.982   0.408
 8791TIP3    H226319   6.003   1.935   0.551
 8792TIP3   OH226320   3.055   2.623   1.355
 8792TIP3    H126321   3.025   2.539   1.389
 8792TIP3    H226322   3.017   2.688   1.413
 8793TIP3   OH226323   4.202   7.537   4.239
 8793TIP3    H126324   4.161   7.546   4.153
 8793TIP3    H226325   4.276   7.597   4.237
 8794TIP3   OH226326   1.946   3.092   1.279
 8794TIP3    H126327   2.041   3.081   1.289
 8794TIP3    H226328   1.929   3.180   1.313
 8795TIP3   OH226329   3.953   4.281   5.613
 8795TIP3    H126330   3.998   4.261   5.532
 8795TIP3    H226331   4.016   4.332   5.664
 8796TIP3   OH226332   6.983   1.450   2.814
 8796TIP3    H126333   7.052   1.385   2.816
 8796TIP3    H226334   6.908   1.404   2.776
 8797TIP3   OH226335   5.228   1.598   3.949
 8797TIP3    H126336   5.220   1.508   3.982
 8797TIP3    H226337   5.179   1.651   4.012
 8798TIP3   OH226338   6.935   3.279   3.968
 8798TIP3    H126339   6.982   3.293   3.886
 8798TIP3    H226340   6.879   3.356   3.976
 8799TIP3   OH226341   4.907   0.365   4.648
 8799TIP3    H126342   4.864   0.372   4.733
 8799TIP3    H226343   5.000   0.362   4.668
 8800TIP3   OH226344   6.464   2.456   3.938
 8800TIP3    H126345   6.446   2.548   3.919
 8800TIP3    H226346   6.468   2.452   4.034
 8801TIP3   OH226347   6.221   6.718   1.869
 8801TIP3    H126348   6.127   6.721   1.883
 8801TIP3    H226349   6.249   6.809   1.878
 8802TIP3   OH226350   0.662   6.347   3.052
 8802TIP3    H126351   0.637   6.255   3.038
 8802TIP3    H226352   0.691   6.377   2.965
 8803TIP3   OH226353   0.636   1.204   4.778
 8803TIP3    H126354   0.555   1.248   4.802
 8803TIP3    H226355   0.637   1.124   4.831
 8804TIP3   OH226356   6.217   0.273   3.414
 8804TIP3    H126357   6.233   0.199   3.473
 8804TIP3    H226358   6.303   0.313   3.403
 8805TIP3   OH226359   1.330   0.727   4.156
 8805TIP3    H126360   1.247   0.680   4.161
 8805TIP3    H226361   1.355   0.722   4.064
 8806TIP3   OH226362   5.073   3.275   5.637
 8806TIP3    H126363   5.039   3.226   5.562
 8806TIP3    H226364   5.117   3.209   5.690
 8807TIP3   OH226365   1.123   2.848   6.068
 8807TIP3    H126366   1.203   2.833   6.120
 8807TIP3    H226367   1.063   2.779   6.096
 8808TIP3   OH226368   6.226   7.083   3.845
 8808TIP3    H126369   6.182   7.119   3.922
 8808TIP3    H226370   6.302   7.140   3.831
 8809TIP3   OH226371   1.222   2.523   6.352
 8809TIP3    H126372   1.157   2.586   6.321
 8809TIP3    H226373   1.285   2.575   6.401
 8810TIP3   OH226374   0.534   5.994   4.262
 8810TIP3    H126375   0.448   6.034   4.272
 8810TIP3    H226376   0.538   5.971   4.169
 8811TIP3   OH226377   5.505   0.572   5.267
 8811TIP3    H126378   5.475   0.524   5.344
 8811TIP3    H226379   5.585   0.527   5.240
 8812TIP3   OH226380   6.281   7.229   0.802
 8812TIP3    H126381   6.256   7.179   0.879
 8812TIP3    H226382   6.369   7.199   0.781
 8813TIP3   OH226383   8.030   0.621   0.425
 8813TIP3    H126384   8.023   0.535   0.384
 8813TIP3    H226385   8.027   0.683   0.352
 8814TIP3   OH226386   6.151   3.023   1.303
 8814TIP3    H126387   6.064   3.013   1.263
 8814TIP3    H226388   6.140   3.094   1.367
 8815TIP3   OH226389   7.175   6.179   3.886
 8815TIP3    H126390   7.178   6.251   3.950
 8815TIP3    H226391   7.208   6.219   3.805
 8816TIP3   OH226392   3.897   7.056   4.351
 8816TIP3    H126393   3.967   7.007   4.308
 8816TIP3    H226394   3.872   7.002   4.426
 8817TIP3   OH226395   6.771   0.515   4.044
 8817TIP3    H126396   6.818   0.578   4.099
 8817TIP3    H226397   6.833   0.443   4.033
 8818TIP3   OH226398   0.713   7.803   5.150
 8818TIP3    H126399   0.627   7.810   5.108
 8818TIP3    H226400   0.711   7.870   5.218
 8819TIP3   OH226401   4.749   5.419   0.200
 8819TIP3    H126402   4.722   5.504   0.235
 8819TIP3    H226403   4.768   5.437   0.108
 8820TIP3   OH226404   6.501   1.462   2.715
 8820TIP3    H126405   6.408   1.465   2.690
 8820TIP3    H226406   6.546   1.436   2.635
 8821TIP3   OH226407   3.659   2.225   4.081
 8821TIP3    H126408   3.710   2.226   4.000
 8821TIP3    H226409   3.644   2.317   4.102
 8822TIP3   OH226410   2.456   4.031   0.077
 8822TIP3    H126411   2.371   4.002   0.110
 8822TIP3    H226412   2.510   4.041   0.155
 8823TIP3   OH226413   6.709   3.115   2.915
 8823TIP3    H126414   6.736   3.068   2.837
 8823TIP3    H226415   6.614   3.123   2.907
 8824TIP3   OH226416   3.779   4.041   5.716
 8824TIP3    H126417   3.839   4.094   5.768
 8824TIP3    H226418   3.716   4.006   5.780
 8825TIP3   OH226419   6.343   4.357   2.552
 8825TIP3    H126420   6.323   4.338   2.460
 8825TIP3    H226421   6.427   4.402   2.549
 8826TIP3   OH226422   2.563   7.592   3.552
 8826TIP3    H126423   2.639   7.620   3.501
 8826TIP3    H226424   2.493   7.652   3.527
 8827TIP3   OH226425   1.326   2.285   0.539
 8827TIP3    H126426   1.293   2.227   0.608
 8827TIP3    H226427   1.415   2.253   0.523
 8828TIP3   OH226428   8.083   6.562   2.057
 8828TIP3    H126429   7.990   6.584   2.053
 8828TIP3    H226430   8.096   6.500   1.985
 8829TIP3   OH226431   3.605   5.986   3.961
 8829TIP3    H126432   3.698   5.992   3.941
 8829TIP3    H226433   3.601   5.938   4.044
 8830TIP3   OH226434   6.554   7.055   0.746
 8830TIP3    H126435   6.549   6.983   0.809
 8830TIP3    H226436   6.535   7.014   0.661
 8831TIP3   OH226437   6.857   2.990   4.451
 8831TIP3    H126438   6.797   2.921   4.477
 8831TIP3    H226439   6.944   2.955   4.471
 8832TIP3   OH226440   2.167   7.421   0.002
 8832TIP3    H126441   2.184   7.357  -0.067
 8832TIP3    H226442   2.149   7.369   0.080
 8833TIP3   OH226443   3.917   4.956   2.931
 8833TIP3    H126444   3.984   5.011   2.974
 8833TIP3    H226445   3.904   4.884   2.992
 8834TIP3   OH226446   3.342   4.925   4.985
 8834TIP3    H126447   3.383   4.899   4.903
 8834TIP3    H226448   3.249   4.904   4.973
 8835TIP3   OH226449   6.409   3.774   4.805
 8835TIP3    H126450   6.475   3.788   4.736
 8835TIP3    H226451   6.377   3.862   4.826
 8836TIP3   OH226452   3.717   6.888   0.565
 8836TIP3    H126453   3.658   6.952   0.525
 8836TIP3    H226454   3.670   6.860   0.645
 8837TIP3   OH226455   4.334   6.502   0.723
 8837TIP3    H126456   4.314   6.501   0.817
 8837TIP3    H226457   4.413   6.449   0.715
 8838TIP3   OH226458   4.075   5.326   3.281
 8838TIP3    H126459   4.111   5.255   3.335
 8838TIP3    H226460   4.023   5.378   3.343
 8839TIP3   OH226461   4.383   7.601   3.718
 8839TIP3    H126462   4.353   7.519   3.678
 8839TIP3    H226463   4.370   7.667   3.650
 8840TIP3   OH226464   7.545   5.521   1.303
 8840TIP3    H126465   7.548   5.545   1.396
 8840TIP3    H226466   7.553   5.425   1.304
 8841TIP3   OH226467   7.175   0.166   4.068
 8841TIP3    H126468   7.105   0.227   4.092
 8841TIP3    H226469   7.204   0.128   4.150
 8842TIP3   OH226470   1.352   6.625   5.288
 8842TIP3    H126471   1.445   6.644   5.273
 8842TIP3    H226472   1.333   6.664   5.373
 8843TIP3   OH226473   5.250   7.166   1.623
 8843TIP3    H126474   5.271   7.114   1.545
 8843TIP3    H226475   5.158   7.189   1.612
 8844TIP3   OH226476   7.347   7.023   2.854
 8844TIP3    H126477   7.271   7.037   2.911
 8844TIP3    H226478   7.352   7.102   2.801
 8845TIP3   OH226479   4.533   5.076   3.616
 8845TIP3    H126480   4.540   5.142   3.684
 8845TIP3    H226481   4.609   5.019   3.629
 8846TIP3   OH226482   2.226   1.624   6.022
 8846TIP3    H126483   2.231   1.530   6.039
 8846TIP3    H226484   2.273   1.636   5.940
 8847TIP3   OH226485   0.849   5.331   4.891
 8847TIP3    H126486   0.877   5.415   4.855
 8847TIP3    H226487   0.847   5.345   4.986
 8848TIP3   OH226488   2.956   3.412   4.868
 8848TIP3    H126489   2.933   3.476   4.800
 8848TIP3    H226490   2.921   3.448   4.949
 8849TIP3   OH226491   5.869   5.115   2.293
 8849TIP3    H126492   5.950   5.164   2.306
 8849TIP3    H226493   5.817   5.133   2.371
 8850TIP3   OH226494   1.498   0.520   2.001
 8850TIP3    H126495   1.479   0.586   2.067
 8850TIP3    H226496   1.568   0.558   1.948
 8851TIP3   OH226497   6.034   5.866   0.143
 8851TIP3    H126498   6.081   5.784   0.164
 8851TIP3    H226499   6.016   5.860   0.049
 8852TIP3   OH226500   3.745   0.366   3.879
 8852TIP3    H126501   3.725   0.381   3.786
 8852TIP3    H226502   3.838   0.344   3.880
 8853TIP3   OH226503   0.799   4.414   3.975
 8853TIP3    H126504   0.881   4.395   4.020
 8853TIP3    H226505   0.814   4.382   3.886
 8854TIP3   OH226506   1.750   7.018   6.097
 8854TIP3    H126507   1.741   7.111   6.121
 8854TIP3    H226508   1.731   6.971   6.178
 8855TIP3   OH226509   8.094   3.880   4.216
 8855TIP3    H126510   8.152   3.937   4.265
 8855TIP3    H226511   8.071   3.810   4.278
 8856TIP3   OH226512   7.304   0.084   4.298
 8856TIP3    H126513   7.350   0.055   4.377
 8856TIP3    H226514   7.350   0.164   4.271
 8857TIP3   OH226515   2.400   2.949   5.148
 8857TIP3    H126516   2.427   3.037   5.122
 8857TIP3    H226517   2.415   2.895   5.070
 8858TIP3   OH226518   1.553   1.392   2.932
 8858TIP3    H126519   1.549   1.297   2.927
 8858TIP3    H226520   1.645   1.412   2.952
 8859TIP3   OH226521   5.429   4.383   6.753
 8859TIP3    H126522   5.443   4.455   6.815
 8859TIP3    H226523   5.338   4.356   6.767
 8860TIP3   OH226524   0.741   2.809   5.070
 8860TIP3    H126525   0.779   2.897   5.064
 8860TIP3    H226526   0.717   2.800   5.162
 8861TIP3   OH226527   0.499   0.867   5.694
 8861TIP3    H126528   0.459   0.877   5.608
 8861TIP3    H226529   0.589   0.899   5.682
 8862TIP3   OH226530   6.818   2.202   2.782
 8862TIP3    H126531   6.906   2.167   2.789
 8862TIP3    H226532   6.761   2.125   2.787
 8863TIP3   OH226533   4.665   3.995   0.470
 8863TIP3    H126534   4.597   3.938   0.505
 8863TIP3    H226535   4.737   3.989   0.534
 8864TIP3   OH226536   6.329   1.110   2.183
 8864TIP3    H126537   6.421   1.111   2.156
 8864TIP3    H226538   6.294   1.028   2.150
 8865TIP3   OH226539   7.988   5.785   6.247
 8865TIP3    H126540   7.962   5.693   6.240
 8865TIP3    H226541   8.014   5.795   6.339
 8866TIP3   OH226542   1.016   1.838   5.731
 8866TIP3    H126543   0.922   1.847   5.718
 8866TIP3    H226544   1.035   1.895   5.806
 8867TIP3   OH226545   2.243   5.711   1.262
 8867TIP3    H126546   2.150   5.705   1.284
 8867TIP3    H226547   2.280   5.763   1.333
 8868TIP3   OH226548   2.346   5.810   5.730
 8868TIP3    H126549   2.268   5.857   5.759
 8868TIP3    H226550   2.412   5.878   5.714
 8869TIP3   OH226551   2.205   2.244   2.321
 8869TIP3    H126552   2.263   2.223   2.394
 8869TIP3    H226553   2.198   2.162   2.271
 8870TIP3   OH226554   1.379   7.446   0.046
 8870TIP3    H126555   1.285   7.443   0.026
 8870TIP3    H226556   1.414   7.510  -0.015
 8871TIP3   OH226557   2.520   3.718   2.494
 8871TIP3    H126558   2.541   3.807   2.524
 8871TIP3    H226559   2.587   3.663   2.534
 8872TIP3   OH226560   7.297   1.355   2.343
 8872TIP3    H126561   7.251   1.361   2.259
 8872TIP3    H226562   7.339   1.440   2.353
 8873TIP3   OH226563   0.505   1.187   2.981
 8873TIP3    H126564   0.520   1.209   2.889
 8873TIP3    H226565   0.422   1.231   3.003
 8874TIP3   OH226566   8.000   4.280   1.781
 8874TIP3    H126567   7.973   4.305   1.693
 8874TIP3    H226568   8.040   4.359   1.818
 8875TIP3   OH226569   4.923   4.615   3.474
 8875TIP3    H126570   4.999   4.594   3.528
 8875TIP3    H226571   4.950   4.589   3.385
 8876TIP3   OH226572   2.101   3.589   6.284
 8876TIP3    H126573   2.005   3.581   6.277
 8876TIP3    H226574   2.134   3.510   6.241
 8877TIP3   OH226575   6.463   3.969   3.593
 8877TIP3    H126576   6.523   3.941   3.663
 8877TIP3    H226577   6.488   4.060   3.576
 8878TIP3   OH226578   4.661   1.024   3.637
 8878TIP3    H126579   4.730   1.085   3.663
 8878TIP3    H226580   4.699   0.937   3.650
 8879TIP3   OH226581   7.726   5.768   2.362
 8879TIP3    H126582   7.757   5.737   2.447
 8879TIP3    H226583   7.746   5.697   2.302
 8880TIP3   OH226584   7.749   3.430   5.990
 8880TIP3    H126585   7.718   3.475   5.911
 8880TIP3    H226586   7.777   3.344   5.959
 8881TIP3   OH226587   6.287   2.796   2.547
 8881TIP3    H126588   6.309   2.705   2.527
 8881TIP3    H226589   6.358   2.825   2.605
 8882TIP3   OH226590   0.908   4.095   6.113
 8882TIP3    H126591   0.953   4.133   6.189
 8882TIP3    H226592   0.816   4.092   6.139
 8883TIP3   OH226593   3.396   4.392   1.998
 8883TIP3    H126594   3.406   4.483   2.027
 8883TIP3    H226595   3.408   4.340   2.078
 8884TIP3   OH226596   2.236   2.213   6.299
 8884TIP3    H126597   2.221   2.257   6.382
 8884TIP3    H226598   2.316   2.252   6.265
 8885TIP3   OH226599   2.880   7.009   1.517
 8885TIP3    H126600   2.850   6.997   1.607
 8885TIP3    H226601   2.808   7.057   1.475
 8886TIP3   OH226602   6.745   2.608   5.616
 8886TIP3    H126603   6.744   2.609   5.520
 8886TIP3    H226604   6.686   2.536   5.639
 8887TIP3   OH226605   7.390   0.020   6.655
 8887TIP3    H126606   7.467   0.050   6.608
 8887TIP3    H226607   7.318   0.028   6.593
 8888TIP3   OH226608   7.794   3.073   1.639
 8888TIP3    H126609   7.762   3.050   1.552
 8888TIP3    H226610   7.859   3.141   1.624
 8889TIP3   OH226611   5.365   3.610   5.202
 8889TIP3    H126612   5.434   3.590   5.139
 8889TIP3    H226613   5.284   3.596   5.154
 8890TIP3   OH226614   4.291   0.449   3.610
 8890TIP3    H126615   4.379   0.412   3.602
 8890TIP3    H226616   4.236   0.375   3.636
 8891TIP3   OH226617   3.519   0.037   4.084
 8891TIP3    H126618   3.518   0.070   4.174
 8891TIP3    H226619   3.454  -0.034   4.084
 8892TIP3   OH226620   4.446   0.388   1.162
 8892TIP3    H126621   4.525   0.440   1.154
 8892TIP3    H226622   4.472   0.300   1.134
 8893TIP3   OH226623   5.507   3.477   4.564
 8893TIP3    H126624   5.519   3.572   4.565
 8893TIP3    H226625   5.424   3.462   4.610
 8894TIP3   OH226626   1.414   2.396   1.948
 8894TIP3    H126627   1.503   2.374   1.920
 8894TIP3    H226628   1.383   2.458   1.882
 8895TIP3   OH226629   7.116   2.427   0.277
 8895TIP3    H126630   7.199   2.414   0.321
 8895TIP3    H226631   7.060   2.356   0.309
 8896TIP3   OH226632   0.974   6.739   1.221
 8896TIP3    H126633   0.963   6.824   1.178
 8896TIP3    H226634   0.910   6.740   1.292
 8897TIP3   OH226635   0.778   2.250   5.942
 8897TIP3    H126636   0.783   2.345   5.933
 8897TIP3    H226637   0.868   2.220   5.928
 8898TIP3   OH226638   8.007   7.085   2.895
 8898TIP3    H126639   8.054   7.004   2.874
 8898TIP3    H226640   8.052   7.153   2.845
 8899TIP3   OH226641   3.176   6.346   6.102
 8899TIP3    H126642   3.249   6.299   6.063
 8899TIP3    H226643   3.210   6.434   6.119
 8900TIP3   OH226644   5.578   0.879   4.703
 8900TIP3    H126645   5.523   0.921   4.636
 8900TIP3    H226646   5.515   0.846   4.768
 8901TIP3   OH226647   6.614   2.913   0.239
 8901TIP3    H126648   6.601   3.008   0.230
 8901TIP3    H226649   6.537   2.874   0.198
 8902TIP3   OH226650   2.677   5.942   4.238
 8902TIP3    H126651   2.655   6.024   4.281
 8902TIP3    H226652   2.594   5.915   4.197
 8903TIP3   OH226653   3.439   4.025   1.424
 8903TIP3    H126654   3.466   3.958   1.360
 8903TIP3    H226655   3.511   4.028   1.487
 8904TIP3   OH226656   0.737   4.266   1.882
 8904TIP3    H126657   0.729   4.345   1.934
 8904TIP3    H226658   0.819   4.278   1.833
 8905TIP3   OH226659   5.014   0.691   4.229
 8905TIP3    H126660   4.939   0.732   4.273
 8905TIP3    H226661   5.054   0.636   4.297
 8906TIP3   OH226662   4.075   6.825   4.813
 8906TIP3    H126663   4.021   6.903   4.815
 8906TIP3    H226664   4.144   6.845   4.749
 8907TIP3   OH226665   4.455   3.846   0.595
 8907TIP3    H126666   4.455   3.898   0.675
 8907TIP3    H226667   4.368   3.808   0.591
 8908TIP3   OH226668   4.170   7.051   0.577
 8908TIP3    H126669   4.117   6.975   0.554
 8908TIP3    H226670   4.192   7.038   0.669
 8909TIP3   OH226671   1.476   6.396   5.769
 8909TIP3    H126672   1.453   6.314   5.814
 8909TIP3    H226673   1.555   6.426   5.814
 8910TIP3   OH226674   7.393   1.862   4.126
 8910TIP3    H126675   7.444   1.901   4.197
 8910TIP3    H226676   7.417   1.769   4.127
 8911TIP3   OH226677   2.201   3.036   2.785
 8911TIP3    H126678   2.262   2.987   2.729
 8911TIP3    H226679   2.232   3.018   2.874
 8912TIP3   OH226680   0.295   4.929   6.619
 8912TIP3    H126681   0.373   4.983   6.604
 8912TIP3    H226682   0.223   4.992   6.625
 8913TIP3   OH226683   5.608   0.365   3.498
 8913TIP3    H126684   5.603   0.407   3.412
 8913TIP3    H226685   5.680   0.410   3.543
 8914TIP3   OH226686   1.593   6.555   0.037
 8914TIP3    H126687   1.635   6.539   0.122
 8914TIP3    H226688   1.565   6.647   0.041
 8915TIP3   OH226689   6.847   1.437   3.107
 8915TIP3    H126690   6.811   1.493   3.176
 8915TIP3    H226691   6.800   1.464   3.028
 8916TIP3   OH226692   1.025   2.284   2.275
 8916TIP3    H126693   0.950   2.239   2.235
 8916TIP3    H226694   1.022   2.372   2.237
 8917TIP3   OH226695   3.672   2.031   0.953
 8917TIP3    H126696   3.630   1.980   1.023
 8917TIP3    H226697   3.665   2.122   0.983
 8918TIP3   OH226698   5.531   1.307   1.983
 8918TIP3    H126699   5.620   1.290   2.012
 8918TIP3    H226700   5.479   1.308   2.063
 8919TIP3   OH226701   1.689   5.263   6.419
 8919TIP3    H126702   1.630   5.272   6.343
 8919TIP3    H226703   1.729   5.350   6.428
 8920TIP3   OH226704   2.057   6.104   6.678
 8920TIP3    H126705   2.089   6.193   6.694
 8920TIP3    H226706   2.100   6.078   6.597
 8921TIP3   OH226707   8.177   7.663   6.166
 8921TIP3    H126708   8.184   7.672   6.071
 8921TIP3    H226709   8.093   7.619   6.180
 8922TIP3   OH226710   4.617   1.875   2.389
 8922TIP3    H126711   4.549   1.943   2.387
 8922TIP3    H226712   4.694   1.919   2.426
 8923TIP3   OH226713   5.355   6.216   0.633
 8923TIP3    H126714   5.390   6.155   0.698
 8923TIP3    H226715   5.367   6.302   0.671
 8924TIP3   OH226716   3.646   2.044   4.717
 8924TIP3    H126717   3.682   2.132   4.706
 8924TIP3    H226718   3.569   2.056   4.773
 8925TIP3   OH226719   7.467   3.983   2.446
 8925TIP3    H126720   7.553   3.999   2.483
 8925TIP3    H226721   7.457   4.050   2.378
 8926TIP3   OH226722   0.572   2.940   3.250
 8926TIP3    H126723   0.634   2.931   3.323
 8926TIP3    H226724   0.552   3.033   3.245
 8927TIP3   OH226725   6.038   2.472   5.562
 8927TIP3    H126726   6.032   2.464   5.467
 8927TIP3    H226727   6.103   2.540   5.576
 8928TIP3   OH226728   8.025   4.021   1.384
 8928TIP3    H126729   7.978   4.045   1.304
 8928TIP3    H226730   8.068   4.102   1.411
 8929TIP3   OH226731   3.785   7.586   1.300
 8929TIP3    H126732   3.859   7.543   1.259
 8929TIP3    H226733   3.819   7.619   1.383
 8930TIP3   OH226734   3.275   4.571  -0.009
 8930TIP3    H126735   3.320   4.641   0.039
 8930TIP3    H226736   3.292   4.493   0.043
 8931TIP3   OH226737   8.291   3.269   5.741
 8931TIP3    H126738   8.221   3.204   5.752
 8931TIP3    H226739   8.279   3.330   5.813
 8932TIP3   OH226740   5.203   1.418   6.486
 8932TIP3    H126741   5.252   1.499   6.498
 8932TIP3    H226742   5.178   1.391   6.574
 8933TIP3   OH226743   4.265   4.288   4.469
 8933TIP3    H126744   4.246   4.336   4.388
 8933TIP3    H226745   4.356   4.312   4.489
 8934TIP3   OH226746   4.480   6.219   0.780
 8934TIP3    H126747   4.481   6.243   0.873
 8934TIP3    H226748   4.473   6.123   0.780
 8935TIP3   OH226749   7.721   4.102   4.194
 8935TIP3    H126750   7.755   4.184   4.158
 8935TIP3    H226751   7.629   4.100   4.165
 8936TIP3   OH226752   5.249   4.930   2.163
 8936TIP3    H126753   5.254   5.018   2.202
 8936TIP3    H226754   5.161   4.900   2.183
 8937TIP3   OH226755   7.684   1.037   3.211
 8937TIP3    H126756   7.711   0.980   3.138
 8937TIP3    H226757   7.765   1.079   3.240
 8938TIP3   OH226758   0.334   6.941   4.489
 8938TIP3    H126759   0.374   6.854   4.497
 8938TIP3    H226760   0.259   6.927   4.431
 8939TIP3   OH226761   5.809   4.982   4.333
 8939TIP3    H126762   5.878   4.916   4.344
 8939TIP3    H226763   5.838   5.056   4.388
 8940TIP3   OH226764   1.437   3.626   5.124
 8940TIP3    H126765   1.511   3.571   5.099
 8940TIP3    H226766   1.433   3.694   5.057
 8941TIP3   OH226767   7.131   3.544   6.542
 8941TIP3    H126768   7.194   3.476   6.567
 8941TIP3    H226769   7.180   3.626   6.553
 8942TIP3   OH226770   5.900   1.913   0.688
 8942TIP3    H126771   5.922   1.901   0.780
 8942TIP3    H226772   5.805   1.922   0.686
 8943TIP3   OH226773   2.266   6.071   0.506
 8943TIP3    H126774   2.307   6.024   0.433
 8943TIP3    H226775   2.286   6.017   0.583
 8944TIP3   OH226776   6.459   1.418   5.513
 8944TIP3    H126777   6.543   1.403   5.471
 8944TIP3    H226778   6.402   1.350   5.478
 8945TIP3   OH226779   3.916   1.344   4.608
 8945TIP3    H126780   3.946   1.389   4.529
 8945TIP3    H226781   3.952   1.256   4.600
 8946TIP3   OH226782   2.276   0.546   0.278
 8946TIP3    H126783   2.312   0.521   0.363
 8946TIP3    H226784   2.334   0.505   0.214
 8947TIP3   OH226785   3.733   3.444   3.716
 8947TIP3    H126786   3.755   3.354   3.692
 8947TIP3    H226787   3.782   3.460   3.796
 8948TIP3   OH226788   6.700   4.908   1.584
 8948TIP3    H126789   6.747   4.918   1.501
 8948TIP3    H226790   6.747   4.964   1.646
 8949TIP3   OH226791   1.624   5.427   3.190
 8949TIP3    H126792   1.575   5.455   3.267
 8949TIP3    H226793   1.661   5.342   3.216
 8950TIP3   OH226794   6.301   6.640   5.206
 8950TIP3    H126795   6.301   6.703   5.278
 8950TIP3    H226796   6.348   6.684   5.135
 8951TIP3   OH226797   7.450   6.314   3.103
 8951TIP3    H126798   7.461   6.326   3.198
 8951TIP3    H226799   7.510   6.378   3.064
 8952TIP3   OH226800   1.744   1.046   3.056
 8952TIP3    H126801   1.736   1.118   3.118
 8952TIP3    H226802   1.760   1.088   2.972
 8953TIP3   OH226803   3.246   2.278   2.584
 8953TIP3    H126804   3.272   2.343   2.519
 8953TIP3    H226805   3.326   2.231   2.605
 8954TIP3   OH226806   0.691   1.758   1.926
 8954TIP3    H126807   0.767   1.764   1.869
 8954TIP3    H226808   0.671   1.665   1.930
 8955TIP3   OH226809   1.490   2.333   5.060
 8955TIP3    H126810   1.489   2.300   5.150
 8955TIP3    H226811   1.427   2.406   5.061
 8956TIP3   OH226812   6.942   0.680   4.220
 8956TIP3    H126813   7.023   0.630   4.218
 8956TIP3    H226814   6.959   0.758   4.168
 8957TIP3   OH226815   3.789   0.579   1.911
 8957TIP3    H126816   3.786   0.639   1.985
 8957TIP3    H226817   3.753   0.497   1.945
 8958TIP3   OH226818   5.914   0.057   3.744
 8958TIP3    H126819   5.968   0.135   3.756
 8958TIP3    H226820   5.837   0.088   3.696
 8959TIP3   OH226821   3.326   5.241   4.181
 8959TIP3    H126822   3.335   5.273   4.271
 8959TIP3    H226823   3.233   5.251   4.161
 8960TIP3   OH226824   2.852   4.481   4.445
 8960TIP3    H126825   2.859   4.540   4.520
 8960TIP3    H226826   2.919   4.415   4.460
 8961TIP3   OH226827   1.199   1.076   3.936
 8961TIP3    H126828   1.118   1.124   3.916
 8961TIP3    H226829   1.220   1.031   3.853
 8962TIP3   OH226830   1.849   1.209   2.108
 8962TIP3    H126831   1.924   1.152   2.091
 8962TIP3    H226832   1.885   1.298   2.103
 8963TIP3   OH226833   7.611   0.152   6.516
 8963TIP3    H126834   7.643   0.194   6.596
 8963TIP3    H226835   7.609   0.222   6.451
 8964TIP3   OH226836   7.820   1.701   0.247
 8964TIP3    H126837   7.900   1.746   0.273
 8964TIP3    H226838   7.780   1.674   0.330
 8965TIP3   OH226839   3.964   4.287   3.183
 8965TIP3    H126840   3.904   4.225   3.226
 8965TIP3    H226841   4.039   4.291   3.242
 8966TIP3   OH226842   1.143   5.226   5.011
 8966TIP3    H126843   1.081   5.296   4.991
 8966TIP3    H226844   1.229   5.263   4.990
 8967TIP3   OH226845   5.572   7.271   6.479
 8967TIP3    H126846   5.578   7.327   6.557
 8967TIP3    H226847   5.616   7.190   6.504
 8968TIP3   OH226848   2.304   3.918   5.778
 8968TIP3    H126849   2.355   3.965   5.843
 8968TIP3    H226850   2.220   3.901   5.820
 8969TIP3   OH226851   3.444   4.852   3.529
 8969TIP3    H126852   3.529   4.896   3.529
 8969TIP3    H226853   3.458   4.774   3.476
 8970TIP3   OH226854   4.911   1.481   3.890
 8970TIP3    H126855   4.975   1.474   3.820
 8970TIP3    H226856   4.842   1.538   3.854
 8971TIP3   OH226857   6.699   5.279   2.993
 8971TIP3    H126858   6.784   5.320   3.008
 8971TIP3    H226859   6.638   5.352   2.981
 8972TIP3   OH226860   4.522   2.865   2.600
 8972TIP3    H126861   4.483   2.945   2.634
 8972TIP3    H226862   4.532   2.808   2.676
 8973TIP3   OH226863  -0.018   3.746   3.781
 8973TIP3    H126864  -0.014   3.741   3.877
 8973TIP3    H226865   0.061   3.795   3.757
 8974TIP3   OH226866   5.545   4.211   3.382
 8974TIP3    H126867   5.511   4.266   3.452
 8974TIP3    H226868   5.639   4.205   3.400
 8975TIP3   OH226869   8.095   5.826   2.500
 8975TIP3    H126870   8.159   5.876   2.450
 8975TIP3    H226871   8.140   5.744   2.521
 8976TIP3   OH226872   6.889   7.273   6.286
 8976TIP3    H126873   6.809   7.249   6.332
 8976TIP3    H226874   6.930   7.338   6.343
 8977TIP3   OH226875   0.806   7.451   3.020
 8977TIP3    H126876   0.826   7.422   2.931
 8977TIP3    H226877   0.764   7.376   3.061
 8978TIP3   OH226878   5.975   5.145   4.096
 8978TIP3    H126879   6.056   5.094   4.093
 8978TIP3    H226880   5.965   5.179   4.006
 8979TIP3   OH226881   0.606   3.145   5.142
 8979TIP3    H126882   0.699   3.153   5.123
 8979TIP3    H226883   0.598   3.064   5.192
 8980TIP3   OH226884   7.235   0.889   1.932
 8980TIP3    H126885   7.150   0.913   1.968
 8980TIP3    H226886   7.293   0.882   2.008
 8981TIP3   OH226887   1.341   4.252   5.634
 8981TIP3    H126888   1.347   4.243   5.729
 8981TIP3    H226889   1.429   4.276   5.606
 8982TIP3   OH226890   7.474   0.949   4.194
 8982TIP3    H126891   7.426   0.982   4.118
 8982TIP3    H226892   7.477   0.854   4.181
 8983TIP3   OH226893   2.041   5.499   3.709
 8983TIP3    H126894   2.064   5.437   3.641
 8983TIP3    H226895   2.045   5.585   3.666
 8984TIP3   OH226896   3.020   0.165   2.365
 8984TIP3    H126897   2.929   0.188   2.346
 8984TIP3    H226898   3.029   0.178   2.459
 8985TIP3   OH226899   5.429   7.673   1.930
 8985TIP3    H126900   5.475   7.753   1.904
 8985TIP3    H226901   5.439   7.614   1.855
 8986TIP3   OH226902   2.389   3.787   3.716
 8986TIP3    H126903   2.481   3.797   3.691
 8986TIP3    H226904   2.369   3.695   3.696
 8987TIP3   OH226905   0.497   2.517   2.951
 8987TIP3    H126906   0.522   2.494   2.862
 8987TIP3    H226907   0.415   2.566   2.941
 8988TIP3   OH226908   7.490   3.343   0.154
 8988TIP3    H126909   7.419   3.384   0.203
 8988TIP3    H226910   7.491   3.390   0.070
 8989TIP3   OH226911   2.459   0.170   0.584
 8989TIP3    H126912   2.445   0.143   0.493
 8989TIP3    H226913   2.445   0.264   0.583
 8990TIP3   OH226914   6.680   1.516   0.680
 8990TIP3    H126915   6.593   1.533   0.645
 8990TIP3    H226916   6.670   1.437   0.734
 8991TIP3   OH226917   7.549   5.732   3.814
 8991TIP3    H126918   7.490   5.676   3.764
 8991TIP3    H226919   7.625   5.677   3.832
 8992TIP3   OH226920   4.909   6.608   5.683
 8992TIP3    H126921   4.915   6.633   5.591
 8992TIP3    H226922   4.973   6.664   5.727
 8993TIP3   OH226923   6.358   3.585   3.130
 8993TIP3    H126924   6.318   3.633   3.203
 8993TIP3    H226925   6.306   3.610   3.054
 8994TIP3   OH226926   2.814   2.514   3.667
 8994TIP3    H126927   2.829   2.602   3.631
 8994TIP3    H226928   2.839   2.521   3.759
 8995TIP3   OH226929   1.809   6.432   0.667
 8995TIP3    H126930   1.718   6.459   0.681
 8995TIP3    H226931   1.809   6.391   0.580
 8996TIP3   OH226932   2.457   7.568   2.965
 8996TIP3    H126933   2.544   7.531   2.969
 8996TIP3    H226934   2.457   7.637   3.032
 8997TIP3   OH226935   6.475   3.493   2.250
 8997TIP3    H126936   6.475   3.525   2.160
 8997TIP3    H226937   6.384   3.501   2.279
 8998TIP3   OH226938   3.811   5.453   4.239
 8998TIP3    H126939   3.789   5.454   4.332
 8998TIP3    H226940   3.805   5.545   4.212
 8999TIP3   OH226941   3.012   4.104   2.273
 8999TIP3    H126942   2.921   4.133   2.278
 8999TIP3    H226943   3.057   4.173   2.224
 9000TIP3   OH226944   6.957   1.439   0.785
 9000TIP3    H126945   6.980   1.475   0.699
 9000TIP3    H226946   7.008   1.491   0.847
 9001TIP3   OH226947   0.858   5.285   3.264
 9001TIP3    H126948   0.859   5.380   3.274
 9001TIP3    H226949   0.851   5.252   3.354
 9002TIP3   OH226950   4.757   4.327   3.034
 9002TIP3    H126951   4.668   4.300   3.013
 9002TIP3    H226952   4.798   4.342   2.949
 9003TIP3   OH226953   2.502   6.984   4.552
 9003TIP3    H126954   2.447   6.922   4.504
 9003TIP3    H226955   2.589   6.942   4.554
 9004TIP3   OH226956   1.950   3.991   2.950
 9004TIP3    H126957   1.930   3.967   3.040
 9004TIP3    H226958   2.026   3.936   2.927
 9005TIP3   OH226959   6.316   4.263   0.211
 9005TIP3    H126960   6.239   4.316   0.231
 9005TIP3    H226961   6.341   4.288   0.122
 9006TIP3   OH226962   3.205   4.229   0.708
 9006TIP3    H126963   3.200   4.135   0.729
 9006TIP3    H226964   3.295   4.241   0.678
 9007TIP3   OH226965   6.967   5.633   1.532
 9007TIP3    H126966   7.004   5.547   1.509
 9007TIP3    H226967   6.873   5.617   1.541
 9008TIP3   OH226968   3.275   4.868   3.253
 9008TIP3    H126969   3.324   4.811   3.194
 9008TIP3    H226970   3.332   4.878   3.329
 9009TIP3   OH226971   6.537   4.873   2.588
 9009TIP3    H126972   6.526   4.889   2.681
 9009TIP3    H226973   6.616   4.920   2.564
 9010TIP3   OH226974   6.127   2.576   0.301
 9010TIP3    H126975   6.191   2.524   0.350
 9010TIP3    H226976   6.085   2.513   0.243
 9011TIP3   OH226977   3.008   2.541   4.784
 9011TIP3    H126978   2.976   2.452   4.767
 9011TIP3    H226979   3.089   2.528   4.833
 9012TIP3   OH226980   6.093   4.537   0.786
 9012TIP3    H126981   6.038   4.492   0.722
 9012TIP3    H226982   6.034   4.596   0.831
 9013TIP3   OH226983   1.265   6.974   6.111
 9013TIP3    H126984   1.179   6.982   6.153
 9013TIP3    H226985   1.277   6.879   6.100
 9014TIP3   OH226986   4.603   6.206   4.773
 9014TIP3    H126987   4.529   6.176   4.719
 9014TIP3    H226988   4.612   6.298   4.751
 9015TIP3   OH226989   1.758   3.453   3.311
 9015TIP3    H126990   1.819   3.429   3.381
 9015TIP3    H226991   1.683   3.492   3.358
 9016TIP3   OH226992   5.760   1.659   2.132
 9016TIP3    H126993   5.785   1.709   2.209
 9016TIP3    H226994   5.815   1.694   2.062
 9017TIP3   OH226995   6.453   2.635   4.458
 9017TIP3    H126996   6.421   2.659   4.371
 9017TIP3    H226997   6.501   2.553   4.443
 9018TIP3   OH226998   7.777   4.906   2.061
 9018TIP3    H126999   7.785   4.841   2.131
 9018TIP3    H227000   7.855   4.893   2.008
 9019TIP3   OH227001   5.157   2.174   4.713
 9019TIP3    H127002   5.144   2.111   4.785
 9019TIP3    H227003   5.076   2.169   4.662
 9020TIP3   OH227004   5.024   2.015   5.358
 9020TIP3    H127005   5.120   2.016   5.356
 9020TIP3    H227006   5.001   2.100   5.396
 9021TIP3   OH227007   3.329   4.350   0.195
 9021TIP3    H127008   3.274   4.306   0.130
 9021TIP3    H227009   3.290   4.329   0.279
 9022TIP3   OH227010   1.700   6.827   3.715
 9022TIP3    H127011   1.612   6.837   3.680
 9022TIP3    H227012   1.752   6.894   3.671
 9023TIP3   OH227013   7.943   6.747   5.062
 9023TIP3    H127014   7.942   6.756   4.966
 9023TIP3    H227015   7.851   6.758   5.088
 9024TIP3   OH227016   3.072   1.416   2.567
 9024TIP3    H127017   3.149   1.440   2.618
 9024TIP3    H227018   3.020   1.361   2.625
 9025TIP3   OH227019   6.308   6.949   3.636
 9025TIP3    H127020   6.268   6.997   3.709
 9025TIP3    H227021   6.316   6.859   3.668
 9026TIP3   OH227022   3.555   3.563   2.251
 9026TIP3    H127023   3.479   3.506   2.263
 9026TIP3    H227024   3.626   3.519   2.296
 9027TIP3   OH227025   7.180   5.162   2.723
 9027TIP3    H127026   7.255   5.221   2.712
 9027TIP3    H227027   7.200   5.087   2.667
 9028TIP3   OH227028   0.364   3.729   5.378
 9028TIP3    H127029   0.289   3.708   5.323
 9028TIP3    H227030   0.331   3.796   5.439
 9029TIP3   OH227031   6.890   3.032   5.155
 9029TIP3    H127032   6.813   3.046   5.099
 9029TIP3    H227033   6.927   2.949   5.126
 9030TIP3   OH227034   1.378   2.682   0.812
 9030TIP3    H127035   1.362   2.736   0.735
 9030TIP3    H227036   1.397   2.745   0.882
 9031TIP3   OH227037   6.598   4.786   3.781
 9031TIP3    H127038   6.607   4.869   3.735
 9031TIP3    H227039   6.617   4.719   3.715
 9032TIP3   OH227040   7.526   2.214   1.454
 9032TIP3    H127041   7.565   2.247   1.373
 9032TIP3    H227042   7.465   2.146   1.424
 9033TIP3   OH227043   0.602   5.683   4.376
 9033TIP3    H127044   0.683   5.646   4.341
 9033TIP3    H227045   0.630   5.740   4.448
 9034TIP3   OH227046   6.486   2.980   2.002
 9034TIP3    H127047   6.523   2.933   2.077
 9034TIP3    H227048   6.556   3.040   1.975
 9035TIP3   OH227049   2.237   4.721   1.686
 9035TIP3    H127050   2.192   4.805   1.693
 9035TIP3    H227051   2.328   4.740   1.708
 9036TIP3   OH227052   0.751   5.839   3.943
 9036TIP3    H127053   0.748   5.762   3.887
 9036TIP3    H227054   0.731   5.806   4.030
 9037TIP3   OH227055   1.091   3.913   4.907
 9037TIP3    H127056   1.079   3.819   4.915
 9037TIP3    H227057   1.150   3.923   4.832
 9038TIP3   OH227058   0.557   0.548   2.876
 9038TIP3    H127059   0.549   0.529   2.969
 9038TIP3    H227060   0.469   0.536   2.841
 9039TIP3   OH227061   0.104   7.186   4.594
 9039TIP3    H127062   0.116   7.154   4.505
 9039TIP3    H227063   0.013   7.216   4.597
 9040TIP3   OH227064   7.876   1.147   2.137
 9040TIP3    H127065   7.903   1.104   2.218
 9040TIP3    H227066   7.879   1.077   2.071
 9041TIP3   OH227067   2.962   6.348   0.822
 9041TIP3    H127068   2.974   6.356   0.727
 9041TIP3    H227069   3.014   6.271   0.846
 9042TIP3   OH227070   2.287   3.549   1.631
 9042TIP3    H127071   2.201   3.578   1.660
 9042TIP3    H227072   2.271   3.464   1.589
 9043TIP3   OH227073   7.058   1.423   4.903
 9043TIP3    H127074   7.152   1.431   4.887
 9043TIP3    H227075   7.027   1.513   4.910
 9044TIP3   OH227076   7.224   3.325   3.013
 9044TIP3    H127077   7.168   3.303   3.087
 9044TIP3    H227078   7.170   3.382   2.958
 9045TIP3   OH227079   2.954   5.259   2.592
 9045TIP3    H127080   2.915   5.270   2.505
 9045TIP3    H227081   2.880   5.249   2.651
 9046TIP3   OH227082   0.281   6.208   0.411
 9046TIP3    H127083   0.238   6.278   0.361
 9046TIP3    H227084   0.373   6.213   0.384
 9047TIP3   OH227085   4.311   1.129   6.353
 9047TIP3    H127086   4.377   1.157   6.416
 9047TIP3    H227087   4.359   1.119   6.271
 9048TIP3   OH227088   1.989   5.865   0.658
 9048TIP3    H127089   1.992   5.826   0.570
 9048TIP3    H227090   2.079   5.858   0.691
 9049TIP3   OH227091   1.669   5.876   1.105
 9049TIP3    H127092   1.638   5.801   1.155
 9049TIP3    H227093   1.736   5.840   1.046
 9050TIP3   OH227094   0.962   4.136   5.505
 9050TIP3    H127095   0.964   4.210   5.566
 9050TIP3    H227096   0.898   4.162   5.438
 9051TIP3   OH227097   7.020   1.450   1.658
 9051TIP3    H127098   6.926   1.451   1.640
 9051TIP3    H227099   7.051   1.534   1.625
 9052TIP3   OH227100   4.020   4.786   6.428
 9052TIP3    H127101   4.091   4.839   6.392
 9052TIP3    H227102   3.942   4.842   6.418
 9053TIP3   OH227103   1.743   6.953   4.858
 9053TIP3    H127104   1.745   6.888   4.929
 9053TIP3    H227105   1.707   6.906   4.783
 9054TIP3   OH227106   4.429   2.404   0.023
 9054TIP3    H127107   4.408   2.335  -0.039
 9054TIP3    H227108   4.345   2.425   0.064
 9055TIP3   OH227109   3.740   7.787   0.241
 9055TIP3    H127110   3.658   7.804   0.195
 9055TIP3    H227111   3.808   7.817   0.180
 9056TIP3   OH227112   3.023   1.786   3.844
 9056TIP3    H127113   2.970   1.854   3.803
 9056TIP3    H227114   2.986   1.704   3.811
 9057TIP3   OH227115   6.389   2.547   0.434
 9057TIP3    H127116   6.451   2.548   0.507
 9057TIP3    H227117   6.444   2.554   0.356
 9058TIP3   OH227118   3.134   3.357   0.910
 9058TIP3    H127119   3.115   3.266   0.886
 9058TIP3    H227120   3.105   3.365   1.001
 9059TIP3   OH227121   7.337   5.680   2.649
 9059TIP3    H127122   7.349   5.627   2.570
 9059TIP3    H227123   7.242   5.686   2.660
 9060TIP3   OH227124   1.131   4.122   5.275
 9060TIP3    H127125   1.201   4.185   5.293
 9060TIP3    H227126   1.067   4.137   5.345
 9061TIP3   OH227127   5.844   1.709   0.327
 9061TIP3    H127128   5.814   1.628   0.367
 9061TIP3    H227129   5.765   1.762   0.319
 9062TIP3   OH227130   0.403   1.487   6.716
 9062TIP3    H127131   0.336   1.421   6.701
 9062TIP3    H227132   0.362   1.570   6.691
 9063TIP3   OH227133   6.823   3.234   0.487
 9063TIP3    H127134   6.750   3.196   0.536
 9063TIP3    H227135   6.798   3.326   0.475
 9064TIP3   OH227136   5.957   4.781   1.986
 9064TIP3    H127137   6.021   4.851   1.975
 9064TIP3    H227138   6.003   4.702   1.958
 9065TIP3   OH227139   1.053   2.101   0.932
 9065TIP3    H127140   0.970   2.125   0.890
 9065TIP3    H227141   1.078   2.179   0.982
 9066TIP3   OH227142   1.821   4.789   5.920
 9066TIP3    H127143   1.775   4.858   5.967
 9066TIP3    H227144   1.814   4.814   5.827
 9067TIP3   OH227145   5.837   0.945   2.528
 9067TIP3    H127146   5.893   0.870   2.548
 9067TIP3    H227147   5.752   0.907   2.508
 9068TIP3   OH227148   5.414   5.333   6.668
 9068TIP3    H127149   5.336   5.348   6.722
 9068TIP3    H227150   5.472   5.407   6.688
 9069TIP3   OH227151   4.695   3.619   6.468
 9069TIP3    H127152   4.765   3.631   6.404
 9069TIP3    H227153   4.738   3.582   6.545
 9070TIP3   OH227154   5.341   3.553   2.274
 9070TIP3    H127155   5.434   3.536   2.258
 9070TIP3    H227156   5.316   3.614   2.205
 9071TIP3   OH227157   5.680   1.241   5.395
 9071TIP3    H127158   5.694   1.154   5.433
 9071TIP3    H227159   5.768   1.271   5.373
 9072TIP3   OH227160   0.981   5.503   0.460
 9072TIP3    H127161   1.053   5.517   0.521
 9072TIP3    H227162   0.910   5.470   0.515
 9073TIP3   OH227163   3.089   4.297   2.914
 9073TIP3    H127164   3.059   4.356   2.982
 9073TIP3    H227165   3.014   4.240   2.896
 9074TIP3   OH227166   7.972   1.568   0.554
 9074TIP3    H127167   8.023   1.643   0.523
 9074TIP3    H227168   7.928   1.600   0.633
 9075TIP3   OH227169   0.649   1.529   6.403
 9075TIP3    H127170   0.619   1.615   6.434
 9075TIP3    H227171   0.570   1.488   6.368
 9076TIP3   OH227172   8.179   7.192   5.650
 9076TIP3    H127173   8.197   7.277   5.689
 9076TIP3    H227174   8.170   7.209   5.557
 9077TIP3   OH227175   6.146   6.403   5.150
 9077TIP3    H127176   6.088   6.394   5.225
 9077TIP3    H227177   6.199   6.481   5.169
 9078TIP3   OH227178   3.792   5.194   4.829
 9078TIP3    H127179   3.721   5.253   4.803
 9078TIP3    H227180   3.867   5.223   4.777
 9079TIP3   OH227181   7.625   6.318   1.588
 9079TIP3    H127182   7.618   6.404   1.548
 9079TIP3    H227183   7.565   6.321   1.663
 9080TIP3   OH227184   6.010   6.708   0.667
 9080TIP3    H127185   6.096   6.700   0.708
 9080TIP3    H227186   5.966   6.626   0.688
 9081TIP3   OH227187   5.325   7.550   0.057
 9081TIP3    H127188   5.348   7.580   0.145
 9081TIP3    H227189   5.386   7.479   0.038
 9082TIP3   OH227190   6.562   4.435   4.385
 9082TIP3    H127191   6.608   4.484   4.317
 9082TIP3    H227192   6.582   4.482   4.466
 9083TIP3   OH227193   6.779   1.834   3.107
 9083TIP3    H127194   6.781   1.748   3.150
 9083TIP3    H227195   6.692   1.838   3.066
 9084TIP3   OH227196   3.807   0.879   1.511
 9084TIP3    H127197   3.793   0.837   1.426
 9084TIP3    H227198   3.839   0.808   1.567
 9085TIP3   OH227199   7.617   7.528   3.643
 9085TIP3    H127200   7.576   7.508   3.727
 9085TIP3    H227201   7.652   7.444   3.614
 9086TIP3   OH227202   4.856   7.377   4.453
 9086TIP3    H127203   4.850   7.428   4.534
 9086TIP3    H227204   4.873   7.441   4.385
 9087TIP3   OH227205   4.145   1.299   4.993
 9087TIP3    H127206   4.200   1.243   4.939
 9087TIP3    H227207   4.105   1.240   5.056
 9088TIP3   OH227208   5.009   7.333   1.579
 9088TIP3    H127209   4.957   7.396   1.629
 9088TIP3    H227210   4.948   7.295   1.516
 9089TIP3   OH227211   6.270   5.435   5.072
 9089TIP3    H127212   6.264   5.438   5.168
 9089TIP3    H227213   6.298   5.523   5.047
 9090TIP3   OH227214   2.749   3.020   3.140
 9090TIP3    H127215   2.682   3.074   3.181
 9090TIP3    H227216   2.803   2.989   3.213
 9091TIP3   OH227217   2.041   2.299   1.563
 9091TIP3    H127218   2.123   2.259   1.590
 9091TIP3    H227219   2.006   2.240   1.496
 9092TIP3   OH227220   3.248   1.146   5.539
 9092TIP3    H127221   3.177   1.083   5.553
 9092TIP3    H227222   3.203   1.229   5.522
 9093TIP3   OH227223   4.131   4.568   4.713
 9093TIP3    H127224   4.045   4.610   4.725
 9093TIP3    H227225   4.154   4.536   4.801
 9094TIP3   OH227226   0.302   0.972   0.666
 9094TIP3    H127227   0.314   0.939   0.577
 9094TIP3    H227228   0.308   1.067   0.657
 9095TIP3   OH227229   1.661   2.993   2.268
 9095TIP3    H127230   1.660   2.925   2.201
 9095TIP3    H227231   1.749   2.988   2.306
 9096TIP3   OH227232   0.945   6.957   4.922
 9096TIP3    H127233   0.964   7.017   4.850
 9096TIP3    H227234   0.850   6.953   4.926
 9097TIP3   OH227235   7.940   4.309   2.731
 9097TIP3    H127236   7.959   4.223   2.768
 9097TIP3    H227237   7.845   4.312   2.722
 9098TIP3   OH227238   6.456   0.223   4.769
 9098TIP3    H127239   6.483   0.156   4.706
 9098TIP3    H227240   6.361   0.229   4.758
 9099TIP3   OH227241   6.277   2.570   2.390
 9099TIP3    H127242   6.194   2.571   2.343
 9099TIP3    H227243   6.263   2.509   2.462
 9100TIP3   OH227244   6.122   5.737   6.312
 9100TIP3    H127245   6.138   5.764   6.221
 9100TIP3    H227246   6.073   5.655   6.304
 9101TIP3   OH227247   2.203   5.172   5.990
 9101TIP3    H127248   2.246   5.113   6.052
 9101TIP3    H227249   2.272   5.232   5.963
 9102TIP3   OH227250   4.940   1.015   2.439
 9102TIP3    H127251   4.917   0.956   2.511
 9102TIP3    H227252   4.985   0.959   2.376
 9103TIP3   OH227253   6.205   4.688   4.040
 9103TIP3    H127254   6.147   4.678   4.115
 9103TIP3    H227255   6.283   4.730   4.076
 9104TIP3   OH227256   6.464   0.315   6.213
 9104TIP3    H127257   6.449   0.375   6.140
 9104TIP3    H227258   6.548   0.274   6.193
 9105TIP3   OH227259   4.164   2.324   2.568
 9105TIP3    H127260   4.160   2.305   2.474
 9105TIP3    H227261   4.094   2.388   2.583
 9106TIP3   OH227262   6.294   3.195   2.498
 9106TIP3    H127263   6.203   3.164   2.498
 9106TIP3    H227264   6.317   3.204   2.406
 9107TIP3   OH227265   3.602   3.289   6.666
 9107TIP3    H127266   3.571   3.223   6.729
 9107TIP3    H227267   3.522   3.329   6.633
 9108TIP3   OH227268   8.063   3.169   3.003
 9108TIP3    H127269   8.094   3.112   3.073
 9108TIP3    H227270   7.984   3.126   2.970
 9109TIP3   OH227271   6.386   3.918   2.776
 9109TIP3    H127272   6.464   3.918   2.831
 9109TIP3    H227273   6.417   3.950   2.691
 9110TIP3   OH227274   1.015   2.941   0.684
 9110TIP3    H127275   1.087   2.985   0.638
 9110TIP3    H227276   1.003   2.992   0.764
 9111TIP3   OH227277   4.305   6.454   0.983
 9111TIP3    H127278   4.211   6.451   1.000
 9111TIP3    H227279   4.333   6.362   0.990
 9112TIP3   OH227280   6.315   2.997   3.432
 9112TIP3    H127281   6.310   2.978   3.526
 9112TIP3    H227282   6.261   3.075   3.420
 9113TIP3   OH227283   0.258   2.064   3.662
 9113TIP3    H127284   0.222   2.061   3.574
 9113TIP3    H227285   0.315   1.988   3.667
 9114TIP3   OH227286   4.928   7.715   6.097
 9114TIP3    H127287   4.887   7.711   6.011
 9114TIP3    H227288   4.916   7.628   6.134
 9115TIP3   OH227289   1.832   5.019   3.236
 9115TIP3    H127290   1.857   5.074   3.309
 9115TIP3    H227291   1.819   4.932   3.275
 9116TIP3   OH227292   4.046   5.342   6.696
 9116TIP3    H127293   3.991   5.405   6.650
 9116TIP3    H227294   4.025   5.354   6.789
 9117TIP3   OH227295   0.862   3.285   0.409
 9117TIP3    H127296   0.876   3.257   0.500
 9117TIP3    H227297   0.801   3.221   0.373
 9118TIP3   OH227298   0.646   2.628   5.453
 9118TIP3    H127299   0.581   2.564   5.424
 9118TIP3    H227300   0.595   2.701   5.488
 9119TIP3   OH227301   7.259   3.908   0.186
 9119TIP3    H127302   7.304   3.826   0.205
 9119TIP3    H227303   7.213   3.930   0.267
 9120TIP3   OH227304   4.633   3.082   3.275
 9120TIP3    H127305   4.563   3.103   3.337
 9120TIP3    H227306   4.699   3.038   3.329
 9121TIP3   OH227307   2.488   4.843   1.674
 9121TIP3    H127308   2.444   4.927   1.663
 9121TIP3    H227309   2.562   4.846   1.614
 9122TIP3   OH227310   4.234   1.331   5.315
 9122TIP3    H127311   4.229   1.256   5.256
 9122TIP3    H227312   4.280   1.298   5.392
 9123TIP3   OH227313   6.564   3.406   3.007
 9123TIP3    H127314   6.502   3.474   3.035
 9123TIP3    H227315   6.512   3.325   3.007
 9124TIP3   OH227316   0.038   4.659   1.305
 9124TIP3    H127317   0.084   4.743   1.304
 9124TIP3    H227318   0.108   4.594   1.304
 9125TIP3   OH227319   2.806   1.700   5.439
 9125TIP3    H127320   2.711   1.686   5.428
 9125TIP3    H227321   2.839   1.711   5.350
 9126TIP3   OH227322   3.034   5.455   4.510
 9126TIP3    H127323   3.028   5.516   4.437
 9126TIP3    H227324   3.076   5.504   4.580
 9127TIP3   OH227325   7.143   0.574   5.254
 9127TIP3    H127326   7.096   0.512   5.309
 9127TIP3    H227327   7.167   0.525   5.176
 9128TIP3   OH227328   1.361   0.629   2.931
 9128TIP3    H127329   1.300   0.616   2.859
 9128TIP3    H227330   1.364   0.724   2.944
 9129TIP3   OH227331   1.175   0.958   5.204
 9129TIP3    H127332   1.209   0.964   5.293
 9129TIP3    H227333   1.080   0.967   5.214
 9130TIP3   OH227334   4.788   5.097   1.713
 9130TIP3    H127335   4.868   5.135   1.748
 9130TIP3    H227336   4.814   5.059   1.629
 9131TIP3   OH227337   4.283   2.943   6.675
 9131TIP3    H127338   4.196   2.971   6.705
 9131TIP3    H227339   4.270   2.920   6.583
 9132TIP3   OH227340   5.685   1.532   1.408
 9132TIP3    H127341   5.657   1.617   1.373
 9132TIP3    H227342   5.660   1.470   1.340
 9133TIP3   OH227343   7.991   4.004   5.697
 9133TIP3    H127344   8.016   4.069   5.631
 9133TIP3    H227345   7.986   4.053   5.779
 9134TIP3   OH227346   6.578   4.318   4.036
 9134TIP3    H127347   6.627   4.269   4.102
 9134TIP3    H227348   6.488   4.316   4.067
 9135TIP3   OH227349   3.706   3.623   4.466
 9135TIP3    H127350   3.759   3.671   4.403
 9135TIP3    H227351   3.643   3.687   4.499
 9136TIP3   OH227352   0.217   7.615   3.912
 9136TIP3    H127353   0.231   7.521   3.922
 9136TIP3    H227354   0.190   7.626   3.821
 9137TIP3   OH227355   6.095   2.554   1.900
 9137TIP3    H127356   6.050   2.621   1.952
 9137TIP3    H227357   6.181   2.546   1.942
 9138TIP3   OH227358   1.944   2.297   3.839
 9138TIP3    H127359   1.990   2.232   3.892
 9138TIP3    H227360   1.969   2.381   3.876
 9139TIP3   OH227361   0.349   4.269   3.822
 9139TIP3    H127362   0.341   4.179   3.854
 9139TIP3    H227363   0.331   4.323   3.899
 9140TIP3   OH227364   2.825   1.056   3.462
 9140TIP3    H127365   2.815   0.965   3.489
 9140TIP3    H227366   2.907   1.058   3.412
 9141TIP3   OH227367   5.585   3.883   1.243
 9141TIP3    H127368   5.597   3.930   1.326
 9141TIP3    H227369   5.490   3.875   1.234
 9142TIP3   OH227370   5.218   2.809   4.561
 9142TIP3    H127371   5.177   2.723   4.550
 9142TIP3    H227372   5.286   2.795   4.626
 9143TIP3   OH227373   6.454   4.774   1.456
 9143TIP3    H127374   6.540   4.814   1.468
 9143TIP3    H227375   6.469   4.680   1.459
 9144TIP3   OH227376   3.447   2.865   4.040
 9144TIP3    H127377   3.460   2.892   4.131
 9144TIP3    H227378   3.379   2.798   4.045
 9145TIP3   OH227379   6.429   6.307   6.541
 9145TIP3    H127380   6.503   6.286   6.484
 9145TIP3    H227381   6.439   6.247   6.616
 9146TIP3   OH227382   5.942   7.075   2.411
 9146TIP3    H127383   5.935   6.993   2.461
 9146TIP3    H227384   5.908   7.053   2.325
 9147TIP3   OH227385   4.522   2.604   1.584
 9147TIP3    H127386   4.614   2.605   1.607
 9147TIP3    H227387   4.515   2.539   1.515
 9148TIP3   OH227388   5.042   5.197   0.211
 9148TIP3    H127389   4.962   5.152   0.184
 9148TIP3    H227390   5.044   5.277   0.158
 9149TIP3   OH227391   8.284   3.047   1.686
 9149TIP3    H127392   8.229   3.030   1.762
 9149TIP3    H227393   8.224   3.047   1.612
 9150TIP3   OH227394   3.881   7.593   3.724
 9150TIP3    H127395   3.949   7.638   3.675
 9150TIP3    H227396   3.880   7.505   3.688
 9151TIP3   OH227397   5.990   5.101   4.550
 9151TIP3    H127398   5.991   5.186   4.594
 9151TIP3    H227399   5.942   5.044   4.610
 9152TIP3   OH227400   6.979   4.431   1.189
 9152TIP3    H127401   6.927   4.400   1.263
 9152TIP3    H227402   7.029   4.355   1.160
 9153TIP3   OH227403   5.485   0.170   5.152
 9153TIP3    H127404   5.527   0.221   5.221
 9153TIP3    H227405   5.557   0.142   5.095
 9154TIP3   OH227406   2.799   6.981   4.824
 9154TIP3    H127407   2.854   7.044   4.778
 9154TIP3    H227408   2.767   7.028   4.901
 9155TIP3   OH227409   6.323   7.364   4.222
 9155TIP3    H127410   6.302   7.275   4.252
 9155TIP3    H227411   6.345   7.354   4.130
 9156TIP3   OH227412   7.384   6.857   3.820
 9156TIP3    H127413   7.474   6.823   3.820
 9156TIP3    H227414   7.388   6.935   3.766
 9157TIP3   OH227415   8.014   5.152   3.215
 9157TIP3    H127416   8.029   5.129   3.307
 9157TIP3    H227417   7.947   5.220   3.218
 9158TIP3   OH227418   2.515   0.882   2.982
 9158TIP3    H127419   2.540   0.845   2.897
 9158TIP3    H227420   2.425   0.912   2.970
 9159TIP3   OH227421   2.170   6.882   3.442
 9159TIP3    H127422   2.206   6.915   3.359
 9159TIP3    H227423   2.175   6.956   3.502
 9160TIP3   OH227424   3.402   0.391   5.487
 9160TIP3    H127425   3.334   0.348   5.539
 9160TIP3    H227426   3.391   0.484   5.507
 9161TIP3   OH227427   4.122   0.166   5.609
 9161TIP3    H127428   4.029   0.146   5.617
 9161TIP3    H227429   4.142   0.152   5.516
 9162TIP3   OH227430   4.728   5.256   5.235
 9162TIP3    H127431   4.814   5.243   5.275
 9162TIP3    H227432   4.736   5.338   5.187
 9163TIP3   OH227433   8.175   4.255   4.968
 9163TIP3    H127434   8.083   4.254   4.996
 9163TIP3    H227435   8.197   4.348   4.959
 9164TIP3   OH227436   6.903   6.306   0.097
 9164TIP3    H127437   6.924   6.376   0.035
 9164TIP3    H227438   6.857   6.240   0.043
 9165TIP3   OH227439   1.108   6.341   4.076
 9165TIP3    H127440   1.076   6.251   4.079
 9165TIP3    H227441   1.055   6.383   4.008
 9166TIP3   OH227442   5.566   5.730   1.139
 9166TIP3    H127443   5.657   5.747   1.164
 9166TIP3    H227444   5.571   5.677   1.060
 9167TIP3   OH227445   2.968   4.838   0.342
 9167TIP3    H127446   2.911   4.890   0.285
 9167TIP3    H227447   2.972   4.886   0.424
 9168TIP3   OH227448   0.205   4.718   0.929
 9168TIP3    H127449   0.275   4.779   0.908
 9168TIP3    H227450   0.247   4.632   0.925
 9169TIP3   OH227451   1.986   4.689   2.410
 9169TIP3    H127452   2.020   4.737   2.486
 9169TIP3    H227453   1.907   4.646   2.443
 9170TIP3   OH227454   2.238   5.802   3.280
 9170TIP3    H127455   2.316   5.798   3.224
 9170TIP3    H227456   2.219   5.895   3.288
 9171TIP3   OH227457   7.892   5.412   1.432
 9171TIP3    H127458   7.871   5.341   1.493
 9171TIP3    H227459   7.850   5.489   1.470
 9172TIP3   OH227460   6.638   0.171   0.037
 9172TIP3    H127461   6.733   0.157   0.033
 9172TIP3    H227462   6.609   0.169  -0.054
 9173TIP3   OH227463   7.029   0.083   1.958
 9173TIP3    H127464   7.045   0.098   2.051
 9173TIP3    H227465   7.085   0.145   1.913
 9174TIP3   OH227466   0.390   3.699   4.580
 9174TIP3    H127467   0.406   3.609   4.608
 9174TIP3    H227468   0.315   3.692   4.520
 9175TIP3   OH227469   3.422   7.496   1.083
 9175TIP3    H127470   3.456   7.413   1.050
 9175TIP3    H227471   3.340   7.473   1.128
 9176TIP3   OH227472   0.276   1.121   2.690
 9176TIP3    H127473   0.244   1.133   2.600
 9176TIP3    H227474   0.360   1.165   2.692
 9177TIP3   OH227475   6.540   2.968   6.102
 9177TIP3    H127476   6.544   3.049   6.153
 9177TIP3    H227477   6.501   2.904   6.162
 9178TIP3   OH227478   0.848   1.856   2.279
 9178TIP3    H127479   0.788   1.897   2.217
 9178TIP3    H227480   0.830   1.763   2.272
 9179TIP3   OH227481   4.456   0.826   5.960
 9179TIP3    H127482   4.481   0.862   5.876
 9179TIP3    H227483   4.515   0.867   6.023
 9180TIP3   OH227484   1.620   1.649   0.022
 9180TIP3    H127485   1.715   1.658   0.013
 9180TIP3    H227486   1.598   1.700   0.100
 9181TIP3   OH227487   0.779   7.313   5.681
 9181TIP3    H127488   0.778   7.223   5.649
 9181TIP3    H227489   0.687   7.338   5.689
 9182TIP3   OH227490   0.342   6.848   0.178
 9182TIP3    H127491   0.286   6.829   0.254
 9182TIP3    H227492   0.391   6.767   0.165
 9183TIP3   OH227493   5.757   3.211   3.168
 9183TIP3    H127494   5.668   3.186   3.142
 9183TIP3    H227495   5.805   3.220   3.086
 9184TIP3   OH227496   5.244   0.468   3.022
 9184TIP3    H127497   5.237   0.519   3.104
 9184TIP3    H227498   5.338   0.460   3.006
 9185TIP3   OH227499   3.341   5.275   3.831
 9185TIP3    H127500   3.377   5.263   3.918
 9185TIP3    H227501   3.386   5.209   3.777
 9186TIP3   OH227502   4.846   3.512   4.717
 9186TIP3    H127503   4.779   3.490   4.652
 9186TIP3    H227504   4.929   3.499   4.672
 9187TIP3   OH227505   3.507   0.193   5.809
 9187TIP3    H127506   3.445   0.133   5.768
 9187TIP3    H227507   3.558   0.138   5.868
 9188TIP3   OH227508   7.588   1.620   3.850
 9188TIP3    H127509   7.590   1.716   3.851
 9188TIP3    H227510   7.495   1.598   3.847
 9189TIP3   OH227511   0.583   4.527   4.349
 9189TIP3    H127512   0.573   4.438   4.385
 9189TIP3    H227513   0.639   4.572   4.413
 9190TIP3   OH227514   2.027   2.843   3.817
 9190TIP3    H127515   1.964   2.900   3.862
 9190TIP3    H227516   2.100   2.835   3.879
 9191TIP3   OH227517   3.492   2.740   1.318
 9191TIP3    H127518   3.573   2.714   1.274
 9191TIP3    H227519   3.511   2.826   1.355
 9192TIP3   OH227520   6.977   1.664   6.049
 9192TIP3    H127521   6.916   1.706   5.988
 9192TIP3    H227522   6.925   1.654   6.130
 9193TIP3   OH227523   2.967   3.292   0.202
 9193TIP3    H127524   2.943   3.216   0.255
 9193TIP3    H227525   2.919   3.365   0.242
 9194TIP3   OH227526   2.217   4.502   1.524
 9194TIP3    H127527   2.157   4.524   1.452
 9194TIP3    H227528   2.220   4.582   1.577
 9195TIP3   OH227529   6.990   4.120   5.774
 9195TIP3    H127530   6.988   4.038   5.823
 9195TIP3    H227531   6.939   4.101   5.695
 9196TIP3   OH227532   4.612   1.257   5.933
 9196TIP3    H127533   4.629   1.225   5.844
 9196TIP3    H227534   4.621   1.352   5.927
 9197TIP3   OH227535   8.025   7.588   1.154
 9197TIP3    H127536   7.951   7.579   1.093
 9197TIP3    H227537   7.985   7.620   1.235
 9198TIP3   OH227538   7.566   1.214   4.292
 9198TIP3    H127539   7.479   1.247   4.315
 9198TIP3    H227540   7.555   1.120   4.283
 9199TIP3   OH227541   3.767   3.972   2.480
 9199TIP3    H127542   3.733   3.996   2.567
 9199TIP3    H227543   3.689   3.955   2.428
 9200TIP3   OH227544   4.994   5.259   5.818
 9200TIP3    H127545   5.046   5.300   5.749
 9200TIP3    H227546   4.926   5.211   5.772
 9201TIP3   OH227547   5.690   3.113   1.268
 9201TIP3    H127548   5.603   3.094   1.234
 9201TIP3    H227549   5.677   3.188   1.327
 9202TIP3   OH227550   4.588   1.571   2.832
 9202TIP3    H127551   4.665   1.623   2.856
 9202TIP3    H227552   4.545   1.552   2.915
 9203TIP3   OH227553   1.145   7.558   6.623
 9203TIP3    H127554   1.232   7.541   6.586
 9203TIP3    H227555   1.134   7.653   6.615
 9204TIP3   OH227556   1.683   5.954   0.539
 9204TIP3    H127557   1.599   5.952   0.494
 9204TIP3    H227558   1.679   6.033   0.594
 9205TIP3   OH227559   8.013   0.612   3.170
 9205TIP3    H127560   8.048   0.696   3.201
 9205TIP3    H227561   8.072   0.585   3.100
 9206TIP3   OH227562   1.675   4.987   1.331
 9206TIP3    H127563   1.768   5.003   1.346
 9206TIP3    H227564   1.653   5.040   1.255
 9207TIP3   OH227565   1.549   4.070   6.077
 9207TIP3    H127566   1.631   4.040   6.116
 9207TIP3    H227567   1.502   3.989   6.055
 9208TIP3   OH227568   6.041   2.628   1.376
 9208TIP3    H127569   5.960   2.583   1.397
 9208TIP3    H227570   6.081   2.646   1.461
 9209TIP3   OH227571   6.479   1.834   1.224
 9209TIP3    H127572   6.463   1.885   1.144
 9209TIP3    H227573   6.428   1.754   1.211
 9210TIP3   OH227574   7.898   2.762   4.908
 9210TIP3    H127575   7.839   2.825   4.867
 9210TIP3    H227576   7.902   2.789   5.000
 9211TIP3   OH227577   1.944   1.133   3.308
 9211TIP3    H127578   1.938   1.091   3.394
 9211TIP3    H227579   1.998   1.210   3.322
 9212TIP3   OH227580   4.016   6.395   6.729
 9212TIP3    H127581   3.939   6.340   6.740
 9212TIP3    H227582   4.036   6.427   6.817
 9213TIP3   OH227583   7.402   3.076   1.554
 9213TIP3    H127584   7.349   3.153   1.532
 9213TIP3    H227585   7.422   3.036   1.470
 9214TIP3   OH227586   0.244   0.027   2.935
 9214TIP3    H127587   0.237   0.069   2.849
 9214TIP3    H227588   0.302  -0.048   2.920
 9215TIP3   OH227589   0.740   1.654   1.190
 9215TIP3    H127590   0.726   1.714   1.117
 9215TIP3    H227591   0.665   1.670   1.248
 9216TIP3   OH227592   4.607   2.309   2.079
 9216TIP3    H127593   4.639   2.380   2.134
 9216TIP3    H227594   4.557   2.352   2.010
 9217TIP3   OH227595   4.115   7.833   3.999
 9217TIP3    H127596   4.128   7.840   4.093
 9217TIP3    H227597   4.106   7.739   3.983
 9218TIP3   OH227598   1.522   2.418   1.421
 9218TIP3    H127599   1.536   2.478   1.494
 9218TIP3    H227600   1.546   2.468   1.343
 9219TIP3   OH227601   0.681   1.764   0.958
 9219TIP3    H127602   0.756   1.730   0.911
 9219TIP3    H227603   0.636   1.819   0.894
 9220TIP3   OH227604   2.506   7.329   5.298
 9220TIP3    H127605   2.508   7.269   5.372
 9220TIP3    H227606   2.598   7.350   5.282
 9221TIP3   OH227607   6.816   3.662   3.476
 9221TIP3    H127608   6.879   3.590   3.466
 9221TIP3    H227609   6.733   3.619   3.498
 9222TIP3   OH227610   2.743   3.597   1.536
 9222TIP3    H127611   2.705   3.661   1.597
 9222TIP3    H227612   2.743   3.643   1.451
 9223TIP3   OH227613   7.172   7.031   6.435
 9223TIP3    H127614   7.193   6.940   6.412
 9223TIP3    H227615   7.140   7.026   6.525
 9224TIP3   OH227616   0.192   1.652   6.520
 9224TIP3    H127617   0.226   1.716   6.582
 9224TIP3    H227618   0.231   1.678   6.436
 9225TIP3   OH227619   2.094   7.654   2.112
 9225TIP3    H127620   2.130   7.642   2.199
 9225TIP3    H227621   2.170   7.655   2.054
 9226TIP3   OH227622   2.987   6.423   0.068
 9226TIP3    H127623   3.033   6.394  -0.011
 9226TIP3    H227624   3.056   6.441   0.132
 9227TIP3   OH227625   1.269   7.372   5.298
 9227TIP3    H127626   1.270   7.303   5.232
 9227TIP3    H227627   1.345   7.426   5.276
 9228TIP3   OH227628   0.660   0.781   6.495
 9228TIP3    H127629   0.633   0.704   6.445
 9228TIP3    H227630   0.588   0.844   6.482
 9229TIP3   OH227631   4.104   1.403   1.339
 9229TIP3    H127632   4.104   1.309   1.321
 9229TIP3    H227633   4.151   1.442   1.265
 9230TIP3   OH227634   7.217   2.470   1.038
 9230TIP3    H127635   7.257   2.531   1.099
 9230TIP3    H227636   7.263   2.485   0.955
 9231TIP3   OH227637   0.488   5.783   5.721
 9231TIP3    H127638   0.425   5.711   5.713
 9231TIP3    H227639   0.433   5.861   5.729
 9232TIP3   OH227640   1.352   2.542   4.194
 9232TIP3    H127641   1.286   2.610   4.183
 9232TIP3    H227642   1.338   2.482   4.122
 9233TIP3   OH227643   2.609   2.658   2.751
 9233TIP3    H127644   2.517   2.661   2.726
 9233TIP3    H227645   2.635   2.750   2.758
 9234TIP3   OH227646   5.374   5.724   3.789
 9234TIP3    H127647   5.400   5.673   3.867
 9234TIP3    H227648   5.279   5.720   3.788
 9235TIP3   OH227649   3.055   0.565   0.317
 9235TIP3    H127650   3.083   0.620   0.244
 9235TIP3    H227651   2.983   0.613   0.358
 9236TIP3   OH227652   4.825   1.083   0.475
 9236TIP3    H127653   4.856   1.153   0.419
 9236TIP3    H227654   4.758   1.038   0.424
 9237TIP3   OH227655   4.910   1.820   2.730
 9237TIP3    H127656   4.953   1.886   2.785
 9237TIP3    H227657   4.845   1.780   2.788
 9238TIP3   OH227658   5.243   2.144   1.181
 9238TIP3    H127659   5.324   2.181   1.215
 9238TIP3    H227660   5.210   2.088   1.252
 9239TIP3   OH227661   3.276   5.276   5.730
 9239TIP3    H127662   3.233   5.328   5.798
 9239TIP3    H227663   3.222   5.291   5.652
 9240TIP3   OH227664   4.349   6.310   3.870
 9240TIP3    H127665   4.346   6.223   3.830
 9240TIP3    H227666   4.355   6.370   3.795
 9241TIP3   OH227667   0.650   0.968   5.264
 9241TIP3    H127668   0.584   1.003   5.325
 9241TIP3    H227669   0.626   0.876   5.253
 9242TIP3   OH227670   5.090   2.249   1.728
 9242TIP3    H127671   5.176   2.290   1.720
 9242TIP3    H227672   5.034   2.318   1.761
 9243TIP3   OH227673   6.926   4.930   2.321
 9243TIP3    H127674   6.941   4.849   2.272
 9243TIP3    H227675   6.831   4.940   2.321
 9244TIP3   OH227676   5.405   0.526   5.537
 9244TIP3    H127677   5.327   0.570   5.506
 9244TIP3    H227678   5.373   0.453   5.590
 9245TIP3   OH227679   6.944   3.270   2.888
 9245TIP3    H127680   6.856   3.249   2.919
 9245TIP3    H227681   6.968   3.349   2.937
 9246TIP3   OH227682   7.830   6.701   1.045
 9246TIP3    H127683   7.798   6.751   0.970
 9246TIP3    H227684   7.921   6.727   1.055
 9247TIP3   OH227685   2.240   0.099   1.602
 9247TIP3    H127686   2.176   0.120   1.533
 9247TIP3    H227687   2.313   0.158   1.584
 9248TIP3   OH227688   7.244   0.702   1.511
 9248TIP3    H127689   7.273   0.634   1.450
 9248TIP3    H227690   7.315   0.765   1.512
 9249TIP3   OH227691   8.158   4.229   0.810
 9249TIP3    H127692   8.206   4.148   0.827
 9249TIP3    H227693   8.082   4.201   0.760
 9250TIP3   OH227694   2.118   7.525   0.685
 9250TIP3    H127695   2.034   7.493   0.651
 9250TIP3    H227696   2.119   7.618   0.661
 9251TIP3   OH227697   7.164   7.487   3.316
 9251TIP3    H127698   7.163   7.570   3.268
 9251TIP3    H227699   7.204   7.509   3.400
 9252TIP3   OH227700   1.179   1.034   1.694
 9252TIP3    H127701   1.212   1.116   1.732
 9252TIP3    H227702   1.098   1.017   1.742
 9253TIP3   OH227703   0.542   5.100   1.578
 9253TIP3    H127704   0.494   5.031   1.532
 9253TIP3    H227705   0.624   5.110   1.529
 9254TIP3   OH227706   2.295   0.454   2.229
 9254TIP3    H127707   2.225   0.396   2.256
 9254TIP3    H227708   2.252   0.539   2.214
 9255TIP3   OH227709   5.883   0.233   4.588
 9255TIP3    H127710   5.892   0.326   4.606
 9255TIP3    H227711   5.864   0.228   4.494
 9256TIP3   OH227712   0.724   7.133   0.309
 9256TIP3    H127713   0.729   7.215   0.357
 9256TIP3    H227714   0.633   7.126   0.281
 9257TIP3   OH227715   4.219   4.450   2.957
 9257TIP3    H127716   4.148   4.497   2.914
 9257TIP3    H227717   4.240   4.502   3.034
 9258TIP3   OH227718   3.482   0.075   3.711
 9258TIP3    H127719   3.508   0.114   3.627
 9258TIP3    H227720   3.565   0.058   3.756
 9259TIP3   OH227721   1.155   3.301   0.888
 9259TIP3    H127722   1.140   3.223   0.941
 9259TIP3    H227723   1.181   3.369   0.951
 9260TIP3   OH227724   8.032   6.494   2.690
 9260TIP3    H127725   7.970   6.421   2.691
 9260TIP3    H227726   8.026   6.531   2.779
 9261TIP3   OH227727   2.561   5.766   0.821
 9261TIP3    H127728   2.572   5.747   0.727
 9261TIP3    H227729   2.642   5.810   0.846
 9262TIP3   OH227730   3.993   2.951   3.591
 9262TIP3    H127731   4.050   3.029   3.593
 9262TIP3    H227732   3.986   2.929   3.499
 9263TIP3   OH227733   1.054   5.573   2.664
 9263TIP3    H127734   1.141   5.558   2.701
 9263TIP3    H227735   1.010   5.628   2.728
 9264TIP3   OH227736   2.112   3.183   5.193
 9264TIP3    H127737   2.135   3.191   5.286
 9264TIP3    H227738   2.077   3.094   5.186
 9265TIP3   OH227739   1.675   5.336   2.630
 9265TIP3    H127740   1.714   5.394   2.695
 9265TIP3    H227741   1.736   5.263   2.622
 9266TIP3   OH227742   7.547   6.583   4.401
 9266TIP3    H127743   7.619   6.523   4.421
 9266TIP3    H227744   7.590   6.664   4.374
 9267TIP3   OH227745   0.275   1.192   4.475
 9267TIP3    H127746   0.253   1.251   4.547
 9267TIP3    H227747   0.364   1.163   4.494
 9268TIP3   OH227748   0.698   3.419   4.081
 9268TIP3    H127749   0.765   3.355   4.056
 9268TIP3    H227750   0.629   3.367   4.120
 9269TIP3   OH227751   6.486   5.224   5.202
 9269TIP3    H127752   6.570   5.230   5.157
 9269TIP3    H227753   6.425   5.268   5.143
 9270TIP3   OH227754   5.116   4.127   0.365
 9270TIP3    H127755   5.196   4.083   0.337
 9270TIP3    H227756   5.076   4.067   0.428
 9271TIP3   OH227757   5.180   5.823   6.300
 9271TIP3    H127758   5.264   5.791   6.268
 9271TIP3    H227759   5.178   5.916   6.276
 9272TIP3   OH227760   1.729   0.757   5.806
 9272TIP3    H127761   1.822   0.755   5.827
 9272TIP3    H227762   1.689   0.807   5.877
 9273TIP3   OH227763   2.336   2.661   1.100
 9273TIP3    H127764   2.341   2.634   1.009
 9273TIP3    H227765   2.243   2.681   1.114
 9274TIP3   OH227766   6.068   3.711   1.564
 9274TIP3    H127767   6.031   3.670   1.486
 9274TIP3    H227768   6.071   3.804   1.543
 9275TIP3   OH227769   7.165   0.145   2.879
 9275TIP3    H127770   7.118   0.225   2.903
 9275TIP3    H227771   7.148   0.084   2.951
 9276TIP3   OH227772   1.868   6.553   6.770
 9276TIP3    H127773   1.823   6.491   6.713
 9276TIP3    H227774   1.897   6.623   6.711
 9277TIP3   OH227775   7.373   4.340   4.076
 9277TIP3    H127776   7.464   4.345   4.047
 9277TIP3    H227777   7.352   4.247   4.075
 9278TIP3   OH227778   4.924   3.385   4.367
 9278TIP3    H127779   4.883   3.451   4.311
 9278TIP3    H227780   4.915   3.303   4.319
 9279TIP3   OH227781   6.013   2.422   4.866
 9279TIP3    H127782   5.950   2.467   4.921
 9279TIP3    H227783   6.051   2.491   4.811
 9280TIP3   OH227784   0.925   1.399   4.300
 9280TIP3    H127785   0.877   1.436   4.374
 9280TIP3    H227786   1.014   1.385   4.334
 9281TIP3   OH227787   4.336   2.510   4.395
 9281TIP3    H127788   4.251   2.482   4.430
 9281TIP3    H227789   4.315   2.566   4.321
 9282TIP3   OH227790   0.551   6.149   5.476
 9282TIP3    H127791   0.543   6.177   5.567
 9282TIP3    H227792   0.587   6.225   5.431
 9283TIP3   OH227793   8.167   4.717   5.882
 9283TIP3    H127794   8.156   4.807   5.913
 9283TIP3    H227795   8.190   4.726   5.790
 9284TIP3   OH227796   4.738   3.105   5.960
 9284TIP3    H127797   4.674   3.125   6.027
 9284TIP3    H227798   4.814   3.159   5.982
 9285TIP3   OH227799   0.973   7.147   4.740
 9285TIP3    H127800   1.005   7.210   4.676
 9285TIP3    H227801   0.886   7.123   4.708
 9286TIP3   OH227802   3.044   6.358   1.625
 9286TIP3    H127803   3.032   6.430   1.563
 9286TIP3    H227804   3.035   6.398   1.711
 9287TIP3   OH227805   5.648   0.081   2.798
 9287TIP3    H127806   5.667   0.172   2.777
 9287TIP3    H227807   5.721   0.032   2.760
 9288TIP3   OH227808   4.764   1.965   5.218
 9288TIP3    H127809   4.850   1.972   5.258
 9288TIP3    H227810   4.740   1.873   5.228
 9289TIP3   OH227811   2.241   6.041   2.625
 9289TIP3    H127812   2.262   6.132   2.605
 9289TIP3    H227813   2.185   6.046   2.703
 9290TIP3   OH227814   5.744   4.717   2.971
 9290TIP3    H127815   5.718   4.772   3.044
 9290TIP3    H227816   5.683   4.643   2.973
 9291TIP3   OH227817   3.478   3.275   0.663
 9291TIP3    H127818   3.475   3.320   0.747
 9291TIP3    H227819   3.537   3.201   0.677
 9292TIP3   OH227820   4.363   3.642   5.095
 9292TIP3    H127821   4.300   3.711   5.119
 9292TIP3    H227822   4.332   3.565   5.142
 9293TIP3   OH227823   3.987   6.741   3.167
 9293TIP3    H127824   3.933   6.701   3.236
 9293TIP3    H227825   4.026   6.666   3.121
 9294TIP3   OH227826   2.436   7.433   4.550
 9294TIP3    H127827   2.437   7.339   4.568
 9294TIP3    H227828   2.523   7.451   4.514
 9295TIP3   OH227829   4.860   6.197   4.715
 9295TIP3    H127830   4.912   6.229   4.789
 9295TIP3    H227831   4.770   6.198   4.747
 9296TIP3   OH227832   1.638   4.049   3.254
 9296TIP3    H127833   1.561   4.075   3.304
 9296TIP3    H227834   1.671   3.971   3.299
 9297TIP3   OH227835   0.606   1.480   3.035
 9297TIP3    H127836   0.511   1.470   3.034
 9297TIP3    H227837   0.631   1.469   3.127
 9298TIP3   OH227838   4.316   6.997   1.970
 9298TIP3    H127839   4.312   7.048   2.051
 9298TIP3    H227840   4.409   6.977   1.959
 9299TIP3   OH227841   0.741   5.797   6.445
 9299TIP3    H127842   0.802   5.816   6.374
 9299TIP3    H227843   0.654   5.814   6.408
 9300TIP3   OH227844   0.100   4.393   3.716
 9300TIP3    H127845   0.159   4.327   3.750
 9300TIP3    H227846   0.156   4.449   3.662
 9301TIP3   OH227847   0.840   7.093   6.704
 9301TIP3    H127848   0.775   7.060   6.766
 9301TIP3    H227849   0.875   7.171   6.745
 9302TIP3   OH227850   6.473   0.054   1.005
 9302TIP3    H127851   6.404   0.013   1.057
 9302TIP3    H227852   6.433   0.135   0.972
 9303TIP3   OH227853   7.152   4.774   2.689
 9303TIP3    H127854   7.172   4.842   2.625
 9303TIP3    H227855   7.059   4.757   2.679
 9304TIP3   OH227856   2.960   4.170   1.654
 9304TIP3    H127857   3.049   4.146   1.629
 9304TIP3    H227858   2.971   4.223   1.733
 9305TIP3   OH227859   4.062   0.291   3.349
 9305TIP3    H127860   3.985   0.291   3.292
 9305TIP3    H227861   4.077   0.383   3.370
 9306TIP3   OH227862   3.039   0.968   4.828
 9306TIP3    H127863   3.094   0.893   4.808
 9306TIP3    H227864   2.955   0.948   4.787
 9307TIP3   OH227865   7.248   4.396   5.291
 9307TIP3    H127866   7.227   4.470   5.348
 9307TIP3    H227867   7.164   4.363   5.262
 9308TIP3   OH227868   2.832   4.253   6.705
 9308TIP3    H127869   2.891   4.235   6.631
 9308TIP3    H227870   2.821   4.348   6.702
 9309TIP3   OH227871   0.654   6.527   3.274
 9309TIP3    H127872   0.718   6.494   3.337
 9309TIP3    H227873   0.649   6.459   3.206
 9310TIP3   OH227874   0.454   3.392   0.389
 9310TIP3    H127875   0.371   3.352   0.362
 9310TIP3    H227876   0.434   3.435   0.473
 9311TIP3   OH227877   0.376   0.274   4.197
 9311TIP3    H127878   0.431   0.235   4.265
 9311TIP3    H227879   0.294   0.225   4.201
 9312TIP3   OH227880   3.382   7.235   5.619
 9312TIP3    H127881   3.409   7.325   5.600
 9312TIP3    H227882   3.453   7.181   5.584
 9313TIP3   OH227883   7.563   6.246   4.935
 9313TIP3    H127884   7.490   6.200   4.977
 9313TIP3    H227885   7.565   6.211   4.846
 9314TIP3   OH227886   2.243   6.685   3.018
 9314TIP3    H127887   2.336   6.660   3.024
 9314TIP3    H227888   2.234   6.722   2.930
 9315TIP3   OH227889   5.653   5.574   2.376
 9315TIP3    H127890   5.625   5.495   2.331
 9315TIP3    H227891   5.575   5.629   2.380
 9316TIP3   OH227892   7.686   3.448   2.733
 9316TIP3    H127893   7.697   3.522   2.793
 9316TIP3    H227894   7.606   3.404   2.764
 9317TIP3   OH227895   0.077   2.636   0.142
 9317TIP3    H127896   0.040   2.611   0.057
 9317TIP3    H227897   0.004   2.627   0.204
 9318TIP3   OH227898   3.678   3.729   0.918
 9318TIP3    H127899   3.606   3.676   0.953
 9318TIP3    H227900   3.726   3.758   0.995
 9319TIP3   OH227901   6.632   6.261   5.385
 9319TIP3    H127902   6.709   6.292   5.431
 9319TIP3    H227903   6.561   6.318   5.415
 9320TIP3   OH227904   6.971   7.036   1.359
 9320TIP3    H127905   6.949   7.129   1.370
 9320TIP3    H227906   6.926   6.992   1.431
 9321TIP3   OH227907   2.348   7.386   5.790
 9321TIP3    H127908   2.269   7.369   5.738
 9321TIP3    H227909   2.322   7.455   5.851
 9322TIP3   OH227910   0.135   5.518   3.054
 9322TIP3    H127911   0.103   5.608   3.060
 9322TIP3    H227912   0.056   5.464   3.060
 9323TIP3   OH227913   8.176   1.842   1.298
 9323TIP3    H127914   8.232   1.808   1.368
 9323TIP3    H227915   8.143   1.925   1.332
 9324TIP3   OH227916   1.006   3.778   3.501
 9324TIP3    H127917   0.958   3.709   3.546
 9324TIP3    H227918   1.073   3.732   3.450
 9325TIP3   OH227919   0.069   3.032   0.769
 9325TIP3    H127920   0.080   3.015   0.676
 9325TIP3    H227921   0.080   2.947   0.811
 9326TIP3   OH227922   4.539   0.244   2.267
 9326TIP3    H127923   4.549   0.164   2.215
 9326TIP3    H227924   4.598   0.230   2.342
 9327TIP3   OH227925   2.916   0.557   0.769
 9327TIP3    H127926   2.850   0.613   0.810
 9327TIP3    H227927   2.981   0.542   0.838
 9328TIP3   OH227928   0.871   6.993   2.933
 9328TIP3    H127929   0.868   6.995   2.837
 9328TIP3    H227930   0.931   6.922   2.954
 9329TIP3   OH227931   3.723   1.505   6.129
 9329TIP3    H127932   3.687   1.454   6.057
 9329TIP3    H227933   3.773   1.575   6.086
 9330TIP3   OH227934   1.289   1.905   2.174
 9330TIP3    H127935   1.281   1.989   2.218
 9330TIP3    H227936   1.383   1.895   2.156
 9331TIP3   OH227937   2.751   2.307   4.622
 9331TIP3    H127938   2.710   2.222   4.604
 9331TIP3    H227939   2.845   2.289   4.617
 9332TIP3   OH227940   0.973   7.839   5.386
 9332TIP3    H127941   1.039   7.771   5.394
 9332TIP3    H227942   0.936   7.847   5.474
 9333TIP3   OH227943   7.460   1.756   1.469
 9333TIP3    H127944   7.434   1.740   1.560
 9333TIP3    H227945   7.414   1.836   1.444
 9334TIP3   OH227946   2.194   7.306   2.415
 9334TIP3    H127947   2.280   7.266   2.427
 9334TIP3    H227948   2.170   7.285   2.325
 9335TIP3   OH227949   8.146   5.588   2.658
 9335TIP3    H127950   8.229   5.617   2.696
 9335TIP3    H227951   8.107   5.534   2.727
 9336TIP3   OH227952   0.549   0.306   6.244
 9336TIP3    H127953   0.484   0.302   6.174
 9336TIP3    H227954   0.622   0.254   6.212
 9337TIP3   OH227955   7.017   1.866   0.622
 9337TIP3    H127956   6.995   1.901   0.708
 9337TIP3    H227957   6.933   1.833   0.588
 9338TIP3   OH227958   6.687   0.327   2.214
 9338TIP3    H127959   6.752   0.392   2.241
 9338TIP3    H227960   6.605   0.356   2.255
 9339TIP3   OH227961   0.853   5.275   0.834
 9339TIP3    H127962   0.852   5.183   0.806
 9339TIP3    H227963   0.917   5.316   0.775
 9340TIP3   OH227964   8.041   0.868   3.555
 9340TIP3    H127965   8.050   0.963   3.567
 9340TIP3    H227966   7.963   0.858   3.502
 9341TIP3   OH227967   4.669   6.656   2.885
 9341TIP3    H127968   4.699   6.715   2.954
 9341TIP3    H227969   4.642   6.713   2.814
 9342TIP3   OH227970   0.726   2.428   4.941
 9342TIP3    H127971   0.648   2.474   4.910
 9342TIP3    H227972   0.792   2.446   4.874
 9343TIP3   OH227973   2.606   1.457   6.121
 9343TIP3    H127974   2.691   1.442   6.082
 9343TIP3    H227975   2.589   1.379   6.174
 9344TIP3   OH227976   1.283   0.261   4.940
 9344TIP3    H127977   1.224   0.190   4.915
 9344TIP3    H227978   1.289   0.315   4.861
 9345TIP3   OH227979   4.167   6.350   0.376
 9345TIP3    H127980   4.238   6.301   0.417
 9345TIP3    H227981   4.138   6.294   0.304
 9346TIP3   OH227982   0.910   7.626   3.232
 9346TIP3    H127983   0.862   7.577   3.165
 9346TIP3    H227984   0.984   7.569   3.253
 9347TIP3   OH227985   7.916   5.369   5.997
 9347TIP3    H127986   7.996   5.358   5.947
 9347TIP3    H227987   7.927   5.454   6.041
 9348TIP3   OH227988   3.004   4.462   0.066
 9348TIP3    H127989   2.933   4.438   0.006
 9348TIP3    H227990   3.084   4.448   0.015
 9349TIP3   OH227991   3.093   5.687   2.659
 9349TIP3    H127992   3.177   5.718   2.626
 9349TIP3    H227993   3.037   5.680   2.581
 9350TIP3   OH227994   6.741   1.156   5.335
 9350TIP3    H127995   6.831   1.184   5.321
 9350TIP3    H227996   6.714   1.120   5.250
 9351TIP3   OH227997   5.291   5.786   4.871
 9351TIP3    H127998   5.327   5.701   4.895
 9351TIP3    H227999   5.302   5.840   4.950
 9352TIP3   OH228000   4.845   0.763   4.774
 9352TIP3    H128001   4.817   0.697   4.710
 9352TIP3    H228002   4.883   0.712   4.845
 9353TIP3   OH228003   1.437   7.239   0.198
 9353TIP3    H128004   1.416   7.323   0.157
 9353TIP3    H228005   1.520   7.254   0.243
 9354TIP3   OH228006   4.959   6.413   3.745
 9354TIP3    H128007   4.900   6.439   3.816
 9354TIP3    H228008   5.034   6.374   3.789
 9355TIP3   OH228009   0.177   2.398   3.729
 9355TIP3    H128010   0.171   2.407   3.824
 9355TIP3    H228011   0.147   2.308   3.712
 9356TIP3   OH228012   1.307   3.270   6.437
 9356TIP3    H128013   1.262   3.186   6.447
 9356TIP3    H228014   1.378   3.267   6.501
 9357TIP3   OH228015   1.094   7.673   4.745
 9357TIP3    H128016   1.115   7.740   4.680
 9357TIP3    H228017   1.111   7.715   4.829
 9358TIP3   OH228018   3.790   3.832   3.982
 9358TIP3    H128019   3.812   3.925   3.985
 9358TIP3    H228020   3.787   3.805   4.073
 9359TIP3   OH228021   0.718   2.655   2.684
 9359TIP3    H128022   0.747   2.659   2.775
 9359TIP3    H228023   0.713   2.562   2.664
 9360TIP3   OH228024   2.949   0.282   0.952
 9360TIP3    H128025   2.963   0.206   0.896
 9360TIP3    H228026   2.855   0.284   0.967
 9361TIP3   OH228027   3.011   5.776   2.406
 9361TIP3    H128028   2.994   5.770   2.311
 9361TIP3    H228029   3.083   5.839   2.413
 9362TIP3   OH228030   5.845   1.500   3.342
 9362TIP3    H128031   5.772   1.533   3.395
 9362TIP3    H228032   5.814   1.415   3.310
 9363TIP3   OH228033   5.113   7.170   5.677
 9363TIP3    H128034   5.137   7.099   5.737
 9363TIP3    H228035   5.191   7.183   5.624
 9364TIP3   OH228036   5.349   5.099   5.795
 9364TIP3    H128037   5.345   5.192   5.776
 9364TIP3    H228038   5.333   5.056   5.710
 9365TIP3   OH228039   4.563   3.900   0.061
 9365TIP3    H128040   4.599   3.972   0.008
 9365TIP3    H228041   4.524   3.943   0.137
 9366TIP3   OH228042   3.980   3.985   3.484
 9366TIP3    H128043   3.913   4.043   3.448
 9366TIP3    H228044   3.932   3.927   3.544
 9367TIP3   OH228045   6.192   4.826   1.555
 9367TIP3    H128046   6.221   4.796   1.641
 9367TIP3    H228047   6.262   4.799   1.496
 9368TIP3   OH228048   3.499   3.711   0.134
 9368TIP3    H128049   3.459   3.624   0.137
 9368TIP3    H228050   3.433   3.769   0.169
 9369TIP3   OH228051   6.579   4.029   5.381
 9369TIP3    H128052   6.593   4.095   5.312
 9369TIP3    H228053   6.564   4.081   5.460
 9370TIP3   OH228054   4.992   3.604   3.458
 9370TIP3    H128055   5.018   3.513   3.441
 9370TIP3    H228056   5.042   3.655   3.394
 9371TIP3   OH228057   3.427   4.434   6.604
 9371TIP3    H128058   3.459   4.478   6.682
 9371TIP3    H228059   3.497   4.444   6.540
 9372TIP3   OH228060   6.358   0.070   6.693
 9372TIP3    H128061   6.269   0.037   6.681
 9372TIP3    H228062   6.411  -0.009   6.703
 9373TIP3   OH228063   3.000   2.303   6.333
 9373TIP3    H128064   3.038   2.352   6.261
 9373TIP3    H228065   3.074   2.289   6.393
 9374TIP3   OH228066   2.703   0.788   3.141
 9374TIP3    H128067   2.637   0.819   3.079
 9374TIP3    H228068   2.767   0.741   3.088
 9375TIP3   OH228069   6.480   5.431   6.300
 9375TIP3    H128070   6.571   5.404   6.296
 9375TIP3    H228071   6.458   5.429   6.393
 9376TIP3   OH228072   1.634   6.189   0.724
 9376TIP3    H128073   1.586   6.270   0.707
 9376TIP3    H228074   1.613   6.167   0.814
 9377TIP3   OH228075   5.461   7.527   2.997
 9377TIP3    H128076   5.417   7.572   3.070
 9377TIP3    H228077   5.479   7.596   2.934
 9378TIP3   OH228078   5.933   0.860   6.315
 9378TIP3    H128079   5.968   0.784   6.362
 9378TIP3    H228080   5.845   0.835   6.290
 9379TIP3   OH228081   3.607   7.081   3.714
 9379TIP3    H128082   3.551   7.078   3.792
 9379TIP3    H228083   3.570   7.151   3.660
 9380TIP3   OH228084   3.544   2.361   6.720
 9380TIP3    H128085   3.535   2.439   6.666
 9380TIP3    H228086   3.639   2.350   6.731
 9381TIP3   OH228087   0.106   0.744   2.555
 9381TIP3    H128088   0.143   0.788   2.631
 9381TIP3    H228089   0.073   0.660   2.588
 9382TIP3   OH228090   1.986   7.644   0.441
 9382TIP3    H128091   1.968   7.733   0.470
 9382TIP3    H228092   2.070   7.650   0.395
 9383TIP3   OH228093   3.261   7.226   3.138
 9383TIP3    H128094   3.319   7.167   3.089
 9383TIP3    H228095   3.212   7.272   3.071
 9384TIP3   OH228096   3.288   5.922   3.432
 9384TIP3    H128097   3.261   5.972   3.509
 9384TIP3    H228098   3.263   5.977   3.358
 9385TIP3   OH228099   2.163   5.328   5.317
 9385TIP3    H128100   2.117   5.246   5.331
 9385TIP3    H228101   2.253   5.302   5.298
 9386TIP3   OH228102   4.183   7.070   4.416
 9386TIP3    H128103   4.183   7.077   4.320
 9386TIP3    H228104   4.188   6.976   4.434
 9387TIP3   OH228105   6.251   2.412   2.625
 9387TIP3    H128106   6.224   2.326   2.656
 9387TIP3    H228107   6.222   2.472   2.693
 9388TIP3   OH228108   7.060   0.966   5.868
 9388TIP3    H128109   7.086   0.985   5.778
 9388TIP3    H228110   7.101   1.034   5.920
 9389TIP3   OH228111   4.401   0.452   6.278
 9389TIP3    H128112   4.385   0.445   6.184
 9389TIP3    H228113   4.497   0.457   6.285
 9390TIP3   OH228114   5.905   0.491   1.103
 9390TIP3    H128115   5.838   0.510   1.169
 9390TIP3    H228116   5.885   0.551   1.031
 9391TIP3   OH228117   2.566   3.645   3.085
 9391TIP3    H128118   2.587   3.679   3.172
 9391TIP3    H228119   2.471   3.653   3.079
 9392TIP3   OH228120   0.654   2.874   3.511
 9392TIP3    H128121   0.746   2.859   3.488
 9392TIP3    H228122   0.656   2.893   3.605
 9393TIP3   OH228123   7.126   5.793   1.988
 9393TIP3    H128124   7.145   5.805   1.894
 9393TIP3    H228125   7.166   5.709   2.010
 9394TIP3   OH228126   2.349   1.041   1.792
 9394TIP3    H128127   2.417   1.047   1.859
 9394TIP3    H228128   2.390   0.995   1.719
 9395TIP3   OH228129   1.207   4.561   0.845
 9395TIP3    H128130   1.265   4.500   0.891
 9395TIP3    H228131   1.234   4.555   0.753
 9396TIP3   OH228132   4.304   5.678   0.646
 9396TIP3    H128133   4.302   5.710   0.737
 9396TIP3    H228134   4.232   5.724   0.603
 9397TIP3   OH228135   0.557   4.343   4.113
 9397TIP3    H128136   0.543   4.394   4.193
 9397TIP3    H228137   0.635   4.382   4.073
 9398TIP3   OH228138   6.939   7.102   0.713
 9398TIP3    H128139   6.901   7.014   0.712
 9398TIP3    H228140   6.864   7.159   0.732
 9399TIP3   OH228141   4.419   7.521   6.256
 9399TIP3    H128142   4.443   7.435   6.221
 9399TIP3    H228143   4.501   7.561   6.283
 9400TIP3   OH228144   2.133   1.336   2.704
 9400TIP3    H128145   2.046   1.305   2.728
 9400TIP3    H228146   2.169   1.267   2.649
 9401TIP3   OH228147   3.451   5.540   6.135
 9401TIP3    H128148   3.474   5.447   6.134
 9401TIP3    H228149   3.447   5.562   6.228
 9402TIP3   OH228150   6.995   4.788   4.086
 9402TIP3    H128151   6.955   4.845   4.152
 9402TIP3    H228152   7.042   4.722   4.137
 9403TIP3   OH228153   5.091   4.131   6.763
 9403TIP3    H128154   5.168   4.077   6.747
 9403TIP3    H228155   5.048   4.136   6.678
 9404TIP3   OH228156   1.808   4.977   5.017
 9404TIP3    H128157   1.841   5.049   4.963
 9404TIP3    H228158   1.748   5.018   5.079
 9405TIP3   OH228159   0.709   5.136   3.728
 9405TIP3    H128160   0.759   5.167   3.803
 9405TIP3    H228161   0.659   5.061   3.762
 9406TIP3   OH228162   4.112   4.872   4.403
 9406TIP3    H128163   4.114   4.783   4.438
 9406TIP3    H228164   4.188   4.877   4.345
 9407TIP3   OH228165   3.340   5.378   0.752
 9407TIP3    H128166   3.428   5.394   0.787
 9407TIP3    H228167   3.302   5.313   0.812
 9408TIP3   OH228168   0.691   4.569   5.255
 9408TIP3    H128169   0.682   4.539   5.165
 9408TIP3    H228170   0.620   4.632   5.268
 9409TIP3   OH228171   7.508   2.828   4.384
 9409TIP3    H128172   7.491   2.754   4.442
 9409TIP3    H228173   7.553   2.790   4.309
 9410TIP3   OH228174   1.503   1.355   5.594
 9410TIP3    H128175   1.532   1.420   5.658
 9410TIP3    H228176   1.429   1.397   5.549
 9411TIP3   OH228177   7.884   3.959   5.013
 9411TIP3    H128178   7.821   4.015   4.968
 9411TIP3    H228179   7.901   3.888   4.951
 9412TIP3   OH228180   8.135   3.167   2.458
 9412TIP3    H128181   8.062   3.119   2.497
 9412TIP3    H228182   8.159   3.232   2.524
 9413TIP3   OH228183   6.173   1.081   5.642
 9413TIP3    H128184   6.183   1.131   5.561
 9413TIP3    H228185   6.258   1.090   5.686
 9414TIP3   OH228186   1.596   3.552   1.083
 9414TIP3    H128187   1.616   3.607   1.006
 9414TIP3    H228188   1.579   3.615   1.153
 9415TIP3   OH228189   4.887   3.761   1.334
 9415TIP3    H128190   4.864   3.676   1.296
 9415TIP3    H228191   4.981   3.770   1.319
 9416TIP3   OH228192   6.966   4.513   3.119
 9416TIP3    H128193   6.948   4.527   3.212
 9416TIP3    H228194   7.059   4.491   3.115
 9417TIP3   OH228195   3.331   2.561  -0.001
 9417TIP3    H128196   3.318   2.477  -0.047
 9417TIP3    H228197   3.281   2.552   0.080
 9418TIP3   OH228198   1.500   6.854   1.275
 9418TIP3    H128199   1.500   6.915   1.348
 9418TIP3    H228200   1.443   6.782   1.303
 9419TIP3   OH228201   6.531   5.175   0.763
 9419TIP3    H128202   6.528   5.155   0.670
 9419TIP3    H228203   6.543   5.269   0.767
 9420TIP3   OH228204   6.646   7.372   5.495
 9420TIP3    H128205   6.562   7.328   5.486
 9420TIP3    H228206   6.634   7.431   5.570
 9421TIP3   OH228207   2.640   6.956   2.552
 9421TIP3    H128208   2.595   6.970   2.469
 9421TIP3    H228209   2.603   7.023   2.610
 9422TIP3   OH228210   6.540   3.745   6.349
 9422TIP3    H128211   6.486   3.670   6.323
 9422TIP3    H228212   6.477   3.814   6.369
 9423TIP3   OH228213   7.214   6.046   0.762
 9423TIP3    H128214   7.277   6.112   0.790
 9423TIP3    H228215   7.209   5.985   0.835
 9424TIP3   OH228216   2.778   2.316   2.665
 9424TIP3    H128217   2.870   2.338   2.681
 9424TIP3    H228218   2.766   2.331   2.571
 9425TIP3   OH228219   2.434   0.352   5.634
 9425TIP3    H128220   2.356   0.403   5.612
 9425TIP3    H228221   2.400   0.267   5.661
 9426TIP3   OH228222   7.821   7.624   3.899
 9426TIP3    H128223   7.786   7.545   3.940
 9426TIP3    H228224   7.912   7.602   3.880
 9427TIP3   OH228225   6.460   5.468   6.025
 9427TIP3    H128226   6.473   5.444   6.117
 9427TIP3    H228227   6.366   5.457   6.011
 9428TIP3   OH228228   5.883   7.506   5.540
 9428TIP3    H128229   5.884   7.552   5.456
 9428TIP3    H228230   5.953   7.548   5.591
 9429TIP3   OH228231   6.239   7.406   3.955
 9429TIP3    H128232   6.225   7.501   3.948
 9429TIP3    H228233   6.210   7.372   3.870
 9430TIP3   OH228234   5.078   3.085   0.937
 9430TIP3    H128235   5.065   3.068   1.030
 9430TIP3    H228236   5.154   3.031   0.913
 9431TIP3   OH228237   0.948   2.793   4.556
 9431TIP3    H128238   0.948   2.732   4.630
 9431TIP3    H228239   0.886   2.756   4.493
 9432TIP3   OH228240   1.949   2.590   6.252
 9432TIP3    H128241   1.925   2.541   6.331
 9432TIP3    H228242   2.044   2.583   6.248
 9433TIP3   OH228243   5.924   3.540   6.459
 9433TIP3    H128244   5.902   3.449   6.437
 9433TIP3    H228245   5.876   3.557   6.539
 9434TIP3   OH228246   4.384   0.073   4.326
 9434TIP3    H128247   4.442   0.088   4.251
 9434TIP3    H228248   4.442   0.040   4.395
 9435TIP3   OH228249   1.621   7.373   3.042
 9435TIP3    H128250   1.563   7.371   2.965
 9435TIP3    H228251   1.679   7.298   3.030
 9436TIP3   OH228252   1.714   4.135   5.123
 9436TIP3    H128253   1.630   4.175   5.146
 9436TIP3    H228254   1.724   4.062   5.184
 9437TIP3   OH228255   4.840   1.350   4.382
 9437TIP3    H128256   4.829   1.432   4.334
 9437TIP3    H228257   4.888   1.293   4.323
 9438TIP3   OH228258   2.446   5.751   4.524
 9438TIP3    H128259   2.509   5.783   4.588
 9438TIP3    H228260   2.386   5.824   4.509
 9439TIP3   OH228261   0.323   3.585   4.978
 9439TIP3    H128262   0.343   3.494   4.999
 9439TIP3    H228263   0.387   3.608   4.910
 9440TIP3   OH228264   0.751   4.657   2.513
 9440TIP3    H128265   0.814   4.696   2.574
 9440TIP3    H228266   0.793   4.575   2.485
 9441TIP3   OH228267   7.629   0.678   1.672
 9441TIP3    H128268   7.695   0.682   1.742
 9441TIP3    H228269   7.569   0.749   1.692
 9442TIP3   OH228270   0.745   2.939   0.599
 9442TIP3    H128271   0.838   2.919   0.607
 9442TIP3    H228272   0.733   2.959   0.506
 9443TIP3   OH228273   4.699   5.598   1.570
 9443TIP3    H128274   4.788   5.631   1.574
 9443TIP3    H228275   4.668   5.623   1.482
 9444TIP3   OH228276   2.996   1.500   0.119
 9444TIP3    H128277   2.990   1.530   0.209
 9444TIP3    H228278   3.031   1.412   0.125
 9445TIP3   OH228279   8.083   0.894   3.223
 9445TIP3    H128280   8.019   0.909   3.293
 9445TIP3    H228281   8.083   0.977   3.174
 9446TIP3   OH228282   4.467   4.342   3.403
 9446TIP3    H128283   4.536   4.396   3.363
 9446TIP3    H228284   4.418   4.404   3.458
 9447TIP3   OH228285   1.185   2.785   5.085
 9447TIP3    H128286   1.103   2.745   5.056
 9447TIP3    H228287   1.159   2.867   5.126
 9448TIP3   OH228288   2.760   5.812   2.567
 9448TIP3    H128289   2.707   5.736   2.543
 9448TIP3    H228290   2.839   5.803   2.514
 9449TIP3   OH228291   4.355   0.308   1.443
 9449TIP3    H128292   4.375   0.358   1.364
 9449TIP3    H228293   4.407   0.228   1.436
 9450TIP3   OH228294   4.048   3.899   2.487
 9450TIP3    H128295   3.952   3.896   2.491
 9450TIP3    H228296   4.068   3.897   2.394
 9451TIP3   OH228297   0.686   7.468   0.798
 9451TIP3    H128298   0.757   7.455   0.736
 9451TIP3    H228299   0.714   7.543   0.851
 9452TIP3   OH228300   7.206   4.019   0.479
 9452TIP3    H128301   7.296   4.025   0.509
 9452TIP3    H228302   7.161   3.968   0.547
 9453TIP3   OH228303   7.534   0.264   1.825
 9453TIP3    H128304   7.566   0.254   1.914
 9453TIP3    H228305   7.460   0.203   1.818
 9454TIP3   OH228306   3.810   4.555   5.606
 9454TIP3    H128307   3.884   4.538   5.547
 9454TIP3    H228308   3.833   4.637   5.649
 9455TIP3   OH228309   6.622   0.875   3.633
 9455TIP3    H128310   6.689   0.911   3.575
 9455TIP3    H228311   6.575   0.953   3.665
 9456TIP3   OH228312   6.376   2.769   0.198
 9456TIP3    H128313   6.441   2.699   0.190
 9456TIP3    H228314   6.295   2.729   0.165
 9457TIP3   OH228315   6.908   7.032   4.144
 9457TIP3    H128316   6.938   6.957   4.093
 9457TIP3    H228317   6.940   7.016   4.233
 9458TIP3   OH228318   8.216   0.611   1.247
 9458TIP3    H128319   8.299   0.625   1.202
 9458TIP3    H228320   8.236   0.623   1.340
 9459TIP3   OH228321   0.387   1.310   4.827
 9459TIP3    H128322   0.315   1.362   4.791
 9459TIP3    H228323   0.409   1.354   4.909
 9460TIP3   OH228324   5.338   3.678   4.482
 9460TIP3    H128325   5.357   3.754   4.426
 9460TIP3    H228326   5.299   3.614   4.423
 9461TIP3   OH228327   5.637   1.562   3.503
 9461TIP3    H128328   5.670   1.557   3.593
 9461TIP3    H228329   5.548   1.596   3.512
 9462TIP3   OH228330   3.696   5.459   5.241
 9462TIP3    H128331   3.707   5.521   5.169
 9462TIP3    H228332   3.701   5.373   5.200
 9463TIP3   OH228333   4.952   2.768   6.083
 9463TIP3    H128334   4.879   2.708   6.096
 9463TIP3    H228335   4.966   2.770   5.988
 9464TIP3   OH228336   7.703   5.591   0.229
 9464TIP3    H128337   7.663   5.675   0.253
 9464TIP3    H228338   7.629   5.534   0.210
 9465TIP3   OH228339   2.874   4.945   3.652
 9465TIP3    H128340   2.950   4.940   3.710
 9465TIP3    H228341   2.911   4.941   3.564
 9466TIP3   OH228342   3.255   5.321   1.563
 9466TIP3    H128343   3.345   5.312   1.594
 9466TIP3    H228344   3.227   5.232   1.542
 9467TIP3   OH228345   1.963   5.767   2.176
 9467TIP3    H128346   1.975   5.791   2.084
 9467TIP3    H228347   1.911   5.839   2.213
 9468TIP3   OH228348   0.131   6.841   4.297
 9468TIP3    H128349   0.106   6.815   4.208
 9468TIP3    H228350   0.086   6.924   4.311
 9469TIP3   OH228351   0.811   5.006   2.267
 9469TIP3    H128352   0.791   5.099   2.265
 9469TIP3    H228353   0.905   5.002   2.248
 9470TIP3   OH228354   6.985   5.115   5.477
 9470TIP3    H128355   7.018   5.102   5.566
 9470TIP3    H228356   6.890   5.103   5.484
 9471TIP3   OH228357   3.220   2.613   6.201
 9471TIP3    H128358   3.177   2.650   6.278
 9471TIP3    H228359   3.154   2.617   6.132
 9472TIP3   OH228360   2.050   4.652   6.513
 9472TIP3    H128361   2.029   4.739   6.545
 9472TIP3    H228362   2.001   4.643   6.431
 9473TIP3   OH228363   0.630   1.202   1.541
 9473TIP3    H128364   0.697   1.218   1.475
 9473TIP3    H228365   0.676   1.207   1.625
 9474TIP3   OH228366   4.685   1.665   3.822
 9474TIP3    H128367   4.592   1.683   3.830
 9474TIP3    H228368   4.727   1.736   3.871
 9475TIP3   OH228369   5.858   3.298   0.538
 9475TIP3    H128370   5.811   3.217   0.517
 9475TIP3    H228371   5.821   3.364   0.479
 9476TIP3   OH228372   0.582   7.509   6.383
 9476TIP3    H128373   0.641   7.472   6.318
 9476TIP3    H228374   0.495   7.479   6.357
 9477TIP3   OH228375   7.700   0.102   5.039
 9477TIP3    H128376   7.610   0.076   5.016
 9477TIP3    H228377   7.752   0.076   4.963
 9478TIP3   OH228378   1.984   0.797   5.935
 9478TIP3    H128379   2.065   0.839   5.964
 9478TIP3    H228380   1.927   0.799   6.012
 9479TIP3   OH228381   6.466   1.800   3.880
 9479TIP3    H128382   6.470   1.793   3.976
 9479TIP3    H228383   6.529   1.869   3.859
 9480TIP3   OH228384   3.911   4.200   2.918
 9480TIP3    H128385   3.818   4.179   2.927
 9480TIP3    H228386   3.936   4.235   3.004
 9481TIP3   OH228387   2.354   3.857   4.633
 9481TIP3    H128388   2.326   3.793   4.698
 9481TIP3    H228389   2.442   3.882   4.661
 9482TIP3   OH228390   0.430   6.710   4.803
 9482TIP3    H128391   0.486   6.781   4.771
 9482TIP3    H228392   0.399   6.666   4.724
 9483TIP3   OH228393   1.581   0.019   2.515
 9483TIP3    H128394   1.558  -0.006   2.425
 9483TIP3    H228395   1.675   0.004   2.520
 9484TIP3   OH228396   5.791   1.764   4.815
 9484TIP3    H128397   5.850   1.695   4.844
 9484TIP3    H228398   5.848   1.835   4.786
 9485TIP3   OH228399   6.019   0.993   0.913
 9485TIP3    H128400   6.033   0.991   0.818
 9485TIP3    H228401   6.038   1.083   0.938
 9486TIP3   OH228402   1.211   1.321   5.449
 9486TIP3    H128403   1.188   1.232   5.473
 9486TIP3    H228404   1.174   1.375   5.518
 9487TIP3   OH228405   0.493   2.136   1.952
 9487TIP3    H128406   0.546   2.088   2.016
 9487TIP3    H228407   0.477   2.221   1.993
 9488TIP3   OH228408   6.118   0.756   1.152
 9488TIP3    H128409   6.167   0.692   1.204
 9488TIP3    H228410   6.039   0.773   1.202
 9489TIP3   OH228411   8.019   2.812   5.934
 9489TIP3    H128412   8.092   2.797   5.874
 9489TIP3    H228413   8.061   2.832   6.017
 9490TIP3   OH228414   7.982   4.011   4.590
 9490TIP3    H128415   8.028   4.092   4.608
 9490TIP3    H228416   7.909   4.037   4.533
 9491TIP3   OH228417   2.807   3.249   6.587
 9491TIP3    H128418   2.893   3.282   6.612
 9491TIP3    H228419   2.766   3.322   6.540
 9492TIP3   OH228420   1.166   1.617   1.881
 9492TIP3    H128421   1.259   1.597   1.892
 9492TIP3    H228422   1.141   1.659   1.963
 9493TIP3   OH228423   0.054   2.309   2.016
 9493TIP3    H128424   0.114   2.304   1.942
 9493TIP3    H228425  -0.026   2.265   1.985
 9494TIP3   OH228426   1.043   0.368   6.526
 9494TIP3    H128427   1.118   0.421   6.553
 9494TIP3    H228428   1.081   0.286   6.494
 9495TIP3   OH228429   5.193   5.403   3.669
 9495TIP3    H128430   5.152   5.478   3.713
 9495TIP3    H228431   5.285   5.427   3.662
 9496TIP3   OH228432   0.636   2.343   6.217
 9496TIP3    H128433   0.682   2.308   6.140
 9496TIP3    H228434   0.552   2.296   6.217
 9497TIP3   OH228435   3.825   4.705   5.348
 9497TIP3    H128436   3.741   4.714   5.392
 9497TIP3    H228437   3.833   4.611   5.329
 9498TIP3   OH228438   1.563   4.115   5.500
 9498TIP3    H128439   1.511   4.167   5.438
 9498TIP3    H228440   1.624   4.179   5.539
 9499TIP3   OH228441   5.929   7.209   5.234
 9499TIP3    H128442   5.837   7.213   5.209
 9499TIP3    H228443   5.943   7.118   5.260
 9500TIP3   OH228444   2.964   4.338   0.882
 9500TIP3    H128445   3.018   4.312   0.807
 9500TIP3    H228446   2.948   4.256   0.929
 9501TIP3   OH228447   0.439   6.308   4.478
 9501TIP3    H128448   0.412   6.381   4.422
 9501TIP3    H228449   0.534   6.303   4.466
 9502TIP3   OH228450   0.945   6.961   0.297
 9502TIP3    H128451   0.988   6.993   0.218
 9502TIP3    H228452   0.866   7.015   0.305
 9503TIP3   OH228453   4.855   3.468   5.000
 9503TIP3    H128454   4.861   3.484   4.905
 9503TIP3    H228455   4.769   3.428   5.011
 9504TIP3   OH228456   3.940   6.543   0.247
 9504TIP3    H128457   3.893   6.592   0.315
 9504TIP3    H228458   4.005   6.604   0.214
 9505TIP3   OH228459   0.815   2.616   4.027
 9505TIP3    H128460   0.874   2.625   3.952
 9505TIP3    H228461   0.793   2.523   4.029
 9506TIP3   OH228462   5.220   1.383   4.324
 9506TIP3    H128463   5.191   1.456   4.379
 9506TIP3    H228464   5.310   1.366   4.352
 9507TIP3   OH228465   4.480   0.806   0.839
 9507TIP3    H128466   4.559   0.751   0.843
 9507TIP3    H228467   4.446   0.805   0.929
 9508TIP3   OH228468   3.521   7.004   2.387
 9508TIP3    H128469   3.554   6.971   2.471
 9508TIP3    H228470   3.439   6.958   2.374
 9509TIP3   OH228471   3.005   2.516   6.047
 9509TIP3    H128472   2.935   2.451   6.048
 9509TIP3    H228473   3.039   2.514   5.958
 9510TIP3   OH228474   3.890   3.244   2.652
 9510TIP3    H128475   3.886   3.240   2.747
 9510TIP3    H228476   3.877   3.337   2.631
 9511TIP3   OH228477   5.398   6.408   1.676
 9511TIP3    H128478   5.394   6.320   1.714
 9511TIP3    H228479   5.362   6.465   1.744
 9512TIP3   OH228480   3.749   1.695   1.525
 9512TIP3    H128481   3.761   1.753   1.450
 9512TIP3    H228482   3.828   1.641   1.526
 9513TIP3   OH228483   7.104   4.846   6.191
 9513TIP3    H128484   7.091   4.941   6.181
 9513TIP3    H228485   7.035   4.807   6.137
 9514TIP3   OH228486   0.395   3.438   5.742
 9514TIP3    H128487   0.482   3.402   5.725
 9514TIP3    H228488   0.337   3.387   5.685
 9515TIP3   OH228489   2.063   1.819   2.718
 9515TIP3    H128490   2.031   1.748   2.663
 9515TIP3    H228491   2.074   1.780   2.805
 9516TIP3   OH228492   6.331   3.802   1.038
 9516TIP3    H128493   6.238   3.824   1.026
 9516TIP3    H228494   6.375   3.887   1.040
 9517TIP3   OH228495   3.270   3.073   0.601
 9517TIP3    H128496   3.278   2.977   0.599
 9517TIP3    H228497   3.358   3.104   0.578
 9518TIP3   OH228498   6.096   7.341   6.500
 9518TIP3    H128499   6.078   7.284   6.426
 9518TIP3    H228500   6.172   7.393   6.473
 9519TIP3   OH228501   0.176   6.624   5.750
 9519TIP3    H128502   0.153   6.686   5.681
 9519TIP3    H228503   0.263   6.591   5.726
 9520TIP3   OH228504   5.786   6.792   4.436
 9520TIP3    H128505   5.846   6.785   4.361
 9520TIP3    H228506   5.803   6.713   4.487
 9521TIP3   OH228507   7.761   4.324   3.162
 9521TIP3    H128508   7.682   4.365   3.198
 9521TIP3    H228509   7.759   4.235   3.196
 9522TIP3   OH228510   3.330   5.429   2.736
 9522TIP3    H128511   3.299   5.446   2.825
 9522TIP3    H228512   3.312   5.336   2.722
 9523TIP3   OH228513   1.439   4.673   5.944
 9523TIP3    H128514   1.356   4.634   5.916
 9523TIP3    H228515   1.506   4.620   5.899
 9524TIP3   OH228516   2.788   6.506   2.506
 9524TIP3    H128517   2.732   6.508   2.584
 9524TIP3    H228518   2.735   6.543   2.436
 9525TIP3   OH228519   2.018   0.618   4.092
 9525TIP3    H128520   2.035   0.553   4.024
 9525TIP3    H228521   2.091   0.608   4.153
 9526TIP3   OH228522   6.228   4.733   3.237
 9526TIP3    H128523   6.284   4.810   3.251
 9526TIP3    H228524   6.212   4.734   3.142
 9527TIP3   OH228525   1.759   3.700   2.447
 9527TIP3    H128526   1.702   3.696   2.370
 9527TIP3    H228527   1.795   3.612   2.455
 9528TIP3   OH228528   5.361   3.606   6.028
 9528TIP3    H128529   5.429   3.621   5.963
 9528TIP3    H228530   5.340   3.512   6.019
 9529TIP3   OH228531   2.012   0.475   1.568
 9529TIP3    H128532   1.974   0.427   1.494
 9529TIP3    H228533   2.031   0.407   1.633
 9530TIP3   OH228534   2.384   5.939   0.289
 9530TIP3    H128535   2.458   5.886   0.319
 9530TIP3    H228536   2.400   5.951   0.195
 9531TIP3   OH228537   4.829   0.644   0.579
 9531TIP3    H128538   4.795   0.731   0.556
 9531TIP3    H228539   4.920   0.660   0.604
 9532TIP3   OH228540   7.093   0.427   6.244
 9532TIP3    H128541   7.165   0.368   6.222
 9532TIP3    H228542   7.048   0.383   6.317
 9533TIP3   OH228543   7.304   0.437   2.147
 9533TIP3    H128544   7.234   0.393   2.099
 9533TIP3    H228545   7.334   0.505   2.088
 9534TIP3   OH228546   6.332   1.050   3.152
 9534TIP3    H128547   6.384   1.000   3.216
 9534TIP3    H228548   6.386   1.050   3.073
 9535TIP3   OH228549   5.499   1.963   1.457
 9535TIP3    H128550   5.566   1.905   1.421
 9535TIP3    H228551   5.485   2.029   1.389
 9536TIP3   OH228552   4.228   5.372   4.857
 9536TIP3    H128553   4.132   5.379   4.857
 9536TIP3    H228554   4.251   5.362   4.949
 9537TIP3   OH228555   8.182   1.319   5.635
 9537TIP3    H128556   8.242   1.392   5.621
 9537TIP3    H228557   8.126   1.347   5.708
 9538TIP3   OH228558   4.556   3.096   6.650
 9538TIP3    H128559   4.626   3.039   6.619
 9538TIP3    H228560   4.476   3.055   6.618
 9539TIP3   OH228561   5.289   5.140   1.279
 9539TIP3    H128562   5.263   5.231   1.292
 9539TIP3    H228563   5.208   5.096   1.254
 9540TIP3   OH228564   5.869   2.810   4.521
 9540TIP3    H128565   5.825   2.796   4.605
 9540TIP3    H228566   5.848   2.900   4.498
 9541TIP3   OH228567   4.428   0.159   5.076
 9541TIP3    H128568   4.386   0.201   5.151
 9541TIP3    H228569   4.422   0.223   5.005
 9542TIP3   OH228570   3.577   4.186   5.311
 9542TIP3    H128571   3.617   4.218   5.230
 9542TIP3    H228572   3.571   4.264   5.367
 9543TIP3   OH228573   2.378   6.603   0.761
 9543TIP3    H128574   2.288   6.585   0.787
 9543TIP3    H228575   2.371   6.643   0.675
 9544TIP3   OH228576   0.735   1.837   0.374
 9544TIP3    H128577   0.811   1.783   0.351
 9544TIP3    H228578   0.748   1.918   0.325
 9545TIP3   OH228579   3.163   5.145   0.528
 9545TIP3    H128580   3.254   5.139   0.556
 9545TIP3    H228581   3.144   5.239   0.528
 9546TIP3   OH228582   7.589   0.587   1.417
 9546TIP3    H128583   7.513   0.534   1.391
 9546TIP3    H228584   7.599   0.569   1.511
 9547TIP3   OH228585   0.865   7.302   3.738
 9547TIP3    H128586   0.880   7.381   3.790
 9547TIP3    H228587   0.793   7.325   3.679
 9548TIP3   OH228588   4.787   7.356   2.612
 9548TIP3    H128589   4.734   7.378   2.688
 9548TIP3    H228590   4.752   7.411   2.542
 9549TIP3   OH228591   0.561   6.902   6.164
 9549TIP3    H128592   0.599   6.964   6.101
 9549TIP3    H228593   0.467   6.915   6.156
 9550TIP3   OH228594   6.810   1.625   0.095
 9550TIP3    H128595   6.887   1.642   0.149
 9550TIP3    H228596   6.764   1.555   0.141
 9551TIP3   OH228597   1.200   0.386   4.003
 9551TIP3    H128598   1.281   0.389   3.952
 9551TIP3    H228599   1.158   0.471   3.988
 9552TIP3   OH228600   8.082   3.155   0.679
 9552TIP3    H128601   8.044   3.176   0.594
 9552TIP3    H228602   8.096   3.240   0.721
 9553TIP3   OH228603   4.044   2.633   6.039
 9553TIP3    H128604   3.950   2.650   6.039
 9553TIP3    H228605   4.053   2.547   6.081
 9554TIP3   OH228606   5.268   6.009   6.081
 9554TIP3    H128607   5.274   6.053   5.996
 9554TIP3    H228608   5.298   5.920   6.064
 9555TIP3   OH228609   0.913   7.639   2.386
 9555TIP3    H128610   0.827   7.657   2.425
 9555TIP3    H228611   0.894   7.600   2.301
 9556TIP3   OH228612   7.089   2.233  -0.001
 9556TIP3    H128613   7.024   2.299   0.022
 9556TIP3    H228614   7.042   2.150   0.001
 9557TIP3   OH228615   3.297   0.933   1.627
 9557TIP3    H128616   3.304   0.992   1.552
 9557TIP3    H228617   3.214   0.888   1.614
 9558TIP3   OH228618   5.417   6.108   1.669
 9558TIP3    H128619   5.404   6.014   1.684
 9558TIP3    H228620   5.491   6.112   1.608
 9559TIP3   OH228621   1.643   4.048   1.381
 9559TIP3    H128622   1.722   4.001   1.406
 9559TIP3    H228623   1.654   4.135   1.420
 9560TIP3   OH228624   6.394   1.389   1.394
 9560TIP3    H128625   6.431   1.466   1.350
 9560TIP3    H228626   6.410   1.404   1.487
 9561TIP3   OH228627   5.676   5.211   3.877
 9561TIP3    H128628   5.763   5.193   3.841
 9561TIP3    H228629   5.625   5.242   3.803
 9562TIP3   OH228630   3.647   1.747   2.728
 9562TIP3    H128631   3.665   1.761   2.821
 9562TIP3    H228632   3.703   1.673   2.704
 9563TIP3   OH228633   6.336   5.733   3.537
 9563TIP3    H128634   6.275   5.677   3.584
 9563TIP3    H228635   6.421   5.716   3.578
 9564TIP3   OH228636   0.578   6.666   1.678
 9564TIP3    H128637   0.673   6.673   1.684
 9564TIP3    H228638   0.564   6.588   1.624
 9565TIP3   OH228639   6.412   0.727   2.758
 9565TIP3    H128640   6.373   0.691   2.838
 9565TIP3    H228641   6.506   0.727   2.775
 9566TIP3   OH228642   2.372   2.096   5.315
 9566TIP3    H128643   2.408   2.071   5.230
 9566TIP3    H228644   2.433   2.058   5.379
 9567TIP3   OH228645   3.381   4.537   6.331
 9567TIP3    H128646   3.287   4.528   6.346
 9567TIP3    H228647   3.388   4.561   6.238
 9568TIP3   OH228648   7.471   2.477   6.785
 9568TIP3    H128649   7.544   2.429   6.746
 9568TIP3    H228650   7.429   2.522   6.711
 9569TIP3   OH228651   2.684   6.869   5.933
 9569TIP3    H128652   2.761   6.921   5.908
 9569TIP3    H228653   2.663   6.818   5.855
 9570TIP3   OH228654   7.607   3.604   3.723
 9570TIP3    H128655   7.533   3.661   3.743
 9570TIP3    H228656   7.575   3.516   3.741
 9571TIP3   OH228657   0.860   5.830   0.530
 9571TIP3    H128658   0.775   5.789   0.512
 9571TIP3    H228659   0.845   5.924   0.516
 9572TIP3   OH228660   5.735   0.774   1.921
 9572TIP3    H128661   5.670   0.842   1.905
 9572TIP3    H228662   5.705   0.730   2.000
 9573TIP3   OH228663   2.384   4.761   6.451
 9573TIP3    H128664   2.396   4.713   6.532
 9573TIP3    H228665   2.301   4.730   6.416
 9574TIP3   OH228666   2.377   4.355   6.287
 9574TIP3    H128667   2.335   4.383   6.205
 9574TIP3    H228668   2.311   4.371   6.354
 9575TIP3   OH228669   5.503   7.168   3.594
 9575TIP3    H128670   5.571   7.127   3.648
 9575TIP3    H228671   5.498   7.114   3.516
 9576TIP3   OH228672   5.130   7.384   2.363
 9576TIP3    H128673   5.205   7.343   2.319
 9576TIP3    H228674   5.170   7.440   2.429
 9577TIP3   OH228675   4.430   6.536   4.885
 9577TIP3    H128676   4.487   6.505   4.815
 9577TIP3    H228677   4.439   6.470   4.954
 9578TIP3   OH228678   5.406   3.826   4.095
 9578TIP3    H128679   5.431   3.861   4.009
 9578TIP3    H228680   5.312   3.842   4.101
 9579TIP3   OH228681   2.274   1.798   2.100
 9579TIP3    H128682   2.227   1.716   2.084
 9579TIP3    H228683   2.211   1.854   2.145
 9580TIP3   OH228684   3.307   5.807   0.050
 9580TIP3    H128685   3.367   5.818  -0.024
 9580TIP3    H228686   3.332   5.722   0.088
 9581TIP3   OH228687   5.524   2.444   5.062
 9581TIP3    H128688   5.582   2.404   4.997
 9581TIP3    H228689   5.497   2.526   5.022
 9582TIP3   OH228690   5.712   2.091   2.619
 9582TIP3    H128691   5.676   2.179   2.632
 9582TIP3    H228692   5.739   2.090   2.527
 9583TIP3   OH228693   8.192   6.085   1.036
 9583TIP3    H128694   8.155   6.136   0.964
 9583TIP3    H228695   8.179   5.994   1.010
 9584TIP3   OH228696   7.992   1.127   6.405
 9584TIP3    H128697   7.947   1.072   6.470
 9584TIP3    H228698   7.926   1.192   6.379
 9585TIP3   OH228699   1.105   3.763   4.263
 9585TIP3    H128700   1.025   3.719   4.235
 9585TIP3    H228701   1.176   3.710   4.226
 9586TIP3   OH228702   5.092   7.652   0.398
 9586TIP3    H128703   5.098   7.558   0.385
 9586TIP3    H228704   5.111   7.689   0.312
 9587TIP3   OH228705   3.978   7.312   1.403
 9587TIP3    H128706   3.983   7.398   1.360
 9587TIP3    H228707   3.887   7.305   1.432
 9588TIP3   OH228708   0.223   1.267   3.040
 9588TIP3    H128709   0.174   1.230   2.966
 9588TIP3    H228710   0.158   1.320   3.087
 9589TIP3   OH228711   7.941   4.635   4.014
 9589TIP3    H128712   7.979   4.674   3.935
 9589TIP3    H228713   7.960   4.542   4.006
 9590TIP3   OH228714   5.718   3.769   5.627
 9590TIP3    H128715   5.700   3.860   5.603
 9590TIP3    H228716   5.675   3.717   5.560
 9591TIP3   OH228717   1.477   0.690   6.715
 9591TIP3    H128718   1.442   0.643   6.791
 9591TIP3    H228719   1.419   0.764   6.704
 9592TIP3   OH228720   0.923   3.736   3.221
 9592TIP3    H128721   0.945   3.810   3.278
 9592TIP3    H228722   0.871   3.775   3.151
 9593TIP3   OH228723   2.658   2.911   6.204
 9593TIP3    H128724   2.725   2.863   6.156
 9593TIP3    H228725   2.680   2.896   6.296
 9594TIP3   OH228726   0.035   6.183   3.909
 9594TIP3    H128727   0.041   6.100   3.957
 9594TIP3    H228728  -0.042   6.173   3.854
 9595TIP3   OH228729   6.037   0.318   1.830
 9595TIP3    H128730   5.986   0.277   1.760
 9595TIP3    H228731   6.089   0.385   1.786
 9596TIP3   OH228732   3.623   6.226   0.053
 9596TIP3    H128733   3.655   6.137   0.043
 9596TIP3    H228734   3.530   6.216   0.073
 9597TIP3   OH228735   3.264   2.142   5.915
 9597TIP3    H128736   3.333   2.079   5.892
 9597TIP3    H228737   3.238   2.180   5.831
 9598TIP3   OH228738   2.811   3.426   0.689
 9598TIP3    H128739   2.810   3.503   0.631
 9598TIP3    H228740   2.841   3.354   0.632
 9599TIP3   OH228741   0.149   6.912   1.616
 9599TIP3    H128742   0.206   6.989   1.614
 9599TIP3    H228743   0.162   6.870   1.531
 9600TIP3   OH228744   0.220   2.971   6.000
 9600TIP3    H128745   0.196   2.906   6.066
 9600TIP3    H228746   0.242   2.919   5.923
 9601TIP3   OH228747   5.043   0.873   6.616
 9601TIP3    H128748   5.030   0.787   6.577
 9601TIP3    H228749   5.079   0.855   6.703
 9602TIP3   OH228750   0.472   4.097   6.755
 9602TIP3    H128751   0.560   4.099   6.794
 9602TIP3    H228752   0.470   4.172   6.696
 9603TIP3   OH228753   5.629   4.132   4.977
 9603TIP3    H128754   5.677   4.177   5.047
 9603TIP3    H228755   5.537   4.150   4.996
 9604TIP3   OH228756   2.155   4.004   0.904
 9604TIP3    H128757   2.082   4.054   0.868
 9604TIP3    H228758   2.210   3.983   0.828
 9605TIP3   OH228759   2.062   5.983   1.310
 9605TIP3    H128760   1.981   6.033   1.299
 9605TIP3    H228761   2.039   5.894   1.286
 9606TIP3   OH228762   2.686   2.301   0.022
 9606TIP3    H128763   2.654   2.355   0.095
 9606TIP3    H228764   2.728   2.363  -0.037
 9607TIP3   OH228765   1.848   6.050   5.409
 9607TIP3    H128766   1.919   6.114   5.402
 9607TIP3    H228767   1.893   5.967   5.424
 9608TIP3   OH228768   5.832   0.409   6.674
 9608TIP3    H128769   5.871   0.496   6.665
 9608TIP3    H228770   5.890   0.351   6.625
 9609TIP3   OH228771   2.347   1.650   2.407
 9609TIP3    H128772   2.412   1.623   2.342
 9609TIP3    H228773   2.368   1.598   2.484
 9610TIP3   OH228774   4.912   1.395   2.157
 9610TIP3    H128775   4.937   1.409   2.065
 9610TIP3    H228776   4.983   1.435   2.207
 9611TIP3   OH228777   3.904   0.274   6.189
 9611TIP3    H128778   3.981   0.240   6.234
 9611TIP3    H228779   3.862   0.331   6.254
 9612TIP3   OH228780   5.172   1.208   2.826
 9612TIP3    H128781   5.131   1.126   2.798
 9612TIP3    H228782   5.112   1.276   2.798
 9613TIP3   OH228783   4.430   4.946   1.227
 9613TIP3    H128784   4.505   4.902   1.187
 9613TIP3    H228785   4.441   5.038   1.206
 9614TIP3   OH228786   4.972   1.684   2.509
 9614TIP3    H128787   4.893   1.676   2.456
 9614TIP3    H228788   4.947   1.743   2.580
 9615TIP3   OH228789   3.263   3.613   5.595
 9615TIP3    H128790   3.334   3.633   5.656
 9615TIP3    H228791   3.261   3.688   5.535
 9616TIP3   OH228792   1.213   7.180   5.787
 9616TIP3    H128793   1.154   7.107   5.773
 9616TIP3    H228794   1.244   7.204   5.700
 9617TIP3   OH228795   0.627   3.442   3.603
 9617TIP3    H128796   0.618   3.391   3.523
 9617TIP3    H228797   0.609   3.380   3.673
 9618TIP3   OH228798   2.248   0.682   6.400
 9618TIP3    H128799   2.205   0.604   6.363
 9618TIP3    H228800   2.188   0.711   6.469
 9619TIP3   OH228801   8.316   4.263   1.200
 9619TIP3    H128802   8.338   4.313   1.279
 9619TIP3    H228803   8.228   4.293   1.177
 9620TIP3   OH228804   2.561   6.367   2.994
 9620TIP3    H128805   2.589   6.343   3.082
 9620TIP3    H228806   2.511   6.291   2.963
 9621TIP3   OH228807   2.332   0.090   1.219
 9621TIP3    H128808   2.357   0.125   1.305
 9621TIP3    H228809   2.311  -0.001   1.235
 9622TIP3   OH228810   1.809   1.231   1.320
 9622TIP3    H128811   1.758   1.298   1.365
 9622TIP3    H228812   1.853   1.183   1.390
 9623TIP3   OH228813  -0.002   2.722   6.796
 9623TIP3    H128814   0.077   2.678   6.827
 9623TIP3    H228815   0.006   2.722   6.700
 9624TIP3   OH228816   7.742   6.402   4.474
 9624TIP3    H128817   7.829   6.432   4.449
 9624TIP3    H228818   7.749   6.306   4.476
 9625TIP3   OH228819   2.709   0.394   1.419
 9625TIP3    H128820   2.738   0.482   1.397
 9625TIP3    H228821   2.765   0.336   1.367
 9626TIP3   OH228822   0.049   2.334   0.348
 9626TIP3    H128823  -0.036   2.306   0.380
 9626TIP3    H228824   0.089   2.254   0.313
 9627TIP3   OH228825   7.279   5.417   5.623
 9627TIP3    H128826   7.330   5.426   5.703
 9627TIP3    H228827   7.221   5.493   5.623
 9628TIP3   OH228828   5.951   2.781   5.012
 9628TIP3    H128829   5.977   2.867   4.979
 9628TIP3    H228830   6.020   2.757   5.074
 9629TIP3   OH228831   2.604   2.529   4.561
 9629TIP3    H128832   2.653   2.446   4.562
 9629TIP3    H228833   2.586   2.547   4.653
 9630TIP3   OH228834   7.050   3.523   2.950
 9630TIP3    H128835   7.005   3.571   3.020
 9630TIP3    H228836   7.052   3.584   2.876
 9631TIP3   OH228837   0.701   5.907   5.020
 9631TIP3    H128838   0.649   5.826   5.020
 9631TIP3    H228839   0.716   5.926   4.928
 9632TIP3   OH228840   3.827   2.605   1.004
 9632TIP3    H128841   3.922   2.610   0.989
 9632TIP3    H228842   3.793   2.561   0.926
 9633TIP3   OH228843   5.701   2.582   4.034
 9633TIP3    H128844   5.739   2.639   3.967
 9633TIP3    H228845   5.635   2.637   4.077
 9634TIP3   OH228846   0.395   2.570   5.111
 9634TIP3    H128847   0.449   2.619   5.049
 9634TIP3    H228848   0.357   2.499   5.058
 9635TIP3   OH228849   6.394   4.152   2.284
 9635TIP3    H128850   6.401   4.125   2.192
 9635TIP3    H228851   6.467   4.212   2.296
 9636TIP3   OH228852   7.353   0.281   0.086
 9636TIP3    H128853   7.415   0.314   0.020
 9636TIP3    H228854   7.394   0.302   0.170
 9637TIP3   OH228855   4.978   4.094   4.326
 9637TIP3    H128856   5.056   4.137   4.292
 9637TIP3    H228857   4.912   4.164   4.330
 9638TIP3   OH228858   5.819   7.239  -0.003
 9638TIP3    H128859   5.824   7.313   0.058
 9638TIP3    H228860   5.868   7.169   0.041
 9639TIP3   OH228861   3.494   2.408   2.450
 9639TIP3    H128862   3.580   2.436   2.418
 9639TIP3    H228863   3.512   2.331   2.504
 9640TIP3   OH228864   5.560   7.458   1.778
 9640TIP3    H128865   5.510   7.377   1.788
 9640TIP3    H228866   5.626   7.455   1.846
 9641TIP3   OH228867   2.354   3.636   0.650
 9641TIP3    H128868   2.375   3.660   0.740
 9641TIP3    H228869   2.288   3.700   0.623
 9642TIP3   OH228870   8.317   0.733   0.473
 9642TIP3    H128871   8.315   0.744   0.568
 9642TIP3    H228872   8.227   0.707   0.450
 9643TIP3   OH228873   5.893   6.137   1.140
 9643TIP3    H128874   5.873   6.170   1.053
 9643TIP3    H228875   5.989   6.139   1.145
 9644TIP3   OH228876   7.822   2.278   1.548
 9644TIP3    H128877   7.730   2.259   1.562
 9644TIP3    H228878   7.824   2.336   1.472
 9645TIP3   OH228879   0.790   7.200   1.156
 9645TIP3    H128880   0.764   7.276   1.104
 9645TIP3    H228881   0.727   7.198   1.229
 9646TIP3   OH228882   4.419   3.016   4.958
 9646TIP3    H128883   4.352   3.077   4.990
 9646TIP3    H228884   4.391   2.931   4.991
 9647TIP3   OH228885   5.407   7.056   2.769
 9647TIP3    H128886   5.443   7.141   2.795
 9647TIP3    H228887   5.329   7.078   2.719
 9648TIP3   OH228888   1.104   0.131   4.626
 9648TIP3    H128889   1.101   0.097   4.716
 9648TIP3    H228890   1.105   0.226   4.636
 9649TIP3   OH228891   5.689   5.026   6.144
 9649TIP3    H128892   5.767   4.995   6.190
 9649TIP3    H228893   5.645   5.083   6.208
 9650TIP3   OH228894   2.137   0.231   2.628
 9650TIP3    H128895   2.087   0.276   2.560
 9650TIP3    H228896   2.122   0.283   2.707
 9651TIP3   OH228897   1.988   6.541   4.234
 9651TIP3    H128898   1.925   6.478   4.201
 9651TIP3    H228899   2.005   6.600   4.160
 9652TIP3   OH228900   3.049   1.249   6.266
 9652TIP3    H128901   3.106   1.270   6.340
 9652TIP3    H228902   3.109   1.221   6.197
 9653TIP3   OH228903   3.536   4.680   3.341
 9653TIP3    H128904   3.627   4.649   3.340
 9653TIP3    H228905   3.517   4.702   3.250
 9654TIP3   OH228906   8.006   3.360   1.961
 9654TIP3    H128907   8.050   3.346   2.045
 9654TIP3    H228908   7.951   3.283   1.950
 9655TIP3   OH228909   1.267   3.655   0.157
 9655TIP3    H128910   1.205   3.594   0.117
 9655TIP3    H228911   1.329   3.676   0.087
 9656TIP3   OH228912   2.156   2.651   6.777
 9656TIP3    H128913   2.091   2.616   6.716
 9656TIP3    H228914   2.147   2.746   6.771
 9657TIP3   OH228915   4.870   4.941   1.512
 9657TIP3    H128916   4.835   4.852   1.518
 9657TIP3    H228917   4.964   4.930   1.516
 9658TIP3   OH228918   3.409   3.005   6.071
 9658TIP3    H128919   3.368   3.085   6.103
 9658TIP3    H228920   3.404   3.011   5.976
 9659TIP3   OH228921   0.878   3.191   3.073
 9659TIP3    H128922   0.868   3.168   3.166
 9659TIP3    H228923   0.825   3.271   3.063
 9660TIP3   OH228924   6.764   1.549   4.456
 9660TIP3    H128925   6.769   1.453   4.462
 9660TIP3    H228926   6.834   1.580   4.513
 9661TIP3   OH228927   1.138   1.347   4.655
 9661TIP3    H128928   1.172   1.316   4.739
 9661TIP3    H228929   1.061   1.292   4.639
 9662TIP3   OH228930   7.596   4.080   1.201
 9662TIP3    H128931   7.509   4.053   1.169
 9662TIP3    H228932   7.613   4.163   1.157
 9663TIP3   OH228933   1.186   6.863   3.675
 9663TIP3    H128934   1.103   6.901   3.702
 9663TIP3    H228935   1.180   6.771   3.703
 9664TIP3   OH228936   6.296   6.459   4.895
 9664TIP3    H128937   6.356   6.512   4.947
 9664TIP3    H228938   6.209   6.478   4.932
 9665TIP3   OH228939   7.348   4.665   4.382
 9665TIP3    H128940   7.360   4.740   4.440
 9665TIP3    H228941   7.322   4.594   4.441
 9666TIP3   OH228942   1.887   0.043   4.791
 9666TIP3    H128943   1.889  -0.053   4.789
 9666TIP3    H228944   1.888   0.069   4.699
 9667TIP3   OH228945   0.811   3.422   5.459
 9667TIP3    H128946   0.805   3.421   5.363
 9667TIP3    H228947   0.844   3.335   5.482
 9668TIP3   OH228948   8.084   3.007   1.480
 9668TIP3    H128949   8.108   2.965   1.397
 9668TIP3    H228950   8.029   3.081   1.455
 9669TIP3   OH228951   6.372   5.619   1.136
 9669TIP3    H128952   6.353   5.703   1.095
 9669TIP3    H228953   6.299   5.605   1.197
 9670TIP3   OH228954   4.783   1.614   4.614
 9670TIP3    H128955   4.778   1.580   4.703
 9670TIP3    H228956   4.856   1.566   4.574
 9671TIP3   OH228957   7.488   3.983   5.220
 9671TIP3    H128958   7.581   3.972   5.200
 9671TIP3    H228959   7.474   4.078   5.215
 9672TIP3   OH228960   0.806   0.755   2.485
 9672TIP3    H128961   0.813   0.835   2.433
 9672TIP3    H228962   0.810   0.785   2.575
 9673TIP3   OH228963   6.481   5.383   1.467
 9673TIP3    H128964   6.510   5.445   1.400
 9673TIP3    H228965   6.479   5.434   1.548
 9674TIP3   OH228966   5.254   6.569   2.045
 9674TIP3    H128967   5.278   6.611   1.962
 9674TIP3    H228968   5.318   6.498   2.055
 9675TIP3   OH228969   1.543   6.057   1.829
 9675TIP3    H128970   1.510   6.144   1.808
 9675TIP3    H228971   1.529   6.049   1.924
 9676TIP3   OH228972   3.010   4.043   3.026
 9676TIP3    H128973   2.955   4.121   3.019
 9676TIP3    H228974   2.960   3.983   3.082
 9677TIP3   OH228975   3.325   6.625   1.907
 9677TIP3    H128976   3.338   6.695   1.971
 9677TIP3    H228977   3.383   6.555   1.936
 9678TIP3   OH228978   7.445   0.368   1.587
 9678TIP3    H128979   7.502   0.318   1.645
 9678TIP3    H228980   7.382   0.410   1.645
 9679TIP3   OH228981   2.778   3.185   2.888
 9679TIP3    H128982   2.770   3.101   2.933
 9679TIP3    H228983   2.846   3.232   2.937
 9680TIP3   OH228984   3.617   6.696   6.456
 9680TIP3    H128985   3.706   6.672   6.430
 9680TIP3    H228986   3.575   6.612   6.478
 9681TIP3   OH228987   0.097   7.704   5.149
 9681TIP3    H128988   0.149   7.624   5.151
 9681TIP3    H228989   0.137   7.760   5.215
 9682TIP3   OH228990   2.534   6.568   0.179
 9682TIP3    H128991   2.504   6.483   0.146
 9682TIP3    H228992   2.590   6.602   0.109
 9683TIP3   OH228993   3.429   6.013   4.469
 9683TIP3    H128994   3.515   6.052   4.488
 9683TIP3    H228995   3.403   6.053   4.386
 9684TIP3   OH228996   5.312   3.523   0.787
 9684TIP3    H128997   5.350   3.436   0.800
 9684TIP3    H228998   5.384   3.584   0.804
 9685TIP3   OH228999   5.861   4.039   3.844
 9685TIP3    H129000   5.871   4.129   3.815
 9685TIP3    H229001   5.768   4.019   3.831
 9686TIP3   OH229002   1.613   3.527   0.623
 9686TIP3    H129003   1.665   3.568   0.554
 9686TIP3    H229004   1.646   3.565   0.704
 9687TIP3   OH229005   7.155   6.821   0.797
 9687TIP3    H129006   7.127   6.815   0.705
 9687TIP3    H229007   7.248   6.799   0.795
 9688TIP3   OH229008   1.630   7.601   3.981
 9688TIP3    H129009   1.596   7.513   3.963
 9688TIP3    H229010   1.642   7.640   3.894
 9689TIP3   OH229011   1.278   3.623   1.808
 9689TIP3    H129012   1.251   3.648   1.719
 9689TIP3    H229013   1.367   3.658   1.816
 9690TIP3   OH229014   5.973   2.491   6.106
 9690TIP3    H129015   5.986   2.396   6.110
 9690TIP3    H229016   6.061   2.528   6.108
 9691TIP3   OH229017   0.410   7.495   3.088
 9691TIP3    H129018   0.448   7.410   3.066
 9691TIP3    H229019   0.406   7.542   3.005
 9692TIP3   OH229020   4.054   2.474   2.139
 9692TIP3    H129021   4.126   2.537   2.140
 9692TIP3    H229022   3.978   2.526   2.114
 9693TIP3   OH229023   5.813   3.343   2.147
 9693TIP3    H129024   5.827   3.259   2.105
 9693TIP3    H229025   5.839   3.408   2.081
 9694TIP3   OH229026   3.485   3.014   3.828
 9694TIP3    H129027   3.550   2.978   3.767
 9694TIP3    H229028   3.476   2.947   3.896
 9695TIP3   OH229029   6.120   3.456   0.586
 9695TIP3    H129030   6.194   3.418   0.632
 9695TIP3    H229031   6.047   3.396   0.604
 9696TIP3   OH229032   2.701   3.305   5.577
 9696TIP3    H129033   2.671   3.362   5.506
 9696TIP3    H229034   2.748   3.364   5.636
 9697TIP3   OH229035   4.417   3.998   3.122
 9697TIP3    H129036   4.433   4.034   3.209
 9697TIP3    H229037   4.400   4.074   3.067
 9698TIP3   OH229038   2.418   0.324   4.552
 9698TIP3    H129039   2.389   0.240   4.587
 9698TIP3    H229040   2.475   0.360   4.619
 9699TIP3   OH229041   1.197   1.407   4.380
 9699TIP3    H129042   1.227   1.494   4.351
 9699TIP3    H229043   1.212   1.407   4.474
 9700TIP3   OH229044   2.656   6.205   4.947
 9700TIP3    H129045   2.743   6.172   4.923
 9700TIP3    H229046   2.675   6.276   5.008
 9701TIP3   OH229047   0.770   6.757   1.401
 9701TIP3    H129048   0.746   6.665   1.392
 9701TIP3    H229049   0.708   6.803   1.344
 9702TIP3   OH229050   4.499   6.573   4.157
 9702TIP3    H129051   4.572   6.545   4.212
 9702TIP3    H229052   4.438   6.500   4.157
 9703TIP3   OH229053   5.294   6.669   5.658
 9703TIP3    H129054   5.323   6.689   5.747
 9703TIP3    H229055   5.341   6.732   5.603
 9704TIP3   OH229056   0.843   4.441   3.084
 9704TIP3    H129057   0.758   4.444   3.128
 9704TIP3    H229058   0.852   4.528   3.044
 9705TIP3   OH229059   0.158   3.817   6.311
 9705TIP3    H129060   0.107   3.884   6.268
 9705TIP3    H229061   0.111   3.799   6.393
 9706TIP3   OH229062   7.443   5.933   2.572
 9706TIP3    H129063   7.384   5.949   2.498
 9706TIP3    H229064   7.418   5.846   2.603
 9707TIP3   OH229065   8.231   1.779   5.796
 9707TIP3    H129066   8.144   1.804   5.763
 9707TIP3    H229067   8.228   1.799   5.889
 9708TIP3   OH229068   6.516   4.188   3.399
 9708TIP3    H129069   6.528   4.208   3.306
 9708TIP3    H229070   6.604   4.197   3.436
 9709TIP3   OH229071   7.106   4.486   1.980
 9709TIP3    H129072   7.155   4.425   2.035
 9709TIP3    H229073   7.169   4.555   1.959
 9710TIP3   OH229074   5.753   0.698   2.735
 9710TIP3    H129075   5.717   0.737   2.656
 9710TIP3    H229076   5.713   0.747   2.807
 9711TIP3   OH229077   5.435   1.981   3.830
 9711TIP3    H129078   5.530   1.985   3.842
 9711TIP3    H229079   5.405   1.919   3.896
 9712TIP3   OH229080   7.925   2.236   0.542
 9712TIP3    H129081   7.889   2.316   0.580
 9712TIP3    H229082   7.877   2.165   0.585
 9713TIP3   OH229083   0.511   5.974   0.123
 9713TIP3    H129084   0.512   6.034   0.197
 9713TIP3    H229085   0.601   5.975   0.090
 9714TIP3   OH229086   1.891   2.393   6.443
 9714TIP3    H129087   1.843   2.350   6.514
 9714TIP3    H229088   1.880   2.334   6.368
 9715TIP3   OH229089   2.877   3.817   2.723
 9715TIP3    H129090   2.838   3.868   2.652
 9715TIP3    H229091   2.954   3.868   2.748
 9716TIP3   OH229092   0.608   7.100   1.912
 9716TIP3    H129093   0.670   7.085   1.841
 9716TIP3    H229094   0.607   7.018   1.961
 9717TIP3   OH229095   2.782   2.708   0.214
 9717TIP3    H129096   2.841   2.655   0.159
 9717TIP3    H229097   2.725   2.753   0.152
 9718TIP3   OH229098   0.420   4.006   0.365
 9718TIP3    H129099   0.419   4.000   0.460
 9718TIP3    H229100   0.355   3.942   0.336
 9719TIP3   OH229101   6.943   3.451   2.357
 9719TIP3    H129102   6.854   3.438   2.389
 9719TIP3    H229103   6.982   3.364   2.357
 9720TIP3   OH229104   3.647   6.078   1.638
 9720TIP3    H129105   3.618   6.097   1.728
 9720TIP3    H229106   3.576   6.026   1.601
 9721TIP3   OH229107   6.203   5.968   3.623
 9721TIP3    H129108   6.236   5.881   3.600
 9721TIP3    H229109   6.283   6.020   3.636
 9722TIP3   OH229110   3.277   6.839   3.747
 9722TIP3    H129111   3.247   6.804   3.663
 9722TIP3    H229112   3.297   6.762   3.800
 9723TIP3   OH229113   0.682   3.592   0.216
 9723TIP3    H129114   0.627   3.627   0.146
 9723TIP3    H229115   0.628   3.523   0.256
 9724TIP3   OH229116   1.086   7.815   0.227
 9724TIP3    H129117   1.061   7.774   0.310
 9724TIP3    H229118   1.151   7.881   0.252
 9725TIP3   OH229119   5.926   1.974   5.951
 9725TIP3    H129120   5.894   2.064   5.959
 9725TIP3    H229121   5.968   1.971   5.865
 9726TIP3   OH229122   1.232   1.142   6.678
 9726TIP3    H129123   1.248   1.199   6.603
 9726TIP3    H229124   1.217   1.056   6.640
 9727TIP3   OH229125   3.811   6.603   5.604
 9727TIP3    H129126   3.905   6.618   5.613
 9727TIP3    H229127   3.804   6.513   5.572
 9728TIP3   OH229128   3.682   5.074   4.558
 9728TIP3    H129129   3.704   4.989   4.519
 9728TIP3    H229130   3.750   5.088   4.624
 9729TIP3   OH229131   1.193   7.004   3.403
 9729TIP3    H129132   1.198   6.964   3.490
 9729TIP3    H229133   1.264   7.068   3.402
 9730TIP3   OH229134   5.795   3.350   4.543
 9730TIP3    H129135   5.770   3.385   4.457
 9730TIP3    H229136   5.890   3.345   4.539
 9731TIP3   OH229137   7.300   0.341   2.687
 9731TIP3    H129138   7.260   0.255   2.673
 9731TIP3    H229139   7.338   0.364   2.602
 9732TIP3   OH229140   4.349   1.616   2.718
 9732TIP3    H129141   4.308   1.548   2.771
 9732TIP3    H229142   4.435   1.629   2.757
 9733TIP3   OH229143   0.141   0.942   4.454
 9733TIP3    H129144   0.212   0.914   4.512
 9733TIP3    H229145   0.117   0.862   4.406
 9734TIP3   OH229146   7.308   1.469   0.163
 9734TIP3    H129147   7.387   1.415   0.153
 9734TIP3    H229148   7.254   1.446   0.088
 9735TIP3   OH229149   0.272   3.168   6.746
 9735TIP3    H129150   0.279   3.148   6.840
 9735TIP3    H229151   0.351   3.130   6.708
 9736TIP3   OH229152   8.209   3.711   2.490
 9736TIP3    H129153   8.129   3.718   2.438
 9736TIP3    H229154   8.178   3.700   2.580
 9737TIP3   OH229155   1.055   6.560   4.226
 9737TIP3    H129156   1.109   6.482   4.216
 9737TIP3    H229157   1.113   6.633   4.203
 9738TIP3   OH229158   7.158   5.497   2.874
 9738TIP3    H129159   7.130   5.561   2.808
 9738TIP3    H229160   7.124   5.532   2.956
 9739TIP3   OH229161   6.513   5.388   4.558
 9739TIP3    H129162   6.538   5.297   4.541
 9739TIP3    H229163   6.418   5.385   4.565
 9740TIP3   OH229164   7.869   7.313   3.797
 9740TIP3    H129165   7.964   7.319   3.802
 9740TIP3    H229166   7.847   7.349   3.711
 9741TIP3   OH229167   2.670   3.643   2.121
 9741TIP3    H129168   2.712   3.571   2.074
 9741TIP3    H229169   2.739   3.709   2.130
 9742TIP3   OH229170   5.609   3.587   0.504
 9742TIP3    H129171   5.655   3.522   0.451
 9742TIP3    H229172   5.517   3.563   0.498
 9743TIP3   OH229173   7.639   1.733   3.363
 9743TIP3    H129174   7.605   1.682   3.437
 9743TIP3    H229175   7.709   1.786   3.401
 9744TIP3   OH229176   1.443   5.309   2.031
 9744TIP3    H129177   1.422   5.381   2.090
 9744TIP3    H229178   1.531   5.281   2.056
 9745TIP3   OH229179   6.595   4.445   5.856
 9745TIP3    H129180   6.619   4.434   5.948
 9745TIP3    H229181   6.665   4.401   5.807
 9746TIP3   OH229182   2.045   3.378   2.280
 9746TIP3    H129183   2.082   3.360   2.194
 9746TIP3    H229184   2.094   3.322   2.340
 9747TIP3   OH229185   0.397   3.639   6.388
 9747TIP3    H129186   0.323   3.641   6.327
 9747TIP3    H229187   0.400   3.728   6.424
 9748TIP3   OH229188   3.795   1.908   4.393
 9748TIP3    H129189   3.847   1.986   4.414
 9748TIP3    H229190   3.776   1.915   4.300
 9749TIP3   OH229191   3.572   5.693   1.989
 9749TIP3    H129192   3.556   5.657   1.902
 9749TIP3    H229193   3.628   5.769   1.974
 9750TIP3   OH229194   4.942   6.462   4.177
 9750TIP3    H129195   4.934   6.427   4.265
 9750TIP3    H229196   5.019   6.518   4.180
 9751TIP3   OH229197   8.271   5.462   4.592
 9751TIP3    H129198   8.183   5.441   4.623
 9751TIP3    H229199   8.323   5.384   4.611
 9752TIP3   OH229200   5.600   1.321   5.730
 9752TIP3    H129201   5.684   1.368   5.732
 9752TIP3    H229202   5.619   1.242   5.679
 9753TIP3   OH229203   7.488   2.861   5.495
 9753TIP3    H129204   7.471   2.885   5.404
 9753TIP3    H229205   7.540   2.933   5.530
 9754TIP3   OH229206   1.754   6.451   3.140
 9754TIP3    H129207   1.791   6.410   3.061
 9754TIP3    H229208   1.665   6.417   3.145
 9755TIP3   OH229209   3.171   0.479   6.482
 9755TIP3    H129210   3.114   0.544   6.522
 9755TIP3    H229211   3.196   0.421   6.554
 9756TIP3   OH229212   3.787   3.052   1.141
 9756TIP3    H129213   3.876   3.034   1.171
 9756TIP3    H229214   3.777   2.998   1.063
 9757TIP3   OH229215   5.544   7.107   4.858
 9757TIP3    H129216   5.467   7.159   4.884
 9757TIP3    H229217   5.525   7.019   4.889
 9758TIP3   OH229218   6.223   4.366   0.979
 9758TIP3    H129219   6.174   4.404   0.905
 9758TIP3    H229220   6.315   4.377   0.954
 9759TIP3   OH229221   6.574   0.033   4.582
 9759TIP3    H129222   6.623   0.019   4.500
 9759TIP3    H229223   6.534  -0.051   4.601
 9760TIP3   OH229224   1.887   5.868   3.390
 9760TIP3    H129225   1.951   5.939   3.401
 9760TIP3    H229226   1.856   5.851   3.479
 9761TIP3   OH229227   0.750   0.317   3.282
 9761TIP3    H129228   0.676   0.340   3.338
 9761TIP3    H229229   0.713   0.310   3.194
 9762TIP3   OH229230   1.899   7.167   1.849
 9762TIP3    H129231   1.843   7.237   1.881
 9762TIP3    H229232   1.987   7.204   1.849
 9763TIP3   OH229233   4.894   1.267   2.561
 9763TIP3    H129234   4.905   1.180   2.522
 9763TIP3    H229235   4.801   1.270   2.585
 9764TIP3   OH229236   5.628   2.532   3.441
 9764TIP3    H129237   5.678   2.533   3.359
 9764TIP3    H229238   5.678   2.589   3.500
 9765TIP3   OH229239   7.040   2.639   3.736
 9765TIP3    H129240   7.096   2.617   3.811
 9765TIP3    H229241   7.079   2.720   3.701
 9766TIP3   OH229242   6.789   5.521   2.382
 9766TIP3    H129243   6.818   5.549   2.295
 9766TIP3    H229244   6.841   5.443   2.400
 9767TIP3   OH229245   3.844   7.209   5.454
 9767TIP3    H129246   3.907   7.263   5.503
 9767TIP3    H229247   3.896   7.138   5.418
 9768TIP3   OH229248   1.627   4.561   3.202
 9768TIP3    H129249   1.583   4.498   3.259
 9768TIP3    H229250   1.557   4.605   3.155
 9769TIP3   OH229251   5.364   4.002   2.197
 9769TIP3    H129252   5.417   3.948   2.139
 9769TIP3    H229253   5.391   3.976   2.285
 9770TIP3   OH229254   5.377   4.376   2.296
 9770TIP3    H129255   5.457   4.355   2.248
 9770TIP3    H229256   5.375   4.472   2.297
 9771TIP3   OH229257   6.093   1.055   3.814
 9771TIP3    H129258   6.068   1.022   3.728
 9771TIP3    H229259   6.154   0.990   3.848
 9772TIP3   OH229260   5.229   6.892   5.427
 9772TIP3    H129261   5.306   6.913   5.480
 9772TIP3    H229262   5.206   6.974   5.384
 9773TIP3   OH229263   0.954   6.892   0.775
 9773TIP3    H129264   0.914   6.975   0.751
 9773TIP3    H229265   1.010   6.870   0.700
 9774TIP3   OH229266   3.322   0.319   1.546
 9774TIP3    H129267   3.365   0.349   1.626
 9774TIP3    H229268   3.229   0.337   1.560
 9775TIP3   OH229269   2.649   0.498   4.683
 9775TIP3    H129270   2.730   0.548   4.679
 9775TIP3    H229271   2.590   0.551   4.737
 9776TIP3   OH229272   3.291   6.012   4.695
 9776TIP3    H129273   3.330   6.020   4.608
 9776TIP3    H229274   3.214   5.957   4.682
 9777TIP3   OH229275   0.222   2.016   4.148
 9777TIP3    H129276   0.200   2.065   4.227
 9777TIP3    H229277   0.144   1.963   4.130
 9778TIP3   OH229278   3.052   2.363   2.743
 9778TIP3    H129279   3.070   2.456   2.732
 9778TIP3    H229280   3.126   2.319   2.701
 9779TIP3   OH229281   8.108   7.230   1.849
 9779TIP3    H129282   8.124   7.178   1.928
 9779TIP3    H229283   8.170   7.303   1.855
 9780TIP3   OH229284   5.659   0.680   0.402
 9780TIP3    H129285   5.668   0.584   0.398
 9780TIP3    H229286   5.745   0.711   0.430
 9781TIP3   OH229287   4.094   3.791   4.203
 9781TIP3    H129288   3.998   3.797   4.209
 9781TIP3    H229289   4.125   3.875   4.237
 9782TIP3   OH229290   6.755   0.182   4.865
 9782TIP3    H129291   6.754   0.090   4.893
 9782TIP3    H229292   6.665   0.201   4.842
 9783TIP3   OH229293   3.502   6.125   3.463
 9783TIP3    H129294   3.476   6.039   3.429
 9783TIP3    H229295   3.546   6.106   3.545
 9784TIP3   OH229296   5.290   2.350   1.408
 9784TIP3    H129297   5.241   2.388   1.480
 9784TIP3    H229298   5.263   2.399   1.331
 9785TIP3   OH229299   6.301   1.622   0.048
 9785TIP3    H129300   6.323   1.691  -0.015
 9785TIP3    H229301   6.235   1.569   0.004
 9786TIP3   OH229302   3.533   0.566   6.220
 9786TIP3    H129303   3.548   0.482   6.177
 9786TIP3    H229304   3.454   0.600   6.180
 9787TIP3   OH229305   5.787   2.103   6.215
 9787TIP3    H129306   5.739   2.084   6.134
 9787TIP3    H229307   5.768   2.029   6.272
 9788TIP3   OH229308   6.542   5.777   3.955
 9788TIP3    H129309   6.608   5.838   3.920
 9788TIP3    H229310   6.475   5.834   3.993
 9789TIP3   OH229311   5.767   4.742   3.768
 9789TIP3    H129312   5.734   4.802   3.834
 9789TIP3    H229313   5.819   4.798   3.709
 9790TIP3   OH229314   1.006   1.778   2.778
 9790TIP3    H129315   1.038   1.862   2.745
 9790TIP3    H229316   0.943   1.748   2.712
 9791TIP3   OH229317   0.984   4.248   0.337
 9791TIP3    H129318   0.933   4.306   0.394
 9791TIP3    H229319   0.921   4.218   0.271
 9792TIP3   OH229320   1.390   2.754   6.150
 9792TIP3    H129321   1.479   2.727   6.130
 9792TIP3    H229322   1.341   2.673   6.161
 9793TIP3   OH229323   1.992   4.997   0.982
 9793TIP3    H129324   2.010   4.904   0.989
 9793TIP3    H229325   1.986   5.014   0.888
 9794TIP3   OH229326   4.472   3.756   1.264
 9794TIP3    H129327   4.474   3.845   1.299
 9794TIP3    H229328   4.499   3.765   1.173
 9795TIP3   OH229329   6.800   0.935   4.846
 9795TIP3    H129330   6.810   0.840   4.842
 9795TIP3    H229331   6.748   0.950   4.926
 9796TIP3   OH229332   2.640   1.929   6.694
 9796TIP3    H129333   2.599   1.843   6.691
 9796TIP3    H229334   2.707   1.926   6.625
 9797TIP3   OH229335   6.255   6.151   4.510
 9797TIP3    H129336   6.297   6.083   4.563
 9797TIP3    H229337   6.320   6.221   4.505
 9798TIP3   OH229338   0.516   2.484   1.222
 9798TIP3    H129339   0.540   2.431   1.298
 9798TIP3    H229340   0.439   2.533   1.251
 9799TIP3   OH229341   0.965   7.529   3.854
 9799TIP3    H129342   0.888   7.582   3.832
 9799TIP3    H229343   0.988   7.556   3.943
 9800TIP3   OH229344   2.753   6.295   1.578
 9800TIP3    H129345   2.780   6.204   1.586
 9800TIP3    H229346   2.817   6.334   1.519
 9801TIP3   OH229347   5.342   4.480   1.317
 9801TIP3    H129348   5.362   4.390   1.342
 9801TIP3    H229349   5.416   4.508   1.264
 9802TIP3   OH229350   6.107   3.295   0.326
 9802TIP3    H129351   6.112   3.321   0.418
 9802TIP3    H229352   6.170   3.223   0.318
 9803TIP3   OH229353   0.591   1.621   0.243
 9803TIP3    H129354   0.644   1.667   0.308
 9803TIP3    H229355   0.549   1.550   0.291
 9804TIP3   OH229356   4.925   2.884   1.582
 9804TIP3    H129357   5.010   2.889   1.538
 9804TIP3    H229358   4.904   2.975   1.604
 9805TIP3   OH229359   3.535   3.649   4.111
 9805TIP3    H129360   3.555   3.615   4.023
 9805TIP3    H229361   3.440   3.655   4.114
 9806TIP3   OH229362   5.365   1.794   4.955
 9806TIP3    H129363   5.292   1.745   4.917
 9806TIP3    H229364   5.419   1.819   4.880
 9807TIP3   OH229365   4.387   4.764   4.173
 9807TIP3    H129366   4.478   4.773   4.144
 9807TIP3    H229367   4.368   4.670   4.165
 9808TIP3   OH229368   4.073   1.970   2.129
 9808TIP3    H129369   4.168   1.969   2.143
 9808TIP3    H229370   4.048   2.062   2.141
 9809TIP3   OH229371   0.734   6.275   2.504
 9809TIP3    H129372   0.663   6.308   2.559
 9809TIP3    H229373   0.715   6.182   2.494
 9810TIP3   OH229374   1.528   1.970   5.530
 9810TIP3    H129375   1.594   2.039   5.541
 9810TIP3    H229376   1.571   1.891   5.561
 9811TIP3   OH229377   0.047   1.556   6.314
 9811TIP3    H129378   0.095   1.577   6.394
 9811TIP3    H229379  -0.006   1.480   6.337
 9812TIP3   OH229380   6.871   2.790   0.803
 9812TIP3    H129381   6.838   2.735   0.732
 9812TIP3    H229382   6.795   2.806   0.859
 9813TIP3   OH229383   5.723   5.584   0.908
 9813TIP3    H129384   5.802   5.529   0.911
 9813TIP3    H229385   5.652   5.525   0.932
 9814TIP3   OH229386   3.080   3.901   4.873
 9814TIP3    H129387   3.139   3.863   4.808
 9814TIP3    H229388   3.059   3.988   4.838
 9815TIP3   OH229389   7.814   6.291   6.434
 9815TIP3    H129390   7.794   6.206   6.472
 9815TIP3    H229391   7.833   6.274   6.342
 9816TIP3   OH229392   3.949   1.389   5.753
 9816TIP3    H129393   3.911   1.361   5.836
 9816TIP3    H229394   3.877   1.380   5.690
 9817TIP3   OH229395   5.716   6.273   5.115
 9817TIP3    H129396   5.811   6.262   5.114
 9817TIP3    H229397   5.684   6.205   5.056
 9818TIP3   OH229398   5.158   4.577   3.618
 9818TIP3    H129399   5.219   4.585   3.691
 9818TIP3    H229400   5.211   4.542   3.546
 9819TIP3   OH229401   8.083   5.312   1.273
 9819TIP3    H129402   7.997   5.330   1.310
 9819TIP3    H229403   8.137   5.386   1.301
 9820TIP3   OH229404   3.858   2.497   3.826
 9820TIP3    H129405   3.829   2.588   3.818
 9820TIP3    H229406   3.861   2.481   3.920
 9821TIP3   OH229407   1.245   2.928   4.261
 9821TIP3    H129408   1.239   2.836   4.236
 9821TIP3    H229409   1.329   2.935   4.306
 9822TIP3   OH229410   1.647   2.671   5.769
 9822TIP3    H129411   1.585   2.635   5.832
 9822TIP3    H229412   1.650   2.606   5.698
 9823TIP3   OH229413   7.888   5.877   6.729
 9823TIP3    H129414   7.876   5.893   6.823
 9823TIP3    H229415   7.825   5.808   6.709
 9824TIP3   OH229416   7.641   2.061   5.053
 9824TIP3    H129417   7.672   2.010   4.978
 9824TIP3    H229418   7.698   2.139   5.053
 9825TIP3   OH229419   5.332   5.957   1.423
 9825TIP3    H129420   5.365   6.002   1.345
 9825TIP3    H229421   5.241   5.936   1.402
 9826TIP3   OH229422   5.791   5.661   5.932
 9826TIP3    H129423   5.806   5.715   5.854
 9826TIP3    H229424   5.797   5.721   6.005
 9827TIP3   OH229425   2.773   5.266   5.452
 9827TIP3    H129426   2.718   5.236   5.381
 9827TIP3    H229427   2.729   5.236   5.531
 9828TIP3   OH229428   1.414   7.031   1.059
 9828TIP3    H129429   1.448   7.000   0.975
 9828TIP3    H229430   1.442   6.965   1.122
 9829TIP3   OH229431   2.493   0.032   0.817
 9829TIP3    H129432   2.476   0.083   0.738
 9829TIP3    H229433   2.459   0.085   0.889
 9830TIP3   OH229434   0.452   2.980   2.031
 9830TIP3    H129435   0.357   2.965   2.037
 9830TIP3    H229436   0.463   3.030   1.950
 9831TIP3   OH229437   3.862   3.262   6.591
 9831TIP3    H129438   3.855   3.334   6.528
 9831TIP3    H229439   3.773   3.251   6.624
 9832TIP3   OH229440   5.083   7.124   0.798
 9832TIP3    H129441   5.109   7.119   0.890
 9832TIP3    H229442   5.156   7.088   0.750
 9833TIP3   OH229443   4.024   1.405   0.119
 9833TIP3    H129444   4.012   1.410   0.213
 9833TIP3    H229445   3.940   1.373   0.085
 9834TIP3   OH229446   7.681   2.017   1.728
 9834TIP3    H129447   7.661   1.956   1.799
 9834TIP3    H229448   7.773   2.002   1.707
 9835TIP3   OH229449   5.163   0.537   2.645
 9835TIP3    H129450   5.149   0.580   2.729
 9835TIP3    H229451   5.124   0.450   2.657
 9836TIP3   OH229452   0.577   6.915   1.567
 9836TIP3    H129453   0.576   6.823   1.593
 9836TIP3    H229454   0.652   6.953   1.614
 9837TIP3   OH229455   0.779   5.414   0.615
 9837TIP3    H129456   0.744   5.366   0.690
 9837TIP3    H229457   0.709   5.476   0.592
 9838TIP3   OH229458   4.162   1.890   5.529
 9838TIP3    H129459   4.249   1.878   5.492
 9838TIP3    H229460   4.159   1.830   5.604
 9839TIP3   OH229461   5.735   4.983   0.891
 9839TIP3    H129462   5.684   4.972   0.811
 9839TIP3    H229463   5.714   4.906   0.944
 9840TIP3   OH229464   8.216   5.258   0.021
 9840TIP3    H129465   8.123   5.278   0.021
 9840TIP3    H229466   8.257   5.331   0.067
 9841TIP3   OH229467   3.575   2.989   1.338
 9841TIP3    H129468   3.528   3.070   1.357
 9841TIP3    H229469   3.649   3.015   1.284
 9842TIP3   OH229470   3.630   1.849   6.117
 9842TIP3    H129471   3.714   1.809   6.094
 9842TIP3    H229472   3.645   1.943   6.108
 9843TIP3   OH229473   0.551   5.800   0.869
 9843TIP3    H129474   0.545   5.836   0.957
 9843TIP3    H229475   0.597   5.866   0.818
 9844TIP3   OH229476   4.050   5.862   5.863
 9844TIP3    H129477   3.976   5.913   5.830
 9844TIP3    H229478   4.038   5.775   5.826
 9845TIP3   OH229479   4.539   7.051   5.339
 9845TIP3    H129480   4.555   6.958   5.325
 9845TIP3    H229481   4.446   7.063   5.320
 9846TIP3   OH229482   2.754   1.730   4.095
 9846TIP3    H129483   2.784   1.642   4.116
 9846TIP3    H229484   2.688   1.718   4.027
 9847TIP3   OH229485   3.821   5.336   6.355
 9847TIP3    H129486   3.826   5.266   6.291
 9847TIP3    H229487   3.735   5.325   6.396
 9848TIP3   OH229488   6.907   2.528   4.327
 9848TIP3    H129489   6.938   2.604   4.279
 9848TIP3    H229490   6.970   2.459   4.304
 9849TIP3   OH229491   7.766   0.494   6.155
 9849TIP3    H129492   7.715   0.550   6.096
 9849TIP3    H229493   7.853   0.533   6.155
 9850TIP3   OH229494   2.489   1.108   0.308
 9850TIP3    H129495   2.415   1.056   0.277
 9850TIP3    H229496   2.479   1.110   0.403
 9851TIP3   OH229497   7.276   4.834   5.122
 9851TIP3    H129498   7.276   4.842   5.218
 9851TIP3    H229499   7.227   4.753   5.105
 9852TIP3   OH229500   4.813   5.122   0.052
 9852TIP3    H129501   4.751   5.090   0.117
 9852TIP3    H229502   4.767   5.191   0.005
 9853TIP3   OH229503   2.314   2.572   2.006
 9853TIP3    H129504   2.231   2.583   2.052
 9853TIP3    H229505   2.374   2.633   2.050
 9854TIP3   OH229506   1.297   4.015   5.046
 9854TIP3    H129507   1.239   4.046   5.116
 9854TIP3    H229508   1.244   3.954   4.996
 9855TIP3   OH229509   5.457   2.572   2.649
 9855TIP3    H129510   5.391   2.581   2.717
 9855TIP3    H229511   5.409   2.585   2.567
 9856TIP3   OH229512   2.037   4.929   6.215
 9856TIP3    H129513   1.963   4.878   6.247
 9856TIP3    H229514   2.031   5.012   6.263
 9857TIP3   OH229515   1.742   6.914   6.753
 9857TIP3    H129516   1.827   6.873   6.737
 9857TIP3    H229517   1.756   6.969   6.830
 9858TIP3   OH229518   3.281   3.260   0.340
 9858TIP3    H129519   3.197   3.219   0.358
 9858TIP3    H229520   3.340   3.187   0.322
 9859TIP3   OH229521   7.126   0.456   6.687
 9859TIP3    H129522   7.044   0.461   6.638
 9859TIP3    H229523   7.188   0.509   6.636
 9860TIP3   OH229524   3.646   3.958   3.272
 9860TIP3    H129525   3.565   3.982   3.317
 9860TIP3    H229526   3.663   3.868   3.300
 9861TIP3   OH229527   1.954   4.396   0.019
 9861TIP3    H129528   1.900   4.455   0.071
 9861TIP3    H229529   2.041   4.435   0.021
 9862TIP3   OH229530   4.768   0.285   4.091
 9862TIP3    H129531   4.730   0.366   4.060
 9862TIP3    H229532   4.817   0.309   4.170
 9863TIP3   OH229533   4.471   2.429   1.077
 9863TIP3    H129534   4.403   2.363   1.065
 9863TIP3    H229535   4.503   2.447   0.988
 9864TIP3   OH229536   5.857   2.880   2.267
 9864TIP3    H129537   5.887   2.811   2.326
 9864TIP3    H229538   5.887   2.852   2.180
 9865TIP3   OH229539   1.885   5.722   6.067
 9865TIP3    H129540   1.955   5.680   6.016
 9865TIP3    H229541   1.822   5.652   6.084
 9866TIP3   OH229542   5.657   4.374   1.391
 9866TIP3    H129543   5.738   4.413   1.424
 9866TIP3    H229544   5.614   4.339   1.469
 9867TIP3   OH229545   2.778   3.453   1.937
 9867TIP3    H129546   2.818   3.378   1.980
 9867TIP3    H229547   2.727   3.415   1.865
 9868TIP3   OH229548   0.822   7.466   2.198
 9868TIP3    H129549   0.786   7.476   2.110
 9868TIP3    H229550   0.822   7.372   2.214
 9869TIP3   OH229551   1.311   2.807   3.581
 9869TIP3    H129552   1.367   2.730   3.572
 9869TIP3    H229553   1.275   2.821   3.494
 9870TIP3   OH229554   2.114   6.062   3.376
 9870TIP3    H129555   2.055   6.108   3.436
 9870TIP3    H229556   2.202   6.083   3.409
 9871TIP3   OH229557   3.823   2.376   4.374
 9871TIP3    H129558   3.737   2.360   4.414
 9871TIP3    H229559   3.847   2.293   4.334
 9872TIP3   OH229560   7.624   0.555   0.868
 9872TIP3    H129561   7.633   0.466   0.902
 9872TIP3    H229562   7.705   0.599   0.893
 9873TIP3   OH229563   2.057   0.301   1.772
 9873TIP3    H129564   2.125   0.332   1.832
 9873TIP3    H229565   2.073   0.207   1.764
 9874TIP3   OH229566   4.038   2.874   3.991
 9874TIP3    H129567   4.080   2.834   4.067
 9874TIP3    H229568   4.080   2.832   3.916
 9875TIP3   OH229569   5.563   2.834   2.652
 9875TIP3    H129570   5.490   2.777   2.627
 9875TIP3    H229571   5.589   2.875   2.570
 9876TIP3   OH229572   1.687   4.349   0.653
 9876TIP3    H129573   1.753   4.400   0.606
 9876TIP3    H229574   1.726   4.262   0.663
 9877TIP3   OH229575   7.703   3.627   2.946
 9877TIP3    H129576   7.642   3.589   3.010
 9877TIP3    H229577   7.788   3.627   2.992
 9878TIP3   OH229578   0.276   6.181   2.209
 9878TIP3    H129579   0.223   6.213   2.282
 9878TIP3    H229580   0.312   6.098   2.240
 9879TIP3   OH229581   6.852   0.754   5.311
 9879TIP3    H129582   6.840   0.734   5.404
 9879TIP3    H229583   6.946   0.763   5.301
 9880TIP3   OH229584   2.311   4.287   4.892
 9880TIP3    H129585   2.249   4.321   4.827
 9880TIP3    H229586   2.281   4.198   4.908
 9881TIP3   OH229587   7.480   5.653   6.039
 9881TIP3    H129588   7.556   5.708   6.061
 9881TIP3    H229589   7.405   5.704   6.069
 9882TIP3   OH229590   7.602   3.516   3.184
 9882TIP3    H129591   7.645   3.493   3.267
 9882TIP3    H229592   7.529   3.454   3.178
 9883TIP3   OH229593   0.666   4.751   3.245
 9883TIP3    H129594   0.723   4.828   3.239
 9883TIP3    H229595   0.631   4.753   3.334
 9884TIP3   OH229596   8.197   1.509   1.861
 9884TIP3    H129597   8.132   1.444   1.886
 9884TIP3    H229598   8.276   1.458   1.843
 9885TIP3   OH229599   3.210   0.395   0.766
 9885TIP3    H129600   3.247   0.449   0.697
 9885TIP3    H229601   3.134   0.353   0.725
 9886TIP3   OH229602   3.902   3.216   1.510
 9886TIP3    H129603   3.945   3.179   1.432
 9886TIP3    H229604   3.974   3.234   1.570
 9887TIP3   OH229605   7.913   2.101   4.166
 9887TIP3    H129606   7.827   2.084   4.126
 9887TIP3    H229607   7.892   2.150   4.246
 9888TIP3   OH229608   7.980   0.475   5.182
 9888TIP3    H129609   7.970   0.381   5.195
 9888TIP3    H229610   8.025   0.506   5.260
 9889TIP3   OH229611   0.264   6.155   5.129
 9889TIP3    H129612   0.356   6.150   5.103
 9889TIP3    H229613   0.226   6.219   5.068
 9890TIP3   OH229614   5.476   0.205   1.189
 9890TIP3    H129615   5.419   0.279   1.213
 9890TIP3    H229616   5.428   0.128   1.217
 9891TIP3   OH229617   3.753   7.703   6.249
 9891TIP3    H129618   3.782   7.643   6.181
 9891TIP3    H229619   3.658   7.706   6.239
 9892TIP3   OH229620   5.910   5.049   2.710
 9892TIP3    H129621   5.922   5.013   2.797
 9892TIP3    H229622   5.936   4.978   2.651
 9893TIP3   OH229623   4.118   4.726   0.767
 9893TIP3    H129624   4.066   4.664   0.716
 9893TIP3    H229625   4.053   4.783   0.809
 9894TIP3   OH229626   2.933   1.321   5.180
 9894TIP3    H129627   2.981   1.277   5.251
 9894TIP3    H229628   3.001   1.364   5.128
 9895TIP3   OH229629   3.429   0.784   0.569
 9895TIP3    H129630   3.384   0.838   0.504
 9895TIP3    H229631   3.500   0.742   0.521
 9896TIP3   OH229632   3.371   7.294   3.792
 9896TIP3    H129633   3.406   7.342   3.867
 9896TIP3    H229634   3.435   7.310   3.722
 9897TIP3   OH229635   6.256   6.939   5.062
 9897TIP3    H129636   6.256   6.915   4.969
 9897TIP3    H229637   6.315   7.014   5.068
 9898TIP3   OH229638   0.094   3.404   4.749
 9898TIP3    H129639   0.086   3.499   4.753
 9898TIP3    H229640   0.025   3.376   4.689
 9899TIP3   OH229641   7.734   6.730   6.356
 9899TIP3    H129642   7.825   6.759   6.351
 9899TIP3    H229643   7.683   6.811   6.349
 9900TIP3   OH229644   1.671   1.936   5.018
 9900TIP3    H129645   1.584   1.969   5.044
 9900TIP3    H229646   1.732   2.002   5.051
 9901TIP3   OH229647   0.141   7.220   2.385
 9901TIP3    H129648   0.089   7.174   2.319
 9901TIP3    H229649   0.186   7.150   2.433
 9902TIP3   OH229650   6.745   6.183   3.554
 9902TIP3    H129651   6.798   6.244   3.503
 9902TIP3    H229652   6.663   6.231   3.571
 9903TIP3   OH229653   7.600   0.337   6.324
 9903TIP3    H129654   7.657   0.410   6.302
 9903TIP3    H229655   7.583   0.294   6.240
 9904TIP3   OH229656   5.562   2.341   3.977
 9904TIP3    H129657   5.630   2.402   4.006
 9904TIP3    H229658   5.609   2.274   3.927
 9905TIP3   OH229659   7.119   5.967   4.033
 9905TIP3    H129660   7.151   6.044   3.987
 9905TIP3    H229661   7.035   5.994   4.069
 9906TIP3   OH229662   8.188   6.845   2.816
 9906TIP3    H129663   8.192   6.816   2.907
 9906TIP3    H229664   8.126   6.785   2.774
 9907TIP3   OH229665   1.797   4.661   3.861
 9907TIP3    H129666   1.815   4.644   3.768
 9907TIP3    H229667   1.765   4.578   3.895
 9908TIP3   OH229668   4.333   6.677   5.539
 9908TIP3    H129669   4.346   6.638   5.453
 9908TIP3    H229670   4.244   6.652   5.564
 9909TIP3   OH229671   1.258   1.784   0.052
 9909TIP3    H129672   1.245   1.765  -0.041
 9909TIP3    H229673   1.228   1.705   0.097
 9910TIP3   OH229674   2.943   4.555   4.992
 9910TIP3    H129675   2.974   4.573   4.903
 9910TIP3    H229676   2.883   4.626   5.012
 9911TIP3   OH229677   0.104   3.553   6.245
 9911TIP3    H129678   0.073   3.568   6.155
 9911TIP3    H229679   0.151   3.633   6.268
 9912TIP3   OH229680   4.669   5.542   6.756
 9912TIP3    H129681   4.746   5.566   6.809
 9912TIP3    H229682   4.670   5.604   6.683
 9913TIP3   OH229683   6.864   7.622   2.446
 9913TIP3    H129684   6.830   7.557   2.385
 9913TIP3    H229685   6.813   7.701   2.428
 9914TIP3   OH229686   5.679   3.356   3.380
 9914TIP3    H129687   5.725   3.309   3.310
 9914TIP3    H229688   5.660   3.442   3.343
 9915TIP3   OH229689   7.994   6.605   6.178
 9915TIP3    H129690   8.054   6.671   6.212
 9915TIP3    H229691   8.025   6.589   6.089
 9916TIP3   OH229692   5.350   1.524   4.759
 9916TIP3    H129693   5.322   1.437   4.731
 9916TIP3    H229694   5.441   1.529   4.732
 9917TIP3   OH229695   5.858   2.970   4.151
 9917TIP3    H129696   5.937   2.941   4.197
 9917TIP3    H229697   5.855   2.915   4.072
 9918TIP3   OH229698   0.184   4.489   2.090
 9918TIP3    H129699   0.225   4.410   2.125
 9918TIP3    H229700   0.148   4.533   2.167
 9919TIP3   OH229701   3.770   5.892   0.254
 9919TIP3    H129702   3.762   5.957   0.323
 9919TIP3    H229703   3.755   5.808   0.298
 9920TIP3   OH229704   5.522   7.546   5.030
 9920TIP3    H129705   5.490   7.458   5.050
 9920TIP3    H229706   5.446   7.603   5.040
 9921TIP3   OH229707   1.941   1.456   5.306
 9921TIP3    H129708   1.904   1.454   5.394
 9921TIP3    H229709   1.951   1.549   5.287
 9922TIP3   OH229710   6.226   5.689   0.183
 9922TIP3    H129711   6.247   5.617   0.125
 9922TIP3    H229712   6.292   5.685   0.252
 9923TIP3   OH229713   0.179   3.719   2.773
 9923TIP3    H129714   0.170   3.807   2.809
 9923TIP3    H229715   0.264   3.720   2.729
 9924TIP3   OH229716   7.760   6.889   2.889
 9924TIP3    H129717   7.808   6.968   2.861
 9924TIP3    H229718   7.717   6.858   2.809
 9925TIP3   OH229719   1.124   3.461   4.886
 9925TIP3    H129720   1.087   3.378   4.858
 9925TIP3    H229721   1.147   3.448   4.978
 9926TIP3   OH229722   2.628   1.757   4.756
 9926TIP3    H129723   2.638   1.741   4.662
 9926TIP3    H229724   2.553   1.703   4.781
 9927TIP3   OH229725   5.101   5.836   3.445
 9927TIP3    H129726   5.152   5.882   3.378
 9927TIP3    H229727   5.104   5.894   3.521
 9928TIP3   OH229728   2.670   7.114   3.707
 9928TIP3    H129729   2.668   7.195   3.655
 9928TIP3    H229730   2.722   7.137   3.784
 9929TIP3   OH229731   6.793   2.145   4.433
 9929TIP3    H129732   6.803   2.065   4.485
 9929TIP3    H229733   6.805   2.117   4.342
 9930TIP3   OH229734   8.159   5.529   1.810
 9930TIP3    H129735   8.243   5.489   1.834
 9930TIP3    H229736   8.135   5.488   1.727
 9931TIP3   OH229737   0.470   6.570   5.768
 9931TIP3    H129738   0.525   6.493   5.780
 9931TIP3    H229739   0.528   6.644   5.787
 9932TIP3   OH229740   3.127   6.013   0.080
 9932TIP3    H129741   3.056   5.986   0.138
 9932TIP3    H229742   3.178   5.934   0.065
 9933TIP3   OH229743   7.967   3.739   1.575
 9933TIP3    H129744   7.926   3.820   1.545
 9933TIP3    H229745   8.028   3.767   1.644
 9934TIP3   OH229746   3.881   4.897   0.709
 9934TIP3    H129747   3.814   4.830   0.723
 9934TIP3    H229748   3.848   4.974   0.754
 9935TIP3   OH229749   0.651   1.191   6.238
 9935TIP3    H129750   0.698   1.208   6.156
 9935TIP3    H229751   0.559   1.184   6.211
 9936TIP3   OH229752   8.271   6.196   5.398
 9936TIP3    H129753   8.204   6.182   5.331
 9936TIP3    H229754   8.256   6.286   5.429
 9937TIP3   OH229755   1.267   6.449   3.573
 9937TIP3    H129756   1.209   6.401   3.513
 9937TIP3    H229757   1.354   6.438   3.536
 9938TIP3   OH229758   3.565   2.526   3.603
 9938TIP3    H129759   3.585   2.549   3.694
 9938TIP3    H229760   3.518   2.602   3.569
 9939TIP3   OH229761   7.347   3.994   3.663
 9939TIP3    H129762   7.269   4.014   3.714
 9939TIP3    H229763   7.347   3.898   3.655
 9940TIP3   OH229764   6.251   1.639   4.928
 9940TIP3    H129765   6.171   1.603   4.968
 9940TIP3    H229766   6.252   1.730   4.956
 9941TIP3   OH229767   1.874   1.328   5.658
 9941TIP3    H129768   1.868   1.389   5.731
 9941TIP3    H229769   1.892   1.243   5.698
 9942TIP3   OH229770   4.866   5.774   0.292
 9942TIP3    H129771   4.903   5.760   0.205
 9942TIP3    H229772   4.784   5.724   0.291
 9943TIP3   OH229773   1.794   1.165   3.538
 9943TIP3    H129774   1.732   1.198   3.603
 9943TIP3    H229775   1.842   1.242   3.509
 9944TIP3   OH229776   3.703   1.128   4.875
 9944TIP3    H129777   3.795   1.104   4.871
 9944TIP3    H229778   3.702   1.223   4.858
 9945TIP3   OH229779   0.267   0.424   4.812
 9945TIP3    H129780   0.323   0.489   4.770
 9945TIP3    H229781   0.304   0.340   4.785
 9946TIP3   OH229782   6.293   1.698   2.528
 9946TIP3    H129783   6.308   1.759   2.456
 9946TIP3    H229784   6.379   1.662   2.548
 9947TIP3   OH229785   5.806   0.588   2.312
 9947TIP3    H129786   5.880   0.637   2.275
 9947TIP3    H229787   5.738   0.594   2.246
 9948TIP3   OH229788   7.708   2.086   0.732
 9948TIP3    H129789   7.666   2.004   0.707
 9948TIP3    H229790   7.720   2.079   0.826
 9949TIP3   OH229791   3.559   3.790   3.576
 9949TIP3    H129792   3.617   3.769   3.502
 9949TIP3    H229793   3.566   3.885   3.586
 9950TIP3   OH229794   5.817   2.928   3.340
 9950TIP3    H129795   5.813   2.964   3.428
 9950TIP3    H229796   5.736   2.957   3.298
 9951TIP3   OH229797   8.224   4.006   4.426
 9951TIP3    H129798   8.163   4.004   4.499
 9951TIP3    H229799   8.288   4.073   4.450
 9952TIP3   OH229800   3.037   3.385   4.146
 9952TIP3    H129801   3.086   3.303   4.137
 9952TIP3    H229802   2.990   3.375   4.229
 9953TIP3   OH229803   2.728   5.569   0.436
 9953TIP3    H129804   2.738   5.476   0.455
 9953TIP3    H229805   2.808   5.609   0.469
 9954TIP3   OH229806   1.125   0.776   1.037
 9954TIP3    H129807   1.212   0.815   1.045
 9954TIP3    H229808   1.125   0.736   0.951
 9955TIP3   OH229809   3.112   1.605   6.633
 9955TIP3    H129810   3.151   1.602   6.721
 9955TIP3    H229811   3.028   1.649   6.646
 9956TIP3   OH229812   0.160   2.046   3.384
 9956TIP3    H129813   0.086   1.987   3.391
 9956TIP3    H229814   0.123   2.128   3.351
 9957TIP3   OH229815   3.212   3.566   0.237
 9957TIP3    H129816   3.206   3.655   0.274
 9957TIP3    H229817   3.123   3.546   0.209
 9958TIP3   OH229818   6.318   2.377   5.484
 9958TIP3    H129819   6.309   2.430   5.563
 9958TIP3    H229820   6.264   2.422   5.419
 9959TIP3   OH229821   7.892   1.133   3.601
 9959TIP3    H129822   7.915   1.141   3.694
 9959TIP3    H229823   7.813   1.186   3.591
 9960TIP3   OH229824   5.406   5.547   4.957
 9960TIP3    H129825   5.399   5.468   4.903
 9960TIP3    H229826   5.463   5.521   5.029
 9961TIP3   OH229827   7.770   1.914   6.016
 9961TIP3    H129828   7.726   1.999   6.021
 9961TIP3    H229829   7.850   1.925   6.067
 9962TIP3   OH229830   7.551   1.255   1.651
 9962TIP3    H129831   7.508   1.225   1.571
 9962TIP3    H229832   7.487   1.241   1.720
 9963TIP3   OH229833   2.712   5.129   5.664
 9963TIP3    H129834   2.735   5.159   5.752
 9963TIP3    H229835   2.774   5.058   5.647
 9964TIP3   OH229836   4.104   0.129   0.081
 9964TIP3    H129837   4.179   0.185   0.097
 9964TIP3    H229838   4.052   0.135   0.161
 9965TIP3   OH229839   4.154   0.212   5.895
 9965TIP3    H129840   4.072   0.175   5.928
 9965TIP3    H229841   4.153   0.195   5.801
 9966TIP3   OH229842   3.894   5.768   2.478
 9966TIP3    H129843   3.878   5.784   2.385
 9966TIP3    H229844   3.826   5.706   2.504
 9967TIP3   OH229845   7.989   3.017   4.363
 9967TIP3    H129846   7.962   3.087   4.423
 9967TIP3    H229847   8.069   3.051   4.322
 9968TIP3   OH229848   5.817   7.584   0.727
 9968TIP3    H129849   5.785   7.649   0.790
 9968TIP3    H229850   5.884   7.536   0.776
 9969TIP3   OH229851   8.123   0.324   2.767
 9969TIP3    H129852   8.082   0.309   2.852
 9969TIP3    H229853   8.105   0.244   2.717
 9970TIP3   OH229854   2.496   0.195   5.218
 9970TIP3    H129855   2.415   0.196   5.268
 9970TIP3    H229856   2.531   0.107   5.229
 9971TIP3   OH229857   1.316   1.671   1.255
 9971TIP3    H129858   1.285   1.680   1.346
 9971TIP3    H229859   1.395   1.724   1.251
 9972TIP3   OH229860   1.217   1.705   1.515
 9972TIP3    H129861   1.239   1.760   1.590
 9972TIP3    H229862   1.123   1.717   1.502
 9973TIP3   OH229863   5.286   7.470   2.581
 9973TIP3    H129864   5.367   7.420   2.572
 9973TIP3    H229865   5.307   7.556   2.546
 9974TIP3   OH229866   8.087   2.040   4.789
 9974TIP3    H129867   7.996   2.016   4.775
 9974TIP3    H229868   8.128   1.960   4.822
 9975TIP3   OH229869   0.753   1.312   6.525
 9975TIP3    H129870   0.713   1.274   6.447
 9975TIP3    H229871   0.720   1.402   6.528
 9976TIP3   OH229872   6.489   3.544   4.587
 9976TIP3    H129873   6.544   3.488   4.532
 9976TIP3    H229874   6.546   3.616   4.613
 9977TIP3   OH229875   3.292   4.317   3.674
 9977TIP3    H129876   3.367   4.371   3.648
 9977TIP3    H229877   3.329   4.250   3.732
 9978TIP3   OH229878   6.409   0.723   5.684
 9978TIP3    H129879   6.472   0.705   5.754
 9978TIP3    H229880   6.431   0.660   5.615
 9979TIP3   OH229881   0.015   6.040   1.948
 9979TIP3    H129882   0.109   6.029   1.933
 9979TIP3    H229883  -0.020   5.951   1.948
 9980TIP3   OH229884   2.448   7.275   3.138
 9980TIP3    H129885   2.356   7.252   3.129
 9980TIP3    H229886   2.455   7.363   3.100
 9981TIP3   OH229887   1.542   1.506   4.681
 9981TIP3    H129888   1.630   1.499   4.718
 9981TIP3    H229889   1.537   1.595   4.647
 9982TIP3   OH229890   4.750   1.510   2.358
 9982TIP3    H129891   4.749   1.475   2.447
 9982TIP3    H229892   4.780   1.437   2.304
 9983TIP3   OH229893   1.140   2.875   2.361
 9983TIP3    H129894   1.173   2.787   2.346
 9983TIP3    H229895   1.073   2.865   2.429
 9984TIP3   OH229896   2.127   7.312   3.452
 9984TIP3    H129897   2.167   7.399   3.451
 9984TIP3    H229898   2.144   7.276   3.365
 9985TIP3   OH229899   8.099   6.933   0.038
 9985TIP3    H129900   8.087   6.925  -0.056
 9985TIP3    H229901   8.075   6.847   0.073
 9986TIP3   OH229902   4.546   3.469   5.545
 9986TIP3    H129903   4.636   3.466   5.576
 9986TIP3    H229904   4.497   3.510   5.616
 9987TIP3   OH229905   4.632   5.246   1.315
 9987TIP3    H129906   4.540   5.270   1.306
 9987TIP3    H229907   4.676   5.327   1.341
 9988TIP3   OH229908   0.913   0.634   5.370
 9988TIP3    H129909   0.916   0.678   5.456
 9988TIP3    H229910   0.836   0.578   5.375
 9989TIP3   OH229911   6.579   2.345   1.155
 9989TIP3    H129912   6.531   2.356   1.073
 9989TIP3    H229913   6.520   2.379   1.222
 9990TIP3   OH229914   7.148   3.283   0.087
 9990TIP3    H129915   7.179   3.206   0.135
 9990TIP3    H229916   7.054   3.268   0.078
 9991TIP3   OH229917   3.486   0.694   0.191
 9991TIP3    H129918   3.578   0.683   0.166
 9991TIP3    H229919   3.438   0.633   0.136
 9992TIP3   OH229920   5.718   6.512   4.953
 9992TIP3    H129921   5.737   6.420   4.973
 9992TIP3    H229922   5.762   6.528   4.870
 9993TIP3   OH229923   7.081   4.012   3.796
 9993TIP3    H129924   7.092   3.988   3.888
 9993TIP3    H229925   7.041   4.099   3.799
 9994TIP3   OH229926   3.125   3.046   2.099
 9994TIP3    H129927   3.131   3.023   2.192
 9994TIP3    H229928   3.210   3.019   2.063
 9995TIP3   OH229929   0.307   1.931   0.889
 9995TIP3    H129930   0.322   1.875   0.813
 9995TIP3    H229931   0.220   1.908   0.920
 9996TIP3   OH229932   3.109   2.535   5.795
 9996TIP3    H129933   3.192   2.489   5.779
 9996TIP3    H229934   3.079   2.561   5.708
 9997TIP3   OH229935   5.193   3.283   2.276
 9997TIP3    H129936   5.215   3.368   2.316
 9997TIP3    H229937   5.135   3.242   2.340
 9998TIP3   OH229938   5.877   0.618   1.706
 9998TIP3    H129939   5.882   0.704   1.664
 9998TIP3    H229940   5.791   0.617   1.748
 9999TIP3   OH229941   5.230   6.193   6.498
 9999TIP3    H129942   5.201   6.188   6.589
 9999TIP3    H229943   5.151   6.216   6.449
10000TIP3   OH229944   3.402   2.132   0.672
10000TIP3    H129945   3.461   2.109   0.600
10000TIP3    H229946   3.447   2.204   0.717
10001TIP3   OH229947   1.105   0.670   2.994
10001TIP3    H129948   1.186   0.623   2.974
10001TIP3    H229949   1.089   0.725   2.918
10002TIP3   OH229950   1.913   1.410   5.918
10002TIP3    H129951   1.835   1.381   5.965
10002TIP3    H229952   1.981   1.346   5.941
10003TIP3   OH229953   4.901   1.877   3.721
10003TIP3    H129954   4.873   1.824   3.795
10003TIP3    H229955   4.942   1.954   3.760
10004TIP3   OH229956   5.977   5.280   3.005
10004TIP3    H129957   6.011   5.301   2.918
10004TIP3    H229958   5.883   5.298   2.998
10005TIP3   OH229959   7.397   1.925   1.935
10005TIP3    H129960   7.334   1.853   1.939
10005TIP3    H229961   7.434   1.928   2.023
10006TIP3   OH229962   1.611   4.367   5.568
10006TIP3    H129963   1.592   4.424   5.493
10006TIP3    H229964   1.636   4.427   5.638
10007TIP3   OH229965   6.004   4.162   6.574
10007TIP3    H129966   6.036   4.101   6.640
10007TIP3    H229967   5.912   4.139   6.562
10008TIP3   OH229968   4.476   6.737   2.063
10008TIP3    H129969   4.491   6.734   1.969
10008TIP3    H229970   4.525   6.813   2.093
10009TIP3   OH229971   6.738   2.110   4.890
10009TIP3    H129972   6.742   2.132   4.983
10009TIP3    H229973   6.676   2.037   4.886
10010TIP3   OH229974   6.449   4.675   0.843
10010TIP3    H129975   6.433   4.660   0.936
10010TIP3    H229976   6.468   4.589   0.807
10011TIP3   OH229977   3.364   7.057   0.269
10011TIP3    H129978   3.286   7.004   0.251
10011TIP3    H229979   3.431   7.021   0.210
10012TIP3   OH229980   3.185   3.440   3.267
10012TIP3    H129981   3.146   3.429   3.354
10012TIP3    H229982   3.211   3.532   3.264
10013TIP3   OH229983   7.301   7.521   2.613
10013TIP3    H129984   7.216   7.476   2.621
10013TIP3    H229985   7.302   7.582   2.686
10014TIP3   OH229986   3.735   7.178   5.083
10014TIP3    H129987   3.799   7.213   5.145
10014TIP3    H229988   3.788   7.151   5.007
10015TIP3   OH229989   0.799   3.707   4.415
10015TIP3    H129990   0.810   3.741   4.504
10015TIP3    H229991   0.882   3.662   4.397
10016TIP3   OH229992   7.029   2.768   1.081
10016TIP3    H129993   6.968   2.738   1.014
10016TIP3    H229994   6.999   2.725   1.162
10017TIP3   OH229995   5.946   5.680   2.855
10017TIP3    H129996   6.039   5.701   2.848
10017TIP3    H229997   5.934   5.658   2.948
10018TIP3   OH229998   7.225   3.510   5.457
10018TIP3    H129999   7.314   3.477   5.444
10018TIP3    H230000   7.230   3.603   5.436
10019TIP3   OH230001   1.977   7.185   2.749
10019TIP3    H130002   2.066   7.160   2.726
10019TIP3    H230003   1.922   7.138   2.687
10020TIP3   OH230004   6.837   4.469   1.880
10020TIP3    H130005   6.854   4.379   1.850
10020TIP3    H230006   6.921   4.499   1.913
10021TIP3   OH230007   5.426   6.367   2.042
10021TIP3    H130008   5.371   6.300   2.001
10021TIP3    H230009   5.510   6.360   1.996
10022TIP3   OH230010   3.718   3.421   2.413
10022TIP3    H130011   3.779   3.347   2.414
10022TIP3    H230012   3.714   3.450   2.504
10023TIP3   OH230013   8.020   5.778   4.254
10023TIP3    H130014   8.043   5.857   4.303
10023TIP3    H230015   8.104   5.740   4.229
10024TIP3   OH230016   2.276   3.524   4.679
10024TIP3    H130017   2.194   3.571   4.696
10024TIP3    H230018   2.282   3.459   4.748
10025TIP3   OH230019   5.531   1.528   3.256
10025TIP3    H130020   5.484   1.611   3.252
10025TIP3    H230021   5.582   1.533   3.337
10026TIP3   OH230022   3.059   4.541   3.067
10026TIP3    H130023   3.068   4.630   3.099
10026TIP3    H230024   3.132   4.493   3.107
10027TIP3   OH230025   7.626   3.355   4.939
10027TIP3    H130026   7.616   3.437   4.988
10027TIP3    H230027   7.635   3.288   5.007
10028TIP3   OH230028   5.407   1.176   0.655
10028TIP3    H130029   5.416   1.265   0.622
10028TIP3    H230030   5.417   1.121   0.578
10029TIP3   OH230031   3.505   0.644   6.479
10029TIP3    H130032   3.521   0.631   6.385
10029TIP3    H230033   3.410   0.651   6.487
10030TIP3   OH230034   1.103   6.640   2.708
10030TIP3    H130035   1.183   6.593   2.685
10030TIP3    H230036   1.129   6.700   2.777
10031TIP3   OH230037   3.833   6.355   5.510
10031TIP3    H130038   3.864   6.266   5.528
10031TIP3    H230039   3.892   6.387   5.442
10032TIP3   OH230040   5.211   6.987   5.851
10032TIP3    H130041   5.295   6.944   5.835
10032TIP3    H230042   5.162   6.925   5.905
10033TIP3   OH230043   8.184   2.643   0.314
10033TIP3    H130044   8.216   2.730   0.338
10033TIP3    H230045   8.164   2.601   0.398
10034TIP3   OH230046   2.010   6.506   1.244
10034TIP3    H130047   1.934   6.461   1.282
10034TIP3    H230048   2.004   6.596   1.276
10035TIP3   OH230049   1.114   7.286   6.363
10035TIP3    H130050   1.068   7.351   6.416
10035TIP3    H230051   1.170   7.338   6.305
10036TIP3   OH230052   1.479   1.098   5.683
10036TIP3    H130053   1.564   1.061   5.662
10036TIP3    H230054   1.490   1.193   5.675
10037TIP3   OH230055   6.282   7.739   1.292
10037TIP3    H130056   6.361   7.753   1.240
10037TIP3    H230057   6.288   7.648   1.321
10038TIP3   OH230058   2.934   0.071   3.509
10038TIP3    H130059   2.957  -0.001   3.567
10038TIP3    H230060   2.854   0.041   3.465
10039TIP3   OH230061   8.047   7.375   4.082
10039TIP3    H130062   8.071   7.451   4.029
10039TIP3    H230063   8.048   7.406   4.172
10040TIP3   OH230064   6.593   5.914   0.250
10040TIP3    H130065   6.660   5.851   0.225
10040TIP3    H230066   6.640   5.982   0.298
10041TIP3   OH230067   2.583   5.263   3.022
10041TIP3    H130068   2.569   5.210   3.100
10041TIP3    H230069   2.585   5.199   2.950
10042TIP3   OH230070   7.091   1.000   4.903
10042TIP3    H130071   7.082   0.918   4.952
10042TIP3    H230072   7.010   1.007   4.853
10043TIP3   OH230073   7.256   5.114   5.031
10043TIP3    H130074   7.196   5.168   5.082
10043TIP3    H230075   7.251   5.027   5.070
10044TIP3   OH230076   4.742   7.533   1.486
10044TIP3    H130077   4.653   7.555   1.515
10044TIP3    H230078   4.797   7.553   1.562
10045TIP3   OH230079   0.476   5.758   3.802
10045TIP3    H130080   0.452   5.756   3.894
10045TIP3    H230081   0.568   5.732   3.800
10046TIP3   OH230082   1.986  -0.003   0.135
10046TIP3    H130083   2.077  -0.027   0.153
10046TIP3    H230084   1.992   0.081   0.091
10047TIP3   OH230085   5.633   1.423   4.926
10047TIP3    H130086   5.635   1.516   4.946
10047TIP3    H230087   5.726   1.397   4.928
10048TIP3   OH230088   2.137   7.522   5.363
10048TIP3    H130089   2.196   7.595   5.382
10048TIP3    H230090   2.063   7.563   5.318
10049TIP3   OH230091   3.714   5.415   1.611
10049TIP3    H130092   3.776   5.478   1.576
10049TIP3    H230093   3.691   5.359   1.536
10050TIP3   OH230094   1.059   3.208   4.302
10050TIP3    H130095   1.119   3.157   4.356
10050TIP3    H230096   1.038   3.285   4.354
10051TIP3   OH230097   2.684   7.841   5.781
10051TIP3    H130098   2.774   7.830   5.752
10051TIP3    H230099   2.633   7.786   5.722
10052TIP3   OH230100   4.674   0.547   1.188
10052TIP3    H130101   4.697   0.525   1.278
10052TIP3    H230102   4.753   0.587   1.151
10053TIP3   OH230103   4.669   6.479   5.534
10053TIP3    H130104   4.606   6.550   5.539
10053TIP3    H230105   4.748   6.515   5.575
10054TIP3   OH230106   0.959   1.434   6.052
10054TIP3    H130107   0.877   1.408   6.010
10054TIP3    H230108   0.992   1.506   5.998
10055TIP3   OH230109   1.857   1.185   4.278
10055TIP3    H130110   1.873   1.095   4.304
10055TIP3    H230111   1.762   1.192   4.271
10056TIP3   OH230112   8.052   7.390   5.104
10056TIP3    H130113   8.146   7.390   5.120
10056TIP3    H230114   8.013   7.397   5.191
10057TIP3   OH230115   4.704   6.888   3.964
10057TIP3    H130116   4.628   6.941   3.987
10057TIP3    H230117   4.668   6.803   3.938
10058TIP3   OH230118   5.073   4.389   1.100
10058TIP3    H130119   5.139   4.336   1.056
10058TIP3    H230120   5.104   4.479   1.092
10059TIP3   OH230121   0.545   1.622   2.428
10059TIP3    H130122   0.593   1.683   2.485
10059TIP3    H230123   0.603   1.547   2.418
10060TIP3   OH230124   7.339   5.059   1.573
10060TIP3    H130125   7.399   5.127   1.604
10060TIP3    H230126   7.396   4.993   1.533
10061TIP3   OH230127   3.385   5.106   0.314
10061TIP3    H130128   3.389   5.124   0.408
10061TIP3    H230129   3.454   5.042   0.299
10062TIP3   OH230130   1.022   1.888   1.530
10062TIP3    H130131   0.971   1.852   1.457
10062TIP3    H230132   1.089   1.941   1.488
10063TIP3   OH230133   7.783   4.962   4.126
10063TIP3    H130134   7.688   4.963   4.138
10063TIP3    H230135   7.810   4.876   4.157
10064TIP3   OH230136   4.803   6.992   1.081
10064TIP3    H130137   4.837   6.980   0.993
10064TIP3    H230138   4.745   7.068   1.075
10065TIP3   OH230139   4.727   0.050   0.757
10065TIP3    H130140   4.814   0.044   0.796
10065TIP3    H230141   4.667   0.030   0.829
10066TIP3   OH230142   2.707   3.209   2.147
10066TIP3    H130143   2.771   3.177   2.211
10066TIP3    H230144   2.664   3.283   2.191
10067TIP3   OH230145   1.991   3.829   6.089
10067TIP3    H130146   2.016   3.755   6.034
10067TIP3    H230147   2.000   3.905   6.032
10068TIP3   OH230148   1.698   4.397   3.882
10068TIP3    H130149   1.761   4.364   3.947
10068TIP3    H230150   1.616   4.355   3.905
10069TIP3   OH230151   4.885   7.774   2.262
10069TIP3    H130152   4.940   7.849   2.241
10069TIP3    H230153   4.814   7.777   2.199
10070TIP3   OH230154   2.260   1.782   1.427
10070TIP3    H130155   2.314   1.705   1.446
10070TIP3    H230156   2.290   1.847   1.491
10071TIP3   OH230157   3.134   2.856   4.215
10071TIP3    H130158   3.176   2.791   4.159
10071TIP3    H230159   3.207   2.910   4.248
10072TIP3   OH230160   5.920   3.312   5.582
10072TIP3    H130161   5.911   3.382   5.648
10072TIP3    H230162   5.860   3.244   5.612
10073TIP3   OH230163   3.533   1.130   0.536
10073TIP3    H130164   3.472   1.141   0.463
10073TIP3    H230165   3.510   1.045   0.574
10074TIP3   OH230166   0.130   4.509   5.331
10074TIP3    H130167   0.102   4.426   5.292
10074TIP3    H230168   0.225   4.504   5.331
10075TIP3   OH230169   7.709   6.379   3.218
10075TIP3    H130170   7.786   6.385   3.161
10075TIP3    H230171   7.676   6.468   3.224
10076TIP3   OH230172   2.255   0.968   2.897
10076TIP3    H130173   2.231   0.968   2.805
10076TIP3    H230174   2.227   1.053   2.930
10077TIP3   OH230175   0.570   4.725   2.330
10077TIP3    H130176   0.626   4.726   2.408
10077TIP3    H230177   0.554   4.633   2.313
10078TIP3   OH230178   5.938   5.142   5.859
10078TIP3    H130179   5.896   5.214   5.907
10078TIP3    H230180   5.887   5.064   5.883
10079TIP3   OH230181   4.813   0.541   5.374
10079TIP3    H130182   4.772   0.623   5.401
10079TIP3    H230183   4.864   0.514   5.450
10080TIP3   OH230184   1.234   7.046   6.422
10080TIP3    H130185   1.233   7.052   6.517
10080TIP3    H230186   1.194   7.128   6.392
10081TIP3   OH230187   4.200   1.278   2.672
10081TIP3    H130188   4.233   1.310   2.588
10081TIP3    H230189   4.251   1.198   2.689
10082TIP3   OH230190   4.829   0.844   4.381
10082TIP3    H130191   4.742   0.854   4.419
10082TIP3    H230192   4.868   0.931   4.384
10083TIP3   OH230193   6.434   6.807   4.481
10083TIP3    H130194   6.486   6.738   4.441
10083TIP3    H230195   6.377   6.838   4.410
10084TIP3   OH230196   3.687   6.106   1.302
10084TIP3    H130197   3.640   6.023   1.314
10084TIP3    H230198   3.631   6.157   1.244
10085TIP3   OH230199   0.216   3.267   0.325
10085TIP3    H130200   0.144   3.302   0.378
10085TIP3    H230201   0.179   3.259   0.237
10086TIP3   OH230202   3.934   5.117   0.334
10086TIP3    H130203   3.867   5.105   0.402
10086TIP3    H230204   3.902   5.066   0.260
10087TIP3   OH230205   5.800   2.086   5.027
10087TIP3    H130206   5.792   2.099   4.932
10087TIP3    H230207   5.715   2.052   5.054
10088TIP3   OH230208   7.716   2.382   4.138
10088TIP3    H130209   7.790   2.395   4.080
10088TIP3    H230210   7.685   2.471   4.158
10089TIP3   OH230211   5.244   6.105   3.587
10089TIP3    H130212   5.293   6.083   3.667
10089TIP3    H230213   5.285   6.053   3.518
10090TIP3   OH230214   1.554   0.603   4.892
10090TIP3    H130215   1.538   0.603   4.987
10090TIP3    H230216   1.514   0.521   4.862
10091TIP3   OH230217   2.258   1.410   3.929
10091TIP3    H130218   2.172   1.391   3.967
10091TIP3    H230219   2.281   1.331   3.880
10092TIP3   OH230220   3.693   4.483   0.932
10092TIP3    H130221   3.680   4.523   0.846
10092TIP3    H230222   3.678   4.389   0.916
10093TIP3   OH230223   3.992   1.449   6.067
10093TIP3    H130224   3.929   1.414   6.130
10093TIP3    H230225   4.051   1.376   6.048
10094TIP3   OH230226   7.547   4.477   3.240
10094TIP3    H130227   7.570   4.565   3.269
10094TIP3    H230228   7.502   4.438   3.315
10095TIP3   OH230229   2.689   4.410   1.675
10095TIP3    H130230   2.617   4.395   1.613
10095TIP3    H230231   2.755   4.456   1.623
10096TIP3   OH230232  -0.002   5.725   4.535
10096TIP3    H130233  -0.032   5.636   4.552
10096TIP3    H230234   0.067   5.715   4.469
10097TIP3   OH230235   6.940   7.285   3.855
10097TIP3    H130236   6.976   7.197   3.845
10097TIP3    H230237   6.995   7.325   3.923
10098TIP3   OH230238   0.865   1.282   4.023
10098TIP3    H130239   0.806   1.241   4.087
10098TIP3    H230240   0.909   1.351   4.072
10099TIP3   OH230241   6.532   0.647   0.671
10099TIP3    H130242   6.451   0.609   0.706
10099TIP3    H230243   6.602   0.603   0.720
10100TIP3   OH230244   3.162   5.580   5.658
10100TIP3    H130245   3.077   5.624   5.664
10100TIP3    H230246   3.218   5.628   5.719
10101TIP3   OH230247   4.435   4.582   1.674
10101TIP3    H130248   4.514   4.583   1.728
10101TIP3    H230249   4.436   4.667   1.629
10102TIP3   OH230250   3.420   5.518   4.570
10102TIP3    H130251   3.452   5.609   4.572
10102TIP3    H230252   3.328   5.525   4.594
10103TIP3   OH230253   7.224   4.982   4.061
10103TIP3    H130254   7.279   4.984   3.982
10103TIP3    H230255   7.150   4.928   4.037
10104TIP3   OH230256   5.091   5.635   3.780
10104TIP3    H130257   5.000   5.611   3.765
10104TIP3    H230258   5.092   5.668   3.870
10105TIP3   OH230259   1.321   4.225   6.438
10105TIP3    H130260   1.288   4.163   6.503
10105TIP3    H230261   1.396   4.266   6.479
10106TIP3   OH230262   0.858   6.902   2.629
10106TIP3    H130263   0.763   6.892   2.637
10106TIP3    H230264   0.880   6.856   2.548
10107TIP3   OH230265   7.505   1.470   6.443
10107TIP3    H130266   7.548   1.554   6.455
10107TIP3    H230267   7.510   1.427   6.528
10108TIP3   OH230268   3.805   6.193   4.525
10108TIP3    H130269   3.846   6.118   4.482
10108TIP3    H230270   3.735   6.219   4.466
10109TIP3   OH230271   3.973   5.765   4.746
10109TIP3    H130272   3.903   5.797   4.804
10109TIP3    H230273   4.035   5.722   4.805
10110TIP3   OH230274   7.505   5.640   6.424
10110TIP3    H130275   7.428   5.641   6.367
10110TIP3    H230276   7.476   5.682   6.505
10111TIP3   OH230277   6.451   7.643   0.932
10111TIP3    H130278   6.463   7.733   0.963
10111TIP3    H230279   6.382   7.650   0.866
10112TIP3   OH230280   5.708   4.562   4.885
10112TIP3    H130281   5.633   4.621   4.900
10112TIP3    H230282   5.695   4.530   4.795
10113TIP3   OH230283  -0.017   2.088   5.479
10113TIP3    H130284   0.014   2.007   5.520
10113TIP3    H230285   0.042   2.156   5.513
10114TIP3   OH230286   6.970   2.297   1.365
10114TIP3    H130287   7.011   2.276   1.449
10114TIP3    H230288   6.884   2.255   1.369
10115TIP3   OH230289   5.164   5.191   4.967
10115TIP3    H130290   5.198   5.264   5.018
10115TIP3    H230291   5.144   5.123   5.032
10116TIP3   OH230292   2.161   5.968   3.964
10116TIP3    H130293   2.129   6.057   3.949
10116TIP3    H230294   2.091   5.926   4.013
10117TIP3   OH230295   2.014   1.862   0.921
10117TIP3    H130296   2.035   1.953   0.943
10117TIP3    H230297   2.035   1.813   1.001
10118TIP3   OH230298   5.340   0.256   3.587
10118TIP3    H130299   5.425   0.290   3.561
10118TIP3    H230300   5.278   0.299   3.528
10119TIP3   OH230301   6.918   6.840   6.776
10119TIP3    H130302   7.000   6.832   6.727
10119TIP3    H230303   6.866   6.903   6.727
10120TIP3   OH230304   1.893   1.421   6.408
10120TIP3    H130305   1.896   1.490   6.343
10120TIP3    H230306   1.850   1.348   6.364
10121TIP3   OH230307   2.926   3.415   6.316
10121TIP3    H130308   3.007   3.459   6.292
10121TIP3    H230309   2.866   3.485   6.342
10122TIP3   OH230310   2.541   0.668   6.551
10122TIP3    H130311   2.447   0.679   6.563
10122TIP3    H230312   2.564   0.735   6.486
10123TIP3   OH230313   1.353   1.442   5.235
10123TIP3    H130314   1.305   1.400   5.306
10123TIP3    H230315   1.290   1.503   5.197
10124TIP3   OH230316   0.074   5.154   4.384
10124TIP3    H130317   0.012   5.081   4.388
10124TIP3    H230318   0.160   5.112   4.383
10125TIP3   OH230319   0.707   2.774   2.292
10125TIP3    H130320   0.647   2.755   2.364
10125TIP3    H230321   0.703   2.869   2.281
10126TIP3   OH230322   1.033   6.766   3.018
10126TIP3    H130323   1.128   6.763   3.005
10126TIP3    H230324   1.007   6.674   3.022
10127TIP3   OH230325   2.172   4.210  -0.025
10127TIP3    H130326   2.223   4.221   0.055
10127TIP3    H230327   2.098   4.270  -0.014
10128TIP3   OH230328   5.800   7.178   4.735
10128TIP3    H130329   5.730   7.141   4.788
10128TIP3    H230330   5.878   7.173   4.790
10129TIP3   OH230331   6.121   6.055   1.258
10129TIP3    H130332   6.096   6.135   1.304
10129TIP3    H230333   6.153   5.996   1.327
10130TIP3   OH230334   0.379   0.136   0.100
10130TIP3    H130335   0.409   0.102   0.184
10130TIP3    H230336   0.415   0.224   0.095
10131TIP3   OH230337   2.411   0.650   2.618
10131TIP3    H130338   2.332   0.653   2.564
10131TIP3    H230339   2.440   0.559   2.614
10132TIP3   OH230340   4.314   4.370   1.078
10132TIP3    H130341   4.340   4.284   1.112
10132TIP3    H230342   4.252   4.351   1.008
10133TIP3   OH230343   1.810   4.760   3.299
10133TIP3    H130344   1.888   4.710   3.324
10133TIP3    H230345   1.752   4.695   3.258
10134TIP3   OH230346   1.089   0.769   2.294
10134TIP3    H130347   1.175   0.767   2.252
10134TIP3    H230348   1.075   0.861   2.316
10135TIP3   OH230349   3.342   1.721   1.078
10135TIP3    H130350   3.378   1.810   1.083
10135TIP3    H230351   3.415   1.664   1.102
10136TIP3   OH230352   7.830   1.327   6.449
10136TIP3    H130353   7.793   1.391   6.388
10136TIP3    H230354   7.755   1.273   6.475
10137TIP3   OH230355   8.314   0.076   0.685
10137TIP3    H130356   8.267   0.000   0.650
10137TIP3    H230357   8.258   0.108   0.756
10138TIP3   OH230358   3.062   2.115   2.047
10138TIP3    H130359   3.035   2.199   2.010
10138TIP3    H230360   2.993   2.093   2.110
10139TIP3   OH230361   1.662   7.548   4.239
10139TIP3    H130362   1.659   7.562   4.145
10139TIP3    H230363   1.583   7.589   4.272
10140TIP3   OH230364   4.466   2.980   0.539
10140TIP3    H130365   4.402   3.050   0.531
10140TIP3    H230366   4.458   2.931   0.457
10141TIP3   OH230367   5.727   0.423   1.566
10141TIP3    H130368   5.804   0.463   1.604
10141TIP3    H230369   5.678   0.388   1.640
10142TIP3   OH230370   5.499   1.514   2.313
10142TIP3    H130371   5.497   1.481   2.403
10142TIP3    H230372   5.502   1.435   2.259
10143TIP3   OH230373   1.252   5.884   6.242
10143TIP3    H130374   1.289   5.826   6.176
10143TIP3    H230375   1.307   5.872   6.319
10144TIP3   OH230376   3.389   4.562   0.999
10144TIP3    H130377   3.427   4.476   1.021
10144TIP3    H230378   3.322   4.577   1.066
10145TIP3   OH230379   6.097   0.566   5.158
10145TIP3    H130380   6.164   0.630   5.135
10145TIP3    H230381   6.061   0.539   5.073
10146TIP3   OH230382   4.074   5.182   4.305
10146TIP3    H130383   4.159   5.138   4.311
10146TIP3    H230384   4.010   5.112   4.315
10147TIP3   OH230385   1.319   5.528   4.670
10147TIP3    H130386   1.370   5.448   4.661
10147TIP3    H230387   1.237   5.509   4.624
10148TIP3   OH230388   2.415   6.365   0.520
10148TIP3    H130389   2.452   6.453   0.515
10148TIP3    H230390   2.485   6.312   0.557
10149TIP3   OH230391   5.754   1.151   1.047
10149TIP3    H130392   5.676   1.097   1.055
10149TIP3    H230393   5.773   1.180   1.136
10150TIP3   OH230394   1.376   3.836   2.362
10150TIP3    H130395   1.318   3.826   2.438
10150TIP3    H230396   1.368   3.928   2.338
10151TIP3   OH230397   0.882   4.341   5.970
10151TIP3    H130398   0.914   4.258   6.005
10151TIP3    H230399   0.921   4.345   5.882
10152TIP3   OH230400   5.370   5.633   2.416
10152TIP3    H130401   5.349   5.608   2.506
10152TIP3    H230402   5.298   5.691   2.389
10153TIP3   OH230403   5.276   0.934   0.216
10153TIP3    H130404   5.325   0.869   0.166
10153TIP3    H230405   5.186   0.902   0.214
10154TIP3   OH230406   3.072   1.358   5.550
10154TIP3    H130407   3.108   1.416   5.482
10154TIP3    H230408   2.977   1.369   5.544
10155TIP3   OH230409   5.056   2.944   4.854
10155TIP3    H130410   4.985   2.944   4.790
10155TIP3    H230411   5.047   2.860   4.899
10156TIP3   OH230412   3.237   4.317   2.451
10156TIP3    H130413   3.254   4.403   2.491
10156TIP3    H230414   3.291   4.318   2.371
10157TIP3   OH230415   2.782   7.551   1.530
10157TIP3    H130416   2.798   7.466   1.490
10157TIP3    H230417   2.868   7.594   1.531
10158TIP3   OH230418   7.001   0.217   0.496
10158TIP3    H130419   6.914   0.246   0.469
10158TIP3    H230420   7.055   0.226   0.418
10159TIP3   OH230421   6.960   1.395   0.412
10159TIP3    H130422   7.051   1.370   0.427
10159TIP3    H230423   6.911   1.315   0.427
10160TIP3   OH230424   7.221   6.102   1.541
10160TIP3    H130425   7.225   6.197   1.549
10160TIP3    H230426   7.311   6.073   1.558
10161TIP3   OH230427   2.276   3.543   5.913
10161TIP3    H130428   2.189   3.578   5.893
10161TIP3    H230429   2.259   3.469   5.970
10162TIP3   OH230430   4.812   0.901   0.697
10162TIP3    H130431   4.853   0.936   0.776
10162TIP3    H230432   4.819   0.971   0.633
10163TIP3   OH230433   5.705   0.690   3.560
10163TIP3    H130434   5.677   0.739   3.483
10163TIP3    H230435   5.647   0.720   3.631
10164TIP3   OH230436   0.567   3.769   1.770
10164TIP3    H130437   0.581   3.852   1.815
10164TIP3    H230438   0.580   3.702   1.838
10165TIP3   OH230439   2.923   2.910   4.385
10165TIP3    H130440   3.004   2.889   4.339
10165TIP3    H230441   2.889   2.825   4.413
10166TIP3   OH230442   7.479   7.847   5.858
10166TIP3    H130443   7.495   7.803   5.774
10166TIP3    H230444   7.396   7.809   5.889
10167TIP3   OH230445   4.367   4.048   1.696
10167TIP3    H130446   4.357   4.102   1.775
10167TIP3    H230447   4.289   4.068   1.644
10168TIP3   OH230448   4.530   0.540   4.278
10168TIP3    H130449   4.446   0.523   4.236
10168TIP3    H230450   4.524   0.494   4.362
10169TIP3   OH230451   4.377   4.079   0.227
10169TIP3    H130452   4.357   4.074   0.320
10169TIP3    H230453   4.302   4.123   0.188
10170TIP3   OH230454   1.355   0.015   6.358
10170TIP3    H130455   1.285   0.029   6.423
10170TIP3    H230456   1.314   0.032   6.274
10171TIP3   OH230457   1.544   4.109   0.968
10171TIP3    H130458   1.449   4.106   0.959
10171TIP3    H230459   1.565   4.201   0.981
10172TIP3   OH230460   4.105   4.920   2.727
10172TIP3    H130461   4.054   4.971   2.790
10172TIP3    H230462   4.042   4.856   2.693
10173TIP3   OH230463   8.256   2.336   1.519
10173TIP3    H130464   8.193   2.403   1.548
10173TIP3    H230465   8.303   2.378   1.446
10174TIP3   OH230466   5.688   0.412   5.131
10174TIP3    H130467   5.727   0.325   5.138
10174TIP3    H230468   5.712   0.442   5.043
10175TIP3   OH230469   5.418   5.271   3.415
10175TIP3    H130470   5.412   5.321   3.496
10175TIP3    H230471   5.337   5.293   3.368
10176TIP3   OH230472   1.637   3.204   2.047
10176TIP3    H130473   1.656   3.156   2.127
10176TIP3    H230474   1.718   3.201   1.997
10177TIP3   OH230475   7.721   1.794   3.104
10177TIP3    H130476   7.683   1.881   3.091
10177TIP3    H230477   7.689   1.766   3.189
10178TIP3   OH230478   1.287   7.341   0.739
10178TIP3    H130479   1.324   7.428   0.754
10178TIP3    H230480   1.267   7.308   0.826
10179TIP3   OH230481   5.727   4.164   3.030
10179TIP3    H130482   5.713   4.123   3.115
10179TIP3    H230483   5.710   4.095   2.966
10180TIP3   OH230484   3.733   2.763   4.114
10180TIP3    H130485   3.759   2.853   4.131
10180TIP3    H230486   3.684   2.737   4.192
10181TIP3   OH230487   6.009   2.145   0.944
10181TIP3    H130488   5.940   2.211   0.936
10181TIP3    H230489   5.961   2.063   0.959
10182TIP3   OH230490   4.677   7.183   2.972
10182TIP3    H130491   4.688   7.088   2.965
10182TIP3    H230492   4.716   7.205   3.057
10183TIP3   OH230493   1.385   3.029   2.210
10183TIP3    H130494   1.410   2.948   2.166
10183TIP3    H230495   1.468   3.075   2.224
10184TIP3   OH230496   3.531   6.191   2.573
10184TIP3    H130497   3.564   6.128   2.637
10184TIP3    H230498   3.512   6.139   2.495
10185TIP3   OH230499   7.643   1.410   1.859
10185TIP3    H130500   7.605   1.347   1.920
10185TIP3    H230501   7.612   1.382   1.773
10186TIP3   OH230502   4.904   2.105   0.593
10186TIP3    H130503   4.816   2.111   0.556
10186TIP3    H230504   4.891   2.065   0.679
10187TIP3   OH230505   0.189   0.196   4.965
10187TIP3    H130506   0.271   0.221   5.008
10187TIP3    H230507   0.157   0.277   4.926
10188TIP3   OH230508   7.691   5.975   1.243
10188TIP3    H130509   7.740   5.973   1.325
10188TIP3    H230510   7.745   5.925   1.182
10189TIP3   OH230511   7.246   4.316   1.066
10189TIP3    H130512   7.315   4.375   1.034
10189TIP3    H230513   7.256   4.318   1.161
10190TIP3   OH230514   0.836   4.333   6.751
10190TIP3    H130515   0.917   4.364   6.792
10190TIP3    H230516   0.845   4.358   6.659
10191TIP3   OH230517   2.417   2.342   2.946
10191TIP3    H130518   2.506   2.335   2.913
10191TIP3    H230519   2.428   2.359   3.040
10192TIP3   OH230520   4.075   1.144   4.558
10192TIP3    H130521   4.123   1.072   4.599
10192TIP3    H230522   4.049   1.109   4.472
10193TIP3   OH230523   0.871   7.150   0.730
10193TIP3    H130524   0.813   7.182   0.799
10193TIP3    H230525   0.914   7.228   0.696
10194TIP3   OH230526   3.139   6.116   1.577
10194TIP3    H130527   3.110   6.199   1.616
10194TIP3    H230528   3.079   6.051   1.613
10195TIP3   OH230529   5.596   1.580   4.672
10195TIP3    H130530   5.668   1.594   4.733
10195TIP3    H230531   5.625   1.620   4.590
10196TIP3   OH230532   2.092   5.020   2.023
10196TIP3    H130533   2.029   4.988   2.088
10196TIP3    H230534   2.102   5.113   2.043
10197TIP3   OH230535   6.119   5.122   5.353
10197TIP3    H130536   6.212   5.100   5.348
10197TIP3    H230537   6.074   5.038   5.359
10198TIP3   OH230538   2.922   2.157   5.650
10198TIP3    H130539   2.992   2.144   5.586
10198TIP3    H230540   2.904   2.251   5.646
10199TIP3   OH230541   1.201   3.837   2.750
10199TIP3    H130542   1.268   3.855   2.816
10199TIP3    H230543   1.120   3.826   2.801
10200TIP3   OH230544   5.942   0.426   0.770
10200TIP3    H130545   5.939   0.492   0.839
10200TIP3    H230546   5.884   0.357   0.800
10201TIP3   OH230547   0.931   2.772   2.877
10201TIP3    H130548   0.912   2.847   2.821
10201TIP3    H230549   0.882   2.789   2.958
10202TIP3   OH230550   3.415   6.289   2.952
10202TIP3    H130551   3.380   6.367   2.997
10202TIP3    H230552   3.402   6.308   2.859
10203TIP3   OH230553   8.090   3.095   5.766
10203TIP3    H130554   8.019   3.141   5.813
10203TIP3    H230555   8.070   3.002   5.778
10204TIP3   OH230556   2.187   0.586   6.018
10204TIP3    H130557   2.153   0.578   5.929
10204TIP3    H230558   2.192   0.680   6.034
10205TIP3   OH230559   3.657   1.055   2.113
10205TIP3    H130560   3.722   1.006   2.163
10205TIP3    H230561   3.643   1.135   2.163
10206TIP3   OH230562   5.705   5.716   4.844
10206TIP3    H130563   5.743   5.752   4.764
10206TIP3    H230564   5.747   5.631   4.855
10207TIP3   OH230565   2.821   2.424   5.757
10207TIP3    H130566   2.903   2.441   5.803
10207TIP3    H230567   2.816   2.492   5.691
10208TIP3   OH230568   1.605   6.800   3.275
10208TIP3    H130569   1.670   6.809   3.344
10208TIP3    H230570   1.527   6.767   3.320
10209TIP3   OH230571   1.058   5.501   4.574
10209TIP3    H130572   0.989   5.526   4.512
10209TIP3    H230573   1.023   5.423   4.617
10210TIP3   OH230574   5.956   2.961   0.479
10210TIP3    H130575   5.910   2.962   0.564
10210TIP3    H230576   6.043   2.995   0.498
10211TIP3   OH230577   2.807   6.667   3.582
10211TIP3    H130578   2.763   6.749   3.605
10211TIP3    H230579   2.845   6.636   3.664
10212TIP3   OH230580   1.262   5.739   3.777
10212TIP3    H130581   1.299   5.717   3.863
10212TIP3    H230582   1.331   5.790   3.734
10213TIP3   OH230583   2.747   4.344   4.227
10213TIP3    H130584   2.652   4.333   4.222
10213TIP3    H230585   2.760   4.408   4.297
10214TIP3   OH230586   5.225   2.089   4.976
10214TIP3    H130587   5.254   2.025   5.040
10214TIP3    H230588   5.290   2.159   4.980
10215TIP3   OH230589   6.537   3.093   0.573
10215TIP3    H130590   6.506   3.003   0.582
10215TIP3    H230591   6.606   3.102   0.639
10216TIP3   OH230592   7.186   1.663   5.128
10216TIP3    H130593   7.153   1.580   5.162
10216TIP3    H230594   7.143   1.730   5.181
10217TIP3   OH230595   7.265   1.304   5.619
10217TIP3    H130596   7.229   1.391   5.603
10217TIP3    H230597   7.322   1.287   5.545
10218TIP3   OH230598   2.321   1.793   0.908
10218TIP3    H130599   2.365   1.790   0.993
10218TIP3    H230600   2.342   1.880   0.873
10219TIP3   OH230601   0.368   4.661   5.147
10219TIP3    H130602   0.398   4.598   5.212
10219TIP3    H230603   0.337   4.608   5.074
10220TIP3   OH230604   4.737   6.426   0.836
10220TIP3    H130605   4.760   6.471   0.917
10220TIP3    H230606   4.703   6.495   0.779
10221TIP3   OH230607   8.179   4.564   4.958
10221TIP3    H130608   8.228   4.627   5.010
10221TIP3    H230609   8.087   4.580   4.980
10222TIP3   OH230610   5.411   7.250   1.852
10222TIP3    H130611   5.336   7.216   1.804
10222TIP3    H230612   5.377   7.271   1.939
10223TIP3   OH230613   4.582   1.812   4.286
10223TIP3    H130614   4.528   1.806   4.365
10223TIP3    H230615   4.671   1.826   4.318
10224TIP3   OH230616   7.550   4.841   6.691
10224TIP3    H130617   7.626   4.816   6.744
10224TIP3    H230618   7.513   4.917   6.736
10225TIP3   OH230619   2.577   0.450   4.362
10225TIP3    H130620   2.602   0.528   4.411
10225TIP3    H230621   2.542   0.390   4.427
10226TIP3   OH230622   5.269   3.676   6.806
10226TIP3    H130623   5.213   3.642   6.736
10226TIP3    H230624   5.358   3.664   6.773
10227TIP3   OH230625   3.511   0.024   1.241
10227TIP3    H130626   3.438   0.005   1.300
10227TIP3    H230627   3.510   0.119   1.231
10228TIP3   OH230628   8.160   2.649   3.283
10228TIP3    H130629   8.233   2.651   3.344
10228TIP3    H230630   8.162   2.560   3.247
10229TIP3   OH230631   1.807   7.569   4.977
10229TIP3    H130632   1.853   7.557   4.894
10229TIP3    H230633   1.804   7.482   5.016
10230TIP3   OH230634   2.955   1.322   3.312
10230TIP3    H130635   2.986   1.398   3.361
10230TIP3    H230636   2.996   1.330   3.226
10231TIP3   OH230637   4.283   2.552   4.121
10231TIP3    H130638   4.261   2.521   4.033
10231TIP3    H230639   4.261   2.645   4.120
10232TIP3   OH230640   4.175   2.126   0.277
10232TIP3    H130641   4.166   2.066   0.352
10232TIP3    H230642   4.168   2.069   0.200
10233TIP3   OH230643   2.617   6.997   1.626
10233TIP3    H130644   2.614   7.048   1.546
10233TIP3    H230645   2.558   6.923   1.610
10234TIP3   OH230646   4.162   0.720   1.034
10234TIP3    H130647   4.211   0.647   0.996
10234TIP3    H230648   4.174   0.711   1.128
10235TIP3   OH230649   3.501   6.400   6.217
10235TIP3    H130650   3.584   6.415   6.173
10235TIP3    H230651   3.448   6.353   6.152
10236TIP3   OH230652   0.996   0.119   2.467
10236TIP3    H130653   0.967   0.199   2.423
10236TIP3    H230654   0.982   0.050   2.403
10237TIP3   OH230655   6.778   1.670   1.672
10237TIP3    H130656   6.818   1.693   1.588
10237TIP3    H230657   6.684   1.676   1.657
10238TIP3   OH230658   5.195   7.252   3.454
10238TIP3    H130659   5.237   7.328   3.495
10238TIP3    H230660   5.246   7.178   3.485
10239TIP3   OH230661   6.163   3.248   2.902
10239TIP3    H130662   6.157   3.339   2.874
10239TIP3    H230663   6.091   3.204   2.856
10240TIP3   OH230664   6.190   5.490   5.339
10240TIP3    H130665   6.207   5.584   5.333
10240TIP3    H230666   6.106   5.485   5.385
10241TIP3   OH230667   1.163   3.814   5.336
10241TIP3    H130668   1.180   3.896   5.289
10241TIP3    H230669   1.244   3.763   5.326
10242TIP3   OH230670   5.045   2.219   0.401
10242TIP3    H130671   4.997   2.180   0.473
10242TIP3    H230672   4.988   2.289   0.369
10243TIP3   OH230673   0.463   2.474   2.430
10243TIP3    H130674   0.539   2.431   2.469
10243TIP3    H230675   0.403   2.403   2.410
10244TIP3   OH230676   6.594   6.660   0.729
10244TIP3    H130677   6.627   6.738   0.684
10244TIP3    H230678   6.655   6.591   0.706
10245TIP3   OH230679   4.773   7.179   5.327
10245TIP3    H130680   4.681   7.159   5.341
10245TIP3    H230681   4.781   7.193   5.233
10246TIP3   OH230682   6.895   2.297   2.293
10246TIP3    H130683   6.969   2.283   2.234
10246TIP3    H230684   6.850   2.213   2.296
10247TIP3   OH230685   3.572   1.101   2.745
10247TIP3    H130686   3.499   1.145   2.788
10247TIP3    H230687   3.561   1.009   2.768
10248TIP3   OH230688   0.962   4.869   3.146
10248TIP3    H130689   1.035   4.898   3.200
10248TIP3    H230690   0.916   4.949   3.122
10249TIP3   OH230691   3.958   1.230   6.261
10249TIP3    H130692   4.012   1.165   6.307
10249TIP3    H230693   3.936   1.188   6.178
10250TIP3   OH230694   1.675   2.732   4.798
10250TIP3    H130695   1.617   2.688   4.736
10250TIP3    H230696   1.617   2.791   4.848
10251TIP3   OH230697   2.542   3.234   4.249
10251TIP3    H130698   2.588   3.171   4.305
10251TIP3    H230699   2.457   3.244   4.291
10252TIP3   OH230700   4.155   6.834   4.532
10252TIP3    H130701   4.078   6.787   4.563
10252TIP3    H230702   4.227   6.770   4.541
10253TIP3   OH230703   4.238   3.016   3.268
10253TIP3    H130704   4.157   3.064   3.249
10253TIP3    H230705   4.227   2.932   3.224
10254TIP3   OH230706   3.596   1.377   1.796
10254TIP3    H130707   3.627   1.402   1.883
10254TIP3    H230708   3.554   1.292   1.809
10255TIP3   OH230709   3.612   2.710   4.335
10255TIP3    H130710   3.619   2.691   4.428
10255TIP3    H230711   3.531   2.668   4.307
10256TIP3   OH230712   8.235   3.957   6.262
10256TIP3    H130713   8.161   3.996   6.215
10256TIP3    H230714   8.195   3.898   6.326
10257TIP3   OH230715   4.019   4.201   6.229
10257TIP3    H130716   3.949   4.223   6.167
10257TIP3    H230717   4.016   4.272   6.293
10258TIP3   OH230718   8.143   5.971   5.537
10258TIP3    H130719   8.118   5.988   5.629
10258TIP3    H230720   8.095   6.038   5.487
10259TIP3   OH230721   0.307   3.098   3.013
10259TIP3    H130722   0.229   3.105   3.069
10259TIP3    H230723   0.291   3.160   2.942
10260TIP3   OH230724   5.230   5.683   2.069
10260TIP3    H130725   5.220   5.778   2.061
10260TIP3    H230726   5.191   5.648   1.989
10261TIP3   OH230727   0.821   1.361   0.102
10261TIP3    H130728   0.836   1.455   0.097
10261TIP3    H230729   0.752   1.351   0.168
10262TIP3   OH230730   6.855   4.689   5.481
10262TIP3    H130731   6.878   4.620   5.543
10262TIP3    H230732   6.849   4.644   5.396
10263TIP3   OH230733   0.170   3.974   3.580
10263TIP3    H130734   0.135   4.006   3.663
10263TIP3    H230735   0.265   3.969   3.594
10264TIP3   OH230736   3.771   6.706   1.481
10264TIP3    H130737   3.860   6.725   1.512
10264TIP3    H230738   3.783   6.671   1.393
10265TIP3   OH230739   6.697   4.308   3.080
10265TIP3    H130740   6.763   4.248   3.112
10265TIP3    H230741   6.682   4.369   3.152
10266TIP3   OH230742   5.467   5.484   0.955
10266TIP3    H130743   5.385   5.467   1.002
10266TIP3    H230744   5.443   5.480   0.863
10267TIP3   OH230745   4.597   4.610   3.403
10267TIP3    H130746   4.644   4.604   3.319
10267TIP3    H230747   4.647   4.673   3.454
10268TIP3   OH230748   6.491   3.629   5.038
10268TIP3    H130749   6.475   3.664   4.951
10268TIP3    H230750   6.583   3.649   5.056
10269TIP3   OH230751   4.969   6.802   1.892
10269TIP3    H130752   4.918   6.814   1.972
10269TIP3    H230753   4.938   6.718   1.856
10270TIP3   OH230754   6.282   2.478   5.767
10270TIP3    H130755   6.276   2.429   5.849
10270TIP3    H230756   6.197   2.520   5.758
10271TIP3   OH230757   7.397   5.276   1.164
10271TIP3    H130758   7.473   5.287   1.221
10271TIP3    H230759   7.433   5.239   1.083
10272TIP3   OH230760   0.232   3.014   4.880
10272TIP3    H130761   0.140   3.024   4.907
10272TIP3    H230762   0.242   2.920   4.866
10273TIP3   OH230763   6.012   3.110   2.496
10273TIP3    H130764   5.924   3.072   2.490
10273TIP3    H230765   6.030   3.113   2.590
10274TIP3   OH230766   6.500   2.508   0.903
10274TIP3    H130767   6.565   2.438   0.908
10274TIP3    H230768   6.504   2.538   0.812
10275TIP3   OH230769   3.150   7.708   2.912
10275TIP3    H130770   3.092   7.696   2.837
10275TIP3    H230771   3.207   7.631   2.911
10276TIP3   OH230772   4.199   6.319   4.528
10276TIP3    H130773   4.173   6.298   4.618
10276TIP3    H230774   4.138   6.388   4.501
10277TIP3   OH230775   6.533   6.460   1.398
10277TIP3    H130776   6.547   6.501   1.484
10277TIP3    H230777   6.459   6.400   1.412
10278TIP3   OH230778   6.126   0.997   4.178
10278TIP3    H130779   6.074   1.075   4.195
10278TIP3    H230780   6.062   0.932   4.148
10279TIP3   OH230781   7.979   7.090   5.011
10279TIP3    H130782   7.979   7.055   5.100
10279TIP3    H230783   8.000   7.183   5.021
10280TIP3   OH230784   4.793   1.192   1.519
10280TIP3    H130785   4.747   1.108   1.528
10280TIP3    H230786   4.764   1.243   1.594
10281TIP3   OH230787   6.183   6.781   0.976
10281TIP3    H130788   6.127   6.720   1.025
10281TIP3    H230789   6.223   6.727   0.908
10282TIP3   OH230790   6.800   6.939   0.315
10282TIP3    H130791   6.744   6.864   0.296
10282TIP3    H230792   6.764   7.009   0.260
10283TIP3   OH230793   0.182   6.324   3.729
10283TIP3    H130794   0.277   6.316   3.742
10283TIP3    H230795   0.145   6.301   3.814
10284TIP3   OH230796   5.041   4.709   2.033
10284TIP3    H130797   5.031   4.621   2.070
10284TIP3    H230798   5.063   4.694   1.941
10285TIP3   OH230799   6.616   7.237   1.611
10285TIP3    H130800   6.702   7.258   1.573
10285TIP3    H230801   6.634   7.165   1.671
10286TIP3   OH230802   1.008   2.269   1.821
10286TIP3    H130803   0.929   2.307   1.783
10286TIP3    H230804   0.997   2.175   1.811
10287TIP3   OH230805   6.852   5.622   0.766
10287TIP3    H130806   6.835   5.711   0.795
10287TIP3    H230807   6.915   5.631   0.695
10288TIP3   OH230808   0.620   7.668   2.511
10288TIP3    H130809   0.613   7.750   2.561
10288TIP3    H230810   0.529   7.642   2.495
10289TIP3   OH230811   8.114   7.560   0.295
10289TIP3    H130812   8.075   7.581   0.210
10289TIP3    H230813   8.083   7.629   0.354
10290TIP3   OH230814   4.264   4.298   0.798
10290TIP3    H130815   4.295   4.385   0.774
10290TIP3    H230816   4.337   4.239   0.779
10291TIP3   OH230817   4.196   7.113   3.455
10291TIP3    H130818   4.190   7.018   3.443
10291TIP3    H230819   4.271   7.126   3.512
10292TIP3   OH230820   4.032   4.170   5.368
10292TIP3    H130821   3.998   4.127   5.289
10292TIP3    H230822   4.124   4.185   5.349
10293TIP3   OH230823   2.766   4.038   4.368
10293TIP3    H130824   2.764   4.133   4.355
10293TIP3    H230825   2.735   4.002   4.285
10294TIP3   OH230826   6.690   0.034   0.430
10294TIP3    H130827   6.660   0.031   0.521
10294TIP3    H230828   6.616   0.001   0.380
10295TIP3   OH230829   2.371   2.362   5.142
10295TIP3    H130830   2.355   2.446   5.101
10295TIP3    H230831   2.329   2.368   5.228
10296TIP3   OH230832   1.670   7.755   2.075
10296TIP3    H130833   1.596   7.693   2.070
10296TIP3    H230834   1.715   7.732   2.156
10297TIP3   OH230835   3.721   0.162   2.131
10297TIP3    H130836   3.778   0.178   2.056
10297TIP3    H230837   3.654   0.102   2.098
10298TIP3   OH230838   7.350   4.129   2.679
10298TIP3    H130839   7.364   4.048   2.728
10298TIP3    H230840   7.360   4.104   2.587
10299TIP3   OH230841   8.118   5.176   6.609
10299TIP3    H130842   8.211   5.151   6.604
10299TIP3    H230843   8.087   5.135   6.690
10300TIP3   OH230844   3.135   6.817   1.622
10300TIP3    H130845   3.111   6.902   1.659
10300TIP3    H230846   3.227   6.805   1.646
10301TIP3   OH230847   2.386   5.958   6.040
10301TIP3    H130848   2.452   5.972   5.972
10301TIP3    H230849   2.339   6.040   6.045
10302TIP3   OH230850   2.534   3.600   5.994
10302TIP3    H130851   2.442   3.579   5.978
10302TIP3    H230852   2.534   3.693   6.019
10303TIP3   OH230853   6.996   1.695   2.713
10303TIP3    H130854   7.008   1.610   2.756
10303TIP3    H230855   7.080   1.713   2.672
10304TIP3   OH230856   2.458   4.059   1.619
10304TIP3    H130857   2.363   4.047   1.625
10304TIP3    H230858   2.491   3.975   1.587
10305TIP3   OH230859   4.864   6.513   2.718
10305TIP3    H130860   4.832   6.431   2.679
10305TIP3    H230861   4.789   6.547   2.766
10306TIP3   OH230862   0.955   1.689   0.273
10306TIP3    H130863   1.048   1.701   0.291
10306TIP3    H230864   0.950   1.682   0.177
10307TIP3   OH230865   6.768   1.390   5.070
10307TIP3    H130866   6.817   1.327   5.123
10307TIP3    H230867   6.795   1.371   4.980
10308TIP3   OH230868   0.453   4.880   4.603
10308TIP3    H130869   0.538   4.912   4.575
10308TIP3    H230870   0.422   4.945   4.666
10309TIP3   OH230871   5.123   2.590   1.827
10309TIP3    H130872   5.084   2.582   1.913
10309TIP3    H230873   5.163   2.678   1.827
10310TIP3   OH230874   5.656   4.004   0.321
10310TIP3    H130875   5.616   3.918   0.312
10310TIP3    H230876   5.685   4.027   0.233
10311TIP3   OH230877   3.754   0.256   5.225
10311TIP3    H130878   3.740   0.170   5.266
10311TIP3    H230879   3.842   0.251   5.188
10312TIP3   OH230880   1.316   7.211   5.520
10312TIP3    H130881   1.389   7.157   5.490
10312TIP3    H230882   1.300   7.272   5.448
10313TIP3   OH230883   0.954   1.404   3.085
10313TIP3    H130884   0.935   1.324   3.036
10313TIP3    H230885   0.996   1.462   3.021
10314TIP3   OH230886   8.271   4.460   2.522
10314TIP3    H130887   8.364   4.458   2.497
10314TIP3    H230888   8.268   4.416   2.607
10315TIP3   OH230889   2.965   0.487   6.151
10315TIP3    H130890   2.967   0.574   6.190
10315TIP3    H230891   2.985   0.502   6.058
10316TIP3   OH230892   1.960   0.662   2.735
10316TIP3    H130893   1.996   0.741   2.694
10316TIP3    H230894   1.993   0.665   2.825
10317TIP3   OH230895   6.888   1.380   6.043
10317TIP3    H130896   6.945   1.456   6.055
10317TIP3    H230897   6.813   1.414   5.994
10318TIP3   OH230898   0.716   2.170   0.524
10318TIP3    H130899   0.677   2.239   0.470
10318TIP3    H230900   0.648   2.103   0.530
10319TIP3   OH230901   5.270   4.044   0.932
10319TIP3    H130902   5.290   4.059   0.840
10319TIP3    H230903   5.260   3.950   0.940
10320TIP3   OH230904   2.881   1.758   5.145
10320TIP3    H130905   2.851   1.711   5.066
10320TIP3    H230906   2.973   1.776   5.128
10321TIP3   OH230907   6.147   7.582   0.914
10321TIP3    H130908   6.158   7.626   0.830
10321TIP3    H230909   6.139   7.489   0.891
10322TIP3   OH230910   6.546   4.023   1.534
10322TIP3    H130911   6.494   3.944   1.523
10322TIP3    H230912   6.602   4.025   1.456
10323TIP3   OH230913   3.630   2.428   3.158
10323TIP3    H130914   3.546   2.384   3.143
10323TIP3    H230915   3.693   2.357   3.172
10324TIP3   OH230916   6.900   6.982   3.714
10324TIP3    H130917   6.912   7.017   3.626
10324TIP3    H230918   6.953   6.903   3.715
10325TIP3   OH230919   4.557   4.469   4.473
10325TIP3    H130920   4.552   4.435   4.383
10325TIP3    H230921   4.549   4.564   4.463
10326TIP3   OH230922   1.595   2.297   2.260
10326TIP3    H130923   1.629   2.268   2.344
10326TIP3    H230924   1.666   2.348   2.221
10327TIP3   OH230925   1.178   0.358   0.589
10327TIP3    H130926   1.216   0.399   0.511
10327TIP3    H230927   1.191   0.423   0.659
10328TIP3   OH230928   6.733   1.794   2.760
10328TIP3    H130929   6.706   1.703   2.770
10328TIP3    H230930   6.828   1.790   2.749
10329TIP3   OH230931   0.348   1.576   3.106
10329TIP3    H130932   0.290   1.648   3.130
10329TIP3    H230933   0.298   1.525   3.042
10330TIP3   OH230934   3.580   7.096   0.447
10330TIP3    H130935   3.521   7.120   0.519
10330TIP3    H230936   3.530   7.113   0.368
10331TIP3   OH230937   7.272   0.322   4.534
10331TIP3    H130938   7.363   0.297   4.517
10331TIP3    H230939   7.259   0.402   4.483
10332TIP3   OH230940   5.724   3.063   4.707
10332TIP3    H130941   5.732   2.972   4.737
10332TIP3    H230942   5.734   3.058   4.612
10333TIP3   OH230943   5.156   3.953   4.113
10333TIP3    H130944   5.063   3.977   4.110
10333TIP3    H230945   5.200   4.033   4.141
10334TIP3   OH230946   1.925   3.854   4.058
10334TIP3    H130947   1.928   3.935   4.007
10334TIP3    H230948   2.017   3.837   4.079
10335TIP3   OH230949   2.016   4.110   2.134
10335TIP3    H130950   2.095   4.159   2.157
10335TIP3    H230951   1.975   4.091   2.218
10336TIP3   OH230952   7.924   7.233   4.454
10336TIP3    H130953   7.989   7.295   4.422
10336TIP3    H230954   7.909   7.259   4.545
10337TIP3   OH230955   5.867   4.852   5.923
10337TIP3    H130956   5.883   4.833   5.831
10337TIP3    H230957   5.774   4.870   5.928
10338TIP3   OH230958   0.643   4.705   0.557
10338TIP3    H130959   0.714   4.694   0.494
10338TIP3    H230960   0.605   4.790   0.536
10339TIP3   OH230961   7.900   2.338   3.298
10339TIP3    H130962   7.882   2.290   3.218
10339TIP3    H230963   7.853   2.421   3.288
10340TIP3   OH230964   1.265   2.837   4.657
10340TIP3    H130965   1.216   2.756   4.651
10340TIP3    H230966   1.336   2.827   4.593
10341TIP3   OH230967   1.895   6.065   4.142
10341TIP3    H130968   1.893   6.041   4.235
10341TIP3    H230969   1.901   5.982   4.095
10342TIP3   OH230970   3.771   5.054   5.219
10342TIP3    H130971   3.718   4.976   5.232
10342TIP3    H230972   3.860   5.026   5.236
10343TIP3   OH230973   6.443   3.602   1.294
10343TIP3    H130974   6.402   3.687   1.277
10343TIP3    H230975   6.529   3.622   1.329
10344TIP3   OH230976   0.589   7.531   3.468
10344TIP3    H130977   0.546   7.585   3.402
10344TIP3    H230978   0.540   7.449   3.469
10345TIP3   OH230979   1.919   7.689   2.531
10345TIP3    H130980   1.856   7.697   2.603
10345TIP3    H230981   1.973   7.614   2.555
10346TIP3   OH230982   0.574   5.396   3.902
10346TIP3    H130983   0.613   5.314   3.874
10346TIP3    H230984   0.578   5.452   3.825
10347TIP3   OH230985   6.588   2.569   0.614
10347TIP3    H130986   6.603   2.637   0.550
10347TIP3    H230987   6.675   2.534   0.634
10348TIP3   OH230988   6.278   6.326   2.662
10348TIP3    H130989   6.236   6.339   2.577
10348TIP3    H230990   6.372   6.326   2.644
10349TIP3   OH230991   4.194   6.234   1.299
10349TIP3    H130992   4.286   6.220   1.276
10349TIP3    H230993   4.155   6.271   1.219
10350TIP3   OH230994   3.448   6.046   6.275
10350TIP3    H130995   3.416   5.985   6.340
10350TIP3    H230996   3.404   6.129   6.295
10351TIP3   OH230997   1.042   4.727   1.113
10351TIP3    H130998   0.998   4.679   1.043
10351TIP3    H230999   1.119   4.765   1.071
10352TIP3   OH231000   7.419   7.780   1.982
10352TIP3    H131001   7.350   7.729   1.941
10352TIP3    H231002   7.475   7.808   1.909
10353TIP3   OH231003   2.220   1.986   3.821
10353TIP3    H131004   2.262   1.921   3.878
10353TIP3    H231005   2.292   2.041   3.791
10354TIP3   OH231006   4.351   2.534   0.533
10354TIP3    H131007   4.433   2.549   0.578
10354TIP3    H231008   4.372   2.470   0.465
10355TIP3   OH231009   7.833   7.727   0.136
10355TIP3    H131010   7.894   7.731   0.062
10355TIP3    H231011   7.820   7.633   0.150
10356TIP3   OH231012   1.906   0.372   4.629
10356TIP3    H131013   1.912   0.421   4.546
10356TIP3    H231014   1.883   0.283   4.602
10357TIP3   OH231015   4.683   3.717   5.995
10357TIP3    H131016   4.642   3.708   6.081
10357TIP3    H231017   4.775   3.698   6.010
10358TIP3   OH231018   2.081   6.797   1.325
10358TIP3    H131019   2.137   6.796   1.247
10358TIP3    H231020   2.102   6.879   1.369
10359TIP3   OH231021   0.565   3.688   2.400
10359TIP3    H131022   0.499   3.645   2.346
10359TIP3    H231023   0.515   3.731   2.470
10360TIP3   OH231024   4.886   3.064   6.623
10360TIP3    H131025   4.978   3.087   6.629
10360TIP3    H231026   4.845   3.137   6.576
10361TIP3   OH231027   4.139   0.492   3.015
10361TIP3    H131028   4.228   0.470   2.984
10361TIP3    H231029   4.088   0.413   2.997
10362TIP3   OH231030   0.924   7.210   6.110
10362TIP3    H131031   0.913   7.140   6.045
10362TIP3    H231032   1.014   7.241   6.096
10363TIP3   OH231033   7.540   0.648   4.512
10363TIP3    H131034   7.471   0.658   4.447
10363TIP3    H231035   7.495   0.648   4.596
10364TIP3   OH231036   2.685   4.173   5.299
10364TIP3    H131037   2.589   4.177   5.309
10364TIP3    H231038   2.703   4.080   5.286
10365TIP3   OH231039   3.390   5.864   6.445
10365TIP3    H131040   3.443   5.883   6.523
10365TIP3    H231041   3.300   5.867   6.475
10366TIP3   OH231042   7.532   6.043   3.107
10366TIP3    H131043   7.535   6.012   3.197
10366TIP3    H231044   7.567   6.133   3.111
10367TIP3   OH231045   7.379   4.068   4.886
10367TIP3    H131046   7.342   3.984   4.860
10367TIP3    H231047   7.340   4.086   4.971
10368TIP3   OH231048   3.645   0.308   3.623
10368TIP3    H131049   3.566   0.356   3.600
10368TIP3    H231050   3.666   0.256   3.545
10369TIP3   OH231051   6.436   1.955   0.091
10369TIP3    H131052   6.408   1.935   0.180
10369TIP3    H231053   6.355   1.954   0.040
10370TIP3   OH231054   6.997   6.138   2.907
10370TIP3    H131055   6.933   6.100   2.847
10370TIP3    H231056   6.966   6.111   2.994
10371TIP3   OH231057   1.428   2.056   6.459
10371TIP3    H131058   1.393   2.030   6.544
10371TIP3    H231059   1.523   2.056   6.471
10372TIP3   OH231060   8.225   2.629   5.546
10372TIP3    H131061   8.199   2.538   5.533
10372TIP3    H231062   8.282   2.649   5.472
10373TIP3   OH231063   0.889   5.989   2.547
10373TIP3    H131064   0.829   5.914   2.541
10373TIP3    H231065   0.881   6.018   2.638
10374TIP3   OH231066   3.871   1.789   6.000
10374TIP3    H131067   3.890   1.835   5.918
10374TIP3    H231068   3.953   1.790   6.048
10375TIP3   OH231069   1.995   7.022   5.133
10375TIP3    H131070   2.028   6.933   5.144
10375TIP3    H231071   2.024   7.048   5.046
10376TIP3   OH231072   0.363   5.034   1.324
10376TIP3    H131073   0.373   5.112   1.270
10376TIP3    H231074   0.309   5.062   1.398
10377TIP3   OH231075   1.007   2.407   3.549
10377TIP3    H131076   1.079   2.351   3.519
10377TIP3    H231077   1.014   2.486   3.495
10378TIP3   OH231078   3.305   7.756   5.990
10378TIP3    H131079   3.334   7.829   5.935
10378TIP3    H231080   3.376   7.692   5.985
10379TIP3   OH231081   4.827   5.987   6.772
10379TIP3    H131082   4.865   5.992   6.684
10379TIP3    H231083   4.848   6.072   6.811
10380TIP3   OH231084   0.924   2.461   4.727
10380TIP3    H131085   0.883   2.449   4.641
10380TIP3    H231086   1.017   2.468   4.708
10381TIP3   OH231087   5.503   6.411   5.788
10381TIP3    H131088   5.521   6.434   5.697
10381TIP3    H231089   5.582   6.436   5.835
10382TIP3   OH231090   7.669   4.962   2.492
10382TIP3    H131091   7.716   5.028   2.441
10382TIP3    H231092   7.735   4.923   2.549
10383TIP3   OH231093   4.988   2.698   3.937
10383TIP3    H131094   5.033   2.637   3.878
10383TIP3    H231095   4.916   2.648   3.974
10384TIP3   OH231096   0.949   4.085   1.059
10384TIP3    H131097   0.918   4.076   0.969
10384TIP3    H231098   0.968   4.179   1.068
10385TIP3   OH231099   7.458   0.892   6.597
10385TIP3    H131100   7.509   0.812   6.585
10385TIP3    H231101   7.414   0.905   6.512
10386TIP3   OH231102   4.979   5.483   0.338
10386TIP3    H131103   4.918   5.446   0.274
10386TIP3    H231104   4.933   5.475   0.421
10387TIP3   OH231105   1.311   1.357   4.894
10387TIP3    H131106   1.363   1.285   4.856
10387TIP3    H231107   1.273   1.319   4.973
10388TIP3   OH231108   7.846   1.547   3.139
10388TIP3    H131109   7.798   1.627   3.118
10388TIP3    H231110   7.915   1.575   3.199
10389TIP3   OH231111   5.607   0.130   4.024
10389TIP3    H131112   5.608   0.035   4.029
10389TIP3    H231113   5.624   0.149   3.931
10390TIP3   OH231114   4.625   2.010   6.634
10390TIP3    H131115   4.664   1.960   6.706
10390TIP3    H231116   4.651   2.101   6.650
10391TIP3   OH231117   6.740   3.351   4.912
10391TIP3    H131118   6.746   3.447   4.910
10391TIP3    H231119   6.778   3.323   4.829
10392TIP3   OH231120   5.620   0.915   5.735
10392TIP3    H131121   5.666   0.839   5.772
10392TIP3    H231122   5.537   0.916   5.782
10393TIP3   OH231123   4.559   6.261   4.254
10393TIP3    H131124   4.572   6.313   4.175
10393TIP3    H231125   4.496   6.194   4.228
10394TIP3   OH231126   7.367   7.600   0.153
10394TIP3    H131127   7.291   7.648   0.185
10394TIP3    H231128   7.438   7.663   0.156
10395TIP3   OH231129   1.699   7.752   3.175
10395TIP3    H131130   1.732   7.663   3.186
10395TIP3    H231131   1.773   7.800   3.137
10396TIP3   OH231132   7.986   3.865   6.782
10396TIP3    H131133   7.971   3.774   6.754
10396TIP3    H231134   7.984   3.916   6.701
10397TIP3   OH231135   6.585   3.811   4.603
10397TIP3    H131136   6.499   3.810   4.561
10397TIP3    H231137   6.596   3.901   4.632
10398TIP3   OH231138   7.007   3.041   0.783
10398TIP3    H131139   6.988   2.947   0.786
10398TIP3    H231140   7.073   3.050   0.715
10399TIP3   OH231141   2.189   3.954   3.826
10399TIP3    H131142   2.267   3.922   3.781
10399TIP3    H231143   2.117   3.905   3.786
10400TIP3   OH231144   0.937   0.111   0.351
10400TIP3    H131145   0.881   0.124   0.275
10400TIP3    H231146   1.012   0.062   0.318
10401TIP3   OH231147   7.724   0.750   5.643
10401TIP3    H131148   7.678   0.728   5.562
10401TIP3    H231149   7.817   0.747   5.620
10402TIP3   OH231150   7.037   4.294   0.878
10402TIP3    H131151   7.123   4.310   0.917
10402TIP3    H231152   7.055   4.277   0.786
10403TIP3   OH231153   6.069   3.986   4.581
10403TIP3    H131154   6.143   3.959   4.636
10403TIP3    H231155   6.026   4.055   4.632
10404TIP3   OH231156   6.197   2.119   3.478
10404TIP3    H131157   6.260   2.056   3.444
10404TIP3    H231158   6.228   2.140   3.566
10405TIP3   OH231159   3.944   4.135   2.338
10405TIP3    H131160   3.955   4.177   2.424
10405TIP3    H231161   3.881   4.064   2.354
10406TIP3   OH231162   3.231   0.138   4.482
10406TIP3    H131163   3.288   0.066   4.508
10406TIP3    H231164   3.268   0.171   4.401
10407TIP3   OH231165   3.329   6.073   3.148
10407TIP3    H131166   3.368   6.129   3.080
10407TIP3    H231167   3.292   6.135   3.211
10408TIP3   OH231168   3.531   5.195   4.341
10408TIP3    H131169   3.490   5.152   4.266
10408TIP3    H231170   3.585   5.126   4.381
10409TIP3   OH231171   5.684   5.415   2.850
10409TIP3    H131172   5.645   5.466   2.779
10409TIP3    H231173   5.670   5.467   2.928
10410TIP3   OH231174   6.867   5.492   5.637
10410TIP3    H131175   6.809   5.486   5.713
10410TIP3    H231176   6.939   5.432   5.656
10411TIP3   OH231177   6.922   6.259   4.413
10411TIP3    H131178   6.848   6.223   4.463
10411TIP3    H231179   6.883   6.292   4.333
10412TIP3   OH231180   0.888   6.557   2.587
10412TIP3    H131181   0.963   6.606   2.620
10412TIP3    H231182   0.914   6.465   2.594
10413TIP3   OH231183   3.150   5.015   1.911
10413TIP3    H131184   3.073   4.958   1.910
10413TIP3    H231185   3.203   4.983   1.984
10414TIP3   OH231186   1.272   4.134   1.053
10414TIP3    H131187   1.240   4.066   1.112
10414TIP3    H231188   1.219   4.211   1.073
10415TIP3   OH231189   5.066   0.380   0.100
10415TIP3    H131190   5.046   0.287   0.087
10415TIP3    H231191   5.017   0.425   0.031
10416TIP3   OH231192   2.030   2.268   2.000
10416TIP3    H131193   2.114   2.235   2.030
10416TIP3    H231194   1.967   2.200   2.022
10417TIP3   OH231195   1.029   4.903   0.686
10417TIP3    H131196   1.121   4.904   0.710
10417TIP3    H231197   1.006   4.810   0.683
10418TIP3   OH231198   3.895   0.350   5.944
10418TIP3    H131199   3.905   0.308   6.029
10418TIP3    H231200   3.842   0.428   5.962
10419TIP3   OH231201   4.608   3.814   2.614
10419TIP3    H131202   4.556   3.874   2.668
10419TIP3    H231203   4.585   3.837   2.524
10420TIP3   OH231204   2.658   3.935   2.226
10420TIP3    H131205   2.581   3.878   2.226
10420TIP3    H231206   2.676   3.951   2.133
10421TIP3   OH231207   8.091   0.153   1.922
10421TIP3    H131208   8.115   0.180   2.010
10421TIP3    H231209   8.172   0.158   1.872
10422TIP3   OH231210   1.415   5.823   1.727
10422TIP3    H131211   1.484   5.885   1.748
10422TIP3    H231212   1.361   5.869   1.662
10423TIP3   OH231213   4.514   5.888   2.749
10423TIP3    H131214   4.436   5.835   2.730
10423TIP3    H231215   4.482   5.978   2.749
10424TIP3   OH231216   1.892   2.013   6.716
10424TIP3    H131217   1.808   2.007   6.762
10424TIP3    H231218   1.936   2.088   6.757
10425TIP3   OH231219   2.767   5.550   4.632
10425TIP3    H131220   2.818   5.593   4.564
10425TIP3    H231221   2.681   5.534   4.592
10426TIP3   OH231222   7.014   7.577   0.203
10426TIP3    H131223   7.063   7.658   0.210
10426TIP3    H231224   7.063   7.514   0.256
10427TIP3   OH231225   7.589   3.012   4.574
10427TIP3    H131226   7.621   3.080   4.515
10427TIP3    H231227   7.579   2.935   4.518
10428TIP3   OH231228   1.985   7.796   6.505
10428TIP3    H131229   2.001   7.876   6.455
10428TIP3    H231230   2.046   7.802   6.579
10429TIP3   OH231231   0.926   5.862   1.615
10429TIP3    H131232   0.975   5.786   1.645
10429TIP3    H231233   0.974   5.892   1.537
10430TIP3   OH231234   0.043   0.117   4.000
10430TIP3    H131235   0.090   0.116   4.083
10430TIP3    H231236  -0.002   0.033   3.997
10431TIP3   OH231237   4.887   2.083   5.921
10431TIP3    H131238   4.848   2.151   5.976
10431TIP3    H231239   4.830   2.079   5.844
10432TIP3   OH231240   0.009   0.671   4.593
10432TIP3    H131241   0.017   0.577   4.576
10432TIP3    H231242   0.097   0.699   4.616
10433TIP3   OH231243   5.741   0.717   4.535
10433TIP3    H131244   5.679   0.772   4.581
10433TIP3    H231245   5.797   0.778   4.487
10434TIP3   OH231246   4.403   3.407   1.877
10434TIP3    H131247   4.408   3.335   1.941
10434TIP3    H231248   4.456   3.377   1.803
10435TIP3   OH231249   5.327   7.193   4.147
10435TIP3    H131250   5.387   7.201   4.072
10435TIP3    H231251   5.384   7.171   4.221
10436TIP3   OH231252   5.085   5.024   6.233
10436TIP3    H131253   5.111   5.067   6.151
10436TIP3    H231254   5.061   5.096   6.291
10437TIP3   OH231255   5.823   0.997   3.164
10437TIP3    H131256   5.739   0.953   3.149
10437TIP3    H231257   5.854   1.020   3.076
10438TIP3   OH231258   3.738   5.566   1.146
10438TIP3    H131259   3.743   5.650   1.101
10438TIP3    H231260   3.827   5.549   1.175
10439TIP3   OH231261   6.285   7.156   2.699
10439TIP3    H131262   6.242   7.073   2.677
10439TIP3    H231263   6.234   7.191   2.772
10440TIP3   OH231264   7.364   4.979   3.108
10440TIP3    H131265   7.377   5.069   3.139
10440TIP3    H231266   7.394   4.925   3.181
10441TIP3   OH231267   4.964   1.879   6.562
10441TIP3    H131268   4.956   1.954   6.621
10441TIP3    H231269   4.998   1.809   6.617
10442TIP3   OH231270   0.407   3.978   5.208
10442TIP3    H131271   0.467   3.908   5.236
10442TIP3    H231272   0.349   3.935   5.145
10443TIP3   OH231273   1.004   6.430   3.245
10443TIP3    H131274   1.100   6.433   3.247
10443TIP3    H231275   0.981   6.450   3.154
10444TIP3   OH231276   1.649   5.630   1.275
10444TIP3    H131277   1.572   5.632   1.332
10444TIP3    H231278   1.687   5.544   1.288
10445TIP3   OH231279   0.031   0.809   5.863
10445TIP3    H131280   0.110   0.850   5.828
10445TIP3    H231281  -0.038   0.872   5.846
10446TIP3   OH231282   7.027   3.230   3.193
10446TIP3    H131283   6.964   3.302   3.193
10446TIP3    H231284   6.973   3.151   3.196
10447TIP3   OH231285   7.227   5.171   3.595
10447TIP3    H131286   7.267   5.207   3.673
10447TIP3    H231287   7.186   5.089   3.624
10448TIP3   OH231288   1.875   1.054   0.353
10448TIP3    H131289   1.780   1.065   0.363
10448TIP3    H231290   1.885   1.015   0.266
10449TIP3   OH231291   7.014   5.141   4.788
10449TIP3    H131292   7.028   5.235   4.772
10449TIP3    H231293   6.988   5.136   4.880
10450TIP3   OH231294   7.758   2.891   4.224
10450TIP3    H131295   7.790   2.924   4.308
10450TIP3    H231296   7.759   2.967   4.165
10451TIP3   OH231297   6.762   6.591   5.361
10451TIP3    H131298   6.670   6.573   5.340
10451TIP3    H231299   6.759   6.648   5.437
10452TIP3   OH231300   6.899   0.416   4.812
10452TIP3    H131301   6.950   0.382   4.738
10452TIP3    H231302   6.839   0.345   4.835
10453TIP3   OH231303   3.674   1.125   6.420
10453TIP3    H131304   3.722   1.114   6.502
10453TIP3    H231305   3.718   1.066   6.359
10454TIP3   OH231306   1.556   0.599   5.174
10454TIP3    H131307   1.572   0.681   5.219
10454TIP3    H231308   1.611   0.535   5.219
10455TIP3   OH231309   0.992   4.339   4.253
10455TIP3    H131310   1.052   4.388   4.197
10455TIP3    H231311   0.957   4.404   4.313
10456TIP3   OH231312   3.161   7.445   3.602
10456TIP3    H131313   3.131   7.432   3.512
10456TIP3    H231314   3.138   7.364   3.647
10457TIP3   OH231315   5.055   6.074   0.311
10457TIP3    H131316   5.041   6.132   0.385
10457TIP3    H231317   5.123   6.117   0.259
10458TIP3   OH231318   2.597   6.017   3.016
10458TIP3    H131319   2.674   6.065   3.043
10458TIP3    H231320   2.625   5.926   3.011
10459TIP3   OH231321   5.045   2.658   2.955
10459TIP3    H131322   5.097   2.738   2.961
10459TIP3    H231323   5.066   2.621   2.870
10460TIP3   OH231324   5.221   6.445   2.831
10460TIP3    H131325   5.295   6.506   2.825
10460TIP3    H231326   5.145   6.501   2.842
10461TIP3   OH231327   6.282   6.461   2.026
10461TIP3    H131328   6.262   6.552   2.002
10461TIP3    H231329   6.378   6.457   2.029
10462TIP3   OH231330   6.379   2.876   0.513
10462TIP3    H131331   6.358   2.831   0.431
10462TIP3    H231332   6.302   2.931   0.530
10463TIP3   OH231333   4.381   4.776   3.179
10463TIP3    H131334   4.354   4.846   3.118
10463TIP3    H231335   4.456   4.734   3.137
10464TIP3   OH231336   4.920   0.246   2.613
10464TIP3    H131337   4.836   0.213   2.580
10464TIP3    H231338   4.983   0.178   2.590
10465TIP3   OH231339   0.598   4.633   6.192
10465TIP3    H131340   0.622   4.612   6.282
10465TIP3    H231341   0.575   4.549   6.153
10466TIP3   OH231342   7.992   2.119   3.047
10466TIP3    H131343   8.042   2.171   2.983
10466TIP3    H231344   8.059   2.075   3.099
10467TIP3   OH231345   4.859   0.874   2.675
10467TIP3    H131346   4.788   0.887   2.738
10467TIP3    H231347   4.925   0.825   2.724
10468TIP3   OH231348   1.158   1.072   4.438
10468TIP3    H131349   1.224   1.033   4.495
10468TIP3    H231350   1.208   1.117   4.370
10469TIP3   OH231351   6.651   5.929   3.448
10469TIP3    H131352   6.652   5.876   3.528
10469TIP3    H231353   6.676   6.017   3.478
10470TIP3   OH231354   2.246   0.427   1.328
10470TIP3    H131355   2.339   0.405   1.336
10470TIP3    H231356   2.234   0.502   1.386
10471TIP3   OH231357   5.630   0.441   4.218
10471TIP3    H131358   5.564   0.392   4.169
10471TIP3    H231359   5.580   0.485   4.288
10472TIP3   OH231360   2.575   2.087   1.006
10472TIP3    H131361   2.670   2.084   1.017
10472TIP3    H231362   2.543   2.131   1.085
10473TIP3   OH231363   5.875   2.702   0.366
10473TIP3    H131364   5.956   2.652   0.371
10473TIP3    H231365   5.805   2.637   0.376
10474TIP3   OH231366   4.987   5.517   4.461
10474TIP3    H131367   4.974   5.610   4.438
10474TIP3    H231368   5.000   5.474   4.377
10475TIP3   OH231369   5.971   2.696   0.776
10475TIP3    H131370   6.057   2.730   0.750
10475TIP3    H231371   5.951   2.630   0.710
10476TIP3   OH231372   2.941   2.790   1.548
10476TIP3    H131373   2.958   2.884   1.557
10476TIP3    H231374   2.866   2.774   1.606
10477TIP3   OH231375   7.459   1.835   5.337
10477TIP3    H131376   7.422   1.895   5.273
10477TIP3    H231377   7.551   1.860   5.344
10478TIP3   OH231378   1.893   4.040   2.360
10478TIP3    H131379   1.866   4.122   2.401
10478TIP3    H231380   1.904   3.979   2.432
10479TIP3   OH231381   8.278   3.117   0.209
10479TIP3    H131382   8.338   3.160   0.147
10479TIP3    H231383   8.191   3.145   0.181
10480TIP3   OH231384   0.463   4.515   3.693
10480TIP3    H131385   0.432   4.453   3.759
10480TIP3    H231386   0.401   4.506   3.620
10481TIP3   OH231387   0.227   7.451   3.426
10481TIP3    H131388   0.157   7.389   3.406
10481TIP3    H231389   0.268   7.469   3.341
10482TIP3   OH231390   1.583   0.529   1.532
10482TIP3    H131391   1.504   0.583   1.528
10482TIP3    H231392   1.645   0.580   1.584
10483TIP3   OH231393   4.074   6.824   0.255
10483TIP3    H131394   4.022   6.845   0.333
10483TIP3    H231395   4.136   6.757   0.285
10484TIP3   OH231396   8.300   6.745   4.059
10484TIP3    H131397   8.209   6.760   4.084
10484TIP3    H231398   8.294   6.680   3.988
10485TIP3   OH231399   0.967   7.062   1.447
10485TIP3    H131400   1.012   7.039   1.366
10485TIP3    H231401   0.915   7.139   1.423
10486TIP3   OH231402   6.668   1.436   2.424
10486TIP3    H131403   6.735   1.441   2.355
10486TIP3    H231404   6.595   1.489   2.391
10487TIP3   OH231405   8.110   0.427   3.494
10487TIP3    H131406   8.159   0.509   3.506
10487TIP3    H231407   8.177   0.362   3.475
10488TIP3   OH231408   3.163   3.078   5.617
10488TIP3    H131409   3.082   3.083   5.566
10488TIP3    H231410   3.181   3.168   5.644
10489TIP3   OH231411   0.355   6.321   2.861
10489TIP3    H131412   0.275   6.283   2.898
10489TIP3    H231413   0.424   6.295   2.922
10490TIP3   OH231414   7.529   4.819   2.842
10490TIP3    H131415   7.512   4.897   2.789
10490TIP3    H231416   7.576   4.851   2.919
10491TIP3   OH231417   1.825   6.785   0.264
10491TIP3    H131418   1.841   6.692   0.249
10491TIP3    H231419   1.859   6.829   0.186
10492TIP3   OH231420   3.176   1.590   6.184
10492TIP3    H131421   3.097   1.537   6.188
10492TIP3    H231422   3.156   1.660   6.122
10493TIP3   OH231423   2.960   2.160   1.737
10493TIP3    H131424   2.893   2.103   1.774
10493TIP3    H231425   2.917   2.245   1.728
10494TIP3   OH231426   4.808   7.697   1.050
10494TIP3    H131427   4.805   7.733   1.139
10494TIP3    H231428   4.736   7.633   1.048
10495TIP3   OH231429   2.080   0.049   2.370
10495TIP3    H131430   2.025  -0.022   2.404
10495TIP3    H231431   2.076   0.039   2.275
10496TIP3   OH231432   5.617   0.803   2.491
10496TIP3    H131433   5.585   0.716   2.469
10496TIP3    H231434   5.538   0.858   2.490
10497TIP3   OH231435   3.343   1.715   0.486
10497TIP3    H131436   3.330   1.626   0.519
10497TIP3    H231437   3.367   1.703   0.394
10498TIP3   OH231438   4.975   0.636   6.506
10498TIP3    H131439   5.026   0.560   6.480
10498TIP3    H231440   4.911   0.603   6.569
10499TIP3   OH231441   7.783   2.294   6.769
10499TIP3    H131442   7.733   2.344   6.704
10499TIP3    H231443   7.718   2.237   6.811
10500TIP3   OH231444   4.208   3.813   6.146
10500TIP3    H131445   4.301   3.792   6.138
10500TIP3    H231446   4.196   3.832   6.239
10501TIP3   OH231447   0.633   3.141   2.585
10501TIP3    H131448   0.686   3.102   2.656
10501TIP3    H231449   0.685   3.126   2.506
10502TIP3   OH231450   1.392   6.014   0.568
10502TIP3    H131451   1.412   6.016   0.661
10502TIP3    H231452   1.378   5.922   0.548
10503TIP3   OH231453   5.147   7.005   2.028
10503TIP3    H131454   5.073   6.950   2.006
10503TIP3    H231455   5.118   7.055   2.104
10504TIP3   OH231456   8.115   7.136   6.434
10504TIP3    H131457   8.167   7.124   6.514
10504TIP3    H231458   8.121   7.230   6.416
10505TIP3   OH231459   2.487   1.905   5.491
10505TIP3    H131460   2.470   1.827   5.544
10505TIP3    H231461   2.556   1.951   5.538
10506TIP3   OH231462   6.738   2.341   1.796
10506TIP3    H131463   6.715   2.317   1.885
10506TIP3    H231464   6.701   2.272   1.742
10507TIP3   OH231465   5.436   2.507   5.628
10507TIP3    H131466   5.428   2.412   5.635
10507TIP3    H231467   5.395   2.529   5.545
10508TIP3   OH231468   5.571   4.085   0.671
10508TIP3    H131469   5.594   3.993   0.685
10508TIP3    H231470   5.596   4.128   0.753
10509TIP3   OH231471   2.502   5.862   2.043
10509TIP3    H131472   2.513   5.769   2.026
10509TIP3    H231473   2.546   5.876   2.127
10510TIP3   OH231474   5.479   2.987   1.874
10510TIP3    H131475   5.569   3.017   1.885
10510TIP3    H231476   5.436   3.059   1.827
10511TIP3   OH231477   0.123   1.280   2.500
10511TIP3    H131478   0.110   1.299   2.593
10511TIP3    H231479   0.036   1.257   2.467
10512TIP3   OH231480   3.829   0.039   0.677
10512TIP3    H131481   3.750   0.087   0.699
10512TIP3    H231482   3.827  -0.039   0.733
10513TIP3   OH231483   1.242   3.272   2.705
10513TIP3    H131484   1.166   3.323   2.676
10513TIP3    H231485   1.294   3.334   2.756
10514TIP3   OH231486   4.473   1.475   3.057
10514TIP3    H131487   4.402   1.521   3.100
10514TIP3    H231488   4.437   1.389   3.036
10515TIP3   OH231489   1.782   1.148   2.394
10515TIP3    H131490   1.714   1.126   2.330
10515TIP3    H231491   1.832   1.219   2.352
10516TIP3   OH231492   5.910   7.344   0.885
10516TIP3    H131493   5.954   7.259   0.882
10516TIP3    H231494   5.822   7.326   0.852
10517TIP3   OH231495   0.412   1.861   0.269
10517TIP3    H131496   0.331   1.810   0.266
10517TIP3    H231497   0.481   1.795   0.272
10518TIP3   OH231498   7.724   3.040   0.675
10518TIP3    H131499   7.722   3.096   0.598
10518TIP3    H231500   7.655   2.976   0.661
10519TIP3   OH231501   1.408   4.279   5.308
10519TIP3    H131502   1.365   4.326   5.236
10519TIP3    H231503   1.442   4.349   5.364
10520TIP3   OH231504   1.528   5.222   1.145
10520TIP3    H131505   1.456   5.200   1.204
10520TIP3    H231506   1.518   5.162   1.071
10521TIP3   OH231507   1.872   6.183   5.117
10521TIP3    H131508   1.947   6.170   5.174
10521TIP3    H231509   1.859   6.099   5.074
10522TIP3   OH231510   5.671   6.054   3.025
10522TIP3    H131511   5.627   6.135   2.998
10522TIP3    H231512   5.762   6.065   2.996
10523TIP3   OH231513   3.653   6.084   5.453
10523TIP3    H131514   3.603   6.151   5.407
10523TIP3    H231515   3.646   6.006   5.398
10524TIP3   OH231516   4.046   7.521   4.545
10524TIP3    H131517   4.126   7.555   4.586
10524TIP3    H231518   4.042   7.430   4.571
10525TIP3   OH231519   7.091   7.197   2.824
10525TIP3    H131520   7.128   7.242   2.899
10525TIP3    H231521   7.089   7.262   2.754
10526TIP3   OH231522   5.221   5.955   2.625
10526TIP3    H131523   5.292   5.922   2.681
10526TIP3    H231524   5.158   5.992   2.686
10527TIP3   OH231525   6.919   1.036   2.652
10527TIP3    H131526   6.998   1.035   2.598
10527TIP3    H231527   6.895   0.944   2.661
10528TIP3   OH231528   3.846   1.631   3.613
10528TIP3    H131529   3.781   1.561   3.613
10528TIP3    H231530   3.805   1.701   3.664
10529TIP3   OH231531   3.462   2.712   6.067
10529TIP3    H131532   3.375   2.685   6.096
10529TIP3    H231533   3.459   2.808   6.066
10530TIP3   OH231534   3.383   6.052   0.277
10530TIP3    H131535   3.384   6.045   0.182
10530TIP3    H231536   3.314   5.991   0.305
10531TIP3   OH231537   4.167   2.174   6.052
10531TIP3    H131538   4.129   2.116   5.986
10531TIP3    H231539   4.109   2.250   6.053
10532TIP3   OH231540   7.220   6.857   5.328
10532TIP3    H131541   7.284   6.928   5.336
10532TIP3    H231542   7.176   6.874   5.244
10533TIP3   OH231543   5.524   1.036   5.072
10533TIP3    H131544   5.617   1.038   5.050
10533TIP3    H231545   5.505   0.943   5.088
10534TIP3   OH231546   4.900   7.757   3.562
10534TIP3    H131547   4.929   7.677   3.605
10534TIP3    H231548   4.980   7.793   3.523
10535TIP3   OH231549   2.423   6.660   5.079
10535TIP3    H131550   2.438   6.592   5.014
10535TIP3    H231551   2.510   6.695   5.098
10536TIP3   OH231552   7.941   4.706   4.268
10536TIP3    H131553   7.924   4.668   4.182
10536TIP3    H231554   7.950   4.631   4.327
10537TIP3   OH231555   3.176   3.852   6.459
10537TIP3    H131556   3.106   3.887   6.514
10537TIP3    H231557   3.255   3.861   6.511
10538TIP3   OH231558   4.323   3.806   0.870
10538TIP3    H131559   4.406   3.761   0.883
10538TIP3    H231560   4.267   3.775   0.941
10539TIP3   OH231561   7.735   5.374   4.907
10539TIP3    H131562   7.679   5.422   4.846
10539TIP3    H231563   7.737   5.429   4.985
10540TIP3   OH231564   4.568   3.710   0.913
10540TIP3    H131565   4.611   3.662   0.842
10540TIP3    H231566   4.626   3.785   0.929
10541TIP3   OH231567   1.728   1.368   1.744
10541TIP3    H131568   1.725   1.361   1.648
10541TIP3    H231569   1.680   1.448   1.764
10542TIP3   OH231570   7.149   5.119   0.880
10542TIP3    H131571   7.185   5.069   0.807
10542TIP3    H231572   7.065   5.077   0.899
10543TIP3   OH231573   2.709   0.963   6.712
10543TIP3    H131574   2.628   0.954   6.662
10543TIP3    H231575   2.734   1.055   6.701
10544TIP3   OH231576   3.001   2.999   1.853
10544TIP3    H131577   2.934   2.956   1.906
10544TIP3    H231578   3.054   3.049   1.916
10545TIP3   OH231579   5.787   2.813   3.887
10545TIP3    H131580   5.697   2.810   3.857
10545TIP3    H231581   5.839   2.789   3.810
10546TIP3   OH231582   0.638   6.368   6.261
10546TIP3    H131583   0.702   6.340   6.326
10546TIP3    H231584   0.594   6.443   6.301
10547TIP3   OH231585   3.574   7.704   1.162
10547TIP3    H131586   3.658   7.659   1.172
10547TIP3    H231587   3.519   7.643   1.114
10548TIP3   OH231588   7.519   3.874   5.740
10548TIP3    H131589   7.600   3.845   5.700
10548TIP3    H231590   7.531   3.968   5.754
10549TIP3   OH231591   7.637   4.537   2.968
10549TIP3    H131592   7.616   4.547   3.061
10549TIP3    H231593   7.728   4.507   2.966
10550TIP3   OH231594   6.541   0.352   3.732
10550TIP3    H131595   6.604   0.291   3.771
10550TIP3    H231596   6.476   0.367   3.800
10551TIP3   OH231597   6.200   1.819   0.685
10551TIP3    H131598   6.231   1.887   0.744
10551TIP3    H231599   6.165   1.866   0.610
10552TIP3   OH231600   5.565   1.592   5.978
10552TIP3    H131601   5.479   1.617   6.012
10552TIP3    H231602   5.612   1.674   5.967
10553TIP3   OH231603   4.718   0.455   5.877
10553TIP3    H131604   4.674   0.370   5.871
10553TIP3    H231605   4.653   0.518   5.847
10554TIP3   OH231606   4.272   5.416   4.121
10554TIP3    H131607   4.178   5.414   4.102
10554TIP3    H231608   4.295   5.510   4.121
10555TIP3   OH231609   8.184   7.748   3.225
10555TIP3    H131610   8.103   7.760   3.175
10555TIP3    H231611   8.156   7.707   3.306
10556TIP3   OH231612   7.028   7.197   0.150
10556TIP3    H131613   7.037   7.101   0.146
10556TIP3    H231614   6.975   7.213   0.228
10557TIP3   OH231615   2.716   3.060   6.764
10557TIP3    H131616   2.625   3.043   6.739
10557TIP3    H231617   2.743   3.133   6.708
10558TIP3   OH231618   5.574   2.325   2.609
10558TIP3    H131619   5.568   2.414   2.643
10558TIP3    H231620   5.571   2.336   2.514
10559TIP3   OH231621   4.371   2.907   4.369
10559TIP3    H131622   4.411   2.993   4.376
10559TIP3    H231623   4.438   2.847   4.402
10560TIP3   OH231624   1.684   4.807   0.500
10560TIP3    H131625   1.726   4.888   0.472
10560TIP3    H231626   1.756   4.743   0.503
10561TIP3   OH231627   8.148   7.298   3.736
10561TIP3    H131628   8.164   7.204   3.741
10561TIP3    H231629   8.226   7.338   3.774
10562TIP3   OH231630   3.753   4.381   3.867
10562TIP3    H131631   3.816   4.384   3.939
10562TIP3    H231632   3.765   4.464   3.821
10563TIP3   OH231633   5.874   1.185   2.606
10563TIP3    H131634   5.838   1.099   2.587
10563TIP3    H231635   5.966   1.169   2.629
10564TIP3   OH231636   6.792   1.362   1.337
10564TIP3    H131637   6.751   1.441   1.300
10564TIP3    H231638   6.830   1.318   1.261
10565TIP3   OH231639   0.969   7.597   4.134
10565TIP3    H131640   0.963   7.529   4.201
10565TIP3    H231641   1.008   7.672   4.179
10566TIP3   OH231642   5.843   3.690   4.082
10566TIP3    H131643   5.863   3.611   4.032
10566TIP3    H231644   5.755   3.676   4.116
10567TIP3   OH231645   5.088   6.068   4.909
10567TIP3    H131646   5.172   6.108   4.888
10567TIP3    H231647   5.093   5.980   4.872
10568TIP3   OH231648   0.842   5.541   5.170
10568TIP3    H131649   0.818   5.544   5.263
10568TIP3    H231650   0.927   5.586   5.166
10569TIP3   OH231651   2.740   5.337   1.548
10569TIP3    H131652   2.786   5.360   1.629
10569TIP3    H231653   2.735   5.419   1.499
10570TIP3   OH231654   5.092   5.289   0.727
10570TIP3    H131655   5.003   5.273   0.695
10570TIP3    H231656   5.148   5.277   0.650
10571TIP3   OH231657   0.786   4.185   1.477
10571TIP3    H131658   0.819   4.242   1.546
10571TIP3    H231659   0.794   4.096   1.513
10572TIP3   OH231660   8.023   6.157   3.794
10572TIP3    H131661   8.054   6.076   3.835
10572TIP3    H231662   7.951   6.130   3.738
10573TIP3   OH231663   1.731   7.671   1.255
10573TIP3    H131664   1.715   7.592   1.203
10573TIP3    H231665   1.666   7.734   1.224
10574TIP3   OH231666   2.824   6.377   2.143
10574TIP3    H131667   2.849   6.455   2.093
10574TIP3    H231668   2.729   6.373   2.136
10575TIP3   OH231669   8.139   2.935   3.898
10575TIP3    H131670   8.119   2.928   3.805
10575TIP3    H231671   8.135   3.029   3.917
10576TIP3   OH231672   5.015   1.113   5.242
10576TIP3    H131673   4.928   1.085   5.215
10576TIP3    H231674   5.019   1.090   5.335
10577TIP3   OH231675   6.719   2.968   4.930
10577TIP3    H131676   6.671   3.029   4.874
10577TIP3    H231677   6.811   2.983   4.909
10578TIP3   OH231678   5.015   1.675   1.461
10578TIP3    H131679   4.972   1.589   1.457
10578TIP3    H231680   5.026   1.692   1.554
10579TIP3   OH231681   3.575   0.552   5.240
10579TIP3    H131682   3.597   0.568   5.332
10579TIP3    H231683   3.542   0.636   5.208
10580TIP3   OH231684   0.412   0.672   1.247
10580TIP3    H131685   0.347   0.702   1.310
10580TIP3    H231686   0.424   0.746   1.187
10581TIP3   OH231687   1.932   7.666   1.656
10581TIP3    H131688   1.912   7.728   1.727
10581TIP3    H231689   1.937   7.720   1.577
10582TIP3   OH231690   5.882   3.786   4.506
10582TIP3    H131691   5.967   3.770   4.465
10582TIP3    H231692   5.896   3.862   4.562
10583TIP3   OH231693   4.354   4.597   0.760
10583TIP3    H131694   4.269   4.641   0.763
10583TIP3    H231695   4.398   4.624   0.841
10584TIP3   OH231696   2.304   3.787   1.304
10584TIP3    H131697   2.272   3.867   1.263
10584TIP3    H231698   2.363   3.817   1.373
10585TIP3   OH231699   2.223   5.418   1.590
10585TIP3    H131700   2.308   5.463   1.582
10585TIP3    H231701   2.179   5.464   1.662
10586TIP3   OH231702   0.546   5.450   0.280
10586TIP3    H131703   0.511   5.538   0.293
10586TIP3    H231704   0.629   5.464   0.235
10587TIP3   OH231705   2.227   6.179   6.090
10587TIP3    H131706   2.147   6.140   6.127
10587TIP3    H231707   2.195   6.247   6.031
10588TIP3   OH231708   2.926   0.335   0.597
10588TIP3    H131709   2.917   0.410   0.656
10588TIP3    H231710   2.877   0.265   0.640
10589TIP3   OH231711   0.966   5.888   4.629
10589TIP3    H131712   0.887   5.934   4.658
10589TIP3    H231713   0.977   5.815   4.690
10590TIP3   OH231714   6.709   4.809   0.847
10590TIP3    H131715   6.630   4.768   0.814
10590TIP3    H231716   6.764   4.735   0.876
10591TIP3   OH231717   2.282   5.912   0.755
10591TIP3    H131718   2.366   5.915   0.800
10591TIP3    H231719   2.226   5.973   0.805
10592TIP3   OH231720   1.461   2.841   1.023
10592TIP3    H131721   1.454   2.931   1.055
10592TIP3    H231722   1.421   2.788   1.092
10593TIP3   OH231723   8.034   4.445   3.291
10593TIP3    H131724   8.005   4.414   3.377
10593TIP3    H231725   7.968   4.413   3.230
10594TIP3   OH231726   4.580   5.356   0.787
10594TIP3    H131727   4.569   5.281   0.847
10594TIP3    H231728   4.556   5.432   0.840
10595TIP3   OH231729   5.973   4.275   2.054
10595TIP3    H131730   5.959   4.209   2.121
10595TIP3    H231731   5.919   4.246   1.980
10596TIP3   OH231732   3.962   5.695   5.092
10596TIP3    H131733   3.880   5.688   5.043
10596TIP3    H231734   3.951   5.635   5.166
10597TIP3   OH231735   7.959   7.306   1.652
10597TIP3    H131736   8.004   7.294   1.736
10597TIP3    H231737   7.887   7.366   1.673
10598TIP3   OH231738   2.937   7.749   1.680
10598TIP3    H131739   2.845   7.756   1.705
10598TIP3    H231740   2.978   7.827   1.718
10599TIP3   OH231741   2.654   6.270   6.457
10599TIP3    H131742   2.607   6.191   6.430
10599TIP3    H231743   2.705   6.295   6.380
10600TIP3   OH231744   4.096   1.051   4.300
10600TIP3    H131745   4.020   1.015   4.254
10600TIP3    H231746   4.141   1.103   4.233
10601TIP3   OH231747   1.880   4.677   0.676
10601TIP3    H131748   1.891   4.609   0.744
10601TIP3    H231749   1.969   4.695   0.647
10602TIP3   OH231750   0.444   5.738   2.769
10602TIP3    H131751   0.388   5.663   2.785
10602TIP3    H231752   0.482   5.758   2.855
10603TIP3   OH231753   6.290   5.963   6.351
10603TIP3    H131754   6.265   5.882   6.305
10603TIP3    H231755   6.231   5.966   6.427
10604TIP3   OH231756   0.859   0.552   4.564
10604TIP3    H131757   0.792   0.501   4.518
10604TIP3    H231758   0.816   0.635   4.584
10605TIP3   OH231759   6.385   1.486   1.661
10605TIP3    H131760   6.409   1.399   1.691
10605TIP3    H231761   6.295   1.499   1.692
10606TIP3   OH231762   0.900   5.121   3.030
10606TIP3    H131763   0.923   5.189   2.967
10606TIP3    H231764   0.865   5.169   3.105
10607TIP3   OH231765   3.887   3.445   3.373
10607TIP3    H131766   3.875   3.495   3.292
10607TIP3    H231767   3.805   3.455   3.421
10608TIP3   OH231768   8.059   7.023   4.282
10608TIP3    H131769   8.016   6.941   4.261
10608TIP3    H231770   7.989   7.081   4.311
10609TIP3   OH231771   6.090   1.375   4.160
10609TIP3    H131772   6.114   1.465   4.139
10609TIP3    H231773   6.127   1.323   4.089
10610TIP3   OH231774   4.668   1.125   0.069
10610TIP3    H131775   4.673   1.075   0.151
10610TIP3    H231776   4.708   1.210   0.090
10611TIP3   OH231777   3.533   3.738   0.514
10611TIP3    H131778   3.599   3.686   0.559
10611TIP3    H231779   3.552   3.828   0.540
10612TIP3   OH231780   5.183   0.814   5.888
10612TIP3    H131781   5.177   0.724   5.922
10612TIP3    H231782   5.105   0.858   5.922
10613TIP3   OH231783   4.182   3.672   6.735
10613TIP3    H131784   4.191   3.682   6.830
10613TIP3    H231785   4.262   3.626   6.708
10614TIP3   OH231786   5.444   6.052   0.882
10614TIP3    H131787   5.358   6.009   0.884
10614TIP3    H231788   5.505   5.980   0.865
10615TIP3   OH231789   5.633   6.369   0.235
10615TIP3    H131790   5.711   6.316   0.246
10615TIP3    H231791   5.640   6.405   0.147
10616TIP3   OH231792   6.733   0.514   0.816
10616TIP3    H131793   6.707   0.493   0.906
10616TIP3    H231794   6.729   0.431   0.769
10617TIP3   OH231795   0.179   5.210   4.871
10617TIP3    H131796   0.143   5.242   4.789
10617TIP3    H231797   0.257   5.162   4.846
10618TIP3   OH231798   0.365   3.940   2.106
10618TIP3    H131799   0.304   3.991   2.053
10618TIP3    H231800   0.352   3.850   2.077
10619TIP3   OH231801   4.417   5.944   0.511
10619TIP3    H131802   4.478   5.878   0.544
10619TIP3    H231803   4.402   5.919   0.420
10620TIP3   OH231804   6.094   6.075   0.808
10620TIP3    H131805   6.132   6.045   0.726
10620TIP3    H231806   5.999   6.076   0.792
10621TIP3   OH231807   4.283   4.762   0.268
10621TIP3    H131808   4.303   4.802   0.183
10621TIP3    H231809   4.194   4.788   0.287
10622TIP3   OH231810   3.316   7.690   3.687
10622TIP3    H131811   3.243   7.750   3.704
10622TIP3    H231812   3.276   7.618   3.639
10623TIP3   OH231813   2.152   3.144   3.666
10623TIP3    H131814   2.094   3.164   3.739
10623TIP3    H231815   2.110   3.072   3.620
10624TIP3   OH231816   5.171   1.920   6.323
10624TIP3    H131817   5.164   1.988   6.256
10624TIP3    H231818   5.083   1.914   6.361
10625TIP3   OH231819   8.070   1.777   3.389
10625TIP3    H131820   8.095   1.774   3.481
10625TIP3    H231821   7.977   1.753   3.389
10626TIP3   OH231822   4.960   3.277   2.797
10626TIP3    H131823   4.872   3.299   2.766
10626TIP3    H231824   4.963   3.182   2.794
10627TIP3   OH231825   4.223   4.141   1.251
10627TIP3    H131826   4.248   4.108   1.165
10627TIP3    H231827   4.306   4.147   1.299
10628TIP3   OH231828   7.281   6.463   5.110
10628TIP3    H131829   7.227   6.387   5.133
10628TIP3    H231830   7.304   6.449   5.018
10629TIP3   OH231831   5.409   5.321   4.798
10629TIP3    H131832   5.429   5.372   4.719
10629TIP3    H231833   5.317   5.297   4.788
10630TIP3   OH231834   0.561   0.683   5.176
10630TIP3    H131835   0.558   0.647   5.087
10630TIP3    H231836   0.604   0.615   5.228
10631TIP3   OH231837   1.860   6.682   1.440
10631TIP3    H131838   1.806   6.720   1.371
10631TIP3    H231839   1.947   6.718   1.425
10632TIP3   OH231840   0.623   3.581   3.860
10632TIP3    H131841   0.647   3.528   3.936
10632TIP3    H231842   0.607   3.517   3.791
10633TIP3   OH231843   2.828   6.109   4.587
10633TIP3    H131844   2.879   6.159   4.524
10633TIP3    H231845   2.849   6.147   4.672
10634TIP3   OH231846   1.054   6.850   5.413
10634TIP3    H131847   0.978   6.794   5.396
10634TIP3    H231848   1.048   6.920   5.348
10635TIP3   OH231849   6.642   3.325   5.190
10635TIP3    H131850   6.687   3.334   5.106
10635TIP3    H231851   6.697   3.372   5.252
10636TIP3   OH231852   4.094   2.528   0.370
10636TIP3    H131853   4.082   2.609   0.321
10636TIP3    H231854   4.172   2.543   0.423
10637TIP3   OH231855   1.689   7.407   3.624
10637TIP3    H131856   1.657   7.411   3.534
10637TIP3    H231857   1.611   7.397   3.678
10638TIP3   OH231858   6.050   6.485   4.137
10638TIP3    H131859   5.989   6.423   4.096
10638TIP3    H231860   6.046   6.463   4.231
10639TIP3   OH231861   0.127   5.015   1.870
10639TIP3    H131862   0.105   4.977   1.955
10639TIP3    H231863   0.092   4.953   1.806
10640TIP3   OH231864   4.591   0.500   2.140
10640TIP3    H131865   4.620   0.445   2.067
10640TIP3    H231866   4.549   0.439   2.200
10641TIP3   OH231867   7.352   3.614   0.588
10641TIP3    H131868   7.370   3.530   0.629
10641TIP3    H231869   7.285   3.596   0.523
10642TIP3   OH231870   6.572   2.238   0.774
10642TIP3    H131871   6.657   2.231   0.818
10642TIP3    H231872   6.558   2.152   0.735
10643TIP3   OH231873   5.701   1.628   0.610
10643TIP3    H131874   5.685   1.576   0.689
10643TIP3    H231875   5.678   1.717   0.636
10644TIP3   OH231876   5.100   0.170   0.413
10644TIP3    H131877   5.162   0.148   0.343
10644TIP3    H231878   5.072   0.259   0.392
10645TIP3   OH231879   7.487   2.718   6.171
10645TIP3    H131880   7.502   2.778   6.097
10645TIP3    H231881   7.463   2.775   6.244
10646TIP3   OH231882   3.729   6.430   3.471
10646TIP3    H131883   3.716   6.339   3.499
10646TIP3    H231884   3.715   6.428   3.376
10647TIP3   OH231885   3.529   4.074   4.489
10647TIP3    H131886   3.524   3.986   4.450
10647TIP3    H231887   3.552   4.131   4.416
10648TIP3   OH231888   6.608   1.742   3.457
10648TIP3    H131889   6.577   1.793   3.381
10648TIP3    H231890   6.537   1.683   3.478
10649TIP3   OH231891   5.342   2.431   5.959
10649TIP3    H131892   5.275   2.418   5.893
10649TIP3    H231893   5.296   2.470   6.033
10650TIP3   OH231894   0.322   2.403   4.888
10650TIP3    H131895   0.271   2.325   4.909
10650TIP3    H231896   0.288   2.433   4.804
10651TIP3   OH231897   8.164   3.902   2.935
10651TIP3    H131898   8.143   3.861   2.851
10651TIP3    H231899   8.097   3.869   2.995
10652TIP3   OH231900   2.912   6.215   4.821
10652TIP3    H131901   3.005   6.215   4.800
10652TIP3    H231902   2.904   6.275   4.895
10653TIP3   OH231903   6.561   1.805   0.766
10653TIP3    H131904   6.647   1.795   0.726
10653TIP3    H231905   6.499   1.783   0.696
10654TIP3   OH231906   7.781   0.243   1.238
10654TIP3    H131907   7.782   0.253   1.333
10654TIP3    H231908   7.691   0.218   1.217
10655TIP3   OH231909   0.703   0.600   0.518
10655TIP3    H131910   0.641   0.529   0.536
10655TIP3    H231911   0.751   0.570   0.441
10656TIP3   OH231912   5.539   6.805   1.664
10656TIP3    H131913   5.462   6.834   1.615
10656TIP3    H231914   5.561   6.879   1.720
10657TIP3   OH231915   4.020   7.418   0.330
10657TIP3    H131916   3.940   7.369   0.346
10657TIP3    H231917   4.089   7.352   0.333
10658TIP3   OH231918   1.947   3.859   6.643
10658TIP3    H131919   1.853   3.875   6.655
10658TIP3    H231920   1.959   3.855   6.548
10659TIP3   OH231921   3.253   6.285   6.580
10659TIP3    H131922   3.185   6.350   6.563
10659TIP3    H231923   3.262   6.237   6.498
10660TIP3   OH231924   6.141   7.380   1.190
10660TIP3    H131925   6.227   7.388   1.150
10660TIP3    H231926   6.127   7.286   1.198
10661TIP3   OH231927   4.262   2.301   5.057
10661TIP3    H131928   4.211   2.222   5.076
10661TIP3    H231929   4.271   2.300   4.961
10662TIP3   OH231930   5.675   3.228   0.141
10662TIP3    H131931   5.686   3.188   0.054
10662TIP3    H231932   5.591   3.274   0.135
10663TIP3   OH231933   1.454   0.026   1.546
10663TIP3    H131934   1.468   0.095   1.481
10663TIP3    H231935   1.494   0.060   1.626
10664TIP3   OH231936   1.845   4.627   5.016
10664TIP3    H131937   1.862   4.533   5.014
10664TIP3    H231938   1.889   4.661   4.938
10665TIP3   OH231939   2.584   2.961   2.250
10665TIP3    H131940   2.620   3.047   2.229
10665TIP3    H231941   2.510   2.978   2.308
10666TIP3   OH231942   4.561   7.599   1.084
10666TIP3    H131943   4.493   7.538   1.114
10666TIP3    H231944   4.512   7.676   1.055
10667TIP3   OH231945   4.429   3.359   4.302
10667TIP3    H131946   4.425   3.304   4.224
10667TIP3    H231947   4.396   3.304   4.372
10668TIP3   OH231948   4.195   4.003   4.469
10668TIP3    H131949   4.268   3.942   4.481
10668TIP3    H231950   4.237   4.088   4.458
10669TIP3   OH231951   6.809   6.538   5.984
10669TIP3    H131952   6.860   6.477   5.932
10669TIP3    H231953   6.869   6.611   6.000
10670TIP3   OH231954   2.931   6.547   5.914
10670TIP3    H131955   2.964   6.610   5.850
10670TIP3    H231956   2.838   6.541   5.895
10671TIP3   OH231957   6.968   7.544   1.330
10671TIP3    H131958   6.992   7.483   1.260
10671TIP3    H231959   6.919   7.613   1.285
10672TIP3   OH231960   3.298   6.860   0.810
10672TIP3    H131961   3.268   6.812   0.888
10672TIP3    H231962   3.256   6.814   0.737
10673TIP3   OH231963   0.509   6.090   2.402
10673TIP3    H131964   0.443   6.144   2.446
10673TIP3    H231965   0.458   6.025   2.353
10674TIP3   OH231966   2.360   7.710   4.281
10674TIP3    H131967   2.411   7.645   4.232
10674TIP3    H231968   2.424   7.757   4.334
10675TIP3   OH231969   0.667   6.874   4.314
10675TIP3    H131970   0.649   6.968   4.310
10675TIP3    H231971   0.625   6.844   4.394
10676TIP3   OH231972   6.853   0.118   1.423
10676TIP3    H131973   6.779   0.080   1.376
10676TIP3    H231974   6.925   0.115   1.359
10677TIP3   OH231975   6.389   7.830   1.541
10677TIP3    H131976   6.485   7.830   1.547
10677TIP3    H231977   6.371   7.800   1.452
10678TIP3   OH231978   5.734   6.690   4.010
10678TIP3    H131979   5.780   6.629   3.953
10678TIP3    H231980   5.642   6.665   4.005
10679TIP3   OH231981   5.996   4.712   4.214
10679TIP3    H131982   6.040   4.789   4.249
10679TIP3    H231983   5.971   4.662   4.291
10680TIP3   OH231984   6.679   5.067   3.185
10680TIP3    H131985   6.754   5.011   3.204
10680TIP3    H231986   6.714   5.134   3.125
10681TIP3   OH231987   3.052   5.911   1.198
10681TIP3    H131988   2.988   5.900   1.128
10681TIP3    H231989   3.013   5.866   1.273
10682TIP3   OH231990   6.891   3.262   0.036
10682TIP3    H131991   6.861   3.171   0.033
10682TIP3    H231992   6.812   3.313   0.054
10683TIP3   OH231993   4.044   6.330   1.485
10683TIP3    H131994   4.094   6.282   1.419
10683TIP3    H231995   4.066   6.422   1.470
10684TIP3   OH231996   4.236   0.707   5.074
10684TIP3    H131997   4.209   0.792   5.109
10684TIP3    H231998   4.311   0.727   5.018
10685TIP3   OH231999   2.740   2.705   4.411
10685TIP3    H132000   2.714   2.623   4.453
10685TIP3    H232001   2.662   2.733   4.363
10686TIP3   OH232002   8.120   2.423   1.848
10686TIP3    H132003   8.055   2.352   1.842
10686TIP3    H232004   8.113   2.468   1.764
10687TIP3   OH232005   4.877   1.448   6.472
10687TIP3    H132006   4.844   1.362   6.498
10687TIP3    H232007   4.900   1.490   6.555
10688TIP3   OH232008   0.221   5.591   0.178
10688TIP3    H132009   0.163   5.631   0.242
10688TIP3    H232010   0.307   5.628   0.198
10689TIP3   OH232011   0.125   0.102   1.186
10689TIP3    H132012   0.057   0.148   1.237
10689TIP3    H232013   0.080   0.025   1.150
10690TIP3   OH232014   1.531   7.558   5.949
10690TIP3    H132015   1.597   7.602   6.002
10690TIP3    H232016   1.560   7.467   5.944
10691TIP3   OH232017   3.744   2.646   0.321
10691TIP3    H132018   3.779   2.615   0.237
10691TIP3    H232019   3.650   2.628   0.317
10692TIP3   OH232020   7.281   0.215   3.669
10692TIP3    H132021   7.290   0.310   3.659
10692TIP3    H232022   7.186   0.200   3.665
10693TIP3   OH232023   6.136   3.977   6.732
10693TIP3    H132024   6.212   4.036   6.740
10693TIP3    H232025   6.129   3.937   6.818
10694TIP3   OH232026   6.694   0.118   5.695
10694TIP3    H132027   6.717   0.077   5.611
10694TIP3    H232028   6.778   0.141   5.734
10695TIP3   OH232029   2.958   0.043   5.346
10695TIP3    H132030   3.015   0.116   5.323
10695TIP3    H232031   2.986   0.016   5.433
10696TIP3   OH232032   7.424   6.181   6.246
10696TIP3    H132033   7.434   6.199   6.340
10696TIP3    H232034   7.504   6.217   6.207
10697TIP3   OH232035   2.879   1.293   2.694
10697TIP3    H132036   2.831   1.244   2.762
10697TIP3    H232037   2.837   1.266   2.612
10698TIP3   OH232038   0.450   6.942   2.986
10698TIP3    H132039   0.519   7.004   3.009
10698TIP3    H232040   0.494   6.857   2.981
10699TIP3   OH232041   5.871   6.546   3.822
10699TIP3    H132042   5.816   6.468   3.829
10699TIP3    H232043   5.876   6.563   3.727
10700TIP3   OH232044   2.538   5.426   1.321
10700TIP3    H132045   2.501   5.470   1.398
10700TIP3    H232046   2.500   5.474   1.247
10701TIP3   OH232047   2.565   0.596   4.981
10701TIP3    H132048   2.511   0.518   4.964
10701TIP3    H232049   2.638   0.564   5.033
10702TIP3   OH232050   7.746   2.959   4.802
10702TIP3    H132051   7.667   2.966   4.748
10702TIP3    H232052   7.794   3.040   4.784
10703TIP3   OH232053   4.308   4.792   6.276
10703TIP3    H132054   4.347   4.782   6.189
10703TIP3    H232055   4.378   4.827   6.330
10704TIP3   OH232056   6.722   3.488   1.611
10704TIP3    H132057   6.658   3.421   1.584
10704TIP3    H232058   6.769   3.448   1.684
10705TIP3   OH232059   1.732   2.768   3.408
10705TIP3    H132060   1.718   2.821   3.330
10705TIP3    H232061   1.674   2.693   3.397
10706TIP3   OH232062   6.635   2.440   3.509
10706TIP3    H132063   6.673   2.352   3.512
10706TIP3    H232064   6.549   2.431   3.549
10707TIP3   OH232065   4.517   4.070   2.657
10707TIP3    H132066   4.576   4.145   2.646
10707TIP3    H232067   4.432   4.109   2.677
10708TIP3   OH232068   0.846   0.905   3.163
10708TIP3    H132069   0.887   0.895   3.249
10708TIP3    H232070   0.836   0.816   3.131
10709TIP3   OH232071   8.022   7.491   4.321
10709TIP3    H132072   8.058   7.579   4.311
10709TIP3    H232073   7.983   7.491   4.408
10710TIP3   OH232074   7.184   6.080   2.545
10710TIP3    H132075   7.246   6.125   2.487
10710TIP3    H232076   7.122   6.039   2.485
10711TIP3   OH232077   3.690   2.321   0.510
10711TIP3    H132078   3.704   2.243   0.564
10711TIP3    H232079   3.778   2.347   0.483
10712TIP3   OH232080   0.045   1.071   2.919
10712TIP3    H132081   0.028   0.997   2.977
10712TIP3    H232082   0.099   1.034   2.849
10713TIP3   OH232083   3.382   3.544   1.265
10713TIP3    H132084   3.346   3.460   1.293
10713TIP3    H232085   3.364   3.604   1.338
10714TIP3   OH232086   8.204   5.802   0.035
10714TIP3    H132087   8.132   5.854   0.069
10714TIP3    H232088   8.220   5.836  -0.053
10715TIP3   OH232089   0.273   4.463   2.505
10715TIP3    H132090   0.344   4.410   2.469
10715TIP3    H232091   0.316   4.534   2.552
10716TIP3   OH232092   5.301   6.699   4.854
10716TIP3    H132093   5.352   6.627   4.890
10716TIP3    H232094   5.215   6.690   4.895
10717TIP3   OH232095   5.650   4.337   5.157
10717TIP3    H132096   5.626   4.430   5.158
10717TIP3    H232097   5.568   4.291   5.172
10718TIP3   OH232098   4.237   2.658   2.014
10718TIP3    H132099   4.212   2.740   2.056
10718TIP3    H232100   4.287   2.685   1.937
10719TIP3   OH232101   5.983   3.913   4.068
10719TIP3    H132102   5.935   3.971   4.009
10719TIP3    H232103   5.943   3.827   4.056
10720TIP3   OH232104   3.289   5.804   3.131
10720TIP3    H132105   3.370   5.770   3.170
10720TIP3    H232106   3.299   5.899   3.134
10721TIP3   OH232107   2.492   6.976   6.087
10721TIP3    H132108   2.485   7.052   6.029
10721TIP3    H232109   2.559   6.921   6.047
10722TIP3   OH232110   5.032   6.206   1.533
10722TIP3    H132111   4.937   6.222   1.538
10722TIP3    H232112   5.064   6.222   1.622
10723TIP3   OH232113   0.243   0.950   1.934
10723TIP3    H132114   0.248   1.036   1.975
10723TIP3    H232115   0.244   0.967   1.840
10724TIP3   OH232116   6.957   3.295   1.302
10724TIP3    H132117   6.975   3.300   1.208
10724TIP3    H232118   6.867   3.326   1.311
10725TIP3   OH232119   8.053   5.549   3.187
10725TIP3    H132120   8.090   5.527   3.272
10725TIP3    H232121   7.959   5.538   3.198
10726TIP3   OH232122   3.387   6.507   0.606
10726TIP3    H132123   3.335   6.469   0.535
10726TIP3    H232124   3.475   6.513   0.571
10727TIP3   OH232125   5.932   7.407   4.443
10727TIP3    H132126   6.009   7.352   4.447
10727TIP3    H232127   5.952   7.482   4.499
10728TIP3   OH232128   4.420   1.735   3.841
10728TIP3    H132129   4.459   1.821   3.824
10728TIP3    H232130   4.352   1.752   3.907
10729TIP3   OH232131   2.808   1.237   1.522
10729TIP3    H132132   2.861   1.282   1.457
10729TIP3    H232133   2.837   1.274   1.606
10730TIP3   OH232134   4.486   2.491   5.846
10730TIP3    H132135   4.458   2.484   5.937
10730TIP3    H232136   4.407   2.473   5.795
10731TIP3   OH232137   3.713   4.473   4.673
10731TIP3    H132138   3.636   4.523   4.647
10731TIP3    H232139   3.771   4.538   4.714
10732TIP3   OH232140   1.859   0.530   3.477
10732TIP3    H132141   1.846   0.439   3.451
10732TIP3    H232142   1.945   0.531   3.520
10733TIP3   OH232143   2.760   0.476   5.153
10733TIP3    H132144   2.831   0.521   5.197
10733TIP3    H232145   2.794   0.388   5.136
10734TIP3   OH232146   3.986   7.173   2.978
10734TIP3    H132147   4.051   7.241   2.964
10734TIP3    H232148   4.014   7.100   2.922
10735TIP3   OH232149   5.161   5.383   1.268
10735TIP3    H132150   5.141   5.444   1.339
10735TIP3    H232151   5.165   5.438   1.189
10736TIP3   OH232152   3.297   5.280   2.307
10736TIP3    H132153   3.390   5.284   2.329
10736TIP3    H232154   3.254   5.324   2.381
10737TIP3   OH232155   7.480   3.092   5.883
10737TIP3    H132156   7.432   3.135   5.813
10737TIP3    H232157   7.477   3.153   5.956
10738TIP3   OH232158   4.939   5.750   3.084
10738TIP3    H132159   4.870   5.694   3.120
10738TIP3    H232160   4.944   5.823   3.145
10739TIP3   OH232161   7.472   5.784   2.055
10739TIP3    H132162   7.437   5.772   2.143
10739TIP3    H232163   7.567   5.786   2.068
10740TIP3   OH232164   5.145   6.650   1.552
10740TIP3    H132165   5.198   6.620   1.478
10740TIP3    H232166   5.087   6.716   1.514
10741TIP3   OH232167   3.348   2.613   2.569
10741TIP3    H132168   3.358   2.672   2.495
10741TIP3    H232169   3.423   2.553   2.562
10742TIP3   OH232170   1.993   5.110   5.383
10742TIP3    H132171   1.977   5.023   5.419
10742TIP3    H232172   1.913   5.133   5.338
10743TIP3   OH232173   5.608   3.045   6.632
10743TIP3    H132174   5.519   3.029   6.665
10743TIP3    H232175   5.648   2.959   6.625
10744TIP3   OH232176   2.753   5.654   4.361
10744TIP3    H132177   2.717   5.577   4.317
10744TIP3    H232178   2.700   5.727   4.329
10745TIP3   OH232179   2.843   3.941   5.914
10745TIP3    H132180   2.908   3.873   5.896
10745TIP3    H232181   2.785   3.940   5.838
10746TIP3   OH232182   0.274   0.002   2.330
10746TIP3    H132183   0.198   0.024   2.275
10746TIP3    H232184   0.349   0.034   2.280
10747TIP3   OH232185   7.148   7.503   5.055
10747TIP3    H132186   7.125   7.596   5.057
10747TIP3    H232187   7.240   7.502   5.030
10748TIP3   OH232188   5.372   3.864   3.809
10748TIP3    H132189   5.413   3.802   3.748
10748TIP3    H232190   5.310   3.811   3.859
10749TIP3   OH232191   5.674   2.423   4.725
10749TIP3    H132192   5.760   2.465   4.733
10749TIP3    H232193   5.619   2.487   4.681
10750TIP3   OH232194   0.638   4.931   1.267
10750TIP3    H132195   0.546   4.940   1.293
10750TIP3    H232196   0.651   5.001   1.203
10751TIP3   OH232197   0.387   3.036   0.297
10751TIP3    H132198   0.334   3.115   0.303
10751TIP3    H232199   0.472   3.066   0.265
10752TIP3   OH232200   5.435   4.303   0.325
10752TIP3    H132201   5.456   4.210   0.315
10752TIP3    H232202   5.455   4.321   0.417
10753TIP3   OH232203   6.986   3.747   4.804
10753TIP3    H132204   6.940   3.715   4.881
10753TIP3    H232205   6.936   3.712   4.729
10754TIP3   OH232206   4.166   4.398   5.718
10754TIP3    H132207   4.211   4.473   5.757
10754TIP3    H232208   4.198   4.322   5.767
10755TIP3   OH232209   2.126   7.039   5.807
10755TIP3    H132210   2.082   6.998   5.882
10755TIP3    H232211   2.216   7.006   5.811
10756TIP3   OH232212   6.655   5.228   1.783
10756TIP3    H132213   6.700   5.310   1.805
10756TIP3    H232214   6.646   5.231   1.688
10757TIP3   OH232215   0.068   5.268   1.596
10757TIP3    H132216  -0.017   5.304   1.619
10757TIP3    H232217   0.065   5.258   1.501
10758TIP3   OH232218   2.616   6.639   1.123
10758TIP3    H132219   2.675   6.677   1.188
10758TIP3    H232220   2.674   6.587   1.066
10759TIP3   OH232221   0.945   1.798   4.891
10759TIP3    H132222   1.009   1.840   4.949
10759TIP3    H232223   0.985   1.714   4.869
10760TIP3   OH232224   3.005   7.342   2.632
10760TIP3    H132225   2.926   7.333   2.685
10760TIP3    H232226   2.994   7.277   2.562
10761TIP3   OH232227   0.832   0.233   1.289
10761TIP3    H132228   0.788   0.224   1.373
10761TIP3    H232229   0.917   0.273   1.311
10762TIP3   OH232230   1.053   1.171   0.493
10762TIP3    H132231   1.079   1.093   0.542
10762TIP3    H232232   0.997   1.220   0.554
10763TIP3   OH232233   0.161   2.935   0.535
10763TIP3    H132234   0.091   2.919   0.471
10763TIP3    H232235   0.188   2.848   0.563
10764TIP3   OH232236   1.859   6.605   5.216
10764TIP3    H132237   1.933   6.547   5.233
10764TIP3    H232238   1.789   6.547   5.185
10765TIP3   OH232239   6.313   6.988   5.692
10765TIP3    H132240   6.219   7.005   5.692
10765TIP3    H232241   6.320   6.893   5.681
10766TIP3   OH232242   5.830   4.037   1.102
10766TIP3    H132243   5.746   4.081   1.118
10766TIP3    H232244   5.874   4.094   1.039
10767TIP3   OH232245   4.348   5.122   3.432
10767TIP3    H132246   4.429   5.118   3.481
10767TIP3    H232247   4.283   5.151   3.496
10768TIP3   OH232248   4.649   6.280   3.763
10768TIP3    H132249   4.653   6.269   3.858
10768TIP3    H232250   4.605   6.364   3.751
10769TIP3   OH232251   0.780   2.752   3.103
10769TIP3    H132252   0.803   2.800   3.182
10769TIP3    H232253   0.685   2.745   3.106
10770TIP3   OH232254   3.749   7.722   2.233
10770TIP3    H132255   3.714   7.772   2.307
10770TIP3    H232256   3.760   7.633   2.267
10771TIP3   OH232257   4.545   1.635   0.179
10771TIP3    H132258   4.482   1.645   0.108
10771TIP3    H232259   4.625   1.606   0.135
10772TIP3   OH232260   4.572   5.070   3.951
10772TIP3    H132261   4.561   5.001   3.885
10772TIP3    H232262   4.622   5.139   3.905
10773TIP3   OH232263   4.041   1.854   2.464
10773TIP3    H132264   4.093   1.824   2.389
10773TIP3    H232265   3.963   1.893   2.425
10774TIP3   OH232266   5.800   3.917   0.545
10774TIP3    H132267   5.717   3.896   0.587
10774TIP3    H232268   5.775   3.952   0.459
10775TIP3   OH232269   4.202   7.293   0.819
10775TIP3    H132270   4.222   7.386   0.827
10775TIP3    H232271   4.285   7.249   0.834
10776TIP3   OH232272   1.338   0.498   0.768
10776TIP3    H132273   1.417   0.502   0.714
10776TIP3    H232274   1.362   0.441   0.841
10777TIP3   OH232275   1.773   4.098   5.779
10777TIP3    H132276   1.860   4.126   5.808
10777TIP3    H232277   1.723   4.179   5.770
10778TIP3   OH232278   4.665   2.381   0.566
10778TIP3    H132279   4.657   2.299   0.518
10778TIP3    H232280   4.669   2.449   0.498
10779TIP3   OH232281   6.861   7.187   3.475
10779TIP3    H132282   6.787   7.191   3.415
10779TIP3    H232283   6.847   7.261   3.535
10780TIP3   OH232284   3.924   7.324   5.227
10780TIP3    H132285   3.876   7.317   5.310
10780TIP3    H232286   3.962   7.411   5.229
10781TIP3   OH232287   5.975   6.024   5.915
10781TIP3    H132288   6.052   6.077   5.893
10781TIP3    H232289   5.937   6.000   5.830
10782TIP3   OH232290   2.571   2.938   1.861
10782TIP3    H132291   2.515   2.942   1.784
10782TIP3    H232292   2.575   3.029   1.893
10783TIP3   OH232293   4.076   5.077   6.714
10783TIP3    H132294   4.061   5.171   6.709
10783TIP3    H232295   3.995   5.038   6.681
10784TIP3   OH232296   0.762   2.304   5.171
10784TIP3    H132297   0.742   2.366   5.101
10784TIP3    H232298   0.719   2.223   5.145
10785TIP3   OH232299   2.909   7.052   5.818
10785TIP3    H132300   2.968   7.046   5.744
10785TIP3    H232301   2.962   7.092   5.888
10786TIP3   OH232302   4.405   2.648   3.231
10786TIP3    H132303   4.454   2.605   3.161
10786TIP3    H232304   4.463   2.644   3.307
10787TIP3   OH232305   6.245   7.824   3.430
10787TIP3    H132306   6.306   7.878   3.380
10787TIP3    H232307   6.226   7.749   3.374
10788TIP3   OH232308   6.212   0.597   0.620
10788TIP3    H132309   6.193   0.607   0.713
10788TIP3    H232310   6.189   0.681   0.581
10789TIP3   OH232311   5.701   1.805   1.330
10789TIP3    H132312   5.677   1.803   1.237
10789TIP3    H232313   5.796   1.789   1.331
10790TIP3   OH232314   2.685   3.777   3.343
10790TIP3    H132315   2.779   3.766   3.330
10790TIP3    H232316   2.676   3.800   3.436
10791TIP3   OH232317   3.311   5.972   1.237
10791TIP3    H132318   3.319   6.066   1.257
10791TIP3    H232319   3.219   5.952   1.252
10792TIP3   OH232320   2.994   0.890   0.941
10792TIP3    H132321   3.075   0.938   0.923
10792TIP3    H232322   2.935   0.915   0.870
10793TIP3   OH232323   1.505   4.634   3.667
10793TIP3    H132324   1.479   4.612   3.756
10793TIP3    H232325   1.473   4.561   3.614
10794TIP3   OH232326   7.088   2.707   2.716
10794TIP3    H132327   7.097   2.612   2.713
10794TIP3    H232328   7.096   2.729   2.809
10795TIP3   OH232329   4.892   4.709   6.002
10795TIP3    H132330   4.987   4.707   5.986
10795TIP3    H232331   4.854   4.728   5.916
10796TIP3   OH232332   4.902   2.578   0.436
10796TIP3    H132333   4.869   2.642   0.498
10796TIP3    H232334   4.981   2.543   0.477
10797TIP3   OH232335   2.438   4.141   3.168
10797TIP3    H132336   2.458   4.113   3.257
10797TIP3    H232337   2.372   4.210   3.178
10798TIP3   OH232338   2.896   3.732   5.581
10798TIP3    H132339   2.970   3.713   5.523
10798TIP3    H232340   2.915   3.685   5.662
10799TIP3   OH232341   6.364   1.722   5.213
10799TIP3    H132342   6.370   1.725   5.308
10799TIP3    H232343   6.406   1.639   5.188
10800TIP3   OH232344   0.419   6.851   6.577
10800TIP3    H132345   0.480   6.890   6.515
10800TIP3    H232346   0.453   6.762   6.592
10801TIP3   OH232347   3.048   5.688   4.364
10801TIP3    H132348   3.080   5.772   4.331
10801TIP3    H232349   2.956   5.686   4.336
10802TIP3   OH232350   4.123   7.571   1.055
10802TIP3    H132351   4.073   7.647   1.025
10802TIP3    H232352   4.196   7.565   0.994
10803TIP3   OH232353   6.854   1.503   3.910
10803TIP3    H132354   6.813   1.418   3.900
10803TIP3    H232355   6.817   1.556   3.840
10804TIP3   OH232356   2.163   7.065   1.414
10804TIP3    H132357   2.255   7.057   1.388
10804TIP3    H232358   2.131   7.141   1.366
10805TIP3   OH232359   1.596   4.248   6.322
10805TIP3    H132360   1.589   4.341   6.300
10805TIP3    H232361   1.567   4.202   6.242
10806TIP3   OH232362   8.092   4.697   0.748
10806TIP3    H132363   8.160   4.747   0.794
10806TIP3    H232364   8.063   4.754   0.677
10807TIP3   OH232365   5.226   1.087   5.036
10807TIP3    H132366   5.182   1.064   4.954
10807TIP3    H232367   5.157   1.085   5.102
10808TIP3   OH232368   3.332   7.801   2.668
10808TIP3    H132369   3.407   7.826   2.722
10808TIP3    H232370   3.370   7.787   2.581
10809TIP3   OH232371   0.189   5.019   3.404
10809TIP3    H132372   0.112   5.068   3.373
10809TIP3    H232373   0.232   5.079   3.464
10810TIP3   OH232374   4.194   6.762   1.911
10810TIP3    H132375   4.220   6.852   1.932
10810TIP3    H232376   4.217   6.751   1.819
10811TIP3   OH232377   4.673   6.408   1.840
10811TIP3    H132378   4.604   6.342   1.851
10811TIP3    H232379   4.722   6.405   1.922
10812TIP3   OH232380   7.691   2.952   2.103
10812TIP3    H132381   7.766   2.951   2.161
10812TIP3    H232382   7.618   2.921   2.157
10813TIP3   OH232383   0.745   5.592   4.929
10813TIP3    H132384   0.804   5.665   4.910
10813TIP3    H232385   0.761   5.571   5.022
10814TIP3   OH232386   4.560   1.971   3.773
10814TIP3    H132387   4.530   2.050   3.730
10814TIP3    H232388   4.546   1.988   3.867
10815TIP3   OH232389   7.617   6.511   4.950
10815TIP3    H132390   7.573   6.541   5.029
10815TIP3    H232391   7.575   6.427   4.930
10816TIP3   OH232392   5.243   3.060   2.153
10816TIP3    H132393   5.221   3.144   2.193
10816TIP3    H232394   5.165   3.034   2.105
10817TIP3   OH232395   3.782   2.309   4.707
10817TIP3    H132396   3.770   2.379   4.642
10817TIP3    H232397   3.863   2.332   4.752
10818TIP3   OH232398   6.561   5.273   5.669
10818TIP3    H132399   6.509   5.317   5.602
10818TIP3    H232400   6.602   5.345   5.718
10819TIP3   OH232401   7.433   1.088   2.324
10819TIP3    H132402   7.375   1.164   2.322
10819TIP3    H232403   7.513   1.117   2.281
10820TIP3   OH232404   5.308   5.628   0.609
10820TIP3    H132405   5.273   5.667   0.529
10820TIP3    H232406   5.231   5.599   0.657
10821TIP3   OH232407   1.272   2.639   6.726
10821TIP3    H132408   1.208   2.569   6.739
10821TIP3    H232409   1.355   2.602   6.756
10822TIP3   OH232410   4.019   6.866   6.380
10822TIP3    H132411   3.933   6.900   6.355
10822TIP3    H232412   4.065   6.943   6.414
10823TIP3   OH232413   6.539   2.875   2.279
10823TIP3    H132414   6.450   2.868   2.313
10823TIP3    H232415   6.591   2.905   2.353
10824TIP3   OH232416   5.813   3.078   4.441
10824TIP3    H132417   5.761   3.154   4.465
10824TIP3    H232418   5.871   3.109   4.371
10825TIP3   OH232419   6.646   5.796   1.017
10825TIP3    H132420   6.585   5.799   0.943
10825TIP3    H232421   6.601   5.843   1.087
10826TIP3   OH232422   0.151   2.521   5.868
10826TIP3    H132423   0.241   2.546   5.845
10826TIP3    H232424   0.161   2.465   5.945
10827TIP3   OH232425   0.202   7.613   3.639
10827TIP3    H132426   0.291   7.648   3.646
10827TIP3    H232427   0.207   7.551   3.566
10828TIP3   OH232428   5.570   7.709   6.010
10828TIP3    H132429   5.512   7.717   5.934
10828TIP3    H232430   5.546   7.625   6.050
10829TIP3   OH232431   6.065   5.549   1.629
10829TIP3    H132432   6.143   5.603   1.643
10829TIP3    H232433   6.092   5.461   1.658
10830TIP3   OH232434   1.862   6.736   0.607
10830TIP3    H132435   1.848   6.646   0.635
10830TIP3    H232436   1.818   6.742   0.522
10831TIP3   OH232437   6.339   5.146   1.575
10831TIP3    H132438   6.385   5.220   1.537
10831TIP3    H232439   6.344   5.077   1.509
10832TIP3   OH232440   8.084   2.394   5.433
10832TIP3    H132441   8.114   2.361   5.517
10832TIP3    H232442   7.992   2.369   5.429
10833TIP3   OH232443   4.322   7.519   4.487
10833TIP3    H132444   4.271   7.515   4.406
10833TIP3    H232445   4.377   7.441   4.484
10834TIP3   OH232446   6.360   0.626   5.044
10834TIP3    H132447   6.344   0.565   4.972
10834TIP3    H232448   6.451   0.611   5.068
10835TIP3   OH232449   3.514   6.320   5.335
10835TIP3    H132450   3.426   6.349   5.311
10835TIP3    H232451   3.550   6.391   5.387
10836TIP3   OH232452   2.343   6.077   1.891
10836TIP3    H132453   2.370   5.988   1.912
10836TIP3    H232454   2.409   6.108   1.829
10837TIP3   OH232455   4.842   7.138   0.457
10837TIP3    H132456   4.768   7.102   0.506
10837TIP3    H232457   4.913   7.077   0.474
10838TIP3   OH232458   3.866   6.888   1.824
10838TIP3    H132459   3.771   6.903   1.818
10838TIP3    H232460   3.885   6.896   1.918
10839TIP3   OH232461   7.959   6.204   6.159
10839TIP3    H132462   8.018   6.148   6.109
10839TIP3    H232463   8.015   6.272   6.195
10840TIP3   OH232464   4.021   0.305   1.574
10840TIP3    H132465   4.003   0.265   1.488
10840TIP3    H232466   3.970   0.386   1.574
10841TIP3   OH232467   2.678   3.612   5.649
10841TIP3    H132468   2.711   3.594   5.738
10841TIP3    H232469   2.752   3.654   5.605
10842TIP3   OH232470   4.972   6.297   2.996
10842TIP3    H132471   4.960   6.309   3.090
10842TIP3    H232472   4.899   6.346   2.957
10843TIP3   OH232473   4.184   6.113   2.315
10843TIP3    H132474   4.196   6.081   2.404
10843TIP3    H232475   4.267   6.154   2.293
10844TIP3   OH232476   6.438   1.062   5.764
10844TIP3    H132477   6.444   0.983   5.817
10844TIP3    H232478   6.474   1.037   5.679
10845TIP3   OH232479   2.091   3.498   0.131
10845TIP3    H132480   2.039   3.434   0.081
10845TIP3    H232481   2.054   3.583   0.106
10846TIP3   OH232482   5.394   0.470   1.270
10846TIP3    H132483   5.332   0.515   1.327
10846TIP3    H232484   5.408   0.530   1.197
10847TIP3   OH232485   2.885   2.360   5.331
10847TIP3    H132486   2.825   2.343   5.403
10847TIP3    H232487   2.829   2.374   5.255
10848TIP3   OH232488   1.261   0.007   2.285
10848TIP3    H132489   1.293   0.093   2.257
10848TIP3    H232490   1.215  -0.028   2.208
10849TIP3   OH232491   7.293   4.668   2.897
10849TIP3    H132492   7.263   4.714   2.819
10849TIP3    H232493   7.387   4.687   2.901
10850TIP3   OH232494   2.995   3.977   6.660
10850TIP3    H132495   2.917   3.934   6.696
10850TIP3    H232496   3.040   4.013   6.737
10851TIP3   OH232497   8.268   0.355   4.629
10851TIP3    H132498   8.236   0.379   4.717
10851TIP3    H232499   8.189   0.330   4.581
10852TIP3   OH232500   3.692   4.153   1.175
10852TIP3    H132501   3.701   4.221   1.243
10852TIP3    H232502   3.778   4.112   1.171
10853TIP3   OH232503   7.351   1.200   0.759
10853TIP3    H132504   7.432   1.158   0.730
10853TIP3    H232505   7.378   1.263   0.825
10854TIP3   OH232506   2.121   5.332   4.781
10854TIP3    H132507   2.165   5.411   4.752
10854TIP3    H232508   2.183   5.291   4.841
10855TIP3   OH232509   2.615   6.975   0.412
10855TIP3    H132510   2.678   6.908   0.438
10855TIP3    H232511   2.615   7.037   0.484
10856TIP3   OH232512   6.152   2.608   3.653
10856TIP3    H132513   6.087   2.658   3.603
10856TIP3    H232514   6.104   2.574   3.728
10857TIP3   OH232515   0.238   4.194   4.164
10857TIP3    H132516   0.257   4.288   4.157
10857TIP3    H232517   0.323   4.151   4.150
10858TIP3   OH232518   2.538   6.302   4.716
10858TIP3    H132519   2.499   6.219   4.687
10858TIP3    H232520   2.588   6.278   4.794
10859TIP3   OH232521   2.118   1.892   1.891
10859TIP3    H132522   2.164   1.952   1.949
10859TIP3    H232523   2.110   1.941   1.809
10860TIP3   OH232524   2.972   4.212   4.173
10860TIP3    H132525   2.894   4.264   4.155
10860TIP3    H232526   3.040   4.277   4.192
10861TIP3   OH232527   4.495   7.110   0.516
10861TIP3    H132528   4.446   7.193   0.511
10861TIP3    H232529   4.451   7.053   0.453
10862TIP3   OH232530   6.335   1.942   1.728
10862TIP3    H132531   6.303   2.001   1.797
10862TIP3    H232532   6.280   1.963   1.652
10863TIP3   OH232533   4.800   2.220   1.583
10863TIP3    H132534   4.840   2.261   1.507
10863TIP3    H232535   4.835   2.130   1.582
10864TIP3   OH232536   7.302   0.033   6.121
10864TIP3    H132537   7.285  -0.035   6.186
10864TIP3    H232538   7.306   0.114   6.171
10865TIP3   OH232539   5.401   7.326   6.789
10865TIP3    H132540   5.385   7.419   6.772
10865TIP3    H232541   5.491   7.312   6.762
10866TIP3   OH232542   4.878   3.788   5.673
10866TIP3    H132543   4.835   3.840   5.740
10866TIP3    H232544   4.807   3.761   5.614
10867TIP3   OH232545   3.741   3.216   4.065
10867TIP3    H132546   3.794   3.294   4.051
10867TIP3    H232547   3.794   3.161   4.124
10868TIP3   OH232548   8.211   6.735   0.265
10868TIP3    H132549   8.120   6.741   0.236
10868TIP3    H232550   8.210   6.672   0.337
10869TIP3   OH232551   1.990   0.513   4.836
10869TIP3    H132552   2.064   0.460   4.866
10869TIP3    H232553   1.965   0.475   4.752
10870TIP3   OH232554   7.913   0.476   5.497
10870TIP3    H132555   7.955   0.561   5.491
10870TIP3    H232556   7.819   0.495   5.496
10871TIP3   OH232557   1.933   2.637   0.624
10871TIP3    H132558   1.898   2.726   0.631
10871TIP3    H232559   2.018   2.649   0.581
10872TIP3   OH232560   5.639   7.112   2.218
10872TIP3    H132561   5.691   7.189   2.196
10872TIP3    H232562   5.560   7.147   2.260
10873TIP3   OH232563   4.815   5.178   4.714
10873TIP3    H132564   4.796   5.119   4.787
10873TIP3    H232565   4.910   5.177   4.706
10874TIP3   OH232566   6.279   1.322   6.251
10874TIP3    H132567   6.239   1.353   6.170
10874TIP3    H232568   6.226   1.247   6.278
10875TIP3   OH232569   3.494   3.849   1.219
10875TIP3    H132570   3.472   3.788   1.149
10875TIP3    H232571   3.584   3.876   1.200
10876TIP3   OH232572   3.495   4.097   5.544
10876TIP3    H132573   3.492   4.105   5.448
10876TIP3    H232574   3.569   4.151   5.570
10877TIP3   OH232575   3.479   3.418   0.151
10877TIP3    H132576   3.453   3.377   0.068
10877TIP3    H232577   3.574   3.417   0.149
10878TIP3   OH232578   5.139   4.346   3.919
10878TIP3    H132579   5.131   4.301   3.835
10878TIP3    H232580   5.198   4.419   3.901
10879TIP3   OH232581   2.474   4.813   5.705
10879TIP3    H132582   2.530   4.803   5.782
10879TIP3    H232583   2.530   4.855   5.640
10880TIP3   OH232584   7.887   6.450   4.888
10880TIP3    H132585   7.793   6.454   4.908
10880TIP3    H232586   7.930   6.465   4.973
10881TIP3   OH232587   2.141   5.280   4.001
10881TIP3    H132588   2.104   5.265   4.088
10881TIP3    H232589   2.215   5.220   3.996
10882TIP3   OH232590   3.263   5.369   1.247
10882TIP3    H132591   3.220   5.284   1.258
10882TIP3    H232592   3.353   5.354   1.276
10883TIP3   OH232593   7.569   0.510   0.184
10883TIP3    H132594   7.508   0.479   0.251
10883TIP3    H232595   7.532   0.593   0.154
10884TIP3   OH232596   5.080   2.413   5.799
10884TIP3    H132597   5.042   2.435   5.715
10884TIP3    H232598   5.020   2.450   5.864
10885TIP3   OH232599   4.445   6.488   3.619
10885TIP3    H132600   4.369   6.547   3.614
10885TIP3    H232601   4.451   6.450   3.531
10886TIP3   OH232602   3.545   3.975   5.938
10886TIP3    H132603   3.500   4.058   5.953
10886TIP3    H232604   3.572   3.947   6.025
10887TIP3   OH232605   4.610   1.702   5.147
10887TIP3    H132606   4.701   1.680   5.131
10887TIP3    H232607   4.569   1.701   5.060
10888TIP3   OH232608   3.870   1.924   1.649
10888TIP3    H132609   3.880   1.830   1.662
10888TIP3    H232610   3.847   1.958   1.736
10889TIP3   OH232611   6.672   2.403   2.073
10889TIP3    H132612   6.736   2.457   2.118
10889TIP3    H232613   6.629   2.353   2.142
10890TIP3   OH232614   8.262   2.771   3.030
10890TIP3    H132615   8.268   2.724   2.947
10890TIP3    H232616   8.232   2.706   3.093
10891TIP3   OH232617   4.942   0.077   1.388
10891TIP3    H132618   4.991  -0.004   1.399
10891TIP3    H232619   4.867   0.068   1.448
10892TIP3   OH232620   0.403   2.296   4.442
10892TIP3    H132621   0.413   2.299   4.347
10892TIP3    H232622   0.478   2.244   4.472
10893TIP3   OH232623   0.320   4.983   5.843
10893TIP3    H132624   0.254   4.934   5.793
10893TIP3    H232625   0.390   5.000   5.781
10894TIP3   OH232626   0.061   6.427   1.424
10894TIP3    H132627   0.024   6.390   1.344
10894TIP3    H232628  -0.012   6.431   1.485
10895TIP3   OH232629   1.661   1.260   3.768
10895TIP3    H132630   1.635   1.304   3.849
10895TIP3    H232631   1.588   1.201   3.748
10896TIP3   OH232632   4.961   2.505   5.567
10896TIP3    H132633   5.015   2.579   5.541
10896TIP3    H232634   4.874   2.525   5.534
10897TIP3   OH232635   2.935   7.438   0.953
10897TIP3    H132636   2.993   7.510   0.979
10897TIP3    H232637   2.950   7.370   1.019
10898TIP3   OH232638   0.987   3.629   2.565
10898TIP3    H132639   1.065   3.600   2.518
10898TIP3    H232640   1.013   3.713   2.604
10899TIP3   OH232641   0.241   3.782   0.305
10899TIP3    H132642   0.233   3.692   0.335
10899TIP3    H232643   0.164   3.826   0.342
10900TIP3   OH232644   8.108   6.265   0.861
10900TIP3    H132645   8.165   6.342   0.850
10900TIP3    H232646   8.020   6.297   0.839
10901TIP3   OH232647   0.269   7.196   2.880
10901TIP3    H132648   0.195   7.256   2.879
10901TIP3    H232649   0.331   7.231   2.816
10902TIP3   OH232650   1.366   3.531   6.399
10902TIP3    H132651   1.314   3.493   6.328
10902TIP3    H232652   1.409   3.456   6.440
10903TIP3   OH232653   3.270   1.964   4.829
10903TIP3    H132654   3.339   1.998   4.886
10903TIP3    H232655   3.308   1.968   4.741
10904TIP3   OH232656   5.046   2.615   2.657
10904TIP3    H132657   5.079   2.697   2.621
10904TIP3    H232658   4.970   2.593   2.604
10905TIP3   OH232659   7.950   2.653   2.790
10905TIP3    H132660   8.040   2.628   2.810
10905TIP3    H232661   7.958   2.737   2.744
10906TIP3   OH232662   0.627   1.858   4.574
10906TIP3    H132663   0.609   1.784   4.633
10906TIP3    H232664   0.696   1.908   4.618
10907TIP3   OH232665   3.308   5.198   2.922
10907TIP3    H132666   3.349   5.127   2.971
10907TIP3    H232667   3.243   5.155   2.867
10908TIP3   OH232668   8.234   0.949   0.851
10908TIP3    H132669   8.146   0.917   0.870
10908TIP3    H232670   8.274   0.878   0.801
10909TIP3   OH232671   5.070   7.706   2.457
10909TIP3    H132672   5.067   7.616   2.487
10909TIP3    H232673   5.020   7.706   2.375
10910TIP3   OH232674   6.910   3.721   5.645
10910TIP3    H132675   6.882   3.678   5.564
10910TIP3    H232676   6.976   3.663   5.682
10911TIP3   OH232677   3.078   7.033   0.242
10911TIP3    H132678   3.013   6.964   0.257
10911TIP3    H232679   3.038   7.112   0.280
10912TIP3   OH232680   4.729   1.967   1.117
10912TIP3    H132681   4.742   1.889   1.172
10912TIP3    H232682   4.814   2.011   1.119
10913TIP3   OH232683   7.114   2.727   6.419
10913TIP3    H132684   7.128   2.821   6.420
10913TIP3    H232685   7.021   2.715   6.437
10914TIP3   OH232686   2.838   2.117   3.271
10914TIP3    H132687   2.896   2.184   3.308
10914TIP3    H232688   2.875   2.097   3.185
10915TIP3   OH232689   8.266   5.688   4.216
10915TIP3    H132690   8.297   5.597   4.219
10915TIP3    H232691   8.332   5.737   4.264
10916TIP3   OH232692   2.069   5.181   4.259
10916TIP3    H132693   2.030   5.096   4.280
10916TIP3    H232694   2.007   5.245   4.294
10917TIP3   OH232695   1.595   6.384   5.467
10917TIP3    H132696   1.587   6.462   5.522
10917TIP3    H232697   1.597   6.311   5.529
10918TIP3   OH232698   6.983   1.808   1.795
10918TIP3    H132699   6.904   1.754   1.790
10918TIP3    H232700   7.038   1.776   1.723
10919TIP3   OH232701   7.465   3.452   0.921
10919TIP3    H132702   7.522   3.447   0.843
10919TIP3    H232703   7.389   3.398   0.898
10920TIP3   OH232704   4.311   3.382   0.951
10920TIP3    H132705   4.342   3.398   1.040
10920TIP3    H232706   4.321   3.287   0.940
10921TIP3   OH232707   8.092   1.449   2.329
10921TIP3    H132708   8.039   1.386   2.378
10921TIP3    H232709   8.054   1.534   2.352
10922TIP3   OH232710   4.702   1.242   1.221
10922TIP3    H132711   4.711   1.240   1.316
10922TIP3    H232712   4.703   1.150   1.195
10923TIP3   OH232713   7.538   7.544   6.030
10923TIP3    H132714   7.631   7.546   6.048
10923TIP3    H232715   7.500   7.606   6.093
10924TIP3   OH232716   1.695   1.739   6.008
10924TIP3    H132717   1.624   1.688   6.049
10924TIP3    H232718   1.649   1.808   5.960
10925TIP3   OH232719   0.588   4.864   3.856
10925TIP3    H132720   0.583   4.774   3.889
10925TIP3    H232721   0.513   4.871   3.796
10926TIP3   OH232722   5.269   7.031   1.378
10926TIP3    H132723   5.237   7.112   1.339
10926TIP3    H232724   5.318   6.988   1.308
10927TIP3   OH232725   3.993   3.811   0.076
10927TIP3    H132726   3.920   3.832   0.134
10927TIP3    H232727   4.004   3.889   0.021
10928TIP3   OH232728   6.855   3.048   0.199
10928TIP3    H132729   6.773   3.003   0.183
10928TIP3    H232730   6.836   3.107   0.272
10929TIP3   OH232731   6.829   6.370   6.698
10929TIP3    H132732   6.889   6.443   6.684
10929TIP3    H232733   6.861   6.328   6.778
10930TIP3   OH232734   4.167   1.111   5.734
10930TIP3    H132735   4.197   1.152   5.816
10930TIP3    H232736   4.217   1.155   5.666
10931TIP3   OH232737   3.759   4.575   4.359
10931TIP3    H132738   3.810   4.512   4.410
10931TIP3    H232739   3.673   4.575   4.400
10932TIP3   OH232740   7.166   7.467   3.967
10932TIP3    H132741   7.180   7.409   4.042
10932TIP3    H232742   7.133   7.548   4.005
10933TIP3   OH232743   7.987   3.410   2.893
10933TIP3    H132744   7.925   3.451   2.953
10933TIP3    H232745   8.008   3.326   2.934
10934TIP3   OH232746   1.961   2.232   0.577
10934TIP3    H132747   2.039   2.198   0.534
10934TIP3    H232748   1.909   2.154   0.599
10935TIP3   OH232749   4.768   0.319   1.991
10935TIP3    H132750   4.848   0.343   2.038
10935TIP3    H232751   4.773   0.224   1.983
10936TIP3   OH232752   4.226   4.534   6.700
10936TIP3    H132753   4.196   4.625   6.693
10936TIP3    H232754   4.300   4.529   6.639
10937TIP3   OH232755   2.121   1.085   1.914
10937TIP3    H132756   2.201   1.081   1.862
10937TIP3    H232757   2.074   1.161   1.880
10938TIP3   OH232758   6.117   3.708   4.871
10938TIP3    H132759   6.177   3.745   4.935
10938TIP3    H232760   6.102   3.618   4.901
10939TIP3   OH232761   6.788   4.934   0.155
10939TIP3    H132762   6.724   4.870   0.125
10939TIP3    H232763   6.872   4.902   0.124
10940TIP3   OH232764   6.527   4.866   1.120
10940TIP3    H132765   6.465   4.922   1.073
10940TIP3    H232766   6.611   4.912   1.112
10941TIP3   OH232767   2.895   6.048   1.921
10941TIP3    H132768   2.965   6.024   1.860
10941TIP3    H232769   2.826   6.085   1.866
10942TIP3   OH232770   2.639   4.397   2.349
10942TIP3    H132771   2.556   4.401   2.396
10942TIP3    H232772   2.646   4.482   2.306
10943TIP3   OH232773   5.135   1.250   6.290
10943TIP3    H132774   5.090   1.173   6.325
10943TIP3    H232775   5.162   1.299   6.368
10944TIP3   OH232776   1.896   2.331   5.851
10944TIP3    H132777   1.942   2.266   5.904
10944TIP3    H232778   1.862   2.281   5.776
10945TIP3   OH232779   1.777   0.263   0.603
10945TIP3    H132780   1.842   0.194   0.615
10945TIP3    H232781   1.700   0.218   0.567
10946TIP3   OH232782   7.951   1.972   3.765
10946TIP3    H132783   7.909   2.058   3.772
10946TIP3    H232784   7.929   1.927   3.846
10947TIP3   OH232785   5.713   1.504   6.205
10947TIP3    H132786   5.801   1.536   6.225
10947TIP3    H232787   5.694   1.537   6.117
10948TIP3   OH232788   1.438   3.900   1.503
10948TIP3    H132789   1.371   3.968   1.504
10948TIP3    H232790   1.496   3.924   1.431
10949TIP3   OH232791   4.119   4.542   0.547
10949TIP3    H132792   4.197   4.513   0.594
10949TIP3    H232793   4.117   4.488   0.468
10950TIP3   OH232794   2.488   0.514   5.267
10950TIP3    H132795   2.567   0.500   5.214
10950TIP3    H232796   2.415   0.497   5.207
10951TIP3   OH232797   3.336   0.825   6.017
10951TIP3    H132798   3.255   0.863   5.982
10951TIP3    H232799   3.401   0.895   6.008
10952TIP3   OH232800   2.994   3.275   3.475
10952TIP3    H132801   2.974   3.181   3.483
10952TIP3    H232802   3.016   3.302   3.564
10953TIP3   OH232803   3.531   1.385   0.619
10953TIP3    H132804   3.436   1.393   0.629
10953TIP3    H232805   3.544   1.300   0.578
10954TIP3   OH232806   6.313   4.177   4.463
10954TIP3    H132807   6.299   4.256   4.412
10954TIP3    H232808   6.362   4.206   4.539
10955TIP3   OH232809   5.551   1.916   4.787
10955TIP3    H132810   5.579   2.007   4.787
10955TIP3    H232811   5.632   1.866   4.795
10956TIP3   OH232812   1.749   3.841   2.150
10956TIP3    H132813   1.732   3.905   2.219
10956TIP3    H232814   1.675   3.781   2.155
10957TIP3   OH232815   7.583   0.830   5.855
10957TIP3    H132816   7.649   0.814   5.788
10957TIP3    H232817   7.517   0.884   5.811
10958TIP3   OH232818   1.070   3.173   1.798
10958TIP3    H132819   1.132   3.103   1.819
10958TIP3    H232820   1.002   3.129   1.748
10959TIP3   OH232821   0.142   3.315   0.074
10959TIP3    H132822   0.089   3.331  -0.004
10959TIP3    H232823   0.226   3.354   0.054
10960TIP3   OH232824   0.137   7.693   1.656
10960TIP3    H132825   0.156   7.607   1.694
10960TIP3    H232826   0.065   7.677   1.594
10961TIP3   OH232827   2.942   7.220   2.092
10961TIP3    H132828   2.904   7.231   2.004
10961TIP3    H232829   3.035   7.208   2.076
10962TIP3   OH232830   5.197   3.698   0.583
10962TIP3    H132831   5.104   3.678   0.596
10962TIP3    H232832   5.243   3.632   0.636
10963TIP3   OH232833   6.787   4.270   0.310
10963TIP3    H132834   6.796   4.192   0.255
10963TIP3    H232835   6.851   4.257   0.381
10964TIP3   OH232836   3.603   4.960   0.274
10964TIP3    H132837   3.666   4.953   0.202
10964TIP3    H232838   3.630   4.893   0.336
10965TIP3   OH232839   7.305   0.262   1.379
10965TIP3    H132840   7.244   0.333   1.364
10965TIP3    H232841   7.346   0.283   1.463
10966TIP3   OH232842   3.085   1.528   1.616
10966TIP3    H132843   3.159   1.584   1.591
10966TIP3    H232844   3.025   1.587   1.661
10967TIP3   OH232845   3.004   5.995   3.026
10967TIP3    H132846   3.059   6.061   2.983
10967TIP3    H232847   2.955   5.954   2.954
10968TIP3   OH232848   4.537   4.186   2.947
10968TIP3    H132849   4.543   4.129   2.871
10968TIP3    H232850   4.470   4.250   2.924
10969TIP3   OH232851   4.471   3.664   1.948
10969TIP3    H132852   4.518   3.625   2.021
10969TIP3    H232853   4.435   3.590   1.899
10970TIP3   OH232854   6.098   6.209   3.780
10970TIP3    H132855   6.169   6.157   3.741
10970TIP3    H232856   6.028   6.207   3.716
10971TIP3   OH232857   0.139   7.002   3.427
10971TIP3    H132858   0.231   7.016   3.446
10971TIP3    H232859   0.118   6.917   3.466
10972TIP3   OH232860   5.042   4.361   4.933
10972TIP3    H132861   5.094   4.429   4.889
10972TIP3    H232862   5.107   4.298   4.963
10973TIP3   OH232863   4.139   5.079   3.794
10973TIP3    H132864   4.204   5.133   3.840
10973TIP3    H232865   4.148   4.992   3.833
10974TIP3   OH232866   3.508   6.295   1.520
10974TIP3    H132867   3.531   6.202   1.529
10974TIP3    H232868   3.586   6.335   1.480
10975TIP3   OH232869   0.507   3.274   3.168
10975TIP3    H132870   0.519   3.362   3.132
10975TIP3    H232871   0.427   3.243   3.126
10976TIP3   OH232872   1.583   2.966   4.100
10976TIP3    H132873   1.672   2.983   4.070
10976TIP3    H232874   1.535   3.047   4.083
10977TIP3   OH232875   7.263   3.944   4.529
10977TIP3    H132876   7.168   3.952   4.523
10977TIP3    H232877   7.295   4.034   4.536
10978TIP3   OH232878   5.393   2.363   2.273
10978TIP3    H132879   5.330   2.422   2.232
10978TIP3    H232880   5.449   2.420   2.325
10979TIP3   OH232881   3.231   2.518   3.299
10979TIP3    H132882   3.160   2.455   3.286
10979TIP3    H232883   3.272   2.492   3.382
10980TIP3   OH232884   0.915   3.073   4.580
10980TIP3    H132885   0.901   2.980   4.602
10980TIP3    H232886   0.997   3.075   4.532
10981TIP3   OH232887   4.629   4.279   2.484
10981TIP3    H132888   4.636   4.332   2.564
10981TIP3    H232889   4.549   4.309   2.442
10982TIP3   OH232890   6.146   0.667   0.365
10982TIP3    H132891   6.059   0.682   0.327
10982TIP3    H232892   6.197   0.744   0.341
10983TIP3   OH232893   1.625   5.359   6.704
10983TIP3    H132894   1.666   5.428   6.654
10983TIP3    H232895   1.627   5.282   6.647
10984TIP3   OH232896   3.459   2.747   5.796
10984TIP3    H132897   3.367   2.771   5.804
10984TIP3    H232898   3.484   2.718   5.883
10985TIP3   OH232899   0.923   4.083   6.562
10985TIP3    H132900   0.967   4.030   6.496
10985TIP3    H232901   0.848   4.121   6.517
10986TIP3   OH232902   6.853   2.503   0.679
10986TIP3    H132903   6.855   2.485   0.773
10986TIP3    H232904   6.878   2.421   0.638
10987TIP3   OH232905   1.831   2.156   5.088
10987TIP3    H132906   1.861   2.246   5.083
10987TIP3    H232907   1.867   2.123   5.171
10988TIP3   OH232908   6.004   4.455   6.697
10988TIP3    H132909   5.988   4.411   6.613
10988TIP3    H232910   6.032   4.384   6.755
10989TIP3   OH232911   7.949   6.399   0.678
10989TIP3    H132912   7.876   6.403   0.617
10989TIP3    H232913   7.985   6.488   0.678
10990TIP3   OH232914   5.843   4.324   4.184
10990TIP3    H132915   5.781   4.258   4.152
10990TIP3    H232916   5.856   4.382   4.109
10991TIP3   OH232917   4.009   3.146   1.950
10991TIP3    H132918   4.009   3.051   1.934
10991TIP3    H232919   3.993   3.154   2.044
10992TIP3   OH232920   1.294   0.689   0.515
10992TIP3    H132921   1.307   0.760   0.452
10992TIP3    H232922   1.314   0.610   0.465
10993TIP3   OH232923   4.931   5.728   6.384
10993TIP3    H132924   4.933   5.642   6.343
10993TIP3    H232925   5.020   5.762   6.373
10994TIP3   OH232926   2.715   1.013   2.515
10994TIP3    H132927   2.744   1.096   2.475
10994TIP3    H232928   2.772   1.002   2.591
10995TIP3   OH232929   6.323   2.204   3.701
10995TIP3    H132930   6.277   2.210   3.785
10995TIP3    H232931   6.414   2.187   3.725
10996TIP3   OH232932   5.078   5.457   6.027
10996TIP3    H132933   5.073   5.400   5.951
10996TIP3    H232934   5.008   5.522   6.014
10997TIP3   OH232935   1.845   0.716   0.784
10997TIP3    H132936   1.762   0.736   0.827
10997TIP3    H232937   1.823   0.651   0.718
10998TIP3   OH232938   5.562   6.187   4.202
10998TIP3    H132939   5.522   6.274   4.197
10998TIP3    H232940   5.492   6.130   4.234
10999TIP3   OH232941   5.011   1.221   6.016
10999TIP3    H132942   4.952   1.295   6.030
10999TIP3    H232943   5.075   1.228   6.087
11000TIP3   OH232944   5.161   2.176   0.731
11000TIP3    H132945   5.132   2.085   0.725
11000TIP3    H232946   5.214   2.190   0.653
11001TIP3   OH232947   0.483   7.390   4.235
11001TIP3    H132948   0.500   7.310   4.285
11001TIP3    H232949   0.492   7.363   4.143
11002TIP3   OH232950   1.580   4.383   1.001
11002TIP3    H132951   1.501   4.421   1.042
11002TIP3    H232952   1.565   4.392   0.907
11003TIP3   OH232953   4.477   0.996   3.825
11003TIP3    H132954   4.506   1.051   3.898
11003TIP3    H232955   4.524   1.030   3.749
11004TIP3   OH232956   7.612   5.237   2.184
11004TIP3    H132957   7.696   5.198   2.209
11004TIP3    H232958   7.583   5.186   2.108
11005TIP3   OH232959   7.759   5.616   1.157
11005TIP3    H132960   7.671   5.587   1.182
11005TIP3    H232961   7.818   5.559   1.205
11006TIP3   OH232962   5.700   5.111   5.153
11006TIP3    H132963   5.764   5.181   5.160
11006TIP3    H232964   5.749   5.036   5.119
11007TIP3   OH232965   4.888   3.523   0.839
11007TIP3    H132966   4.817   3.459   0.837
11007TIP3    H232967   4.966   3.472   0.860
11008TIP3   OH232968   4.780   4.095   5.204
11008TIP3    H132969   4.831   4.044   5.141
11008TIP3    H232970   4.793   4.186   5.178
11009TIP3   OH232971   3.709   2.148   5.294
11009TIP3    H132972   3.721   2.222   5.235
11009TIP3    H232973   3.789   2.147   5.347
11010TIP3   OH232974   1.258   5.805   4.411
11010TIP3    H132975   1.327   5.823   4.475
11010TIP3    H232976   1.177   5.831   4.455
11011TIP3   OH232977   0.927   6.366   2.342
11011TIP3    H132978   0.871   6.321   2.406
11011TIP3    H232979   1.012   6.371   2.385
11012TIP3   OH232980   4.550   3.332   1.651
11012TIP3    H132981   4.534   3.303   1.561
11012TIP3    H232982   4.639   3.302   1.669
11013TIP3   OH232983   0.326   1.895   5.578
11013TIP3    H132984   0.317   1.990   5.579
11013TIP3    H232985   0.375   1.876   5.498
11014TIP3   OH232986   5.661   3.978   6.756
11014TIP3    H132987   5.654   4.060   6.805
11014TIP3    H232988   5.716   4.000   6.681
11015TIP3   OH232989   1.641   6.296   5.184
11015TIP3    H132990   1.721   6.255   5.149
11015TIP3    H232991   1.667   6.329   5.270
11016TIP3   OH232992   5.840   0.327   0.174
11016TIP3    H132993   5.873   0.253   0.225
11016TIP3    H232994   5.854   0.301   0.083
11017TIP3   OH232995   7.198   1.432   6.585
11017TIP3    H132996   7.266   1.472   6.639
11017TIP3    H232997   7.184   1.346   6.625
11018TIP3   OH232998   4.629  -0.021   3.833
11018TIP3    H132999   4.545  -0.013   3.787
11018TIP3    H233000   4.669   0.066   3.825
11019TIP3   OH233001   7.293   1.916   0.225
11019TIP3    H133002   7.314   1.983   0.160
11019TIP3    H233003   7.327   1.952   0.307
11020TIP3   OH233004   8.232   6.947   4.545
11020TIP3    H133005   8.193   7.003   4.613
11020TIP3    H233006   8.204   6.987   4.463
11021TIP3   OH233007   2.975   1.794   2.182
11021TIP3    H133008   2.923   1.872   2.163
11021TIP3    H233009   2.950   1.768   2.271
11022TIP3   OH233010   0.460   4.536   0.298
11022TIP3    H133011   0.375   4.519   0.259
11022TIP3    H233012   0.495   4.610   0.248
11023TIP3   OH233013   4.855   7.361   2.043
11023TIP3    H133014   4.938   7.324   2.011
11023TIP3    H233015   4.806   7.285   2.076
11024TIP3   OH233016   0.640   6.803   5.837
11024TIP3    H133017   0.658   6.742   5.908
11024TIP3    H233018   0.568   6.857   5.869
11025TIP3   OH233019   0.290   2.554   3.265
11025TIP3    H133020   0.267   2.646   3.273
11025TIP3    H233021   0.385   2.553   3.258
11026TIP3   OH233022   6.272   3.011   4.165
11026TIP3    H133023   6.242   3.098   4.192
11026TIP3    H233024   6.367   3.017   4.164
11027TIP3   OH233025   6.489   3.560   1.987
11027TIP3    H133026   6.573   3.601   1.965
11027TIP3    H233027   6.424   3.609   1.936
11028TIP3   OH233028   4.017   0.220   5.158
11028TIP3    H133029   4.092   0.201   5.214
11028TIP3    H233030   4.039   0.303   5.116
11029TIP3   OH233031   2.260   7.040   2.080
11029TIP3    H133032   2.336   7.095   2.102
11029TIP3    H233033   2.233   7.071   1.994
11030TIP3   OH233034   2.710   1.696   2.037
11030TIP3    H133035   2.788   1.747   2.014
11030TIP3    H233036   2.688   1.649   1.956
11031TIP3   OH233037   2.271   3.836   2.233
11031TIP3    H133038   2.327   3.787   2.172
11031TIP3    H233039   2.214   3.769   2.271
11032TIP3   OH233040   2.951   0.479   5.678
11032TIP3    H133041   2.870   0.462   5.629
11032TIP3    H233042   2.921   0.511   5.763
11033TIP3   OH233043   3.355   4.899   2.092
11033TIP3    H133044   3.370   4.857   2.007
11033TIP3    H233045   3.421   4.861   2.150
11034TIP3   OH233046   5.848   4.434   6.449
11034TIP3    H133047   5.811   4.423   6.361
11034TIP3    H233048   5.794   4.377   6.504
11035TIP3   OH233049   7.806   0.865   3.401
11035TIP3    H133050   7.766   0.859   3.488
11035TIP3    H233051   7.741   0.909   3.347
11036TIP3   OH233052   6.583   1.342   4.750
11036TIP3    H133053   6.675   1.355   4.728
11036TIP3    H233054   6.553   1.428   4.779
11037TIP3   OH233055   1.854   5.356   2.862
11037TIP3    H133056   1.900   5.404   2.931
11037TIP3    H233057   1.780   5.314   2.907
11038TIP3   OH233058   0.818   7.047   5.601
11038TIP3    H133059   0.803   6.963   5.558
11038TIP3    H233060   0.888   7.088   5.551
11039TIP3   OH233061   3.980   1.042   4.845
11039TIP3    H133062   4.017   1.015   4.930
11039TIP3    H233063   4.038   1.002   4.780
11040TIP3   OH233064   6.438   6.129   6.206
11040TIP3    H133065   6.383   6.207   6.207
11040TIP3    H233066   6.398   6.071   6.271
11041TIP3   OH233067   4.577   0.123   5.412
11041TIP3    H133068   4.533   0.107   5.496
11041TIP3    H233069   4.513   0.170   5.359
11042TIP3   OH233070   3.203   5.437   1.810
11042TIP3    H133071   3.267   5.408   1.745
11042TIP3    H233072   3.214   5.377   1.884
11043TIP3   OH233073   2.555   0.562   3.705
11043TIP3    H133074   2.601   0.557   3.621
11043TIP3    H233075   2.618   0.603   3.764
11044TIP3   OH233076   7.860   6.287   1.431
11044TIP3    H133077   7.774   6.312   1.465
11044TIP3    H233078   7.889   6.217   1.490
11045TIP3   OH233079   4.915   5.189   2.372
11045TIP3    H133080   4.872   5.176   2.288
11045TIP3    H233081   4.866   5.260   2.413
11046TIP3   OH233082   4.418   2.282   0.390
11046TIP3    H133083   4.501   2.267   0.345
11046TIP3    H233084   4.371   2.199   0.383
11047TIP3   OH233085   0.199   6.790   5.518
11047TIP3    H133086   0.210   6.779   5.424
11047TIP3    H233087   0.108   6.818   5.528
11048TIP3   OH233088   2.352   2.050   3.227
11048TIP3    H133089   2.321   2.127   3.275
11048TIP3    H233090   2.434   2.079   3.185
11049TIP3   OH233091   1.070   6.913   4.584
11049TIP3    H133092   1.004   6.861   4.539
11049TIP3    H233093   1.021   6.975   4.638
11050TIP3   OH233094   2.385   2.349   2.149
11050TIP3    H133095   2.351   2.362   2.238
11050TIP3    H233096   2.350   2.422   2.099
11051TIP3   OH233097   3.823   1.207   0.724
11051TIP3    H133098   3.741   1.240   0.759
11051TIP3    H233099   3.807   1.113   0.709
11052TIP3   OH233100   2.215   1.491   2.942
11052TIP3    H133101   2.295   1.451   2.977
11052TIP3    H233102   2.178   1.424   2.884
11053TIP3   OH233103   7.091   2.573   5.065
11053TIP3    H133104   7.165   2.633   5.066
11053TIP3    H233105   7.078   2.551   4.973
11054TIP3   OH233106   0.601   7.371   0.430
11054TIP3    H133107   0.571   7.309   0.497
11054TIP3    H233108   0.523   7.391   0.379
11055TIP3   OH233109   0.348   7.395   2.001
11055TIP3    H133110   0.336   7.423   2.092
11055TIP3    H233111   0.443   7.394   1.989
11056TIP3   OH233112   0.496   0.885   2.849
11056TIP3    H133113   0.520   0.972   2.879
11056TIP3    H233114   0.507   0.829   2.925
11057TIP3   OH233115   8.131   0.224   2.205
11057TIP3    H133116   8.045   0.266   2.206
11057TIP3    H233117   8.183   0.276   2.267
11058TIP3   OH233118   2.232   4.070   6.340
11058TIP3    H133119   2.158   4.115   6.380
11058TIP3    H233120   2.200   4.041   6.255
11059TIP3   OH233121   2.217   4.693   4.952
11059TIP3    H133122   2.141   4.683   4.894
11059TIP3    H233123   2.211   4.619   5.013
11060TIP3   OH233124   0.044   7.665   6.387
11060TIP3    H133125  -0.015   7.647   6.314
11060TIP3    H233126   0.086   7.748   6.364
11061TIP3   OH233127   0.081   5.398   0.533
11061TIP3    H133128  -0.010   5.399   0.504
11061TIP3    H233129   0.129   5.359   0.460
11062TIP3   OH233130   5.130   2.351   3.578
11062TIP3    H133131   5.184   2.285   3.621
11062TIP3    H233132   5.041   2.315   3.580
11063TIP3   OH233133   3.789   0.338   1.103
11063TIP3    H133134   3.801   0.291   1.186
11063TIP3    H233135   3.875   0.374   1.083
11064TIP3   OH233136   3.402   5.975   1.550
11064TIP3    H133137   3.381   5.882   1.565
11064TIP3    H233138   3.318   6.020   1.564
11065TIP3   OH233139   5.143   6.750   2.595
11065TIP3    H133140   5.129   6.687   2.524
11065TIP3    H233141   5.238   6.747   2.611
11066TIP3   OH233142   6.147   2.415   6.751
11066TIP3    H133143   6.069   2.412   6.696
11066TIP3    H233144   6.113   2.431   6.840
11067TIP3   OH233145   6.683   3.445   0.070
11067TIP3    H133146   6.622   3.476   0.137
11067TIP3    H233147   6.708   3.525   0.022
11068TIP3   OH233148   8.030   3.815   6.411
11068TIP3    H133149   8.059   3.735   6.366
11068TIP3    H233150   7.936   3.818   6.398
11069TIP3   OH233151   2.682   7.631   6.457
11069TIP3    H133152   2.713   7.540   6.448
11069TIP3    H233153   2.609   7.638   6.395
11070TIP3   OH233154   3.515   1.236   0.073
11070TIP3    H133155   3.468   1.285   0.006
11070TIP3    H233156   3.546   1.157   0.028
11071TIP3   OH233157   1.085   2.561   2.620
11071TIP3    H133158   1.111   2.564   2.712
11071TIP3    H233159   1.025   2.635   2.609
11072TIP3   OH233160   4.999   0.378   2.905
11072TIP3    H133161   5.069   0.418   2.957
11072TIP3    H233162   4.923   0.433   2.921
11073TIP3   OH233163   2.158   3.951   2.643
11073TIP3    H133164   2.071   3.923   2.614
11073TIP3    H233165   2.173   3.901   2.723
11074TIP3   OH233166   3.141   0.951   5.885
11074TIP3    H133167   3.084   0.974   5.811
11074TIP3    H233168   3.159   1.035   5.928
11075TIP3   OH233169   8.215   7.099   4.035
11075TIP3    H133170   8.173   7.072   4.117
11075TIP3    H233171   8.181   7.186   4.017
11076TIP3   OH233172   7.989   3.432   0.740
11076TIP3    H133173   7.921   3.497   0.753
11076TIP3    H233174   7.982   3.407   0.648
11077TIP3   OH233175   1.991   1.902   0.597
11077TIP3    H133176   2.082   1.900   0.626
11077TIP3    H233177   1.940   1.884   0.676
11078TIP3   OH233178   6.903   4.924   4.319
11078TIP3    H133179   6.839   4.865   4.360
11078TIP3    H233180   6.926   4.985   4.389
11079TIP3   OH233181   8.295   4.335   3.249
11079TIP3    H133182   8.298   4.292   3.334
11079TIP3    H233183   8.221   4.395   3.254
11080TIP3   OH233184   2.075   4.703   3.024
11080TIP3    H133185   2.031   4.771   2.972
11080TIP3    H233186   2.163   4.697   2.986
11081TIP3   OH233187   7.137   2.381   3.440
11081TIP3    H133188   7.085   2.347   3.367
11081TIP3    H233189   7.073   2.392   3.511
11082TIP3   OH233190   1.514   4.394   3.375
11082TIP3    H133191   1.491   4.303   3.356
11082TIP3    H233192   1.555   4.391   3.461
11083TIP3   OH233193   4.163   3.774   0.634
11083TIP3    H133194   4.199   3.788   0.721
11083TIP3    H233195   4.106   3.850   0.619
11084TIP3   OH233196   3.679   6.202   5.177
11084TIP3    H133197   3.635   6.121   5.152
11084TIP3    H233198   3.615   6.249   5.230
11085TIP3   OH233199   7.569   6.832   5.846
11085TIP3    H133200   7.586   6.768   5.777
11085TIP3    H233201   7.474   6.847   5.842
11086TIP3   OH233202   2.498   7.701   6.234
11086TIP3    H133203   2.404   7.684   6.241
11086TIP3    H233204   2.508   7.749   6.152
11087TIP3   OH233205   3.307   6.388   4.280
11087TIP3    H133206   3.376   6.396   4.346
11087TIP3    H233207   3.239   6.336   4.322
11088TIP3   OH233208   0.078   7.594   3.095
11088TIP3    H133209   0.161   7.639   3.110
11088TIP3    H233210   0.013   7.652   3.135
11089TIP3   OH233211   5.382   5.153   0.735
11089TIP3    H133212   5.373   5.157   0.830
11089TIP3    H233213   5.375   5.244   0.706
11090TIP3   OH233214   7.639   4.511   1.279
11090TIP3    H133215   7.674   4.584   1.329
11090TIP3    H233216   7.654   4.434   1.334
11091TIP3   OH233217   7.437   6.904   2.538
11091TIP3    H133218   7.353   6.921   2.582
11091TIP3    H233219   7.413   6.871   2.451
11092TIP3   OH233220   1.737   2.248   6.194
11092TIP3    H133221   1.663   2.200   6.233
11092TIP3    H233222   1.794   2.180   6.158
11093TIP3   OH233223   3.593   7.192   3.192
11093TIP3    H133224   3.673   7.245   3.192
11093TIP3    H233225   3.539   7.230   3.261
11094TIP3   OH233226   7.717   4.804   4.843
11094TIP3    H133227   7.657   4.822   4.916
11094TIP3    H233228   7.661   4.798   4.766
11095TIP3   OH233229   3.878   7.535   4.019
11095TIP3    H133230   3.899   7.508   3.930
11095TIP3    H233231   3.903   7.460   4.073
11096TIP3   OH233232   3.888   2.977   4.640
11096TIP3    H133233   3.831   2.964   4.565
11096TIP3    H233234   3.919   3.067   4.632
11097TIP3   OH233235   5.511   3.076   5.166
11097TIP3    H133236   5.568   3.091   5.090
11097TIP3    H233237   5.566   3.098   5.241
11098TIP3   OH233238   6.654   3.192   5.772
11098TIP3    H133239   6.653   3.240   5.688
11098TIP3    H233240   6.743   3.156   5.777
11099TIP3   OH233241   1.731   0.886   5.154
11099TIP3    H133242   1.767   0.844   5.076
11099TIP3    H233243   1.729   0.979   5.132
11100TIP3   OH233244   4.806   6.737   2.552
11100TIP3    H133245   4.867   6.784   2.496
11100TIP3    H233246   4.862   6.693   2.616
11101TIP3   OH233247   0.351   2.879   5.795
11101TIP3    H133248   0.349   2.786   5.775
11101TIP3    H233249   0.444   2.903   5.788
11102TIP3   OH233250   3.438   6.847   4.332
11102TIP3    H133251   3.456   6.793   4.409
11102TIP3    H233252   3.518   6.898   4.320
11103TIP3   OH233253   7.021   0.752   1.665
11103TIP3    H133254   7.052   0.842   1.678
11103TIP3    H233255   7.093   0.708   1.619
11104TIP3   OH233256   1.667   6.242   2.376
11104TIP3    H133257   1.685   6.151   2.398
11104TIP3    H233258   1.711   6.292   2.445
11105TIP3   OH233259   3.338   7.629   0.202
11105TIP3    H133260   3.298   7.670   0.278
11105TIP3    H233261   3.413   7.580   0.236
11106TIP3   OH233262   3.675   3.135   2.338
11106TIP3    H133263   3.631   3.170   2.261
11106TIP3    H233264   3.762   3.109   2.306
11107TIP3   OH233265   4.221   4.936   2.018
11107TIP3    H133266   4.304   4.893   2.036
11107TIP3    H233267   4.194   4.902   1.933
11108TIP3   OH233268   1.127   5.629   5.725
11108TIP3    H133269   1.058   5.618   5.792
11108TIP3    H233270   1.093   5.583   5.648
11109TIP3   OH233271   1.276   2.779   0.174
11109TIP3    H133272   1.327   2.700   0.192
11109TIP3    H233273   1.325   2.849   0.217
11110TIP3   OH233274   0.379   4.588   6.691
11110TIP3    H133275   0.399   4.653   6.625
11110TIP3    H233276   0.445   4.602   6.760
11111TIP3   OH233277   2.254   3.281   5.682
11111TIP3    H133278   2.276   3.235   5.763
11111TIP3    H233279   2.319   3.350   5.674
11112TIP3   OH233280   4.969   2.960   3.180
11112TIP3    H133281   4.939   3.044   3.215
11112TIP3    H233282   5.062   2.973   3.162
11113TIP3   OH233283   3.074   1.235   0.141
11113TIP3    H133284   3.093   1.180   0.066
11113TIP3    H233285   3.036   1.175   0.206
11114TIP3   OH233286   2.997   4.031   0.108
11114TIP3    H133287   3.047   3.985   0.042
11114TIP3    H233288   2.917   4.059   0.064
11115TIP3   OH233289   5.077   7.277   1.885
11115TIP3    H133290   5.085   7.338   1.812
11115TIP3    H233291   5.062   7.192   1.844
11116TIP3   OH233292   8.241   5.089   0.479
11116TIP3    H133293   8.304   5.083   0.408
11116TIP3    H233294   8.292   5.074   0.559
11117TIP3   OH233295   1.121   0.678   3.889
11117TIP3    H133296   1.077   0.734   3.953
11117TIP3    H233297   1.062   0.604   3.877
11118TIP3   OH233298   4.257   0.641   1.307
11118TIP3    H133299   4.272   0.662   1.400
11118TIP3    H233300   4.180   0.585   1.308
11119TIP3   OH233301   0.623   0.366   0.317
11119TIP3    H133302   0.711   0.405   0.317
11119TIP3    H233303   0.610   0.337   0.227
11120TIP3   OH233304   7.712   5.353   4.554
11120TIP3    H133305   7.707   5.290   4.482
11120TIP3    H233306   7.749   5.432   4.514
11121TIP3   OH233307   2.261   0.811   1.394
11121TIP3    H133308   2.230   0.728   1.430
11121TIP3    H233309   2.284   0.791   1.303
11122TIP3   OH233310   1.844   5.881   0.899
11122TIP3    H133311   1.882   5.857   0.815
11122TIP3    H233312   1.898   5.954   0.930
11123TIP3   OH233313   5.494   1.612   1.940
11123TIP3    H133314   5.514   1.527   1.900
11123TIP3    H233315   5.570   1.630   1.996
11124TIP3   OH233316   5.898   5.274   5.242
11124TIP3    H133317   5.981   5.228   5.256
11124TIP3    H233318   5.907   5.355   5.293
11125TIP3   OH233319   2.367   0.098   0.332
11125TIP3    H133320   2.277   0.128   0.346
11125TIP3    H233321   2.368   0.063   0.243
11126TIP3   OH233322   2.607   7.622   2.409
11126TIP3    H133323   2.645   7.535   2.408
11126TIP3    H233324   2.543   7.620   2.480
11127TIP3   OH233325   5.088   7.094   3.195
11127TIP3    H133326   5.054   7.014   3.235
11127TIP3    H233327   5.101   7.071   3.103
11128TIP3   OH233328   2.446   2.684   5.478
11128TIP3    H133329   2.382   2.745   5.442
11128TIP3    H233330   2.402   2.646   5.555
11129TIP3   OH233331   3.021   6.765   5.806
11129TIP3    H133332   3.001   6.855   5.832
11129TIP3    H233333   3.034   6.770   5.711
11130TIP3   OH233334   6.411   0.300   6.564
11130TIP3    H133335   6.388   0.214   6.599
11130TIP3    H233336   6.423   0.286   6.470
11131TIP3   OH233337   5.099   3.547   5.599
11131TIP3    H133338   5.107   3.617   5.664
11131TIP3    H233339   5.054   3.476   5.646
11132TIP3   OH233340   1.349   4.484   1.083
11132TIP3    H133341   1.325   4.534   1.161
11132TIP3    H233342   1.283   4.415   1.077
11133TIP3   OH233343   4.887   5.209   2.857
11133TIP3    H133344   4.942   5.234   2.783
11133TIP3    H233345   4.927   5.129   2.892
11134TIP3   OH233346   2.595   1.100   1.384
11134TIP3    H133347   2.511   1.103   1.338
11134TIP3    H233348   2.657   1.139   1.322
11135TIP3   OH233349   7.046   2.944   2.607
11135TIP3    H133350   7.037   2.974   2.698
11135TIP3    H233351   7.072   2.853   2.615
11136TIP3   OH233352   1.861   5.559   0.806
11136TIP3    H133353   1.802   5.619   0.761
11136TIP3    H233354   1.892   5.608   0.882
11137TIP3   OH233355   1.859   6.102   2.748
11137TIP3    H133356   1.816   6.069   2.670
11137TIP3    H233357   1.906   6.180   2.719
11138TIP3   OH233358   1.127   1.190   3.283
11138TIP3    H133359   1.174   1.274   3.282
11138TIP3    H233360   1.117   1.167   3.191
11139TIP3   OH233361   0.425   4.142   0.899
11139TIP3    H133362   0.422   4.048   0.917
11139TIP3    H233363   0.338   4.174   0.921
11140TIP3   OH233364   4.257   3.663   5.421
11140TIP3    H133365   4.246   3.603   5.348
11140TIP3    H233366   4.277   3.747   5.381
11141TIP3   OH233367   2.432   2.984   1.624
11141TIP3    H133368   2.399   2.934   1.550
11141TIP3    H233369   2.480   3.056   1.585
11142TIP3   OH233370   1.614   1.952   5.832
11142TIP3    H133371   1.532   1.981   5.871
11142TIP3    H233372   1.654   2.033   5.799
11143TIP3   OH233373   1.140   0.858   2.797
11143TIP3    H133374   1.173   0.946   2.813
11143TIP3    H233375   1.166   0.839   2.707
11144TIP3   OH233376   6.342   1.211   0.728
11144TIP3    H133377   6.348   1.147   0.799
11144TIP3    H233378   6.359   1.161   0.648
11145TIP3   OH233379   4.481   2.622   4.702
11145TIP3    H133380   4.398   2.670   4.701
11145TIP3    H233381   4.525   2.647   4.621
11146TIP3   OH233382   6.757   2.247   0.129
11146TIP3    H133383   6.812   2.304   0.075
11146TIP3    H233384   6.668   2.267   0.101
11147TIP3   OH233385   2.685   7.439   5.611
11147TIP3    H133386   2.648   7.351   5.601
11147TIP3    H233387   2.758   7.428   5.671
11148TIP3   OH233388   3.414   7.113   0.684
11148TIP3    H133389   3.400   7.021   0.708
11148TIP3    H233390   3.335   7.158   0.715
11149TIP3   OH233391   4.508   6.492   3.341
11149TIP3    H133392   4.597   6.484   3.376
11149TIP3    H233393   4.490   6.586   3.344
11150TIP3   OH233394   3.859   0.113   5.664
11150TIP3    H133395   3.832   0.022   5.653
11150TIP3    H233396   3.782   0.164   5.639
11151TIP3   OH233397   4.810   4.531   2.529
11151TIP3    H133398   4.900   4.560   2.514
11151TIP3    H233399   4.755   4.594   2.481
11152TIP3   OH233400  -0.017   4.038   0.119
11152TIP3    H133401   0.077   4.056   0.123
11152TIP3    H233402  -0.043   4.024   0.211
11153TIP3   OH233403   2.369   3.461   0.197
11153TIP3    H133404   2.369   3.367   0.180
11153TIP3    H233405   2.280   3.489   0.176
11154TIP3   OH233406   6.763   3.107   3.195
11154TIP3    H133407   6.682   3.100   3.245
11154TIP3    H233408   6.735   3.111   3.104
11155TIP3   OH233409   7.803   7.705   4.893
11155TIP3    H133410   7.778   7.625   4.940
11155TIP3    H233411   7.747   7.773   4.931
11156TIP3   OH233412   3.845   5.201   2.610
11156TIP3    H133413   3.823   5.256   2.535
11156TIP3    H233414   3.882   5.261   2.674
11157TIP3   OH233415   0.923   7.082   2.426
11157TIP3    H133416   0.877   7.026   2.364
11157TIP3    H233417   0.917   7.034   2.509
11158TIP3   OH233418   7.467   5.855   5.449
11158TIP3    H133419   7.421   5.781   5.489
11158TIP3    H233420   7.514   5.818   5.375
11159TIP3   OH233421   1.080   1.101   0.919
11159TIP3    H133422   1.175   1.111   0.920
11159TIP3    H233423   1.060   1.064   1.005
11160TIP3   OH233424   2.262   4.688   5.932
11160TIP3    H133425   2.274   4.688   5.837
11160TIP3    H233426   2.187   4.745   5.947
11161TIP3   OH233427   1.909   2.503   4.487
11161TIP3    H133428   1.922   2.434   4.422
11161TIP3    H233429   1.869   2.459   4.562
11162TIP3   OH233430   4.044   7.083   5.132
11162TIP3    H133431   4.020   7.176   5.126
11162TIP3    H233432   3.993   7.041   5.063
11163TIP3   OH233433   0.821   3.002   1.307
11163TIP3    H133434   0.771   3.081   1.288
11163TIP3    H233435   0.912   3.032   1.315
11164TIP3   OH233436   2.137   6.977   0.265
11164TIP3    H133437   2.136   6.884   0.243
11164TIP3    H233438   2.227   6.994   0.292
11165TIP3   OH233439   6.382   5.052   1.329
11165TIP3    H133440   6.425   4.967   1.319
11165TIP3    H233441   6.446   5.115   1.297
11166TIP3   OH233442   0.111   5.635   2.700
11166TIP3    H133443   0.194   5.594   2.727
11166TIP3    H233444   0.138   5.717   2.657
11167TIP3   OH233445   7.069   7.343   6.734
11167TIP3    H133446   6.994   7.361   6.792
11167TIP3    H233447   7.131   7.413   6.754
11168TIP3   OH233448   8.170   2.985   4.712
11168TIP3    H133449   8.101   3.048   4.731
11168TIP3    H233450   8.124   2.910   4.675
11169TIP3   OH233451   1.904   5.403   3.156
11169TIP3    H133452   1.824   5.451   3.177
11169TIP3    H233453   1.957   5.409   3.235
11170TIP3   OH233454   7.534   0.087   4.760
11170TIP3    H133455   7.457   0.133   4.794
11170TIP3    H233456   7.532   0.002   4.803
11171TIP3   OH233457   1.152   7.333   4.099
11171TIP3    H133458   1.202   7.270   4.151
11171TIP3    H233459   1.083   7.364   4.158
11172TIP3   OH233460   7.371   5.129   4.771
11172TIP3    H133461   7.324   5.110   4.852
11172TIP3    H233462   7.329   5.209   4.738
11173TIP3   OH233463   8.110   0.579   4.137
11173TIP3    H133464   8.200   0.561   4.165
11173TIP3    H233465   8.108   0.554   4.045
11174TIP3   OH233466   2.411   6.955   6.360
11174TIP3    H133467   2.488   6.939   6.415
11174TIP3    H233468   2.445   6.960   6.271
11175TIP3   OH233469   0.290   6.954   1.932
11175TIP3    H133470   0.360   7.018   1.939
11175TIP3    H233471   0.224   6.995   1.876
11176TIP3   OH233472   5.557   2.976   3.211
11176TIP3    H133473   5.486   2.913   3.230
11176TIP3    H233474   5.576   2.963   3.118
11177TIP3   OH233475   6.105   1.616   5.659
11177TIP3    H133476   6.047   1.691   5.670
11177TIP3    H233477   6.122   1.612   5.565
11178TIP3   OH233478   4.230   5.931   4.659
11178TIP3    H133479   4.142   5.943   4.694
11178TIP3    H233480   4.262   5.851   4.702
11179TIP3   OH233481   6.512   6.584   4.345
11179TIP3    H133482   6.599   6.578   4.307
11179TIP3    H233483   6.454   6.595   4.270
11180TIP3   OH233484   1.530   3.246   6.587
11180TIP3    H133485   1.623   3.223   6.585
11180TIP3    H233486   1.492   3.188   6.652
11181TIP3   OH233487   4.971   1.744   5.468
11181TIP3    H133488   4.999   1.830   5.435
11181TIP3    H233489   5.041   1.718   5.528
11182TIP3   OH233490   1.519   7.235   4.282
11182TIP3    H133491   1.495   7.273   4.197
11182TIP3    H233492   1.607   7.268   4.299
11183TIP3   OH233493   5.713   1.647   4.450
11183TIP3    H133494   5.791   1.699   4.468
11183TIP3    H233495   5.746   1.559   4.435
11184TIP3   OH233496   7.847   5.315   3.662
11184TIP3    H133497   7.823   5.310   3.754
11184TIP3    H233498   7.902   5.393   3.655
11185TIP3   OH233499   4.738   5.180   0.998
11185TIP3    H133500   4.755   5.245   1.067
11185TIP3    H233501   4.821   5.134   0.988
11186TIP3   OH233502   4.845   4.089   0.775
11186TIP3    H133503   4.877   4.179   0.782
11186TIP3    H233504   4.890   4.053   0.698
11187TIP3   OH233505   7.870   4.648   4.982
11187TIP3    H133506   7.804   4.580   4.971
11187TIP3    H233507   7.833   4.725   4.941
11188TIP3   OH233508   0.604   0.608   4.908
11188TIP3    H133509   0.593   0.651   4.823
11188TIP3    H233510   0.677   0.548   4.895
11189TIP3   OH233511   0.075   7.383   2.919
11189TIP3    H133512  -0.014   7.368   2.949
11189TIP3    H233513   0.094   7.474   2.944
11190TIP3   OH233514   8.060   5.142   1.654
11190TIP3    H133515   7.982   5.088   1.639
11190TIP3    H233516   8.133   5.086   1.626
11191TIP3   OH233517   5.849   3.759   4.783
11191TIP3    H133518   5.825   3.706   4.706
11191TIP3    H233519   5.930   3.720   4.814
11192TIP3   OH233520   5.322   2.334   4.140
11192TIP3    H133521   5.267   2.257   4.130
11192TIP3    H233522   5.405   2.311   4.099
11193TIP3   OH233523   7.532   4.707   2.128
11193TIP3    H133524   7.475   4.677   2.199
11193TIP3    H233525   7.605   4.750   2.173
11194TIP3   OH233526   0.648   4.352   3.274
11194TIP3    H133527   0.686   4.358   3.361
11194TIP3    H233528   0.660   4.261   3.248
11195TIP3   OH233529   5.122   1.115   1.927
11195TIP3    H133530   5.192   1.163   1.881
11195TIP3    H233531   5.091   1.177   1.994
11196TIP3   OH233532   5.521   4.842   1.213
11196TIP3    H133533   5.603   4.799   1.186
11196TIP3    H233534   5.497   4.896   1.138
11197TIP3   OH233535   2.678   2.520   1.378
11197TIP3    H133536   2.614   2.545   1.446
11197TIP3    H233537   2.663   2.582   1.307
11198TIP3   OH233538   8.142   0.422   6.550
11198TIP3    H133539   8.091   0.353   6.593
11198TIP3    H233540   8.149   0.393   6.459
11199TIP3   OH233541   8.223   2.330   6.134
11199TIP3    H133542   8.231   2.284   6.050
11199TIP3    H233543   8.176   2.410   6.113
11200TIP3   OH233544   4.767   5.831   2.647
11200TIP3    H133545   4.747   5.749   2.603
11200TIP3    H233546   4.681   5.866   2.674
11201TIP3   OH233547   3.870   6.457   6.295
11201TIP3    H133548   3.886   6.497   6.380
11201TIP3    H233549   3.846   6.530   6.238
11202TIP3   OH233550   5.723   0.613   6.440
11202TIP3    H133551   5.796   0.655   6.486
11202TIP3    H233552   5.655   0.681   6.438
11203TIP3   OH233553   1.314   4.631   2.397
11203TIP3    H133554   1.377   4.701   2.413
11203TIP3    H233555   1.280   4.649   2.310
11204TIP3   OH233556   6.189   1.875   6.044
11204TIP3    H133557   6.230   1.935   6.107
11204TIP3    H233558   6.114   1.924   6.010
11205TIP3   OH233559   3.358   4.639   3.111
11205TIP3    H133560   3.310   4.591   3.178
11205TIP3    H233561   3.417   4.574   3.072
11206TIP3   OH233562   4.404   6.486   2.806
11206TIP3    H133563   4.329   6.545   2.817
11206TIP3    H233564   4.480   6.544   2.806
11207TIP3   OH233565   6.492   0.419   1.440
11207TIP3    H133566   6.523   0.386   1.356
11207TIP3    H233567   6.566   0.470   1.474
11208TIP3   OH233568   4.808   0.751   2.064
11208TIP3    H133569   4.827   0.843   2.050
11208TIP3    H233570   4.726   0.751   2.114
11209TIP3   OH233571   8.028   0.454   0.922
11209TIP3    H133572   8.123   0.448   0.913
11209TIP3    H233573   8.000   0.503   0.844
11210TIP3   OH233574   8.046   4.694   3.177
11210TIP3    H133575   8.046   4.609   3.221
11210TIP3    H233576   8.055   4.758   3.248
11211TIP3   OH233577   4.535   5.294   6.337
11211TIP3    H133578   4.519   5.387   6.355
11211TIP3    H233579   4.510   5.249   6.418
11212TIP3   OH233580   6.997   2.023   4.016
11212TIP3    H133581   6.914   2.009   4.062
11212TIP3    H233582   7.062   2.027   4.086
11213TIP3   OH233583   3.724   7.674   2.513
11213TIP3    H133584   3.694   7.736   2.579
11213TIP3    H233585   3.655   7.608   2.510
11214TIP3   OH233586   0.119   2.292   1.742
11214TIP3    H133587   0.053   2.290   1.672
11214TIP3    H233588   0.137   2.385   1.755
11215TIP3   OH233589   1.248   0.831   6.673
11215TIP3    H133590   1.211   0.764   6.615
11215TIP3    H233591   1.185   0.838   6.744
11216TIP3   OH233592   0.149   1.403   1.865
11216TIP3    H133593   0.190   1.421   1.950
11216TIP3    H233594   0.186   1.319   1.839
11217TIP3   OH233595   6.357   7.001   1.009
11217TIP3    H133596   6.294   6.937   0.978
11217TIP3    H233597   6.434   6.949   1.032
11218TIP3   OH233598   3.756   7.240   3.903
11218TIP3    H133599   3.736   7.155   3.863
11218TIP3    H233600   3.674   7.266   3.946
11219TIP3   OH233601   7.855   7.443   3.515
11219TIP3    H133602   7.815   7.529   3.531
11219TIP3    H233603   7.843   7.429   3.421
11220TIP3   OH233604   4.334   1.226   3.253
11220TIP3    H133605   4.319   1.131   3.246
11220TIP3    H233606   4.347   1.254   3.162
11221TIP3   OH233607   5.547   5.206   6.297
11221TIP3    H133608   5.453   5.206   6.316
11221TIP3    H233609   5.588   5.232   6.379
11222TIP3   OH233610   5.561   3.531   5.016
11222TIP3    H133611   5.602   3.490   4.940
11222TIP3    H233612   5.584   3.624   5.009
11223TIP3   OH233613   4.646   1.759   0.723
11223TIP3    H133614   4.667   1.795   0.637
11223TIP3    H233615   4.655   1.832   0.783
11224TIP3   OH233616   6.745   5.140   4.548
11224TIP3    H133617   6.833   5.121   4.515
11224TIP3    H233618   6.755   5.142   4.643
11225TIP3   OH233619   0.418   2.036   2.378
11225TIP3    H133620   0.401   1.960   2.323
11225TIP3    H233621   0.360   2.104   2.344
11226TIP3   OH233622   5.775   2.157   1.169
11226TIP3    H133623   5.843   2.101   1.208
11226TIP3    H233624   5.813   2.245   1.169
11227TIP3   OH233625   1.501   5.086   4.201
11227TIP3    H133626   1.413   5.066   4.233
11227TIP3    H233627   1.510   5.035   4.120
11228TIP3   OH233628   5.745   1.325   2.172
11228TIP3    H133629   5.792   1.380   2.235
11228TIP3    H233630   5.743   1.238   2.212
11229TIP3   OH233631   5.191   2.924   3.888
11229TIP3    H133632   5.177   3.000   3.944
11229TIP3    H233633   5.126   2.860   3.919
11230TIP3   OH233634   6.868   1.147   0.458
11230TIP3    H133635   6.853   1.089   0.532
11230TIP3    H233636   6.808   1.116   0.390
11231TIP3   OH233637   2.563   7.826   4.109
11231TIP3    H133638   2.618   7.752   4.083
11231TIP3    H233639   2.581   7.837   4.202
11232TIP3   OH233640   5.019   3.994   0.604
11232TIP3    H133641   4.991   3.902   0.610
11232TIP3    H233642   5.107   3.995   0.642
11233TIP3   OH233643   7.462   5.242   1.771
11233TIP3    H133644   7.525   5.206   1.832
11233TIP3    H233645   7.429   5.321   1.814
11234TIP3   OH233646   1.823   2.549   2.497
11234TIP3    H133647   1.752   2.590   2.545
11234TIP3    H233648   1.827   2.598   2.414
11235TIP3   OH233649   5.232   0.902   2.777
11235TIP3    H133650   5.152   0.851   2.792
11235TIP3    H233651   5.288   0.882   2.852
11236TIP3   OH233652   2.223   5.366   5.684
11236TIP3    H133653   2.160   5.300   5.712
11236TIP3    H233654   2.297   5.316   5.649
11237TIP3   OH233655   4.181   0.936   5.948
11237TIP3    H133656   4.174   0.960   5.856
11237TIP3    H233657   4.258   0.879   5.952
11238TIP3   OH233658   1.188   6.010   2.113
11238TIP3    H133659   1.148   6.071   2.176
11238TIP3    H233660   1.120   5.945   2.097
11239TIP3   OH233661   4.289   7.772   6.303
11239TIP3    H133662   4.193   7.766   6.308
11239TIP3    H233663   4.317   7.681   6.289
11240TIP3   OH233664   4.792   6.002   4.365
11240TIP3    H133665   4.697   5.986   4.362
11240TIP3    H233666   4.817   5.973   4.453
11241TIP3   OH233667   7.690   2.175   5.961
11241TIP3    H133668   7.647   2.259   5.977
11241TIP3    H233669   7.749   2.193   5.887
11242TIP3   OH233670   4.978   0.053   6.091
11242TIP3    H133671   5.066   0.086   6.077
11242TIP3    H233672   4.936   0.057   6.005
11243TIP3   OH233673   2.566   4.910   4.854
11243TIP3    H133674   2.654   4.933   4.825
11243TIP3    H233675   2.559   4.816   4.838
11244TIP3   OH233676   4.826   3.197   4.571
11244TIP3    H133677   4.893   3.197   4.640
11244TIP3    H233678   4.858   3.260   4.507
11245TIP3   OH233679   3.305   2.910   1.101
11245TIP3    H133680   3.332   2.910   1.193
11245TIP3    H233681   3.297   2.817   1.079
11246TIP3   OH233682   0.814   6.755   5.614
11246TIP3    H133683   0.888   6.717   5.663
11246TIP3    H233684   0.747   6.769   5.680
11247TIP3   OH233685   0.040   6.626   0.739
11247TIP3    H133686   0.136   6.617   0.736
11247TIP3    H233687   0.017   6.601   0.828
11248TIP3   OH233688   4.367   7.048   2.489
11248TIP3    H133689   4.306   7.003   2.548
11248TIP3    H233690   4.448   7.055   2.540
11249TIP3   OH233691   7.611   3.345   1.532
11249TIP3    H133692   7.659   3.426   1.550
11249TIP3    H233693   7.538   3.372   1.476
11250TIP3   OH233694   7.017   0.076   1.212
11250TIP3    H133695   7.060  -0.003   1.246
11250TIP3    H233696   6.978   0.047   1.129
11251TIP3   OH233697   5.399   5.362   5.699
11251TIP3    H133698   5.331   5.401   5.644
11251TIP3    H233699   5.430   5.434   5.753
11252TIP3   OH233700   5.030   2.297   2.898
11252TIP3    H133701   5.098   2.349   2.940
11252TIP3    H233702   5.074   2.257   2.823
11253TIP3   OH233703   0.131   4.149   6.678
11253TIP3    H133704   0.093   4.099   6.606
11253TIP3    H233705   0.195   4.090   6.717
11254TIP3   OH233706   1.212   0.218   2.882
11254TIP3    H133707   1.210   0.182   2.793
11254TIP3    H233708   1.249   0.306   2.872
11255TIP3   OH233709   2.921   4.541   2.144
11255TIP3    H133710   2.834   4.520   2.176
11255TIP3    H233711   2.913   4.628   2.105
11256TIP3   OH233712   2.485   3.611   4.916
11256TIP3    H133713   2.406   3.656   4.944
11256TIP3    H233714   2.538   3.602   4.995
11257TIP3   OH233715   7.872   0.497   1.144
11257TIP3    H133716   7.817   0.419   1.154
11257TIP3    H233717   7.923   0.480   1.064
11258TIP3   OH233718   3.904   3.538   2.650
11258TIP3    H133719   3.991   3.572   2.632
11258TIP3    H233720   3.864   3.603   2.708
11259TIP3   OH233721   3.128   4.188   4.836
11259TIP3    H133722   3.150   4.207   4.927
11259TIP3    H233723   3.210   4.199   4.789
11260TIP3   OH233724   2.988   0.340   3.981
11260TIP3    H133725   3.022   0.402   3.916
11260TIP3    H233726   2.907   0.381   4.012
11261TIP3   OH233727   2.062   4.253   0.393
11261TIP3    H133728   2.020   4.173   0.426
11261TIP3    H233729   2.009   4.324   0.430
11262TIP3   OH233730   3.308   6.636   3.513
11262TIP3    H133731   3.360   6.574   3.462
11262TIP3    H233732   3.280   6.702   3.449
11263TIP3   OH233733   1.087   6.234   2.927
11263TIP3    H133734   1.155   6.223   2.994
11263TIP3    H233735   1.046   6.148   2.921
11264TIP3   OH233736   6.730   0.848   4.340
11264TIP3    H133737   6.756   0.903   4.413
11264TIP3    H233738   6.783   0.768   4.350
11265TIP3   OH233739   1.624   0.536   6.363
11265TIP3    H133740   1.553   0.564   6.305
11265TIP3    H233741   1.621   0.441   6.361
11266TIP3   OH233742   4.999   4.656   4.103
11266TIP3    H133743   4.972   4.645   4.012
11266TIP3    H233744   4.953   4.587   4.150
11267TIP3   OH233745   2.415   7.448   0.190
11267TIP3    H133746   2.505   7.462   0.220
11267TIP3    H233747   2.410   7.354   0.172
11268TIP3   OH233748   0.498   1.319   3.361
11268TIP3    H133749   0.555   1.313   3.437
11268TIP3    H233750   0.549   1.279   3.289
11269TIP3   OH233751   1.095   7.059   0.083
11269TIP3    H133752   1.182   7.089   0.055
11269TIP3    H233753   1.035   7.092   0.016
11270TIP3   OH233754   4.249   3.548   3.308
11270TIP3    H133755   4.305   3.557   3.385
11270TIP3    H233756   4.251   3.455   3.287
11271TIP3   OH233757   3.535   4.789   0.943
11271TIP3    H133758   3.475   4.717   0.961
11271TIP3    H233759   3.577   4.765   0.860
11272TIP3   OH233760   1.339   6.149   0.874
11272TIP3    H133761   1.294   6.067   0.855
11272TIP3    H233762   1.415   6.124   0.926
11273TIP3   OH233763   3.692   0.949   3.058
11273TIP3    H133764   3.636   0.922   3.131
11273TIP3    H233765   3.653   0.909   2.981
11274TIP3   OH233766   1.115   7.182   2.918
11274TIP3    H133767   1.032   7.150   2.952
11274TIP3    H233768   1.113   7.276   2.933
11275TIP3   OH233769   2.065   0.335   3.585
11275TIP3    H133770   2.149   0.308   3.550
11275TIP3    H233771   2.000   0.296   3.526
11276TIP3   OH233772   0.361   5.354   2.003
11276TIP3    H133773   0.290   5.417   1.994
11276TIP3    H233774   0.413   5.387   2.077
11277TIP3   OH233775   7.501   6.567   3.939
11277TIP3    H133776   7.585   6.583   3.895
11277TIP3    H233777   7.522   6.502   4.007
11278TIP3   OH233778   3.331   0.508   5.137
11278TIP3    H133779   3.298   0.584   5.185
11278TIP3    H233780   3.417   0.492   5.175
11279TIP3   OH233781   2.667   3.947   3.828
11279TIP3    H133782   2.743   3.910   3.874
11279TIP3    H233783   2.677   4.042   3.838
11280TIP3   OH233784   1.467   2.119   3.957
11280TIP3    H133785   1.531   2.163   4.014
11280TIP3    H233786   1.412   2.069   4.017
11281TIP3   OH233787   3.299   0.240   2.114
11281TIP3    H133788   3.210   0.224   2.082
11281TIP3    H233789   3.301   0.334   2.133
11282TIP3   OH233790   4.391   6.644   3.086
11282TIP3    H133791   4.300   6.617   3.086
11282TIP3    H233792   4.441   6.563   3.100
11283TIP3   OH233793   1.447   4.514   0.092
11283TIP3    H133794   1.393   4.534   0.016
11283TIP3    H233795   1.533   4.490   0.055
11284TIP3   OH233796   8.133   6.763   5.250
11284TIP3    H133797   8.065   6.745   5.186
11284TIP3    H233798   8.201   6.698   5.233
11285TIP3   OH233799   3.631   1.172   5.393
11285TIP3    H133800   3.630   1.085   5.433
11285TIP3    H233801   3.691   1.163   5.319
11286TIP3   OH233802   2.202   6.515   5.153
11286TIP3    H133803   2.186   6.517   5.058
11286TIP3    H233804   2.281   6.567   5.165
11287TIP3   OH233805   6.649   6.284   1.206
11287TIP3    H133806   6.556   6.264   1.199
11287TIP3    H233807   6.655   6.349   1.277
11288TIP3   OH233808   4.823   3.124   1.221
11288TIP3    H133809   4.878   3.070   1.165
11288TIP3    H233810   4.770   3.176   1.160
11289TIP3   OH233811   7.410   0.360   2.457
11289TIP3    H133812   7.364   0.337   2.376
11289TIP3    H233813   7.469   0.430   2.432
11290TIP3   OH233814   5.418   2.035   0.293
11290TIP3    H133815   5.375   1.966   0.242
11290TIP3    H233816   5.346   2.093   0.319
11291TIP3   OH233817   4.633   1.005   6.502
11291TIP3    H133818   4.577   0.967   6.569
11291TIP3    H233819   4.658   0.931   6.446
11292TIP3   OH233820   3.320   3.198   3.647
11292TIP3    H133821   3.331   3.293   3.640
11292TIP3    H233822   3.366   3.175   3.728
11293TIP3   OH233823   8.005   2.252   1.227
11293TIP3    H133824   7.984   2.181   1.289
11293TIP3    H233825   8.097   2.239   1.206
11294TIP3   OH233826   1.898   7.470   4.716
11294TIP3    H133827   1.890   7.375   4.718
11294TIP3    H233828   1.905   7.492   4.623
11295TIP3   OH233829   3.624   6.898   3.324
11295TIP3    H133830   3.655   6.962   3.259
11295TIP3    H233831   3.693   6.897   3.391
11296TIP3   OH233832   6.068   4.634   2.651
11296TIP3    H133833   6.134   4.651   2.584
11296TIP3    H233834   6.100   4.678   2.729
11297TIP3   OH233835   5.913   0.983   0.337
11297TIP3    H133836   5.941   1.075   0.340
11297TIP3    H233837   5.952   0.949   0.257
11298TIP3   OH233838   0.279   7.596   0.907
11298TIP3    H133839   0.193   7.637   0.901
11298TIP3    H233840   0.341   7.668   0.902
11299TIP3   OH233841   8.225   3.006   3.192
11299TIP3    H133842   8.316   3.019   3.220
11299TIP3    H233843   8.228   2.927   3.139
11300TIP3   OH233844   6.739   6.622   3.599
11300TIP3    H133845   6.803   6.614   3.529
11300TIP3    H233846   6.787   6.601   3.679
11301TIP3   OH233847   0.664   7.049   5.332
11301TIP3    H133848   0.751   7.071   5.365
11301TIP3    H233849   0.640   7.124   5.276
11302TIP3   OH233850   0.486   2.330   2.163
11302TIP3    H133851   0.401   2.367   2.188
11302TIP3    H233852   0.548   2.401   2.178
11303TIP3   OH233853   3.732   5.596   4.990
11303TIP3    H133854   3.759   5.551   4.910
11303TIP3    H233855   3.637   5.609   4.979
11304TIP3   OH233856   4.926   6.899   1.444
11304TIP3    H133857   4.833   6.888   1.462
11304TIP3    H233858   4.966   6.914   1.530
11305TIP3   OH233859   5.947   1.830   2.271
11305TIP3    H133860   5.999   1.750   2.271
11305TIP3    H233861   6.009   1.899   2.251
11306TIP3   OH233862   2.659   7.451   0.004
11306TIP3    H133863   2.696   7.497   0.080
11306TIP3    H233864   2.734   7.408  -0.036
11307TIP3   OH233865   7.436   4.855   3.481
11307TIP3    H133866   7.418   4.803   3.559
11307TIP3    H233867   7.497   4.923   3.510
11308TIP3   OH233868   0.125   3.767   0.819
11308TIP3    H133869   0.215   3.737   0.836
11308TIP3    H233870   0.074   3.686   0.813
11309TIP3   OH233871   5.679   3.636   1.581
11309TIP3    H133872   5.663   3.612   1.672
11309TIP3    H233873   5.602   3.605   1.534
11310TIP3   OH233874   1.680   4.564   5.758
11310TIP3    H133875   1.737   4.563   5.835
11310TIP3    H233876   1.713   4.635   5.704
11311TIP3   OH233877   2.376   0.840   0.320
11311TIP3    H133878   2.413   0.843   0.232
11311TIP3    H233879   2.340   0.752   0.329
11312TIP3   OH233880   1.221   4.375   1.784
11312TIP3    H133881   1.216   4.470   1.786
11312TIP3    H233882   1.308   4.356   1.748
11313TIP3   OH233883   3.814   3.531   3.134
11313TIP3    H133884   3.745   3.513   3.070
11313TIP3    H233885   3.889   3.478   3.104
11314TIP3   OH233886   2.571   7.345   6.755
11314TIP3    H133887   2.565   7.306   6.668
11314TIP3    H233888   2.547   7.274   6.814
11315TIP3   OH233889   3.246   0.068   6.112
11315TIP3    H133890   3.228   0.161   6.097
11315TIP3    H233891   3.166   0.024   6.085
11316TIP3   OH233892   2.486   6.872   5.612
11316TIP3    H133893   2.477   6.910   5.525
11316TIP3    H233894   2.576   6.840   5.615
11317TIP3   OH233895   5.195   7.496   6.517
11317TIP3    H133896   5.105   7.469   6.502
11317TIP3    H233897   5.191   7.552   6.595
11318TIP3   OH233898   3.445   7.381   5.909
11318TIP3    H133899   3.435   7.402   5.816
11318TIP3    H233900   3.493   7.299   5.910
11319TIP3   OH233901   2.057   3.743   5.094
11319TIP3    H133902   2.104   3.661   5.109
11319TIP3    H233903   1.987   3.743   5.159
11320TIP3   OH233904   0.485   7.278   5.214
11320TIP3    H133905   0.443   7.344   5.268
11320TIP3    H233906   0.548   7.326   5.161
11321TIP3   OH233907   5.308   3.435   4.782
11321TIP3    H133908   5.328   3.408   4.872
11321TIP3    H233909   5.282   3.527   4.789
11322TIP3   OH233910   3.914   2.664   0.534
11322TIP3    H133911   3.836   2.642   0.484
11322TIP3    H233912   3.923   2.759   0.527
11323TIP3   OH233913   2.683   5.461   2.776
11323TIP3    H133914   2.778   5.453   2.784
11323TIP3    H233915   2.648   5.397   2.838
11324TIP3   OH233916   1.680   0.636   2.756
11324TIP3    H133917   1.773   0.658   2.749
11324TIP3    H233918   1.645   0.696   2.821
11325TIP3   OH233919   5.314   2.415   4.397
11325TIP3    H133920   5.302   2.384   4.308
11325TIP3    H233921   5.346   2.339   4.445
11326TIP3   OH233922   7.024   2.827   2.333
11326TIP3    H133923   7.013   2.738   2.365
11326TIP3    H233924   7.021   2.882   2.411
11327TIP3   OH233925   5.176   3.175   5.271
11327TIP3    H133926   5.198   3.252   5.323
11327TIP3    H233927   5.109   3.130   5.322
11328TIP3   OH233928   2.832   4.621   2.601
11328TIP3    H133929   2.818   4.577   2.685
11328TIP3    H233930   2.745   4.652   2.576
11329TIP3   OH233931   3.378   1.142   0.302
11329TIP3    H133932   3.287   1.154   0.274
11329TIP3    H233933   3.430   1.171   0.227
11330TIP3   OH233934   6.699   1.016   2.409
11330TIP3    H133935   6.754   0.991   2.482
11330TIP3    H233936   6.620   0.963   2.418
11331TIP3   OH233937   3.651   0.087   4.688
11331TIP3    H133938   3.727   0.136   4.657
11331TIP3    H233939   3.664  -0.001   4.654
11332TIP3   OH233940   7.406   1.046   6.328
11332TIP3    H133941   7.364   0.987   6.265
11332TIP3    H233942   7.334   1.091   6.372
11333TIP3   OH233943   6.028   3.627   5.979
11333TIP3    H133944   5.968   3.652   6.049
11333TIP3    H233945   6.028   3.702   5.919
11334TIP3   OH233946   7.461   5.914   1.079
11334TIP3    H133947   7.478   5.982   1.014
11334TIP3    H233948   7.495   5.950   1.161
11335TIP3   OH233949   0.521   6.181   1.839
11335TIP3    H133950   0.576   6.122   1.788
11335TIP3    H233951   0.573   6.202   1.917
11336TIP3   OH233952   4.558   7.770   5.868
11336TIP3    H133953   4.517   7.834   5.809
11336TIP3    H233954   4.533   7.799   5.956
11337TIP3   OH233955   0.077   0.554   2.817
11337TIP3    H133956   0.118   0.629   2.859
11337TIP3    H233957   0.141   0.484   2.824
11338TIP3   OH233958   6.983   2.446   2.656
11338TIP3    H133959   6.922   2.374   2.640
11338TIP3    H233960   6.958   2.513   2.592
11339TIP3   OH233961   6.565   0.571   0.119
11339TIP3    H133962   6.587   0.500   0.180
11339TIP3    H233963   6.573   0.651   0.172
11340TIP3   OH233964   5.335   2.570   3.559
11340TIP3    H133965   5.414   2.529   3.524
11340TIP3    H233966   5.263   2.519   3.522
11341TIP3   OH233967   0.742   3.673   2.741
11341TIP3    H133968   0.671   3.698   2.799
11341TIP3    H233969   0.719   3.585   2.712
11342TIP3   OH233970   5.663   1.132   0.198
11342TIP3    H133971   5.655   1.046   0.239
11342TIP3    H233972   5.725   1.179   0.253
11343TIP3   OH233973   6.623   6.457   3.210
11343TIP3    H133974   6.616   6.521   3.139
11343TIP3    H233975   6.549   6.477   3.268
11344TIP3   OH233976   0.547   2.008   6.227
11344TIP3    H133977   0.505   1.936   6.180
11344TIP3    H233978   0.474   2.060   6.263
11345TIP3   OH233979   6.254   1.312   3.436
11345TIP3    H133980   6.201   1.367   3.379
11345TIP3    H233981   6.210   1.227   3.435
11346TIP3   OH233982   5.661   6.722   6.275
11346TIP3    H133983   5.664   6.778   6.352
11346TIP3    H233984   5.645   6.634   6.309
11347TIP3   OH233985   2.842   3.595   2.880
11347TIP3    H133986   2.865   3.679   2.840
11347TIP3    H233987   2.756   3.573   2.844
11348TIP3   OH233988   4.130   6.738   5.992
11348TIP3    H133989   4.179   6.809   5.950
11348TIP3    H233990   4.076   6.782   6.058
11349TIP3   OH233991   6.343   0.767   2.195
11349TIP3    H133992   6.254   0.753   2.163
11349TIP3    H233993   6.400   0.745   2.121
11350TIP3   OH233994   0.907   7.646   5.968
11350TIP3    H133995   0.968   7.598   5.912
11350TIP3    H233996   0.896   7.591   6.046
11351TIP3   OH233997   0.801   0.526   1.310
11351TIP3    H133998   0.885   0.539   1.354
11351TIP3    H233999   0.735   0.549   1.375
11352TIP3   OH234000   1.819   5.303   4.384
11352TIP3    H134001   1.742   5.246   4.391
11352TIP3    H234002   1.792   5.373   4.325
11353TIP3   OH234003   7.593   0.200   3.519
11353TIP3    H134004   7.577   0.253   3.598
11353TIP3    H234005   7.616   0.114   3.553
11354TIP3   OH234006   0.524   4.172   1.464
11354TIP3    H134007   0.518   4.105   1.395
11354TIP3    H234008   0.617   4.189   1.473
11355TIP3   OH234009   2.623   0.658   3.384
11355TIP3    H134010   2.538   0.617   3.367
11355TIP3    H234011   2.645   0.704   3.303
11356TIP3   OH234012   1.646   2.857   6.732
11356TIP3    H134013   1.733   2.876   6.765
11356TIP3    H234014   1.632   2.765   6.754
11357TIP3   OH234015   4.819   7.289   1.393
11357TIP3    H134016   4.762   7.364   1.411
11357TIP3    H234017   4.764   7.212   1.408
11358TIP3   OH234018   2.042   5.301   0.510
11358TIP3    H134019   2.099   5.341   0.575
11358TIP3    H234020   2.097   5.291   0.432
11359TIP3   OH234021   6.241   4.661   4.918
11359TIP3    H134022   6.219   4.620   4.834
11359TIP3    H234023   6.306   4.603   4.957
11360TIP3   OH234024   7.580   7.770   0.947
11360TIP3    H134025   7.574   7.858   0.984
11360TIP3    H234026   7.496   7.756   0.903
11361TIP3   OH234027   0.123   6.418   2.361
11361TIP3    H134028   0.077   6.482   2.415
11361TIP3    H234029   0.054   6.366   2.321
11362TIP3   OH234030   6.659   5.965   6.332
11362TIP3    H134031   6.666   5.961   6.427
11362TIP3    H234032   6.565   5.966   6.314
11363TIP3   OH234033   6.191   6.833   4.024
11363TIP3    H134034   6.278   6.869   4.006
11363TIP3    H234035   6.146   6.834   3.940
11364TIP3   OH234036   4.526   4.609   6.757
11364TIP3    H134037   4.513   4.593   6.664
11364TIP3    H234038   4.564   4.697   6.761
11365TIP3   OH234039   7.067   6.617   6.100
11365TIP3    H134040   7.086   6.641   6.009
11365TIP3    H234041   7.153   6.597   6.138
11366TIP3   OH234042   6.702   3.617   1.341
11366TIP3    H134043   6.780   3.669   1.324
11366TIP3    H234044   6.699   3.609   1.437
11367TIP3   OH234045   2.999   0.893   6.770
11367TIP3    H134046   2.915   0.937   6.756
11367TIP3    H234047   3.059   0.937   6.710
11368TIP3   OH234048   6.924   6.682   3.107
11368TIP3    H134049   6.908   6.751   3.171
11368TIP3    H234050   7.019   6.674   3.102
11369TIP3   OH234051   2.212   3.209   3.112
11369TIP3    H134052   2.179   3.244   3.194
11369TIP3    H234053   2.136   3.211   3.053
11370TIP3   OH234054   1.490   3.844   4.908
11370TIP3    H134055   1.448   3.911   4.963
11370TIP3    H234056   1.503   3.887   4.824
11371TIP3   OH234057   1.485   2.477   6.780
11371TIP3    H134058   1.573   2.497   6.811
11371TIP3    H234059   1.496   2.456   6.687
11372TIP3   OH234060   1.499   3.806   1.754
11372TIP3    H134061   1.502   3.815   1.659
11372TIP3    H234062   1.482   3.894   1.787
11373TIP3   OH234063   6.201   6.967   1.518
11373TIP3    H134064   6.188   6.893   1.577
11373TIP3    H234065   6.294   6.965   1.497
11374TIP3   OH234066   5.164   5.743   1.810
11374TIP3    H134067   5.141   5.824   1.765
11374TIP3    H234068   5.080   5.702   1.831
11375TIP3   OH234069   1.643   5.508   4.009
11375TIP3    H134070   1.592   5.429   4.021
11375TIP3    H234071   1.701   5.512   4.085
11376TIP3   OH234072   0.544   2.712   0.692
11376TIP3    H134073   0.636   2.739   0.693
11376TIP3    H234074   0.540   2.638   0.752
11377TIP3   OH234075   3.146   1.575   1.242
11377TIP3    H134076   3.185   1.612   1.163
11377TIP3    H234077   3.220   1.541   1.292
11378TIP3   OH234078   2.089   7.481   1.864
11378TIP3    H134079   2.141   7.561   1.857
11378TIP3    H234080   2.000   7.509   1.843
11379TIP3   OH234081   5.301   7.731   1.300
11379TIP3    H134082   5.249   7.696   1.227
11379TIP3    H234083   5.335   7.814   1.267
11380TIP3   OH234084   6.879   4.508   3.709
11380TIP3    H134085   6.824   4.562   3.765
11380TIP3    H234086   6.965   4.508   3.752
11381TIP3   OH234087   5.874   0.101   6.570
11381TIP3    H134088   5.795   0.054   6.597
11381TIP3    H234089   5.847   0.150   6.492
11382TIP3   OH234090   4.135   1.235   3.494
11382TIP3    H134091   4.161   1.275   3.412
11382TIP3    H234092   4.204   1.257   3.556
11383TIP3   OH234093   1.806   0.355   1.429
11383TIP3    H134094   1.788   0.318   1.343
11383TIP3    H234095   1.731   0.412   1.447
11384TIP3   OH234096   7.489   2.774   0.222
11384TIP3    H134097   7.488   2.869   0.213
11384TIP3    H234098   7.471   2.740   0.134
11385TIP3   OH234099   8.149   1.300   2.099
11385TIP3    H134100   8.056   1.298   2.077
11385TIP3    H234101   8.154   1.353   2.179
11386TIP3   OH234102   8.295   2.342   5.648
11386TIP3    H134103   8.329   2.375   5.731
11386TIP3    H234104   8.238   2.269   5.673
11387TIP3   OH234105   4.790   1.969   6.212
11387TIP3    H134106   4.796   1.975   6.308
11387TIP3    H234107   4.809   2.058   6.182
11388TIP3   OH234108   5.331   1.337   2.185
11388TIP3    H134109   5.274   1.414   2.176
11388TIP3    H234110   5.284   1.279   2.244
11389TIP3   OH234111   8.209   4.812   3.485
11389TIP3    H134112   8.298   4.792   3.511
11389TIP3    H234113   8.213   4.819   3.389
11390TIP3   OH234114   8.154   1.655   3.137
11390TIP3    H134115   8.131   1.694   3.221
11390TIP3    H234116   8.225   1.710   3.104
11391TIP3   OH234117   6.425   0.285   5.283
11391TIP3    H134118   6.329   0.285   5.286
11391TIP3    H234119   6.451   0.290   5.375
11392TIP3   OH234120   1.557   1.801   2.202
11392TIP3    H134121   1.535   1.722   2.252
11392TIP3    H234122   1.646   1.784   2.169
11393TIP3   OH234123   7.532   1.875   3.840
11393TIP3    H134124   7.524   1.924   3.758
11393TIP3    H234125   7.449   1.889   3.884
11394TIP3   OH234126   0.364   3.539   3.664
11394TIP3    H134127   0.354   3.484   3.742
11394TIP3    H234128   0.451   3.517   3.630
11395TIP3   OH234129   3.146   0.396   4.381
11395TIP3    H134130   3.168   0.472   4.327
11395TIP3    H234131   3.145   0.322   4.320
11396TIP3   OH234132   0.145   6.997   1.131
11396TIP3    H134133   0.160   6.903   1.126
11396TIP3    H234134   0.072   7.013   1.071
11397TIP3   OH234135   6.416   3.553   0.921
11397TIP3    H134136   6.400   3.643   0.951
11397TIP3    H234137   6.331   3.509   0.933
11398TIP3   OH234138   4.396   0.649   6.619
11398TIP3    H134139   4.318   0.687   6.659
11398TIP3    H234140   4.391   0.556   6.643
11399TIP3   OH234141   1.919   1.692   1.904
11399TIP3    H134142   1.967   1.610   1.916
11399TIP3    H234143   1.983   1.753   1.870
11400TIP3   OH234144   1.406   7.671   5.707
11400TIP3    H134145   1.428   7.628   5.790
11400TIP3    H234146   1.490   7.701   5.673
11401TIP3   OH234147   1.081   4.024   1.715
11401TIP3    H134148   1.105   3.975   1.793
11401TIP3    H234149   0.993   3.992   1.692
11402TIP3   OH234150   1.502   3.267   6.224
11402TIP3    H134151   1.496   3.201   6.155
11402TIP3    H234152   1.413   3.274   6.258
11403TIP3   OH234153   6.455   0.193   4.049
11403TIP3    H134154   6.500   0.122   4.093
11403TIP3    H234155   6.452   0.264   4.113
11404TIP3   OH234156   3.797   7.660   5.956
11404TIP3    H134157   3.888   7.648   5.930
11404TIP3    H234158   3.775   7.748   5.926
11405TIP3   OH234159   5.278   6.169   1.892
11405TIP3    H134160   5.200   6.202   1.847
11405TIP3    H234161   5.329   6.127   1.823
11406TIP3   OH234162   1.427   4.840   6.765
11406TIP3    H134163   1.379   4.826   6.847
11406TIP3    H234164   1.367   4.808   6.697
11407TIP3   OH234165   6.022   5.421   0.496
11407TIP3    H134166   6.041   5.367   0.573
11407TIP3    H234167   6.046   5.510   0.522
11408TIP3   OH234168   4.819   5.015   1.241
11408TIP3    H134169   4.852   4.992   1.328
11408TIP3    H234170   4.741   5.068   1.258
11409TIP3   OH234171   5.200   5.925   0.904
11409TIP3    H134172   5.154   5.884   0.830
11409TIP3    H234173   5.138   5.991   0.937
11410TIP3   OH234174   0.005   3.373   5.001
11410TIP3    H134175   0.021   3.377   4.907
11410TIP3    H234176   0.091   3.360   5.040
11411TIP3   OH234177   3.653   6.562   4.672
11411TIP3    H134178   3.626   6.651   4.695
11411TIP3    H234179   3.619   6.508   4.743
11412TIP3   OH234180   7.898   4.112   2.912
11412TIP3    H134181   7.825   4.142   2.966
11412TIP3    H234182   7.976   4.132   2.963
11413TIP3   OH234183   5.954   5.534   6.341
11413TIP3    H134184   5.925   5.444   6.355
11413TIP3    H234185   5.878   5.588   6.364
11414TIP3   OH234186   7.638   0.052   5.416
11414TIP3    H134187   7.711  -0.003   5.386
11414TIP3    H234188   7.668   0.087   5.500
11415TIP3   OH234189   3.373   0.625   0.998
11415TIP3    H134190   3.294   0.577   0.974
11415TIP3    H234191   3.430   0.560   1.039
11416TIP3   OH234192   6.771   4.009   0.498
11416TIP3    H134193   6.749   3.987   0.588
11416TIP3    H234194   6.688   4.004   0.451
11417TIP3   OH234195   5.592   4.726   6.203
11417TIP3    H134196   5.669   4.780   6.184
11417TIP3    H234197   5.525   4.757   6.142
11418TIP3   OH234198   4.896   6.975   4.637
11418TIP3    H134199   4.915   6.994   4.728
11418TIP3    H234200   4.969   6.920   4.608
11419TIP3   OH234201   1.001   6.963   6.195
11419TIP3    H134202   0.957   7.046   6.216
11419TIP3    H234203   0.954   6.931   6.118
11420TIP3   OH234204   0.768   6.743   0.208
11420TIP3    H134205   0.818   6.819   0.237
11420TIP3    H234206   0.748   6.761   0.116
11421TIP3   OH234207   5.328   3.541   6.315
11421TIP3    H134208   5.303   3.578   6.230
11421TIP3    H234209   5.423   3.536   6.312
11422TIP3   OH234210   1.479   6.127   4.853
11422TIP3    H134211   1.517   6.072   4.785
11422TIP3    H234212   1.389   6.144   4.825
11423TIP3   OH234213   4.227   6.260   5.949
11423TIP3    H134214   4.248   6.311   6.027
11423TIP3    H234215   4.283   6.298   5.880
11424TIP3   OH234216   6.358   4.557   1.756
11424TIP3    H134217   6.441   4.533   1.716
11424TIP3    H234218   6.373   4.643   1.794
11425TIP3   OH234219   3.687   0.785   1.269
11425TIP3    H134220   3.760   0.826   1.223
11425TIP3    H234221   3.611   0.839   1.249
11426TIP3   OH234222   0.206   6.094   5.393
11426TIP3    H134223   0.212   6.097   5.297
11426TIP3    H234224   0.112   6.093   5.410
11427TIP3   OH234225   6.720   2.690   2.234
11427TIP3    H134226   6.643   2.743   2.254
11427TIP3    H234227   6.745   2.717   2.145
11428TIP3   OH234228   6.472   7.466   3.315
11428TIP3    H134229   6.442   7.380   3.286
11428TIP3    H234230   6.439   7.473   3.405
11429TIP3   OH234231   8.275   2.412   6.495
11429TIP3    H134232   8.264   2.470   6.571
11429TIP3    H234233   8.369   2.403   6.484
11430TIP3   OH234234   4.912   0.331   1.576
11430TIP3    H134235   4.857   0.253   1.584
11430TIP3    H234236   4.997   0.304   1.611
11431TIP3   OH234237   0.102   0.210   4.318
11431TIP3    H134238   0.133   0.248   4.400
11431TIP3    H234239   0.080   0.286   4.263
11432TIP3   OH234240   6.747   5.672   4.130
11432TIP3    H134241   6.657   5.694   4.106
11432TIP3    H234242   6.758   5.581   4.102
11433TIP3   OH234243   1.691   5.235   2.193
11433TIP3    H134244   1.634   5.160   2.210
11433TIP3    H234245   1.761   5.227   2.258
11434TIP3   OH234246   6.078   2.491   5.293
11434TIP3    H134247   6.142   2.543   5.245
11434TIP3    H234248   6.026   2.449   5.225
11435TIP3   OH234249   0.961   4.663   0.608
11435TIP3    H134250   0.906   4.655   0.530
11435TIP3    H234251   1.039   4.611   0.587
11436TIP3   OH234252   3.664   2.766   6.753
11436TIP3    H134253   3.689   2.725   6.836
11436TIP3    H234254   3.573   2.739   6.740
11437TIP3   OH234255   0.768   4.478   0.129
11437TIP3    H134256   0.803   4.389   0.124
11437TIP3    H234257   0.721   4.490   0.046
11438TIP3   OH234258   7.188   6.963   0.133
11438TIP3    H134259   7.150   6.899   0.072
11438TIP3    H234260   7.279   6.971   0.107
11439TIP3   OH234261   0.578   2.011   5.931
11439TIP3    H134262   0.641   2.081   5.950
11439TIP3    H234263   0.627   1.949   5.876
11440TIP3   OH234264   5.327   4.959   0.567
11440TIP3    H134265   5.346   5.045   0.603
11440TIP3    H234266   5.236   4.964   0.537
11441TIP3   OH234267   2.095   4.086   5.290
11441TIP3    H134268   2.011   4.109   5.331
11441TIP3    H234269   2.128   4.012   5.341
11442TIP3   OH234270   7.010   4.273   6.616
11442TIP3    H134271   7.030   4.318   6.534
11442TIP3    H234272   6.994   4.182   6.589
11443TIP3   OH234273   7.593   3.913   3.591
11443TIP3    H134274   7.642   3.863   3.526
11443TIP3    H234275   7.530   3.964   3.539
11444TIP3   OH234276   5.767   1.764   6.022
11444TIP3    H134277   5.825   1.834   5.989
11444TIP3    H234278   5.720   1.805   6.095
11445TIP3   OH234279   7.686   0.777   2.172
11445TIP3    H134280   7.760   0.813   2.123
11445TIP3    H234281   7.641   0.721   2.109
11446TIP3   OH234282   6.833   0.335   1.922
11446TIP3    H134283   6.827   0.244   1.950
11446TIP3    H234284   6.763   0.380   1.969
11447TIP3   OH234285   6.488   7.762   2.708
11447TIP3    H134286   6.543   7.724   2.776
11447TIP3    H234287   6.544   7.827   2.665
11448TIP3   OH234288   7.138   5.231   5.259
11448TIP3    H134289   7.220   5.246   5.306
11448TIP3    H234290   7.079   5.193   5.325
11449TIP3   OH234291   3.737   1.333   2.942
11449TIP3    H134292   3.823   1.304   2.970
11449TIP3    H234293   3.707   1.266   2.881
11450TIP3   OH234294   0.138   0.256   5.771
11450TIP3    H134295   0.064   0.204   5.741
11450TIP3    H234296   0.211   0.194   5.776
11451TIP3   OH234297   6.285   3.974   2.046
11451TIP3    H134298   6.193   3.989   2.068
11451TIP3    H234299   6.286   3.892   1.997
11452TIP3   OH234300   0.352   0.086   2.048
11452TIP3    H134301   0.431   0.118   2.005
11452TIP3    H234302   0.298   0.165   2.060
11453TIP3   OH234303   8.299   1.313   4.461
11453TIP3    H134304   8.311   1.407   4.448
11453TIP3    H234305   8.253   1.306   4.544
11454TIP3   OH234306   3.844   6.877   4.579
11454TIP3    H134307   3.881   6.790   4.594
11454TIP3    H234308   3.857   6.924   4.661
11455TIP3   OH234309   6.045   1.382   3.019
11455TIP3    H134310   5.962   1.362   2.976
11455TIP3    H234311   6.055   1.476   3.009
11456TIP3   OH234312   5.652   6.560   0.676
11456TIP3    H134313   5.626   6.639   0.627
11456TIP3    H234314   5.569   6.516   0.695
11457TIP3   OH234315   7.263   1.384   6.306
11457TIP3    H134316   7.191   1.384   6.370
11457TIP3    H234317   7.341   1.406   6.357
11458TIP3   OH234318   6.413   6.638   3.841
11458TIP3    H134319   6.338   6.692   3.815
11458TIP3    H234320   6.383   6.594   3.921
11459TIP3   OH234321   2.072   4.452   2.306
11459TIP3    H134322   2.122   4.459   2.225
11459TIP3    H234323   2.058   4.542   2.334
11460TIP3   OH234324   0.709   5.437   1.010
11460TIP3    H134325   0.787   5.391   0.977
11460TIP3    H234326   0.639   5.372   1.003
11461TIP3   OH234327   3.934   7.804   6.683
11461TIP3    H134328   3.871   7.732   6.671
11461TIP3    H234329   3.896   7.857   6.753
11462TIP3   OH234330   8.172   1.209   5.164
11462TIP3    H134331   8.101   1.171   5.215
11462TIP3    H234332   8.144   1.299   5.146
11463TIP3   OH234333   6.131   2.340   1.599
11463TIP3    H134334   6.210   2.357   1.650
11463TIP3    H234335   6.067   2.309   1.664
11464TIP3   OH234336   8.018   4.228   6.392
11464TIP3    H134337   7.924   4.244   6.399
11464TIP3    H234338   8.028   4.183   6.308
11465TIP3   OH234339   1.022   3.634   1.327
11465TIP3    H134340   0.990   3.712   1.282
11465TIP3    H234341   0.944   3.582   1.344
11466TIP3   OH234342   1.761   4.593   0.105
11466TIP3    H134343   1.743   4.574   0.013
11466TIP3    H234344   1.715   4.675   0.122
11467TIP3   OH234345   3.072   2.877   6.287
11467TIP3    H134346   3.127   2.866   6.365
11467TIP3    H234347   3.048   2.970   6.288
11468TIP3   OH234348   2.082   7.238   3.916
11468TIP3    H134349   2.062   7.263   3.826
11468TIP3    H234350   2.164   7.282   3.937
11469TIP3   OH234351   3.219   2.804   3.357
11469TIP3    H134352   3.202   2.728   3.302
11469TIP3    H234353   3.213   2.771   3.447
11470TIP3   OH234354   3.785   1.851   1.307
11470TIP3    H134355   3.857   1.907   1.336
11470TIP3    H234356   3.736   1.905   1.245
11471TIP3   OH234357   5.173   1.572   3.393
11471TIP3    H134358   5.108   1.534   3.333
11471TIP3    H234359   5.121   1.609   3.465
11472TIP3   OH234360   2.483   3.179   3.153
11472TIP3    H134361   2.533   3.256   3.126
11472TIP3    H234362   2.400   3.187   3.105
11473TIP3   OH234363   1.956   5.864   1.916
11473TIP3    H134364   1.873   5.859   1.868
11473TIP3    H234365   1.974   5.957   1.922
11474TIP3   OH234366   7.540   1.220   5.172
11474TIP3    H134367   7.576   1.131   5.174
11474TIP3    H234368   7.596   1.267   5.110
11475TIP3   OH234369   7.297   5.599   1.129
11475TIP3    H134370   7.314   5.532   1.063
11475TIP3    H234371   7.367   5.588   1.193
11476TIP3   OH234372   6.844   2.620   6.461
11476TIP3    H134373   6.842   2.661   6.375
11476TIP3    H234374   6.823   2.528   6.444
11477TIP3   OH234375   2.609   7.306   1.158
11477TIP3    H134376   2.585   7.230   1.105
11477TIP3    H234377   2.683   7.345   1.111
11478TIP3   OH234378   2.430   3.263   1.379
11478TIP3    H134379   2.474   3.306   1.453
11478TIP3    H234380   2.452   3.318   1.303
11479TIP3   OH234381   5.263   6.221   4.224
11479TIP3    H134382   5.168   6.210   4.218
11479TIP3    H234383   5.286   6.271   4.146
11480TIP3   OH234384   2.652   1.799   1.619
11480TIP3    H134385   2.635   1.732   1.685
11480TIP3    H234386   2.643   1.753   1.535
11481TIP3   OH234387   8.221   4.894   3.232
11481TIP3    H134388   8.264   4.851   3.158
11481TIP3    H234389   8.185   4.975   3.194
11482TIP3   OH234390   5.684   0.849   6.142
11482TIP3    H134391   5.655   0.938   6.123
11482TIP3    H234392   5.604   0.803   6.167
11483TIP3   OH234393   0.603   4.965   0.480
11483TIP3    H134394   0.695   4.978   0.459
11483TIP3    H234395   0.555   5.015   0.413
11484TIP3   OH234396   1.731   2.441   3.694
11484TIP3    H134397   1.809   2.391   3.717
11484TIP3    H234398   1.752   2.531   3.720
11485TIP3   OH234399   6.784   6.344   1.658
11485TIP3    H134400   6.788   6.251   1.634
11485TIP3    H234401   6.833   6.388   1.588
11486TIP3   OH234402   2.674   0.617   4.134
11486TIP3    H134403   2.625   0.560   4.193
11486TIP3    H234404   2.708   0.686   4.191
11487TIP3   OH234405   2.761   3.041   0.269
11487TIP3    H134406   2.710   3.001   0.198
11487TIP3    H234407   2.852   3.032   0.241
11488TIP3   OH234408   3.481   4.024   0.446
11488TIP3    H134409   3.471   4.060   0.534
11488TIP3    H234410   3.507   4.099   0.392
11489TIP3   OH234411   1.195   4.262   3.482
11489TIP3    H134412   1.263   4.198   3.467
11489TIP3    H234413   1.145   4.264   3.400
11490TIP3   OH234414   1.623   4.947   3.976
11490TIP3    H134415   1.591   4.872   3.927
11490TIP3    H234416   1.713   4.924   3.999
11491TIP3   OH234417   4.980   1.166   4.212
11491TIP3    H134418   5.063   1.120   4.221
11491TIP3    H234419   4.972   1.185   4.119
11492TIP3   OH234420   4.914   2.329   2.386
11492TIP3    H134421   4.963   2.248   2.372
11492TIP3    H234422   4.943   2.360   2.472
11493TIP3   OH234423   7.269   2.189   2.714
11493TIP3    H134424   7.231   2.168   2.628
11493TIP3    H234425   7.195   2.184   2.775
11494TIP3   OH234426   4.405   7.544   1.391
11494TIP3    H134427   4.329   7.565   1.445
11494TIP3    H234428   4.455   7.626   1.388
11495TIP3   OH234429   0.228   3.247   5.584
11495TIP3    H134430   0.188   3.237   5.498
11495TIP3    H234431   0.170   3.198   5.643
11496TIP3   OH234432   1.228   4.120   1.501
11496TIP3    H134433   1.194   4.075   1.578
11496TIP3    H234434   1.183   4.204   1.501
11497TIP3   OH234435   3.962   3.196   4.909
11497TIP3    H134436   3.948   3.256   4.982
11497TIP3    H234437   3.883   3.142   4.908
11498TIP3   OH234438   3.125   3.298   5.947
11498TIP3    H134439   3.204   3.293   6.001
11498TIP3    H234440   3.159   3.315   5.858
11499TIP3   OH234441   7.191   5.008   6.702
11499TIP3    H134442   7.136   5.012   6.779
11499TIP3    H234443   7.280   5.021   6.735
11500TIP3   OH234444   7.376   3.050   6.566
11500TIP3    H134445   7.400   3.019   6.653
11500TIP3    H234446   7.382   3.145   6.571
11501TIP3   OH234447   4.779   4.863   2.833
11501TIP3    H134448   4.845   4.809   2.790
11501TIP3    H234449   4.823   4.898   2.910
11502TIP3   OH234450   4.239   1.574   4.243
11502TIP3    H134451   4.154   1.588   4.200
11502TIP3    H234452   4.235   1.483   4.272
11503TIP3   OH234453   1.564   4.664   4.616
11503TIP3    H134454   1.566   4.720   4.693
11503TIP3    H234455   1.654   4.633   4.605
11504TIP3   OH234456   4.942   6.244   5.613
11504TIP3    H134457   4.893   6.262   5.532
11504TIP3    H234458   4.992   6.324   5.629
11505TIP3   OH234459   2.174   5.360   0.284
11505TIP3    H134460   2.189   5.272   0.248
11505TIP3    H234461   2.139   5.410   0.211
11506TIP3   OH234462   6.064   1.687   3.638
11506TIP3    H134463   6.073   1.602   3.683
11506TIP3    H234464   6.102   1.750   3.698
11507TIP3   OH234465   1.866   3.111   3.582
11507TIP3    H134466   1.789   3.067   3.617
11507TIP3    H234467   1.928   3.040   3.565
11508TIP3   OH234468   8.283   4.891   4.405
11508TIP3    H134469   8.347   4.851   4.346
11508TIP3    H234470   8.198   4.858   4.373
11509TIP3   OH234471   1.029   6.505   0.664
11509TIP3    H134472   1.044   6.529   0.572
11509TIP3    H234473   1.107   6.537   0.709
11510TIP3   OH234474   1.460   1.638   6.106
11510TIP3    H134475   1.424   1.702   6.167
11510TIP3    H234476   1.425   1.554   6.136
11511TIP3   OH234477   1.450   6.381   2.264
11511TIP3    H134478   1.522   6.325   2.293
11511TIP3    H234479   1.398   6.324   2.206
11512TIP3   OH234480   6.733   7.086   5.428
11512TIP3    H134481   6.781   7.026   5.486
11512TIP3    H234482   6.651   7.102   5.473
11513TIP3   OH234483   3.917   6.383   4.703
11513TIP3    H134484   4.002   6.349   4.730
11513TIP3    H234485   3.870   6.306   4.671
11514TIP3   OH234486   5.766   0.375   5.562
11514TIP3    H134487   5.738   0.466   5.550
11514TIP3    H234488   5.694   0.334   5.611
11515TIP3   OH234489   3.054   6.626   1.249
11515TIP3    H134490   3.139   6.657   1.282
11515TIP3    H234491   3.023   6.566   1.317
11516TIP3   OH234492   6.846   1.365   4.727
11516TIP3    H134493   6.932   1.348   4.766
11516TIP3    H234494   6.853   1.330   4.638
11517TIP3   OH234495   8.118   1.555   4.904
11517TIP3    H134496   8.035   1.595   4.878
11517TIP3    H234497   8.097   1.508   4.985
11518TIP3   OH234498   4.741   2.625   5.457
11518TIP3    H134499   4.761   2.689   5.388
11518TIP3    H234500   4.696   2.554   5.411
11519TIP3   OH234501   4.889   4.388   2.275
11519TIP3    H134502   4.857   4.424   2.358
11519TIP3    H234503   4.859   4.297   2.276
11520TIP3   OH234504   7.143   6.611   5.442
11520TIP3    H134505   7.124   6.593   5.350
11520TIP3    H234506   7.147   6.707   5.447
11521TIP3   OH234507   0.484   7.730   3.659
11521TIP3    H134508   0.548   7.798   3.681
11521TIP3    H234509   0.515   7.693   3.577
11522TIP3   OH234510   6.731   7.553   6.489
11522TIP3    H134511   6.719   7.644   6.516
11522TIP3    H234512   6.826   7.539   6.493
11523TIP3   OH234513   3.056   7.012   0.889
11523TIP3    H134514   3.083   7.051   0.972
11523TIP3    H234515   3.125   6.948   0.870
11524TIP3   OH234516   5.621   1.232   4.676
11524TIP3    H134517   5.707   1.197   4.699
11524TIP3    H234518   5.607   1.303   4.738
11525TIP3   OH234519   6.793   1.591   5.298
11525TIP3    H134520   6.758   1.528   5.362
11525TIP3    H234521   6.769   1.554   5.213
11526TIP3   OH234522   2.277   5.329   2.814
11526TIP3    H134523   2.211   5.259   2.819
11526TIP3    H234524   2.283   5.362   2.903
11527TIP3   OH234525   5.845   5.812   6.581
11527TIP3    H134526   5.782   5.781   6.515
11527TIP3    H234527   5.875   5.732   6.624
11528TIP3   OH234528   7.653   5.997   2.246
11528TIP3    H134529   7.680   6.065   2.307
11528TIP3    H234530   7.678   5.915   2.288
11529TIP3   OH234531   5.173   2.391   2.574
11529TIP3    H134532   5.217   2.425   2.496
11529TIP3    H234533   5.147   2.470   2.622
11530TIP3   OH234534   4.694   5.117   5.750
11530TIP3    H134535   4.621   5.162   5.792
11530TIP3    H234536   4.660   5.088   5.666
11531TIP3   OH234537   2.224   3.111   1.334
11531TIP3    H134538   2.292   3.162   1.378
11531TIP3    H234539   2.255   3.102   1.244
11532TIP3   OH234540   7.484   4.820   1.530
11532TIP3    H134541   7.496   4.791   1.439
11532TIP3    H234542   7.491   4.739   1.581
11533TIP3   OH234543   4.794   0.681   2.468
11533TIP3    H134544   4.737   0.619   2.514
11533TIP3    H234545   4.816   0.747   2.534
11534TIP3   OH234546   6.423   5.162   3.169
11534TIP3    H134547   6.480   5.091   3.140
11534TIP3    H234548   6.335   5.135   3.141
11535TIP3   OH234549   5.535   7.684   3.516
11535TIP3    H134550   5.569   7.608   3.563
11535TIP3    H234551   5.564   7.759   3.567
11536TIP3   OH234552   5.178   7.068   2.930
11536TIP3    H134553   5.264   7.075   2.889
11536TIP3    H234554   5.125   7.135   2.887
11537TIP3   OH234555   7.158   4.361   1.612
11537TIP3    H134556   7.219   4.374   1.684
11537TIP3    H234557   7.078   4.327   1.653
11538TIP3   OH234558   6.264   5.728   2.213
11538TIP3    H134559   6.308   5.795   2.265
11538TIP3    H234560   6.204   5.686   2.274
11539TIP3   OH234561   7.230   1.675   0.633
11539TIP3    H134562   7.161   1.741   0.621
11539TIP3    H234563   7.265   1.661   0.545
11540TIP3   OH234564   4.036   2.606   5.222
11540TIP3    H134565   3.977   2.564   5.160
11540TIP3    H234566   4.057   2.690   5.183
11541TIP3   OH234567   1.601   5.766   3.926
11541TIP3    H134568   1.559   5.755   4.011
11541TIP3    H234569   1.633   5.679   3.903
11542TIP3   OH234570   0.050   7.552   2.132
11542TIP3    H134571   0.049   7.643   2.162
11542TIP3    H234572   0.134   7.518   2.162
11543TIP3   OH234573   3.801   0.036   1.451
11543TIP3    H134574   3.814  -0.003   1.538
11543TIP3    H234575   3.775   0.126   1.469
11544TIP3   OH234576   2.231   4.432   3.393
11544TIP3    H134577   2.236   4.379   3.313
11544TIP3    H234578   2.149   4.480   3.385
11545TIP3   OH234579   7.196   5.639   0.037
11545TIP3    H134580   7.193   5.723  -0.010
11545TIP3    H234581   7.115   5.595   0.012
11546TIP3   OH234582   3.656   5.301   2.444
11546TIP3    H134583   3.598   5.246   2.497
11546TIP3    H234584   3.662   5.255   2.360
11547TIP3   OH234585   6.152   2.550   2.853
11547TIP3    H134586   6.206   2.627   2.871
11547TIP3    H234587   6.104   2.535   2.934
11548TIP3   OH234588   7.185   6.459   0.454
11548TIP3    H134589   7.226   6.375   0.433
11548TIP3    H234590   7.246   6.502   0.514
11549TIP3   OH234591   4.423   2.769   2.947
11549TIP3    H134592   4.419   2.688   2.895
11549TIP3    H234593   4.482   2.748   3.019
11550TIP3   OH234594   5.444   4.388   3.566
11550TIP3    H134595   5.474   4.478   3.566
11550TIP3    H234596   5.433   4.366   3.659
11551TIP3   OH234597   0.834   1.975   1.110
11551TIP3    H134598   0.767   1.947   1.048
11551TIP3    H234599   0.910   1.920   1.090
11552TIP3   OH234600   2.895   3.047   0.832
11552TIP3    H134601   2.978   3.054   0.881
11552TIP3    H234602   2.832   3.018   0.897
11553TIP3   OH234603   6.219   3.103   6.166
11553TIP3    H134604   6.146   3.112   6.227
11553TIP3    H234605   6.263   3.022   6.192
11554TIP3   OH234606   7.157   0.129   0.271
11554TIP3    H134607   7.229   0.140   0.208
11554TIP3    H234608   7.191   0.067   0.335
11555TIP3   OH234609   6.378   5.163   4.400
11555TIP3    H134610   6.295   5.210   4.404
11555TIP3    H234611   6.404   5.168   4.308
11556TIP3   OH234612   1.298   0.992   5.852
11556TIP3    H134613   1.375   1.015   5.800
11556TIP3    H234614   1.231   1.055   5.826
11557TIP3   OH234615   5.833   2.574   1.229
11557TIP3    H134616   5.743   2.578   1.264
11557TIP3    H234617   5.841   2.653   1.176
11558TIP3   OH234618   7.930   7.191   3.143
11558TIP3    H134619   7.972   7.145   3.070
11558TIP3    H234620   7.888   7.267   3.102
11559TIP3   OH234621   6.665   7.647   6.078
11559TIP3    H134622   6.661   7.551   6.074
11559TIP3    H234623   6.745   7.670   6.031
11560TIP3   OH234624   2.197   0.943   3.209
11560TIP3    H134625   2.226   1.033   3.195
11560TIP3    H234626   2.209   0.928   3.303
11561TIP3   OH234627   1.958   7.773   1.081
11561TIP3    H134628   2.026   7.727   1.032
11561TIP3    H234629   1.931   7.711   1.148
11562TIP3   OH234630   2.738   7.051   4.216
11562TIP3    H134631   2.716   6.969   4.261
11562TIP3    H234632   2.830   7.066   4.237
11563TIP3   OH234633   3.805   2.879   5.966
11563TIP3    H134634   3.807   2.784   5.957
11563TIP3    H234635   3.894   2.908   5.944
11564TIP3   OH234636   2.529   1.279   5.691
11564TIP3    H134637   2.511   1.223   5.615
11564TIP3    H234638   2.454   1.267   5.748
11565TIP3   OH234639   0.158   4.690   0.508
11565TIP3    H134640   0.215   4.618   0.536
11565TIP3    H234641   0.193   4.767   0.551
11566TIP3   OH234642   8.219   3.337   4.564
11566TIP3    H134643   8.135   3.326   4.519
11566TIP3    H234644   8.265   3.404   4.514
11567TIP3   OH234645   8.088   0.013   4.290
11567TIP3    H134646   8.106  -0.033   4.208
11567TIP3    H234647   8.081   0.105   4.265
11568TIP3   OH234648   6.890   4.751   6.060
11568TIP3    H134649   6.825   4.724   6.125
11568TIP3    H234650   6.839   4.775   5.983
11569TIP3   OH234651   0.012   4.707   2.343
11569TIP3    H134652   0.061   4.768   2.399
11569TIP3    H234653   0.024   4.622   2.383
11570TIP3   OH234654   6.181   4.754   2.958
11570TIP3    H134655   6.097   4.800   2.962
11570TIP3    H234656   6.242   4.818   2.922
11571TIP3   OH234657   1.618   7.295   5.936
11571TIP3    H134658   1.560   7.220   5.951
11571TIP3    H234659   1.668   7.303   6.018
11572TIP3   OH234660   6.428   3.186   2.969
11572TIP3    H134661   6.429   3.101   3.011
11572TIP3    H234662   6.335   3.204   2.954
11573TIP3   OH234663   6.363   0.125   1.626
11573TIP3    H134664   6.446   0.160   1.593
11573TIP3    H234665   6.300   0.140   1.556
11574TIP3   OH234666   5.459   1.700   1.524
11574TIP3    H134667   5.546   1.706   1.565
11574TIP3    H234668   5.438   1.790   1.499
11575TIP3   OH234669   2.685   7.118   3.043
11575TIP3    H134670   2.673   7.058   3.117
11575TIP3    H234671   2.654   7.203   3.075
11576TIP3   OH234672   1.081   6.075   4.804
11576TIP3    H134673   1.075   5.988   4.765
11576TIP3    H234674   1.067   6.061   4.897
11577TIP3   OH234675   0.280   3.037   4.459
11577TIP3    H134676   0.187   3.029   4.479
11577TIP3    H234677   0.316   3.090   4.530
11578TIP3   OH234678   1.923   3.712   0.018
11578TIP3    H134679   1.842   3.661   0.023
11578TIP3    H234680   1.897   3.797  -0.017
11579TIP3   OH234681   6.925   7.389   4.928
11579TIP3    H134682   6.988   7.437   4.982
11579TIP3    H234683   6.971   7.308   4.904
11580TIP3   OH234684   8.243   5.750   6.722
11580TIP3    H134685   8.196   5.728   6.642
11580TIP3    H234686   8.175   5.749   6.790
11581TIP3   OH234687   7.065   4.470   6.401
11581TIP3    H134688   7.012   4.433   6.329
11581TIP3    H234689   7.156   4.454   6.374
11582TIP3   OH234690   3.328   6.286   0.410
11582TIP3    H134691   3.381   6.210   0.387
11582TIP3    H234692   3.239   6.251   0.419
11583TIP3   OH234693   6.884   3.667   3.131
11583TIP3    H134694   6.955   3.717   3.171
11583TIP3    H234695   6.804   3.706   3.168
11584TIP3   OH234696   7.587   6.419   3.542
11584TIP3    H134697   7.540   6.458   3.616
11584TIP3    H234698   7.659   6.479   3.524
11585TIP3   OH234699   0.435   6.455   5.237
11585TIP3    H134700   0.409   6.467   5.145
11585TIP3    H234701   0.352   6.445   5.284
11586TIP3   OH234702   6.825   7.742   1.176
11586TIP3    H134703   6.809   7.712   1.086
11586TIP3    H234704   6.769   7.819   1.186
11587TIP3   OH234705   3.903   4.562   4.129
11587TIP3    H134706   3.922   4.650   4.095
11587TIP3    H234707   3.848   4.578   4.206
11588TIP3   OH234708   1.633   3.868   3.010
11588TIP3    H134709   1.614   3.961   3.001
11588TIP3    H234710   1.717   3.866   3.056
11589TIP3   OH234711   8.274   6.473   4.140
11589TIP3    H134712   8.305   6.536   4.205
11589TIP3    H234713   8.207   6.521   4.091
11590TIP3   OH234714   4.280   6.070   2.570
11590TIP3    H134715   4.322   6.134   2.628
11590TIP3    H234716   4.208   6.034   2.623
11591TIP3   OH234717   7.005   2.962   4.872
11591TIP3    H134718   7.068   2.897   4.840
11591TIP3    H234719   7.053   3.045   4.870
11592TIP3   OH234720   2.964   4.840   2.077
11592TIP3    H134721   2.912   4.810   2.003
11592TIP3    H234722   2.928   4.927   2.097
11593TIP3   OH234723   6.221   1.170   1.380
11593TIP3    H134724   6.263   1.255   1.363
11593TIP3    H234725   6.147   1.167   1.320
11594TIP3   OH234726   2.061   0.738   3.703
11594TIP3    H134727   1.993   0.784   3.752
11594TIP3    H234728   2.042   0.757   3.611
11595TIP3   OH234729   0.634   7.342   2.769
11595TIP3    H134730   0.571   7.411   2.788
11595TIP3    H234731   0.622   7.323   2.676
11596TIP3   OH234732   4.614   2.917   2.205
11596TIP3    H134733   4.591   3.007   2.228
11596TIP3    H234734   4.555   2.863   2.257
11597TIP3   OH234735   4.471   5.296   5.808
11597TIP3    H134736   4.506   5.375   5.766
11597TIP3    H234737   4.486   5.311   5.902
11598TIP3   OH234738   3.515   2.326   0.148
11598TIP3    H134739   3.438   2.330   0.091
11598TIP3    H234740   3.584   2.289   0.093
11599TIP3   OH234741   0.741   2.596   1.560
11599TIP3    H134742   0.769   2.586   1.469
11599TIP3    H234743   0.791   2.671   1.593
11600TIP3   OH234744   0.011   5.283   1.867
11600TIP3    H134745   0.068   5.306   1.793
11600TIP3    H234746   0.025   5.190   1.880
11601TIP3   OH234747   7.844   4.581   1.863
11601TIP3    H134748   7.868   4.564   1.954
11601TIP3    H234749   7.839   4.676   1.857
11602TIP3   OH234750   5.958   4.499   2.927
11602TIP3    H134751   5.870   4.511   2.964
11602TIP3    H234752   6.015   4.489   3.003
11603TIP3   OH234753   6.670   6.254   4.920
11603TIP3    H134754   6.741   6.195   4.895
11603TIP3    H234755   6.602   6.239   4.855
11604TIP3   OH234756   5.441   7.516   3.777
11604TIP3    H134757   5.533   7.521   3.802
11604TIP3    H234758   5.393   7.553   3.851
11605TIP3   OH234759   7.323   2.508   6.542
11605TIP3    H134760   7.276   2.592   6.547
11605TIP3    H234761   7.278   2.453   6.606
11606TIP3   OH234762   4.169   4.260   6.573
11606TIP3    H134763   4.238   4.240   6.510
11606TIP3    H234764   4.159   4.355   6.568
11607TIP3   OH234765   6.761   6.012   1.347
11607TIP3    H134766   6.685   5.955   1.352
11607TIP3    H234767   6.733   6.084   1.290
11608TIP3   OH234768   2.238   0.334   6.572
11608TIP3    H134769   2.295   0.278   6.626
11608TIP3    H234770   2.298   0.374   6.509
11609TIP3   OH234771   0.679   6.883   2.021
11609TIP3    H134772   0.628   6.804   2.000
11609TIP3    H234773   0.770   6.858   2.003
11610TIP3   OH234774   2.303   2.592   4.480
11610TIP3    H134775   2.388   2.569   4.516
11610TIP3    H234776   2.241   2.538   4.528
11611TIP3   OH234777   0.153   5.926   1.081
11611TIP3    H134778   0.060   5.930   1.060
11611TIP3    H234779   0.167   6.001   1.139
11612TIP3   OH234780   3.415   1.478   3.241
11612TIP3    H134781   3.458   1.402   3.202
11612TIP3    H234782   3.430   1.469   3.335
11613TIP3   OH234783   5.877   0.601   5.291
11613TIP3    H134784   5.830   0.519   5.276
11613TIP3    H234785   5.965   0.584   5.258
11614TIP3   OH234786   2.438   5.957   4.044
11614TIP3    H134787   2.343   5.958   4.031
11614TIP3    H234788   2.463   6.049   4.047
11615TIP3   OH234789   5.823   5.821   1.205
11615TIP3    H134790   5.816   5.913   1.177
11615TIP3    H234791   5.887   5.823   1.276
11616TIP3   OH234792   7.023   6.553   6.597
11616TIP3    H134793   7.065   6.478   6.556
11616TIP3    H234794   7.002   6.611   6.523
11617TIP3   OH234795   2.642   7.099   5.035
11617TIP3    H134796   2.550   7.080   5.054
11617TIP3    H234797   2.641   7.189   5.004
11618TIP3   OH234798   6.172   7.233   2.957
11618TIP3    H134799   6.152   7.142   2.936
11618TIP3    H234800   6.241   7.228   3.023
11619TIP3   OH234801   1.305   7.800   2.450
11619TIP3    H134802   1.219   7.838   2.435
11619TIP3    H234803   1.305   7.718   2.401
11620TIP3   OH234804   4.472   1.320   0.967
11620TIP3    H134805   4.518   1.247   0.926
11620TIP3    H234806   4.493   1.395   0.910
11621TIP3   OH234807   5.561   5.368   1.224
11621TIP3    H134808   5.520   5.422   1.157
11621TIP3    H234809   5.619   5.309   1.175
11622TIP3   OH234810   1.578   1.820   4.632
11622TIP3    H134811   1.501   1.868   4.604
11622TIP3    H234812   1.649   1.856   4.579
11623TIP3   OH234813   5.478   4.880   5.220
11623TIP3    H134814   5.498   4.953   5.279
11623TIP3    H234815   5.441   4.923   5.142
11624TIP3   OH234816   8.003   5.359   4.633
11624TIP3    H134817   8.018   5.341   4.540
11624TIP3    H234818   7.945   5.288   4.662
11625TIP3   OH234819   0.670   7.700   2.969
11625TIP3    H134820   0.656   7.759   3.042
11625TIP3    H234821   0.681   7.614   3.009
11626TIP3   OH234822   4.597   7.656   3.089
11626TIP3    H134823   4.560   7.572   3.117
11626TIP3    H234824   4.529   7.720   3.110
11627TIP3   OH234825   3.380   3.974   3.297
11627TIP3    H134826   3.286   3.967   3.312
11627TIP3    H234827   3.405   3.889   3.260
11628TIP3   OH234828   5.967   7.596   1.146
11628TIP3    H134829   5.990   7.514   1.188
11628TIP3    H234830   6.020   7.598   1.066
11629TIP3   OH234831   7.631   0.449   5.454
11629TIP3    H134832   7.650   0.381   5.389
11629TIP3    H234833   7.558   0.414   5.505
11630TIP3   OH234834   5.907   0.259   6.333
11630TIP3    H134835   5.893   0.183   6.276
11630TIP3    H234836   5.834   0.318   6.312
11631TIP3   OH234837   7.411   4.897   2.406
11631TIP3    H134838   7.501   4.907   2.435
11631TIP3    H234839   7.404   4.805   2.381
11632TIP3   OH234840   6.120   4.122   1.347
11632TIP3    H134841   6.047   4.061   1.356
11632TIP3    H234842   6.131   4.160   1.434
11633TIP3   OH234843   5.905   6.884   3.869
11633TIP3    H134844   5.852   6.911   3.943
11633TIP3    H234845   5.892   6.789   3.863
11634TIP3   OH234846   8.046   7.642   1.845
11634TIP3    H134847   8.046   7.694   1.765
11634TIP3    H234848   7.964   7.666   1.889
11635TIP3   OH234849   8.033   3.645   5.712
11635TIP3    H134850   8.014   3.719   5.770
11635TIP3    H234851   8.126   3.627   5.726
11636TIP3   OH234852   7.957   3.985   2.269
11636TIP3    H134853   7.933   4.048   2.337
11636TIP3    H234854   7.940   3.900   2.309
11637TIP3   OH234855   1.277   4.165   3.196
11637TIP3    H134856   1.197   4.217   3.209
11637TIP3    H234857   1.265   4.088   3.251
11638TIP3   OH234858   2.651   2.436   5.210
11638TIP3    H134859   2.574   2.409   5.162
11638TIP3    H234860   2.653   2.532   5.200
11639TIP3   OH234861   2.473   7.029   2.318
11639TIP3    H134862   2.512   7.061   2.237
11639TIP3    H234863   2.429   6.948   2.294
11640TIP3   OH234864   3.388   1.239   1.236
11640TIP3    H134865   3.328   1.196   1.298
11640TIP3    H234866   3.401   1.326   1.272
11641TIP3   OH234867   5.342   2.655   6.279
11641TIP3    H134868   5.357   2.561   6.292
11641TIP3    H234869   5.332   2.690   6.367
11642TIP3   OH234870   1.086   6.080   2.367
11642TIP3    H134871   1.006   6.078   2.419
11642TIP3    H234872   1.146   6.135   2.417
11643TIP3   OH234873   7.497   3.529   5.676
11643TIP3    H134874   7.588   3.560   5.672
11643TIP3    H234875   7.482   3.489   5.590
11644TIP3   OH234876   2.244   4.543   2.122
11644TIP3    H134877   2.300   4.511   2.051
11644TIP3    H234878   2.223   4.633   2.098
11645TIP3   OH234879   4.253   2.222   2.972
11645TIP3    H134880   4.228   2.309   3.001
11645TIP3    H234881   4.170   2.174   2.965
11646TIP3   OH234882   3.491   7.745   4.220
11646TIP3    H134883   3.572   7.771   4.175
11646TIP3    H234884   3.422   7.794   4.176
11647TIP3   OH234885   6.647   4.419   6.173
11647TIP3    H134886   6.703   4.353   6.131
11647TIP3    H234887   6.693   4.442   6.254
11648TIP3   OH234888   0.392   7.636   0.282
11648TIP3    H134889   0.386   7.541   0.290
11648TIP3    H234890   0.302   7.667   0.287
11649TIP3   OH234891   7.753   4.338   4.726
11649TIP3    H134892   7.769   4.416   4.673
11649TIP3    H234893   7.657   4.328   4.726
11650TIP3   OH234894   2.333   2.798   2.932
11650TIP3    H134895   2.299   2.799   3.022
11650TIP3    H234896   2.417   2.843   2.938
11651TIP3   OH234897   8.103   5.591   0.767
11651TIP3    H134898   8.186   5.550   0.746
11651TIP3    H234899   8.038   5.541   0.718
11652TIP3   OH234900   3.276   7.696   0.462
11652TIP3    H134901   3.251   7.691   0.554
11652TIP3    H234902   3.347   7.633   0.452
11653TIP3   OH234903   8.122   4.204   3.060
11653TIP3    H134904   8.188   4.241   3.119
11653TIP3    H234905   8.089   4.127   3.107
11654TIP3   OH234906   2.041   3.816   0.313
11654TIP3    H134907   1.963   3.789   0.264
11654TIP3    H234908   2.075   3.735   0.350
11655TIP3   OH234909   5.272   2.317   0.957
11655TIP3    H134910   5.307   2.245   1.009
11655TIP3    H234911   5.239   2.276   0.877
11656TIP3   OH234912   2.481   0.450   1.752
11656TIP3    H134913   2.521   0.432   1.837
11656TIP3    H234914   2.501   0.542   1.736
11657TIP3   OH234915   2.766   0.260   2.289
11657TIP3    H134916   2.675   0.253   2.317
11657TIP3    H234917   2.770   0.343   2.241
11658TIP3   OH234918   2.748   1.195   5.794
11658TIP3    H134919   2.668   1.219   5.747
11658TIP3    H234920   2.776   1.276   5.836
11659TIP3   OH234921   0.821   7.209   4.022
11659TIP3    H134922   0.725   7.214   4.017
11659TIP3    H234923   0.849   7.201   3.931
11660TIP3   OH234924   8.255   2.460   4.184
11660TIP3    H134925   8.277   2.368   4.173
11660TIP3    H234926   8.176   2.460   4.239
11661TIP3   OH234927   2.651   0.610   2.358
11661TIP3    H134928   2.574   0.623   2.303
11661TIP3    H234929   2.725   0.627   2.300
11662TIP3   OH234930   4.485   5.351   5.109
11662TIP3    H134931   4.537   5.287   5.156
11662TIP3    H234932   4.394   5.331   5.133
11663TIP3   OH234933   0.617   3.768   0.943
11663TIP3    H134934   0.645   3.680   0.966
11663TIP3    H234935   0.557   3.794   1.013
11664TIP3   OH234936   2.042   0.643   0.954
11664TIP3    H134937   1.962   0.658   0.902
11664TIP3    H234938   2.102   0.711   0.925
11665TIP3   OH234939   6.190   6.028   3.102
11665TIP3    H134940   6.259   6.095   3.107
11665TIP3    H234941   6.223   5.957   3.157
11666TIP3   OH234942   4.945   7.494   3.642
11666TIP3    H134943   4.861   7.449   3.656
11666TIP3    H234944   4.980   7.454   3.563
11667TIP3   OH234945   6.794   6.618   1.223
11667TIP3    H134946   6.798   6.579   1.136
11667TIP3    H234947   6.796   6.712   1.208
11668TIP3   OH234948   8.040   1.095   5.528
11668TIP3    H134949   7.960   1.147   5.520
11668TIP3    H234950   8.111   1.158   5.516
11669TIP3   OH234951   2.727   5.736   3.933
11669TIP3    H134952   2.639   5.753   3.968
11669TIP3    H234953   2.786   5.759   4.005
11670TIP3   OH234954   2.830   5.186   0.726
11670TIP3    H134955   2.804   5.187   0.818
11670TIP3    H234956   2.893   5.257   0.718
11671TIP3   OH234957   2.928   5.981   5.785
11671TIP3    H134958   2.984   6.054   5.813
11671TIP3    H234959   2.976   5.941   5.712
11672TIP3   OH234960   7.628   3.426   2.385
11672TIP3    H134961   7.614   3.481   2.462
11672TIP3    H234962   7.574   3.465   2.317
11673TIP3   OH234963   8.273   5.721   6.337
11673TIP3    H134964   8.223   5.665   6.278
11673TIP3    H234965   8.207   5.774   6.382
11674TIP3   OH234966   7.689   2.624   5.473
11674TIP3    H134967   7.618   2.662   5.421
11674TIP3    H234968   7.650   2.548   5.516
11675TIP3   OH234969   5.638   1.965   2.097
11675TIP3    H134970   5.597   2.009   2.023
11675TIP3    H234971   5.570   1.909   2.134
11676TIP3   OH234972   4.104   3.829   2.203
11676TIP3    H134973   4.124   3.855   2.113
11676TIP3    H234974   4.127   3.736   2.207
11677TIP3   OH234975   5.872   7.102   0.537
11677TIP3    H134976   5.835   7.186   0.565
11677TIP3    H234977   5.808   7.037   0.567
11678TIP3   OH234978   0.547   7.246   3.966
11678TIP3    H134979   0.523   7.308   3.897
11678TIP3    H234980   0.527   7.160   3.929
11679TIP3   OH234981   0.742   2.067   0.216
11679TIP3    H134982   0.821   2.099   0.172
11679TIP3    H234983   0.698   2.146   0.247
11680TIP3   OH234984   2.698   0.968   6.047
11680TIP3    H134985   2.675   0.998   5.959
11680TIP3    H234986   2.646   0.889   6.061
11681TIP3   OH234987   6.122   7.288   2.324
11681TIP3    H134988   6.142   7.361   2.383
11681TIP3    H234989   6.097   7.216   2.382
11682TIP3   OH234990   0.078   0.055   1.889
11682TIP3    H134991   0.134   0.130   1.872
11682TIP3    H234992   0.093   0.034   1.981
11683TIP3   OH234993   2.645   1.813   0.819
11683TIP3    H134994   2.617   1.788   0.731
11683TIP3    H234995   2.584   1.883   0.845
11684TIP3   OH234996   6.802   3.016   6.296
11684TIP3    H134997   6.734   3.079   6.320
11684TIP3    H234998   6.835   2.982   6.379
11685TIP3   OH234999   7.726   3.347   5.453
11685TIP3    H135000   7.787   3.306   5.514
11685TIP3    H235001   7.776   3.416   5.411
11686TIP3   OH235002   3.002   2.784   6.606
11686TIP3    H135003   3.070   2.779   6.538
11686TIP3    H235004   2.951   2.704   6.595
11687TIP3   OH235005   7.321   4.536   4.622
11687TIP3    H135006   7.270   4.471   4.573
11687TIP3    H235007   7.349   4.489   4.701
11688TIP3   OH235008   2.628   0.106   5.647
11688TIP3    H135009   2.649   0.170   5.579
11688TIP3    H235010   2.535   0.087   5.634
11689TIP3   OH235011   1.429   7.697   4.262
11689TIP3    H135012   1.474   7.777   4.287
11689TIP3    H235013   1.386   7.718   4.178
11690TIP3   OH235014   8.326   1.460   1.367
11690TIP3    H135015   8.341   1.549   1.400
11690TIP3    H235016   8.232   1.445   1.379
11691TIP3   OH235017   7.005   7.541   4.281
11691TIP3    H135018   6.968   7.464   4.325
11691TIP3    H235019   6.930   7.600   4.268
11692TIP3   OH235020   6.761   2.050   2.291
11692TIP3    H135021   6.825   2.014   2.230
11692TIP3    H235022   6.744   1.978   2.352
11693TIP3   OH235023   0.739   5.994   2.044
11693TIP3    H135024   0.738   6.076   2.094
11693TIP3    H235025   0.714   5.927   2.107
11694TIP3   OH235026   0.763   6.058   2.793
11694TIP3    H135027   0.668   6.074   2.793
11694TIP3    H235028   0.779   6.011   2.875
11695TIP3   OH235029   0.620   1.807   5.736
11695TIP3    H135030   0.542   1.762   5.768
11695TIP3    H235031   0.620   1.792   5.642
11696TIP3   OH235032   4.393   3.710   1.606
11696TIP3    H135033   4.433   3.743   1.686
11696TIP3    H235034   4.463   3.715   1.540
11697TIP3   OH235035   2.932   0.648   6.581
11697TIP3    H135036   2.853   0.626   6.631
11697TIP3    H235037   2.977   0.713   6.635
11698TIP3   OH235038   7.044   3.123   1.495
11698TIP3    H135039   6.994   3.166   1.426
11698TIP3    H235040   7.125   3.173   1.500
11699TIP3   OH235041   5.965   6.850   3.568
11699TIP3    H135042   5.959   6.888   3.655
11699TIP3    H235043   5.955   6.925   3.508
11700TIP3   OH235044   4.288   4.660   5.414
11700TIP3    H135045   4.313   4.696   5.329
11700TIP3    H235046   4.369   4.624   5.450
11701TIP3   OH235047   4.488   1.956   0.279
11701TIP3    H135048   4.495   1.937   0.186
11701TIP3    H235049   4.416   1.900   0.310
11702TIP3   OH235050   1.974   4.887   4.285
11702TIP3    H135051   2.023   4.845   4.215
11702TIP3    H235052   1.892   4.838   4.290
11703TIP3   OH235053   6.133   0.877   3.322
11703TIP3    H135054   6.129   0.782   3.333
11703TIP3    H235055   6.131   0.890   3.227
11704TIP3   OH235056   7.474   6.434   1.783
11704TIP3    H135057   7.388   6.412   1.747
11704TIP3    H235058   7.486   6.527   1.763
11705TIP3   OH235059   5.464   6.521   5.038
11705TIP3    H135060   5.475   6.521   5.133
11705TIP3    H235061   5.552   6.513   5.003
11706TIP3   OH235062   2.614   6.775   3.308
11706TIP3    H135063   2.688   6.784   3.247
11706TIP3    H235064   2.615   6.682   3.333
11707TIP3   OH235065   0.502   6.044   2.694
11707TIP3    H135066   0.477   6.137   2.696
11707TIP3    H235067   0.500   6.021   2.601
11708TIP3   OH235068   0.102   5.727   5.075
11708TIP3    H135069   0.164   5.682   5.018
11708TIP3    H235070   0.022   5.676   5.070
11709TIP3   OH235071   6.733   1.966   4.152
11709TIP3    H135072   6.732   1.875   4.182
11709TIP3    H235073   6.643   1.996   4.164
11710TIP3   OH235074   7.926   1.551   3.808
11710TIP3    H135075   7.877   1.489   3.863
11710TIP3    H235076   7.922   1.634   3.856
11711TIP3   OH235077   3.314   0.277   6.719
11711TIP3    H135078   3.379   0.221   6.678
11711TIP3    H235079   3.327   0.265   6.813
11712TIP3   OH235080   8.159   6.103   2.745
11712TIP3    H135081   8.215   6.173   2.711
11712TIP3    H235082   8.087   6.097   2.683
11713TIP3   OH235083   1.881   6.125   1.710
11713TIP3    H135084   1.861   6.213   1.743
11713TIP3    H235085   1.800   6.096   1.668
11714TIP3   OH235086   3.878   4.413   5.879
11714TIP3    H135087   3.866   4.447   5.791
11714TIP3    H235088   3.871   4.318   5.869
11715TIP3   OH235089   7.169   4.979   2.495
11715TIP3    H135090   7.247   4.950   2.448
11715TIP3    H235091   7.098   4.972   2.431
11716TIP3   OH235092   6.333   1.272   5.929
11716TIP3    H135093   6.362   1.193   5.882
11716TIP3    H235094   6.380   1.269   6.012
11717TIP3   OH235095   7.866   7.508   4.564
11717TIP3    H135096   7.931   7.561   4.610
11717TIP3    H235097   7.782   7.549   4.585
11718TIP3   OH235098   6.829   6.377   3.383
11718TIP3    H135099   6.891   6.450   3.376
11718TIP3    H235100   6.756   6.401   3.326
11719TIP3   OH235101   0.809   1.625   3.204
11719TIP3    H135102   0.869   1.553   3.184
11719TIP3    H235103   0.793   1.667   3.120
11720TIP3   OH235104   5.442   5.022   4.912
11720TIP3    H135105   5.389   4.989   4.839
11720TIP3    H235106   5.495   5.092   4.873
11721TIP3   OH235107   4.854   5.795   5.228
11721TIP3    H135108   4.797   5.731   5.270
11721TIP3    H235109   4.795   5.863   5.197
11722TIP3   OH235110   1.724   3.121   5.758
11722TIP3    H135111   1.670   3.176   5.700
11722TIP3    H235112   1.810   3.162   5.756
11723TIP3   OH235113   4.539   3.975   1.405
11723TIP3    H135114   4.628   3.994   1.434
11723TIP3    H235115   4.483   4.029   1.461
11724TIP3   OH235116   2.884   0.087   5.790
11724TIP3    H135117   2.808   0.029   5.797
11724TIP3    H235118   2.853   0.161   5.738
11725TIP3   OH235119   0.157   4.213   0.976
11725TIP3    H135120   0.115   4.239   1.058
11725TIP3    H235121   0.097   4.150   0.937
11726TIP3   OH235122   3.194   6.200   5.516
11726TIP3    H135123   3.236   6.285   5.499
11726TIP3    H235124   3.229   6.172   5.601
11727TIP3   OH235125   7.969   1.945   2.117
11727TIP3    H135126   8.032   1.948   2.044
11727TIP3    H235127   7.932   2.033   2.121
11728TIP3   OH235128   2.689   0.962   0.426
11728TIP3    H135129   2.652   1.037   0.379
11728TIP3    H235130   2.613   0.919   0.466
11729TIP3   OH235131   2.255   1.223   3.714
11729TIP3    H135132   2.206   1.151   3.674
11729TIP3    H235133   2.343   1.213   3.679
11730TIP3   OH235134   4.071   0.748   3.982
11730TIP3    H135135   3.985   0.788   3.965
11730TIP3    H235136   4.121   0.764   3.902
11731TIP3   OH235137   1.250   6.400   0.838
11731TIP3    H135138   1.166   6.365   0.868
11731TIP3    H235139   1.312   6.328   0.851
11732TIP3   OH235140   1.919   5.315   0.906
11732TIP3    H135141   1.844   5.258   0.894
11732TIP3    H235142   1.894   5.398   0.865
11733TIP3   OH235143   2.570   1.153   6.170
11733TIP3    H135144   2.616   1.183   6.248
11733TIP3    H235145   2.622   1.079   6.138
11734TIP3   OH235146   4.496   0.931   5.727
11734TIP3    H135147   4.486   0.877   5.649
11734TIP3    H235148   4.572   0.987   5.708
11735TIP3   OH235149   0.532   5.340   1.723
11735TIP3    H135150   0.564   5.340   1.813
11735TIP3    H235151   0.514   5.248   1.705
11736TIP3   OH235152   3.039   4.611   2.416
11736TIP3    H135153   2.982   4.613   2.493
11736TIP3    H235154   3.014   4.531   2.370
11737TIP3   OH235155   6.201   3.462   2.311
11737TIP3    H135156   6.152   3.539   2.280
11737TIP3    H235157   6.179   3.393   2.248
11738TIP3   OH235158   4.349   4.843   3.824
11738TIP3    H135159   4.377   4.761   3.866
11738TIP3    H235160   4.386   4.838   3.736
11739TIP3   OH235161   2.772   2.848   0.472
11739TIP3    H135162   2.761   2.813   0.383
11739TIP3    H235163   2.740   2.938   0.466
11740TIP3   OH235164   1.296   0.670   4.676
11740TIP3    H135165   1.220   0.625   4.638
11740TIP3    H235166   1.368   0.610   4.664
11741TIP3   OH235167   4.493   4.562   0.193
11741TIP3    H135168   4.526   4.613   0.119
11741TIP3    H235169   4.494   4.472   0.162
11742TIP3   OH235170   5.197   3.719   6.507
11742TIP3    H135171   5.144   3.654   6.554
11742TIP3    H235172   5.243   3.669   6.440
11743TIP3   OH235173   4.850   7.342   0.034
11743TIP3    H135174   4.944   7.328   0.037
11743TIP3    H235175   4.840   7.435   0.014
11744TIP3   OH235176   2.720   6.599   0.756
11744TIP3    H135177   2.630   6.630   0.767
11744TIP3    H235178   2.712   6.521   0.701
11745TIP3   OH235179   7.861   0.723   4.652
11745TIP3    H135180   7.884   0.812   4.679
11745TIP3    H235181   7.774   0.708   4.690
11746TIP3   OH235182   3.201   2.855   5.758
11746TIP3    H135183   3.116   2.813   5.749
11746TIP3    H235184   3.186   2.945   5.729
11747TIP3   OH235185   2.067   1.674   4.187
11747TIP3    H135186   2.141   1.672   4.248
11747TIP3    H235187   2.028   1.587   4.193
11748TIP3   OH235188   2.170   0.607   3.487
11748TIP3    H135189   2.198   0.698   3.482
11748TIP3    H235190   2.187   0.582   3.578
11749TIP3   OH235191   3.300   4.225   6.431
11749TIP3    H135192   3.343   4.303   6.466
11749TIP3    H235193   3.209   4.233   6.462
11750TIP3   OH235194   5.539   6.701   3.237
11750TIP3    H135195   5.582   6.674   3.318
11750TIP3    H235196   5.465   6.755   3.265
11751TIP3   OH235197   6.116   4.899   6.032
11751TIP3    H135198   6.027   4.898   5.997
11751TIP3    H235199   6.125   4.985   6.072
11752TIP3   OH235200   1.378   7.221   6.223
11752TIP3    H135201   1.335   7.272   6.154
11752TIP3    H235202   1.327   7.140   6.229
11753TIP3   OH235203   5.886   7.518   0.033
11753TIP3    H135204   5.948   7.518   0.106
11753TIP3    H235205   5.939   7.495  -0.044
11754TIP3   OH235206   7.636   5.311   0.396
11754TIP3    H135207   7.635   5.324   0.491
11754TIP3    H235208   7.590   5.387   0.361
11755TIP3   OH235209   0.248   2.523   0.325
11755TIP3    H135210   0.199   2.440   0.324
11755TIP3    H235211   0.209   2.574   0.253
11756TIP3   OH235212   6.695   6.904   2.861
11756TIP3    H135213   6.764   6.936   2.919
11756TIP3    H235214   6.636   6.978   2.851
11757TIP3   OH235215   3.450   3.196   4.058
11757TIP3    H135216   3.474   3.132   3.991
11757TIP3    H235217   3.533   3.218   4.100
11758TIP3   OH235218   1.361   6.371   6.784
11758TIP3    H135219   1.338   6.419   6.705
11758TIP3    H235220   1.403   6.436   6.840
11759TIP3   OH235221   0.902   3.691   6.755
11759TIP3    H135222   0.977   3.646   6.795
11759TIP3    H235223   0.832   3.625   6.755
11760TIP3   OH235224   2.595   7.393   3.952
11760TIP3    H135225   2.613   7.471   3.900
11760TIP3    H235226   2.669   7.335   3.936
11761TIP3   OH235227   6.668   0.697   2.410
11761TIP3    H135228   6.753   0.679   2.450
11761TIP3    H235229   6.619   0.616   2.421
11762TIP3   OH235230   0.643   7.129  -0.003
11762TIP3    H135231   0.633   7.221  -0.025
11762TIP3    H235232   0.581   7.114   0.068
11763TIP3   OH235233   2.691   6.801   4.649
11763TIP3    H135234   2.719   6.865   4.715
11763TIP3    H235235   2.768   6.789   4.593
11764TIP3   OH235236   3.877   4.703   4.726
11764TIP3    H135237   3.824   4.752   4.664
11764TIP3    H235238   3.859   4.743   4.811
11765TIP3   OH235239   3.692   4.624   2.065
11765TIP3    H135240   3.633   4.653   2.134
11765TIP3    H235241   3.642   4.636   1.984
11766TIP3   OH235242   6.809   7.074   6.655
11766TIP3    H135243   6.753   7.130   6.601
11766TIP3    H235244   6.779   7.088   6.744
11767TIP3   OH235245   4.691   7.791   2.033
11767TIP3    H135246   4.690   7.887   2.038
11767TIP3    H235247   4.617   7.763   2.087
11768TIP3   OH235248   2.889   3.130   2.627
11768TIP3    H135249   2.864   3.041   2.652
11768TIP3    H235250   2.880   3.180   2.708
11769TIP3   OH235251   0.652   6.087   4.506
11769TIP3    H135252   0.728   6.119   4.456
11769TIP3    H235253   0.595   6.048   4.440
11770TIP3   OH235254   6.470   4.745   2.175
11770TIP3    H135255   6.523   4.821   2.151
11770TIP3    H235256   6.505   4.674   2.122
11771TIP3   OH235257   7.767   2.699   6.763
11771TIP3    H135258   7.728   2.707   6.675
11771TIP3    H235259   7.856   2.670   6.747
11772TIP3   OH235260   4.896   1.283   0.995
11772TIP3    H135261   4.850   1.293   1.079
11772TIP3    H235262   4.885   1.191   0.972
11773TIP3   OH235263   6.463   7.238   3.819
11773TIP3    H135264   6.495   7.319   3.859
11773TIP3    H235265   6.533   7.175   3.835
11774TIP3   OH235266   6.198   6.924   3.374
11774TIP3    H135267   6.152   6.841   3.383
11774TIP3    H235268   6.224   6.947   3.463
11775TIP3   OH235269   6.372   0.900   5.068
11775TIP3    H135270   6.416   0.970   5.019
11775TIP3    H235271   6.383   0.822   5.014
11776TIP3   OH235272   6.868   3.898   0.946
11776TIP3    H135273   6.860   3.807   0.975
11776TIP3    H235274   6.845   3.896   0.854
11777TIP3   OH235275   4.941   0.242   0.645
11777TIP3    H135276   4.972   0.166   0.694
11777TIP3    H235277   5.007   0.255   0.576
11778TIP3   OH235278   6.373   0.236   1.208
11778TIP3    H135279   6.324   0.303   1.159
11778TIP3    H235280   6.318   0.218   1.284
11779TIP3   OH235281   6.599   1.594   5.715
11779TIP3    H135282   6.506   1.573   5.728
11779TIP3    H235283   6.619   1.559   5.628
11780TIP3   OH235284   1.787   7.668   2.297
11780TIP3    H135285   1.868   7.670   2.347
11780TIP3    H235286   1.718   7.668   2.363
11781TIP3   OH235287   6.796   7.220   5.784
11781TIP3    H135288   6.758   7.141   5.822
11781TIP3    H235289   6.883   7.194   5.755
11782TIP3   OH235290   2.277   6.057   2.175
11782TIP3    H135291   2.278   6.062   2.080
11782TIP3    H235292   2.328   6.132   2.204
11783TIP3   OH235293   5.932   6.652   1.058
11783TIP3    H135294   5.898   6.704   1.131
11783TIP3    H235295   5.856   6.606   1.023
11784TIP3   OH235296   7.736   6.135   4.186
11784TIP3    H135297   7.767   6.063   4.131
11784TIP3    H235298   7.814   6.188   4.202
11785TIP3   OH235299   3.920   1.927   5.756
11785TIP3    H135300   3.903   1.875   5.677
11785TIP3    H235301   4.013   1.949   5.751
11786TIP3   OH235302   3.924   2.509   4.983
11786TIP3    H135303   3.988   2.459   4.933
11786TIP3    H235304   3.887   2.571   4.920
11787TIP3   OH235305   2.490   3.055   6.629
11787TIP3    H135306   2.482   2.981   6.568
11787TIP3    H235307   2.400   3.075   6.655
11788TIP3   OH235308   7.405   6.552   0.601
11788TIP3    H135309   7.395   6.516   0.689
11788TIP3    H235310   7.396   6.647   0.614
11789TIP3   OH235311   5.163   6.310   2.444
11789TIP3    H135312   5.067   6.303   2.445
11789TIP3    H235313   5.189   6.285   2.533
11790TIP3   OH235314   6.406   3.913   4.388
11790TIP3    H135315   6.473   3.969   4.350
11790TIP3    H235316   6.339   3.973   4.419
11791TIP3   OH235317   0.204   7.177   0.374
11791TIP3    H135318   0.187   7.144   0.286
11791TIP3    H235319   0.122   7.219   0.401
11792TIP3   OH235320   3.717   4.854   1.125
11792TIP3    H135321   3.783   4.787   1.106
11792TIP3    H235322   3.642   4.828   1.072
11793TIP3   OH235323   6.182   4.532   1.526
11793TIP3    H135324   6.222   4.571   1.603
11793TIP3    H235325   6.256   4.514   1.467
11794TIP3   OH235326   2.795   5.600   1.439
11794TIP3    H135327   2.833   5.528   1.388
11794TIP3    H235328   2.763   5.662   1.373
11795TIP3   OH235329   2.685   6.933   1.920
11795TIP3    H135330   2.641   6.866   1.972
11795TIP3    H235331   2.640   6.931   1.835
11796TIP3   OH235332   8.113   2.475   4.660
11796TIP3    H135333   8.122   2.471   4.565
11796TIP3    H235334   8.045   2.412   4.681
11797TIP3   OH235335   6.674   6.655   3.915
11797TIP3    H135336   6.583   6.634   3.892
11797TIP3    H235337   6.677   6.750   3.917
11798TIP3   OH235338   5.168   4.468   5.242
11798TIP3    H135339   5.120   4.420   5.175
11798TIP3    H235340   5.207   4.400   5.297
11799TIP3   OH235341   5.495   0.771   5.062
11799TIP3    H135342   5.510   0.701   5.126
11799TIP3    H235343   5.580   0.783   5.020
11800TIP3   OH235344   4.273   4.521   2.513
11800TIP3    H135345   4.211   4.456   2.546
11800TIP3    H235346   4.273   4.591   2.579
11801TIP3   OH235347   4.991   6.085   3.679
11801TIP3    H135348   5.079   6.090   3.643
11801TIP3    H235349   5.001   6.106   3.772
11802TIP3   OH235350   5.157   4.876   1.489
11802TIP3    H135351   5.252   4.875   1.476
11802TIP3    H235352   5.129   4.789   1.464
11803TIP3   OH235353   2.767   2.030   0.589
11803TIP3    H135354   2.785   2.109   0.640
11803TIP3    H235355   2.713   2.061   0.516
11804TIP3   OH235356   7.435   3.694   3.318
11804TIP3    H135357   7.458   3.611   3.276
11804TIP3    H235358   7.398   3.747   3.247
11805TIP3   OH235359   1.260   1.458   6.051
11805TIP3    H135360   1.170   1.458   6.084
11805TIP3    H235361   1.255   1.507   5.969
11806TIP3   OH235362   0.689   1.600   1.582
11806TIP3    H135363   0.758   1.539   1.555
11806TIP3    H235364   0.716   1.630   1.669
11807TIP3   OH235365   4.812   3.910   6.474
11807TIP3    H135366   4.742   3.888   6.536
11807TIP3    H235367   4.848   3.825   6.446
11808TIP3   OH235368   2.776   3.895   3.105
11808TIP3    H135369   2.725   3.872   3.027
11808TIP3    H235370   2.736   3.844   3.175
11809TIP3   OH235371   2.601   4.180   1.828
11809TIP3    H135372   2.617   4.265   1.788
11809TIP3    H235373   2.543   4.135   1.766
11810TIP3   OH235374   7.340   3.419   6.681
11810TIP3    H135375   7.434   3.411   6.667
11810TIP3    H235376   7.332   3.488   6.748
11811TIP3   OH235377   0.252   2.240   0.891
11811TIP3    H135378   0.336   2.283   0.909
11811TIP3    H235379   0.261   2.153   0.930
11812TIP3   OH235380   5.891   0.103   4.846
11812TIP3    H135381   5.981   0.069   4.851
11812TIP3    H235382   5.886   0.143   4.759
11813TIP3   OH235383   0.626   3.966   4.753
11813TIP3    H135384   0.643   3.963   4.848
11813TIP3    H235385   0.534   3.941   4.745
11814TIP3   OH235386   4.104   0.565   5.980
11814TIP3    H135387   4.053   0.484   5.987
11814TIP3    H235388   4.094   0.593   5.889
11815TIP3   OH235389   1.390   6.196   2.058
11815TIP3    H135390   1.339   6.245   1.994
11815TIP3    H235391   1.342   6.114   2.070
11816TIP3   OH235392   2.687   5.999   6.138
11816TIP3    H135393   2.723   5.966   6.219
11816TIP3    H235394   2.609   6.048   6.164
11817TIP3   OH235395   1.610   4.147   4.589
11817TIP3    H135396   1.670   4.142   4.514
11817TIP3    H235397   1.553   4.221   4.569
11818TIP3   OH235398   0.666   0.091   2.903
11818TIP3    H135399   0.668   0.106   2.808
11818TIP3    H235400   0.683  -0.002   2.913
11819TIP3   OH235401   6.526   6.783   6.713
11819TIP3    H135402   6.592   6.770   6.645
11819TIP3    H235403   6.479   6.700   6.717
11820TIP3   OH235404   3.526   3.752   4.797
11820TIP3    H135405   3.598   3.815   4.794
11820TIP3    H235406   3.464   3.784   4.731
11821TIP3   OH235407   6.398   7.118   2.365
11821TIP3    H135408   6.441   7.204   2.364
11821TIP3    H235409   6.370   7.105   2.274
11822TIP3   OH235410   4.713   2.303   6.018
11822TIP3    H135411   4.668   2.254   5.948
11822TIP3    H235412   4.652   2.301   6.091
11823TIP3   OH235413   3.198   4.448   4.473
11823TIP3    H135414   3.169   4.417   4.386
11823TIP3    H235415   3.292   4.461   4.463
11824TIP3   OH235416   3.512   0.370   1.071
11824TIP3    H135417   3.513   0.361   1.166
11824TIP3    H235418   3.604   0.361   1.045
11825TIP3   OH235419   5.781   6.712   5.121
11825TIP3    H135420   5.874   6.730   5.131
11825TIP3    H235421   5.776   6.646   5.051
11826TIP3   OH235422   3.613   7.645   1.573
11826TIP3    H135423   3.604   7.740   1.583
11826TIP3    H235424   3.556   7.623   1.499
11827TIP3   OH235425   1.699   1.922   3.972
11827TIP3    H135426   1.675   2.010   4.000
11827TIP3    H235427   1.712   1.929   3.878
11828TIP3   OH235428   7.144   3.368   6.084
11828TIP3    H135429   7.095   3.340   6.162
11828TIP3    H235430   7.076   3.383   6.018
11829TIP3   OH235431   4.703   7.830   4.505
11829TIP3    H135432   4.693   7.735   4.518
11829TIP3    H235433   4.745   7.861   4.585
11830TIP3   OH235434   2.143   7.068   3.637
11830TIP3    H135435   2.180   7.154   3.616
11830TIP3    H235436   2.205   7.029   3.698
11831TIP3   OH235437   5.364   4.252   6.306
11831TIP3    H135438   5.367   4.179   6.368
11831TIP3    H235439   5.348   4.329   6.359
11832TIP3   OH235440   5.591   5.341   4.237
11832TIP3    H135441   5.554   5.264   4.193
11832TIP3    H235442   5.518   5.376   4.290
11833TIP3   OH235443   8.037   6.148   5.227
11833TIP3    H135444   8.049   6.224   5.171
11833TIP3    H235445   8.091   6.080   5.187
11834TIP3   OH235446   7.457   6.684   3.372
11834TIP3    H135447   7.509   6.687   3.291
11834TIP3    H235448   7.517   6.713   3.440
11835TIP3   OH235449   7.439   5.193   5.759
11835TIP3    H135450   7.530   5.163   5.761
11835TIP3    H235451   7.438   5.272   5.813
11836TIP3   OH235452   6.683   5.883   6.626
11836TIP3    H135453   6.620   5.814   6.650
11836TIP3    H235454   6.754   5.837   6.583
11837TIP3   OH235455   8.077   2.579   6.076
11837TIP3    H135456   8.065   2.618   5.990
11837TIP3    H235457   7.993   2.592   6.120
11838TIP3   OH235458   6.500   1.499   5.096
11838TIP3    H135459   6.582   1.453   5.083
11838TIP3    H235460   6.469   1.518   5.007
11839TIP3   OH235461   0.906   6.582   6.262
11839TIP3    H135462   0.993   6.613   6.240
11839TIP3    H235463   0.920   6.499   6.307
11840TIP3   OH235464   2.430   0.759   1.186
11840TIP3    H135465   2.489   0.834   1.192
11840TIP3    H235466   2.461   0.698   1.253
11841TIP3   OH235467   4.640   2.356   2.416
11841TIP3    H135468   4.657   2.441   2.458
11841TIP3    H235469   4.726   2.316   2.409
11842TIP3   OH235470   4.010   4.810   0.465
11842TIP3    H135471   3.993   4.878   0.531
11842TIP3    H235472   4.054   4.740   0.514
11843TIP3   OH235473   0.536   0.193   4.389
11843TIP3    H135474   0.608   0.151   4.342
11843TIP3    H235475   0.470   0.125   4.397
11844TIP3   OH235476   4.394   5.346   2.383
11844TIP3    H135477   4.303   5.319   2.370
11844TIP3    H235478   4.410   5.408   2.312
11845TIP3   OH235479   1.466   6.884   5.762
11845TIP3    H135480   1.448   6.973   5.793
11845TIP3    H235481   1.430   6.882   5.673
11846TIP3   OH235482   0.140   5.266   4.618
11846TIP3    H135483   0.232   5.289   4.613
11846TIP3    H235484   0.122   5.218   4.538
11847TIP3   OH235485   1.565   0.766   0.611
11847TIP3    H135486   1.551   0.817   0.690
11847TIP3    H235487   1.519   0.684   0.626
11848TIP3   OH235488   3.932   1.989   3.318
11848TIP3    H135489   3.949   2.083   3.331
11848TIP3    H235490   4.012   1.957   3.275
11849TIP3   OH235491   6.581   6.943   4.668
11849TIP3    H135492   6.527   6.908   4.598
11849TIP3    H235493   6.561   7.036   4.670
11850TIP3   OH235494   5.426   4.860   3.411
11850TIP3    H135495   5.483   4.932   3.383
11850TIP3    H235496   5.338   4.897   3.406
11851TIP3   OH235497   1.066   1.607   3.782
11851TIP3    H135498   1.022   1.575   3.861
11851TIP3    H235499   0.999   1.604   3.714
11852TIP3   OH235500   3.595   6.749   3.659
11852TIP3    H135501   3.616   6.839   3.684
11852TIP3    H235502   3.510   6.754   3.617
11853TIP3   OH235503   5.312   0.348   5.738
11853TIP3    H135504   5.255   0.273   5.724
11853TIP3    H235505   5.348   0.335   5.825
11854TIP3   OH235506   3.538   2.957   4.791
11854TIP3    H135507   3.508   2.970   4.881
11854TIP3    H235508   3.576   3.041   4.765
11855TIP3   OH235509   4.547   1.093   5.334
11855TIP3    H135510   4.596   1.165   5.295
11855TIP3    H235511   4.599   1.068   5.411
11856TIP3   OH235512   2.011   1.428   2.233
11856TIP3    H135513   1.934   1.485   2.230
11856TIP3    H235514   2.064   1.464   2.304
11857TIP3   OH235515   8.272   0.532   3.763
11857TIP3    H135516   8.288   0.591   3.690
11857TIP3    H235517   8.187   0.558   3.797
11858TIP3   OH235518   4.281   5.970   1.408
11858TIP3    H135519   4.346   6.009   1.350
11858TIP3    H235520   4.317   5.884   1.430
11859TIP3   OH235521   5.326   7.092   4.546
11859TIP3    H135522   5.378   7.161   4.587
11859TIP3    H235523   5.367   7.079   4.460
11860TIP3   OH235524   2.073   6.065   3.080
11860TIP3    H135525   2.053   6.038   3.170
11860TIP3    H235526   2.165   6.044   3.068
11861TIP3   OH235527   2.317   1.346   5.957
11861TIP3    H135528   2.401   1.318   5.993
11861TIP3    H235529   2.253   1.325   6.025
11862TIP3   OH235530   3.805   6.322   0.732
11862TIP3    H135531   3.735   6.270   0.771
11862TIP3    H235532   3.885   6.285   0.770
11863TIP3   OH235533   3.421   3.389   4.275
11863TIP3    H135534   3.416   3.320   4.208
11863TIP3    H235535   3.494   3.444   4.247
11864TIP3   OH235536   0.040   7.423   4.344
11864TIP3    H135537   0.115   7.431   4.404
11864TIP3    H235538  -0.027   7.380   4.397
11865TIP3   OH235539   4.945   6.915   6.691
11865TIP3    H135540   4.854   6.908   6.662
11865TIP3    H235541   4.972   6.824   6.706
11866TIP3   OH235542   4.371   4.984   0.041
11866TIP3    H135543   4.408   5.071   0.053
11866TIP3    H235544   4.346   4.981  -0.051
11867TIP3   OH235545   1.323   6.772   6.380
11867TIP3    H135546   1.300   6.861   6.405
11867TIP3    H235547   1.254   6.745   6.320
11868TIP3   OH235548   7.721   1.469   0.445
11868TIP3    H135549   7.815   1.467   0.465
11868TIP3    H235550   7.696   1.376   0.439
11869TIP3   OH235551   6.043   6.737   5.151
11869TIP3    H135552   6.072   6.729   5.242
11869TIP3    H235553   6.089   6.815   5.118
11870TIP3   OH235554   4.537   2.323   4.470
11870TIP3    H135555   4.482   2.247   4.491
11870TIP3    H235556   4.477   2.397   4.473
11871TIP3   OH235557   6.761   5.032   3.639
11871TIP3    H135558   6.708   5.085   3.580
11871TIP3    H235559   6.822   4.986   3.582
11872TIP3   OH235560   4.758   3.529   4.175
11872TIP3    H135561   4.696   3.520   4.247
11872TIP3    H235562   4.746   3.618   4.144
11873TIP3   OH235563   0.450   1.591   5.157
11873TIP3    H135564   0.357   1.609   5.171
11873TIP3    H235565   0.479   1.548   5.237
11874TIP3   OH235566   3.992   2.429   5.760
11874TIP3    H135567   3.951   2.375   5.827
11874TIP3    H235568   4.040   2.368   5.705
11875TIP3   OH235569   6.737   5.041   2.499
11875TIP3    H135570   6.686   5.122   2.499
11875TIP3    H235571   6.827   5.068   2.513
11876TIP3   OH235572   0.823   7.549   0.145
11876TIP3    H135573   0.790   7.537   0.234
11876TIP3    H235574   0.889   7.481   0.135
11877TIP3   OH235575   7.965   3.474   1.064
11877TIP3    H135576   7.950   3.442   1.154
11877TIP3    H235577   7.896   3.433   1.012
11878TIP3   OH235578   5.160   0.561   6.013
11878TIP3    H135579   5.170   0.573   6.107
11878TIP3    H235580   5.092   0.495   6.004
11879TIP3   OH235581   5.905   6.461   0.728
11879TIP3    H135582   5.935   6.431   0.642
11879TIP3    H235583   5.814   6.488   0.714
11880TIP3   OH235584   0.073   4.668   6.580
11880TIP3    H135585   0.064   4.592   6.637
11880TIP3    H235586   0.134   4.640   6.511
11881TIP3   OH235587   2.898   3.556   0.215
11881TIP3    H135588   2.830   3.583   0.153
11881TIP3    H235589   2.889   3.618   0.288
11882TIP3   OH235590   2.033   2.152   5.997
11882TIP3    H135591   2.127   2.142   5.985
11882TIP3    H235592   2.015   2.116   6.083
11883TIP3   OH235593   4.109   2.596   0.949
11883TIP3    H135594   4.107   2.683   0.909
11883TIP3    H235595   4.164   2.543   0.891
11884TIP3   OH235596   1.650   3.646   0.061
11884TIP3    H135597   1.666   3.717   0.124
11884TIP3    H235598   1.574   3.675   0.010
11885TIP3   OH235599   3.446   2.470   6.213
11885TIP3    H135600   3.367   2.519   6.190
11885TIP3    H235601   3.502   2.534   6.257
11886TIP3   OH235602   4.655   6.385   5.962
11886TIP3    H135603   4.750   6.393   5.969
11886TIP3    H235604   4.621   6.465   6.002
11887TIP3   OH235605   0.263   0.780   5.674
11887TIP3    H135606   0.245   0.696   5.718
11887TIP3    H235607   0.354   0.799   5.694
11888TIP3   OH235608   1.577   6.849   6.288
11888TIP3    H135609   1.536   6.864   6.203
11888TIP3    H235610   1.506   6.817   6.344
11889TIP3   OH235611   6.789   6.339   4.125
11889TIP3    H135612   6.740   6.415   4.156
11889TIP3    H235613   6.865   6.376   4.080
11890TIP3   OH235614   3.090   1.061   6.570
11890TIP3    H135615   3.136   1.138   6.538
11890TIP3    H235616   3.005   1.094   6.600
11891TIP3   OH235617   4.793   3.027   2.428
11891TIP3    H135618   4.789   3.034   2.524
11891TIP3    H235619   4.715   2.976   2.406
11892TIP3   OH235620   1.789   5.894   5.729
11892TIP3    H135621   1.809   5.804   5.704
11892TIP3    H235622   1.701   5.890   5.767
11893TIP3   OH235623   3.880   7.403   2.725
11893TIP3    H135624   3.816   7.354   2.777
11893TIP3    H235625   3.890   7.351   2.645
11894TIP3   OH235626   1.563   4.045   4.211
11894TIP3    H135627   1.581   4.130   4.171
11894TIP3    H235628   1.561   3.984   4.137
11895TIP3   OH235629   6.026   5.341   4.922
11895TIP3    H135630   6.001   5.253   4.952
11895TIP3    H235631   6.101   5.364   4.975
11896TIP3   OH235632   2.724   4.218   1.008
11896TIP3    H135633   2.651   4.253   1.059
11896TIP3    H235634   2.776   4.168   1.071
11897TIP3   OH235635   5.163   3.178   4.415
11897TIP3    H135636   5.124   3.191   4.501
11897TIP3    H235637   5.146   3.260   4.368
11898TIP3   OH235638   3.349   6.887   3.357
11898TIP3    H135639   3.444   6.886   3.346
11898TIP3    H235640   3.334   6.946   3.431
11899TIP3   OH235641   0.575   3.320   1.669
11899TIP3    H135642   0.657   3.362   1.694
11899TIP3    H235643   0.587   3.297   1.577
11900TIP3   OH235644   2.104   3.169   5.479
11900TIP3    H135645   2.084   3.090   5.529
11900TIP3    H235646   2.176   3.210   5.526
11901TIP3   OH235647   2.875   4.434   3.329
11901TIP3    H135648   2.948   4.399   3.381
11901TIP3    H235649   2.803   4.374   3.346
11902TIP3   OH235650   7.691   5.958   6.308
11902TIP3    H135651   7.724   6.041   6.343
11902TIP3    H235652   7.597   5.960   6.327
11903TIP3   OH235653   5.612   1.870   0.674
11903TIP3    H135654   5.577   1.956   0.650
11903TIP3    H235655   5.573   1.850   0.759
11904TIP3   OH235656   1.083   6.267   5.101
11904TIP3    H135657   1.012   6.212   5.135
11904TIP3    H235658   1.153   6.257   5.165
11905TIP3   OH235659   3.531   7.048   5.260
11905TIP3    H135660   3.603   7.110   5.255
11905TIP3    H235661   3.496   7.044   5.171
11906TIP3   OH235662   4.361   5.562   0.214
11906TIP3    H135663   4.326   5.512   0.287
11906TIP3    H235664   4.332   5.514   0.136
11907TIP3   OH235665   7.219   5.808   0.898
11907TIP3    H135666   7.244   5.809   0.991
11907TIP3    H235667   7.244   5.720   0.868
11908TIP3   OH235668   6.471   5.998   0.629
11908TIP3    H135669   6.508   6.084   0.651
11908TIP3    H235670   6.445   6.006   0.537
11909TIP3   OH235671   7.701   5.338   2.989
11909TIP3    H135672   7.757   5.264   2.967
11909TIP3    H235673   7.691   5.386   2.906
11910TIP3   OH235674   5.680   4.536   0.902
11910TIP3    H135675   5.611   4.602   0.902
11910TIP3    H235676   5.686   4.508   0.810
11911TIP3   OH235677   3.853   1.690   2.152
11911TIP3    H135678   3.913   1.761   2.174
11911TIP3    H235679   3.768   1.733   2.141
11912TIP3   OH235680   3.573   3.120   3.214
11912TIP3    H135681   3.509   3.088   3.278
11912TIP3    H235682   3.522   3.177   3.156
11913TIP3   OH235683   0.049   7.767   6.650
11913TIP3    H135684   0.049   7.863   6.643
11913TIP3    H235685   0.065   7.736   6.560
11914TIP3   OH235686   1.100   5.271   4.224
11914TIP3    H135687   1.119   5.337   4.290
11914TIP3    H235688   1.004   5.268   4.220
11915TIP3   OH235689   5.960   0.485   3.300
11915TIP3    H135690   5.905   0.512   3.227
11915TIP3    H235691   5.946   0.390   3.306
11916TIP3   OH235692   3.300   6.576   5.011
11916TIP3    H135693   3.386   6.612   5.032
11916TIP3    H235694   3.279   6.614   4.926
11917TIP3   OH235695   7.972   2.138   2.508
11917TIP3    H135696   7.907   2.175   2.569
11917TIP3    H235697   7.972   2.200   2.434
11918TIP3   OH235698   8.008   6.355   3.431
11918TIP3    H135699   8.021   6.356   3.526
11918TIP3    H235700   7.923   6.312   3.419
11919TIP3   OH235701   0.750   3.687   2.149
11919TIP3    H135702   0.703   3.770   2.157
11919TIP3    H235703   0.740   3.645   2.234
11920TIP3   OH235704   6.515   3.285   0.872
11920TIP3    H135705   6.551   3.252   0.954
11920TIP3    H235706   6.502   3.379   0.887
11921TIP3   OH235707   1.912   2.757   5.856
11921TIP3    H135708   1.977   2.695   5.820
11921TIP3    H235709   1.830   2.732   5.814
11922TIP3   OH235710   3.365   4.884   0.616
11922TIP3    H135711   3.448   4.836   0.622
11922TIP3    H235712   3.331   4.862   0.529
11923TIP3   OH235713   2.286   4.070   2.399
11923TIP3    H135714   2.265   4.035   2.486
11923TIP3    H235715   2.286   3.993   2.342
11924TIP3   OH235716   5.586   2.315   0.823
11924TIP3    H135717   5.679   2.330   0.842
11924TIP3    H235718   5.557   2.257   0.893
11925TIP3   OH235719   2.321   5.133   1.511
11925TIP3    H135720   2.402   5.146   1.560
11925TIP3    H235721   2.265   5.205   1.537
11926TIP3   OH235722   7.638   7.462   5.741
11926TIP3    H135723   7.705   7.505   5.794
11926TIP3    H235724   7.573   7.433   5.805
11927TIP3   OH235725   8.306   3.874   1.389
11927TIP3    H135726   8.235   3.929   1.422
11927TIP3    H235727   8.263   3.807   1.337
11928TIP3   OH235728   7.368   3.936   1.098
11928TIP3    H135729   7.276   3.911   1.111
11928TIP3    H235730   7.381   3.930   1.003
11929TIP3   OH235731   4.224   1.727   4.714
11929TIP3    H135732   4.183   1.676   4.783
11929TIP3    H235733   4.175   1.705   4.635
11930TIP3   OH235734   3.330   0.207   0.915
11930TIP3    H135735   3.383   0.248   0.984
11930TIP3    H235736   3.289   0.280   0.869
11931TIP3   OH235737   1.035   3.525   0.050
11931TIP3    H135738   0.999   3.527   0.139
11931TIP3    H235739   1.080   3.441   0.044
11932TIP3   OH235740   8.143   1.904   4.434
11932TIP3    H135741   8.192   1.932   4.511
11932TIP3    H235742   8.200   1.927   4.360
11933TIP3   OH235743   5.435   1.789   2.248
11933TIP3    H135744   5.448   1.694   2.247
11933TIP3    H235745   5.350   1.801   2.290
11934TIP3   OH235746   5.130   7.049   6.222
11934TIP3    H135747   5.161   7.127   6.268
11934TIP3    H235748   5.076   7.084   6.150
11935TIP3   OH235749   3.338   0.862   1.124
11935TIP3    H135750   3.256   0.882   1.078
11935TIP3    H235751   3.381   0.799   1.067
11936TIP3   OH235752   6.408   5.382   5.482
11936TIP3    H135753   6.453   5.426   5.410
11936TIP3    H235754   6.317   5.377   5.454
11937TIP3   OH235755   3.480   7.789   3.881
11937TIP3    H135756   3.418   7.743   3.823
11937TIP3    H235757   3.556   7.805   3.826
11938TIP3   OH235758   2.774   2.163   6.334
11938TIP3    H135759   2.759   2.225   6.406
11938TIP3    H235760   2.867   2.171   6.315
11939TIP3   OH235761   7.753   7.320   0.645
11939TIP3    H135762   7.658   7.331   0.642
11939TIP3    H235763   7.786   7.371   0.571
11940TIP3   OH235764   2.493   6.710   6.524
11940TIP3    H135765   2.469   6.691   6.433
11940TIP3    H235766   2.467   6.631   6.572
11941TIP3   OH235767   0.059   0.103   3.651
11941TIP3    H135768   0.073   0.136   3.740
11941TIP3    H235769  -0.011   0.158   3.616
11942TIP3   OH235770   3.457   4.250   3.195
11942TIP3    H135771   3.430   4.179   3.136
11942TIP3    H235772   3.473   4.208   3.279
11943TIP3   OH235773   2.065   7.070   5.544
11943TIP3    H135774   2.113   7.136   5.495
11943TIP3    H235775   2.092   7.083   5.635
11944TIP3   OH235776   0.724   3.749   1.504
11944TIP3    H135777   0.698   3.723   1.416
11944TIP3    H235778   0.646   3.736   1.557
11945TIP3   OH235779   4.812   2.767   3.416
11945TIP3    H135780   4.889   2.770   3.473
11945TIP3    H235781   4.846   2.792   3.330
11946TIP3   OH235782   0.976   1.092   6.509
11946TIP3    H135783   0.965   1.187   6.508
11946TIP3    H235784   0.949   1.064   6.422
11947TIP3   OH235785   7.203   1.438   1.232
11947TIP3    H135786   7.165   1.406   1.314
11947TIP3    H235787   7.228   1.359   1.184
11948TIP3   OH235788   0.824   2.287   1.615
11948TIP3    H135789   0.857   2.303   1.527
11948TIP3    H235790   0.829   2.192   1.627
11949TIP3   OH235791   7.130   0.925   0.256
11949TIP3    H135792   7.036   0.908   0.245
11949TIP3    H235793   7.144   0.918   0.350
11950TIP3   OH235794   0.474   0.461   4.586
11950TIP3    H135795   0.524   0.542   4.575
11950TIP3    H235796   0.526   0.395   4.541
11951TIP3   OH235797   1.979   3.674   2.067
11951TIP3    H135798   1.912   3.737   2.093
11951TIP3    H235799   2.019   3.646   2.149
11952TIP3   OH235800   1.781   3.645   0.460
11952TIP3    H135801   1.765   3.717   0.400
11952TIP3    H235802   1.823   3.686   0.536
11953TIP3   OH235803   0.257   1.513   1.214
11953TIP3    H135804   0.206   1.518   1.294
11953TIP3    H235805   0.305   1.431   1.221
11954TIP3   OH235806   2.568   1.164   0.024
11954TIP3    H135807   2.556   1.189   0.116
11954TIP3    H235808   2.606   1.242  -0.017
11955TIP3   OH235809   2.810   5.132   3.237
11955TIP3    H135810   2.833   5.134   3.144
11955TIP3    H235811   2.714   5.138   3.238
11956TIP3   OH235812   1.484   6.710   2.696
11956TIP3    H135813   1.459   6.772   2.628
11956TIP3    H235814   1.572   6.681   2.672
11957TIP3   OH235815   4.385   0.978   5.142
11957TIP3    H135816   4.437   1.013   5.215
11957TIP3    H235817   4.296   1.010   5.159
11958TIP3   OH235818   1.317   6.077   3.976
11958TIP3    H135819   1.249   6.024   4.017
11958TIP3    H235820   1.318   6.158   4.028
11959TIP3   OH235821   6.684   3.434   2.463
11959TIP3    H135822   6.595   3.444   2.431
11959TIP3    H235823   6.674   3.410   2.556
11960TIP3   OH235824   0.187   4.755   0.232
11960TIP3    H135825   0.101   4.785   0.203
11960TIP3    H235826   0.176   4.739   0.326
11961TIP3   OH235827   5.921   1.093   1.904
11961TIP3    H135828   5.899   1.009   1.946
11961TIP3    H235829   5.850   1.108   1.842
11962TIP3   OH235830   0.043   3.881   6.558
11962TIP3    H135831  -0.014   3.820   6.604
11962TIP3    H235832   0.119   3.892   6.616
11963TIP3   OH235833   2.314   5.486   2.581
11963TIP3    H135834   2.281   5.575   2.591
11963TIP3    H235835   2.295   5.444   2.666
11964TIP3   OH235836   2.572   1.724   2.817
11964TIP3    H135837   2.539   1.803   2.860
11964TIP3    H235838   2.635   1.688   2.879
11965TIP3   OH235839   7.320   2.570   4.047
11965TIP3    H135840   7.392   2.625   4.016
11965TIP3    H235841   7.355   2.523   4.122
11966TIP3   OH235842   0.564   1.692   3.328
11966TIP3    H135843   0.652   1.675   3.296
11966TIP3    H235844   0.507   1.662   3.257
11967TIP3   OH235845   8.214   1.207   3.389
11967TIP3    H135846   8.238   1.120   3.359
11967TIP3    H235847   8.276   1.227   3.459
11968TIP3   OH235848   3.352   6.535   1.620
11968TIP3    H135849   3.374   6.447   1.588
11968TIP3    H235850   3.386   6.537   1.710
11969TIP3   OH235851   4.067   0.232   2.975
11969TIP3    H135852   3.992   0.235   3.034
11969TIP3    H235853   4.120   0.159   3.006
11970TIP3   OH235854   7.258   4.346   4.356
11970TIP3    H135855   7.265   4.339   4.261
11970TIP3    H235856   7.324   4.286   4.390
11971TIP3   OH235857   6.857   3.237   6.738
11971TIP3    H135858   6.930   3.259   6.796
11971TIP3    H235859   6.823   3.322   6.710
11972TIP3   OH235860   4.800   6.213   3.538
11972TIP3    H135861   4.722   6.233   3.590
11972TIP3    H235862   4.866   6.189   3.603
11973TIP3   OH235863   7.410   1.018   5.725
11973TIP3    H135864   7.423   1.112   5.713
11973TIP3    H235865   7.324   1.001   5.687
11974TIP3   OH235866   5.511   7.332   2.557
11974TIP3    H135867   5.577   7.340   2.626
11974TIP3    H235868   5.549   7.376   2.482
11975TIP3   OH235869   3.760   5.281   1.051
11975TIP3    H135870   3.825   5.219   1.084
11975TIP3    H235871   3.780   5.363   1.096
11976TIP3   OH235872   5.137   3.311   1.976
11976TIP3    H135873   5.114   3.310   2.069
11976TIP3    H235874   5.121   3.401   1.948
11977TIP3   OH235875   2.047   6.055   0.089
11977TIP3    H135876   2.044   5.965   0.055
11977TIP3    H235877   1.961   6.091   0.069
11978TIP3   OH235878   7.064   7.391   2.630
11978TIP3    H135879   7.027   7.335   2.563
11978TIP3    H235880   6.987   7.433   2.671
11979TIP3   OH235881   3.755   7.086   1.091
11979TIP3    H135882   3.803   7.088   1.008
11979TIP3    H235883   3.803   7.023   1.145
11980TIP3   OH235884   1.131   6.331   4.696
11980TIP3    H135885   1.155   6.385   4.771
11980TIP3    H235886   1.103   6.248   4.734
11981TIP3   OH235887   6.126   3.260   2.116
11981TIP3    H135888   6.078   3.178   2.103
11981TIP3    H235889   6.217   3.238   2.095
11982TIP3   OH235890   7.888   7.223   6.737
11982TIP3    H135891   7.807   7.273   6.720
11982TIP3    H235892   7.941   7.282   6.790
11983TIP3   OH235893   7.017   1.641   0.299
11983TIP3    H135894   7.112   1.647   0.296
11983TIP3    H235895   7.000   1.556   0.340
11984TIP3   OH235896   1.183   2.214   4.260
11984TIP3    H135897   1.142   2.287   4.213
11984TIP3    H235898   1.219   2.159   4.191
11985TIP3   OH235899   3.273   2.395   6.500
11985TIP3    H135900   3.340   2.414   6.566
11985TIP3    H235901   3.298   2.448   6.425
11986TIP3   OH235902   5.349   0.798   4.833
11986TIP3    H135903   5.276   0.859   4.839
11986TIP3    H235904   5.373   0.781   4.924
11987TIP3   OH235905   6.831   4.325   5.027
11987TIP3    H135906   6.823   4.308   4.933
11987TIP3    H235907   6.779   4.404   5.041
11988TIP3   OH235908   6.069   5.696   4.908
11988TIP3    H135909   6.045   5.789   4.903
11988TIP3    H235910   6.163   5.696   4.922
11989TIP3   OH235911   4.923   6.718   0.571
11989TIP3    H135912   4.833   6.745   0.586
11989TIP3    H235913   4.919   6.663   0.492
11990TIP3   OH235914   1.266   6.563   3.184
11990TIP3    H135915   1.334   6.496   3.180
11990TIP3    H235916   1.256   6.592   3.093
11991TIP3   OH235917   1.879   0.297   6.043
11991TIP3    H135918   1.914   0.297   5.954
11991TIP3    H235919   1.940   0.243   6.094
11992TIP3   OH235920   1.544   7.768   6.302
11992TIP3    H135921   1.523   7.675   6.296
11992TIP3    H235922   1.617   7.773   6.364
11993TIP3   OH235923   3.126   1.284   0.817
11993TIP3    H135924   3.132   1.269   0.723
11993TIP3    H235925   3.207   1.330   0.840
11994TIP3   OH235926   4.151   1.942   0.040
11994TIP3    H135927   4.076   1.997   0.018
11994TIP3    H235928   4.114   1.856   0.059
11995TIP3   OH235929   3.561   4.068   4.188
11995TIP3    H135930   3.486   4.107   4.234
11995TIP3    H235931   3.637   4.114   4.222
11996TIP3   OH235932   4.532   3.168   5.553
11996TIP3    H135933   4.548   3.081   5.515
11996TIP3    H235934   4.620   3.206   5.561
11997TIP3   OH235935   5.463   3.005   1.166
11997TIP3    H135936   5.385   2.958   1.194
11997TIP3    H235937   5.516   2.938   1.121
11998TIP3   OH235938   3.119   4.823   4.130
11998TIP3    H135939   3.110   4.818   4.035
11998TIP3    H235940   3.195   4.880   4.144
11999TIP3   OH235941   7.597   6.356   4.080
11999TIP3    H135942   7.683   6.355   4.037
11999TIP3    H235943   7.595   6.275   4.131
12000TIP3   OH235944   3.145   1.343   3.118
12000TIP3    H135945   3.183   1.414   3.169
12000TIP3    H235946   3.111   1.385   3.039
12001TIP3   OH235947   2.635   6.203   4.340
12001TIP3    H135948   2.551   6.209   4.386
12001TIP3    H235949   2.699   6.195   4.410
12002TIP3   OH235950   7.923   5.517   6.270
12002TIP3    H135951   7.970   5.444   6.310
12002TIP3    H235952   7.830   5.498   6.287
12003TIP3   OH235953   4.410   7.332   1.988
12003TIP3    H135954   4.463   7.314   1.911
12003TIP3    H235955   4.320   7.333   1.956
12004TIP3   OH235956   2.101   5.957   3.678
12004TIP3    H135957   2.169   5.944   3.743
12004TIP3    H235958   2.073   6.047   3.691
12005TIP3   OH235959   4.791   3.130   5.238
12005TIP3    H135960   4.739   3.210   5.248
12005TIP3    H235961   4.730   3.067   5.199
12006TIP3   OH235962   6.396   7.370   1.708
12006TIP3    H135963   6.480   7.326   1.692
12006TIP3    H235964   6.364   7.392   1.621
12007TIP3   OH235965   4.405   2.736   2.291
12007TIP3    H135966   4.332   2.748   2.353
12007TIP3    H235967   4.368   2.684   2.220
12008TIP3   OH235968   0.109   0.139   5.252
12008TIP3    H135969   0.119   0.187   5.333
12008TIP3    H235970   0.155   0.193   5.186
12009TIP3   OH235971   5.399   7.172   3.268
12009TIP3    H135972   5.359   7.141   3.187
12009TIP3    H235973   5.467   7.107   3.287
12010TIP3   OH235974   5.780   7.275   3.830
12010TIP3    H135975   5.808   7.202   3.885
12010TIP3    H235976   5.857   7.297   3.778
12011TIP3   OH235977   0.560   1.794   6.394
12011TIP3    H135978   0.605   1.872   6.361
12011TIP3    H235979   0.477   1.793   6.346
12012TIP3   OH235980   1.574   0.241   2.014
12012TIP3    H135981   1.556   0.335   2.020
12012TIP3    H235982   1.526   0.203   2.087
12013TIP3   OH235983   0.314   2.670   0.539
12013TIP3    H135984   0.402   2.678   0.575
12013TIP3    H235985   0.324   2.613   0.462
12014TIP3   OH235986   7.335   7.386   1.352
12014TIP3    H135987   7.356   7.479   1.349
12014TIP3    H235988   7.353   7.354   1.264
12015TIP3   OH235989   3.538   0.637   3.673
12015TIP3    H135990   3.565   0.546   3.688
12015TIP3    H235991   3.446   0.639   3.699
12016TIP3   OH235992   7.881   6.163   4.491
12016TIP3    H135993   7.921   6.167   4.404
12016TIP3    H235994   7.848   6.074   4.498
12017TIP3   OH235995   0.818   3.974   1.639
12017TIP3    H135996   0.788   3.944   1.725
12017TIP3    H235997   0.776   3.913   1.578
12018TIP3   OH235998   0.633   3.228   1.037
12018TIP3    H135999   0.550   3.220   1.083
12018TIP3    H236000   0.630   3.160   0.970
12019TIP3   OH236001   4.907   2.903   1.079
12019TIP3    H136002   4.820   2.863   1.069
12019TIP3    H236003   4.967   2.829   1.081
12020TIP3   OH236004   4.818   2.001   2.522
12020TIP3    H136005   4.788   2.073   2.578
12020TIP3    H236006   4.889   1.960   2.573
12021TIP3   OH236007   2.809   5.876   4.816
12021TIP3    H136008   2.770   5.877   4.903
12021TIP3    H236009   2.736   5.887   4.756
12022TIP3   OH236010   1.618   2.262   3.077
12022TIP3    H136011   1.714   2.265   3.074
12022TIP3    H236012   1.598   2.181   3.124
12023TIP3   OH236013   7.161   7.780   6.458
12023TIP3    H136014   7.232   7.795   6.397
12023TIP3    H236015   7.084   7.817   6.415
12024TIP3   OH236016   4.350   5.174   4.719
12024TIP3    H136017   4.320   5.246   4.776
12024TIP3    H236018   4.269   5.139   4.681
12025TIP3   OH236019   3.928   5.941   3.388
12025TIP3    H136020   3.951   5.874   3.323
12025TIP3    H236021   3.879   5.893   3.455
12026TIP3   OH236022   2.712   1.409   0.458
12026TIP3    H136023   2.677   1.367   0.537
12026TIP3    H236024   2.800   1.372   0.449
12027TIP3   OH236025   1.673   0.881   2.136
12027TIP3    H136026   1.617   0.869   2.059
12027TIP3    H236027   1.612   0.894   2.209
12028TIP3   OH236028   8.076   1.272   1.523
12028TIP3    H136029   8.088   1.326   1.444
12028TIP3    H236030   8.150   1.211   1.521
12029TIP3   OH236031   7.420   4.590   0.334
12029TIP3    H136032   7.504   4.554   0.307
12029TIP3    H236033   7.428   4.684   0.318
12030TIP3   OH236034   7.326   2.786   0.421
12030TIP3    H136035   7.238   2.775   0.384
12030TIP3    H236036   7.384   2.753   0.353
12031TIP3   OH236037   4.367   5.686   4.167
12031TIP3    H136038   4.437   5.679   4.233
12031TIP3    H236039   4.286   5.682   4.218
12032TIP3   OH236040   3.206   0.849   6.369
12032TIP3    H136041   3.140   0.868   6.302
12032TIP3    H236042   3.181   0.904   6.444
12033TIP3   OH236043   3.992   0.755   5.735
12033TIP3    H136044   4.079   0.756   5.694
12033TIP3    H236045   3.969   0.662   5.740
12034TIP3   OH236046   1.674   1.266   3.210
12034TIP3    H136047   1.672   1.362   3.217
12034TIP3    H236048   1.755   1.240   3.254
12035TIP3   OH236049   7.877   2.388   2.910
12035TIP3    H136050   7.787   2.366   2.934
12035TIP3    H236051   7.876   2.482   2.893
12036TIP3   OH236052   4.081   0.956   6.387
12036TIP3    H136053   4.144   1.022   6.361
12036TIP3    H236054   4.100   0.881   6.332
12037TIP3   OH236055   3.260   5.474   4.999
12037TIP3    H136056   3.197   5.531   5.044
12037TIP3    H236057   3.338   5.528   4.988
12038TIP3   OH236058   4.298   6.584   5.232
12038TIP3    H136059   4.249   6.622   5.160
12038TIP3    H236060   4.370   6.536   5.190
12039TIP3   OH236061   6.546   3.152   4.609
12039TIP3    H136062   6.528   3.083   4.545
12039TIP3    H236063   6.460   3.175   4.644
12040TIP3   OH236064   6.945   6.598   0.851
12040TIP3    H136065   7.028   6.617   0.895
12040TIP3    H236066   6.888   6.567   0.921
12041TIP3   OH236067   0.366   3.151   4.692
12041TIP3    H136068   0.308   3.145   4.767
12041TIP3    H236069   0.452   3.129   4.727
12042TIP3   OH236070   5.132   3.951   5.581
12042TIP3    H136071   5.064   3.885   5.596
12042TIP3    H236072   5.094   4.032   5.614
12043TIP3   OH236073   5.884   7.082   3.421
12043TIP3    H136074   5.889   7.114   3.511
12043TIP3    H236075   5.919   7.154   3.368
12044TIP3   OH236076   0.768   0.350   2.063
12044TIP3    H136077   0.762   0.270   2.011
12044TIP3    H236078   0.840   0.399   2.023
12045TIP3   OH236079   2.863   6.675   4.481
12045TIP3    H136080   2.959   6.669   4.482
12045TIP3    H236081   2.833   6.596   4.526
12046TIP3   OH236082   6.529   1.785   3.042
12046TIP3    H136083   6.485   1.707   3.074
12046TIP3    H236084   6.482   1.809   2.963
12047TIP3   OH236085   5.518   3.650   0.040
12047TIP3    H136086   5.466   3.605  -0.027
12047TIP3    H236087   5.553   3.727  -0.005
12048TIP3   OH236088   6.230   5.901   1.027
12048TIP3    H136089   6.171   5.919   1.100
12048TIP3    H236090   6.184   5.935   0.950
12049TIP3   OH236091   6.145   7.730   5.379
12049TIP3    H136092   6.175   7.640   5.390
12049TIP3    H236093   6.123   7.759   5.467
12050TIP3   OH236094   3.863   6.079   3.113
12050TIP3    H136095   3.939   6.121   3.154
12050TIP3    H236096   3.788   6.130   3.142
12051TIP3   OH236097   3.287   6.246   1.315
12051TIP3    H136098   3.282   6.335   1.280
12051TIP3    H236099   3.332   6.257   1.399
12052TIP3   OH236100   4.896   1.422   1.395
12052TIP3    H136101   4.856   1.399   1.311
12052TIP3    H236102   4.875   1.348   1.452
12053TIP3   OH236103   3.479   5.714   4.152
12053TIP3    H136104   3.479   5.639   4.211
12053TIP3    H236105   3.571   5.742   4.149
12054TIP3   OH236106   1.378   3.465   4.729
12054TIP3    H136107   1.364   3.413   4.650
12054TIP3    H236108   1.293   3.465   4.773
12055TIP3   OH236109   6.569   5.925   4.684
12055TIP3    H136110   6.609   5.839   4.698
12055TIP3    H236111   6.504   5.910   4.615
12056TIP3   OH236112   4.194   6.374   5.678
12056TIP3    H136113   4.280   6.333   5.684
12056TIP3    H236114   4.138   6.304   5.643
12057TIP3   OH236115   7.383   2.568   5.820
12057TIP3    H136116   7.414   2.509   5.888
12057TIP3    H236117   7.377   2.653   5.863
12058TIP3   OH236118   2.198   7.147   6.268
12058TIP3    H136119   2.266   7.086   6.296
12058TIP3    H236120   2.208   7.223   6.326
12059TIP3   OH236121   7.582   3.101   5.371
12059TIP3    H136122   7.583   3.078   5.278
12059TIP3    H236123   7.649   3.169   5.380
12060TIP3   OH236124   3.207   5.865   0.375
12060TIP3    H136125   3.229   5.848   0.467
12060TIP3    H236126   3.211   5.779   0.333
12061TIP3   OH236127   7.674   7.395   6.528
12061TIP3    H136128   7.612   7.412   6.457
12061TIP3    H236129   7.758   7.424   6.494
12062TIP3   OH236130   7.176   6.828   0.514
12062TIP3    H136131   7.104   6.878   0.478
12062TIP3    H236132   7.230   6.804   0.439
12063TIP3   OH236133   6.034   0.510   4.908
12063TIP3    H136134   6.034   0.593   4.861
12063TIP3    H236135   6.045   0.444   4.840
12064TIP3   OH236136   0.494   4.693   4.160
12064TIP3    H136137   0.511   4.630   4.230
12064TIP3    H236138   0.532   4.654   4.082
12065TIP3   OH236139   4.722   7.281   4.987
12065TIP3    H136140   4.816   7.291   5.001
12065TIP3    H236141   4.714   7.250   4.897
12066TIP3   OH236142   6.867   1.623   6.277
12066TIP3    H136143   6.790   1.585   6.318
12066TIP3    H236144   6.934   1.621   6.345
12067TIP3   OH236145   1.993   3.186   4.864
12067TIP3    H136146   1.909   3.198   4.907
12067TIP3    H236147   1.975   3.124   4.793
12068TIP3   OH236148   2.883   4.435   3.981
12068TIP3    H136149   2.970   4.475   3.983
12068TIP3    H236150   2.855   4.432   4.073
12069TIP3   OH236151   1.122   2.336   0.303
12069TIP3    H136152   1.132   2.302   0.392
12069TIP3    H236153   1.198   2.392   0.289
12070TIP3   OH236154   3.104   3.208   6.320
12070TIP3    H136155   3.036   3.274   6.324
12070TIP3    H236156   3.155   3.231   6.242
12071TIP3   OH236157   3.904   0.601   5.212
12071TIP3    H136158   3.882   0.518   5.256
12071TIP3    H236159   3.855   0.598   5.130
12072TIP3   OH236160   5.400   3.060   4.532
12072TIP3    H136161   5.320   3.091   4.491
12072TIP3    H236162   5.386   3.072   4.626
12073TIP3   OH236163   2.296   2.199   2.580
12073TIP3    H136164   2.221   2.218   2.637
12073TIP3    H236165   2.327   2.113   2.609
12074TIP3   OH236166   1.305   2.797   6.448
12074TIP3    H136167   1.293   2.765   6.537
12074TIP3    H236168   1.397   2.781   6.428
12075TIP3   OH236169   3.067   4.747   5.574
12075TIP3    H136170   3.033   4.678   5.517
12075TIP3    H236171   2.989   4.791   5.608
12076TIP3   OH236172   1.435   5.290   4.931
12076TIP3    H136173   1.503   5.324   4.872
12076TIP3    H236174   1.417   5.202   4.900
12077TIP3   OH236175   5.880   3.365   0.839
12077TIP3    H136176   5.844   3.290   0.792
12077TIP3    H236177   5.868   3.439   0.780
12078TIP3   OH236178   5.591   6.618   6.012
12078TIP3    H136179   5.536   6.600   6.089
12078TIP3    H236180   5.673   6.572   6.029
12079TIP3   OH236181   3.391   7.797   6.298
12079TIP3    H136182   3.452   7.843   6.240
12079TIP3    H236183   3.322   7.764   6.239
12080TIP3   OH236184   0.213   0.382   4.511
12080TIP3    H136185   0.283   0.425   4.560
12080TIP3    H236186   0.143   0.370   4.575
12081TIP3   OH236187   3.783   0.286   0.068
12081TIP3    H136188   3.757   0.311   0.157
12081TIP3    H236189   3.861   0.339   0.050
12082TIP3   OH236190   1.840   2.869   4.033
12082TIP3    H136191   1.869   2.795   4.086
12082TIP3    H236192   1.867   2.946   4.083
12083TIP3   OH236193   5.346   1.760   0.495
12083TIP3    H136194   5.280   1.812   0.542
12083TIP3    H236195   5.370   1.691   0.557
12084TIP3   OH236196   2.291   3.791   4.975
12084TIP3    H136197   2.214   3.812   5.028
12084TIP3    H236198   2.325   3.876   4.949
12085TIP3   OH236199   5.866   2.004   5.480
12085TIP3    H136200   5.833   2.075   5.426
12085TIP3    H236201   5.918   2.047   5.547
12086TIP3   OH236202   0.549   6.143   6.467
12086TIP3    H136203   0.566   6.132   6.373
12086TIP3    H236204   0.480   6.080   6.486
12087TIP3   OH236205   4.642   3.374   5.303
12087TIP3    H136206   4.725   3.413   5.330
12087TIP3    H236207   4.585   3.384   5.379
12088TIP3   OH236208   3.917   2.830   1.271
12088TIP3    H136209   3.831   2.792   1.256
12088TIP3    H236210   3.965   2.762   1.319
12089TIP3   OH236211   8.002   5.629   3.984
12089TIP3    H136212   8.028   5.538   3.998
12089TIP3    H236213   7.976   5.660   4.071
12090TIP3   OH236214   5.812   3.058   0.736
12090TIP3    H136215   5.724   3.034   0.709
12090TIP3    H236216   5.825   3.012   0.820
12091TIP3   OH236217   1.608   2.227   5.316
12091TIP3    H136218   1.604   2.143   5.270
12091TIP3    H236219   1.655   2.208   5.398
12092TIP3   OH236220   3.866   2.404   1.647
12092TIP3    H136221   3.926   2.377   1.577
12092TIP3    H236222   3.915   2.471   1.695
12093TIP3   OH236223   7.517   2.875   2.790
12093TIP3    H136224   7.488   2.807   2.729
12093TIP3    H236225   7.550   2.945   2.734
12094TIP3   OH236226   4.958   6.923   3.369
12094TIP3    H136227   4.866   6.905   3.390
12094TIP3    H236228   4.999   6.939   3.454
12095TIP3   OH236229   8.178   7.179   3.345
12095TIP3    H136230   8.130   7.116   3.291
12095TIP3    H236231   8.201   7.130   3.424
12096TIP3   OH236232   0.685   2.933   5.356
12096TIP3    H136233   0.722   3.015   5.388
12096TIP3    H236234   0.741   2.865   5.395
12097TIP3   OH236235   6.218   0.470   1.731
12097TIP3    H136236   6.243   0.560   1.712
12097TIP3    H236237   6.301   0.422   1.733
12098TIP3   OH236238   0.247   3.886   5.567
12098TIP3    H136239   0.243   3.836   5.649
12098TIP3    H236240   0.210   3.971   5.589
12099TIP3   OH236241   7.575   6.947   0.992
12099TIP3    H136242   7.519   6.869   0.995
12099TIP3    H236243   7.526   7.009   0.937
12100TIP3   OH236244   0.163   6.222   6.247
12100TIP3    H136245   0.184   6.175   6.328
12100TIP3    H236246   0.215   6.179   6.179
12101TIP3   OH236247   5.309   6.600   4.611
12101TIP3    H136248   5.374   6.538   4.643
12101TIP3    H236249   5.312   6.673   4.673
12102TIP3   OH236250   6.871   7.069   3.009
12102TIP3    H136251   6.937   7.104   2.949
12102TIP3    H236252   6.921   7.040   3.086
12103TIP3   OH236253   0.484   4.626   3.081
12103TIP3    H136254   0.541   4.665   3.147
12103TIP3    H236255   0.533   4.636   2.999
12104TIP3   OH236256   0.435   1.019   1.590
12104TIP3    H136257   0.437   0.940   1.537
12104TIP3    H236258   0.515   1.066   1.567
12105TIP3   OH236259   6.380   2.973   1.697
12105TIP3    H136260   6.377   2.912   1.771
12105TIP3    H236261   6.323   3.046   1.724
12106TIP3   OH236262   7.047   6.435   4.079
12106TIP3    H136263   7.047   6.505   4.013
12106TIP3    H236264   7.120   6.456   4.136
12107TIP3   OH236265   2.390   1.093   2.251
12107TIP3    H136266   2.459   1.159   2.239
12107TIP3    H236267   2.410   1.051   2.335
12108TIP3   OH236268   3.348   4.982   4.237
12108TIP3    H136269   3.338   5.074   4.214
12108TIP3    H236270   3.314   4.976   4.326
12109TIP3   OH236271   5.294   0.246   2.513
12109TIP3    H136272   5.369   0.188   2.498
12109TIP3    H236273   5.262   0.222   2.600
12110TIP3   OH236274   2.350   4.677   2.909
12110TIP3    H136275   2.426   4.646   2.958
12110TIP3    H236276   2.363   4.644   2.821
12111TIP3   OH236277   2.534   2.660   0.031
12111TIP3    H136278   2.522   2.627  -0.057
12111TIP3    H236279   2.526   2.584   0.088
12112TIP3   OH236280   4.462   5.903   2.424
12112TIP3    H136281   4.457   5.912   2.329
12112TIP3    H236282   4.403   5.970   2.458
12113TIP3   OH236283   5.705   6.139   1.333
12113TIP3    H136284   5.777   6.149   1.270
12113TIP3    H236285   5.641   6.085   1.286
12114TIP3   OH236286   1.922   7.145   2.226
12114TIP3    H136287   1.876   7.166   2.307
12114TIP3    H236288   1.972   7.223   2.205
12115TIP3   OH236289   7.051   4.085   1.966
12115TIP3    H136290   7.018   4.000   1.938
12115TIP3    H236291   7.041   4.085   2.061
12116TIP3   OH236292   1.715   4.982   2.526
12116TIP3    H136293   1.645   5.042   2.502
12116TIP3    H236294   1.692   4.899   2.485
12117TIP3   OH236295   5.522   0.566   4.439
12117TIP3    H136296   5.449   0.627   4.431
12117TIP3    H236297   5.589   0.614   4.487
12118TIP3   OH236298   1.687   7.409   3.323
12118TIP3    H136299   1.761   7.469   3.336
12118TIP3    H236300   1.685   7.395   3.229
12119TIP3   OH236301   7.878   7.165   1.434
12119TIP3    H136302   7.798   7.217   1.435
12119TIP3    H236303   7.926   7.192   1.513
12120TIP3   OH236304   5.399   1.564   1.063
12120TIP3    H136305   5.377   1.558   0.970
12120TIP3    H236306   5.331   1.620   1.101
12121TIP3   OH236307   5.304   2.791   5.009
12121TIP3    H136308   5.289   2.883   5.031
12121TIP3    H236309   5.385   2.768   5.055
12122TIP3   OH236310   2.833   6.463   3.126
12122TIP3    H136311   2.834   6.533   3.191
12122TIP3    H236312   2.754   6.412   3.147
12123TIP3   OH236313   0.647   2.939   3.798
12123TIP3    H136314   0.739   2.932   3.821
12123TIP3    H236315   0.603   2.878   3.857
12124TIP3   OH236316   8.183   2.653   0.993
12124TIP3    H136317   8.133   2.675   0.914
12124TIP3    H236318   8.256   2.601   0.961
12125TIP3   OH236319   2.242   6.796   5.218
12125TIP3    H136320   2.216   6.768   5.306
12125TIP3    H236321   2.317   6.740   5.197
12126TIP3   OH236322   4.907   1.774   6.032
12126TIP3    H136323   4.876   1.815   6.112
12126TIP3    H236324   4.964   1.703   6.061
12127TIP3   OH236325   8.177   1.392   0.206
12127TIP3    H136326   8.232   1.322   0.173
12127TIP3    H236327   8.177   1.458   0.137
12128TIP3   OH236328   2.080   0.693   4.413
12128TIP3    H136329   2.117   0.711   4.499
12128TIP3    H236330   2.135   0.624   4.377
12129TIP3   OH236331   0.586   0.538   6.391
12129TIP3    H136332   0.578   0.466   6.329
12129TIP3    H236333   0.647   0.506   6.457
12130TIP3   OH236334   4.120   5.643   4.269
12130TIP3    H136335   4.070   5.673   4.193
12130TIP3    H236336   4.059   5.652   4.343
12131TIP3   OH236337   5.105   3.082   1.827
12131TIP3    H136338   5.024   3.101   1.779
12131TIP3    H236339   5.110   3.151   1.893
12132TIP3   OH236340   3.165   2.052   0.935
12132TIP3    H136341   3.181   2.117   1.004
12132TIP3    H236342   3.122   1.979   0.980
12133TIP3   OH236343   3.130   3.398   2.573
12133TIP3    H136344   3.134   3.367   2.663
12133TIP3    H236345   3.057   3.460   2.572
12134TIP3   OH236346   3.043   3.424   5.214
12134TIP3    H136347   3.117   3.464   5.169
12134TIP3    H236348   3.058   3.330   5.206
12135TIP3   OH236349   2.905   5.679   5.718
12135TIP3    H136350   2.851   5.749   5.754
12135TIP3    H236351   2.845   5.628   5.664
12136TIP3   OH236352   7.938   4.310   5.094
12136TIP3    H136353   7.852   4.351   5.083
12136TIP3    H236354   7.959   4.322   5.186
12137TIP3   OH236355   4.211   5.403   0.027
12137TIP3    H136356   4.213   5.318   0.072
12137TIP3    H236357   4.123   5.437   0.045
12138TIP3   OH236358   6.765   6.818   2.485
12138TIP3    H136359   6.792   6.781   2.570
12138TIP3    H236360   6.696   6.880   2.507
12139TIP3   OH236361   1.134   4.924   6.357
12139TIP3    H136362   1.123   5.016   6.381
12139TIP3    H236363   1.205   4.924   6.294
12140TIP3   OH236364   0.882   6.738   1.866
12140TIP3    H136365   0.910   6.791   1.792
12140TIP3    H236366   0.895   6.648   1.837
12141TIP3   OH236367   0.981   4.118   4.064
12141TIP3    H136368   0.985   4.064   4.143
12141TIP3    H236369   0.997   4.207   4.095
12142TIP3   OH236370   2.908   7.001   2.665
12142TIP3    H136371   2.924   7.000   2.570
12142TIP3    H236372   2.820   6.965   2.674
12143TIP3   OH236373   3.187   1.325   6.483
12143TIP3    H136374   3.282   1.325   6.491
12143TIP3    H236375   3.161   1.416   6.500
12144TIP3   OH236376   2.057   3.161   0.528
12144TIP3    H136377   2.081   3.180   0.619
12144TIP3    H236378   2.014   3.240   0.498
12145TIP3   OH236379   5.327   2.201   3.742
12145TIP3    H136380   5.367   2.129   3.790
12145TIP3    H236381   5.399   2.237   3.690
12146TIP3   OH236382   3.211   0.489   1.327
12146TIP3    H136383   3.213   0.473   1.233
12146TIP3    H236384   3.300   0.471   1.357
12147TIP3   OH236385   2.609   2.320   3.778
12147TIP3    H136386   2.671   2.384   3.742
12147TIP3    H236387   2.658   2.274   3.846
12148TIP3   OH236388   7.953   3.524   1.371
12148TIP3    H136389   7.935   3.437   1.407
12148TIP3    H236390   7.971   3.579   1.448
12149TIP3   OH236391   6.031   4.775   0.401
12149TIP3    H136392   6.082   4.756   0.480
12149TIP3    H236393   5.940   4.774   0.431
12150TIP3   OH236394   6.537   1.571   6.757
12150TIP3    H136395   6.482   1.529   6.823
12150TIP3    H236396   6.599   1.503   6.730
12151TIP3   OH236397   4.283   0.441   5.610
12151TIP3    H136398   4.209   0.410   5.661
12151TIP3    H236399   4.244   0.479   5.531
12152TIP3   OH236400   1.270   5.270   6.415
12152TIP3    H136401   1.306   5.337   6.474
12152TIP3    H236402   1.269   5.312   6.329
12153TIP3   OH236403   7.568   7.015   0.553
12153TIP3    H136404   7.574   7.110   0.545
12153TIP3    H236405   7.524   6.987   0.473
12154TIP3   OH236406   3.763   0.609   5.950
12154TIP3    H136407   3.725   0.577   5.868
12154TIP3    H236408   3.691   0.607   6.012
12155TIP3   OH236409   7.462   7.053   4.301
12155TIP3    H136410   7.531   7.117   4.281
12155TIP3    H236411   7.417   7.040   4.217
12156TIP3   OH236412   1.113   2.331   6.501
12156TIP3    H136413   1.146   2.251   6.460
12156TIP3    H236414   1.161   2.402   6.459
12157TIP3   OH236415   2.495   0.777   6.163
12157TIP3    H136416   2.537   0.838   6.224
12157TIP3    H236417   2.512   0.690   6.202
12158TIP3   OH236418   5.453   5.698   6.501
12158TIP3    H136419   5.428   5.789   6.508
12158TIP3    H236420   5.475   5.671   6.590
12159TIP3   OH236421   2.245   4.841   5.190
12159TIP3    H136422   2.181   4.775   5.216
12159TIP3    H236423   2.271   4.815   5.102
12160TIP3   OH236424   2.265   4.636   3.756
12160TIP3    H136425   2.199   4.648   3.687
12160TIP3    H236426   2.292   4.724   3.779
12161TIP3   OH236427   4.823   5.205   0.690
12161TIP3    H136428   4.784   5.226   0.605
12161TIP3    H236429   4.761   5.241   0.754
12162TIP3   OH236430   1.356   1.915   0.841
12162TIP3    H136431   1.404   1.942   0.918
12162TIP3    H236432   1.404   1.839   0.808
12163TIP3   OH236433   6.256   7.554   0.632
12163TIP3    H136434   6.198   7.498   0.580
12163TIP3    H236435   6.341   7.510   0.628
12164TIP3   OH236436   5.737   3.543   6.648
12164TIP3    H136437   5.785   3.530   6.729
12164TIP3    H236438   5.701   3.456   6.627
12165TIP3   OH236439   7.374   6.526   3.689
12165TIP3    H136440   7.407   6.550   3.776
12165TIP3    H236441   7.307   6.591   3.669
12166TIP3   OH236442   6.484   6.127   6.740
12166TIP3    H136443   6.438   6.045   6.758
12166TIP3    H236444   6.562   6.123   6.796
12167TIP3   OH236445   2.914   1.733   1.203
12167TIP3    H136446   3.001   1.695   1.215
12167TIP3    H236447   2.883   1.699   1.119
12168TIP3   OH236448   2.316   4.837   4.302
12168TIP3    H136449   2.383   4.887   4.350
12168TIP3    H236450   2.361   4.757   4.275
12169TIP3   OH236451   1.605   6.109   0.980
12169TIP3    H136452   1.605   6.178   1.046
12169TIP3    H236453   1.653   6.037   1.021
12170TIP3   OH236454   7.684   3.291   6.319
12170TIP3    H136455   7.714   3.377   6.348
12170TIP3    H236456   7.620   3.310   6.250
12171TIP3   OH236457   5.062   7.305   2.798
12171TIP3    H136458   5.093   7.384   2.753
12171TIP3    H236459   4.980   7.331   2.840
12172TIP3   OH236460   3.089   2.011   1.551
12172TIP3    H136461   3.052   2.073   1.615
12172TIP3    H236462   3.085   1.927   1.596
12173TIP3   OH236463   2.205   5.752   6.581
12173TIP3    H136464   2.293   5.766   6.545
12173TIP3    H236465   2.149   5.739   6.504
12174TIP3   OH236466   5.928   5.360   0.840
12174TIP3    H136467   6.003   5.301   0.846
12174TIP3    H236468   5.861   5.309   0.795
12175TIP3   OH236469   6.691   5.394   5.104
12175TIP3    H136470   6.660   5.421   5.190
12175TIP3    H236471   6.786   5.407   5.107
12176TIP3   OH236472   4.554   3.957   5.264
12176TIP3    H136473   4.630   3.997   5.222
12176TIP3    H236474   4.589   3.918   5.344
12177TIP3   OH236475   5.650   0.462   3.214
12177TIP3    H136476   5.605   0.466   3.129
12177TIP3    H236477   5.703   0.383   3.209
12178TIP3   OH236478   5.743   4.857   5.404
12178TIP3    H136479   5.791   4.856   5.321
12178TIP3    H236480   5.660   4.812   5.384
12179TIP3   OH236481   7.420   2.359   6.040
12179TIP3    H136482   7.419   2.339   6.134
12179TIP3    H236483   7.338   2.323   6.007
12180TIP3   OH236484   3.057   6.765   4.081
12180TIP3    H136485   3.063   6.725   4.168
12180TIP3    H236486   3.139   6.741   4.038
12181TIP3   OH236487   2.597   6.430   5.206
12181TIP3    H136488   2.600   6.524   5.225
12181TIP3    H236489   2.643   6.389   5.279
12182TIP3   OH236490   5.033   5.432   0.042
12182TIP3    H136491   5.090   5.490  -0.009
12182TIP3    H236492   4.961   5.411  -0.017
12183TIP3   OH236493   2.007   7.659   0.052
12183TIP3    H136494   1.943   7.599   0.092
12183TIP3    H236495   2.068   7.602   0.006
12184TIP3   OH236496   7.410   7.188   5.962
12184TIP3    H136497   7.460   7.238   6.026
12184TIP3    H236498   7.362   7.254   5.912
12185TIP3   OH236499   1.550   5.873   3.532
12185TIP3    H136500   1.635   5.859   3.573
12185TIP3    H236501   1.499   5.919   3.599
12186TIP3   OH236502   6.817   3.628   4.619
12186TIP3    H136503   6.756   3.702   4.620
12186TIP3    H236504   6.813   3.594   4.529
12187TIP3   OH236505   2.866   4.254   3.104
12187TIP3    H136506   2.885   4.299   3.186
12187TIP3    H236507   2.806   4.313   3.058
12188TIP3   OH236508   5.272   4.861   0.938
12188TIP3    H136509   5.320   4.929   0.986
12188TIP3    H236510   5.215   4.909   0.879
12189TIP3   OH236511   4.704   5.936   3.999
12189TIP3    H136512   4.735   5.864   4.054
12189TIP3    H236513   4.739   5.917   3.913
12190TIP3   OH236514   4.291   3.376   0.278
12190TIP3    H136515   4.295   3.441   0.349
12190TIP3    H236516   4.374   3.387   0.232
12191TIP3   OH236517   5.850   0.603   4.285
12191TIP3    H136518   5.813   0.517   4.266
12191TIP3    H236519   5.797   0.637   4.357
12192TIP3   OH236520   4.315   1.453   4.602
12192TIP3    H136521   4.361   1.410   4.674
12192TIP3    H236522   4.382   1.511   4.563
12193TIP3   OH236523   5.792   2.640   3.236
12193TIP3    H136524   5.887   2.653   3.241
12193TIP3    H236525   5.766   2.686   3.156
12194TIP3   OH236526   2.022   3.101   6.081
12194TIP3    H136527   2.086   3.034   6.107
12194TIP3    H236528   1.938   3.055   6.081
12195TIP3   OH236529   3.057   2.528   2.389
12195TIP3    H136530   3.134   2.523   2.332
12195TIP3    H236531   2.988   2.563   2.333
12196TIP3   OH236532   5.344   6.766   0.485
12196TIP3    H136533   5.309   6.824   0.418
12196TIP3    H236534   5.280   6.694   0.491
12197TIP3   OH236535   5.431   4.334   4.983
12197TIP3    H136536   5.426   4.315   4.890
12197TIP3    H236537   5.515   4.379   4.995
12198TIP3   OH236538   6.364   4.005   5.823
12198TIP3    H136539   6.414   4.064   5.879
12198TIP3    H236540   6.430   3.960   5.771
12199TIP3   OH236541   3.705   5.550   0.274
12199TIP3    H136542   3.655   5.475   0.242
12199TIP3    H236543   3.646   5.594   0.336
12200TIP3   OH236544   1.014   5.798   6.339
12200TIP3    H136545   1.082   5.820   6.275
12200TIP3    H236546   1.038   5.711   6.369
12201TIP3   OH236547   6.348   3.944   1.347
12201TIP3    H136548   6.260   3.919   1.373
12201TIP3    H236549   6.336   4.003   1.272
12202TIP3   OH236550   5.081   1.050   3.855
12202TIP3    H136551   5.093   0.961   3.887
12202TIP3    H236552   5.166   1.093   3.870
12203TIP3   OH236553   7.173   4.628   1.117
12203TIP3    H136554   7.249   4.573   1.099
12203TIP3    H236555   7.120   4.578   1.180
12204TIP3   OH236556   7.172   6.085   1.111
12204TIP3    H136557   7.144   6.021   1.177
12204TIP3    H236558   7.257   6.054   1.082
12205TIP3   OH236559   7.364   4.201   4.593
12205TIP3    H136560   7.353   4.199   4.688
12205TIP3    H236561   7.435   4.263   4.578
12206TIP3   OH236562   5.435   1.239   0.305
12206TIP3    H136563   5.489   1.211   0.231
12206TIP3    H236564   5.410   1.330   0.284
12207TIP3   OH236565   7.166   7.749   4.021
12207TIP3    H136566   7.124   7.797   4.092
12207TIP3    H236567   7.163   7.808   3.946
12208TIP3   OH236568   2.602   0.949   1.107
12208TIP3    H136569   2.611   0.946   1.011
12208TIP3    H236570   2.633   1.036   1.131
12209TIP3   OH236571   6.540   4.842   0.537
12209TIP3    H136572   6.624   4.885   0.520
12209TIP3    H236573   6.541   4.764   0.482
12210TIP3   OH236574   7.985   3.706   2.295
12210TIP3    H136575   7.904   3.691   2.247
12210TIP3    H236576   8.053   3.714   2.227
12211TIP3   OH236577   4.535   2.675   5.075
12211TIP3    H136578   4.472   2.628   5.019
12211TIP3    H236579   4.484   2.747   5.113
12212TIP3   OH236580   2.370   1.322   6.558
12212TIP3    H136581   2.329   1.388   6.502
12212TIP3    H236582   2.315   1.245   6.550
12213TIP3   OH236583   4.159   7.418   6.135
12213TIP3    H136584   4.099   7.430   6.209
12213TIP3    H236585   4.240   7.459   6.164
12214TIP3   OH236586   7.932   5.576   2.268
12214TIP3    H136587   8.012   5.627   2.254
12214TIP3    H236588   7.950   5.525   2.348
12215TIP3   OH236589   4.744   4.622   3.171
12215TIP3    H136590   4.678   4.638   3.103
12215TIP3    H236591   4.811   4.569   3.127
12216TIP3   OH236592   1.180   3.135   2.479
12216TIP3    H136593   1.102   3.190   2.491
12216TIP3    H236594   1.231   3.148   2.559
12217TIP3   OH236595   7.786   6.810   1.894
12217TIP3    H136596   7.791   6.717   1.915
12217TIP3    H236597   7.816   6.855   1.973
12218TIP3   OH236598   4.026   3.611   4.967
12218TIP3    H136599   4.107   3.574   4.931
12218TIP3    H236600   4.055   3.677   5.030
12219TIP3   OH236601   8.311   2.428   2.473
12219TIP3    H136602   8.220   2.398   2.464
12219TIP3    H236603   8.360   2.372   2.412
12220TIP3   OH236604   0.061   3.688   4.689
12220TIP3    H136605   0.018   3.662   4.608
12220TIP3    H236606   0.089   3.779   4.674
12221TIP3   OH236607   7.498   0.230   2.106
12221TIP3    H136608   7.574   0.245   2.162
12221TIP3    H236609   7.435   0.297   2.132
12222TIP3   OH236610   4.034   3.186   3.314
12222TIP3    H136611   4.079   3.169   3.397
12222TIP3    H236612   3.993   3.272   3.326
12223TIP3   OH236613   2.888   1.655   4.882
12223TIP3    H136614   2.948   1.721   4.846
12223TIP3    H236615   2.818   1.649   4.817
12224TIP3   OH236616   1.346   4.014   3.758
12224TIP3    H136617   1.298   4.091   3.786
12224TIP3    H236618   1.279   3.951   3.732
12225TIP3   OH236619   7.083   2.689   3.140
12225TIP3    H136620   7.044   2.606   3.169
12225TIP3    H236621   7.012   2.732   3.092
12226TIP3   OH236622   5.471   1.304   0.886
12226TIP3    H136623   5.386   1.328   0.922
12226TIP3    H236624   5.450   1.242   0.816
12227TIP3   OH236625   5.032   4.125   2.727
12227TIP3    H136626   5.108   4.145   2.673
12227TIP3    H236627   5.014   4.032   2.711
12228TIP3   OH236628   6.627   7.288   4.432
12228TIP3    H136629   6.637   7.221   4.364
12228TIP3    H236630   6.613   7.369   4.384
12229TIP3   OH236631   4.510   6.667   6.450
12229TIP3    H136632   4.415   6.659   6.438
12229TIP3    H236633   4.521   6.689   6.542
12230TIP3   OH236634   3.502   1.369   3.490
12230TIP3    H136635   3.508   1.277   3.463
12230TIP3    H236636   3.567   1.378   3.560
12231TIP3   OH236637   0.665   6.389   5.403
12231TIP3    H136638   0.584   6.392   5.353
12231TIP3    H236639   0.728   6.439   5.350
12232TIP3   OH236640   6.828   2.745   0.144
12232TIP3    H136641   6.805   2.761   0.052
12232TIP3    H236642   6.763   2.795   0.193
12233TIP3   OH236643   2.324   6.420   3.347
12233TIP3    H136644   2.244   6.472   3.350
12233TIP3    H236645   2.389   6.475   3.392
12234TIP3   OH236646   4.381   5.101   5.664
12234TIP3    H136647   4.436   5.110   5.586
12234TIP3    H236648   4.397   5.180   5.714
12235TIP3   OH236649   6.048   6.337   6.080
12235TIP3    H136650   6.080   6.427   6.077
12235TIP3    H236651   6.045   6.316   6.173
12236TIP3   OH236652   4.831   3.826   3.195
12236TIP3    H136653   4.770   3.860   3.260
12236TIP3    H236654   4.775   3.787   3.127
12237TIP3   OH236655   7.860   1.084   2.973
12237TIP3    H136656   7.948   1.110   3.001
12237TIP3    H236657   7.801   1.138   3.027
12238TIP3   OH236658   5.324   3.176   3.992
12238TIP3    H136659   5.296   3.218   3.911
12238TIP3    H236660   5.389   3.111   3.964
12239TIP3   OH236661   0.076   5.802   5.525
12239TIP3    H136662  -0.020   5.804   5.524
12239TIP3    H236663   0.101   5.894   5.521
12240TIP3   OH236664   5.152   3.743   6.186
12240TIP3    H136665   5.241   3.740   6.150
12240TIP3    H236666   5.095   3.729   6.110
12241TIP3   OH236667   5.913   5.793   5.242
12241TIP3    H136668   5.898   5.728   5.173
12241TIP3    H236669   5.914   5.742   5.323
12242TIP3   OH236670   2.210   3.184   1.816
12242TIP3    H136671   2.273   3.120   1.783
12242TIP3    H236672   2.166   3.217   1.738
12243TIP3   OH236673   8.291   4.259   5.513
12243TIP3    H136674   8.301   4.262   5.417
12243TIP3    H236675   8.224   4.325   5.531
12244TIP3   OH236676   6.402   5.413   3.588
12244TIP3    H136677   6.452   5.479   3.540
12244TIP3    H236678   6.412   5.438   3.680
12245TIP3   OH236679   6.154   5.803   1.939
12245TIP3    H136680   6.068   5.845   1.944
12245TIP3    H236681   6.172   5.775   2.029
12246TIP3   OH236682   7.532   3.362   3.699
12246TIP3    H136683   7.606   3.309   3.730
12246TIP3    H236684   7.507   3.321   3.616
12247TIP3   OH236685   1.752   7.462   1.562
12247TIP3    H136686   1.726   7.394   1.624
12247TIP3    H236687   1.811   7.518   1.613
12248TIP3   OH236688   3.059   5.663  -0.009
12248TIP3    H136689   3.014   5.604   0.051
12248TIP3    H236690   3.133   5.698   0.041
12249TIP3   OH236691   2.498   5.032   6.506
12249TIP3    H136692   2.422   5.041   6.564
12249TIP3    H236693   2.483   4.950   6.459
12250TIP3   OH236694   4.604   0.972   0.267
12250TIP3    H136695   4.590   0.931   0.352
12250TIP3    H236696   4.592   0.902   0.203
12251TIP3   OH236697   3.442   0.409   0.090
12251TIP3    H136698   3.481   0.355   0.021
12251TIP3    H236699   3.501   0.399   0.165
12252TIP3   OH236700   4.739   2.678   0.980
12252TIP3    H136701   4.656   2.629   0.978
12252TIP3    H236702   4.798   2.623   1.031
12253TIP3   OH236703   1.729   5.618   2.802
12253TIP3    H136704   1.778   5.682   2.750
12253TIP3    H236705   1.794   5.581   2.862
12254TIP3   OH236706   6.115   1.460   3.271
12254TIP3    H136707   6.093   1.430   3.183
12254TIP3    H236708   6.032   1.486   3.310
12255TIP3   OH236709   4.492   5.476   4.594
12255TIP3    H136710   4.425   5.509   4.654
12255TIP3    H236711   4.572   5.475   4.647
12256TIP3   OH236712   1.236   2.561   5.352
12256TIP3    H136713   1.145   2.531   5.357
12256TIP3    H236714   1.287   2.485   5.380
12257TIP3   OH236715   6.197   7.445   5.463
12257TIP3    H136716   6.275   7.410   5.508
12257TIP3    H236717   6.123   7.412   5.514
12258TIP3   OH236718   4.952   4.990   3.032
12258TIP3    H136719   5.045   4.999   3.053
12258TIP3    H236720   4.908   5.001   3.116
12259TIP3   OH236721   6.994   0.681   3.475
12259TIP3    H136722   7.032   0.757   3.431
12259TIP3    H236723   6.915   0.661   3.425
12260TIP3   OH236724   6.350   0.135   0.512
12260TIP3    H136725   6.293   0.121   0.437
12260TIP3    H236726   6.362   0.230   0.516
12261TIP3   OH236727   0.851   0.345   5.775
12261TIP3    H136728   0.871   0.438   5.776
12261TIP3    H236729   0.932   0.303   5.745
12262TIP3   OH236730   4.118   0.809   2.293
12262TIP3    H136731   4.210   0.827   2.273
12262TIP3    H236732   4.101   0.724   2.253
12263TIP3   OH236733   5.103   0.820   1.606
12263TIP3    H136734   5.081   0.739   1.653
12263TIP3    H236735   5.054   0.888   1.651
12264TIP3   OH236736   2.923   5.271   6.458
12264TIP3    H136737   3.015   5.248   6.471
12264TIP3    H236738   2.875   5.190   6.473
12265TIP3   OH236739   5.941   4.842   2.306
12265TIP3    H136740   5.948   4.918   2.249
12265TIP3    H236741   5.899   4.876   2.385
12266TIP3   OH236742   3.095   4.460   4.200
12266TIP3    H136743   3.066   4.548   4.223
12266TIP3    H236744   3.174   4.473   4.148
12267TIP3   OH236745   5.882   7.496   6.671
12267TIP3    H136746   5.961   7.447   6.651
12267TIP3    H236747   5.863   7.545   6.590
12268TIP3   OH236748   0.893   6.123   3.288
12268TIP3    H136749   0.955   6.160   3.350
12268TIP3    H236750   0.920   6.158   3.203
12269TIP3   OH236751   6.889   3.236   4.291
12269TIP3    H136752   6.804   3.272   4.267
12269TIP3    H236753   6.872   3.180   4.366
12270TIP3   OH236754   2.883   0.505   2.181
12270TIP3    H136755   2.890   0.597   2.157
12270TIP3    H236756   2.915   0.457   2.105
12271TIP3   OH236757   7.240   2.193   3.595
12271TIP3    H136758   7.162   2.168   3.646
12271TIP3    H236759   7.209   2.262   3.537
12272TIP3   OH236760   0.112   1.237   3.593
12272TIP3    H136761   0.141   1.316   3.547
12272TIP3    H236762   0.192   1.202   3.631
12273TIP3   OH236763   0.184   0.248   0.392
12273TIP3    H136764   0.089   0.253   0.401
12273TIP3    H236765   0.202   0.293   0.309
12274TIP3   OH236766   7.605   4.884   0.986
12274TIP3    H136767   7.657   4.805   1.003
12274TIP3    H236768   7.525   4.870   1.036
12275TIP3   OH236769   4.983   0.355   5.974
12275TIP3    H136770   4.902   0.392   5.939
12275TIP3    H236771   4.957   0.318   6.059
12276TIP3   OH236772   2.815   5.609   3.711
12276TIP3    H136773   2.909   5.626   3.712
12276TIP3    H236774   2.783   5.648   3.792
12277TIP3   OH236775   7.693   0.288   0.115
12277TIP3    H136776   7.702   0.255   0.026
12277TIP3    H236777   7.633   0.363   0.106
12278TIP3   OH236778   5.724   4.547   1.823
12278TIP3    H136779   5.662   4.611   1.788
12278TIP3    H236780   5.808   4.570   1.783
12279TIP3   OH236781   6.249   0.166   0.246
12279TIP3    H136782   6.260   0.133   0.156
12279TIP3    H236783   6.235   0.260   0.235
12280TIP3   OH236784   6.609   5.158   6.750
12280TIP3    H136785   6.620   5.114   6.666
12280TIP3    H236786   6.613   5.088   6.815
12281TIP3   OH236787   6.452   7.289   1.327
12281TIP3    H136788   6.421   7.309   1.238
12281TIP3    H236789   6.396   7.340   1.384
12282TIP3   OH236790   4.475   4.595   1.008
12282TIP3    H136791   4.441   4.510   1.035
12282TIP3    H236792   4.437   4.657   1.070
12283TIP3   OH236793   5.555   3.033   0.709
12283TIP3    H136794   5.499   2.999   0.779
12283TIP3    H236795   5.503   3.023   0.629
12284TIP3   OH236796   6.506   1.902   4.529
12284TIP3    H136797   6.481   1.852   4.452
12284TIP3    H236798   6.487   1.993   4.506
12285TIP3   OH236799   5.646   5.175   4.781
12285TIP3    H136800   5.564   5.224   4.782
12285TIP3    H236801   5.697   5.215   4.711
12286TIP3   OH236802   7.389   6.313   3.380
12286TIP3    H136803   7.318   6.375   3.397
12286TIP3    H236804   7.457   6.335   3.444
12287TIP3   OH236805   1.313   3.668   3.078
12287TIP3    H136806   1.297   3.751   3.032
12287TIP3    H236807   1.388   3.630   3.034
12288TIP3   OH236808   3.358   1.670   1.852
12288TIP3    H136809   3.314   1.755   1.849
12288TIP3    H236810   3.450   1.690   1.869
12289TIP3   OH236811   2.934   3.060   1.591
12289TIP3    H136812   2.962   3.036   1.679
12289TIP3    H236813   2.911   3.152   1.597
12290TIP3   OH236814   1.523   4.545   2.010
12290TIP3    H136815   1.459   4.474   2.015
12290TIP3    H236816   1.570   4.531   1.928
12291TIP3   OH236817   5.715   4.805   1.424
12291TIP3    H136818   5.725   4.900   1.436
12291TIP3    H236819   5.791   4.767   1.468
12292TIP3   OH236820   1.291   3.762   1.162
12292TIP3    H136821   1.362   3.824   1.175
12292TIP3    H236822   1.218   3.797   1.213
12293TIP3   OH236823   5.600   5.946   2.160
12293TIP3    H136824   5.658   5.933   2.236
12293TIP3    H236825   5.543   6.018   2.186
12294TIP3   OH236826   4.127   0.405   2.612
12294TIP3    H136827   4.032   0.417   2.609
12294TIP3    H236828   4.162   0.480   2.564
12295TIP3   OH236829   6.871   6.899   6.465
12295TIP3    H136830   6.879   6.981   6.514
12295TIP3    H236831   6.959   6.883   6.430
12296TIP3   OH236832   1.975   7.585   3.990
12296TIP3    H136833   2.066   7.594   3.963
12296TIP3    H236834   1.930   7.656   3.943
12297TIP3   OH236835   4.103   2.980   4.852
12297TIP3    H136836   4.068   3.059   4.892
12297TIP3    H236837   4.067   2.980   4.763
12298TIP3   OH236838   3.429   2.885   6.344
12298TIP3    H136839   3.491   2.936   6.396
12298TIP3    H236840   3.435   2.924   6.256
12299TIP3   OH236841   2.272   7.754   0.536
12299TIP3    H136842   2.268   7.695   0.461
12299TIP3    H236843   2.309   7.835   0.502
12300TIP3   OH236844   7.936   0.144   6.335
12300TIP3    H136845   7.913   0.058   6.371
12300TIP3    H236846   7.899   0.206   6.397
12301TIP3   OH236847   2.965   0.662   5.930
12301TIP3    H136848   2.988   0.755   5.920
12301TIP3    H236849   2.884   0.653   5.879
12302TIP3   OH236850   8.165   1.329   6.309
12302TIP3    H136851   8.179   1.274   6.232
12302TIP3    H236852   8.121   1.271   6.371
12303TIP3   OH236853   3.339   6.503   3.872
12303TIP3    H136854   3.293   6.466   3.796
12303TIP3    H236855   3.274   6.504   3.942
12304TIP3   OH236856   0.985   5.953   0.262
12304TIP3    H136857   1.024   5.971   0.347
12304TIP3    H236858   0.982   5.857   0.257
12305TIP3   OH236859   2.233   1.139   2.500
12305TIP3    H136860   2.159   1.119   2.443
12305TIP3    H236861   2.271   1.054   2.522
12306TIP3   OH236862   3.280   4.193   1.637
12306TIP3    H136863   3.362   4.204   1.589
12306TIP3    H236864   3.272   4.098   1.647
12307TIP3   OH236865   2.700   3.954   1.956
12307TIP3    H136866   2.789   3.934   1.929
12307TIP3    H236867   2.681   4.040   1.918
12308TIP3   OH236868   1.792   5.534   4.255
12308TIP3    H136869   1.880   5.536   4.293
12308TIP3    H236870   1.751   5.616   4.283
12309TIP3   OH236871   5.434   0.693   0.137
12309TIP3    H136872   5.471   0.707   0.050
12309TIP3    H236873   5.509   0.696   0.196
12310TIP3   OH236874   5.889   5.900   1.768
12310TIP3    H136875   5.835   5.924   1.693
12310TIP3    H236876   5.827   5.891   1.841
12311TIP3   OH236877   1.381   5.427   6.600
12311TIP3    H136878   1.319   5.473   6.655
12311TIP3    H236879   1.459   5.417   6.655
12312TIP3   OH236880   3.238   4.183   1.283
12312TIP3    H136881   3.183   4.104   1.283
12312TIP3    H236882   3.319   4.155   1.324
12313TIP3   OH236883   3.882   0.700   2.614
12313TIP3    H136884   3.977   0.693   2.610
12313TIP3    H236885   3.867   0.786   2.654
12314TIP3   OH236886   1.425   6.148   4.279
12314TIP3    H136887   1.480   6.146   4.201
12314TIP3    H236888   1.337   6.167   4.246
12315TIP3   OH236889   2.277   7.561   2.353
12315TIP3    H136890   2.259   7.469   2.370
12315TIP3    H236891   2.359   7.561   2.305
12316TIP3   OH236892   6.372   6.263   1.172
12316TIP3    H136893   6.298   6.302   1.126
12316TIP3    H236894   6.350   6.272   1.264
12317TIP3   OH236895   3.581   0.859   0.800
12317TIP3    H136896   3.535   0.792   0.749
12317TIP3    H236897   3.511   0.907   0.844
12318TIP3   OH236898   1.597   6.430   1.399
12318TIP3    H136899   1.525   6.475   1.356
12318TIP3    H236900   1.617   6.485   1.475
12319TIP3   OH236901   3.908   1.479   0.510
12319TIP3    H136902   3.972   1.415   0.479
12319TIP3    H236903   3.895   1.458   0.602
12320TIP3   OH236904   4.023   6.294   3.243
12320TIP3    H136905   4.016   6.290   3.339
12320TIP3    H236906   3.954   6.355   3.216
12321TIP3   OH236907   0.394   7.776   4.051
12321TIP3    H136908   0.325   7.723   4.012
12321TIP3    H236909   0.450   7.713   4.098
12322TIP3   OH236910   5.122   7.607   0.681
12322TIP3    H136911   5.074   7.524   0.677
12322TIP3    H236912   5.097   7.653   0.601
12323TIP3   OH236913   7.223   4.432   6.153
12323TIP3    H136914   7.182   4.501   6.100
12323TIP3    H236915   7.163   4.358   6.146
12324TIP3   OH236916   3.172   0.636   4.259
12324TIP3    H136917   3.222   0.658   4.337
12324TIP3    H236918   3.236   0.639   4.188
12325TIP3   OH236919   3.682   0.244   2.932
12325TIP3    H136920   3.721   0.318   2.886
12325TIP3    H236921   3.734   0.169   2.903
12326TIP3   OH236922   4.129   1.791   2.732
12326TIP3    H136923   4.204   1.734   2.714
12326TIP3    H236924   4.076   1.787   2.653
12327TIP3   OH236925   0.393   3.464   4.171
12327TIP3    H136926   0.416   3.557   4.183
12327TIP3    H236927   0.407   3.425   4.256
12328TIP3   OH236928   1.867   4.193   6.309
12328TIP3    H136929   1.788   4.242   6.333
12328TIP3    H236930   1.844   4.101   6.325
12329TIP3   OH236931   4.147   2.260   5.608
12329TIP3    H136932   4.235   2.223   5.613
12329TIP3    H236933   4.149   2.315   5.529
12330TIP3   OH236934   4.604   0.513   2.587
12330TIP3    H136935   4.538   0.573   2.623
12330TIP3    H236936   4.574   0.426   2.615
12331TIP3   OH236937   6.144   0.976   2.019
12331TIP3    H136938   6.092   1.042   1.974
12331TIP3    H236939   6.131   0.896   1.968
12332TIP3   OH236940   4.919   3.092   2.100
12332TIP3    H136941   4.869   3.046   2.168
12332TIP3    H236942   4.912   3.185   2.124
12333TIP3   OH236943   6.025   7.191   4.921
12333TIP3    H136944   6.096   7.238   4.965
12333TIP3    H236945   5.966   7.166   4.992
12334TIP3   OH236946   4.128   7.339   6.718
12334TIP3    H136947   4.142   7.264   6.661
12334TIP3    H236948   4.166   7.413   6.670
12335TIP3   OH236949   4.137   2.280   2.306
12335TIP3    H136950   4.112   2.344   2.240
12335TIP3    H236951   4.232   2.268   2.294
12336TIP3   OH236952   5.593   1.086   6.275
12336TIP3    H136953   5.672   1.131   6.243
12336TIP3    H236954   5.521   1.132   6.232
12337TIP3   OH236955   7.033   3.837   6.740
12337TIP3    H136956   6.975   3.913   6.742
12337TIP3    H236957   7.065   3.833   6.650
12338TIP3   OH236958   7.359   7.389   2.263
12338TIP3    H136959   7.450   7.369   2.245
12338TIP3    H236960   7.355   7.485   2.266
12339TIP3   OH236961   3.945   6.808   4.071
12339TIP3    H136962   3.942   6.740   4.139
12339TIP3    H236963   3.892   6.772   4.000
12340TIP3   OH236964   2.763   5.344   2.373
12340TIP3    H136965   2.670   5.326   2.388
12340TIP3    H236966   2.764   5.431   2.334
12341TIP3   OH236967   1.637   6.490   6.290
12341TIP3    H136968   1.562   6.472   6.233
12341TIP3    H236969   1.599   6.532   6.367
12342TIP3   OH236970   6.522   2.258   6.503
12342TIP3    H136971   6.427   2.261   6.501
12342TIP3    H236972   6.543   2.193   6.570
12343TIP3   OH236973   6.684   3.571   1.068
12343TIP3    H136974   6.705   3.609   1.153
12343TIP3    H236975   6.589   3.562   1.069
12344TIP3   OH236976   3.460   6.495   6.571
12344TIP3    H136977   3.472   6.485   6.666
12344TIP3    H236978   3.397   6.426   6.548
12345TIP3   OH236979   3.440   6.421   0.867
12345TIP3    H136980   3.434   6.444   0.774
12345TIP3    H236981   3.426   6.326   0.869
12346TIP3   OH236982   0.822   5.775   1.229
12346TIP3    H136983   0.865   5.704   1.276
12346TIP3    H236984   0.811   5.741   1.140
12347TIP3   OH236985   4.926   1.584   3.232
12347TIP3    H136986   4.843   1.564   3.275
12347TIP3    H236987   4.938   1.678   3.244
12348TIP3   OH236988   3.693   6.568   0.819
12348TIP3    H136989   3.623   6.517   0.860
12348TIP3    H236990   3.722   6.514   0.745
12349TIP3   OH236991   0.103   3.804   4.342
12349TIP3    H136992   0.066   3.888   4.367
12349TIP3    H236993   0.104   3.806   4.246
12350TIP3   OH236994   2.875   1.704   6.110
12350TIP3    H136995   2.850   1.627   6.160
12350TIP3    H236996   2.798   1.762   6.115
12351TIP3   OH236997   4.832   2.396   2.726
12351TIP3    H136998   4.785   2.317   2.700
12351TIP3    H236999   4.883   2.369   2.802
12352TIP3   OH237000   4.057   6.326   2.860
12352TIP3    H137001   4.117   6.269   2.910
12352TIP3    H237002   4.094   6.326   2.772
12353TIP3   OH237003   0.997   3.230   1.421
12353TIP3    H137004   1.038   3.274   1.496
12353TIP3    H237005   1.054   3.155   1.402
12354TIP3   OH237006   8.068   4.022   3.976
12354TIP3    H137007   8.090   3.969   4.052
12354TIP3    H237008   7.983   3.988   3.946
12355TIP3   OH237009   8.158   1.462   0.813
12355TIP3    H137010   8.222   1.488   0.879
12355TIP3    H237011   8.185   1.373   0.788
12356TIP3   OH237012   0.871   0.637   3.185
12356TIP3    H137013   0.949   0.627   3.130
12356TIP3    H237014   0.897   0.600   3.270
12357TIP3   OH237015  -0.011   7.237   5.014
12357TIP3    H137016   0.082   7.256   5.025
12357TIP3    H237017  -0.017   7.142   5.025
12358TIP3   OH237018   0.341   3.713   5.772
12358TIP3    H137019   0.397   3.762   5.711
12358TIP3    H237020   0.350   3.622   5.746
12359TIP3   OH237021   0.400   7.550   5.481
12359TIP3    H137022   0.366   7.635   5.453
12359TIP3    H237023   0.355   7.486   5.426
12360TIP3   OH237024   8.106   3.772   0.016
12360TIP3    H137025   8.158   3.706   0.061
12360TIP3    H237026   8.141   3.772  -0.074
12361TIP3   OH237027   0.880   2.678   3.759
12361TIP3    H137028   0.821   2.681   3.684
12361TIP3    H237029   0.962   2.716   3.727
12362TIP3   OH237030   7.469   5.432   6.769
12362TIP3    H137031   7.531   5.397   6.705
12362TIP3    H237032   7.386   5.389   6.749
12363TIP3   OH237033   4.344   3.271   3.263
12363TIP3    H137034   4.383   3.290   3.348
12363TIP3    H237035   4.297   3.188   3.276
12364TIP3   OH237036   0.536   3.132   6.628
12364TIP3    H137037   0.593   3.055   6.627
12364TIP3    H237038   0.594   3.206   6.611
12365TIP3   OH237039   0.544   3.358   2.458
12365TIP3    H137040   0.523   3.302   2.383
12365TIP3    H237041   0.569   3.296   2.527
12366TIP3   OH237042   7.124   4.672   3.790
12366TIP3    H137043   7.210   4.669   3.747
12366TIP3    H237044   7.139   4.633   3.876
12367TIP3   OH237045   4.492   7.426   3.175
12367TIP3    H137046   4.442   7.477   3.239
12367TIP3    H237047   4.430   7.408   3.105
12368TIP3   OH237048   3.284   7.697   1.950
12368TIP3    H137049   3.373   7.732   1.948
12368TIP3    H237050   3.247   7.722   1.865
12369TIP3   OH237051   3.614   6.635   3.218
12369TIP3    H137052   3.548   6.595   3.274
12369TIP3    H237053   3.614   6.727   3.243
12370TIP3   OH237054   2.283   5.851   6.274
12370TIP3    H137055   2.248   5.768   6.242
12370TIP3    H237056   2.306   5.900   6.194
12371TIP3   OH237057   4.103   3.540   6.283
12371TIP3    H137058   4.182   3.520   6.334
12371TIP3    H237059   4.112   3.633   6.260
12372TIP3   OH237060   5.122   5.371   5.609
12372TIP3    H137061   5.114   5.466   5.615
12372TIP3    H237062   5.161   5.356   5.523
12373TIP3   OH237063   3.616   4.945   1.680
12373TIP3    H137064   3.660   4.881   1.624
12373TIP3    H237065   3.687   4.987   1.729
12374TIP3   OH237066   0.206   1.317   6.644
12374TIP3    H137067   0.194   1.335   6.551
12374TIP3    H237068   0.119   1.328   6.682
12375TIP3   OH237069   5.935   1.844   5.057
12375TIP3    H137070   5.948   1.867   5.149
12375TIP3    H237071   5.900   1.924   5.018
12376TIP3   OH237072   3.464   7.366   0.550
12376TIP3    H137073   3.467   7.452   0.593
12376TIP3    H237074   3.451   7.304   0.622
12377TIP3   OH237075   5.822   1.022   4.679
12377TIP3    H137076   5.746   0.965   4.673
12377TIP3    H237077   5.878   0.997   4.605
12378TIP3   OH237078   3.134   5.115   1.316
12378TIP3    H137079   3.142   5.057   1.241
12378TIP3    H237080   3.168   5.064   1.390
12379TIP3   OH237081   1.449   6.884   3.608
12379TIP3    H137082   1.365   6.866   3.650
12379TIP3    H237083   1.441   6.846   3.520
12380TIP3   OH237084   4.574   7.536   5.010
12380TIP3    H137085   4.630   7.458   5.015
12380TIP3    H237086   4.564   7.563   5.102
12381TIP3   OH237087   0.920   2.860   3.431
12381TIP3    H137088   0.976   2.876   3.507
12381TIP3    H237089   0.959   2.782   3.389
12382TIP3   OH237090   2.681   3.478   4.284
12382TIP3    H137091   2.631   3.403   4.253
12382TIP3    H237092   2.693   3.461   4.378
12383TIP3   OH237093   3.073   0.278   4.685
12383TIP3    H137094   2.993   0.289   4.632
12383TIP3    H237095   3.137   0.243   4.623
12384TIP3   OH237096   4.322   0.316   0.118
12384TIP3    H137097   4.348   0.322   0.026
12384TIP3    H237098   4.398   0.349   0.167
12385TIP3   OH237099   1.812   6.500   0.240
12385TIP3    H137100   1.854   6.466   0.161
12385TIP3    H237101   1.839   6.440   0.309
12386TIP3   OH237102   6.553   4.647   2.414
12386TIP3    H137103   6.490   4.662   2.344
12386TIP3    H237104   6.565   4.733   2.454
12387TIP3   OH237105   0.620   1.079   2.091
12387TIP3    H137106   0.642   1.053   2.180
12387TIP3    H237107   0.585   1.000   2.050
12388TIP3   OH237108   6.794   5.408   4.067
12388TIP3    H137109   6.792   5.424   3.973
12388TIP3    H237110   6.850   5.331   4.078
12389TIP3   OH237111   5.101   4.855   3.781
12389TIP3    H137112   5.157   4.840   3.705
12389TIP3    H237113   5.100   4.950   3.791
12390TIP3   OH237114   4.485   7.659   5.265
12390TIP3    H137115   4.395   7.662   5.298
12390TIP3    H237116   4.539   7.679   5.341
12391TIP3   OH237117   7.351   2.392   4.741
12391TIP3    H137118   7.343   2.324   4.808
12391TIP3    H237119   7.315   2.351   4.662
12392TIP3   OH237120   0.394   1.158   6.153
12392TIP3    H137121   0.303   1.174   6.128
12392TIP3    H237122   0.425   1.092   6.090
12393TIP3   OH237123   5.936   4.587   5.126
12393TIP3    H137124   5.882   4.593   5.047
12393TIP3    H237125   5.972   4.499   5.124
12394TIP3   OH237126   2.574   7.501   0.573
12394TIP3    H137127   2.630   7.478   0.647
12394TIP3    H237128   2.516   7.569   0.607
12395TIP3   OH237129   7.286   6.165   4.731
12395TIP3    H137130   7.296   6.247   4.780
12395TIP3    H237131   7.374   6.129   4.726
12396TIP3   OH237132   6.321   2.785   4.920
12396TIP3    H137133   6.309   2.877   4.943
12396TIP3    H237134   6.293   2.779   4.829
12397TIP3   OH237135   1.280   2.024   0.324
12397TIP3    H137136   1.323   1.975   0.394
12397TIP3    H237137   1.341   2.094   0.302
12398TIP3   OH237138   3.740   2.144   1.494
12398TIP3    H137139   3.667   2.183   1.541
12398TIP3    H237140   3.757   2.061   1.539
12399TIP3   OH237141   3.706   1.261   2.308
12399TIP3    H137142   3.781   1.271   2.368
12399TIP3    H237143   3.629   1.273   2.364
12400TIP3   OH237144   4.192   1.620   2.329
12400TIP3    H137145   4.167   1.580   2.246
12400TIP3    H237146   4.286   1.607   2.335
12401TIP3   OH237147   0.403   0.260   2.557
12401TIP3    H137148   0.374   0.325   2.493
12401TIP3    H237149   0.498   0.256   2.545
12402TIP3   OH237150   2.324   1.420   0.544
12402TIP3    H137151   2.299   1.473   0.468
12402TIP3    H237152   2.291   1.469   0.619
12403TIP3   OH237153   0.803   5.062   1.489
12403TIP3    H137154   0.887   5.021   1.507
12403TIP3    H237155   0.789   5.048   1.395
12404TIP3   OH237156   6.973   5.245   1.557
12404TIP3    H137157   6.974   5.262   1.651
12404TIP3    H237158   6.885   5.213   1.539
12405TIP3   OH237159   4.001   3.227   5.642
12405TIP3    H137160   4.033   3.310   5.676
12405TIP3    H237161   3.909   3.224   5.670
12406TIP3   OH237162   5.006   0.776   6.220
12406TIP3    H137163   4.956   0.712   6.170
12406TIP3    H237164   5.078   0.727   6.258
12407TIP3   OH237165   3.487   7.466   3.980
12407TIP3    H137166   3.522   7.448   4.068
12407TIP3    H237167   3.496   7.561   3.970
12408TIP3   OH237168   2.719   2.365   1.127
12408TIP3    H137169   2.804   2.332   1.097
12408TIP3    H237170   2.740   2.447   1.172
12409TIP3   OH237171   0.978   1.756   6.628
12409TIP3    H137172   1.010   1.777   6.540
12409TIP3    H237173   1.044   1.698   6.665
12410TIP3   OH237174   2.076   5.931   2.817
12410TIP3    H137175   1.991   5.974   2.805
12410TIP3    H237176   2.110   5.969   2.898
12411TIP3   OH237177   3.884   5.636   1.486
12411TIP3    H137178   3.843   5.717   1.515
12411TIP3    H237179   3.951   5.663   1.424
12412TIP3   OH237180   2.180   2.387   6.500
12412TIP3    H137181   2.217   2.448   6.563
12412TIP3    H237182   2.093   2.423   6.480
12413TIP3   OH237183   0.189   6.421   5.339
12413TIP3    H137184   0.156   6.333   5.354
12413TIP3    H237185   0.236   6.444   5.419
12414TIP3   OH237186   4.943   3.380   4.004
12414TIP3    H137187   4.907   3.296   3.978
12414TIP3    H237188   4.915   3.392   4.094
12415TIP3   OH237189   2.769   6.889   5.158
12415TIP3    H137190   2.862   6.891   5.135
12415TIP3    H237191   2.728   6.946   5.093
12416TIP3   OH237192   0.636   3.706   1.243
12416TIP3    H137193   0.550   3.674   1.214
12416TIP3    H237194   0.699   3.651   1.198
12417TIP3   OH237195   7.713   6.522   6.187
12417TIP3    H137196   7.668   6.595   6.229
12417TIP3    H237197   7.805   6.532   6.214
12418TIP3   OH237198   7.179   1.877   2.195
12418TIP3    H137199   7.208   1.957   2.238
12418TIP3    H237200   7.088   1.895   2.171
12419TIP3   OH237201   2.394   1.667   4.355
12419TIP3    H137202   2.380   1.630   4.268
12419TIP3    H237203   2.323   1.631   4.408
12420TIP3   OH237204   3.017   1.913   6.696
12420TIP3    H137205   3.111   1.905   6.678
12420TIP3    H237206   2.995   2.001   6.665
12421TIP3   OH237207   1.080   4.335   3.241
12421TIP3    H137208   1.008   4.328   3.179
12421TIP3    H237209   1.105   4.427   3.240
12422TIP3   OH237210   2.345   4.303   0.447
12422TIP3    H137211   2.370   4.394   0.463
12422TIP3    H237212   2.250   4.303   0.451
12423TIP3   OH237213   0.647   3.553   1.942
12423TIP3    H137214   0.690   3.590   2.019
12423TIP3    H237215   0.713   3.558   1.873
12424TIP3   OH237216   4.232   0.569   5.330
12424TIP3    H137217   4.268   0.568   5.241
12424TIP3    H237218   4.158   0.630   5.325
12425TIP3   OH237219   5.720   1.561   3.065
12425TIP3    H137220   5.734   1.651   3.094
12425TIP3    H237221   5.663   1.523   3.132
12426TIP3   OH237222   1.009   6.457   6.573
12426TIP3    H137223   0.944   6.394   6.541
12426TIP3    H237224   1.093   6.423   6.541
12427TIP3   OH237225   4.548   5.935   5.826
12427TIP3    H137226   4.466   5.968   5.861
12427TIP3    H237227   4.603   6.013   5.817
12428TIP3   OH237228   6.928   6.134   0.621
12428TIP3    H137229   6.866   6.167   0.557
12428TIP3    H237230   6.876   6.119   0.700
12429TIP3   OH237231   1.465   5.733   0.453
12429TIP3    H137232   1.456   5.795   0.381
12429TIP3    H237233   1.543   5.682   0.432
12430TIP3   OH237234   1.830   0.773   2.422
12430TIP3    H137235   1.851   0.812   2.507
12430TIP3    H237236   1.886   0.819   2.360
12431TIP3   OH237237   6.590   3.365   4.390
12431TIP3    H137238   6.533   3.289   4.400
12431TIP3    H237239   6.557   3.412   4.314
12432TIP3   OH237240   3.666   5.239   2.176
12432TIP3    H137241   3.714   5.307   2.129
12432TIP3    H237242   3.598   5.211   2.114
12433TIP3   OH237243   2.554   6.724   2.012
12433TIP3    H137244   2.471   6.697   2.049
12433TIP3    H237245   2.604   6.643   2.002
12434TIP3   OH237246   1.721   6.363   6.617
12434TIP3    H137247   1.665   6.416   6.561
12434TIP3    H237248   1.660   6.308   6.666
12435TIP3   OH237249   7.739   5.037   0.784
12435TIP3    H137250   7.733   4.954   0.831
12435TIP3    H237251   7.817   5.079   0.821
12436TIP3   OH237252   5.386   6.354   1.381
12436TIP3    H137253   5.416   6.373   1.470
12436TIP3    H237254   5.453   6.393   1.325
12437TIP3   OH237255   2.458   1.502   0.263
12437TIP3    H137256   2.461   1.420   0.313
12437TIP3    H237257   2.429   1.476   0.176
12438TIP3   OH237258   6.829   3.795   2.718
12438TIP3    H137259   6.828   3.820   2.626
12438TIP3    H237260   6.888   3.720   2.722
12439TIP3   OH237261   7.195   1.926   2.541
12439TIP3    H137262   7.222   1.888   2.625
12439TIP3    H237263   7.146   1.856   2.498
12440TIP3   OH237264   8.044   0.614   4.409
12440TIP3    H137265   8.065   0.706   4.424
12440TIP3    H237266   8.048   0.604   4.314
12441TIP3   OH237267   0.531   3.642   4.819
12441TIP3    H137268   0.486   3.718   4.781
12441TIP3    H237269   0.600   3.621   4.756
12442TIP3   OH237270   8.031   4.903   0.597
12442TIP3    H137271   8.012   4.983   0.646
12442TIP3    H237272   8.110   4.922   0.547
12443TIP3   OH237273   7.682   1.754   4.496
12443TIP3    H137274   7.631   1.739   4.576
12443TIP3    H237275   7.724   1.669   4.479
12444TIP3   OH237276   0.521   5.207   0.359
12444TIP3    H137277   0.561   5.163   0.284
12444TIP3    H237278   0.540   5.300   0.346
12445TIP3   OH237279   6.574   3.434   3.753
12445TIP3    H137280   6.543   3.486   3.679
12445TIP3    H237281   6.665   3.414   3.732
12446TIP3   OH237282   6.376   2.242   2.134
12446TIP3    H137283   6.413   2.226   2.221
12446TIP3    H237284   6.285   2.266   2.150
12447TIP3   OH237285   1.136   7.497   3.312
12447TIP3    H137286   1.120   7.410   3.349
12447TIP3    H237287   1.219   7.488   3.266
12448TIP3   OH237288   0.365   7.137   1.025
12448TIP3    H137289   0.296   7.102   1.081
12448TIP3    H237290   0.319   7.175   0.950
12449TIP3   OH237291   6.962   4.264   2.686
12449TIP3    H137292   6.997   4.338   2.734
12449TIP3    H237293   6.937   4.201   2.754
12450TIP3   OH237294   7.547   2.462   0.188
12450TIP3    H137295   7.539   2.449   0.093
12450TIP3    H237296   7.550   2.557   0.199
12451TIP3   OH237297   6.090   5.149   6.141
12451TIP3    H137298   6.034   5.181   6.070
12451TIP3    H237299   6.146   5.224   6.162
12452TIP3   OH237300   7.816   2.005   1.056
12452TIP3    H137301   7.789   2.004   1.148
12452TIP3    H237302   7.785   1.922   1.020
12453TIP3   OH237303   5.907   0.933   4.422
12453TIP3    H137304   5.881   1.010   4.372
12453TIP3    H237305   5.998   0.950   4.448
12454TIP3   OH237306   6.588   4.984   6.533
12454TIP3    H137307   6.597   5.010   6.441
12454TIP3    H237308   6.663   4.927   6.549
12455TIP3   OH237309   1.332   4.749   2.747
12455TIP3    H137310   1.377   4.832   2.730
12455TIP3    H237311   1.254   4.752   2.692
12456TIP3   OH237312   7.509   6.445   5.990
12456TIP3    H137313   7.511   6.351   5.972
12456TIP3    H237314   7.587   6.461   6.043
12457TIP3   OH237315   2.233   4.279   4.515
12457TIP3    H137316   2.319   4.276   4.557
12457TIP3    H237317   2.209   4.187   4.504
12458TIP3   OH237318   0.240   0.601   4.321
12458TIP3    H137319   0.299   0.673   4.344
12458TIP3    H237320   0.242   0.543   4.398
12459TIP3   OH237321   3.574   1.980   0.445
12459TIP3    H137322   3.498   2.018   0.401
12459TIP3    H237323   3.549   1.889   0.462
12460TIP3   OH237324  -0.027   3.562   5.757
12460TIP3    H137325   0.020   3.522   5.684
12460TIP3    H237326   0.037   3.565   5.828
12461TIP3   OH237327   7.109   5.888   0.463
12461TIP3    H137328   7.123   5.854   0.374
12461TIP3    H237329   7.041   5.832   0.499
12462TIP3   OH237330   5.430   2.487   0.375
12462TIP3    H137331   5.435   2.465   0.282
12462TIP3    H237332   5.447   2.581   0.379
12463TIP3   OH237333   2.580   4.676   2.528
12463TIP3    H137334   2.513   4.695   2.463
12463TIP3    H237335   2.532   4.634   2.600
12464TIP3   OH237336   8.280   6.146   2.384
12464TIP3    H137337   8.290   6.051   2.385
12464TIP3    H237338   8.247   6.165   2.296
12465TIP3   OH237339   7.675   5.589   4.132
12465TIP3    H137340   7.682   5.519   4.067
12465TIP3    H237341   7.731   5.560   4.204
12466TIP3   OH237342   1.082   6.060   5.360
12466TIP3    H137343   1.034   6.062   5.443
12466TIP3    H237344   1.170   6.032   5.384
12467TIP3   OH237345   0.966   2.662   0.651
12467TIP3    H137346   0.985   2.753   0.671
12467TIP3    H237347   0.955   2.659   0.556
12468TIP3   OH237348   8.170   4.118   1.961
12468TIP3    H137349   8.123   4.034   1.954
12468TIP3    H237350   8.143   4.167   1.883
12469TIP3   OH237351   6.864   5.674   4.478
12469TIP3    H137352   6.806   5.679   4.555
12469TIP3    H237353   6.836   5.746   4.422
12470TIP3   OH237354   0.561   3.393   6.447
12470TIP3    H137355   0.573   3.396   6.352
12470TIP3    H237356   0.495   3.460   6.465
12471TIP3   OH237357   5.934   3.741   6.209
12471TIP3    H137358   5.883   3.716   6.286
12471TIP3    H237359   6.015   3.776   6.246
12472TIP3   OH237360   2.478   0.876   2.428
12472TIP3    H137361   2.458   0.796   2.476
12472TIP3    H237362   2.561   0.906   2.463
12473TIP3   OH237363   2.673   3.077   4.903
12473TIP3    H137364   2.729   3.084   4.826
12473TIP3    H237365   2.623   3.159   4.903
12474TIP3   OH237366   6.523   7.509   3.654
12474TIP3    H137367   6.522   7.602   3.678
12474TIP3    H237368   6.595   7.472   3.704
12475TIP3   OH237369   6.922   0.732   1.922
12475TIP3    H137370   6.927   0.769   1.834
12475TIP3    H237371   6.854   0.784   1.966
12476TIP3   OH237372   8.162   3.684   1.216
12476TIP3    H137373   8.114   3.758   1.179
12476TIP3    H237374   8.094   3.623   1.244
12477TIP3   OH237375   4.188   3.786   4.754
12477TIP3    H137376   4.239   3.706   4.742
12477TIP3    H237377   4.251   3.857   4.738
12478TIP3   OH237378   4.134   1.009   1.590
12478TIP3    H137379   4.202   1.031   1.527
12478TIP3    H237380   4.149   1.068   1.664
12479TIP3   OH237381   2.000   5.067   0.700
12479TIP3    H137382   2.002   5.003   0.629
12479TIP3    H237383   1.998   5.152   0.655
12480TIP3   OH237384   4.976   4.844   0.621
12480TIP3    H137385   5.013   4.910   0.562
12480TIP3    H237386   4.881   4.853   0.611
12481TIP3   OH237387   2.737   6.159   2.368
12481TIP3    H137388   2.764   6.143   2.459
12481TIP3    H237389   2.819   6.166   2.320
12482TIP3   OH237390   4.503   6.659   6.034
12482TIP3    H137391   4.488   6.689   5.944
12482TIP3    H237392   4.442   6.586   6.045
12483TIP3   OH237393   2.378   1.347   3.262
12483TIP3    H137394   2.388   1.343   3.167
12483TIP3    H237395   2.461   1.314   3.297
12484TIP3   OH237396   5.937   6.723   4.209
12484TIP3    H137397   5.864   6.723   4.148
12484TIP3    H237398   6.005   6.671   4.167
12485TIP3   OH237399   3.555   1.354   5.092
12485TIP3    H137400   3.620   1.305   5.142
12485TIP3    H237401   3.603   1.386   5.015
12486TIP3   OH237402   1.014   1.652   1.239
12486TIP3    H137403   1.072   1.694   1.176
12486TIP3    H237404   0.927   1.685   1.217
12487TIP3   OH237405   1.290   4.372   2.044
12487TIP3    H137406   1.253   4.384   1.957
12487TIP3    H237407   1.267   4.282   2.068
12488TIP3   OH237408   7.349   0.071   1.721
12488TIP3    H137409   7.334  -0.011   1.675
12488TIP3    H237410   7.270   0.123   1.705
12489TIP3   OH237411   4.271   3.818   5.646
12489TIP3    H137412   4.206   3.887   5.634
12489TIP3    H237413   4.259   3.761   5.569
12490TIP3   OH237414   6.602   1.365   0.942
12490TIP3    H137415   6.523   1.314   0.960
12490TIP3    H237416   6.575   1.456   0.956
12491TIP3   OH237417   7.208   0.563   2.812
12491TIP3    H137418   7.227   0.482   2.764
12491TIP3    H237419   7.203   0.631   2.744
12492TIP3   OH237420   7.919   5.750   0.879
12492TIP3    H137421   7.878   5.669   0.910
12492TIP3    H237422   7.993   5.721   0.826
12493TIP3   OH237423   5.481   0.172   0.927
12493TIP3    H137424   5.398   0.214   0.903
12493TIP3    H237425   5.495   0.197   1.019
12494TIP3   OH237426   4.080   3.068   1.336
12494TIP3    H137427   4.163   3.073   1.384
12494TIP3    H237428   4.057   2.975   1.338
12495TIP3   OH237429   3.803   1.880   4.118
12495TIP3    H137430   3.822   1.787   4.106
12495TIP3    H237431   3.837   1.922   4.039
12496TIP3   OH237432   2.981   2.788   3.152
12496TIP3    H137433   2.931   2.777   3.071
12496TIP3    H237434   3.047   2.719   3.149
12497TIP3   OH237435   7.432   7.601   4.765
12497TIP3    H137436   7.482   7.564   4.838
12497TIP3    H237437   7.344   7.564   4.775
12498TIP3   OH237438   6.587   7.131   6.131
12498TIP3    H137439   6.632   7.053   6.163
12498TIP3    H237440   6.506   7.098   6.092
12499TIP3   OH237441   3.403   5.167   4.624
12499TIP3    H137442   3.337   5.188   4.559
12499TIP3    H237443   3.486   5.167   4.575
12500TIP3   OH237444   4.663   6.192   5.127
12500TIP3    H137445   4.746   6.163   5.163
12500TIP3    H237446   4.610   6.112   5.121
12501TIP3   OH237447   7.405   5.590   2.938
12501TIP3    H137448   7.312   5.587   2.959
12501TIP3    H237449   7.420   5.679   2.907
12502TIP3   OH237450   5.014   5.402   4.220
12502TIP3    H137451   4.964   5.332   4.179
12502TIP3    H237452   5.037   5.460   4.147
12503TIP3   OH237453   3.590   4.021   0.943
12503TIP3    H137454   3.636   3.940   0.965
12503TIP3    H237455   3.617   4.083   1.011
12504TIP3   OH237456   4.815   4.673   4.728
12504TIP3    H137457   4.754   4.708   4.662
12504TIP3    H237458   4.849   4.593   4.688
12505TIP3   OH237459   4.340   0.082   0.904
12505TIP3    H137460   4.310   0.145   0.838
12505TIP3    H237461   4.321  -0.004   0.866
12506TIP3   OH237462   2.067   4.727   0.279
12506TIP3    H137463   2.024   4.648   0.245
12506TIP3    H237464   2.108   4.767   0.202
12507TIP3   OH237465   0.922   1.401   1.815
12507TIP3    H137466   0.928   1.418   1.721
12507TIP3    H237467   1.001   1.439   1.852
12508TIP3   OH237468   5.666   7.304   6.212
12508TIP3    H137469   5.612   7.377   6.182
12508TIP3    H237470   5.647   7.297   6.306
12509TIP3   OH237471   8.003   0.116   5.851
12509TIP3    H137472   8.009   0.075   5.937
12509TIP3    H237473   8.058   0.194   5.858
12510TIP3   OH237474   5.736   2.560   4.443
12510TIP3    H137475   5.654   2.603   4.468
12510TIP3    H237476   5.804   2.624   4.464
12511TIP3   OH237477   0.176   6.187   3.059
12511TIP3    H137478   0.207   6.107   3.100
12511TIP3    H237479   0.192   6.256   3.123
12512TIP3   OH237480   6.659   3.506   6.699
12512TIP3    H137481   6.566   3.502   6.678
12512TIP3    H237482   6.689   3.588   6.660
12513TIP3   OH237483   4.074   3.540   0.128
12513TIP3    H137484   4.026   3.619   0.103
12513TIP3    H237485   4.139   3.570   0.191
12514TIP3   OH237486   3.437   4.348   5.772
12514TIP3    H137487   3.512   4.308   5.729
12514TIP3    H237488   3.474   4.396   5.846
12515TIP3   OH237489   2.368   0.890   0.595
12515TIP3    H137490   2.449   0.849   0.624
12515TIP3    H237491   2.362   0.867   0.502
12516TIP3   OH237492   5.971  -0.014   2.218
12516TIP3    H137493   5.970   0.081   2.229
12516TIP3    H237494   5.972  -0.026   2.123
12517TIP3   OH237495   0.998   4.447   2.281
12517TIP3    H137496   0.960   4.437   2.368
12517TIP3    H237497   0.923   4.457   2.222
12518TIP3   OH237498   4.003   4.834   5.204
12518TIP3    H137499   3.980   4.777   5.131
12518TIP3    H237500   3.956   4.798   5.279
12519TIP3   OH237501   5.705   0.071   5.042
12519TIP3    H137502   5.652  -0.003   5.014
12519TIP3    H237503   5.755   0.095   4.964
12520TIP3   OH237504   7.133   3.513   3.274
12520TIP3    H137505   7.110   3.524   3.367
12520TIP3    H237506   7.135   3.602   3.240
12521TIP3   OH237507   3.130   5.982   2.591
12521TIP3    H137508   3.094   6.021   2.512
12521TIP3    H237509   3.222   6.009   2.592
12522TIP3   OH237510   2.997   3.046   3.287
12522TIP3    H137511   3.041   3.104   3.225
12522TIP3    H237512   3.014   2.958   3.253
12523TIP3   OH237513   0.263   7.462   2.282
12523TIP3    H137514   0.305   7.490   2.363
12523TIP3    H237515   0.212   7.385   2.306
12524TIP3   OH237516   3.271   6.362   5.217
12524TIP3    H137517   3.212   6.299   5.176
12524TIP3    H237518   3.238   6.447   5.190
12525TIP3   OH237519   4.790   5.704   4.689
12525TIP3    H137520   4.860   5.716   4.752
12525TIP3    H237521   4.790   5.610   4.670
12526TIP3   OH237522   0.072   3.284   6.287
12526TIP3    H137523   0.101   3.376   6.290
12526TIP3    H237524   0.026   3.271   6.370
12527TIP3   OH237525   5.298   4.791   4.371
12527TIP3    H137526   5.219   4.838   4.346
12527TIP3    H237527   5.308   4.809   4.464
12528TIP3   OH237528   6.523   1.043   1.672
12528TIP3    H137529   6.511   0.954   1.639
12528TIP3    H237530   6.583   1.033   1.746
12529TIP3   OH237531   1.505   4.069   1.855
12529TIP3    H137532   1.482   4.128   1.784
12529TIP3    H237533   1.516   4.126   1.931
12530TIP3   OH237534   0.313   4.439   0.588
12530TIP3    H137535   0.232   4.389   0.595
12530TIP3    H237536   0.347   4.417   0.501
12531TIP3   OH237537   4.063   6.355   1.766
12531TIP3    H137538   4.031   6.331   1.679
12531TIP3    H237539   4.030   6.444   1.780
12532TIP3   OH237540   6.559   4.822   5.064
12532TIP3    H137541   6.515   4.904   5.043
12532TIP3    H237542   6.584   4.786   4.978
12533TIP3   OH237543   4.219   2.960   2.019
12533TIP3    H137544   4.217   2.967   2.115
12533TIP3    H237545   4.272   3.034   1.990
12534TIP3   OH237546   8.072   4.324   1.053
12534TIP3    H137547   8.081   4.417   1.034
12534TIP3    H237548   8.096   4.281   0.970
12535TIP3   OH237549   8.170   5.135   2.893
12535TIP3    H137550   8.186   5.052   2.849
12535TIP3    H237551   8.118   5.186   2.831
12536TIP3   OH237552   2.987   7.599   2.744
12536TIP3    H137553   2.998   7.658   2.670
12536TIP3    H237554   3.007   7.512   2.708
12537TIP3   OH237555   2.745   4.579   0.538
12537TIP3    H137556   2.716   4.497   0.578
12537TIP3    H237557   2.808   4.552   0.471
12538TIP3   OH237558   1.580   3.999   2.659
12538TIP3    H137559   1.544   4.058   2.592
12538TIP3    H237560   1.637   4.054   2.712
12539TIP3   OH237561   1.667   2.157   4.128
12539TIP3    H137562   1.755   2.192   4.136
12539TIP3    H237563   1.630   2.163   4.217
12540TIP3   OH237564   3.001   4.316   5.122
12540TIP3    H137565   2.937   4.255   5.084
12540TIP3    H237566   2.991   4.396   5.071
12541TIP3   OH237567   7.263   2.564   1.731
12541TIP3    H137568   7.169   2.566   1.750
12541TIP3    H237569   7.279   2.476   1.696
12542TIP3   OH237570   4.137   2.732   0.184
12542TIP3    H137571   4.226   2.704   0.163
12542TIP3    H237572   4.112   2.790   0.112
12543TIP3   OH237573   0.945   3.664   4.863
12543TIP3    H137574   0.920   3.623   4.946
12543TIP3    H237575   1.013   3.606   4.828
12544TIP3   OH237576   0.947   5.906   0.977
12544TIP3    H137577   0.898   5.825   0.963
12544TIP3    H237578   0.984   5.897   1.065
12545TIP3   OH237579   1.975   3.091   6.430
12545TIP3    H137580   1.881   3.084   6.417
12545TIP3    H237581   2.003   3.004   6.458
12546TIP3   OH237582   5.404   1.235   5.905
12546TIP3    H137583   5.492   1.266   5.880
12546TIP3    H237584   5.407   1.229   6.000
12547TIP3   OH237585   7.853   0.976   0.346
12547TIP3    H137586   7.885   1.043   0.285
12547TIP3    H237587   7.908   0.987   0.424
12548TIP3   OH237588   4.248   0.822   3.756
12548TIP3    H137589   4.317   0.879   3.790
12548TIP3    H237590   4.194   0.879   3.701
12549TIP3   OH237591   1.990   2.085   6.286
12549TIP3    H137592   2.060   2.141   6.319
12549TIP3    H237593   1.965   2.031   6.361
12550TIP3   OH237594   3.244   6.406   0.182
12550TIP3    H137595   3.283   6.377   0.264
12550TIP3    H237596   3.262   6.334   0.121
12551TIP3   OH237597   7.327   6.987   6.139
12551TIP3    H137598   7.276   6.927   6.085
12551TIP3    H237599   7.356   7.055   6.079
12552TIP3   OH237600   5.289   5.279   5.409
12552TIP3    H137601   5.347   5.356   5.402
12552TIP3    H237602   5.348   5.206   5.425
12553TIP3   OH237603   2.194   2.113   6.622
12553TIP3    H137604   2.137   2.122   6.698
12553TIP3    H237605   2.218   2.203   6.599
12554TIP3   OH237606   2.037   5.211   3.617
12554TIP3    H137607   2.028   5.125   3.576
12554TIP3    H237608   2.017   5.195   3.710
12555TIP3   OH237609   4.833   0.604   6.131
12555TIP3    H137610   4.848   0.519   6.171
12555TIP3    H237611   4.787   0.583   6.049
12556TIP3   OH237612   8.274   6.037   6.718
12556TIP3    H137613   8.281   5.942   6.726
12556TIP3    H237614   8.208   6.050   6.650
12557TIP3   OH237615   6.444   5.875   1.606
12557TIP3    H137616   6.523   5.895   1.657
12557TIP3    H237617   6.424   5.957   1.561
12558TIP3   OH237618   2.016   2.206   4.733
12558TIP3    H137619   1.926   2.190   4.762
12558TIP3    H237620   2.070   2.165   4.800
12559TIP3   OH237621   6.382   4.014   4.943
12559TIP3    H137622   6.297   4.050   4.968
12559TIP3    H237623   6.430   4.008   5.026
12560TIP3   OH237624   3.320   4.829   1.211
12560TIP3    H137625   3.388   4.808   1.275
12560TIP3    H237626   3.356   4.901   1.160
12561TIP3   OH237627   1.227   5.197   2.296
12561TIP3    H137628   1.145   5.225   2.337
12561TIP3    H237629   1.204   5.177   2.206
12562TIP3   OH237630   1.752   1.011   5.596
12562TIP3    H137631   1.747   0.928   5.547
12562TIP3    H237632   1.752   1.079   5.528
12563TIP3   OH237633   3.434   1.663   3.695
12563TIP3    H137634   3.449   1.632   3.784
12563TIP3    H237635   3.503   1.728   3.680
12564TIP3   OH237636   1.327   3.578   0.727
12564TIP3    H137637   1.324   3.539   0.814
12564TIP3    H237638   1.263   3.649   0.731
12565TIP3   OH237639   1.372   1.538   1.013
12565TIP3    H137640   1.465   1.532   0.993
12565TIP3    H237641   1.368   1.596   1.089
12566TIP3   OH237642   8.161   3.354   2.656
12566TIP3    H137643   8.128   3.414   2.722
12566TIP3    H237644   8.256   3.363   2.661
12567TIP3   OH237645   0.249   4.442   4.028
12567TIP3    H137646   0.251   4.468   4.120
12567TIP3    H237647   0.190   4.504   3.987
12568TIP3   OH237648   3.956   3.484   1.014
12568TIP3    H137649   3.869   3.490   1.053
12568TIP3    H237650   3.999   3.411   1.059
12569TIP3   OH237651   2.440   3.221   5.150
12569TIP3    H137652   2.346   3.235   5.153
12569TIP3    H237653   2.468   3.222   5.241
12570TIP3   OH237654   4.357   7.701   1.785
12570TIP3    H137655   4.295   7.630   1.801
12570TIP3    H237656   4.333   7.769   1.848
12571TIP3   OH237657   5.156   6.163   4.516
12571TIP3    H137658   5.080   6.211   4.549
12571TIP3    H237659   5.127   6.129   4.431
12572TIP3   OH237660   1.004   2.153   5.335
12572TIP3    H137661   1.080   2.123   5.384
12572TIP3    H237662   1.018   2.247   5.324
12573TIP3   OH237663   2.635   1.258   3.255
12573TIP3    H137664   2.661   1.315   3.182
12573TIP3    H237665   2.712   1.205   3.273
12574TIP3   OH237666   6.423   2.178   5.177
12574TIP3    H137667   6.380   2.224   5.105
12574TIP3    H237668   6.473   2.109   5.134
12575TIP3   OH237669   2.148   7.595   0.983
12575TIP3    H137670   2.208   7.537   1.031
12575TIP3    H237671   2.101   7.536   0.925
12576TIP3   OH237672   5.181   4.228   1.351
12576TIP3    H137673   5.135   4.310   1.335
12576TIP3    H237674   5.224   4.208   1.267
12577TIP3   OH237675   2.641   6.653   2.307
12577TIP3    H137676   2.696   6.717   2.259
12577TIP3    H237677   2.552   6.687   2.298
12578TIP3   OH237678   4.794   4.347   3.556
12578TIP3    H137679   4.783   4.439   3.533
12578TIP3    H237680   4.796   4.302   3.471
12579TIP3   OH237681   6.999   5.430   3.340
12579TIP3    H137682   6.963   5.517   3.355
12579TIP3    H237683   7.090   5.437   3.370
12580TIP3   OH237684   7.391   5.970   2.263
12580TIP3    H137685   7.343   5.975   2.180
12580TIP3    H237686   7.481   5.995   2.241
12581TIP3   OH237687   4.319   1.816   0.810
12581TIP3    H137688   4.366   1.746   0.765
12581TIP3    H237689   4.380   1.846   0.877
12582TIP3   OH237690   2.313   7.678   6.528
12582TIP3    H137691   2.313   7.624   6.449
12582TIP3    H237692   2.265   7.627   6.593
12583TIP3   OH237693   2.295   2.600   2.490
12583TIP3    H137694   2.323   2.575   2.578
12583TIP3    H237695   2.369   2.578   2.434
12584TIP3   OH237696   3.068   0.550   1.902
12584TIP3    H137697   3.012   0.616   1.862
12584TIP3    H237698   3.112   0.596   1.974
12585TIP3   OH237699   7.510   5.786   0.395
12585TIP3    H137700   7.505   5.881   0.404
12585TIP3    H237701   7.471   5.752   0.475
12586TIP3   OH237702   6.625   1.476   3.703
12586TIP3    H137703   6.530   1.472   3.717
12586TIP3    H237704   6.639   1.426   3.622
12587TIP3   OH237705   0.924   4.402   4.622
12587TIP3    H137706   1.003   4.354   4.647
12587TIP3    H237707   0.853   4.338   4.631
12588TIP3   OH237708   7.823   0.146   4.408
12588TIP3    H137709   7.868   0.062   4.400
12588TIP3    H237710   7.777   0.156   4.325
12589TIP3   OH237711   8.055   4.317   4.338
12589TIP3    H137712   8.091   4.405   4.351
12589TIP3    H237713   8.128   4.267   4.300
12590TIP3   OH237714   0.476   1.977   5.353
12590TIP3    H137715   0.559   1.978   5.400
12590TIP3    H237716   0.478   2.057   5.300
12591TIP3   OH237717   0.566   2.864   1.285
12591TIP3    H137718   0.555   2.806   1.209
12591TIP3    H237719   0.655   2.897   1.278
12592TIP3   OH237720   6.055   2.803   4.279
12592TIP3    H137721   5.986   2.746   4.313
12592TIP3    H237722   6.087   2.851   4.356
12593TIP3   OH237723   6.987   6.485   5.252
12593TIP3    H137724   6.975   6.478   5.157
12593TIP3    H237725   6.905   6.523   5.284
12594TIP3   OH237726   0.961   5.741   4.857
12594TIP3    H137727   1.041   5.695   4.886
12594TIP3    H237728   0.968   5.827   4.897
12595TIP3   OH237729   2.269   3.386   0.557
12595TIP3    H137730   2.305   3.475   0.554
12595TIP3    H237731   2.326   3.334   0.500
12596TIP3   OH237732   1.118   2.327   2.942
12596TIP3    H137733   1.194   2.294   2.894
12596TIP3    H237734   1.092   2.255   3.000
12597TIP3   OH237735   6.845   6.101   6.585
12597TIP3    H137736   6.844   6.175   6.646
12597TIP3    H237737   6.781   6.040   6.621
12598TIP3   OH237738   6.961   0.198   6.091
12598TIP3    H137739   7.021   0.169   6.159
12598TIP3    H237740   6.893   0.246   6.138
12599TIP3   OH237741   6.597   6.168   4.293
12599TIP3    H137742   6.644   6.105   4.348
12599TIP3    H237743   6.663   6.202   4.233
12600TIP3   OH237744   5.659   3.268   1.568
12600TIP3    H137745   5.678   3.326   1.495
12600TIP3    H237746   5.565   3.250   1.560
12601TIP3   OH237747   2.625   2.465   4.895
12601TIP3    H137748   2.682   2.485   4.970
12601TIP3    H237749   2.667   2.391   4.852
12602TIP3   OH237750   1.702   2.860   1.501
12602TIP3    H137751   1.689   2.879   1.408
12602TIP3    H237752   1.723   2.945   1.540
12603TIP3   OH237753   3.444   1.750   3.121
12603TIP3    H137754   3.430   1.662   3.156
12603TIP3    H237755   3.530   1.776   3.155
12604TIP3   OH237756   8.312   3.489   1.701
12604TIP3    H137757   8.334   3.578   1.730
12604TIP3    H237758   8.224   3.496   1.664
12605TIP3   OH237759   3.795   4.830   4.489
12605TIP3    H137760   3.870   4.849   4.432
12605TIP3    H237761   3.767   4.743   4.463
12606TIP3   OH237762   5.183   3.030   4.195
12606TIP3    H137763   5.156   3.086   4.268
12606TIP3    H237764   5.252   3.080   4.151
12607TIP3   OH237765   0.567   5.010   6.609
12607TIP3    H137766   0.603   5.056   6.533
12607TIP3    H237767   0.639   5.004   6.671
12608TIP3   OH237768   1.401   7.366   2.283
12608TIP3    H137769   1.485   7.394   2.249
12608TIP3    H237770   1.369   7.302   2.219
12609TIP3   OH237771   4.184   0.956   3.108
12609TIP3    H137772   4.192   0.906   3.026
12609TIP3    H237773   4.103   1.006   3.097
12610TIP3   OH237774   6.532   6.451   6.000
12610TIP3    H137775   6.497   6.477   6.085
12610TIP3    H237776   6.627   6.448   6.014
12611TIP3   OH237777   7.114   0.728   5.554
12611TIP3    H137778   7.174   0.762   5.488
12611TIP3    H237779   7.110   0.796   5.621
12612TIP3   OH237780   6.418   0.521   0.932
12612TIP3    H137781   6.474   0.539   1.007
12612TIP3    H237782   6.335   0.564   0.951
12613TIP3   OH237783   5.172   7.442   3.222
12613TIP3    H137784   5.257   7.483   3.211
12613TIP3    H237785   5.111   7.515   3.235
12614TIP3   OH237786   0.568   6.793   0.747
12614TIP3    H137787   0.589   6.853   0.676
12614TIP3    H237788   0.629   6.720   0.735
12615TIP3   OH237789   0.117   2.501   0.608
12615TIP3    H137790   0.174   2.578   0.607
12615TIP3    H237791   0.168   2.432   0.567
12616TIP3   OH237792   6.896   5.915   0.957
12616TIP3    H137793   6.955   5.911   1.032
12616TIP3    H237794   6.816   5.872   0.987
12617TIP3   OH237795   1.191   3.592   2.354
12617TIP3    H137796   1.258   3.617   2.417
12617TIP3    H237797   1.235   3.533   2.293
12618TIP3   OH237798   3.937   3.505   5.419
12618TIP3    H137799   3.930   3.601   5.423
12618TIP3    H237800   3.847   3.475   5.416
12619TIP3   OH237801   5.904   7.614   5.290
12619TIP3    H137802   5.891   7.538   5.234
12619TIP3    H237803   5.994   7.641   5.274
12620TIP3   OH237804   3.751   5.140   0.539
12620TIP3    H137805   3.657   5.154   0.531
12620TIP3    H237806   3.767   5.136   0.634
12621TIP3   OH237807   3.300   0.855   0.336
12621TIP3    H137808   3.326   0.941   0.304
12621TIP3    H237809   3.342   0.793   0.277
12622TIP3   OH237810   3.750   4.395   2.196
12622TIP3    H137811   3.745   4.470   2.136
12622TIP3    H237812   3.732   4.319   2.140
12623TIP3   OH237813   4.394   7.013   5.579
12623TIP3    H137814   4.335   6.989   5.507
12623TIP3    H237815   4.472   7.047   5.535
12624TIP3   OH237816   7.747   3.625   5.700
12624TIP3    H137817   7.744   3.703   5.645
12624TIP3    H237818   7.839   3.598   5.699
12625TIP3   OH237819   3.105   4.176   6.110
12625TIP3    H137820   3.023   4.166   6.063
12625TIP3    H237821   3.154   4.097   6.090
12626TIP3   OH237822   5.418   6.403   5.362
12626TIP3    H137823   5.490   6.450   5.406
12626TIP3    H237824   5.359   6.472   5.333
12627TIP3   OH237825   6.561   5.002   2.220
12627TIP3    H137826   6.485   4.995   2.278
12627TIP3    H237827   6.612   5.075   2.257
12628TIP3   OH237828   1.196   6.745   4.034
12628TIP3    H137829   1.205   6.684   3.962
12628TIP3    H237830   1.163   6.826   3.994
12629TIP3   OH237831   5.882   6.064   5.094
12629TIP3    H137832   5.808   6.005   5.082
12629TIP3    H237833   5.933   6.024   5.165
12630TIP3   OH237834   7.940   2.998   6.641
12630TIP3    H137835   8.016   2.950   6.608
12630TIP3    H237836   7.934   3.075   6.585
12631TIP3   OH237837   0.946   3.816   2.875
12631TIP3    H137838   0.947   3.908   2.849
12631TIP3    H237839   0.868   3.780   2.833
12632TIP3   OH237840   2.388   6.286   4.418
12632TIP3    H137841   2.370   6.265   4.510
12632TIP3    H237842   2.405   6.380   4.418
12633TIP3   OH237843   7.934   3.614   6.691
12633TIP3    H137844   7.854   3.592   6.740
12633TIP3    H237845   7.998   3.548   6.719
12634TIP3   OH237846   5.267   3.219   0.684
12634TIP3    H137847   5.250   3.143   0.628
12634TIP3    H237848   5.191   3.275   0.672
12635TIP3   OH237849   3.951   0.212   1.295
12635TIP3    H137850   3.906   0.141   1.341
12635TIP3    H237851   4.036   0.174   1.272
12636TIP3   OH237852   5.643   3.177   3.730
12636TIP3    H137853   5.667   3.171   3.823
12636TIP3    H237854   5.569   3.116   3.721
12637TIP3   OH237855   2.802   2.971   6.457
12637TIP3    H137856   2.852   3.052   6.453
12637TIP3    H237857   2.839   2.924   6.532
12638TIP3   OH237858   4.927   7.557   1.723
12638TIP3    H137859   4.918   7.648   1.750
12638TIP3    H237860   4.882   7.507   1.790
12639TIP3   OH237861   0.720   7.233   2.195
12639TIP3    H137862   0.701   7.252   2.103
12639TIP3    H237863   0.659   7.162   2.218
12640TIP3   OH237864   5.884   3.711   3.210
12640TIP3    H137865   5.911   3.682   3.298
12640TIP3    H237866   5.790   3.724   3.217
12641TIP3   OH237867   0.164   3.546   5.960
12641TIP3    H137868   0.174   3.451   5.956
12641TIP3    H237869   0.251   3.580   5.939
12642TIP3   OH237870   0.998   7.687   0.470
12642TIP3    H137871   0.904   7.670   0.466
12642TIP3    H237872   1.006   7.761   0.531
12643TIP3   OH237873   0.934   7.458   6.477
12643TIP3    H137874   1.000   7.470   6.546
12643TIP3    H237875   0.856   7.428   6.523
12644TIP3   OH237876   0.174   1.297   0.934
12644TIP3    H137877   0.132   1.292   0.849
12644TIP3    H237878   0.138   1.375   0.975
12645TIP3   OH237879   7.919   1.317   2.512
12645TIP3    H137880   7.926   1.288   2.603
12645TIP3    H237881   7.853   1.259   2.474
12646TIP3   OH237882   7.615   2.720   0.489
12646TIP3    H137883   7.708   2.698   0.485
12646TIP3    H237884   7.587   2.724   0.398
12647TIP3   OH237885   8.056   1.337   0.458
12647TIP3    H137886   8.050   1.407   0.523
12647TIP3    H237887   8.074   1.382   0.376
12648TIP3   OH237888   3.459   5.093   2.504
12648TIP3    H137889   3.508   5.023   2.462
12648TIP3    H237890   3.368   5.073   2.485
12649TIP3   OH237891   7.264   2.751   1.369
12649TIP3    H137892   7.174   2.719   1.372
12649TIP3    H237893   7.316   2.674   1.346
12650TIP3   OH237894   6.772   0.799   3.907
12650TIP3    H137895   6.691   0.819   3.859
12650TIP3    H237896   6.763   0.707   3.931
12651TIP3   OH237897   1.540   3.087   2.956
12651TIP3    H137898   1.451   3.053   2.949
12651TIP3    H237899   1.530   3.172   2.999
12652TIP3   OH237900   1.015   1.952   0.448
12652TIP3    H137901   1.097   1.959   0.398
12652TIP3    H237902   0.954   2.009   0.402
12653TIP3   OH237903   0.438   6.867   5.587
12653TIP3    H137904   0.348   6.848   5.562
12653TIP3    H237905   0.491   6.809   5.532
12654TIP3   OH237906   3.869   6.846   0.059
12654TIP3    H137907   3.927   6.833   0.134
12654TIP3    H237908   3.803   6.777   0.067
12655TIP3   OH237909   4.692   5.120   6.790
12655TIP3    H137910   4.690   5.191   6.726
12655TIP3    H237911   4.675   5.041   6.738
12656TIP3   OH237912   1.762   6.467   4.506
12656TIP3    H137913   1.712   6.526   4.450
12656TIP3    H237914   1.851   6.502   4.506
12657TIP3   OH237915   5.852   7.131   0.277
12657TIP3    H137916   5.866   7.143   0.371
12657TIP3    H237917   5.832   7.038   0.267
12658TIP3   OH237918   2.840   4.999   1.031
12658TIP3    H137919   2.815   4.950   0.952
12658TIP3    H237920   2.757   5.018   1.074
12659TIP3   OH237921   2.906   0.580   1.354
12659TIP3    H137922   2.882   0.668   1.325
12659TIP3    H237923   3.002   0.582   1.359
12660TIP3   OH237924   5.635   1.873   0.359
12660TIP3    H137925   5.543   1.888   0.381
12660TIP3    H237926   5.666   1.811   0.425
12661TIP3   OH237927   7.858   5.610   1.668
12661TIP3    H137928   7.858   5.667   1.744
12661TIP3    H237929   7.915   5.654   1.604
12662TIP3   OH237930   5.288   1.626   5.998
12662TIP3    H137931   5.253   1.705   5.957
12662TIP3    H237932   5.222   1.601   6.062
12663TIP3   OH237933   8.174   1.893   2.782
12663TIP3    H137934   8.093   1.853   2.814
12663TIP3    H237935   8.224   1.820   2.745
12664TIP3   OH237936   0.250   2.794   4.098
12664TIP3    H137937   0.291   2.745   4.170
12664TIP3    H237938   0.272   2.744   4.020
12665TIP3   OH237939   3.865   0.435   4.406
12665TIP3    H137940   3.927   0.403   4.340
12665TIP3    H237941   3.846   0.525   4.379
12666TIP3   OH237942   7.303   2.837   1.647
12666TIP3    H137943   7.299   2.785   1.567
12666TIP3    H237944   7.346   2.918   1.621
12667TIP3   OH237945   1.917   6.142   3.572
12667TIP3    H137946   1.837   6.106   3.611
12667TIP3    H237947   1.900   6.236   3.566
12668TIP3   OH237948   4.142   7.136   6.097
12668TIP3    H137949   4.109   7.226   6.094
12668TIP3    H237950   4.108   7.095   6.017
12669TIP3   OH237951   6.171   0.082   4.504
12669TIP3    H137952   6.178   0.047   4.593
12669TIP3    H237953   6.260   0.106   4.480
12670TIP3   OH237954   5.515   6.652   4.413
12670TIP3    H137955   5.441   6.634   4.472
12670TIP3    H237956   5.478   6.642   4.326
12671TIP3   OH237957   0.238   2.422   2.196
12671TIP3    H137958   0.229   2.490   2.130
12671TIP3    H237959   0.174   2.355   2.171
12672TIP3   OH237960   7.084   0.154   6.729
12672TIP3    H137961   7.168   0.170   6.772
12672TIP3    H237962   7.019   0.170   6.798
12673TIP3   OH237963   7.190   5.746   1.722
12673TIP3    H137964   7.275   5.760   1.680
12673TIP3    H237965   7.173   5.652   1.710
12674TIP3   OH237966   5.855   6.470   1.527
12674TIP3    H137967   5.773   6.508   1.494
12674TIP3    H237968   5.899   6.542   1.571
12675TIP3   OH237969   5.123   2.726   1.054
12675TIP3    H137970   5.146   2.709   0.963
12675TIP3    H237971   5.126   2.640   1.097
12676TIP3   OH237972   2.151   1.851   5.914
12676TIP3    H137973   2.185   1.928   5.959
12676TIP3    H237974   2.187   1.776   5.961
12677TIP3   OH237975   1.616   6.149   3.663
12677TIP3    H137976   1.559   6.178   3.592
12677TIP3    H237977   1.561   6.090   3.715
12678TIP3   OH237978   2.072   6.817   4.849
12678TIP3    H137979   2.147   6.759   4.835
12678TIP3    H237980   2.088   6.892   4.792
12679TIP3   OH237981   8.164   3.250   1.191
12679TIP3    H137982   8.185   3.173   1.138
12679TIP3    H237983   8.071   3.268   1.172
12680TIP3   OH237984   1.007   6.311   1.078
12680TIP3    H137985   1.048   6.339   1.160
12680TIP3    H237986   0.947   6.382   1.056
12681TIP3   OH237987   1.112   3.236   3.655
12681TIP3    H137988   1.047   3.292   3.697
12681TIP3    H237989   1.192   3.249   3.707
12682TIP3   OH237990   0.097   5.967   6.398
12682TIP3    H137991   0.062   5.880   6.376
12682TIP3    H237992   0.044   5.996   6.472
12683TIP3   OH237993   2.558   5.097   2.785
12683TIP3    H137994   2.486   5.114   2.724
12683TIP3    H237995   2.620   5.043   2.734
12684TIP3   OH237996   2.844   3.908   2.437
12684TIP3    H137997   2.776   3.895   2.371
12684TIP3    H237998   2.915   3.951   2.390
12685TIP3   OH237999   5.034   7.750   4.877
12685TIP3    H138000   5.094   7.756   4.802
12685TIP3    H238001   4.961   7.698   4.844
12686TIP3   OH238002   2.210   2.410   5.496
12686TIP3    H138003   2.256   2.479   5.544
12686TIP3    H238004   2.176   2.454   5.418
12687TIP3   OH238005   3.609   0.864   6.654
12687TIP3    H138006   3.633   0.818   6.574
12687TIP3    H238007   3.516   0.848   6.665
12688TIP3   OH238008   6.793   3.410   3.130
12688TIP3    H138009   6.711   3.394   3.082
12688TIP3    H238010   6.808   3.504   3.121
12689TIP3   OH238011   4.090   0.247   3.615
12689TIP3    H138012   4.113   0.233   3.523
12689TIP3    H238013   4.038   0.170   3.639
12690TIP3   OH238014   2.266   0.848   6.032
12690TIP3    H138015   2.331   0.794   6.079
12690TIP3    H238016   2.316   0.891   5.963
12691TIP3   OH238017   2.628   5.879   1.727
12691TIP3    H138018   2.554   5.819   1.728
12691TIP3    H238019   2.696   5.835   1.776
12692TIP3   OH238020   6.323   3.750   3.674
12692TIP3    H138021   6.389   3.712   3.732
12692TIP3    H238022   6.371   3.814   3.621
12693TIP3   OH238023   7.598   4.278   3.942
12693TIP3    H138024   7.583   4.185   3.923
12693TIP3    H238025   7.693   4.286   3.952
12694TIP3   OH238026   2.962   2.530   0.765
12694TIP3    H138027   2.931   2.620   0.772
12694TIP3    H238028   3.032   2.523   0.829
12695TIP3   OH238029   5.086   3.490   4.568
12695TIP3    H138030   5.153   3.548   4.604
12695TIP3    H238031   5.119   3.466   4.482
12696TIP3   OH238032   3.288   3.207   1.807
12696TIP3    H138033   3.339   3.143   1.857
12696TIP3    H238034   3.354   3.265   1.768
12697TIP3   OH238035   6.869   2.042   5.992
12697TIP3    H138036   6.888   2.133   5.971
12697TIP3    H238037   6.955   2.000   6.000
12698TIP3   OH238038   2.844   2.472   6.740
12698TIP3    H138039   2.800   2.518   6.669
12698TIP3    H238040   2.799   2.388   6.745
12699TIP3   OH238041   1.062   1.832   3.042
12699TIP3    H138042   1.073   1.834   2.947
12699TIP3    H238043   0.976   1.872   3.057
12700TIP3   OH238044   7.732   3.775   2.162
12700TIP3    H138045   7.677   3.703   2.192
12700TIP3    H238046   7.678   3.853   2.172
12701TIP3   OH238047   0.146   6.448   3.204
12701TIP3    H138048   0.198   6.528   3.205
12701TIP3    H238049   0.094   6.452   3.284
12702TIP3   OH238050   2.702   7.633   3.781
12702TIP3    H138051   2.646   7.620   3.705
12702TIP3    H238052   2.791   7.631   3.746
12703TIP3   OH238053   1.906   5.399   6.251
12703TIP3    H138054   1.999   5.399   6.270
12703TIP3    H238055   1.898   5.349   6.169
12704TIP3   OH238056   5.570   0.703   3.299
12704TIP3    H138057   5.603   0.617   3.270
12704TIP3    H238058   5.600   0.764   3.231
12705TIP3   OH238059   0.328   1.471   2.636
12705TIP3    H138060   0.372   1.536   2.581
12705TIP3    H238061   0.389   1.397   2.640
12706TIP3   OH238062   7.428   0.969   0.210
12706TIP3    H138063   7.492   0.909   0.247
12706TIP3    H238064   7.343   0.930   0.231
12707TIP3   OH238065   5.988   0.740   4.088
12707TIP3    H138066   5.931   0.702   4.155
12707TIP3    H238067   5.944   0.720   4.005
12708TIP3   OH238068   0.335   6.562   0.113
12708TIP3    H138069   0.247   6.596   0.101
12708TIP3    H238070   0.385   6.596   0.038
12709TIP3   OH238071   2.407   6.461   4.916
12709TIP3    H138072   2.433   6.390   4.858
12709TIP3    H238073   2.383   6.533   4.856
12710TIP3   OH238074   3.971   5.456   1.914
12710TIP3    H138075   4.000   5.385   1.972
12710TIP3    H238076   3.878   5.438   1.899
12711TIP3   OH238077   3.500   6.794   4.748
12711TIP3    H138078   3.428   6.746   4.787
12711TIP3    H238079   3.554   6.821   4.823
12712TIP3   OH238080   8.030   0.676   3.789
12712TIP3    H138081   8.030   0.734   3.713
12712TIP3    H238082   7.977   0.722   3.854
12713TIP3   OH238083   5.821   1.239   6.215
12713TIP3    H138084   5.878   1.258   6.140
12713TIP3    H238085   5.788   1.325   6.242
12714TIP3   OH238086   0.583   2.327   1.466
12714TIP3    H138087   0.654   2.345   1.527
12714TIP3    H238088   0.625   2.279   1.394
12715TIP3   OH238089   5.381   3.213   1.007
12715TIP3    H138090   5.352   3.178   0.923
12715TIP3    H238091   5.435   3.144   1.045
12716TIP3   OH238092   2.578   2.091   1.491
12716TIP3    H138093   2.545   2.143   1.418
12716TIP3    H238094   2.666   2.065   1.464
12717TIP3   OH238095   6.108   3.172   5.417
12717TIP3    H138096   6.042   3.231   5.454
12717TIP3    H238097   6.165   3.229   5.366
12718TIP3   OH238098   4.427   3.593   3.506
12718TIP3    H138099   4.421   3.657   3.577
12718TIP3    H238100   4.514   3.607   3.468
12719TIP3   OH238101   1.033   5.578   2.387
12719TIP3    H138102   1.023   5.561   2.481
12719TIP3    H238103   1.077   5.663   2.382
12720TIP3   OH238104   1.921   2.661   1.446
12720TIP3    H138105   1.849   2.715   1.478
12720TIP3    H238106   1.878   2.593   1.393
12721TIP3   OH238107   4.055   5.665   3.308
12721TIP3    H138108   4.105   5.612   3.246
12721TIP3    H238109   4.082   5.634   3.394
12722TIP3   OH238110   2.281   7.182   2.717
12722TIP3    H138111   2.249   7.253   2.773
12722TIP3    H238112   2.357   7.220   2.672
12723TIP3   OH238113   7.595   0.254   0.921
12723TIP3    H138114   7.564   0.250   1.012
12723TIP3    H238115   7.590   0.163   0.890
12724TIP3   OH238116   0.888   2.826   0.997
12724TIP3    H138117   0.828   2.764   0.955
12724TIP3    H238118   0.837   2.908   1.002
12725TIP3   OH238119   2.075   3.040   4.473
12725TIP3    H138120   2.069   2.993   4.555
12725TIP3    H238121   2.167   3.038   4.449
12726TIP3   OH238122   4.335   7.000   6.694
12726TIP3    H138123   4.376   7.045   6.620
12726TIP3    H238124   4.242   7.020   6.685
12727TIP3   OH238125   1.706   3.814   3.371
12727TIP3    H138126   1.709   3.800   3.466
12727TIP3    H238127   1.641   3.751   3.340
12728TIP3   OH238128   1.561   3.889   1.148
12728TIP3    H138129   1.614   3.929   1.217
12728TIP3    H238130   1.547   3.960   1.085
12729TIP3   OH238131   1.342   3.745   3.603
12729TIP3    H138132   1.435   3.765   3.615
12729TIP3    H238133   1.337   3.710   3.514
12730TIP3   OH238134   6.710   4.755   4.396
12730TIP3    H138135   6.707   4.683   4.333
12730TIP3    H238136   6.701   4.711   4.481
12731TIP3   OH238137   4.300   3.774   0.202
12731TIP3    H138138   4.243   3.737   0.134
12731TIP3    H238139   4.308   3.866   0.178
12732TIP3   OH238140   1.993   6.096   0.375
12732TIP3    H138141   1.997   6.032   0.304
12732TIP3    H238142   2.048   6.058   0.444
12733TIP3   OH238143   5.086   1.089   4.529
12733TIP3    H138144   5.046   1.108   4.443
12733TIP3    H238145   5.011   1.074   4.587
12734TIP3   OH238146   7.448   4.995   6.242
12734TIP3    H138147   7.513   5.051   6.200
12734TIP3    H238148   7.458   4.910   6.198
12735TIP3   OH238149   4.691   7.361   0.342
12735TIP3    H138150   4.766   7.314   0.378
12735TIP3    H238151   4.716   7.453   0.345
12736TIP3   OH238152   5.703   0.424   5.860
12736TIP3    H138153   5.611   0.405   5.843
12736TIP3    H238154   5.707   0.518   5.876
12737TIP3   OH238155   7.308   1.169   6.687
12737TIP3    H138156   7.235   1.164   6.749
12737TIP3    H238157   7.273   1.136   6.605
12738TIP3   OH238158   6.389   6.567   6.217
12738TIP3    H138159   6.326   6.587   6.287
12738TIP3    H238160   6.473   6.562   6.262
12739TIP3   OH238161   6.130   2.746   6.022
12739TIP3    H138162   6.173   2.782   5.944
12739TIP3    H238163   6.188   2.675   6.051
12740TIP3   OH238164   1.432   1.711   6.585
12740TIP3    H138165   1.414   1.639   6.645
12740TIP3    H238166   1.527   1.710   6.574
12741TIP3   OH238167   1.598   1.067   0.360
12741TIP3    H138168   1.601   1.004   0.288
12741TIP3    H238169   1.505   1.089   0.368
12742TIP3   OH238170   6.130   4.334   2.718
12742TIP3    H138171   6.127   4.241   2.740
12742TIP3    H238172   6.213   4.344   2.671
12743TIP3   OH238173   0.644   0.277   1.491
12743TIP3    H138174   0.655   0.370   1.510
12743TIP3    H238175   0.550   0.262   1.497
12744TIP3   OH238176   0.656   1.839   4.926
12744TIP3    H138177   0.750   1.856   4.928
12744TIP3    H238178   0.617   1.923   4.901
12745TIP3   OH238179   0.810   1.533   5.591
12745TIP3    H138180   0.792   1.549   5.683
12745TIP3    H238181   0.785   1.615   5.548
12746TIP3   OH238182   8.011   2.707   6.599
12746TIP3    H138183   8.087   2.763   6.579
12746TIP3    H238184   8.040   2.619   6.572
12747TIP3   OH238185   3.789   4.512   2.437
12747TIP3    H138186   3.789   4.508   2.341
12747TIP3    H238187   3.700   4.539   2.460
12748TIP3   OH238188   2.574   1.837   0.313
12748TIP3    H138189   2.620   1.764   0.271
12748TIP3    H238190   2.588   1.911   0.254
12749TIP3   OH238191   5.408  -0.025   0.434
12749TIP3    H138192   5.358   0.018   0.365
12749TIP3    H238193   5.376   0.013   0.515
12750TIP3   OH238194   7.407   4.908   3.866
12750TIP3    H138195   7.439   4.818   3.869
12750TIP3    H238196   7.475   4.956   3.818
12751TIP3   OH238197   1.564   5.662   6.121
12751TIP3    H138198   1.594   5.735   6.175
12751TIP3    H238199   1.522   5.602   6.183
12752TIP3   OH238200   6.946   6.174   4.787
12752TIP3    H138201   6.942   6.108   4.857
12752TIP3    H238202   6.987   6.128   4.714
12753TIP3   OH238203   2.263   7.643   0.282
12753TIP3    H138204   2.192   7.641   0.218
12753TIP3    H238205   2.328   7.582   0.247
12754TIP3   OH238206   5.208   0.338   3.345
12754TIP3    H138207   5.129   0.393   3.341
12754TIP3    H238208   5.261   0.367   3.271
12755TIP3   OH238209   5.694   2.528   0.132
12755TIP3    H138210   5.776   2.479   0.129
12755TIP3    H238211   5.626   2.461   0.137
12756TIP3   OH238212   6.020   2.142   5.668
12756TIP3    H138213   5.996   2.233   5.684
12756TIP3    H238214   6.115   2.140   5.680
12757TIP3   OH238215   7.273   5.500   1.685
12757TIP3    H138216   7.273   5.491   1.780
12757TIP3    H238217   7.366   5.510   1.661
12758TIP3   OH238218   1.346   0.936   0.728
12758TIP3    H138219   1.255   0.928   0.756
12758TIP3    H238220   1.353   0.876   0.653
12759TIP3   OH238221   4.735   2.857   0.394
12759TIP3    H138222   4.692   2.933   0.433
12759TIP3    H238223   4.805   2.893   0.341
12760TIP3   OH238224   2.960   2.641   1.082
12760TIP3    H138225   3.017   2.641   1.159
12760TIP3    H238226   3.016   2.667   1.010
12761TIP3   OH238227   5.283   6.201   4.752
12761TIP3    H138228   5.288   6.296   4.759
12761TIP3    H238229   5.249   6.186   4.664
12762TIP3   OH238230   4.534   3.752   4.751
12762TIP3    H138231   4.521   3.803   4.831
12762TIP3    H238232   4.610   3.697   4.769
12763TIP3   OH238233   4.136   0.256   4.328
12763TIP3    H138234   4.161   0.318   4.397
12763TIP3    H238235   4.209   0.194   4.325
12764TIP3   OH238236   3.300   1.227   1.744
12764TIP3    H138237   3.343   1.228   1.659
12764TIP3    H238238   3.362   1.183   1.802
12765TIP3   OH238239   4.704   1.300   5.003
12765TIP3    H138240   4.688   1.212   4.970
12765TIP3    H238241   4.726   1.288   5.095
12766TIP3   OH238242   7.251   0.551   0.612
12766TIP3    H138243   7.321   0.486   0.623
12766TIP3    H238244   7.192   0.534   0.686
12767TIP3   OH238245   3.690   0.101   6.006
12767TIP3    H138246   3.755   0.137   6.066
12767TIP3    H238247   3.708   0.007   6.004
12768TIP3   OH238248   1.227   2.871   3.328
12768TIP3    H138249   1.310   2.842   3.291
12768TIP3    H238250   1.177   2.904   3.254
12769TIP3   OH238251   6.430   5.890   3.307
12769TIP3    H138252   6.490   5.939   3.363
12769TIP3    H238253   6.372   5.844   3.368
12770TIP3   OH238254   2.132   4.384   2.947
12770TIP3    H138255   2.084   4.320   2.895
12770TIP3    H238256   2.108   4.469   2.910
12771TIP3   OH238257   6.702   1.793   6.687
12771TIP3    H138258   6.663   1.770   6.603
12771TIP3    H238259   6.689   1.716   6.742
12772TIP3   OH238260   7.090   3.844   2.528
12772TIP3    H138261   7.050   3.929   2.508
12772TIP3    H238262   7.105   3.805   2.442
12773TIP3   OH238263   7.271   3.299   1.486
12773TIP3    H138264   7.317   3.321   1.405
12773TIP3    H238265   7.197   3.359   1.489
12774TIP3   OH238266   2.094   3.572   0.413
12774TIP3    H138267   2.096   3.501   0.478
12774TIP3    H238268   2.096   3.527   0.328
12775TIP3   OH238269   2.537   4.545   3.045
12775TIP3    H138270   2.616   4.554   3.097
12775TIP3    H238271   2.465   4.559   3.107
12776TIP3   OH238272   5.907   4.854   1.628
12776TIP3    H138273   5.994   4.880   1.597
12776TIP3    H238274   5.919   4.768   1.667
12777TIP3   OH238275   7.967   3.821   5.907
12777TIP3    H138276   7.919   3.889   5.859
12777TIP3    H238277   7.901   3.775   5.958
12778TIP3   OH238278   2.108   3.600   1.199
12778TIP3    H138279   2.188   3.641   1.165
12778TIP3    H238280   2.049   3.673   1.215
12779TIP3   OH238281   3.940   6.179   5.098
12779TIP3    H138282   4.006   6.151   5.162
12779TIP3    H238283   3.857   6.148   5.134
12780TIP3   OH238284   1.158   6.357   1.325
12780TIP3    H138285   1.216   6.356   1.402
12780TIP3    H238286   1.196   6.423   1.268
12781TIP3   OH238287   0.504   2.780   0.259
12781TIP3    H138288   0.476   2.777   0.167
12781TIP3    H238289   0.454   2.852   0.298
12782TIP3   OH238290   2.027   2.235   4.442
12782TIP3    H138291   2.122   2.241   4.432
12782TIP3    H238292   2.015   2.207   4.533
12783TIP3   OH238293   6.367   0.321   5.875
12783TIP3    H138294   6.345   0.351   5.787
12783TIP3    H238295   6.386   0.402   5.923
12784TIP3   OH238296   5.732   0.104   1.273
12784TIP3    H138297   5.754   0.086   1.182
12784TIP3    H238298   5.645   0.143   1.270
12785TIP3   OH238299   1.962   4.486   3.342
12785TIP3    H138300   1.920   4.471   3.426
12785TIP3    H238301   1.950   4.404   3.294
12786TIP3   OH238302   0.578   2.359   0.360
12786TIP3    H138303   0.538   2.367   0.273
12786TIP3    H238304   0.594   2.449   0.387
12787TIP3   OH238305   6.738   3.096   1.961
12787TIP3    H138306   6.824   3.092   1.918
12787TIP3    H238307   6.723   3.189   1.975
12788TIP3   OH238308   7.315   5.872   6.102
12788TIP3    H138309   7.377   5.898   6.033
12788TIP3    H238310   7.287   5.955   6.141
12789TIP3   OH238311   7.922   5.811   1.842
12789TIP3    H138312   8.015   5.794   1.824
12789TIP3    H238313   7.909   5.902   1.816
12790TIP3   OH238314   1.129   1.197   5.781
12790TIP3    H138315   1.122   1.290   5.758
12790TIP3    H238316   1.068   1.153   5.721
12791TIP3   OH238317   4.384   1.732   6.170
12791TIP3    H138318   4.474   1.698   6.167
12791TIP3    H238319   4.332   1.668   6.123
12792TIP3   OH238320   2.783   4.345   2.824
12792TIP3    H138321   2.692   4.314   2.822
12792TIP3    H238322   2.818   4.321   2.738
12793TIP3   OH238323   4.290   6.389   3.216
12793TIP3    H138324   4.368   6.426   3.256
12793TIP3    H238325   4.235   6.364   3.291
12794TIP3   OH238326   1.017   5.684   0.255
12794TIP3    H138327   0.983   5.626   0.323
12794TIP3    H238328   1.085   5.632   0.212
12795TIP3   OH238329   6.879   1.007   0.728
12795TIP3    H138330   6.866   1.084   0.782
12795TIP3    H238331   6.973   0.989   0.734
12796TIP3   OH238332   6.083   1.596   2.182
12796TIP3    H138333   6.153   1.632   2.128
12796TIP3    H238334   6.102   1.502   2.186
12797TIP3   OH238335   8.159   0.866   2.421
12797TIP3    H138336   8.240   0.831   2.457
12797TIP3    H238337   8.185   0.945   2.373
12798TIP3   OH238338   4.630   5.667   4.928
12798TIP3    H138339   4.694   5.645   4.859
12798TIP3    H238340   4.611   5.760   4.912
12799TIP3   OH238341   6.304   7.250   3.262
12799TIP3    H138342   6.317   7.155   3.263
12799TIP3    H238343   6.269   7.271   3.349
12800TIP3   OH238344   0.951   1.618   4.541
12800TIP3    H138345   1.038   1.636   4.505
12800TIP3    H238346   0.968   1.567   4.620
12801TIP3   OH238347   6.173   1.255   6.644
12801TIP3    H138348   6.125   1.183   6.603
12801TIP3    H238349   6.159   1.330   6.586
12802TIP3   OH238350   1.344   6.844   5.512
12802TIP3    H138351   1.265   6.875   5.469
12802TIP3    H238352   1.413   6.904   5.483
12803TIP3   OH238353   2.202   3.392   4.895
12803TIP3    H138354   2.192   3.435   4.980
12803TIP3    H238355   2.131   3.329   4.891
12804TIP3   OH238356   4.538   3.165   6.140
12804TIP3    H138357   4.495   3.103   6.198
12804TIP3    H238358   4.529   3.250   6.183
12805TIP3   OH238359   6.235   2.223   6.260
12805TIP3    H138360   6.228   2.248   6.352
12805TIP3    H238361   6.291   2.146   6.259
12806TIP3   OH238362   4.628   5.576   5.913
12806TIP3    H138363   4.644   5.499   5.967
12806TIP3    H238364   4.553   5.619   5.954
12807TIP3   OH238365   0.819   4.978   0.801
12807TIP3    H138366   0.759   4.904   0.808
12807TIP3    H238367   0.891   4.945   0.747
12808TIP3   OH238368   2.499   5.301   2.412
12808TIP3    H138369   2.430   5.365   2.432
12808TIP3    H238370   2.451   5.226   2.374
12809TIP3   OH238371   4.034   6.227   6.295
12809TIP3    H138372   3.986   6.310   6.294
12809TIP3    H238373   4.108   6.243   6.353
12810TIP3   OH238374   6.648   3.206   1.096
12810TIP3    H138375   6.707   3.139   1.129
12810TIP3    H238376   6.641   3.270   1.168
12811TIP3   OH238377   4.047   2.522   1.219
12811TIP3    H138378   4.061   2.579   1.143
12811TIP3    H238379   4.052   2.581   1.294
12812TIP3   OH238380   7.907   1.204   5.276
12812TIP3    H138381   7.889   1.146   5.350
12812TIP3    H238382   7.930   1.288   5.316
12813TIP3   OH238383   0.395   6.206   1.530
12813TIP3    H138384   0.345   6.273   1.576
12813TIP3    H238385   0.415   6.141   1.597
12814TIP3   OH238386   4.818   0.609   0.219
12814TIP3    H138387   4.740   0.664   0.223
12814TIP3    H238388   4.801   0.548   0.147
12815TIP3   OH238389   7.005   5.159   0.594
12815TIP3    H138390   7.018   5.220   0.666
12815TIP3    H238391   6.914   5.131   0.602
12816TIP3   OH238392   5.029   4.605   5.515
12816TIP3    H138393   5.063   4.634   5.599
12816TIP3    H238394   5.052   4.512   5.510
12817TIP3   OH238395   6.870   7.044   4.659
12817TIP3    H138396   6.776   7.026   4.656
12817TIP3    H238397   6.891   7.046   4.753
12818TIP3   OH238398   2.274   0.525   5.461
12818TIP3    H138399   2.352   0.504   5.409
12818TIP3    H238400   2.301   0.600   5.515
12819TIP3   OH238401   7.450   6.801   0.704
12819TIP3    H138402   7.489   6.878   0.663
12819TIP3    H238403   7.523   6.758   0.748
12820TIP3   OH238404   2.581   2.452   0.259
12820TIP3    H138405   2.522   2.484   0.327
12820TIP3    H238406   2.661   2.427   0.306
12821TIP3   OH238407   5.686   3.405   4.778
12821TIP3    H138408   5.612   3.407   4.718
12821TIP3    H238409   5.751   3.350   4.734
12822TIP3   OH238410   2.175   3.495   4.014
12822TIP3    H138411   2.190   3.456   4.100
12822TIP3    H238412   2.164   3.588   4.032
12823TIP3   OH238413   7.626   6.358   5.590
12823TIP3    H138414   7.548   6.364   5.645
12823TIP3    H238415   7.600   6.397   5.506
12824TIP3   OH238416   0.563   7.294   1.673
12824TIP3    H138417   0.503   7.363   1.644
12824TIP3    H238418   0.545   7.285   1.766
12825TIP3   OH238419   4.180   2.703   2.753
12825TIP3    H138420   4.089   2.719   2.780
12825TIP3    H238421   4.226   2.784   2.774
12826TIP3   OH238422   0.671   0.421   4.414
12826TIP3    H138423   0.603   0.364   4.378
12826TIP3    H238424   0.691   0.482   4.342
12827TIP3   OH238425   7.379   5.946   3.692
12827TIP3    H138426   7.373   6.020   3.631
12827TIP3    H238427   7.290   5.911   3.696
12828TIP3   OH238428   1.786   0.325   4.038
12828TIP3    H138429   1.733   0.393   3.996
12828TIP3    H238430   1.846   0.295   3.970
12829TIP3   OH238431   1.440   4.663   0.650
12829TIP3    H138432   1.484   4.663   0.565
12829TIP3    H238433   1.414   4.572   0.664
12830TIP3   OH238434   7.090   4.489   2.808
12830TIP3    H138435   7.015   4.528   2.852
12830TIP3    H238436   7.165   4.542   2.838
12831TIP3   OH238437   5.729   6.049   1.593
12831TIP3    H138438   5.744   6.130   1.641
12831TIP3    H238439   5.715   6.077   1.502
12832TIP3   OH238440   5.579   1.926   5.083
12832TIP3    H138441   5.627   1.846   5.059
12832TIP3    H238442   5.491   1.913   5.048
12833TIP3   OH238443   0.438   4.822   1.825
12833TIP3    H138444   0.471   4.808   1.736
12833TIP3    H238445   0.400   4.737   1.849
12834TIP3   OH238446   4.745   1.172   5.699
12834TIP3    H138447   4.833   1.192   5.730
12834TIP3    H238448   4.754   1.164   5.604
12835TIP3   OH238449   2.660   0.178   3.999
12835TIP3    H138450   2.674   0.193   3.905
12835TIP3    H238451   2.669   0.083   4.009
12836TIP3   OH238452   2.654   3.718   1.792
12836TIP3    H138453   2.626   3.762   1.873
12836TIP3    H238454   2.744   3.747   1.778
12837TIP3   OH238455   4.135   1.826   1.890
12837TIP3    H138456   4.116   1.888   1.961
12837TIP3    H238457   4.193   1.873   1.831
12838TIP3   OH238458   6.409   1.176   6.805
12838TIP3    H138459   6.349   1.217   6.741
12838TIP3    H238460   6.495   1.182   6.763
12839TIP3   OH238461   6.199   1.167   0.224
12839TIP3    H138462   6.242   1.205   0.147
12839TIP3    H238463   6.227   1.223   0.297
12840TIP3   OH238464   1.114   5.462   6.653
12840TIP3    H138465   1.149   5.517   6.724
12840TIP3    H238466   1.049   5.518   6.611
12841TIP3   OH238467   4.325   7.347   5.453
12841TIP3    H138468   4.351   7.414   5.517
12841TIP3    H238469   4.390   7.277   5.464
12842TIP3   OH238470   1.142   1.914   1.098
12842TIP3    H138471   1.195   1.846   1.057
12842TIP3    H238472   1.130   1.979   1.029
12843TIP3   OH238473   3.103   5.616   0.878
12843TIP3    H138474   3.191   5.583   0.895
12843TIP3    H238475   3.063   5.623   0.965
12844TIP3   OH238476   5.400   3.595   2.539
12844TIP3    H138477   5.359   3.569   2.456
12844TIP3    H238478   5.344   3.555   2.606
12845TIP3   OH238479   5.703   5.304   5.600
12845TIP3    H138480   5.772   5.366   5.624
12845TIP3    H238481   5.626   5.334   5.648
12846TIP3   OH238482   7.410   5.679   2.356
12846TIP3    H138483   7.316   5.669   2.344
12846TIP3    H238484   7.423   5.774   2.363
12847TIP3   OH238485   7.651   2.008   0.397
12847TIP3    H138486   7.654   1.915   0.376
12847TIP3    H238487   7.559   2.025   0.420
12848TIP3   OH238488   4.769   5.028   3.739
12848TIP3    H138489   4.793   4.972   3.665
12848TIP3    H238490   4.791   4.976   3.816
12849TIP3   OH238491   6.886   0.083   0.204
12849TIP3    H138492   6.969   0.084   0.251
12849TIP3    H238493   6.820   0.073   0.272
12850TIP3   OH238494   2.843   2.026   2.175
12850TIP3    H138495   2.795   2.095   2.129
12850TIP3    H238496   2.788   2.003   2.249
12851TIP3   OH238497   0.672   2.389   2.599
12851TIP3    H138498   0.613   2.315   2.615
12851TIP3    H238499   0.757   2.347   2.581
12852TIP3   OH238500   4.550   0.744   0.092
12852TIP3    H138501   4.503   0.779   0.016
12852TIP3    H238502   4.498   0.669   0.120
12853TIP3   OH238503   6.470   6.339   4.470
12853TIP3    H138504   6.512   6.289   4.400
12853TIP3    H238505   6.460   6.427   4.433
12854TIP3   OH238506   3.650   3.555   0.680
12854TIP3    H138507   3.643   3.630   0.739
12854TIP3    H238508   3.666   3.480   0.737
12855TIP3   OH238509   6.241   2.239   6.565
12855TIP3    H138510   6.180   2.168   6.587
12855TIP3    H238511   6.240   2.296   6.642
12856TIP3   OH238512   1.706   2.787   5.082
12856TIP3    H138513   1.778   2.783   5.145
12856TIP3    H238514   1.723   2.714   5.022
12857TIP3   OH238515   0.703   5.236   1.981
12857TIP3    H138516   0.780   5.279   1.943
12857TIP3    H238517   0.730   5.213   2.070
12858TIP3   OH238518   1.476   6.544   6.536
12858TIP3    H138519   1.419   6.598   6.482
12858TIP3    H238520   1.493   6.597   6.614
12859TIP3   OH238521   7.984   0.209   5.228
12859TIP3    H138522   8.015   0.206   5.319
12859TIP3    H238523   8.044   0.153   5.180
12860TIP3   OH238524   2.195   0.806   0.801
12860TIP3    H138525   2.170   0.724   0.759
12860TIP3    H238526   2.249   0.850   0.736
12861TIP3   OH238527   6.266   3.322   6.455
12861TIP3    H138528   6.290   3.327   6.363
12861TIP3    H238529   6.189   3.266   6.457
12862TIP3   OH238530   3.007   0.028   3.130
12862TIP3    H138531   2.966   0.111   3.108
12862TIP3    H238532   3.061   0.047   3.207
12863TIP3   OH238533   7.780   3.421   4.116
12863TIP3    H138534   7.747   3.459   4.197
12863TIP3    H238535   7.800   3.330   4.139
12864TIP3   OH238536   7.924   6.282   4.041
12864TIP3    H138537   7.877   6.357   4.004
12864TIP3    H238538   7.964   6.240   3.965
12865TIP3   OH238539   5.077   1.465   2.629
12865TIP3    H138540   5.014   1.399   2.600
12865TIP3    H238541   5.039   1.549   2.603
12866TIP3   OH238542   4.247   4.187   3.020
12866TIP3    H138543   4.202   4.171   3.103
12866TIP3    H238544   4.220   4.276   2.996
12867TIP3   OH238545   5.636   3.894   3.151
12867TIP3    H138546   5.605   3.823   3.094
12867TIP3    H238547   5.557   3.927   3.193
12868TIP3   OH238548   8.312   2.765   4.557
12868TIP3    H138549   8.323   2.859   4.538
12868TIP3    H238550   8.222   2.757   4.588
12869TIP3   OH238551   1.802   0.725   4.943
12869TIP3    H138552   1.719   0.697   4.905
12869TIP3    H238553   1.867   0.665   4.906
12870TIP3   OH238554   8.191   4.274   6.107
12870TIP3    H138555   8.225   4.300   6.021
12870TIP3    H238556   8.209   4.349   6.163
12871TIP3   OH238557   0.624   0.365   2.302
12871TIP3    H138558   0.597   0.456   2.316
12871TIP3    H238559   0.655   0.364   2.211
12872TIP3   OH238560   5.934   3.748   5.341
12872TIP3    H138561   5.850   3.792   5.358
12872TIP3    H238562   5.991   3.777   5.412
12873TIP3   OH238563   7.005   5.094   4.521
12873TIP3    H138564   7.092   5.103   4.481
12873TIP3    H238565   7.021   5.101   4.615
12874TIP3   OH238566   5.569   6.996   0.777
12874TIP3    H138567   5.508   6.927   0.806
12874TIP3    H238568   5.656   6.961   0.796
12875TIP3   OH238569   5.847   2.641   2.469
12875TIP3    H138570   5.783   2.710   2.457
12875TIP3    H238571   5.909   2.675   2.533
12876TIP3   OH238572   2.411   3.221   0.392
12876TIP3    H138573   2.462   3.252   0.317
12876TIP3    H238574   2.345   3.164   0.353
12877TIP3   OH238575   4.084   0.868   1.315
12877TIP3    H138576   4.043   0.846   1.399
12877TIP3    H238577   4.178   0.873   1.335
12878TIP3   OH238578   3.822   0.055   2.380
12878TIP3    H138579   3.800   0.083   2.290
12878TIP3    H238580   3.788  -0.034   2.386
12879TIP3   OH238581   1.192   7.104   1.268
12879TIP3    H138582   1.218   7.040   1.333
12879TIP3    H238583   1.270   7.120   1.215
12880TIP3   OH238584   6.385   5.018   5.329
12880TIP3    H138585   6.406   5.054   5.415
12880TIP3    H238586   6.411   5.086   5.267
12881TIP3   OH238587   3.636   5.893   3.625
12881TIP3    H138588   3.565   5.873   3.686
12881TIP3    H238589   3.643   5.816   3.569
12882TIP3   OH238590   7.927   5.212   2.702
12882TIP3    H138591   7.871   5.135   2.701
12882TIP3    H238592   7.871   5.283   2.732
12883TIP3   OH238593   4.687   7.657   5.560
12883TIP3    H138594   4.718   7.727   5.502
12883TIP3    H238595   4.765   7.632   5.611
12884TIP3   OH238596   7.909   0.499   2.705
12884TIP3    H138597   7.933   0.589   2.685
12884TIP3    H238598   7.991   0.458   2.735
12885TIP3   OH238599   6.234   6.022   5.271
12885TIP3    H138600   6.147   6.057   5.290
12885TIP3    H238601   6.256   6.057   5.185
12886TIP3   OH238602   3.207   7.107   2.890
12886TIP3    H138603   3.116   7.138   2.895
12886TIP3    H238604   3.210   7.054   2.810
12887TIP3   OH238605   3.989   5.490   1.211
12887TIP3    H138606   4.018   5.414   1.160
12887TIP3    H238607   3.960   5.452   1.294
12888TIP3   OH238608   4.088   0.454   5.024
12888TIP3    H138609   4.038   0.463   4.943
12888TIP3    H238610   4.132   0.539   5.035
12889TIP3   OH238611   3.113   5.999   4.385
12889TIP3    H138612   3.120   6.082   4.433
12889TIP3    H238613   3.141   6.021   4.296
12890TIP3   OH238614   7.396   0.318   4.163
12890TIP3    H138615   7.376   0.384   4.229
12890TIP3    H238616   7.352   0.348   4.084
12891TIP3   OH238617   6.266   6.980   0.423
12891TIP3    H138618   6.176   6.953   0.439
12891TIP3    H238619   6.265   7.011   0.332
12892TIP3   OH238620   4.644   7.235   5.836
12892TIP3    H138621   4.724   7.231   5.784
12892TIP3    H238622   4.634   7.328   5.856
12893TIP3   OH238623   7.307   7.685   0.570
12893TIP3    H138624   7.394   7.725   0.567
12893TIP3    H238625   7.283   7.688   0.663
12894TIP3   OH238626   6.346   5.155   2.020
12894TIP3    H138627   6.313   5.081   2.072
12894TIP3    H238628   6.337   5.126   1.929
12895TIP3   OH238629   1.203   4.313   6.074
12895TIP3    H138630   1.180   4.339   6.163
12895TIP3    H238631   1.172   4.384   6.018
12896TIP3   OH238632   1.562   2.566   4.346
12896TIP3    H138633   1.479   2.559   4.299
12896TIP3    H238634   1.627   2.535   4.283
12897TIP3   OH238635   6.486   0.608   4.338
12897TIP3    H138636   6.564   0.660   4.357
12897TIP3    H238637   6.454   0.643   4.255
12898TIP3   OH238638   4.997   6.989   1.694
12898TIP3    H138639   4.919   7.034   1.727
12898TIP3    H238640   5.000   6.907   1.743
12899TIP3   OH238641   7.762   5.618   6.755
12899TIP3    H138642   7.758   5.596   6.848
12899TIP3    H238643   7.794   5.538   6.713
12900TIP3   OH238644   3.019   4.108   3.461
12900TIP3    H138645   2.928   4.095   3.435
12900TIP3    H238646   3.066   4.035   3.421
12901TIP3   OH238647   1.973   7.323   3.689
12901TIP3    H138648   1.993   7.287   3.602
12901TIP3    H238649   1.886   7.360   3.680
12902TIP3   OH238650   7.578   1.724   4.807
12902TIP3    H138651   7.666   1.708   4.843
12902TIP3    H238652   7.522   1.728   4.884
12903TIP3   OH238653   4.718   5.775   3.281
12903TIP3    H138654   4.781   5.847   3.269
12903TIP3    H238655   4.644   5.799   3.226
12904TIP3   OH238656   6.836   1.092   6.012
12904TIP3    H138657   6.837   1.187   6.010
12904TIP3    H238658   6.903   1.065   5.948
12905TIP3   OH238659   1.709   5.912   2.890
12905TIP3    H138660   1.697   5.974   2.962
12905TIP3    H238661   1.766   5.957   2.828
12906TIP3   OH238662   7.531   3.484   4.569
12906TIP3    H138663   7.555   3.556   4.511
12906TIP3    H238664   7.439   3.499   4.590
12907TIP3   OH238665   4.601   6.426   3.048
12907TIP3    H138666   4.594   6.340   3.007
12907TIP3    H238667   4.617   6.486   2.975
12908TIP3   OH238668   5.965   3.032   4.892
12908TIP3    H138669   5.958   3.068   4.980
12908TIP3    H238670   5.906   3.085   4.839
12909TIP3   OH238671   3.262   2.776   3.629
12909TIP3    H138672   3.313   2.718   3.686
12909TIP3    H238673   3.289   2.864   3.655
12910TIP3   OH238674   3.067   0.039   4.815
12910TIP3    H138675   3.056   0.123   4.771
12910TIP3    H238676   2.978   0.015   4.844
12911TIP3   OH238677   6.536   4.429   0.574
12911TIP3    H138678   6.628   4.432   0.601
12911TIP3    H238679   6.536   4.367   0.500
12912TIP3   OH238680   7.278   5.038   0.248
12912TIP3    H138681   7.220   4.999   0.313
12912TIP3    H238682   7.342   5.086   0.300
12913TIP3   OH238683   7.639   0.809   0.351
12913TIP3    H138684   7.651   0.762   0.433
12913TIP3    H238685   7.716   0.867   0.345
12914TIP3   OH238686   1.232   1.672   4.347
12914TIP3    H138687   1.190   1.723   4.277
12914TIP3    H238688   1.288   1.736   4.392
12915TIP3   OH238689   0.349   1.742   0.704
12915TIP3    H138690   0.435   1.753   0.665
12915TIP3    H238691   0.352   1.656   0.745
12916TIP3   OH238692   7.829   2.349   4.655
12916TIP3    H138693   7.796   2.435   4.683
12916TIP3    H238694   7.858   2.307   4.736
12917TIP3   OH238695   1.506   0.453   4.119
12917TIP3    H138696   1.550   0.370   4.136
12917TIP3    H238697   1.499   0.494   4.205
12918TIP3   OH238698   2.042   4.808   5.495
12918TIP3    H138699   2.119   4.865   5.505
12918TIP3    H238700   2.050   4.771   5.407
12919TIP3   OH238701   6.536   5.495   3.018
12919TIP3    H138702   6.555   5.579   3.060
12919TIP3    H238703   6.469   5.456   3.073
12920TIP3   OH238704   8.216   5.523   5.023
12920TIP3    H138705   8.165   5.489   5.097
12920TIP3    H238706   8.153   5.526   4.950
12921TIP3   OH238707   7.817   3.754   3.684
12921TIP3    H138708   7.768   3.815   3.629
12921TIP3    H238709   7.752   3.692   3.716
12922TIP3   OH238710   8.310   6.958   5.017
12922TIP3    H138711   8.353   6.887   4.970
12922TIP3    H238712   8.219   6.929   5.027
12923TIP3   OH238713   4.900   6.286   3.270
12923TIP3    H138714   4.967   6.293   3.338
12923TIP3    H238715   4.819   6.315   3.312
12924TIP3   OH238716   6.896   4.108   1.137
12924TIP3    H138717   6.893   4.038   1.072
12924TIP3    H238718   6.912   4.187   1.086
12925TIP3   OH238719   8.157   6.692   1.604
12925TIP3    H138720   8.086   6.757   1.598
12925TIP3    H238721   8.122   6.615   1.560
12926TIP3   OH238722   5.872   3.477   0.101
12926TIP3    H138723   5.868   3.388   0.065
12926TIP3    H238724   5.886   3.533   0.024
12927TIP3   OH238725   2.081   5.146   5.746
12927TIP3    H138726   2.121   5.140   5.833
12927TIP3    H238727   1.991   5.114   5.759
12928TIP3   OH238728   5.517   6.913   6.583
12928TIP3    H138729   5.477   6.951   6.505
12928TIP3    H238730   5.594   6.967   6.600
12929TIP3   OH238731   5.485   1.941   5.874
12929TIP3    H138732   5.415   1.892   5.831
12929TIP3    H238733   5.516   2.003   5.808
12930TIP3   OH238734   4.653   4.667   4.956
12930TIP3    H138735   4.693   4.727   5.019
12930TIP3    H238736   4.713   4.667   4.881
12931TIP3   OH238737   6.298   1.340   0.424
12931TIP3    H138738   6.213   1.352   0.465
12931TIP3    H238739   6.361   1.372   0.489
12932TIP3   OH238740   4.676   2.571   3.798
12932TIP3    H138741   4.659   2.482   3.830
12932TIP3    H238742   4.770   2.572   3.781
12933TIP3   OH238743   2.465   3.281   2.880
12933TIP3    H138744   2.503   3.198   2.909
12933TIP3    H238745   2.541   3.334   2.852
12934TIP3   OH238746   3.112   3.636   6.322
12934TIP3    H138747   3.108   3.714   6.377
12934TIP3    H238748   3.077   3.665   6.238
12935TIP3   OH238749   3.754   0.603   2.402
12935TIP3    H138750   3.795   0.656   2.470
12935TIP3    H238751   3.772   0.512   2.427
12936TIP3   OH238752   4.424   2.185   2.775
12936TIP3    H138753   4.351   2.177   2.836
12936TIP3    H238754   4.438   2.279   2.766
12937TIP3   OH238755   0.448   0.431   3.110
12937TIP3    H138756   0.423   0.338   3.113
12937TIP3    H238757   0.379   0.472   3.058
12938TIP3   OH238758   0.859   0.691   5.641
12938TIP3    H138759   0.873   0.660   5.731
12938TIP3    H238760   0.847   0.785   5.650
12939TIP3   OH238761   5.815   4.957   4.711
12939TIP3    H138762   5.782   4.867   4.714
12939TIP3    H238763   5.736   5.011   4.709
12940TIP3   OH238764   5.173   1.175   2.321
12940TIP3    H138765   5.090   1.143   2.356
12940TIP3    H238766   5.215   1.220   2.395
12941TIP3   OH238767   5.036   5.079   4.082
12941TIP3    H138768   4.963   5.126   4.043
12941TIP3    H238769   5.114   5.117   4.040
12942TIP3   OH238770   2.776   4.828   0.092
12942TIP3    H138771   2.827   4.774   0.032
12942TIP3    H238772   2.821   4.913   0.093
12943TIP3   OH238773   8.140   1.019   1.224
12943TIP3    H138774   8.096   0.935   1.210
12943TIP3    H238775   8.205   1.024   1.154
12944TIP3   OH238776   4.284   2.731   5.493
12944TIP3    H138777   4.269   2.706   5.585
12944TIP3    H238778   4.197   2.741   5.456
12945TIP3   OH238779   8.292   2.249  -0.015
12945TIP3    H138780   8.206   2.207  -0.006
12945TIP3    H238781   8.333   2.237   0.071
12946TIP3   OH238782   3.819   1.441   6.398
12946TIP3    H138783   3.790   1.479   6.315
12946TIP3    H238784   3.819   1.347   6.383
12947TIP3   OH238785   7.134   0.787   5.057
12947TIP3    H138786   7.135   0.714   5.118
12947TIP3    H238787   7.226   0.811   5.046
12948TIP3   OH238788   6.774   1.738   5.875
12948TIP3    H138789   6.712   1.681   5.829
12948TIP3    H238790   6.732   1.825   5.872
12949TIP3   OH238791   4.930   3.802   3.780
12949TIP3    H138792   4.900   3.861   3.849
12949TIP3    H238793   4.992   3.854   3.729
12950TIP3   OH238794   8.298   1.209   0.730
12950TIP3    H138795   8.317   1.212   0.636
12950TIP3    H238796   8.254   1.125   0.742
12951TIP3   OH238797   3.016   7.373   3.029
12951TIP3    H138798   3.097   7.404   2.988
12951TIP3    H238799   2.974   7.318   2.962
12952TIP3   OH238800   7.770   7.534   1.712
12952TIP3    H138801   7.682   7.551   1.680
12952TIP3    H238802   7.783   7.598   1.782
12953TIP3   OH238803   2.664   3.758   4.321
12953TIP3    H138804   2.678   3.667   4.346
12953TIP3    H238805   2.650   3.755   4.227
12954TIP3   OH238806   4.234   6.922   2.707
12954TIP3    H138807   4.161   6.877   2.749
12954TIP3    H238808   4.295   6.940   2.778
12955TIP3   OH238809   4.045   2.693   1.459
12955TIP3    H138810   4.097   2.622   1.497
12955TIP3    H238811   4.055   2.765   1.521
12956TIP3   OH238812   1.762   6.986   6.415
12956TIP3    H138813   1.722   7.063   6.375
12956TIP3    H238814   1.700   6.915   6.399
12957TIP3   OH238815   1.579   3.283   0.900
12957TIP3    H138816   1.629   3.243   0.971
12957TIP3    H238817   1.643   3.334   0.851
12958TIP3   OH238818   2.299   0.430   0.917
12958TIP3    H138819   2.212   0.424   0.956
12958TIP3    H238820   2.285   0.472   0.832
12959TIP3   OH238821   7.104   7.037   3.916
12959TIP3    H138822   7.024   6.985   3.904
12959TIP3    H238823   7.138   7.049   3.827
12960TIP3   OH238824   2.230   6.128   0.933
12960TIP3    H138825   2.288   6.199   0.904
12960TIP3    H238826   2.223   6.140   1.028
12961TIP3   OH238827   3.522   5.838   2.915
12961TIP3    H138828   3.469   5.807   2.841
12961TIP3    H238829   3.560   5.758   2.952
12962TIP3   OH238830   7.284   6.432   4.835
12962TIP3    H138831   7.320   6.491   4.769
12962TIP3    H238832   7.190   6.433   4.820
12963TIP3   OH238833   5.868   6.575   3.546
12963TIP3    H138834   5.892   6.657   3.504
12963TIP3    H238835   5.784   6.552   3.508
12964TIP3   OH238836   1.541   3.614   2.940
12964TIP3    H138837   1.573   3.608   2.850
12964TIP3    H238838   1.581   3.694   2.975
12965TIP3   OH238839   7.293   5.454   6.168
12965TIP3    H138840   7.280   5.397   6.243
12965TIP3    H238841   7.299   5.542   6.205
12966TIP3   OH238842   7.203   7.769   3.398
12966TIP3    H138843   7.260   7.727   3.461
12966TIP3    H238844   7.117   7.771   3.441
12967TIP3   OH238845   1.344   5.042   4.856
12967TIP3    H138846   1.301   4.975   4.803
12967TIP3    H238847   1.404   4.993   4.913
12968TIP3   OH238848   4.804   3.238   5.709
12968TIP3    H138849   4.868   3.306   5.686
12968TIP3    H238850   4.815   3.226   5.803
12969TIP3   OH238851   0.541   1.743   4.081
12969TIP3    H138852   0.484   1.701   4.016
12969TIP3    H238853   0.626   1.749   4.039
12970TIP3   OH238854   7.003   0.373   4.174
12970TIP3    H138855   7.063   0.418   4.233
12970TIP3    H238856   6.922   0.363   4.224
12971TIP3   OH238857   4.092   6.567   0.638
12971TIP3    H138858   4.078   6.506   0.565
12971TIP3    H238859   4.184   6.554   0.662
12972TIP3   OH238860   8.006   0.752   0.201
12972TIP3    H138861   7.943   0.696   0.156
12972TIP3    H238862   7.955   0.828   0.229
12973TIP3   OH238863   1.469   1.903   0.485
12973TIP3    H138864   1.503   1.852   0.558
12973TIP3    H238865   1.534   1.971   0.471
12974TIP3   OH238866   6.265   2.893   5.315
12974TIP3    H138867   6.206   2.939   5.374
12974TIP3    H238868   6.346   2.943   5.317
12975TIP3   OH238869   3.703   4.030   1.537
12975TIP3    H138870   3.787   4.005   1.576
12975TIP3    H238871   3.719   4.116   1.497
12976TIP3   OH238872   1.134   5.498   4.922
12976TIP3    H138873   1.121   5.463   4.834
12976TIP3    H238874   1.190   5.575   4.908
12977TIP3   OH238875   5.469   0.547   2.688
12977TIP3    H138876   5.529   0.521   2.618
12977TIP3    H238877   5.382   0.543   2.647
12978TIP3   OH238878   0.961   2.280   1.372
12978TIP3    H138879   1.004   2.341   1.312
12978TIP3    H238880   1.029   2.218   1.398
12979TIP3   OH238881   0.814   5.235   5.831
12979TIP3    H138882   0.823   5.321   5.873
12979TIP3    H238883   0.722   5.212   5.844
12980TIP3   OH238884   5.549   0.246   5.684
12980TIP3    H138885   5.506   0.166   5.715
12980TIP3    H238886   5.486   0.316   5.702
12981TIP3   OH238887   0.296   0.644   0.201
12981TIP3    H138888   0.243   0.565   0.211
12981TIP3    H238889   0.372   0.629   0.258
12982TIP3   OH238890   6.285   1.967   1.395
12982TIP3    H138891   6.273   2.038   1.332
12982TIP3    H238892   6.371   1.930   1.374
12983TIP3   OH238893   5.106   1.022   3.394
12983TIP3    H138894   5.077   0.990   3.309
12983TIP3    H238895   5.200   1.005   3.395
12984TIP3   OH238896   4.381   6.013   1.773
12984TIP3    H138897   4.447   5.947   1.754
12984TIP3    H238898   4.303   5.983   1.726
12985TIP3   OH238899   8.143   6.944   6.797
12985TIP3    H138900   8.176   7.020   6.750
12985TIP3    H238901   8.168   6.869   6.743
12986TIP3   OH238902   4.048   1.593   4.039
12986TIP3    H138903   3.953   1.603   4.051
12986TIP3    H238904   4.057   1.504   4.005
12987TIP3   OH238905   7.171   2.779   4.749
12987TIP3    H138906   7.098   2.718   4.753
12987TIP3    H238907   7.180   2.800   4.656
12988TIP3   OH238908   0.163   3.096   3.290
12988TIP3    H138909   0.179   3.181   3.330
12988TIP3    H238910   0.210   3.034   3.346
12989TIP3   OH238911   1.847   7.480   6.585
12989TIP3    H138912   1.820   7.393   6.616
12989TIP3    H238913   1.854   7.532   6.664
12990TIP3   OH238914   2.791   5.043   4.764
12990TIP3    H138915   2.818   5.115   4.707
12990TIP3    H238916   2.795   5.080   4.853
12991TIP3   OH238917   5.554   2.170   1.618
12991TIP3    H138918   5.615   2.211   1.556
12991TIP3    H238919   5.510   2.102   1.566
12992TIP3   OH238920   0.263   2.153   2.879
12992TIP3    H138921   0.314   2.165   2.959
12992TIP3    H238922   0.176   2.129   2.909
12993TIP3   OH238923   2.265   2.644   5.673
12993TIP3    H138924   2.201   2.590   5.718
12993TIP3    H238925   2.284   2.715   5.734
12994TIP3   OH238926   6.101   7.178   4.078
12994TIP3    H138927   6.143   7.264   4.076
12994TIP3    H238928   6.059   7.173   4.164
12995TIP3   OH238929   0.726   4.999   2.536
12995TIP3    H138930   0.682   5.085   2.540
12995TIP3    H238931   0.757   4.993   2.446
12996TIP3   OH238932   1.198   0.464   3.687
12996TIP3    H138933   1.238   0.536   3.736
12996TIP3    H238934   1.160   0.506   3.610
12997TIP3   OH238935   4.685   4.988   5.138
12997TIP3    H138936   4.613   4.988   5.074
12997TIP3    H238937   4.701   5.081   5.156
12998TIP3   OH238938   1.634   5.792   5.148
12998TIP3    H138939   1.656   5.754   5.233
12998TIP3    H238940   1.595   5.720   5.099
12999TIP3   OH238941   5.847   2.985   3.612
12999TIP3    H138942   5.794   3.057   3.645
12999TIP3    H238943   5.926   2.987   3.666
13000TIP3   OH238944   6.803   4.675   3.919
13000TIP3    H138945   6.741   4.737   3.882
13000TIP3    H238946   6.880   4.728   3.940
13001TIP3   OH238947   7.778   4.972   0.477
13001TIP3    H138948   7.759   5.041   0.541
13001TIP3    H238949   7.858   4.931   0.510
13002TIP3   OH238950   2.283   5.094   6.665
13002TIP3    H138951   2.223   5.020   6.674
13002TIP3    H238952   2.277   5.141   6.748
13003TIP3   OH238953   6.779   2.727   3.673
13003TIP3    H138954   6.851   2.665   3.673
13003TIP3    H238955   6.747   2.728   3.583
13004TIP3   OH238956   5.478   4.718   4.882
13004TIP3    H138957   5.468   4.801   4.928
13004TIP3    H238958   5.406   4.664   4.914
13005TIP3   OH238959   1.470   4.519   6.531
13005TIP3    H138960   1.405   4.527   6.600
13005TIP3    H238961   1.439   4.579   6.463
13006TIP3   OH238962   0.382   3.010   6.417
13006TIP3    H138963   0.426   3.070   6.478
13006TIP3    H238964   0.434   2.931   6.420
13007TIP3   OH238965   2.683   0.106   1.448
13007TIP3    H138966   2.741   0.180   1.468
13007TIP3    H238967   2.720   0.067   1.369
13008TIP3   OH238968   6.643   7.002   3.825
13008TIP3    H138969   6.594   6.925   3.797
13008TIP3    H238970   6.721   7.001   3.770
13009TIP3   OH238971   5.836   7.566   2.474
13009TIP3    H138972   5.800   7.650   2.447
13009TIP3    H238973   5.820   7.507   2.400
13010TIP3   OH238974   6.026   2.070   6.630
13010TIP3    H138975   5.942   2.042   6.595
13010TIP3    H238976   6.008   2.091   6.722
13011TIP3   OH238977   5.908   7.604   3.816
13011TIP3    H138978   5.818   7.575   3.834
13011TIP3    H238979   5.921   7.678   3.874
13012TIP3   OH238980   7.842   0.463   3.696
13012TIP3    H138981   7.913   0.519   3.726
13012TIP3    H238982   7.830   0.487   3.604
13013TIP3   OH238983   4.955   5.283   6.221
13013TIP3    H138984   5.028   5.323   6.172
13013TIP3    H238985   4.910   5.358   6.260
13014TIP3   OH238986   6.518   4.259   1.271
13014TIP3    H138987   6.541   4.176   1.313
13014TIP3    H238988   6.426   4.247   1.245
13015TIP3   OH238989   0.097   3.942   3.077
13015TIP3    H138990   0.058   3.938   3.164
13015TIP3    H238991   0.023   3.934   3.017
13016TIP3   OH238992   4.616   5.651   0.312
13016TIP3    H138993   4.528   5.635   0.281
13016TIP3    H238994   4.605   5.677   0.404
13017TIP3   OH238995   6.352   5.684   4.952
13017TIP3    H138996   6.395   5.769   4.963
13017TIP3    H238997   6.423   5.623   4.930
13018TIP3   OH238998   1.169   7.403   3.625
13018TIP3    H138999   1.118   7.408   3.705
13018TIP3    H239000   1.121   7.341   3.570
13019TIP3   OH239001   1.485   7.174   2.542
13019TIP3    H139002   1.439   7.091   2.538
13019TIP3    H239003   1.577   7.150   2.556
13020TIP3   OH239004   7.768   3.698   6.060
13020TIP3    H139005   7.684   3.719   6.020
13020TIP3    H239006   7.771   3.602   6.062
13021TIP3   OH239007   2.857   6.139   2.609
13021TIP3    H139008   2.883   6.184   2.690
13021TIP3    H239009   2.836   6.050   2.638
13022TIP3   OH239010   1.828   5.614   5.717
13022TIP3    H139011   1.884   5.605   5.640
13022TIP3    H239012   1.864   5.552   5.781
13023TIP3   OH239013   4.016   4.690   5.767
13023TIP3    H139014   4.103   4.659   5.740
13023TIP3    H239015   4.020   4.690   5.863
13024TIP3   OH239016   5.825   4.396   4.660
13024TIP3    H139017   5.888   4.395   4.732
13024TIP3    H239018   5.879   4.398   4.581
13025TIP3   OH239019   5.041   2.822   0.193
13025TIP3    H139020   4.973   2.761   0.162
13025TIP3    H239021   4.998   2.908   0.190
13026TIP3   OH239022   1.928   4.985   2.998
13026TIP3    H139023   1.857   4.966   2.937
13026TIP3    H239024   1.885   4.999   3.082
13027TIP3   OH239025   6.253   3.293   0.753
13027TIP3    H139026   6.208   3.340   0.823
13027TIP3    H239027   6.343   3.283   0.784
13028TIP3   OH239028   1.685   3.619   1.485
13028TIP3    H139029   1.638   3.619   1.569
13028TIP3    H239030   1.659   3.537   1.443
13029TIP3   OH239031   5.750   4.841   3.491
13029TIP3    H139032   5.668   4.842   3.441
13029TIP3    H239033   5.769   4.748   3.502
13030TIP3   OH239034   7.005   3.028   1.884
13030TIP3    H139035   7.022   2.945   1.928
13030TIP3    H239036   7.092   3.059   1.857
13031TIP3   OH239037   4.665   6.198   2.926
13031TIP3    H139038   4.586   6.167   2.881
13031TIP3    H239039   4.729   6.128   2.914
13032TIP3   OH239040   7.452   7.468   6.350
13032TIP3    H139041   7.378   7.412   6.372
13032TIP3    H239042   7.427   7.555   6.381
13033TIP3   OH239043   2.651   1.403   3.814
13033TIP3    H139044   2.621   1.475   3.869
13033TIP3    H239045   2.624   1.428   3.725
13034TIP3   OH239046   6.255   2.256   5.944
13034TIP3    H139047   6.180   2.213   5.987
13034TIP3    H239048   6.273   2.200   5.869
13035TIP3   OH239049   3.212   7.427   6.040
13035TIP3    H139050   3.288   7.418   5.983
13035TIP3    H239051   3.247   7.419   6.129
13036TIP3   OH239052   3.239   7.270   4.394
13036TIP3    H139053   3.223   7.233   4.307
13036TIP3    H239054   3.281   7.354   4.378
13037TIP3   OH239055   3.253   0.006   5.036
13037TIP3    H139056   3.288   0.091   5.009
13037TIP3    H239057   3.177  -0.008   4.979
13038TIP3   OH239058   6.919   0.636   0.512
13038TIP3    H139059   6.974   0.712   0.493
13038TIP3    H239060   6.949   0.605   0.597
13039TIP3   OH239061   6.049   0.778   2.462
13039TIP3    H139062   6.069   0.869   2.441
13039TIP3    H239063   6.054   0.733   2.378
13040TIP3   OH239064   3.661   3.970   2.743
13040TIP3    H139065   3.579   3.932   2.712
13040TIP3    H239066   3.697   3.904   2.803
13041TIP3   OH239067   4.346   2.253   4.145
13041TIP3    H139068   4.289   2.194   4.194
13041TIP3    H239069   4.323   2.341   4.174
13042TIP3   OH239070   7.090   4.942   0.412
13042TIP3    H139071   7.061   4.852   0.430
13042TIP3    H239072   7.029   4.997   0.462
13043TIP3   OH239073   8.239   3.624   5.095
13043TIP3    H139074   8.216   3.536   5.062
13043TIP3    H239075   8.187   3.684   5.041
13044TIP3   OH239076   5.633   4.206   1.190
13044TIP3    H139077   5.541   4.224   1.168
13044TIP3    H239078   5.649   4.258   1.269
13045TIP3   OH239079   6.661   1.616   1.216
13045TIP3    H139080   6.654   1.614   1.120
13045TIP3    H239081   6.591   1.675   1.243
13046TIP3   OH239082   0.351   5.374   3.225
13046TIP3    H139083   0.372   5.386   3.132
13046TIP3    H239084   0.274   5.429   3.240
13047TIP3   OH239085   2.607   3.423   2.286
13047TIP3    H139086   2.624   3.507   2.243
13047TIP3    H239087   2.627   3.439   2.378
13048TIP3   OH239088   5.699   0.794   0.057
13048TIP3    H139089   5.785   0.831   0.079
13048TIP3    H239090   5.686   0.819  -0.034
13049TIP3   OH239091   2.494   2.990   0.575
13049TIP3    H139092   2.478   2.922   0.510
13049TIP3    H239093   2.467   3.071   0.533
13050TIP3   OH239094   3.700   7.843   3.739
13050TIP3    H139095   3.732   7.760   3.705
13050TIP3    H239096   3.772   7.876   3.794
13051TIP3   OH239097   6.640   3.235   2.224
13051TIP3    H139098   6.597   3.310   2.265
13051TIP3    H239099   6.698   3.273   2.158
13052TIP3   OH239100   2.068   1.024   3.632
13052TIP3    H139101   2.005   1.096   3.643
13052TIP3    H239102   2.014   0.948   3.610
13053TIP3   OH239103   4.654   3.734   3.736
13053TIP3    H139104   4.747   3.739   3.758
13053TIP3    H239105   4.630   3.823   3.712
13054TIP3   OH239106   5.698   2.004   0.128
13054TIP3    H139107   5.676   1.954   0.207
13054TIP3    H239108   5.628   2.069   0.120
13055TIP3   OH239109   0.454   1.395   1.728
13055TIP3    H139110   0.485   1.382   1.818
13055TIP3    H239111   0.525   1.362   1.673
13056TIP3   OH239112   6.187   4.108   0.694
13056TIP3    H139113   6.281   4.093   0.703
13056TIP3    H239114   6.177   4.144   0.605
13057TIP3   OH239115   2.100   0.346   2.366
13057TIP3    H139116   2.084   0.252   2.361
13057TIP3    H239117   2.017   0.384   2.393
13058TIP3   OH239118   1.423   3.334   2.958
13058TIP3    H139119   1.461   3.414   2.994
13058TIP3    H239120   1.334   3.332   2.993
13059TIP3   OH239121   6.087   0.078   6.752
13059TIP3    H139122   6.124   0.165   6.771
13059TIP3    H239123   6.013   0.096   6.694
13060TIP3   OH239124   0.386   7.446   1.544
13060TIP3    H139125   0.358   7.408   1.460
13060TIP3    H239126   0.308   7.446   1.599
13061TIP3   OH239127   2.630   2.116   3.456
13061TIP3    H139128   2.619   2.211   3.467
13061TIP3    H239129   2.704   2.108   3.396
13062TIP3   OH239130   7.905   4.880   1.058
13062TIP3    H139131   7.886   4.805   1.115
13062TIP3    H239132   7.998   4.872   1.038
13063TIP3   OH239133   7.313   6.054   3.419
13063TIP3    H139134   7.250   6.046   3.347
13063TIP3    H239135   7.334   6.147   3.422
13064TIP3   OH239136   0.307   2.181   5.592
13064TIP3    H139137   0.355   2.222   5.664
13064TIP3    H239138   0.280   2.254   5.536
13065TIP3   OH239139   0.071   4.110   0.575
13065TIP3    H139140   0.104   4.197   0.554
13065TIP3    H239141   0.122   4.083   0.651
13066TIP3   OH239142   2.776   5.048   6.462
13066TIP3    H139143   2.683   5.048   6.484
13066TIP3    H239144   2.819   5.016   6.541
13067TIP3   OH239145   4.389   4.994   6.051
13067TIP3    H139146   4.348   5.081   6.050
13067TIP3    H239147   4.478   5.010   6.083
13068TIP3   OH239148   5.409   0.785   0.475
13068TIP3    H139149   5.463   0.735   0.414
13068TIP3    H239150   5.432   0.751   0.561
13069TIP3   OH239151   3.229   0.870   0.771
13069TIP3    H139152   3.302   0.815   0.744
13069TIP3    H239153   3.171   0.873   0.695
13070TIP3   OH239154   0.230   5.906   3.436
13070TIP3    H139155   0.237   5.988   3.386
13070TIP3    H239156   0.259   5.929   3.524
13071TIP3   OH239157   6.216   2.694   5.513
13071TIP3    H139158   6.290   2.668   5.569
13071TIP3    H239159   6.256   2.746   5.444
13072TIP3   OH239160   3.631   3.959   1.829
13072TIP3    H139161   3.687   3.988   1.757
13072TIP3    H239162   3.542   3.964   1.794
13073TIP3   OH239163   7.909   1.432   6.175
13073TIP3    H139164   7.999   1.407   6.200
13073TIP3    H239165   7.875   1.356   6.129
13074TIP3   OH239166   3.987   7.421   0.040
13074TIP3    H139167   4.006   7.408   0.133
13074TIP3    H239168   3.950   7.338   0.011
13075TIP3   OH239169   2.476   0.201   6.658
13075TIP3    H139170   2.507   0.247   6.736
13075TIP3    H239171   2.434   0.122   6.693
13076TIP3   OH239172   8.084   6.012   3.222
13076TIP3    H139173   8.107   6.036   3.133
13076TIP3    H239174   8.159   6.041   3.275
13077TIP3   OH239175   2.650   2.924   2.671
13077TIP3    H139176   2.557   2.937   2.652
13077TIP3    H239177   2.678   2.856   2.610
13078TIP3   OH239178   1.181   1.052   1.217
13078TIP3    H139179   1.176   1.142   1.187
13078TIP3    H239180   1.260   1.048   1.271
13079TIP3   OH239181   6.374   0.001   5.530
13079TIP3    H139182   6.430  -0.069   5.564
13079TIP3    H239183   6.425   0.081   5.544
13080TIP3   OH239184   6.819   5.903   0.402
13080TIP3    H139185   6.837   5.988   0.362
13080TIP3    H239186   6.882   5.844   0.362
13081TIP3   OH239187   5.625   1.400   1.166
13081TIP3    H139188   5.573   1.442   1.098
13081TIP3    H239189   5.581   1.316   1.182
13082TIP3   OH239190   4.986   5.466   4.936
13082TIP3    H139191   5.036   5.482   4.856
13082TIP3    H239192   5.051   5.431   4.998
13083TIP3   OH239193   6.047   3.906   3.126
13083TIP3    H139194   6.102   3.921   3.203
13083TIP3    H239195   5.989   3.834   3.151
13084TIP3   OH239196   0.966   7.686   1.130
13084TIP3    H139197   0.908   7.691   1.206
13084TIP3    H239198   0.970   7.776   1.097
13085TIP3   OH239199   1.771   2.456   2.142
13085TIP3    H139200   1.762   2.546   2.110
13085TIP3    H239201   1.865   2.439   2.140
13086TIP3   OH239202   3.549   7.357   5.284
13086TIP3    H139203   3.480   7.396   5.230
13086TIP3    H239204   3.515   7.271   5.308
13087TIP3   OH239205   1.717   6.708   1.223
13087TIP3    H139206   1.692   6.620   1.196
13087TIP3    H239207   1.635   6.754   1.237
13088TIP3   OH239208   3.623   1.547   0.402
13088TIP3    H139209   3.602   1.478   0.464
13088TIP3    H239210   3.675   1.610   0.453
13089TIP3   OH239211   2.107   6.779   5.466
13089TIP3    H139212   2.050   6.734   5.528
13089TIP3    H239213   2.091   6.872   5.483
13090TIP3   OH239214   6.107   0.398   4.452
13090TIP3    H139215   6.164   0.426   4.381
13090TIP3    H239216   6.072   0.314   4.422
13091TIP3   OH239217   5.769   1.920   2.831
13091TIP3    H139218   5.768   1.972   2.751
13091TIP3    H239219   5.746   1.832   2.803
13092TIP3   OH239220   1.701   5.507   1.813
13092TIP3    H139221   1.724   5.477   1.900
13092TIP3    H239222   1.783   5.501   1.763
13093TIP3   OH239223   3.969   5.477   0.442
13093TIP3    H139224   3.956   5.493   0.349
13093TIP3    H239225   3.951   5.561   0.484
13094TIP3   OH239226   1.131   0.069   6.518
13094TIP3    H139227   1.037   0.055   6.523
13094TIP3    H239228   1.153   0.115   6.599
13095TIP3   OH239229   4.089   2.484   3.454
13095TIP3    H139230   4.009   2.479   3.507
13095TIP3    H239231   4.139   2.556   3.493
13096TIP3   OH239232   0.493   1.301   5.844
13096TIP3    H139233   0.549   1.265   5.776
13096TIP3    H239234   0.417   1.243   5.848
13097TIP3   OH239235   3.202   5.402   5.985
13097TIP3    H139236   3.281   5.456   5.993
13097TIP3    H239237   3.138   5.444   6.042
13098TIP3   OH239238   4.281   7.259   2.890
13098TIP3    H139239   4.292   7.228   2.980
13098TIP3    H239240   4.283   7.355   2.897
13099TIP3   OH239241   5.526   6.822   5.552
13099TIP3    H139242   5.571   6.864   5.479
13099TIP3    H239243   5.550   6.730   5.545
13100TIP3   OH239244   4.829   5.512   5.362
13100TIP3    H139245   4.834   5.510   5.266
13100TIP3    H239246   4.746   5.556   5.380
13101TIP3   OH239247   6.751   2.793   1.960
13101TIP3    H139248   6.736   2.887   1.946
13101TIP3    H239249   6.709   2.750   1.886
13102TIP3   OH239250   7.870   5.661   2.575
13102TIP3    H139251   7.811   5.700   2.639
13102TIP3    H239252   7.942   5.724   2.567
13103TIP3   OH239253   4.814   6.854   2.103
13103TIP3    H139254   4.733   6.857   2.153
13103TIP3    H239255   4.883   6.864   2.168
13104TIP3   OH239256   7.925   1.715   1.411
13104TIP3    H139257   7.979   1.690   1.485
13104TIP3    H239258   7.984   1.764   1.353
13105TIP3   OH239259   5.609   5.828   6.081
13105TIP3    H139260   5.547   5.779   6.136
13105TIP3    H239261   5.554   5.886   6.028
13106TIP3   OH239262   4.493   1.205   2.104
13106TIP3    H139263   4.580   1.222   2.140
13106TIP3    H239264   4.445   1.287   2.119
13107TIP3   OH239265   2.876   0.945   4.123
13107TIP3    H139266   2.804   0.977   4.179
13107TIP3    H239267   2.930   1.023   4.109
13108TIP3   OH239268   7.522   5.915   5.900
13108TIP3    H139269   7.567   5.923   5.816
13108TIP3    H239270   7.579   5.860   5.953
13109TIP3   OH239271   1.622   1.622   4.277
13109TIP3    H139272   1.665   1.556   4.330
13109TIP3    H239273   1.682   1.697   4.278
13110TIP3   OH239274   0.838   1.278   2.834
13110TIP3    H139275   0.837   1.183   2.838
13110TIP3    H239276   0.749   1.302   2.810
13111TIP3   OH239277   0.266   2.871   2.349
13111TIP3    H139278   0.348   2.823   2.366
13111TIP3    H239279   0.203   2.802   2.329
13112TIP3   OH239280   0.180   6.894   5.248
13112TIP3    H139281   0.085   6.904   5.240
13112TIP3    H239282   0.213   6.899   5.158
13113TIP3   OH239283   5.189   6.275   0.134
13113TIP3    H139284   5.233   6.304   0.214
13113TIP3    H239285   5.195   6.350   0.075
13114TIP3   OH239286   2.901   0.088   6.289
13114TIP3    H139287   2.985   0.128   6.314
13114TIP3    H239288   2.862   0.151   6.228
13115TIP3   OH239289   3.771   1.605   2.952
13115TIP3    H139290   3.808   1.596   2.864
13115TIP3    H239291   3.731   1.520   2.970
13116TIP3   OH239292   4.620   3.502   4.418
13116TIP3    H139293   4.609   3.475   4.509
13116TIP3    H239294   4.550   3.456   4.371
13117TIP3   OH239295   7.114   7.268   4.402
13117TIP3    H139296   7.061   7.291   4.478
13117TIP3    H239297   7.203   7.261   4.436
13118TIP3   OH239298   6.706   0.897   5.100
13118TIP3    H139299   6.613   0.887   5.119
13118TIP3    H239300   6.750   0.845   5.167
13119TIP3   OH239301   4.811   4.949   6.313
13119TIP3    H139302   4.890   4.985   6.271
13119TIP3    H239303   4.842   4.868   6.355
13120TIP3   OH239304   6.370   4.410   6.181
13120TIP3    H139305   6.350   4.381   6.091
13120TIP3    H239306   6.462   4.436   6.177
13121TIP3   OH239307   6.011   1.754   0.083
13121TIP3    H139308   5.973   1.781   0.167
13121TIP3    H239309   6.020   1.659   0.091
13122TIP3   OH239310   6.922   0.229   2.514
13122TIP3    H139311   6.875   0.158   2.471
13122TIP3    H239312   6.971   0.186   2.585
13123TIP3   OH239313   5.388   6.873   2.114
13123TIP3    H139314   5.406   6.885   2.207
13123TIP3    H239315   5.307   6.923   2.099
13124TIP3   OH239316   1.721   3.007   4.447
13124TIP3    H139317   1.782   2.965   4.507
13124TIP3    H239318   1.754   2.986   4.360
13125TIP3   OH239319  -0.017   7.757   4.009
13125TIP3    H139320   0.011   7.757   4.101
13125TIP3    H239321   0.065   7.758   3.959
13126TIP3   OH239322   2.564   4.338   4.511
13126TIP3    H139323   2.541   4.275   4.579
13126TIP3    H239324   2.633   4.391   4.551
13127TIP3   OH239325   6.752   4.312   5.624
13127TIP3    H139326   6.692   4.237   5.615
13127TIP3    H239327   6.726   4.371   5.554
13128TIP3   OH239328   0.689   1.325   2.154
13128TIP3    H139329   0.650   1.239   2.142
13128TIP3    H239330   0.689   1.339   2.249
13129TIP3   OH239331   8.060  -0.010   2.974
13129TIP3    H139332   8.086  -0.006   2.882
13129TIP3    H239333   8.019   0.075   2.991
13130TIP3   OH239334   0.085   4.483   4.757
13130TIP3    H139335   0.056   4.561   4.709
13130TIP3    H239336   0.030   4.481   4.835
13131TIP3   OH239337   3.181   2.736   0.379
13131TIP3    H139338   3.199   2.767   0.291
13131TIP3    H239339   3.091   2.702   0.375
13132TIP3   OH239340   0.854   2.458   2.928
13132TIP3    H139341   0.934   2.405   2.932
13132TIP3    H239342   0.878   2.540   2.972
13133TIP3   OH239343   7.198   7.097   3.661
13133TIP3    H139344   7.155   7.105   3.575
13133TIP3    H239345   7.290   7.081   3.640
13134TIP3   OH239346   0.885   6.971   3.473
13134TIP3    H139347   0.902   6.985   3.379
13134TIP3    H239348   0.935   6.893   3.495
13135TIP3   OH239349   5.475   3.224   3.076
13135TIP3    H139350   5.470   3.284   3.002
13135TIP3    H239351   5.421   3.265   3.144
13136TIP3   OH239352   4.158   5.624   2.490
13136TIP3    H139353   4.071   5.647   2.521
13136TIP3    H239354   4.154   5.636   2.395
13137TIP3   OH239355   0.350   3.139   2.563
13137TIP3    H139356   0.440   3.113   2.583
13137TIP3    H239357   0.319   3.181   2.643
13138TIP3   OH239358   2.644   5.503   6.035
13138TIP3    H139359   2.585   5.563   5.989
13138TIP3    H239360   2.714   5.559   6.068
13139TIP3   OH239361   0.637   0.512   5.971
13139TIP3    H139362   0.598   0.428   5.997
13139TIP3    H239363   0.618   0.519   5.877
13140TIP3   OH239364   3.147   3.079   2.539
13140TIP3    H139365   3.105   3.053   2.621
13140TIP3    H239366   3.149   3.174   2.542
13141TIP3   OH239367   7.391   5.749   1.420
13141TIP3    H139368   7.435   5.722   1.339
13141TIP3    H239369   7.462   5.762   1.482
13142TIP3   OH239370   8.050   7.777   1.605
13142TIP3    H139371   7.996   7.853   1.626
13142TIP3    H239372   8.117   7.811   1.546
13143TIP3   OH239373   4.812   6.370   0.180
13143TIP3    H139374   4.721   6.395   0.166
13143TIP3    H239375   4.862   6.440   0.138
13144TIP3   OH239376   0.945   3.425   2.756
13144TIP3    H139377   0.995   3.465   2.827
13144TIP3    H239378   0.923   3.498   2.698
13145TIP3   OH239379   5.073   5.960   1.341
13145TIP3    H139380   5.102   6.017   1.270
13145TIP3    H239381   5.019   5.893   1.298
13146TIP3   OH239382   6.282   6.674   0.741
13146TIP3    H139383   6.293   6.579   0.753
13146TIP3    H239384   6.340   6.695   0.667
13147TIP3   OH239385   1.248   1.222   2.082
13147TIP3    H139386   1.297   1.272   2.017
13147TIP3    H239387   1.169   1.193   2.036
13148TIP3   OH239388   2.026   5.569   2.928
13148TIP3    H139389   2.090   5.507   2.965
13148TIP3    H239390   2.070   5.609   2.854
13149TIP3   OH239391   4.599   6.526   1.238
13149TIP3    H139392   4.610   6.586   1.164
13149TIP3    H239393   4.684   6.526   1.282
13150TIP3   OH239394   6.099  -0.015   5.560
13150TIP3    H139395   6.118   0.016   5.648
13150TIP3    H239396   6.173   0.016   5.507
13151TIP3   OH239397   2.375   4.544   2.655
13151TIP3    H139398   2.282   4.562   2.669
13151TIP3    H239399   2.377   4.482   2.582
13152TIP3   OH239400   1.688   5.620   5.365
13152TIP3    H139401   1.718   5.546   5.312
13152TIP3    H239402   1.659   5.581   5.447
13153TIP3   OH239403   2.872   3.887   1.709
13153TIP3    H139404   2.859   3.979   1.686
13153TIP3    H239405   2.941   3.889   1.775
13154TIP3   OH239406   0.068   1.059   1.063
13154TIP3    H139407   0.111   1.143   1.047
13154TIP3    H239408   0.024   1.038   0.981
13155TIP3   OH239409   5.058   5.794   0.477
13155TIP3    H139410   4.987   5.756   0.425
13155TIP3    H239411   5.068   5.883   0.443
13156TIP3   OH239412   5.298   3.947   4.975
13156TIP3    H139413   5.249   4.005   4.917
13156TIP3    H239414   5.330   3.877   4.917
13157TIP3   OH239415   3.403   4.040  -0.007
13157TIP3    H139416   3.482   4.001  -0.043
13157TIP3    H239417   3.397   4.004   0.082
13158TIP3   OH239418   7.622   0.957   1.541
13158TIP3    H139419   7.694   0.997   1.591
13158TIP3    H239420   7.548   0.960   1.601
13159TIP3   OH239421   1.847   1.839   4.232
13159TIP3    H139422   1.919   1.787   4.196
13159TIP3    H239423   1.818   1.893   4.159
13160TIP3   OH239424   1.554   1.768   0.257
13160TIP3    H139425   1.503   1.826   0.314
13160TIP3    H239426   1.631   1.746   0.308
13161TIP3   OH239427   1.619   3.355   1.406
13161TIP3    H139428   1.656   3.284   1.460
13161TIP3    H239429   1.588   3.311   1.327
13162TIP3   OH239430   6.452   4.804   4.033
13162TIP3    H139431   6.501   4.774   3.957
13162TIP3    H239432   6.504   4.876   4.068
13163TIP3   OH239433   6.801   1.800   5.455
13163TIP3    H139434   6.764   1.737   5.393
13163TIP3    H239435   6.868   1.750   5.502
13164TIP3   OH239436   0.905   1.719   1.777
13164TIP3    H139437   0.951   1.725   1.693
13164TIP3    H239438   0.972   1.691   1.840
13165TIP3   OH239439   7.844   3.493   4.486
13165TIP3    H139440   7.758   3.531   4.468
13165TIP3    H239441   7.839   3.464   4.577
13166TIP3   OH239442   8.236   1.862   6.566
13166TIP3    H139443   8.159   1.890   6.518
13166TIP3    H239444   8.310   1.882   6.508
13167TIP3   OH239445   5.708   6.444   4.424
13167TIP3    H139446   5.640   6.511   4.425
13167TIP3    H239447   5.780   6.482   4.475
13168TIP3   OH239448   3.716   7.563   0.665
13168TIP3    H139449   3.807   7.533   0.659
13168TIP3    H239450   3.666   7.484   0.679
13169TIP3   OH239451   0.588   3.983   1.263
13169TIP3    H139452   0.599   3.890   1.284
13169TIP3    H239453   0.524   3.985   1.193
13170TIP3   OH239454   2.902   6.849   6.592
13170TIP3    H139455   2.967   6.781   6.574
13170TIP3    H239456   2.889   6.845   6.687
13171TIP3   OH239457   0.122   5.140   2.489
13171TIP3    H139458   0.140   5.161   2.398
13171TIP3    H239459   0.059   5.205   2.517
13172TIP3   OH239460   0.176   6.374   0.231
13172TIP3    H139461   0.192   6.462   0.264
13172TIP3    H239462   0.212   6.375   0.142
13173TIP3   OH239463   6.664   2.065   0.567
13173TIP3    H139464   6.690   1.973   0.569
13173TIP3    H239465   6.622   2.076   0.482
13174TIP3   OH239466   4.699   2.641   2.758
13174TIP3    H139467   4.745   2.710   2.806
13174TIP3    H239468   4.761   2.569   2.753
13175TIP3   OH239469   1.283   6.593   5.701
13175TIP3    H139470   1.321   6.511   5.734
13175TIP3    H239471   1.349   6.629   5.642
13176TIP3   OH239472   6.522   5.865   1.312
13176TIP3    H139473   6.560   5.779   1.329
13176TIP3    H239474   6.433   5.860   1.345
13177TIP3   OH239475   0.887   0.954   3.628
13177TIP3    H139476   0.836   0.914   3.698
13177TIP3    H239477   0.933   1.027   3.669
13178TIP3   OH239478   3.969   5.139   5.520
13178TIP3    H139479   3.883   5.102   5.539
13178TIP3    H239480   4.029   5.064   5.526
13179TIP3   OH239481   6.646   5.788   1.949
13179TIP3    H139482   6.619   5.870   1.907
13179TIP3    H239483   6.714   5.753   1.891
13180TIP3   OH239484   6.427   1.124   3.689
13180TIP3    H139485   6.420   1.199   3.629
13180TIP3    H239486   6.398   1.049   3.637
13181TIP3   OH239487   4.271   6.517   6.079
13181TIP3    H139488   4.248   6.511   6.171
13181TIP3    H239489   4.233   6.599   6.049
13182TIP3   OH239490   7.037   1.707   3.974
13182TIP3    H139491   6.987   1.632   3.942
13182TIP3    H239492   7.027   1.703   4.069
13183TIP3   OH239493   0.087   5.965   5.923
13183TIP3    H139494   0.076   5.996   5.833
13183TIP3    H239495   0.150   6.026   5.961
13184TIP3   OH239496   2.033   4.216   3.743
13184TIP3    H139497   2.063   4.189   3.830
13184TIP3    H239498   2.114   4.234   3.695
13185TIP3   OH239499   1.174   7.730   3.085
13185TIP3    H139500   1.258   7.767   3.111
13185TIP3    H239501   1.127   7.717   3.168
13186TIP3   OH239502   3.721   2.044   6.441
13186TIP3    H139503   3.809   2.063   6.474
13186TIP3    H239504   3.662   2.079   6.508
13187TIP3   OH239505   7.376   5.210   4.280
13187TIP3    H139506   7.293   5.231   4.324
13187TIP3    H239507   7.389   5.282   4.218
13188TIP3   OH239508   0.073   2.689   6.549
13188TIP3    H139509   0.167   2.672   6.544
13188TIP3    H239510   0.060   2.765   6.491
13189TIP3   OH239511   2.437   4.154   5.180
13189TIP3    H139512   2.450   4.060   5.186
13189TIP3    H239513   2.354   4.164   5.132
13190TIP3   OH239514   3.107   5.631   3.765
13190TIP3    H139515   3.189   5.642   3.814
13190TIP3    H239516   3.115   5.545   3.724
13191TIP3   OH239517   7.639   5.088   3.456
13191TIP3    H139518   7.679   5.068   3.372
13191TIP3    H239519   7.578   5.160   3.437
13192TIP3   OH239520   1.403   1.384   2.668
13192TIP3    H139521   1.433   1.349   2.752
13192TIP3    H239522   1.444   1.471   2.662
13193TIP3   OH239523   4.278   4.058   0.985
13193TIP3    H139524   4.314   3.988   0.930
13193TIP3    H239525   4.200   4.087   0.938
13194TIP3   OH239526   3.740   5.860   0.791
13194TIP3    H139527   3.825   5.864   0.834
13194TIP3    H239528   3.686   5.806   0.848
13195TIP3   OH239529   7.907   4.714   6.719
13195TIP3    H139530   7.935   4.781   6.657
13195TIP3    H239531   7.974   4.646   6.713
13196TIP3   OH239532   7.221   1.657   6.179
13196TIP3    H139533   7.132   1.653   6.145
13196TIP3    H239534   7.244   1.566   6.198
13197TIP3   OH239535   1.628   0.028   5.720
13197TIP3    H139536   1.541  -0.002   5.697
13197TIP3    H239537   1.617   0.121   5.740
13198TIP3   OH239538   6.062   3.536   5.216
13198TIP3    H139539   6.042   3.544   5.123
13198TIP3    H239540   5.997   3.591   5.260
13199TIP3   OH239541   0.851   4.508   5.467
13199TIP3    H139542   0.939   4.538   5.447
13199TIP3    H239543   0.796   4.544   5.397
13200TIP3   OH239544   5.498   6.866   1.167
13200TIP3    H139545   5.522   6.773   1.172
13200TIP3    H239546   5.458   6.877   1.081
13201TIP3   OH239547   7.933   0.042   5.604
13201TIP3    H139548   7.961   0.072   5.691
13201TIP3    H239549   7.838   0.035   5.611
13202TIP3   OH239550   6.917   3.805   1.317
13202TIP3    H139551   6.985   3.832   1.380
13202TIP3    H239552   6.962   3.805   1.233
13203TIP3   OH239553   4.891   1.164   3.707
13203TIP3    H139554   4.938   1.240   3.672
13203TIP3    H239555   4.958   1.111   3.749
13204TIP3   OH239556   3.059   4.035   3.999
13204TIP3    H139557   3.149   4.064   3.982
13204TIP3    H239558   3.034   4.080   4.080
13205TIP3   OH239559   6.614   4.559   2.006
13205TIP3    H139560   6.616   4.626   1.937
13205TIP3    H239561   6.692   4.505   1.988
13206TIP3   OH239562   1.641   6.453   4.797
13206TIP3    H139563   1.672   6.367   4.826
13206TIP3    H239564   1.721   6.501   4.774
13207TIP3   OH239565   5.104   4.407   2.978
13207TIP3    H139566   5.188   4.427   2.937
13207TIP3    H239567   5.040   4.417   2.908
13208TIP3   OH239568   7.159   0.935   2.913
13208TIP3    H139569   7.248   0.915   2.886
13208TIP3    H239570   7.108   0.930   2.833
13209TIP3   OH239571   7.088   7.193   4.799
13209TIP3    H139572   7.033   7.234   4.732
13209TIP3    H239573   7.097   7.102   4.771
13210TIP3   OH239574   1.537   4.986   2.165
13210TIP3    H139575   1.464   4.934   2.134
13210TIP3    H239576   1.615   4.942   2.131
13211TIP3   OH239577   8.104   1.138   3.073
13211TIP3    H139578   8.185   1.135   3.021
13211TIP3    H239579   8.116   1.214   3.130
13212TIP3   OH239580   6.209   2.194   2.761
13212TIP3    H139581   6.233   2.211   2.852
13212TIP3    H239582   6.133   2.137   2.766
13213TIP3   OH239583   0.570   3.216   5.413
13213TIP3    H139584   0.598   3.199   5.323
13213TIP3    H239585   0.529   3.302   5.410
13214TIP3   OH239586   4.019   3.340   3.052
13214TIP3    H139587   4.082   3.399   3.011
13214TIP3    H239588   4.073   3.284   3.109
13215TIP3   OH239589   1.185   2.650   5.626
13215TIP3    H139590   1.202   2.739   5.656
13215TIP3    H239591   1.227   2.644   5.540
13216TIP3   OH239592   1.857   1.939   0.156
13216TIP3    H139593   1.930   1.975   0.104
13216TIP3    H239594   1.779   1.981   0.120
13217TIP3   OH239595   1.210   6.154   3.179
13217TIP3    H139596   1.205   6.149   3.274
13217TIP3    H239597   1.291   6.202   3.162
13218TIP3   OH239598   5.965   6.576   6.241
13218TIP3    H139599   5.922   6.519   6.305
13218TIP3    H239600   5.931   6.664   6.261
13219TIP3   OH239601   4.357   0.644   1.969
13219TIP3    H139602   4.400   0.631   2.054
13219TIP3    H239603   4.401   0.582   1.911
13220TIP3   OH239604   0.782   2.587   4.457
13220TIP3    H139605   0.730   2.635   4.393
13220TIP3    H239606   0.789   2.499   4.421
13221TIP3   OH239607   2.774   4.826   1.605
13221TIP3    H139608   2.818   4.909   1.590
13221TIP3    H239609   2.805   4.770   1.534
13222TIP3   OH239610   7.979   2.269   4.883
13222TIP3    H139611   8.000   2.180   4.853
13222TIP3    H239612   7.954   2.258   4.974
13223TIP3   OH239613   7.294   6.756   2.342
13223TIP3    H139614   7.268   6.737   2.252
13223TIP3    H239615   7.265   6.679   2.392
13224TIP3   OH239616   7.378   0.182   3.288
13224TIP3    H139617   7.375   0.111   3.353
13224TIP3    H239618   7.472   0.200   3.277
13225TIP3   OH239619   0.238   4.474   0.148
13225TIP3    H139620   0.225   4.430   0.063
13225TIP3    H239621   0.196   4.559   0.137
13226TIP3   OH239622   3.447   5.585   5.276
13226TIP3    H139623   3.378   5.527   5.307
13226TIP3    H239624   3.524   5.528   5.267
13227TIP3   OH239625   4.432   2.514   6.580
13227TIP3    H139626   4.405   2.430   6.617
13227TIP3    H239627   4.526   2.503   6.562
13228TIP3   OH239628   6.581   4.729   6.719
13228TIP3    H139629   6.624   4.803   6.762
13228TIP3    H239630   6.530   4.687   6.788
13229TIP3   OH239631   2.599   6.453   1.757
13229TIP3    H139632   2.532   6.457   1.689
13229TIP3    H239633   2.676   6.418   1.712
13230TIP3   OH239634   2.169   7.222   1.848
13230TIP3    H139635   2.205   7.185   1.767
13230TIP3    H239636   2.160   7.316   1.830
13231TIP3   OH239637   3.310   5.211   6.718
13231TIP3    H139638   3.310   5.176   6.629
13231TIP3    H239639   3.401   5.205   6.747
13232TIP3   OH239640   5.942   4.687   0.151
13232TIP3    H139641   5.912   4.717   0.237
13232TIP3    H239642   5.866   4.697   0.094
13233TIP3   OH239643   5.776   7.060   4.039
13233TIP3    H139644   5.783   7.133   4.099
13233TIP3    H239645   5.709   7.003   4.077
13234TIP3   OH239646   2.784   7.199   3.977
13234TIP3    H139647   2.857   7.137   3.970
13234TIP3    H239648   2.720   7.155   4.033
13235TIP3   OH239649   5.988   5.292   5.653
13235TIP3    H139650   5.937   5.255   5.726
13235TIP3    H239651   5.983   5.226   5.584
13236TIP3   OH239652   4.826   2.532   5.877
13236TIP3    H139653   4.749   2.476   5.880
13236TIP3    H239654   4.810   2.593   5.805
13237TIP3   OH239655   5.573   6.014   1.124
13237TIP3    H139656   5.506   6.024   1.056
13237TIP3    H239657   5.598   5.921   1.119
13238TIP3   OH239658   3.748   6.279   6.695
13238TIP3    H139659   3.665   6.308   6.732
13238TIP3    H239660   3.731   6.272   6.601
13239TIP3   OH239661   2.395   5.523   4.984
13239TIP3    H139662   2.483   5.523   4.946
13239TIP3    H239663   2.354   5.444   4.949
13240TIP3   OH239664   6.788   2.191   3.602
13240TIP3    H139665   6.793   2.098   3.578
13240TIP3    H239666   6.878   2.223   3.591
13241TIP3   OH239667   4.743   2.665   4.850
13241TIP3    H139668   4.678   2.650   4.920
13241TIP3    H239669   4.696   2.644   4.769
13242TIP3   OH239670   6.733   6.945   5.812
13242TIP3    H139671   6.691   6.860   5.799
13242TIP3    H239672   6.815   6.925   5.856
13243TIP3   OH239673   7.397   1.809   2.950
13243TIP3    H139674   7.384   1.849   3.036
13243TIP3    H239675   7.321   1.752   2.939
13244TIP3   OH239676   3.577   1.884   5.584
13244TIP3    H139677   3.518   1.815   5.554
13244TIP3    H239678   3.664   1.855   5.556
13245TIP3   OH239679   3.363   5.912   4.945
13245TIP3    H139680   3.274   5.933   4.976
13245TIP3    H239681   3.363   5.939   4.853
13246TIP3   OH239682   5.065   2.881   2.563
13246TIP3    H139683   5.134   2.881   2.496
13246TIP3    H239684   4.993   2.832   2.523
13247TIP3   OH239685   6.594   6.854   1.027
13247TIP3    H139686   6.672   6.854   1.082
13247TIP3    H239687   6.561   6.764   1.032
13248TIP3   OH239688   7.207   4.141   6.339
13248TIP3    H139689   7.177   4.156   6.249
13248TIP3    H239690   7.284   4.085   6.329
13249TIP3   OH239691   0.239   0.253   1.763
13249TIP3    H139692   0.278   0.194   1.699
13249TIP3    H239693   0.311   0.311   1.788
13250TIP3   OH239694   6.475   6.464   5.392
13250TIP3    H139695   6.446   6.495   5.306
13250TIP3    H239696   6.397   6.466   5.446
13251TIP3   OH239697   8.066   2.145   5.705
13251TIP3    H139698   8.010   2.069   5.690
13251TIP3    H239699   8.007   2.211   5.743
13252TIP3   OH239700   7.259   1.252   5.101
13252TIP3    H139701   7.258   1.285   5.011
13252TIP3    H239702   7.352   1.253   5.126
13253TIP3   OH239703   2.524   0.631   2.087
13253TIP3    H139704   2.541   0.725   2.080
13253TIP3    H239705   2.433   0.622   2.059
13254TIP3   OH239706   1.914   1.111   1.589
13254TIP3    H139707   1.978   1.074   1.529
13254TIP3    H239708   1.966   1.156   1.655
13255TIP3   OH239709   2.567   3.587   0.389
13255TIP3    H139710   2.503   3.575   0.459
13255TIP3    H239711   2.552   3.513   0.330
13256TIP3   OH239712   6.816   5.173   1.105
13256TIP3    H139713   6.839   5.149   1.015
13256TIP3    H239714   6.808   5.089   1.150
13257TIP3   OH239715   3.297   6.744   5.246
13257TIP3    H139716   3.352   6.803   5.297
13257TIP3    H239717   3.314   6.657   5.283
13258TIP3   OH239718   3.966   7.233   0.615
13258TIP3    H139719   3.926   7.212   0.531
13258TIP3    H239720   4.055   7.200   0.608
13259TIP3   OH239721   4.924   3.734   0.604
13259TIP3    H139722   4.867   3.712   0.531
13259TIP3    H239723   4.887   3.687   0.679
13260TIP3   OH239724   7.251   7.416   3.696
13260TIP3    H139725   7.245   7.321   3.682
13260TIP3    H239726   7.218   7.429   3.785
13261TIP3   OH239727   0.929   5.994   4.372
13261TIP3    H139728   1.017   6.019   4.344
13261TIP3    H239729   0.942   5.950   4.456
13262TIP3   OH239730   1.870   4.259   3.237
13262TIP3    H139731   1.929   4.189   3.265
13262TIP3    H239732   1.789   4.214   3.215
13263TIP3   OH239733   7.629   6.487   2.961
13263TIP3    H139734   7.719   6.515   2.941
13263TIP3    H239735   7.592   6.465   2.875
13264TIP3   OH239736   2.223   7.071   0.806
13264TIP3    H139737   2.271   7.010   0.861
13264TIP3    H239738   2.164   7.017   0.754
13265TIP3   OH239739   5.073   1.566   6.179
13265TIP3    H139740   5.003   1.503   6.161
13265TIP3    H239741   5.062   1.587   6.272
13266TIP3   OH239742   6.804   5.206   0.191
13266TIP3    H139743   6.891   5.242   0.171
13266TIP3    H239744   6.814   5.112   0.182
13267TIP3   OH239745   6.970   3.424   5.143
13267TIP3    H139746   7.055   3.451   5.177
13267TIP3    H239747   6.960   3.334   5.174
13268TIP3   OH239748   0.915   4.675   2.967
13268TIP3    H139749   0.910   4.747   3.030
13268TIP3    H239750   0.895   4.716   2.883
13269TIP3   OH239751   7.200   5.880   6.771
13269TIP3    H139752   7.110   5.876   6.805
13269TIP3    H239753   7.225   5.789   6.758
13270TIP3   OH239754   5.513   1.726   5.348
13270TIP3    H139755   5.473   1.806   5.382
13270TIP3    H239756   5.468   1.655   5.394
13271TIP3   OH239757   8.249   3.564   0.809
13271TIP3    H139758   8.250   3.516   0.892
13271TIP3    H239759   8.157   3.561   0.781
13272TIP3   OH239760   4.728   3.651   1.791
13272TIP3    H139761   4.756   3.721   1.733
13272TIP3    H239762   4.633   3.647   1.780
13273TIP3   OH239763   6.387   7.362   1.069
13273TIP3    H139764   6.340   7.426   1.016
13273TIP3    H239765   6.460   7.334   1.013
13274TIP3   OH239766   2.518   4.339   5.725
13274TIP3    H139767   2.460   4.399   5.680
13274TIP3    H239768   2.591   4.326   5.664
13275TIP3   OH239769   0.286   4.229   5.231
13275TIP3    H139770   0.341   4.238   5.154
13275TIP3    H239771   0.293   4.137   5.256
13276TIP3   OH239772   5.711   4.968   1.761
13276TIP3    H139773   5.698   5.054   1.721
13276TIP3    H239774   5.794   4.937   1.725
13277TIP3   OH239775   6.511   3.160   3.322
13277TIP3    H139776   6.476   3.077   3.355
13277TIP3    H239777   6.433   3.215   3.310
13278TIP3   OH239778   5.126   7.343   0.082
13278TIP3    H139779   5.120   7.339   0.178
13278TIP3    H239780   5.173   7.425   0.065
13279TIP3   OH239781   6.861   6.933   1.601
13279TIP3    H139782   6.917   6.865   1.639
13279TIP3    H239783   6.805   6.886   1.538
13280TIP3   OH239784   8.203   4.707   0.431
13280TIP3    H139785   8.234   4.749   0.351
13280TIP3    H239786   8.282   4.697   0.485
13281TIP3   OH239787   4.109   5.971   1.648
13281TIP3    H139788   4.021   5.969   1.611
13281TIP3    H239789   4.167   5.978   1.572
13282TIP3   OH239790   4.307   3.699   3.770
13282TIP3    H139791   4.325   3.627   3.830
13282TIP3    H239792   4.211   3.700   3.762
13283TIP3   OH239793   1.059   0.059   4.049
13283TIP3    H139794   1.043   0.041   4.141
13283TIP3    H239795   1.153   0.078   4.043
13284TIP3   OH239796   6.343   6.567   1.160
13284TIP3    H139797   6.413   6.586   1.097
13284TIP3    H239798   6.369   6.485   1.201
13285TIP3   OH239799   2.990   4.245   0.497
13285TIP3    H139800   2.993   4.326   0.446
13285TIP3    H239801   3.040   4.265   0.576
13286TIP3   OH239802   7.818   6.023   0.783
13286TIP3    H139803   7.759   5.952   0.758
13286TIP3    H239804   7.875   5.985   0.850
13287TIP3   OH239805   7.021   5.636   6.031
13287TIP3    H139806   6.972   5.584   6.096
13287TIP3    H239807   6.990   5.725   6.043
13288TIP3   OH239808   4.573   4.775   0.030
13288TIP3    H139809   4.513   4.849   0.043
13288TIP3    H239810   4.652   4.799   0.079
13289TIP3   OH239811   0.298   4.494   1.240
13289TIP3    H139812   0.282   4.496   1.146
13289TIP3    H239813   0.393   4.488   1.248
13290TIP3   OH239814   1.771   4.931   2.800
13290TIP3    H139815   1.750   4.922   2.707
13290TIP3    H239816   1.691   4.908   2.845
13291TIP3   OH239817   5.927   0.656   6.640
13291TIP3    H139818   6.022   0.644   6.633
13291TIP3    H239819   5.916   0.708   6.720
13292TIP3   OH239820   2.617   4.660   4.785
13292TIP3    H139821   2.676   4.585   4.780
13292TIP3    H239822   2.547   4.639   4.724
13293TIP3   OH239823   0.944   0.282   3.786
13293TIP3    H139824   0.950   0.286   3.690
13293TIP3    H239825   1.036   0.278   3.814
13294TIP3   OH239826   7.452   7.348   0.298
13294TIP3    H139827   7.415   7.434   0.278
13294TIP3    H239828   7.380   7.287   0.281
13295TIP3   OH239829   4.139   7.466   1.848
13295TIP3    H139830   4.097   7.428   1.770
13295TIP3    H239831   4.071   7.465   1.915
13296TIP3   OH239832   2.514   7.767   3.147
13296TIP3    H139833   2.556   7.836   3.096
13296TIP3    H239834   2.473   7.813   3.220
13297TIP3   OH239835   8.115   4.747   3.833
13297TIP3    H139836   8.057   4.817   3.803
13297TIP3    H239837   8.130   4.694   3.755
13298TIP3   OH239838   4.453   6.028   4.101
13298TIP3    H139839   4.542   5.996   4.088
13298TIP3    H239840   4.399   5.971   4.047
13299TIP3   OH239841   7.298   3.078   2.441
13299TIP3    H139842   7.299   3.096   2.535
13299TIP3    H239843   7.208   3.052   2.423
13300TIP3   OH239844   6.262   6.466   0.258
13300TIP3    H139845   6.257   6.396   0.193
13300TIP3    H239846   6.177   6.510   0.253
13301TIP3   OH239847   3.867   0.897   4.214
13301TIP3    H139848   3.867   0.898   4.118
13301TIP3    H239849   3.776   0.881   4.238
13302TIP3   OH239850   4.869   6.326   2.471
13302TIP3    H139851   4.784   6.314   2.514
13302TIP3    H239852   4.857   6.291   2.383
13303TIP3   OH239853   2.868   7.129   1.828
13303TIP3    H139854   2.805   7.195   1.801
13303TIP3    H239855   2.813   7.058   1.864
13304TIP3   OH239856   0.868   4.964   0.466
13304TIP3    H139857   0.934   4.937   0.402
13304TIP3    H239858   0.916   4.972   0.548
13305TIP3   OH239859   3.427   1.238   2.379
13305TIP3    H139860   3.427   1.177   2.306
13305TIP3    H239861   3.369   1.199   2.444
13306TIP3   OH239862   2.710   0.664   5.857
13306TIP3    H139863   2.649   0.600   5.893
13306TIP3    H239864   2.658   0.711   5.791
13307TIP3   OH239865   1.909   5.166   0.182
13307TIP3    H139866   1.877   5.119   0.105
13307TIP3    H239867   2.002   5.148   0.185
13308TIP3   OH239868   5.202   6.542   6.533
13308TIP3    H139869   5.154   6.462   6.513
13308TIP3    H239870   5.199   6.592   6.451
13309TIP3   OH239871   3.417   1.689   0.210
13309TIP3    H139872   3.499   1.650   0.241
13309TIP3    H239873   3.445   1.765   0.159
13310TIP3   OH239874   3.710   2.729   2.483
13310TIP3    H139875   3.636   2.790   2.477
13310TIP3    H239876   3.692   2.678   2.563
13311TIP3   OH239877   2.287   0.587   5.080
13311TIP3    H139878   2.243   0.539   5.010
13311TIP3    H239879   2.331   0.659   5.035
13312TIP3   OH239880   7.676   0.838   3.014
13312TIP3    H139881   7.644   0.845   2.924
13312TIP3    H239882   7.728   0.758   3.015
13313TIP3   OH239883   2.818   5.022   5.901
13313TIP3    H139884   2.792   4.934   5.875
13313TIP3    H239885   2.765   5.042   5.978
13314TIP3   OH239886   3.940   1.120   3.082
13314TIP3    H139887   3.914   1.198   3.131
13314TIP3    H239888   3.861   1.066   3.080
13315TIP3   OH239889   2.245   1.420   5.208
13315TIP3    H139890   2.171   1.366   5.182
13315TIP3    H239891   2.318   1.359   5.217
13316TIP3   OH239892   6.267   5.713   1.698
13316TIP3    H139893   6.313   5.795   1.675
13316TIP3    H239894   6.245   5.722   1.790
13317TIP3   OH239895   4.255   3.499   4.012
13317TIP3    H139896   4.345   3.495   4.044
13317TIP3    H239897   4.215   3.570   4.063
13318TIP3   OH239898   4.300   2.982   5.954
13318TIP3    H139899   4.295   3.012   5.863
13318TIP3    H239900   4.392   2.992   5.978
13319TIP3   OH239901   4.026   0.802   4.476
13319TIP3    H139902   3.948   0.751   4.455
13319TIP3    H239903   4.038   0.861   4.402
13320TIP3   OH239904   5.157   1.893   1.325
13320TIP3    H139905   5.120   1.955   1.389
13320TIP3    H239906   5.115   1.810   1.347
13321TIP3   OH239907   3.636   3.351   6.337
13321TIP3    H139908   3.707   3.398   6.380
13321TIP3    H239909   3.559   3.367   6.392
13322TIP3   OH239910   6.601   0.132   2.876
13322TIP3    H139911   6.616   0.162   2.786
13322TIP3    H239912   6.681   0.085   2.899
13323TIP3   OH239913   1.691   1.453   1.464
13323TIP3    H139914   1.773   1.501   1.473
13323TIP3    H239915   1.626   1.505   1.511
13324TIP3   OH239916   3.233   3.918   1.676
13324TIP3    H139917   3.210   3.872   1.596
13324TIP3    H239918   3.251   3.849   1.740
13325TIP3   OH239919   5.852   5.435   2.485
13325TIP3    H139920   5.783   5.482   2.438
13325TIP3    H239921   5.805   5.371   2.539
13326TIP3   OH239922   6.183   0.276   2.655
13326TIP3    H139923   6.230   0.244   2.732
13326TIP3    H239924   6.241   0.256   2.582
13327TIP3   OH239925   0.800   1.518   0.552
13327TIP3    H139926   0.837   1.446   0.604
13327TIP3    H239927   0.869   1.584   0.550
13328TIP3   OH239928   2.886   2.321   1.461
13328TIP3    H139929   2.940   2.371   1.522
13328TIP3    H239930   2.815   2.380   1.437
13329TIP3   OH239931   1.469   0.860   4.688
13329TIP3    H139932   1.396   0.800   4.675
13329TIP3    H239933   1.546   0.803   4.696
13330TIP3   OH239934   4.391   4.313   2.336
13330TIP3    H139935   4.329   4.368   2.384
13330TIP3    H239936   4.341   4.235   2.314
13331TIP3   OH239937   4.138   1.214   4.049
13331TIP3    H139938   4.229   1.209   4.080
13331TIP3    H239939   4.145   1.243   3.959
13332TIP3   OH239940   4.404   3.974   5.915
13332TIP3    H139941   4.389   3.882   5.896
13332TIP3    H239942   4.393   3.982   6.010
13333TIP3   OH239943   7.763   7.005   4.522
13333TIP3    H139944   7.813   6.992   4.602
13333TIP3    H239945   7.784   7.094   4.494
13334TIP3   OH239946   3.644   7.402   6.382
13334TIP3    H139947   3.617   7.482   6.426
13334TIP3    H239948   3.643   7.335   6.451
13335TIP3   OH239949   0.575   2.117   4.884
13335TIP3    H139950   0.593   2.208   4.906
13335TIP3    H239951   0.532   2.121   4.799
13336TIP3   OH239952   0.932   2.008   1.732
13336TIP3    H139953   0.976   1.953   1.667
13336TIP3    H239954   0.841   1.979   1.730
13337TIP3   OH239955   0.238   0.879   6.188
13337TIP3    H139956   0.247   0.943   6.259
13337TIP3    H239957   0.276   0.923   6.112
13338TIP3   OH239958   3.878   1.574   2.402
13338TIP3    H139959   3.961   1.617   2.382
13338TIP3    H239960   3.822   1.595   2.327
13339TIP3   OH239961   3.531   4.674   1.375
13339TIP3    H139962   3.583   4.610   1.327
13339TIP3    H239963   3.596   4.727   1.421
13340TIP3   OH239964   4.530   1.957   6.050
13340TIP3    H139965   4.588   1.975   6.124
13340TIP3    H239966   4.455   1.913   6.088
13341TIP3   OH239967   2.717   7.322   2.714
13341TIP3    H139968   2.641   7.265   2.717
13341TIP3    H239969   2.706   7.381   2.789
13342TIP3   OH239970   0.267   7.235   0.752
13342TIP3    H139971   0.173   7.248   0.746
13342TIP3    H239972   0.303   7.322   0.765
13343TIP3   OH239973   6.153   1.855   1.095
13343TIP3    H139974   6.095   1.834   1.169
13343TIP3    H239975   6.214   1.920   1.130
13344TIP3   OH239976   5.140   2.551   6.129
13344TIP3    H139977   5.088   2.618   6.084
13344TIP3    H239978   5.201   2.600   6.183
13345TIP3   OH239979   7.421   1.479   4.487
13345TIP3    H139980   7.367   1.423   4.430
13345TIP3    H239981   7.376   1.563   4.487
13346TIP3   OH239982   3.579   5.313   6.061
13346TIP3    H139983   3.664   5.285   6.027
13346TIP3    H239984   3.517   5.250   6.025
13347TIP3   OH239985   0.742   3.390   2.978
13347TIP3    H139986   0.800   3.431   2.914
13347TIP3    H239987   0.661   3.442   2.973
13348TIP3   OH239988   4.667   6.667   3.655
13348TIP3    H139989   4.701   6.623   3.578
13348TIP3    H239990   4.574   6.681   3.636
13349TIP3   OH239991   2.492   4.885   0.259
13349TIP3    H139992   2.401   4.905   0.236
13349TIP3    H239993   2.509   4.801   0.217
13350TIP3   OH239994   2.569   6.183   0.624
13350TIP3    H139995   2.578   6.091   0.600
13350TIP3    H239996   2.595   6.186   0.716
13351TIP3   OH239997   4.123   7.024   1.735
13351TIP3    H139998   4.054   6.965   1.765
13351TIP3    H239999   4.171   7.048   1.815
13352TIP3   OH240000   2.644   5.195   1.886
13352TIP3    H140001   2.630   5.118   1.941
13352TIP3    H240002   2.729   5.229   1.914
13353TIP3   OH240003   7.009   0.022   4.321
13353TIP3    H140004   7.097  -0.001   4.289
13353TIP3    H240005   7.026   0.086   4.390
13354TIP3   OH240006   7.826   5.126   6.025
13354TIP3    H140007   7.732   5.144   6.023
13354TIP3    H240008   7.866   5.212   6.035
13355TIP3   OH240009   6.846   6.720   2.053
13355TIP3    H140010   6.891   6.731   2.137
13355TIP3    H240011   6.866   6.800   2.005
13356TIP3   OH240012   6.414   3.348   5.030
13356TIP3    H140013   6.493   3.303   5.061
13356TIP3    H240014   6.432   3.441   5.046
13357TIP3   OH240015   1.319   1.031   2.249
13357TIP3    H140016   1.323   1.089   2.326
13357TIP3    H240017   1.305   1.091   2.175
13358TIP3   OH240018   5.455   4.149   5.287
13358TIP3    H140019   5.429   4.057   5.274
13358TIP3    H240020   5.499   4.150   5.371
13359TIP3   OH240021   3.068   2.482   4.387
13359TIP3    H140022   2.995   2.421   4.379
13359TIP3    H240023   3.146   2.427   4.389
13360TIP3   OH240024   1.631   4.721   5.158
13360TIP3    H140025   1.634   4.644   5.101
13360TIP3    H240026   1.699   4.779   5.122
13361TIP3   OH240027   3.545   1.893   4.022
13361TIP3    H140028   3.509   1.854   4.101
13361TIP3    H240029   3.633   1.923   4.048
13362TIP3   OH240030   6.421   3.748   0.530
13362TIP3    H140031   6.339   3.723   0.487
13362TIP3    H240032   6.442   3.834   0.494
13363TIP3   OH240033   7.176   2.996   1.223
13363TIP3    H140034   7.216   2.964   1.304
13363TIP3    H240035   7.188   2.924   1.161
13364TIP3   OH240036   5.921   1.447   0.780
13364TIP3    H140037   5.996   1.424   0.835
13364TIP3    H240038   5.875   1.515   0.830
13365TIP3   OH240039   0.916   2.883   4.200
13365TIP3    H140040   0.869   2.963   4.224
13365TIP3    H240041   0.857   2.812   4.223
13366TIP3   OH240042   0.080   7.389   2.589
13366TIP3    H140043   0.095   7.336   2.511
13366TIP3    H240044   0.000   7.439   2.569
13367TIP3   OH240045   0.995   0.555   2.121
13367TIP3    H140046   1.001   0.618   2.193
13367TIP3    H240047   1.058   0.587   2.056
13368TIP3   OH240048   1.201   2.557   4.672
13368TIP3    H140049   1.259   2.501   4.724
13368TIP3    H240050   1.237   2.552   4.583
13369TIP3   OH240051   1.151   4.256   4.716
13369TIP3    H140052   1.212   4.262   4.789
13369TIP3    H240053   1.150   4.163   4.693
13370TIP3   OH240054   2.568   2.544   0.550
13370TIP3    H140055   2.565   2.632   0.587
13370TIP3    H240056   2.584   2.487   0.625
13371TIP3   OH240057   7.448   4.262   0.405
13371TIP3    H140058   7.451   4.355   0.427
13371TIP3    H240059   7.374   4.253   0.345
13372TIP3   OH240060   5.111   3.232   4.704
13372TIP3    H140061   5.183   3.184   4.746
13372TIP3    H240062   5.140   3.323   4.706
13373TIP3   OH240063   5.897   7.772   6.743
13373TIP3    H140064   5.881   7.689   6.788
13373TIP3    H240065   5.988   7.767   6.715
13374TIP3   OH240066   2.470   0.298   4.160
13374TIP3    H140067   2.543   0.265   4.108
13374TIP3    H240068   2.511   0.342   4.234
13375TIP3   OH240069   1.649   2.105   0.070
13375TIP3    H140070   1.561   2.072   0.052
13375TIP3    H240071   1.678   2.141  -0.014
13376TIP3   OH240072   4.333   0.945   1.413
13376TIP3    H140073   4.392   0.882   1.455
13376TIP3    H240074   4.385   0.983   1.343
13377TIP3   OH240075   1.398   2.464   2.210
13377TIP3    H140076   1.470   2.403   2.227
13377TIP3    H240077   1.377   2.452   2.118
13378TIP3   OH240078   4.417   4.728   5.123
13378TIP3    H140079   4.400   4.669   5.049
13378TIP3    H240080   4.413   4.816   5.086
13379TIP3   OH240081   1.711   5.805   4.265
13379TIP3    H140082   1.642   5.797   4.330
13379TIP3    H240083   1.778   5.858   4.307
13380TIP3   OH240084   4.484   2.731   3.729
13380TIP3    H140085   4.433   2.771   3.799
13380TIP3    H240086   4.524   2.653   3.769
13381TIP3   OH240087   7.375   2.018   1.310
13381TIP3    H140088   7.308   2.076   1.275
13381TIP3    H240089   7.402   1.965   1.236
13382TIP3   OH240090   2.056   4.529   0.506
13382TIP3    H140091   1.974   4.565   0.474
13382TIP3    H240092   2.124   4.575   0.457
13383TIP3   OH240093   3.293   4.119   5.207
13383TIP3    H140094   3.318   4.188   5.146
13383TIP3    H240095   3.216   4.153   5.253
13384TIP3   OH240096   3.040   5.270   5.413
13384TIP3    H140097   3.054   5.202   5.479
13384TIP3    H240098   2.946   5.284   5.414
13385TIP3   OH240099   1.881   3.771   1.776
13385TIP3    H140100   1.930   3.836   1.826
13385TIP3    H240101   1.800   3.815   1.752
13386TIP3   OH240102   6.393   5.940   2.363
13386TIP3    H140103   6.332   5.977   2.427
13386TIP3    H240104   6.394   6.003   2.291
13387TIP3   OH240105   0.293   0.534   5.296
13387TIP3    H140106   0.336   0.492   5.371
13387TIP3    H240107   0.353   0.519   5.223
13388TIP3   OH240108   1.115   1.087   6.063
13388TIP3    H140109   1.114   1.125   5.976
13388TIP3    H240110   1.204   1.053   6.073
13389TIP3   OH240111   7.553   1.020   5.459
13389TIP3    H140112   7.514   1.040   5.544
13389TIP3    H240113   7.541   0.925   5.449
13390TIP3   OH240114   0.522   1.933   4.277
13390TIP3    H140115   0.523   1.871   4.204
13390TIP3    H240116   0.559   1.884   4.350
13391TIP3   OH240117   4.782   0.050   1.959
13391TIP3    H140118   4.802  -0.005   2.036
13391TIP3    H240119   4.800  -0.007   1.884
13392TIP3   OH240120   5.158   5.524   4.702
13392TIP3    H140121   5.227   5.582   4.670
13392TIP3    H240122   5.101   5.510   4.627
13393TIP3   OH240123   8.264   7.154   6.664
13393TIP3    H140124   8.360   7.157   6.658
13393TIP3    H240125   8.240   7.235   6.707
13394TIP3   OH240126   5.199   1.372   5.400
13394TIP3    H140127   5.263   1.321   5.350
13394TIP3    H240128   5.252   1.429   5.456
13395TIP3   OH240129   0.748   0.262   1.017
13395TIP3    H140130   0.671   0.226   0.973
13395TIP3    H240131   0.819   0.249   0.953
13396TIP3   OH240132   7.916   4.119   1.144
13396TIP3    H140133   7.967   4.195   1.116
13396TIP3    H240134   7.825   4.146   1.133
13397TIP3   OH240135   5.579   0.521   1.801
13397TIP3    H140136   5.547   0.601   1.759
13397TIP3    H240137   5.505   0.461   1.799
13398TIP3   OH240138   1.394   7.801   1.722
13398TIP3    H140139   1.466   7.782   1.662
13398TIP3    H240140   1.388   7.896   1.723
13399TIP3   OH240141   6.066   0.301   3.762
13399TIP3    H140142   6.120   0.365   3.715
13399TIP3    H240143   6.096   0.309   3.853
13400TIP3   OH240144   6.891   4.715   2.708
13400TIP3    H140145   6.860   4.791   2.758
13400TIP3    H240146   6.811   4.668   2.684
13401TIP3   OH240147   7.459   1.962   2.729
13401TIP3    H140148   7.418   1.900   2.789
13401TIP3    H240149   7.400   2.037   2.727
13402TIP3   OH240150   0.933   5.369   1.910
13402TIP3    H140151   0.990   5.292   1.902
13402TIP3    H240152   0.957   5.407   1.995
13403TIP3   OH240153   7.916   0.495   2.330
13403TIP3    H140154   7.998   0.528   2.291
13403TIP3    H240155   7.884   0.569   2.383
13404TIP3   OH240156   4.127   6.257   4.861
13404TIP3    H140157   4.099   6.166   4.870
13404TIP3    H240158   4.160   6.281   4.948
13405TIP3   OH240159   7.121   7.087   6.735
13405TIP3    H140160   7.120   7.182   6.722
13405TIP3    H240161   7.042   7.069   6.786
13406TIP3   OH240162   3.718   6.756   2.497
13406TIP3    H140163   3.785   6.689   2.508
13406TIP3    H240164   3.643   6.710   2.459
13407TIP3   OH240165   6.238   3.150   1.015
13407TIP3    H140166   6.247   3.094   0.938
13407TIP3    H240167   6.251   3.091   1.089
13408TIP3   OH240168   3.781   5.492   3.386
13408TIP3    H140169   3.785   5.585   3.365
13408TIP3    H240170   3.773   5.489   3.482
13409TIP3   OH240171   2.944   4.829   2.740
13409TIP3    H140172   3.016   4.769   2.721
13409TIP3    H240173   2.869   4.793   2.692
13410TIP3   OH240174   8.242   0.698   6.091
13410TIP3    H140175   8.294   0.743   6.025
13410TIP3    H240176   8.298   0.696   6.169
13411TIP3   OH240177   7.174   0.995   0.745
13411TIP3    H140178   7.239   1.065   0.749
13411TIP3    H240179   7.196   0.937   0.817
13412TIP3   OH240180   4.216   5.101   2.240
13412TIP3    H140181   4.253   5.063   2.319
13412TIP3    H240182   4.223   5.033   2.174
13413TIP3   OH240183   4.980   3.799   1.653
13413TIP3    H140184   4.948   3.719   1.611
13413TIP3    H240185   4.989   3.862   1.582
13414TIP3   OH240186   2.764   5.470   3.094
13414TIP3    H140187   2.691   5.411   3.109
13414TIP3    H240188   2.840   5.425   3.130
13415TIP3   OH240189   5.025   1.988   2.893
13415TIP3    H140190   5.065   1.988   2.979
13415TIP3    H240191   5.050   2.072   2.854
13416TIP3   OH240192   6.935   1.004   3.953
13416TIP3    H140193   6.945   1.026   3.860
13416TIP3    H240194   6.877   0.927   3.954
13417TIP3   OH240195   7.007   3.411   4.707
13417TIP3    H140196   6.958   3.333   4.682
13417TIP3    H240197   6.950   3.484   4.683
13418TIP3   OH240198   3.689   1.400   3.687
13418TIP3    H140199   3.749   1.331   3.659
13418TIP3    H240200   3.672   1.381   3.779
13419TIP3   OH240201   6.492   5.727   5.952
13419TIP3    H140202   6.507   5.637   5.979
13419TIP3    H240203   6.412   5.724   5.900
13420TIP3   OH240204   2.058   7.451   2.599
13420TIP3    H140205   2.099   7.470   2.683
13420TIP3    H240206   2.119   7.392   2.555
13421TIP3   OH240207   5.916   0.247   2.545
13421TIP3    H140208   5.990   0.277   2.597
13421TIP3    H240209   5.934   0.276   2.456
13422TIP3   OH240210   4.391   7.387   1.154
13422TIP3    H140211   4.392   7.439   1.235
13422TIP3    H240212   4.389   7.296   1.184
13423TIP3   OH240213   5.934   7.331   6.254
13423TIP3    H140214   5.910   7.381   6.332
13423TIP3    H240215   5.852   7.292   6.224
13424TIP3   OH240216   6.316   2.353   4.219
13424TIP3    H140217   6.325   2.418   4.288
13424TIP3    H240218   6.222   2.339   4.211
13425TIP3   OH240219   3.356   2.764   2.338
13425TIP3    H140220   3.423   2.739   2.274
13425TIP3    H240221   3.333   2.854   2.314
13426TIP3   OH240222   1.205   3.925   6.486
13426TIP3    H140223   1.273   3.899   6.549
13426TIP3    H240224   1.230   3.882   6.405
13427TIP3   OH240225   0.177   2.431   4.003
13427TIP3    H140226   0.107   2.482   4.043
13427TIP3    H240227   0.254   2.488   4.008
13428TIP3   OH240228   6.655   0.703   0.336
13428TIP3    H140229   6.729   0.662   0.381
13428TIP3    H240230   6.614   0.759   0.402
13429TIP3   OH240231   3.116   4.353   3.471
13429TIP3    H140232   3.177   4.350   3.545
13429TIP3    H240233   3.073   4.267   3.472
13430TIP3   OH240234   5.892   2.369   5.785
13430TIP3    H140235   5.930   2.412   5.862
13430TIP3    H240236   5.925   2.419   5.711
13431TIP3   OH240237   0.853   6.537   1.079
13431TIP3    H140238   0.848   6.577   0.992
13431TIP3    H240239   0.882   6.608   1.136
13432TIP3   OH240240   4.207   5.819   5.111
13432TIP3    H140241   4.128   5.766   5.121
13432TIP3    H240242   4.260   5.769   5.048
13433TIP3   OH240243   0.512   6.507   2.147
13433TIP3    H140244   0.550   6.516   2.060
13433TIP3    H240245   0.419   6.526   2.134
13434TIP3   OH240246   6.101   3.694   2.079
13434TIP3    H140247   6.051   3.617   2.050
13434TIP3    H240248   6.071   3.708   2.169
13435TIP3   OH240249   7.379   7.186   4.518
13435TIP3    H140250   7.392   7.128   4.443
13435TIP3    H240251   7.466   7.223   4.535
13436TIP3   OH240252   6.651   1.014   1.409
13436TIP3    H140253   6.617   1.074   1.343
13436TIP3    H240254   6.617   1.048   1.492
13437TIP3   OH240255   1.568   1.187   4.224
13437TIP3    H140256   1.548   1.227   4.309
13437TIP3    H240257   1.504   1.117   4.215
13438TIP3   OH240258   4.039   0.393   0.962
13438TIP3    H140259   4.034   0.308   0.918
13438TIP3    H240260   4.132   0.404   0.981
13439TIP3   OH240261   0.961   7.142   4.388
13439TIP3    H140262   0.988   7.077   4.323
13439TIP3    H240263   1.043   7.186   4.413
13440TIP3   OH240264   7.447   6.542   5.712
13440TIP3    H140265   7.357   6.529   5.682
13440TIP3    H240266   7.444   6.523   5.806
13441TIP3   OH240267   3.281   6.557   5.839
13441TIP3    H140268   3.287   6.491   5.908
13441TIP3    H240269   3.221   6.623   5.874
13442TIP3   OH240270   6.602   5.052   2.845
13442TIP3    H140271   6.606   5.128   2.902
13442TIP3    H240272   6.689   5.012   2.851
13443TIP3   OH240273   0.161   3.284   0.813
13443TIP3    H140274   0.104   3.210   0.792
13443TIP3    H240275   0.124   3.320   0.894
13444TIP3   OH240276   7.052   1.381   4.199
13444TIP3    H140277   6.987   1.310   4.198
13444TIP3    H240278   7.077   1.391   4.107
13445TIP3   OH240279   7.161   0.652   6.096
13445TIP3    H140280   7.107   0.575   6.113
13445TIP3    H240281   7.235   0.618   6.046
13446TIP3   OH240282   0.257   4.805   4.302
13446TIP3    H140283   0.287   4.893   4.325
13446TIP3    H240284   0.326   4.771   4.245
13447TIP3   OH240285   2.978   1.977   0.173
13447TIP3    H140286   3.058   1.925   0.182
13447TIP3    H240287   2.921   1.924   0.118
13448TIP3   OH240288   5.371   0.914   0.792
13448TIP3    H140289   5.295   0.862   0.817
13448TIP3    H240290   5.336   0.984   0.736
13449TIP3   OH240291   5.850   6.875   2.214
13449TIP3    H140292   5.802   6.808   2.165
13449TIP3    H240293   5.803   6.956   2.196
13450TIP3   OH240294   7.818   4.641   5.548
13450TIP3    H140295   7.830   4.717   5.605
13450TIP3    H240296   7.726   4.617   5.558
13451TIP3   OH240297   6.077   7.606   2.283
13451TIP3    H140298   5.994   7.586   2.326
13451TIP3    H240299   6.089   7.700   2.297
13452TIP3   OH240300   1.729   5.441   3.579
13452TIP3    H140301   1.722   5.480   3.666
13452TIP3    H240302   1.769   5.355   3.594
13453TIP3   OH240303   2.215   4.399   6.063
13453TIP3    H140304   2.233   4.335   5.994
13453TIP3    H240305   2.212   4.483   6.018
13454TIP3   OH240306   8.217   1.266   2.785
13454TIP3    H140307   8.256   1.182   2.809
13454TIP3    H240308   8.217   1.317   2.865
13455TIP3   OH240309   2.422   2.692   6.107
13455TIP3    H140310   2.460   2.638   6.039
13455TIP3    H240311   2.382   2.765   6.060
13456TIP3   OH240312   5.044   4.760   6.354
13456TIP3    H140313   5.085   4.822   6.293
13456TIP3    H240314   5.118   4.715   6.395
13457TIP3   OH240315   0.853   6.547   5.101
13457TIP3    H140316   0.820   6.592   5.179
13457TIP3    H240317   0.829   6.456   5.114
13458TIP3   OH240318   1.819   1.714   5.005
13458TIP3    H140319   1.773   1.793   4.977
13458TIP3    H240320   1.882   1.744   5.070
13459TIP3   OH240321   0.873   3.003   1.751
13459TIP3    H140322   0.779   2.994   1.735
13459TIP3    H240323   0.883   2.991   1.845
13460TIP3   OH240324   5.817   1.645   5.405
13460TIP3    H140325   5.896   1.695   5.385
13460TIP3    H240326   5.750   1.683   5.348
13461TIP3   OH240327   2.808   2.081   5.273
13461TIP3    H140328   2.758   2.141   5.329
13461TIP3    H240329   2.892   2.073   5.316
13462TIP3   OH240330   6.510   2.019   3.483
13462TIP3    H140331   6.542   1.933   3.509
13462TIP3    H240332   6.463   2.052   3.559
13463TIP3   OH240333   4.248   0.785   6.232
13463TIP3    H140334   4.325   0.794   6.288
13463TIP3    H240335   4.280   0.807   6.144
13464TIP3   OH240336   6.508   5.819   2.930
13464TIP3    H140337   6.521   5.799   2.837
13464TIP3    H240338   6.596   5.820   2.967
13465TIP3   OH240339   5.525   3.681   3.026
13465TIP3    H140340   5.430   3.667   3.023
13465TIP3    H240341   5.560   3.622   2.960
13466TIP3   OH240342   6.313   2.824   1.315
13466TIP3    H140343   6.263   2.775   1.379
13466TIP3    H240344   6.270   2.909   1.310
13467TIP3   OH240345   1.464   2.025   1.090
13467TIP3    H140346   1.517   2.101   1.116
13467TIP3    H240347   1.501   1.952   1.140
13468TIP3   OH240348   1.749   1.178   5.123
13468TIP3    H140349   1.782   1.238   5.056
13468TIP3    H240350   1.803   1.196   5.201
13469TIP3   OH240351   7.679   4.413   1.733
13469TIP3    H140352   7.747   4.478   1.750
13469TIP3    H240353   7.641   4.394   1.818
13470TIP3   OH240354   6.843   0.894   6.245
13470TIP3    H140355   6.787   0.951   6.298
13470TIP3    H240356   6.868   0.949   6.170
13471TIP3   OH240357   0.615   2.437   0.758
13471TIP3    H140358   0.544   2.424   0.695
13471TIP3    H240359   0.620   2.353   0.805
13472TIP3   OH240360   3.491   2.732   2.905
13472TIP3    H140361   3.548   2.806   2.881
13472TIP3    H240362   3.491   2.732   3.001
13473TIP3   OH240363   7.320   6.354   4.054
13473TIP3    H140364   7.410   6.323   4.068
13473TIP3    H240365   7.329   6.447   4.034
13474TIP3   OH240366   3.186   1.531   5.327
13474TIP3    H140367   3.125   1.536   5.254
13474TIP3    H240368   3.226   1.618   5.330
13475TIP3   OH240369   0.054   6.033   0.335
13475TIP3    H140370   0.121   6.090   0.373
13475TIP3    H240371   0.032   6.075   0.251
13476TIP3   OH240372   1.820   0.384   5.076
13476TIP3    H140373   1.728   0.379   5.051
13476TIP3    H240374   1.866   0.404   4.995
13477TIP3   OH240375   8.227   5.736   3.065
13477TIP3    H140376   8.157   5.689   3.110
13477TIP3    H240377   8.185   5.777   2.990
13478TIP3   OH240378   2.898   0.710   4.971
13478TIP3    H140379   2.861   0.728   4.884
13478TIP3    H240380   2.937   0.622   4.962
13479TIP3   OH240381   4.669   4.157   4.932
13479TIP3    H140382   4.660   4.198   4.846
13479TIP3    H240383   4.760   4.172   4.957
13480TIP3   OH240384   7.872   4.555   3.693
13480TIP3    H140385   7.902   4.484   3.750
13480TIP3    H240386   7.941   4.564   3.627
13481TIP3   OH240387   5.921   4.353   1.131
13481TIP3    H140388   5.940   4.263   1.158
13481TIP3    H240389   5.919   4.349   1.036
13482TIP3   OH240390   7.598   7.319   6.777
13482TIP3    H140391   7.519   7.267   6.767
13482TIP3    H240392   7.616   7.353   6.689
13483TIP3   OH240393   5.730   2.202   5.941
13483TIP3    H140394   5.671   2.187   5.867
13483TIP3    H240395   5.783   2.277   5.913
13484TIP3   OH240396   1.871   5.172   4.850
13484TIP3    H140397   1.928   5.197   4.923
13484TIP3    H240398   1.931   5.152   4.778
13485TIP3   OH240399   0.578   3.886   6.530
13485TIP3    H140400   0.609   3.815   6.586
13485TIP3    H240401   0.512   3.931   6.582
13486TIP3   OH240402   5.602   0.259   6.146
13486TIP3    H140403   5.632   0.249   6.236
13486TIP3    H240404   5.657   0.329   6.110
13487TIP3   OH240405   5.648   4.991   0.620
13487TIP3    H140406   5.557   5.016   0.601
13487TIP3    H240407   5.696   5.074   0.620
13488TIP3   OH240408   0.551   5.061   0.110
13488TIP3    H140409   0.464   5.066   0.070
13488TIP3    H240410   0.612   5.083   0.039
13489TIP3   OH240411   0.856   0.440   4.849
13489TIP3    H140412   0.811   0.357   4.866
13489TIP3    H240413   0.880   0.436   4.756
13490TIP3   OH240414   1.542   1.535   4.969
13490TIP3    H140415   1.499   1.513   4.887
13490TIP3    H240416   1.476   1.516   5.036
13491TIP3   OH240417   3.980   3.477   6.038
13491TIP3    H140418   4.032   3.509   6.113
13491TIP3    H240419   4.010   3.387   6.025
13492TIP3   OH240420   7.085   6.471   1.842
13492TIP3    H140421   7.126   6.443   1.924
13492TIP3    H240422   7.120   6.559   1.828
13493TIP3   OH240423   5.507   0.648   6.158
13493TIP3    H140424   5.438   0.615   6.216
13493TIP3    H240425   5.461   0.679   6.081
13494TIP3   OH240426   0.100   6.038   1.542
13494TIP3    H140427   0.025   6.032   1.484
13494TIP3    H240428   0.172   5.997   1.494
13495TIP3   OH240429   2.463   1.568   1.502
13495TIP3    H140430   2.488   1.507   1.572
13495TIP3    H240431   2.478   1.519   1.422
13496TIP3   OH240432   1.139   3.310   5.155
13496TIP3    H140433   1.206   3.241   5.150
13496TIP3    H240434   1.164   3.361   5.232
13497TIP3   OH240435   2.382   7.054   5.183
13497TIP3    H140436   2.335   6.997   5.242
13497TIP3    H240437   2.329   7.134   5.178
13498TIP3   OH240438   1.636   4.782   0.820
13498TIP3    H140439   1.727   4.778   0.790
13498TIP3    H240440   1.588   4.723   0.761
13499TIP3   OH240441   1.646   5.814   3.208
13499TIP3    H140442   1.653   5.887   3.146
13499TIP3    H240443   1.556   5.784   3.199
13500TIP3   OH240444   7.550   1.861   2.182
13500TIP3    H140445   7.596   1.783   2.212
13500TIP3    H240446   7.534   1.911   2.263
13501TIP3   OH240447   6.256   1.666   0.934
13501TIP3    H140448   6.275   1.704   0.849
13501TIP3    H240449   6.198   1.729   0.977
13502TIP3   OH240450   6.851   4.131   3.209
13502TIP3    H140451   6.937   4.120   3.251
13502TIP3    H240452   6.797   4.062   3.248
13503TIP3   OH240453   4.394   5.057   2.975
13503TIP3    H140454   4.397   5.120   2.903
13503TIP3    H240455   4.396   5.111   3.054
13504TIP3   OH240456   2.329   1.664   4.741
13504TIP3    H140457   2.364   1.581   4.709
13504TIP3    H240458   2.235   1.651   4.745
13505TIP3   OH240459   3.201   6.745   0.355
13505TIP3    H140460   3.204   6.733   0.450
13505TIP3    H240461   3.161   6.831   0.343
13506TIP3   OH240462   2.500   6.928   4.076
13506TIP3    H140463   2.458   7.009   4.105
13506TIP3    H240464   2.593   6.947   4.079
13507TIP3   OH240465   4.590   7.812   3.496
13507TIP3    H140466   4.559   7.854   3.576
13507TIP3    H240467   4.684   7.799   3.511
13508TIP3   OH240468   0.790   1.755   5.166
13508TIP3    H140469   0.718   1.789   5.114
13508TIP3    H240470   0.777   1.661   5.167
13509TIP3   OH240471   5.993   3.179   1.584
13509TIP3    H140472   5.995   3.217   1.496
13509TIP3    H240473   5.961   3.249   1.640
13510TIP3   OH240474   2.572   1.004   1.932
13510TIP3    H140475   2.574   0.971   2.022
13510TIP3    H240476   2.662   0.998   1.901
13511TIP3   OH240477   2.594   5.110   3.547
13511TIP3    H140478   2.640   5.153   3.619
13511TIP3    H240479   2.556   5.032   3.587
13512TIP3   OH240480   7.547   3.261   3.443
13512TIP3    H140481   7.465   3.281   3.398
13512TIP3    H240482   7.609   3.244   3.372
13513TIP3   OH240483   6.559   3.272   5.512
13513TIP3    H140484   6.644   3.276   5.469
13513TIP3    H240485   6.529   3.183   5.497
13514TIP3   OH240486   0.084   2.905   0.081
13514TIP3    H140487   0.041   2.823   0.108
13514TIP3    H240488   0.040   2.973   0.132
13515TIP3   OH240489   7.780   5.655   3.010
13515TIP3    H140490   7.825   5.725   3.056
13515TIP3    H240491   7.719   5.618   3.074
13516TIP3   OH240492   6.240   4.338   5.965
13516TIP3    H140493   6.162   4.357   6.016
13516TIP3    H240494   6.212   4.350   5.874
13517TIP3   OH240495   4.429   6.196   2.236
13517TIP3    H140496   4.394   6.268   2.183
13517TIP3    H240497   4.472   6.239   2.310
13518TIP3   OH240498   0.897   3.156   5.440
13518TIP3    H140499   0.955   3.152   5.516
13518TIP3    H240500   0.923   3.080   5.387
13519TIP3   OH240501   1.931   1.501   0.695
13519TIP3    H140502   1.881   1.429   0.735
13519TIP3    H240503   1.916   1.491   0.601
13520TIP3   OH240504   2.499   0.735   1.749
13520TIP3    H140505   2.481   0.798   1.679
13520TIP3    H240506   2.586   0.761   1.782
13521TIP3   OH240507   7.791   4.241   3.543
13521TIP3    H140508   7.705   4.200   3.532
13521TIP3    H240509   7.779   4.330   3.512
13522TIP3   OH240510   7.453   7.393   1.600
13522TIP3    H140511   7.406   7.363   1.522
13522TIP3    H240512   7.428   7.484   1.610
13523TIP3   OH240513   1.431   0.367   2.963
13523TIP3    H140514   1.512   0.371   2.912
13523TIP3    H240515   1.395   0.456   2.957
13524TIP3   OH240516   7.980   3.276   3.613
13524TIP3    H140517   8.025   3.225   3.546
13524TIP3    H240518   8.026   3.361   3.613
13525TIP3   OH240519   0.912   0.826   4.661
13525TIP3    H140520   0.817   0.823   4.673
13525TIP3    H240521   0.945   0.857   4.746
13526TIP3   OH240522   0.076   6.626   0.074
13526TIP3    H140523   0.002   6.660   0.126
13526TIP3    H240524   0.040   6.549   0.029
13527TIP3   OH240525   0.819   6.399   3.452
13527TIP3    H140526   0.839   6.409   3.545
13527TIP3    H240527   0.905   6.394   3.410
13528TIP3   OH240528   6.806   3.438   5.424
13528TIP3    H140529   6.838   3.442   5.514
13528TIP3    H240530   6.830   3.522   5.386
13529TIP3   OH240531   2.610   1.320   1.853
13529TIP3    H140532   2.686   1.345   1.905
13529TIP3    H240533   2.627   1.230   1.828
13530TIP3   OH240534   6.756   4.707   3.037
13530TIP3    H140535   6.681   4.667   2.993
13530TIP3    H240536   6.805   4.633   3.074
13531TIP3   OH240537   0.792   1.739   3.960
13531TIP3    H140538   0.811   1.833   3.963
13531TIP3    H240539   0.781   1.720   3.867
13532TIP3   OH240540   7.060   3.641   2.698
13532TIP3    H140541   7.070   3.705   2.628
13532TIP3    H240542   7.066   3.556   2.654
13533TIP3   OH240543   8.082   7.171   2.464
13533TIP3    H140544   8.097   7.227   2.388
13533TIP3    H240545   8.008   7.115   2.438
13534TIP3   OH240546   1.569   5.867   5.886
13534TIP3    H140547   1.482   5.844   5.853
13534TIP3    H240548   1.588   5.801   5.952
13535TIP3   OH240549   2.045   1.084   5.289
13535TIP3    H140550   2.041   0.994   5.258
13535TIP3    H240551   2.043   1.137   5.210
13536TIP3   OH240552   4.105   1.571   5.150
13536TIP3    H140553   4.147   1.485   5.139
13536TIP3    H240554   4.086   1.577   5.243
13537TIP3   OH240555   6.462   3.104   5.240
13537TIP3    H140556   6.406   3.171   5.280
13537TIP3    H240557   6.550   3.142   5.243
13538TIP3   OH240558   5.291   2.002   2.568
13538TIP3    H140559   5.356   2.047   2.514
13538TIP3    H240560   5.324   1.912   2.575
13539TIP3   OH240561   3.360   2.674   5.022
13539TIP3    H140562   3.328   2.736   4.957
13539TIP3    H240563   3.286   2.616   5.038
13540TIP3   OH240564   4.967   4.306   1.826
13540TIP3    H140565   5.032   4.361   1.868
13540TIP3    H240566   4.964   4.226   1.879
13541TIP3   OH240567   7.403   2.561   5.284
13541TIP3    H140568   7.372   2.536   5.371
13541TIP3    H240569   7.370   2.651   5.272
13542TIP3   OH240570   5.105   1.677   2.895
13542TIP3    H140571   5.154   1.752   2.861
13542TIP3    H240572   5.013   1.699   2.879
13543TIP3   OH240573   6.707   2.792   4.518
13543TIP3    H140574   6.627   2.740   4.515
13543TIP3    H240575   6.777   2.727   4.526
13544TIP3   OH240576   6.858   6.048   4.090
13544TIP3    H140577   6.835   6.141   4.096
13544TIP3    H240578   6.830   6.023   4.002
13545TIP3   OH240579   8.330   4.084   3.780
13545TIP3    H140580   8.332   4.160   3.839
13545TIP3    H240581   8.239   4.056   3.781
13546TIP3   OH240582   7.188   5.778   3.805
13546TIP3    H140583   7.183   5.759   3.899
13546TIP3    H240584   7.096   5.778   3.776
13547TIP3   OH240585   7.696   2.880   3.281
13547TIP3    H140586   7.676   2.846   3.194
13547TIP3    H240587   7.790   2.864   3.292
13548TIP3   OH240588   7.463   3.386   5.430
13548TIP3    H140589   7.430   3.340   5.353
13548TIP3    H240590   7.556   3.363   5.434
13549TIP3   OH240591   8.251   5.312   3.080
13549TIP3    H140592   8.195   5.258   3.024
13549TIP3    H240593   8.190   5.369   3.127
13550TIP3   OH240594   3.869   6.425   4.972
13550TIP3    H140595   3.886   6.408   4.879
13550TIP3    H240596   3.871   6.338   5.012
13551TIP3   OH240597   8.239   2.172   3.810
13551TIP3    H140598   8.234   2.100   3.747
13551TIP3    H240599   8.193   2.244   3.768
13552TIP3   OH240600   2.920   2.744   5.295
13552TIP3    H140601   2.861   2.763   5.222
13552TIP3    H240602   2.861   2.723   5.368
13553TIP3   OH240603   3.172   0.427   2.859
13553TIP3    H140604   3.263   0.418   2.888
13553TIP3    H240605   3.130   0.346   2.888
13554TIP3   OH240606   0.605   4.596   3.937
13554TIP3    H140607   0.583   4.575   3.846
13554TIP3    H240608   0.678   4.537   3.957
13555TIP3   OH240609   3.755   0.885   5.769
13555TIP3    H140610   3.831   0.827   5.768
13555TIP3    H240611   3.774   0.950   5.702
13556TIP3   OH240612   0.653   4.695   2.850
13556TIP3    H140613   0.588   4.739   2.795
13556TIP3    H240614   0.730   4.751   2.845
13557TIP3   OH240615   5.783   6.042   0.607
13557TIP3    H140616   5.848   6.017   0.541
13557TIP3    H240617   5.709   5.983   0.592
13558TIP3   OH240618   3.310   0.526   1.770
13558TIP3    H140619   3.347   0.606   1.806
13558TIP3    H240620   3.224   0.518   1.812
13559TIP3   OH240621   3.124   3.890   3.381
13559TIP3    H140622   3.184   3.851   3.445
13559TIP3    H240623   3.080   3.815   3.341
13560TIP3   OH240624   7.847   6.729   1.421
13560TIP3    H140625   7.927   6.729   1.368
13560TIP3    H240626   7.852   6.809   1.473
13561TIP3   OH240627   7.901   1.015   2.377
13561TIP3    H140628   7.953   0.942   2.408
13561TIP3    H240629   7.834   1.028   2.444
13562TIP3   OH240630   2.104   1.753   1.179
13562TIP3    H140631   2.122   1.660   1.165
13562TIP3    H240632   2.145   1.774   1.263
13563TIP3   OH240633   7.119   2.260   2.088
13563TIP3    H140634   7.112   2.188   2.151
13563TIP3    H240635   7.125   2.217   2.003
13564TIP3   OH240636   3.214   5.126   3.548
13564TIP3    H140637   3.291   5.082   3.510
13564TIP3    H240638   3.140   5.092   3.497
13565TIP3   OH240639   1.986   1.991   3.544
13565TIP3    H140640   2.057   2.045   3.579
13565TIP3    H240641   2.011   1.901   3.564
13566TIP3   OH240642   2.484   1.291   5.228
13566TIP3    H140643   2.562   1.346   5.234
13566TIP3    H240644   2.493   1.246   5.144
13567TIP3   OH240645   0.670   0.924   1.378
13567TIP3    H140646   0.735   0.967   1.322
13567TIP3    H240647   0.617   0.872   1.318
13568TIP3   OH240648   7.574   4.921   5.959
13568TIP3    H140649   7.585   4.990   5.893
13568TIP3    H240650   7.482   4.896   5.952
13569TIP3   OH240651   3.134   7.247   6.529
13569TIP3    H140652   3.043   7.222   6.543
13569TIP3    H240653   3.163   7.191   6.457
13570TIP3   OH240654   3.783   3.900   6.750
13570TIP3    H140655   3.849   3.853   6.799
13570TIP3    H240656   3.747   3.835   6.689
13571TIP3   OH240657   0.875   3.121   3.332
13571TIP3    H140658   0.948   3.179   3.350
13571TIP3    H240659   0.904   3.035   3.363
13572TIP3   OH240660   7.333   3.126   5.490
13572TIP3    H140661   7.422   3.143   5.457
13572TIP3    H240662   7.276   3.155   5.419
13573TIP3   OH240663   2.975   1.271   4.296
13573TIP3    H140664   3.047   1.329   4.270
13573TIP3    H240665   2.933   1.246   4.214
13574TIP3   OH240666   5.005   2.020   1.084
13574TIP3    H140667   5.093   2.058   1.084
13574TIP3    H240668   5.020   1.927   1.097
13575TIP3   OH240669   1.058   0.127   5.222
13575TIP3    H140670   1.132   0.067   5.211
13575TIP3    H240671   0.982   0.077   5.191
13576TIP3   OH240672   7.361   0.985   4.611
13576TIP3    H140673   7.373   1.029   4.695
13576TIP3    H240674   7.445   0.993   4.567
13577TIP3   OH240675   3.214   7.507   2.551
13577TIP3    H140676   3.158   7.455   2.609
13577TIP3    H240677   3.159   7.522   2.474
13578TIP3   OH240678   2.317   7.411   3.917
13578TIP3    H140679   2.302   7.496   3.877
13578TIP3    H240680   2.409   7.413   3.944
13579TIP3   OH240681   7.750   4.110   1.885
13579TIP3    H140682   7.823   4.052   1.907
13579TIP3    H240683   7.788   4.178   1.830
13580TIP3   OH240684   3.008   4.012   1.967
13580TIP3    H140685   3.101   4.026   1.982
13580TIP3    H240686   2.964   4.070   2.028
13581TIP3   OH240687   4.564   7.265   5.559
13581TIP3    H140688   4.635   7.320   5.528
13581TIP3    H240689   4.589   7.241   5.648
13582TIP3   OH240690   4.137   2.608   6.682
13582TIP3    H140691   4.051   2.614   6.641
13582TIP3    H240692   4.197   2.645   6.616
13583TIP3   OH240693   4.222   0.041   3.085
13583TIP3    H140694   4.297   0.044   3.143
13583TIP3    H240695   4.251  -0.011   3.010
13584TIP3   OH240696   6.593   1.945   1.431
13584TIP3    H140697   6.569   1.920   1.342
13584TIP3    H240698   6.548   1.881   1.487
13585TIP3   OH240699   3.262   0.333   6.131
13585TIP3    H140700   3.250   0.409   6.188
13585TIP3    H240701   3.191   0.341   6.066
13586TIP3   OH240702   2.440   6.869   0.893
13586TIP3    H140703   2.499   6.831   0.958
13586TIP3    H240704   2.374   6.802   0.878
13587TIP3   OH240705   4.893   0.047   6.732
13587TIP3    H140706   4.867   0.097   6.809
13587TIP3    H240707   4.966  -0.007   6.762
13588TIP3   OH240708   2.693   2.756   2.416
13588TIP3    H140709   2.615   2.701   2.415
13588TIP3    H240710   2.674   2.826   2.353
13589TIP3   OH240711   7.545   7.487   3.924
13589TIP3    H140712   7.525   7.394   3.932
13589TIP3    H240713   7.516   7.525   4.006
13590TIP3   OH240714   4.501   5.503   0.570
13590TIP3    H140715   4.534   5.463   0.650
13590TIP3    H240716   4.445   5.575   0.601
13591TIP3   OH240717   6.403   4.621   1.116
13591TIP3    H140718   6.483   4.575   1.140
13591TIP3    H240719   6.418   4.712   1.142
13592TIP3   OH240720   1.902   1.643   1.490
13592TIP3    H140721   1.960   1.684   1.426
13592TIP3    H240722   1.824   1.699   1.490
13593TIP3   OH240723   2.526   1.586   5.457
13593TIP3    H140724   2.549   1.544   5.374
13593TIP3    H240725   2.478   1.518   5.506
13594TIP3   OH240726   8.278   0.339   1.788
13594TIP3    H140727   8.373   0.327   1.782
13594TIP3    H240728   8.249   0.344   1.697
13595TIP3   OH240729   0.662   1.480   1.942
13595TIP3    H140730   0.644   1.416   2.010
13595TIP3    H240731   0.742   1.449   1.900
13596TIP3   OH240732   1.002   3.548   1.934
13596TIP3    H140733   0.994   3.595   2.017
13596TIP3    H240734   1.088   3.572   1.901
13597TIP3   OH240735   0.201   4.906   5.222
13597TIP3    H140736   0.267   4.975   5.230
13597TIP3    H240737   0.251   4.827   5.205
13598TIP3   OH240738   7.254   3.204   3.836
13598TIP3    H140739   7.260   3.247   3.921
13598TIP3    H240740   7.337   3.223   3.794
13599TIP3   OH240741   1.344   0.706   1.270
13599TIP3    H140742   1.438   0.721   1.260
13599TIP3    H240743   1.304   0.765   1.206
13600TIP3   OH240744   3.163   3.657   5.830
13600TIP3    H140745   3.179   3.637   5.738
13600TIP3    H240746   3.227   3.724   5.852
13601TIP3   OH240747   2.966   5.777   2.102
13601TIP3    H140748   2.908   5.851   2.084
13601TIP3    H240749   3.017   5.766   2.022
13602TIP3   OH240750   6.679   0.516   1.086
13602TIP3    H140751   6.688   0.425   1.114
13602TIP3    H240752   6.688   0.567   1.166
13603TIP3   OH240753   2.454   4.047   5.945
13603TIP3    H140754   2.489   4.068   6.032
13603TIP3    H240755   2.531   4.050   5.887
13604TIP3   OH240756   6.528   6.946   0.504
13604TIP3    H140757   6.579   6.892   0.444
13604TIP3    H240758   6.439   6.945   0.468
13605TIP3   OH240759   3.847   1.074   6.026
13605TIP3    H140760   3.828   1.111   5.940
13605TIP3    H240761   3.882   0.986   6.007
13606TIP3   OH240762   3.941   7.202   3.425
13606TIP3    H140763   3.923   7.155   3.343
13606TIP3    H240764   4.035   7.191   3.438
13607TIP3   OH240765   6.384   1.001   4.037
13607TIP3    H140766   6.306   1.008   4.091
13607TIP3    H240767   6.352   0.984   3.949
13608TIP3   OH240768   7.534   0.957   0.613
13608TIP3    H140769   7.480   1.001   0.547
13608TIP3    H240770   7.571   0.881   0.567
13609TIP3   OH240771   6.411   6.089   0.972
13609TIP3    H140772   6.374   6.001   0.968
13609TIP3    H240773   6.398   6.117   1.062
13610TIP3   OH240774   5.034   6.762   0.959
13610TIP3    H140775   5.026   6.813   1.040
13610TIP3    H240776   4.944   6.740   0.936
13611TIP3   OH240777   2.582   4.489   1.973
13611TIP3    H140778   2.634   4.425   2.023
13611TIP3    H240779   2.504   4.441   1.946
13612TIP3   OH240780   7.023   4.277   4.549
13612TIP3    H140781   7.118   4.284   4.557
13612TIP3    H240782   7.009   4.198   4.497
13613TIP3   OH240783   3.155   0.337   5.599
13613TIP3    H140784   3.129   0.291   5.520
13613TIP3    H240785   3.084   0.400   5.615
13614TIP3   OH240786   1.802   6.414   3.544
13614TIP3    H140787   1.844   6.451   3.466
13614TIP3    H240788   1.823   6.475   3.614
13615TIP3   OH240789   5.225   6.424   4.903
13615TIP3    H140790   5.313   6.406   4.937
13615TIP3    H240791   5.168   6.410   4.979
13616TIP3   OH240792   5.233   3.645   3.924
13616TIP3    H140793   5.154   3.657   3.871
13616TIP3    H240794   5.264   3.557   3.902
13617TIP3   OH240795   2.736   1.415   3.484
13617TIP3    H140796   2.709   1.431   3.393
13617TIP3    H240797   2.792   1.337   3.479
13618TIP3   OH240798   3.812   3.015   5.079
13618TIP3    H140799   3.776   3.095   5.117
13618TIP3    H240800   3.754   2.945   5.110
13619TIP3   OH240801   2.689   7.125   1.354
13619TIP3    H140802   2.676   7.203   1.299
13619TIP3    H240803   2.629   7.060   1.317
13620TIP3   OH240804   7.486   4.607   6.556
13620TIP3    H140805   7.425   4.643   6.492
13620TIP3    H240806   7.496   4.676   6.621
13621TIP3   OH240807   7.746   2.731   6.450
13621TIP3    H140808   7.666   2.778   6.427
13621TIP3    H240809   7.816   2.786   6.416
13622TIP3   OH240810   7.661   5.245   0.131
13622TIP3    H140811   7.637   5.240   0.223
13622TIP3    H240812   7.707   5.163   0.114
13623TIP3   OH240813   5.162   2.356   5.328
13623TIP3    H140814   5.080   2.345   5.377
13623TIP3    H240815   5.194   2.442   5.354
13624TIP3   OH240816   2.680   0.812   3.645
13624TIP3    H140817   2.769   0.777   3.636
13624TIP3    H240818   2.648   0.818   3.555
13625TIP3   OH240819   3.850   0.804   0.374
13625TIP3    H140820   3.945   0.812   0.385
13625TIP3    H240821   3.820   0.894   0.361
13626TIP3   OH240822   7.773   7.354   2.993
13626TIP3    H140823   7.712   7.428   2.993
13626TIP3    H240824   7.757   7.310   2.909
13627TIP3   OH240825   7.253   1.383   5.917
13627TIP3    H140826   7.285   1.344   5.836
13627TIP3    H240827   7.252   1.312   5.980
13628TIP3   OH240828   1.700   0.954   1.470
13628TIP3    H140829   1.665   0.894   1.535
13628TIP3    H240830   1.784   0.982   1.506
13629TIP3   OH240831   4.982   6.953   2.763
13629TIP3    H140832   5.055   6.973   2.820
13629TIP3    H240833   5.021   6.906   2.689
13630TIP3   OH240834   1.587   0.292   5.815
13630TIP3    H140835   1.554   0.375   5.781
13630TIP3    H240836   1.530   0.272   5.889
13631TIP3   OH240837   0.997   7.483   5.398
13631TIP3    H140838   0.982   7.505   5.490
13631TIP3    H240839   1.073   7.535   5.373
13632TIP3   OH240840   4.018   2.000   4.942
13632TIP3    H140841   4.106   2.014   4.906
13632TIP3    H240842   3.967   1.971   4.867
13633TIP3   OH240843   4.713   6.798   3.354
13633TIP3    H140844   4.622   6.828   3.348
13633TIP3    H240845   4.734   6.807   3.447
13634TIP3   OH240846   0.616   0.593   3.341
13634TIP3    H140847   0.551   0.543   3.291
13634TIP3    H240848   0.692   0.598   3.283
13635TIP3   OH240849   1.854   0.540   2.197
13635TIP3    H140850   1.783   0.603   2.209
13635TIP3    H240851   1.860   0.528   2.102
13636TIP3   OH240852   7.267   5.796   3.276
13636TIP3    H140853   7.198   5.844   3.323
13636TIP3    H240854   7.348   5.824   3.319
13637TIP3   OH240855   2.189   2.693   1.458
13637TIP3    H140856   2.099   2.661   1.468
13637TIP3    H240857   2.241   2.614   1.443
13638TIP3   OH240858   4.295   4.048   2.495
13638TIP3    H140859   4.349   3.975   2.525
13638TIP3    H240860   4.205   4.014   2.497
13639TIP3   OH240861   5.223   4.800   5.393
13639TIP3    H140862   5.193   4.716   5.427
13639TIP3    H240863   5.296   4.778   5.335
13640TIP3   OH240864   4.390   4.533   6.272
13640TIP3    H140865   4.329   4.568   6.337
13640TIP3    H240866   4.386   4.438   6.284
13641TIP3   OH240867   6.745   5.883   3.035
13641TIP3    H140868   6.815   5.899   2.971
13641TIP3    H240869   6.761   5.947   3.104
13642TIP3   OH240870   7.141   6.577   1.057
13642TIP3    H140871   7.205   6.631   1.104
13642TIP3    H240872   7.119   6.507   1.118
13643TIP3   OH240873   5.284   4.997   0.180
13643TIP3    H140874   5.261   4.946   0.103
13643TIP3    H240875   5.240   5.081   0.168
13644TIP3   OH240876   6.634   4.482   1.185
13644TIP3    H140877   6.684   4.446   1.112
13644TIP3    H240878   6.585   4.408   1.219
13645TIP3   OH240879   7.258   4.402   0.232
13645TIP3    H140880   7.195   4.414   0.303
13645TIP3    H240881   7.300   4.487   0.222
13646TIP3   OH240882   7.714   6.662   0.742
13646TIP3    H140883   7.774   6.673   0.668
13646TIP3    H240884   7.673   6.577   0.728
13647TIP3   OH240885   1.244   3.948   0.787
13647TIP3    H140886   1.256   4.043   0.794
13647TIP3    H240887   1.185   3.927   0.859
13648TIP3   OH240888   4.645   7.203   2.120
13648TIP3    H140889   4.578   7.253   2.073
13648TIP3    H240890   4.626   7.112   2.097
13649TIP3   OH240891   7.005   7.461   0.846
13649TIP3    H140892   6.989   7.396   0.915
13649TIP3    H240893   6.939   7.528   0.861
13650TIP3   OH240894   0.353   3.427   1.823
13650TIP3    H140895   0.430   3.393   1.778
13650TIP3    H240896   0.284   3.363   1.805
13651TIP3   OH240897   1.747   6.887   5.855
13651TIP3    H140898   1.780   6.947   5.923
13651TIP3    H240899   1.653   6.904   5.851
13652TIP3   OH240900   3.798   6.433   3.163
13652TIP3    H140901   3.728   6.498   3.164
13652TIP3    H240902   3.808   6.409   3.071
13653TIP3   OH240903   2.112   4.384   4.241
13653TIP3    H140904   2.158   4.396   4.323
13653TIP3    H240905   2.153   4.447   4.181
13654TIP3   OH240906   0.095   4.991   4.099
13654TIP3    H140907   0.016   4.946   4.131
13654TIP3    H240908   0.167   4.935   4.128
13655TIP3   OH240909   2.099   7.633   4.238
13655TIP3    H140910   2.193   7.649   4.226
13655TIP3    H240911   2.068   7.606   4.152
13656TIP3   OH240912   7.220   6.571   3.332
13656TIP3    H140913   7.310   6.606   3.334
13656TIP3    H240914   7.197   6.570   3.239
13657TIP3   OH240915   7.151   5.428   5.935
13657TIP3    H140916   7.219   5.415   6.002
13657TIP3    H240917   7.093   5.495   5.973
13658TIP3   OH240918   5.107   1.411   1.223
13658TIP3    H140919   5.194   1.442   1.245
13658TIP3    H240920   5.053   1.435   1.299
13659TIP3   OH240921   2.314   7.055   1.670
13659TIP3    H140922   2.252   7.006   1.616
13659TIP3    H240923   2.364   6.988   1.717
13660TIP3   OH240924   3.134   4.559   0.727
13660TIP3    H140925   3.174   4.638   0.764
13660TIP3    H240926   3.129   4.499   0.801
13661TIP3   OH240927   8.267   4.169   1.518
13661TIP3    H140928   8.342   4.227   1.510
13661TIP3    H240929   8.284   4.117   1.596
13662TIP3   OH240930   5.940   3.840   1.780
13662TIP3    H140931   5.844   3.841   1.776
13662TIP3    H240932   5.965   3.771   1.719
13663TIP3   OH240933   4.848   4.864   3.548
13663TIP3    H140934   4.873   4.773   3.530
13663TIP3    H240935   4.873   4.911   3.468
13664TIP3   OH240936   6.570   7.596   0.390
13664TIP3    H140937   6.499   7.574   0.329
13664TIP3    H240938   6.611   7.673   0.351
13665TIP3   OH240939   4.610   3.785   3.032
13665TIP3    H140940   4.522   3.752   3.048
13665TIP3    H240941   4.603   3.880   3.042
13666TIP3   OH240942   6.222   4.919   5.024
13666TIP3    H140943   6.227   4.830   4.988
13666TIP3    H240944   6.263   4.912   5.110
13667TIP3   OH240945   7.154   1.111   6.475
13667TIP3    H140946   7.091   1.156   6.419
13667TIP3    H240947   7.104   1.040   6.515
13668TIP3   OH240948   7.346   5.659   4.860
13668TIP3    H140949   7.419   5.610   4.822
13668TIP3    H240950   7.314   5.714   4.788
13669TIP3   OH240951   3.379   7.057   4.575
13669TIP3    H140952   3.465   7.020   4.554
13669TIP3    H240953   3.377   7.140   4.528
13670TIP3   OH240954   6.538   4.390   2.279
13670TIP3    H140955   6.554   4.463   2.339
13670TIP3    H240956   6.625   4.361   2.254
13671TIP3   OH240957   0.783   2.592   5.929
13671TIP3    H140958   0.797   2.572   5.837
13671TIP3    H240959   0.732   2.673   5.929
13672TIP3   OH240960   4.066   3.999   6.560
13672TIP3    H140961   4.102   4.087   6.549
13672TIP3    H240962   3.980   4.003   6.520
13673TIP3   OH240963   4.619   1.301   1.718
13673TIP3    H140964   4.536   1.270   1.680
13673TIP3    H240965   4.601   1.391   1.744
13674TIP3   OH240966   5.346   5.735   4.198
13674TIP3    H140967   5.377   5.806   4.254
13674TIP3    H240968   5.386   5.752   4.113
13675TIP3   OH240969   2.749   7.662   1.119
13675TIP3    H140970   2.691   7.726   1.160
13675TIP3    H240971   2.723   7.662   1.027
13676TIP3   OH240972   6.464   3.465   4.141
13676TIP3    H140973   6.438   3.557   4.145
13676TIP3    H240974   6.399   3.424   4.083
13677TIP3   OH240975   2.411   7.041   1.257
13677TIP3    H140976   2.450   7.045   1.169
13677TIP3    H240977   2.407   6.948   1.278
13678TIP3   OH240978   7.573   0.153   6.087
13678TIP3    H140979   7.623   0.071   6.094
13678TIP3    H240980   7.483   0.125   6.072
13679TIP3   OH240981   3.016   6.300   2.410
13679TIP3    H140982   2.990   6.221   2.459
13679TIP3    H240983   3.021   6.271   2.319
13680TIP3   OH240984   3.575   4.731   5.190
13680TIP3    H140985   3.512   4.804   5.197
13680TIP3    H240986   3.520   4.653   5.187
13681TIP3   OH240987   7.450   7.521   1.096
13681TIP3    H140988   7.482   7.431   1.101
13681TIP3    H240989   7.454   7.542   1.003
13682TIP3   OH240990   2.243   5.698   2.781
13682TIP3    H140991   2.337   5.702   2.767
13682TIP3    H240992   2.214   5.789   2.779
13683TIP3   OH240993   3.755   5.446   4.521
13683TIP3    H140994   3.669   5.406   4.510
13683TIP3    H240995   3.801   5.387   4.581
13684TIP3   OH240996   1.520   4.123   3.001
13684TIP3    H140997   1.583   4.165   2.943
13684TIP3    H240998   1.496   4.190   3.064
13685TIP3   OH240999   3.038   5.020   3.926
13685TIP3    H141000   2.981   5.027   4.003
13685TIP3    H241001   3.037   5.107   3.886
13686TIP3   OH241002   6.159   0.963   4.772
13686TIP3    H141003   6.255   0.962   4.779
13686TIP3    H241004   6.141   1.034   4.710
13687TIP3   OH241005   2.444   1.496   0.917
13687TIP3    H141006   2.466   1.564   0.980
13687TIP3    H241007   2.380   1.536   0.858
13688TIP3   OH241008   1.511   4.951   5.038
13688TIP3    H141009   1.542   4.866   5.069
13688TIP3    H241010   1.533   5.011   5.109
13689TIP3   OH241011   5.204   2.742   4.254
13689TIP3    H141012   5.215   2.828   4.214
13689TIP3    H241013   5.181   2.761   4.345
13690TIP3   OH241014   7.638   0.677   0.596
13690TIP3    H141015   7.594   0.636   0.670
13690TIP3    H241016   7.725   0.637   0.595
13691TIP3   OH241017   2.027   1.647   3.896
13691TIP3    H141018   2.049   1.697   3.975
13691TIP3    H241019   2.012   1.714   3.829
13692TIP3   OH241020   8.164   4.561   3.632
13692TIP3    H141021   8.190   4.600   3.548
13692TIP3    H241022   8.235   4.500   3.653
13693TIP3   OH241023   1.873   2.328   0.288
13693TIP3    H141024   1.856   2.267   0.360
13693TIP3    H241025   1.966   2.348   0.296
13694TIP3   OH241026   4.739   2.550   2.156
13694TIP3    H141027   4.723   2.631   2.108
13694TIP3    H241028   4.708   2.567   2.245
13695TIP3   OH241029   7.021   3.781   3.695
13695TIP3    H141030   7.036   3.785   3.600
13695TIP3    H241031   7.049   3.866   3.727
13696TIP3   OH241032   2.255   2.827   5.343
13696TIP3    H141033   2.326   2.861   5.288
13696TIP3    H241034   2.244   2.894   5.411
13697TIP3   OH241035   6.920   6.020   2.390
13697TIP3    H141036   6.868   5.943   2.367
13697TIP3    H241037   6.856   6.082   2.426
13698TIP3   OH241038   6.923   0.848   1.020
13698TIP3    H141039   6.968   0.837   1.104
13698TIP3    H241040   6.992   0.841   0.955
13699TIP3   OH241041   8.095   3.244   2.197
13699TIP3    H141042   8.175   3.213   2.155
13699TIP3    H241043   8.103   3.215   2.288
13700TIP3   OH241044   0.790   5.680   0.943
13700TIP3    H141045   0.719   5.701   0.882
13700TIP3    H241046   0.773   5.590   0.970
13701TIP3   OH241047   4.738   1.188   2.215
13701TIP3    H141048   4.786   1.268   2.195
13701TIP3    H241049   4.771   1.124   2.152
13702TIP3   OH241050   0.985   6.482   2.978
13702TIP3    H141051   1.035   6.424   2.920
13702TIP3    H241052   0.916   6.517   2.922
13703TIP3   OH241053   6.058   2.998   2.059
13703TIP3    H141054   6.124   2.952   2.109
13703TIP3    H241055   6.067   2.964   1.970
13704TIP3   OH241056   3.745   6.997   6.219
13704TIP3    H141057   3.751   7.081   6.174
13704TIP3    H241058   3.745   7.019   6.312
13705TIP3   OH241059   5.918   5.767   2.145
13705TIP3    H141060   5.858   5.778   2.219
13705TIP3    H241061   5.927   5.855   2.108
13706TIP3   OH241062   5.760   7.762   5.009
13706TIP3    H141063   5.736   7.852   4.987
13706TIP3    H241064   5.682   7.710   4.990
13707TIP3   OH241065   4.982   7.345   0.670
13707TIP3    H141066   4.899   7.321   0.628
13707TIP3    H241067   4.999   7.273   0.731
13708TIP3   OH241068   1.816   0.377   3.078
13708TIP3    H141069   1.764   0.377   2.999
13708TIP3    H241070   1.833   0.285   3.097
13709TIP3   OH241071   0.946   4.067   5.074
13709TIP3    H141072   1.004   4.015   5.018
13709TIP3    H241073   0.992   4.071   5.158
13710TIP3   OH241074   1.827   0.119   6.308
13710TIP3    H141075   1.888   0.180   6.349
13710TIP3    H241076   1.763   0.176   6.265
13711TIP3   OH241077   0.563   0.439   1.178
13711TIP3    H141078   0.512   0.517   1.201
13711TIP3    H241079   0.497   0.370   1.171
13712TIP3   OH241080   1.585   6.663   5.624
13712TIP3    H141081   1.565   6.740   5.571
13712TIP3    H241082   1.575   6.693   5.714
13713TIP3   OH241083   2.085   0.231   1.405
13713TIP3    H141084   2.010   0.249   1.348
13713TIP3    H241085   2.159   0.274   1.362
13714TIP3   OH241086   4.730   6.127   5.845
13714TIP3    H141087   4.796   6.147   5.779
13714TIP3    H241088   4.696   6.213   5.872
13715TIP3   OH241089   3.522   7.523   3.109
13715TIP3    H141090   3.492   7.536   3.019
13715TIP3    H241091   3.609   7.484   3.100
13716TIP3   OH241092   7.566   6.767   2.725
13716TIP3    H141093   7.523   6.824   2.661
13716TIP3    H241094   7.509   6.770   2.802
13717TIP3   OH241095   1.249   6.608   3.777
13717TIP3    H141096   1.255   6.559   3.695
13717TIP3    H241097   1.338   6.607   3.811
13718TIP3   OH241098   0.353   5.124   5.324
13718TIP3    H141099   0.391   5.146   5.409
13718TIP3    H241100   0.427   5.120   5.264
13719TIP3   OH241101   2.196   6.676   3.613
13719TIP3    H141102   2.173   6.721   3.531
13719TIP3    H241103   2.290   6.689   3.621
13720TIP3   OH241104   6.968   6.126   5.786
13720TIP3    H141105   7.062   6.137   5.801
13720TIP3    H241106   6.962   6.084   5.700
13721TIP3   OH241107   7.455   0.735   0.033
13721TIP3    H141108   7.365   0.765   0.022
13721TIP3    H241109   7.475   0.687  -0.047
13722TIP3   OH241110   7.478   7.784   3.079
13722TIP3    H141111   7.401   7.829   3.114
13722TIP3    H241112   7.486   7.816   2.990
13723TIP3   OH241113   1.771   3.337   1.113
13723TIP3    H141114   1.731   3.423   1.099
13723TIP3    H241115   1.834   3.351   1.183
13724TIP3   OH241116   0.479   1.346   0.395
13724TIP3    H141117   0.427   1.275   0.357
13724TIP3    H241118   0.415   1.416   0.410
13725TIP3   OH241119   0.325   6.152   0.681
13725TIP3    H141120   0.275   6.078   0.712
13725TIP3    H241121   0.306   6.157   0.587
13726TIP3   OH241122   2.543   4.620   4.440
13726TIP3    H141123   2.488   4.568   4.500
13726TIP3    H241124   2.502   4.606   4.354
13727TIP3   OH241125   3.645   0.873   4.729
13727TIP3    H141126   3.733   0.836   4.729
13727TIP3    H241127   3.657   0.964   4.757
13728TIP3   OH241128   6.212   6.142   0.191
13728TIP3    H141129   6.218   6.188   0.108
13728TIP3    H241130   6.176   6.056   0.169
13729TIP3   OH241131   1.403   7.687   2.008
13729TIP3    H141132   1.310   7.667   2.019
13729TIP3    H241133   1.409   7.730   1.922
13730TIP3   OH241134   0.602   2.759   4.010
13730TIP3    H141135   0.601   2.754   4.106
13730TIP3    H241136   0.675   2.704   3.983
13731TIP3   OH241137   3.412   7.255   6.565
13731TIP3    H141138   3.426   7.235   6.473
13731TIP3    H241139   3.354   7.331   6.564
13732TIP3   OH241140   0.137   4.879   3.840
13732TIP3    H141141   0.118   4.938   3.913
13732TIP3    H241142   0.137   4.792   3.879
13733TIP3   OH241143   8.030   0.909   5.269
13733TIP3    H141144   7.985   0.897   5.185
13733TIP3    H241145   8.024   0.823   5.311
13734TIP3   OH241146   5.754   1.862   3.575
13734TIP3    H141147   5.722   1.796   3.636
13734TIP3    H241148   5.831   1.822   3.535
13735TIP3   OH241149   3.066   6.624   3.059
13735TIP3    H141150   3.080   6.685   3.131
13735TIP3    H241151   2.984   6.580   3.080
13736TIP3   OH241152   2.353   3.453   5.353
13736TIP3    H141153   2.369   3.361   5.372
13736TIP3    H241154   2.372   3.499   5.435
13737TIP3   OH241155   4.487   7.752   0.426
13737TIP3    H141156   4.464   7.665   0.393
13737TIP3    H241157   4.439   7.760   0.508
13738TIP3   OH241158   0.251   1.170   5.828
13738TIP3    H141159   0.215   1.111   5.762
13738TIP3    H241160   0.187   1.169   5.899
13739TIP3   OH241161   4.582   5.814   1.773
13739TIP3    H141162   4.624   5.861   1.845
13739TIP3    H241163   4.625   5.728   1.773
13740TIP3   OH241164   7.901   5.270   6.462
13740TIP3    H141165   7.891   5.186   6.418
13740TIP3    H241166   7.969   5.254   6.528
13741TIP3   OH241167   2.461   1.465   1.248
13741TIP3    H141168   2.493   1.537   1.194
13741TIP3    H241169   2.376   1.443   1.210
13742TIP3   OH241170   0.404   3.342   5.085
13742TIP3    H141171   0.484   3.290   5.095
13742TIP3    H241172   0.339   3.281   5.052
13743TIP3   OH241173   7.909   3.219   4.523
13743TIP3    H141174   7.919   3.297   4.468
13743TIP3    H241175   7.827   3.234   4.570
13744TIP3   OH241176   4.601   5.666   5.405
13744TIP3    H141177   4.519   5.691   5.363
13744TIP3    H241178   4.585   5.679   5.499
13745TIP3   OH241179   4.715   6.672   4.364
13745TIP3    H141180   4.805   6.640   4.357
13745TIP3    H241181   4.708   6.706   4.453
13746TIP3   OH241182   3.937   6.944   5.381
13746TIP3    H141183   3.980   6.973   5.300
13746TIP3    H241184   3.902   6.857   5.359
13747TIP3   OH241185   4.344   1.166   0.194
13747TIP3    H141186   4.439   1.163   0.203
13747TIP3    H241187   4.311   1.172   0.283
13748TIP3   OH241188   7.091   0.136   2.222
13748TIP3    H141189   6.996   0.127   2.231
13748TIP3    H241190   7.112   0.217   2.269
13749TIP3   OH241191   0.998   6.141   0.866
13749TIP3    H141192   0.943   6.072   0.904
13749TIP3    H241193   1.010   6.205   0.936
13750TIP3   OH241194   5.191   7.132   5.271
13750TIP3    H141195   5.165   7.191   5.342
13750TIP3    H241196   5.155   7.173   5.192
13751TIP3   OH241197   3.497   5.721   0.438
13751TIP3    H141198   3.412   5.710   0.481
13751TIP3    H241199   3.535   5.798   0.480
13752TIP3   OH241200   4.603   1.163   2.497
13752TIP3    H141201   4.644   1.167   2.411
13752TIP3    H241202   4.602   1.253   2.528
13753TIP3   OH241203   1.374   1.786   2.613
13753TIP3    H141204   1.377   1.757   2.522
13753TIP3    H241205   1.324   1.868   2.611
13754TIP3   OH241206   2.392   5.692   5.218
13754TIP3    H141207   2.368   5.626   5.153
13754TIP3    H241208   2.321   5.757   5.213
13755TIP3   OH241209   1.108   7.460   0.440
13755TIP3    H141210   1.091   7.440   0.348
13755TIP3    H241211   1.081   7.551   0.450
13756TIP3   OH241212   7.612   4.036   6.685
13756TIP3    H141213   7.652   4.007   6.767
13756TIP3    H241214   7.517   4.027   6.700
13757TIP3   OH241215   6.006   6.828   0.421
13757TIP3    H141216   6.019   6.783   0.504
13757TIP3    H241217   5.938   6.778   0.376
13758TIP3   OH241218   5.353   1.514   1.336
13758TIP3    H141219   5.400   1.516   1.252
13758TIP3    H241220   5.385   1.591   1.383
13759TIP3   OH241221   1.653   0.663   3.739
13759TIP3    H141222   1.704   0.736   3.773
13759TIP3    H241223   1.649   0.679   3.645
13760TIP3   OH241224   5.198   5.506   1.563
13760TIP3    H141225   5.280   5.530   1.519
13760TIP3    H241226   5.211   5.530   1.654
13761TIP3   OH241227   7.898   3.656   4.952
13761TIP3    H141228   7.831   3.638   4.887
13761TIP3    H241229   7.979   3.622   4.913
13762TIP3   OH241230   3.242   3.914   5.942
13762TIP3    H141231   3.254   3.971   5.866
13762TIP3    H241232   3.331   3.889   5.967
13763TIP3   OH241233   7.940   3.286   3.255
13763TIP3    H141234   7.873   3.234   3.210
13763TIP3    H241235   7.892   3.344   3.313
13764TIP3   OH241236   1.601   6.069   4.079
13764TIP3    H141237   1.573   6.008   4.010
13764TIP3    H241238   1.689   6.041   4.102
13765TIP3   OH241239   5.192   3.796   3.349
13765TIP3    H141240   5.210   3.882   3.386
13765TIP3    H241241   5.160   3.814   3.261
13766TIP3   OH241242   0.068   7.096   4.335
13766TIP3    H141243   0.105   7.158   4.271
13766TIP3    H241244  -0.023   7.084   4.307
13767TIP3   OH241245   0.833   2.718   1.858
13767TIP3    H141246   0.831   2.622   1.866
13767TIP3    H241247   0.742   2.744   1.875
13768TIP3   OH241248   0.551   3.884   6.245
13768TIP3    H141249   0.629   3.830   6.264
13768TIP3    H241250   0.517   3.906   6.331
13769TIP3   OH241251   4.526   6.433   5.119
13769TIP3    H141252   4.601   6.492   5.128
13769TIP3    H241253   4.564   6.345   5.122
13770TIP3   OH241254   6.294   0.592   1.325
13770TIP3    H141255   6.348   0.658   1.282
13770TIP3    H241256   6.356   0.529   1.360
13771TIP3   OH241257   6.728   5.736   3.632
13771TIP3    H141258   6.716   5.662   3.572
13771TIP3    H241259   6.791   5.704   3.697
13772TIP3   OH241260   5.428   3.974   3.314
13772TIP3    H141261   5.349   4.012   3.275
13772TIP3    H241262   5.479   4.049   3.344
13773TIP3   OH241263   2.740   5.623   2.311
13773TIP3    H141264   2.697   5.692   2.261
13773TIP3    H241265   2.675   5.595   2.375
13774TIP3   OH241266   8.250   7.699   3.616
13774TIP3    H141267   8.336   7.657   3.619
13774TIP3    H241268   8.190   7.630   3.590
13775TIP3   OH241269   0.787   6.360   3.733
13775TIP3    H141270   0.878   6.334   3.750
13775TIP3    H241271   0.740   6.333   3.812
13776TIP3   OH241272   7.824   0.597   2.978
13776TIP3    H141273   7.853   0.528   2.920
13776TIP3    H241274   7.869   0.581   3.061
13777TIP3   OH241275   1.823   6.337   4.119
13777TIP3    H141276   1.801   6.321   4.028
13777TIP3    H241277   1.848   6.251   4.154
13778TIP3   OH241278   6.261   6.956   6.241
13778TIP3    H141279   6.168   6.933   6.239
13778TIP3    H241280   6.296   6.923   6.159
13779TIP3   OH241281   0.149   2.781   5.085
13779TIP3    H141282   0.074   2.827   5.048
13779TIP3    H241283   0.171   2.713   5.021
13780TIP3   OH241284   2.698   1.416   0.861
13780TIP3    H141285   2.608   1.448   0.868
13780TIP3    H241286   2.751   1.487   0.898
13781TIP3   OH241287   0.189   4.340   1.466
13781TIP3    H141288   0.247   4.362   1.393
13781TIP3    H241289   0.185   4.420   1.519
13782TIP3   OH241290   7.385   5.318   3.122
13782TIP3    H141291   7.306   5.276   3.089
13782TIP3    H241292   7.441   5.328   3.046
13783TIP3   OH241293   4.767   2.302   0.988
13783TIP3    H141294   4.715   2.330   1.062
13783TIP3    H241295   4.858   2.319   1.014
13784TIP3   OH241296   5.562   0.847   2.147
13784TIP3    H141297   5.476   0.865   2.183
13784TIP3    H241298   5.570   0.752   2.149
13785TIP3   OH241299   0.347   3.401   4.624
13785TIP3    H141300   0.394   3.323   4.652
13785TIP3    H241301   0.267   3.402   4.676
13786TIP3   OH241302   1.555   2.148   0.350
13786TIP3    H141303   1.602   2.129   0.269
13786TIP3    H241304   1.576   2.240   0.368
13787TIP3   OH241305   1.884   0.707   1.660
13787TIP3    H141306   1.965   0.741   1.698
13787TIP3    H241307   1.910   0.624   1.619
13788TIP3   OH241308   3.949   6.337   2.298
13788TIP3    H141309   4.021   6.274   2.301
13788TIP3    H241310   3.896   6.309   2.224
13789TIP3   OH241311   3.261   6.019   0.646
13789TIP3    H141312   3.338   6.050   0.599
13789TIP3    H241313   3.240   6.089   0.707
13790TIP3   OH241314   0.364   1.249   2.414
13790TIP3    H141315   0.423   1.237   2.488
13790TIP3    H241316   0.281   1.276   2.453
13791TIP3   OH241317   0.382   1.098   0.970
13791TIP3    H141318   0.412   1.054   0.890
13791TIP3    H241319   0.304   1.145   0.943
13792TIP3   OH241320   3.750   1.612   4.081
13792TIP3    H141321   3.699   1.670   4.024
13792TIP3    H241322   3.736   1.525   4.045
13793TIP3   OH241323   0.883   6.254   0.639
13793TIP3    H141324   0.925   6.339   0.624
13793TIP3    H241325   0.922   6.223   0.720
13794TIP3   OH241326   7.289   1.197   6.098
13794TIP3    H141327   7.300   1.250   6.176
13794TIP3    H241328   7.263   1.111   6.130
13795TIP3   OH241329   4.899   3.223   3.242
13795TIP3    H141330   4.854   3.186   3.317
13795TIP3    H241331   4.834   3.279   3.200
13796TIP3   OH241332   6.293   7.390   2.571
13796TIP3    H141333   6.352   7.397   2.497
13796TIP3    H241334   6.297   7.298   2.598
13797TIP3   OH241335   1.375   2.859   0.575
13797TIP3    H141336   1.455   2.880   0.622
13797TIP3    H241337   1.394   2.876   0.483
13798TIP3   OH241338   6.842   0.582   5.075
13798TIP3    H141339   6.844   0.676   5.055
13798TIP3    H241340   6.920   0.546   5.033
13799TIP3   OH241341   3.411   6.840   1.594
13799TIP3    H141342   3.491   6.893   1.585
13799TIP3    H241343   3.443   6.750   1.596
13800TIP3   OH241344   7.181   7.623   6.684
13800TIP3    H141345   7.190   7.662   6.597
13800TIP3    H241346   7.211   7.692   6.744
13801TIP3   OH241347   7.602   3.862   2.792
13801TIP3    H141348   7.643   3.876   2.707
13801TIP3    H241349   7.648   3.786   2.829
13802TIP3   OH241350   2.683   5.093   6.176
13802TIP3    H141351   2.757   5.076   6.233
13802TIP3    H241352   2.627   5.016   6.185
13803TIP3   OH241353   2.941   3.608   2.546
13803TIP3    H141354   2.985   3.651   2.473
13803TIP3    H241355   2.917   3.678   2.606
13804TIP3   OH241356   5.772   0.395   3.720
13804TIP3    H141357   5.865   0.410   3.703
13804TIP3    H241358   5.751   0.450   3.796
13805TIP3   OH241359   7.260   2.119   0.933
13805TIP3    H141360   7.229   2.152   1.016
13805TIP3    H241361   7.355   2.123   0.939
13806TIP3   OH241362   6.499   1.585   4.832
13806TIP3    H141363   6.407   1.597   4.853
13806TIP3    H241364   6.508   1.615   4.742
13807TIP3   OH241365   0.685   6.062   6.219
13807TIP3    H141366   0.694   5.972   6.188
13807TIP3    H241367   0.643   6.108   6.146
13808TIP3   OH241368   2.813   3.824   1.365
13808TIP3    H141369   2.844   3.912   1.387
13808TIP3    H241370   2.720   3.835   1.348
13809TIP3   OH241371   7.204   1.090   5.339
13809TIP3    H141372   7.231   1.122   5.253
13809TIP3    H241373   7.263   1.017   5.357
13810TIP3   OH241374   5.617   5.048   0.166
13810TIP3    H141375   5.710   5.069   0.159
13810TIP3    H241376   5.615   4.959   0.201
13811TIP3   OH241377   1.607   0.781   0.944
13811TIP3    H141378   1.674   0.844   0.970
13811TIP3    H241379   1.524   0.824   0.966
13812TIP3   OH241380   4.100   0.588   3.445
13812TIP3    H141381   4.063   0.671   3.415
13812TIP3    H241382   4.145   0.609   3.527
13813TIP3   OH241383   2.172   3.723   2.808
13813TIP3    H141384   2.200   3.684   2.725
13813TIP3    H241385   2.096   3.672   2.833
13814TIP3   OH241386   5.794   3.994   3.347
13814TIP3    H141387   5.726   3.964   3.407
13814TIP3    H241388   5.761   3.971   3.260
13815TIP3   OH241389   7.220   4.201   2.909
13815TIP3    H141390   7.287   4.270   2.907
13815TIP3    H241391   7.194   4.190   2.817
13816TIP3   OH241392   2.135   3.473   5.164
13816TIP3    H141393   2.206   3.472   5.228
13816TIP3    H241394   2.103   3.383   5.162
13817TIP3   OH241395   6.126   0.123   5.794
13817TIP3    H141396   6.149   0.202   5.744
13817TIP3    H241397   6.043   0.145   5.836
13818TIP3   OH241398   8.009   0.454   1.892
13818TIP3    H141399   8.091   0.421   1.856
13818TIP3    H241400   8.025   0.547   1.905
13819TIP3   OH241401   2.329   2.170   1.926
13819TIP3    H141402   2.364   2.213   2.004
13819TIP3    H241403   2.379   2.209   1.853
13820TIP3   OH241404   1.553   6.997   1.522
13820TIP3    H141405   1.502   7.040   1.590
13820TIP3    H241406   1.626   6.956   1.569
13821TIP3   OH241407   7.555   1.459   4.713
13821TIP3    H141408   7.599   1.543   4.696
13821TIP3    H241409   7.501   1.444   4.635
13822TIP3   OH241410   3.816   5.515   2.224
13822TIP3    H141411   3.785   5.534   2.136
13822TIP3    H241412   3.902   5.475   2.212
13823TIP3   OH241413   3.376   7.384   3.332
13823TIP3    H141414   3.418   7.433   3.262
13823TIP3    H241415   3.341   7.306   3.290
13824TIP3   OH241416   2.379   7.106   3.367
13824TIP3    H141417   2.352   7.137   3.454
13824TIP3    H241418   2.430   7.177   3.331
13825TIP3   OH241419   6.995   3.764   6.363
13825TIP3    H141420   7.036   3.815   6.294
13825TIP3    H241421   7.052   3.689   6.376
13826TIP3   OH241422   1.068   7.360   1.211
13826TIP3    H141423   1.072   7.266   1.194
13826TIP3    H241424   1.006   7.368   1.284
13827TIP3   OH241425   2.666   0.595   1.176
13827TIP3    H141426   2.723   0.645   1.235
13827TIP3    H241427   2.673   0.640   1.092
13828TIP3   OH241428   5.617   6.909   4.210
13828TIP3    H141429   5.632   6.833   4.266
13828TIP3    H241430   5.529   6.938   4.232
13829TIP3   OH241431   2.445   0.233   1.011
13829TIP3    H141432   2.389   0.303   0.977
13829TIP3    H241433   2.396   0.196   1.084
13830TIP3   OH241434   1.653   0.121   3.825
13830TIP3    H141435   1.708   0.105   3.748
13830TIP3    H241436   1.677   0.209   3.853
13831TIP3   OH241437   0.548   5.779   4.637
13831TIP3    H141438   0.470   5.804   4.588
13831TIP3    H241439   0.519   5.772   4.728
13832TIP3   OH241440   0.143   2.308   3.187
13832TIP3    H141441   0.156   2.354   3.270
13832TIP3    H241442   0.048   2.300   3.178
13833TIP3   OH241443   2.510   7.625   1.532
13833TIP3    H141444   2.604   7.611   1.543
13833TIP3    H241445   2.482   7.556   1.473
13834TIP3   OH241446   6.533   4.224   0.380
13834TIP3    H141447   6.617   4.259   0.349
13834TIP3    H241448   6.475   4.231   0.304
13835TIP3   OH241449   1.983   1.904   2.403
13835TIP3    H141450   1.925   1.969   2.444
13835TIP3    H241451   1.962   1.822   2.447
13836TIP3   OH241452   5.603   7.743   4.316
13836TIP3    H141453   5.554   7.824   4.306
13836TIP3    H241454   5.678   7.751   4.257
13837TIP3   OH241455   3.937   3.094   3.870
13837TIP3    H141456   3.863   3.125   3.922
13837TIP3    H241457   3.954   3.005   3.902
13838TIP3   OH241458   0.472   1.483   5.403
13838TIP3    H141459   0.551   1.429   5.392
13838TIP3    H241460   0.426   1.443   5.477
13839TIP3   OH241461   2.982   0.453   3.527
13839TIP3    H141462   2.895   0.416   3.512
13839TIP3    H241463   3.038   0.378   3.544
13840TIP3   OH241464   6.214   7.544   5.914
13840TIP3    H141465   6.274   7.607   5.953
13840TIP3    H241466   6.202   7.477   5.981
13841TIP3   OH241467   0.481   4.066   4.074
13841TIP3    H141468   0.539   4.015   4.131
13841TIP3    H241469   0.508   4.157   4.088
13842TIP3   OH241470   1.517   2.282   5.813
13842TIP3    H141471   1.585   2.258   5.750
13842TIP3    H241472   1.525   2.377   5.821
13843TIP3   OH241473   1.122   2.488   1.903
13843TIP3    H141474   1.210   2.489   1.864
13843TIP3    H241475   1.086   2.403   1.879
13844TIP3   OH241476   6.962   4.470   5.617
13844TIP3    H141477   6.891   4.408   5.632
13844TIP3    H241478   7.030   4.445   5.679
13845TIP3   OH241479   8.048   2.140   0.957
13845TIP3    H141480   7.965   2.124   1.001
13845TIP3    H241481   8.101   2.186   1.023
13846TIP3   OH241482   3.478   4.745   6.512
13846TIP3    H141483   3.530   4.800   6.453
13846TIP3    H241484   3.452   4.670   6.459
13847TIP3   OH241485   1.873   3.626   3.137
13847TIP3    H141486   1.896   3.583   3.055
13847TIP3    H241487   1.815   3.564   3.182
13848TIP3   OH241488   7.439   0.334   5.059
13848TIP3    H141489   7.412   0.310   4.971
13848TIP3    H241490   7.427   0.255   5.111
13849TIP3   OH241491  -0.003   2.067   1.516
13849TIP3    H141492  -0.038   2.155   1.510
13849TIP3    H241493   0.091   2.077   1.501
13850TIP3   OH241494   4.631   3.926   1.724
13850TIP3    H141495   4.544   3.968   1.727
13850TIP3    H241496   4.679   3.975   1.657
13851TIP3   OH241497   2.643   6.941   6.537
13851TIP3    H141498   2.592   6.867   6.571
13851TIP3    H241499   2.732   6.925   6.568
13852TIP3   OH241500   4.400   4.217   6.382
13852TIP3    H141501   4.419   4.158   6.310
13852TIP3    H241502   4.485   4.234   6.423
13853TIP3   OH241503   4.760   2.761   1.331
13853TIP3    H141504   4.840   2.804   1.360
13853TIP3    H241505   4.779   2.732   1.242
13854TIP3   OH241506   5.620   3.178   4.939
13854TIP3    H141507   5.607   3.120   4.864
13854TIP3    H241508   5.663   3.256   4.902
13855TIP3   OH241509   0.177   5.637   5.711
13855TIP3    H141510   0.166   5.702   5.642
13855TIP3    H241511   0.165   5.553   5.667
13856TIP3   OH241512   3.690   5.120   5.527
13856TIP3    H141513   3.667   5.083   5.612
13856TIP3    H241514   3.633   5.074   5.465
13857TIP3   OH241515   1.438   4.359   2.386
13857TIP3    H141516   1.458   4.359   2.480
13857TIP3    H241517   1.403   4.446   2.368
13858TIP3   OH241518   2.875   2.764   6.099
13858TIP3    H141519   2.930   2.813   6.160
13858TIP3    H241520   2.928   2.687   6.076
13859TIP3   OH241521   3.848   6.106   5.808
13859TIP3    H141522   3.753   6.116   5.807
13859TIP3    H241523   3.878   6.159   5.881
13860TIP3   OH241524   4.889   4.626   1.147
13860TIP3    H141525   4.979   4.658   1.147
13860TIP3    H241526   4.895   4.537   1.183
13861TIP3   OH241527   7.774   5.404   3.903
13861TIP3    H141528   7.859   5.390   3.944
13861TIP3    H241529   7.785   5.484   3.852
13862TIP3   OH241530   3.039   6.199   5.174
13862TIP3    H141531   2.972   6.265   5.158
13862TIP3    H241532   3.020   6.166   5.262
13863TIP3   OH241533   5.617   4.051   5.531
13863TIP3    H141534   5.653   4.133   5.498
13863TIP3    H241535   5.662   4.037   5.614
13864TIP3   OH241536   2.430   5.637   5.945
13864TIP3    H141537   2.377   5.692   5.887
13864TIP3    H241538   2.439   5.689   6.025
13865TIP3   OH241539   8.329   6.584   1.778
13865TIP3    H141540   8.261   6.637   1.736
13865TIP3    H241541   8.282   6.513   1.820
13866TIP3   OH241542   5.347   5.951   3.393
13866TIP3    H141543   5.408   5.898   3.444
13866TIP3    H241544   5.378   5.943   3.303
13867TIP3   OH241545   0.368   3.856   1.087
13867TIP3    H141546   0.282   3.895   1.102
13867TIP3    H241547   0.366   3.774   1.135
13868TIP3   OH241548   0.647   5.769   2.555
13868TIP3    H141549   0.692   5.718   2.622
13868TIP3    H241550   0.565   5.795   2.596
13869TIP3   OH241551   1.123   0.801   5.528
13869TIP3    H141552   1.063   0.787   5.455
13869TIP3    H241553   1.128   0.897   5.537
13870TIP3   OH241554   3.866   3.009   4.196
13870TIP3    H141555   3.858   2.982   4.288
13870TIP3    H241556   3.955   2.983   4.172
13871TIP3   OH241557   4.534   5.155   2.182
13871TIP3    H141558   4.550   5.064   2.207
13871TIP3    H241559   4.466   5.185   2.242
13872TIP3   OH241560   5.573   1.663   5.077
13872TIP3    H141561   5.553   1.679   5.170
13872TIP3    H241562   5.495   1.693   5.030
13873TIP3   OH241563   2.009   6.946   6.040
13873TIP3    H141564   1.920   6.920   6.065
13873TIP3    H241565   2.022   7.030   6.083
13874TIP3   OH241566   4.033   3.587   1.434
13874TIP3    H141567   4.100   3.612   1.371
13874TIP3    H241568   4.077   3.525   1.493
13875TIP3   OH241569   4.762   6.032   2.458
13875TIP3    H141570   4.768   5.957   2.517
13875TIP3    H241571   4.674   6.028   2.422
13876TIP3   OH241572   0.024   7.435   0.147
13876TIP3    H141573  -0.049   7.432   0.208
13876TIP3    H241574   0.061   7.523   0.157
13877TIP3   OH241575   4.668   7.439   2.848
13877TIP3    H141576   4.665   7.344   2.860
13877TIP3    H241577   4.683   7.473   2.936
13878TIP3   OH241578   6.537   6.587   0.993
13878TIP3    H141579   6.529   6.605   0.899
13878TIP3    H241580   6.622   6.543   1.002
13879TIP3   OH241581   6.218   4.422   4.703
13879TIP3    H141582   6.205   4.504   4.655
13879TIP3    H241583   6.130   4.396   4.730
13880TIP3   OH241584   4.301   0.531   1.586
13880TIP3    H141585   4.328   0.515   1.677
13880TIP3    H241586   4.297   0.444   1.547
13881TIP3   OH241587   7.159   1.425   2.109
13881TIP3    H141588   7.074   1.449   2.147
13881TIP3    H241589   7.206   1.508   2.099
13882TIP3   OH241590   8.227   4.334   2.794
13882TIP3    H141591   8.275   4.386   2.858
13882TIP3    H241592   8.137   4.332   2.828
13883TIP3   OH241593   1.251   2.638   2.419
13883TIP3    H141594   1.208   2.589   2.489
13883TIP3    H241595   1.306   2.573   2.375
13884TIP3   OH241596   1.223   4.957   5.588
13884TIP3    H141597   1.137   4.917   5.575
13884TIP3    H241598   1.229   5.023   5.519
13885TIP3   OH241599   6.016   7.832   1.327
13885TIP3    H141600   5.975   7.785   1.255
13885TIP3    H241601   6.107   7.802   1.327
13886TIP3   OH241602   4.018   6.435   5.311
13886TIP3    H141603   4.070   6.402   5.384
13886TIP3    H241604   4.082   6.470   5.250
13887TIP3   OH241605   1.301   0.488   6.576
13887TIP3    H141606   1.353   0.560   6.612
13887TIP3    H241607   1.334   0.476   6.487
13888TIP3   OH241608   3.992   5.741   0.114
13888TIP3    H141609   3.915   5.778   0.156
13888TIP3    H241610   3.975   5.647   0.111
13889TIP3   OH241611   4.919   7.391   6.519
13889TIP3    H141612   4.834   7.351   6.497
13889TIP3    H241613   4.970   7.319   6.555
13890TIP3   OH241614   3.710   1.593   4.357
13890TIP3    H141615   3.714   1.602   4.261
13890TIP3    H241616   3.719   1.682   4.390
13891TIP3   OH241617   7.996   5.135   4.222
13891TIP3    H141618   8.040   5.076   4.160
13891TIP3    H241619   7.910   5.094   4.236
13892TIP3   OH241620   1.900   0.834   3.211
13892TIP3    H141621   1.980   0.808   3.165
13892TIP3    H241622   1.894   0.929   3.199
13893TIP3   OH241623   0.405   2.327   4.175
13893TIP3    H141624   0.439   2.243   4.142
13893TIP3    H241625   0.328   2.345   4.122
13894TIP3   OH241626   5.387   1.346   5.064
13894TIP3    H141627   5.331   1.422   5.046
13894TIP3    H241628   5.472   1.370   5.028
13895TIP3   OH241629   1.300   2.104   5.746
13895TIP3    H141630   1.288   2.040   5.816
13895TIP3    H241631   1.377   2.154   5.772
13896TIP3   OH241632   7.498   6.398   5.329
13896TIP3    H141633   7.507   6.418   5.236
13896TIP3    H241634   7.470   6.306   5.331
13897TIP3   OH241635   2.430   7.155   0.134
13897TIP3    H141636   2.436   7.059   0.138
13897TIP3    H241637   2.520   7.185   0.147
13898TIP3   OH241638   4.984   3.227   6.019
13898TIP3    H141639   5.022   3.164   5.958
13898TIP3    H241640   5.032   3.215   6.100
13899TIP3   OH241641   3.245   4.494   1.468
13899TIP3    H141642   3.245   4.398   1.467
13899TIP3    H241643   3.211   4.518   1.382
13900TIP3   OH241644   0.663   5.370   6.628
13900TIP3    H141645   0.690   5.391   6.538
13900TIP3    H241646   0.568   5.365   6.624
13901TIP3   OH241647   2.821   4.172   3.862
13901TIP3    H141648   2.886   4.116   3.905
13901TIP3    H241649   2.836   4.259   3.899
13902TIP3   OH241650   1.462   2.893   1.683
13902TIP3    H141651   1.439   2.981   1.653
13902TIP3    H241652   1.543   2.872   1.637
13903TIP3   OH241653   3.904   4.481   0.687
13903TIP3    H141654   3.837   4.548   0.673
13903TIP3    H241655   3.972   4.501   0.623
13904TIP3   OH241656   2.734   0.229   5.368
13904TIP3    H141657   2.787   0.151   5.351
13904TIP3    H241658   2.687   0.243   5.286
13905TIP3   OH241659   2.550   4.687   5.213
13905TIP3    H141660   2.601   4.614   5.247
13905TIP3    H241661   2.489   4.647   5.151
13906TIP3   OH241662   1.009   5.221   2.521
13906TIP3    H141663   0.924   5.262   2.507
13906TIP3    H241664   1.031   5.240   2.612
13907TIP3   OH241665   8.089   6.534   4.422
13907TIP3    H141666   8.180   6.558   4.407
13907TIP3    H241667   8.078   6.541   4.517
13908TIP3   OH241668   4.806   5.413   2.469
13908TIP3    H141669   4.754   5.494   2.473
13908TIP3    H241670   4.885   5.433   2.519
13909TIP3   OH241671   4.195   6.952   3.111
13909TIP3    H141672   4.124   6.897   3.144
13909TIP3    H241673   4.159   7.041   3.113
13910TIP3   OH241674   7.908   5.217   5.465
13910TIP3    H141675   7.842   5.270   5.510
13910TIP3    H241676   7.899   5.242   5.373
13911TIP3   OH241677   2.061   0.846   5.140
13911TIP3    H141678   2.113   0.799   5.205
13911TIP3    H241679   1.990   0.785   5.117
13912TIP3   OH241680   2.851   1.479   4.042
13912TIP3    H141681   2.838   1.509   3.952
13912TIP3    H241682   2.945   1.487   4.057
13913TIP3   OH241683   5.721   1.447   0.116
13913TIP3    H141684   5.751   1.364   0.078
13913TIP3    H241685   5.789   1.469   0.180
13914TIP3   OH241686   0.290   3.163   1.569
13914TIP3    H141687   0.382   3.144   1.551
13914TIP3    H241688   0.282   3.257   1.555
13915TIP3   OH241689   2.112   1.363   3.256
13915TIP3    H141690   2.206   1.351   3.265
13915TIP3    H241691   2.091   1.323   3.171
13916TIP3   OH241692   2.531   4.923   5.973
13916TIP3    H141693   2.454   4.923   6.030
13916TIP3    H241694   2.513   4.994   5.910
13917TIP3   OH241695   7.906   0.866   3.956
13917TIP3    H141696   7.972   0.920   3.999
13917TIP3    H241697   7.837   0.928   3.931
13918TIP3   OH241698   6.736   7.607   4.043
13918TIP3    H141699   6.653   7.592   4.090
13918TIP3    H241700   6.768   7.690   4.077
13919TIP3   OH241701   8.302   2.100   2.932
13919TIP3    H141702   8.280   2.185   2.895
13919TIP3    H241703   8.241   2.039   2.891
13920TIP3   OH241704   2.551   7.221   6.511
13920TIP3    H141705   2.601   7.258   6.438
13920TIP3    H241706   2.569   7.127   6.508
13921TIP3   OH241707   3.972   2.631   3.218
13921TIP3    H141708   4.015   2.593   3.294
13921TIP3    H241709   3.945   2.555   3.165
13922TIP3   OH241710   2.727   5.394   5.051
13922TIP3    H141711   2.681   5.455   4.992
13922TIP3    H241712   2.729   5.439   5.135
13923TIP3   OH241713   0.410   1.087   4.201
13923TIP3    H141714   0.362   1.129   4.273
13923TIP3    H241715   0.452   1.160   4.155
13924TIP3   OH241716   2.504   0.259   2.324
13924TIP3    H141717   2.443   0.188   2.343
13924TIP3    H241718   2.453   0.321   2.271
13925TIP3   OH241719   6.171   3.090   0.079
13925TIP3    H141720   6.144   2.999   0.066
13925TIP3    H241721   6.096   3.132   0.121
13926TIP3   OH241722   7.373   4.150   5.595
13926TIP3    H141723   7.333   4.127   5.511
13926TIP3    H241724   7.409   4.238   5.582
13927TIP3   OH241725   3.870   0.732   3.713
13927TIP3    H141726   3.877   0.639   3.692
13927TIP3    H241727   3.876   0.776   3.629
13928TIP3   OH241728   0.670   0.479   5.300
13928TIP3    H141729   0.645   0.488   5.392
13928TIP3    H241730   0.686   0.385   5.289
13929TIP3   OH241731   1.388   4.801   2.031
13929TIP3    H141732   1.452   4.731   2.021
13929TIP3    H241733   1.313   4.773   1.978
13930TIP3   OH241734   0.257   6.179   3.371
13930TIP3    H141735   0.301   6.255   3.408
13930TIP3    H241736   0.164   6.195   3.386
13931TIP3   OH241737   4.259   0.471   4.483
13931TIP3    H141738   4.268   0.538   4.552
13931TIP3    H241739   4.343   0.427   4.482
13932TIP3   OH241740   3.998   7.597   5.243
13932TIP3    H141741   3.903   7.591   5.251
13932TIP3    H241742   4.013   7.628   5.154
13933TIP3   OH241743   1.768   1.557   2.272
13933TIP3    H141744   1.693   1.551   2.212
13933TIP3    H241745   1.741   1.507   2.349
13934TIP3   OH241746   7.603   0.574   3.692
13934TIP3    H141747   7.683   0.523   3.682
13934TIP3    H241748   7.540   0.531   3.634
13935TIP3   OH241749   7.611   5.258   1.342
13935TIP3    H141750   7.641   5.219   1.425
13935TIP3    H241751   7.651   5.203   1.274
13936TIP3   OH241752   3.703   1.206   5.823
13936TIP3    H141753   3.614   1.222   5.790
13936TIP3    H241754   3.750   1.169   5.748
13937TIP3   OH241755   3.585   2.717   4.596
13937TIP3    H141756   3.499   2.674   4.601
13937TIP3    H241757   3.583   2.782   4.666
13938TIP3   OH241758   5.097   5.770   2.464
13938TIP3    H141759   5.149   5.833   2.514
13938TIP3    H241760   5.076   5.816   2.383
13939TIP3   OH241761   0.287   3.615   3.403
13939TIP3    H141762   0.350   3.680   3.371
13939TIP3    H241763   0.276   3.636   3.496
13940TIP3   OH241764   5.977   5.446   4.664
13940TIP3    H141765   5.980   5.424   4.757
13940TIP3    H241766   5.901   5.398   4.630
13941TIP3   OH241767   1.203   4.261   2.799
13941TIP3    H141768   1.246   4.284   2.717
13941TIP3    H241769   1.175   4.345   2.835
13942TIP3   OH241770   4.026   0.123   0.924
13942TIP3    H141771   3.935   0.092   0.927
13942TIP3    H241772   4.061   0.102   1.010
13943TIP3   OH241773   3.625   6.360   5.732
13943TIP3    H141774   3.604   6.267   5.727
13943TIP3    H241775   3.663   6.380   5.647
13944TIP3   OH241776   4.323   5.992   6.224
13944TIP3    H141777   4.284   5.994   6.136
13944TIP3    H241778   4.339   6.084   6.245
13945TIP3   OH241779   4.485   7.245   2.687
13945TIP3    H141780   4.427   7.225   2.761
13945TIP3    H241781   4.430   7.294   2.626
13946TIP3   OH241782   4.213   7.250   3.201
13946TIP3    H141783   4.216   7.184   3.271
13946TIP3    H241784   4.208   7.333   3.248
13947TIP3   OH241785   7.794   1.291   4.426
13947TIP3    H141786   7.853   1.221   4.400
13947TIP3    H241787   7.710   1.268   4.386
13948TIP3   OH241788   7.277   1.729   3.383
13948TIP3    H141789   7.253   1.744   3.475
13948TIP3    H241790   7.365   1.766   3.375
13949TIP3   OH241791   4.451   4.643   6.033
13949TIP3    H141792   4.539   4.664   6.061
13949TIP3    H241793   4.421   4.575   6.094
13950TIP3   OH241794   2.116   2.913   6.718
13950TIP3    H141795   2.076   2.900   6.632
13950TIP3    H241796   2.169   2.992   6.707
13951TIP3   OH241797   5.976   0.362   4.069
13951TIP3    H141798   5.979   0.285   4.126
13951TIP3    H241799   6.066   0.374   4.040
13952TIP3   OH241800   1.757   5.964   4.985
13952TIP3    H141801   1.719   5.929   4.905
13952TIP3    H241802   1.720   5.910   5.055
13953TIP3   OH241803   7.425   4.676   4.134
13953TIP3    H141804   7.403   4.675   4.227
13953TIP3    H241805   7.362   4.616   4.093
13954TIP3   OH241806   4.597   6.188   3.237
13954TIP3    H141807   4.692   6.179   3.239
13954TIP3    H241808   4.583   6.272   3.192
13955TIP3   OH241809   5.608   3.772   4.454
13955TIP3    H141810   5.601   3.710   4.381
13955TIP3    H241811   5.702   3.775   4.474
13956TIP3   OH241812   3.991   3.282   2.403
13956TIP3    H141813   3.978   3.207   2.346
13956TIP3    H241814   3.978   3.247   2.491
13957TIP3   OH241815   1.287   4.442   6.745
13957TIP3    H141816   1.197   4.413   6.761
13957TIP3    H241817   1.335   4.360   6.730
13958TIP3   OH241818   0.547   1.586   4.657
13958TIP3    H141819   0.478   1.570   4.593
13958TIP3    H241820   0.501   1.602   4.739
13959TIP3   OH241821   4.367   2.145   6.242
13959TIP3    H141822   4.297   2.162   6.180
13959TIP3    H241823   4.337   2.069   6.292
13960TIP3   OH241824   5.607   2.073   5.345
13960TIP3    H141825   5.551   2.127   5.290
13960TIP3    H241826   5.630   1.998   5.290
13961TIP3   OH241827   1.289   7.807   2.710
13961TIP3    H141828   1.312   7.770   2.625
13961TIP3    H241829   1.305   7.901   2.700
13962TIP3   OH241830   4.723   2.464   6.520
13962TIP3    H141831   4.720   2.462   6.425
13962TIP3    H241832   4.817   2.460   6.541
13963TIP3   OH241833   5.234   6.350   1.096
13963TIP3    H141834   5.291   6.401   1.039
13963TIP3    H241835   5.292   6.323   1.168
13964TIP3   OH241836   2.286   2.988   5.572
13964TIP3    H141837   2.218   3.013   5.635
13964TIP3    H241838   2.367   3.025   5.607
13965TIP3   OH241839   1.267   3.754   4.738
13965TIP3    H141840   1.285   3.772   4.646
13965TIP3    H241841   1.343   3.702   4.767
13966TIP3   OH241842   7.870   0.707   1.808
13966TIP3    H141843   7.897   0.628   1.762
13966TIP3    H241844   7.912   0.778   1.760
13967TIP3   OH241845   7.569   3.009   1.865
13967TIP3    H141846   7.619   2.956   1.927
13967TIP3    H241847   7.598   2.979   1.779
13968TIP3   OH241848   2.613   5.792   3.587
13968TIP3    H141849   2.700   5.750   3.587
13968TIP3    H241850   2.555   5.726   3.626
13969TIP3   OH241851   1.936   0.824   3.471
13969TIP3    H141852   1.945   0.826   3.375
13969TIP3    H241853   1.842   0.821   3.486
13970TIP3   OH241854   0.450   3.773   3.272
13970TIP3    H141855   0.523   3.832   3.293
13970TIP3    H241856   0.390   3.827   3.221
13971TIP3   OH241857   6.031   4.713   6.308
13971TIP3    H141858   6.021   4.675   6.221
13971TIP3    H241859   6.124   4.702   6.329
13972TIP3   OH241860   0.679   6.843   4.037
13972TIP3    H141861   0.749   6.787   4.003
13972TIP3    H241862   0.687   6.837   4.132
13973TIP3   OH241863   5.521   3.025   5.981
13973TIP3    H141864   5.591   2.963   5.963
13973TIP3    H241865   5.544   3.103   5.931
13974TIP3   OH241866   0.087   3.337   5.283
13974TIP3    H141867   0.152   3.268   5.270
13974TIP3    H241868   0.008   3.291   5.312
13975TIP3   OH241869   5.774   6.656   2.900
13975TIP3    H141870   5.715   6.619   2.834
13975TIP3    H241871   5.723   6.726   2.940
13976TIP3   OH241872   4.528   5.144   4.526
13976TIP3    H141873   4.463   5.164   4.594
13976TIP3    H241874   4.577   5.225   4.516
13977TIP3   OH241875   1.496   4.135   0.378
13977TIP3    H141876   1.458   4.156   0.293
13977TIP3    H241877   1.422   4.136   0.439
13978TIP3   OH241878   7.588   7.684   3.306
13978TIP3    H141879   7.526   7.729   3.363
13978TIP3    H241880   7.567   7.716   3.218
13979TIP3   OH241881   0.497   2.243   1.028
13979TIP3    H141882   0.508   2.314   1.091
13979TIP3    H241883   0.465   2.169   1.081
13980TIP3   OH241884   5.104   3.592   1.829
13980TIP3    H141885   5.060   3.525   1.776
13980TIP3    H241886   5.084   3.674   1.784
13981TIP3   OH241887   3.187   0.716   2.730
13981TIP3    H141888   3.211   0.692   2.640
13981TIP3    H241889   3.129   0.645   2.758
13982TIP3   OH241890   7.321   5.698   5.651
13982TIP3    H141891   7.413   5.680   5.672
13982TIP3    H241892   7.291   5.754   5.723
13983TIP3   OH241893   8.277   7.228   1.304
13983TIP3    H141894   8.242   7.139   1.310
13983TIP3    H241895   8.261   7.253   1.213
13984TIP3   OH241896   6.489   2.335   0.072
13984TIP3    H141897   6.436   2.287   0.135
13984TIP3    H241898   6.444   2.325  -0.011
13985TIP3   OH241899   1.169   7.613   1.332
13985TIP3    H141900   1.120   7.575   1.259
13985TIP3    H241901   1.129   7.699   1.345
13986TIP3   OH241902   0.192   3.982   2.832
13986TIP3    H141903   0.131   4.034   2.781
13986TIP3    H241904   0.164   3.994   2.923
13987TIP3   OH241905   7.437   3.230   5.176
13987TIP3    H141906   7.483   3.168   5.119
13987TIP3    H241907   7.344   3.213   5.161
13988TIP3   OH241908   1.461   1.006   1.990
13988TIP3    H141909   1.531   1.011   1.925
13988TIP3    H241910   1.456   1.095   2.026
13989TIP3   OH241911   4.000   1.337   6.626
13989TIP3    H141912   3.966   1.401   6.689
13989TIP3    H241913   3.970   1.370   6.541
13990TIP3   OH241914   4.073   7.260   5.820
13990TIP3    H141915   4.038   7.265   5.731
13990TIP3    H241916   4.168   7.269   5.809
13991TIP3   OH241917   7.865   2.984   5.419
13991TIP3    H141918   7.952   2.973   5.382
13991TIP3    H241919   7.867   3.071   5.459
13992TIP3   OH241920   7.336   3.693   2.793
13992TIP3    H141921   7.244   3.695   2.768
13992TIP3    H241922   7.384   3.689   2.710
13993TIP3   OH241923   0.325   6.839   3.855
13993TIP3    H141924   0.380   6.900   3.805
13993TIP3    H241925   0.237   6.874   3.848
13994TIP3   OH241926   3.488   7.526   2.236
13994TIP3    H141927   3.406   7.545   2.190
13994TIP3    H241928   3.522   7.447   2.194
13995TIP3   OH241929   2.688   7.353   5.972
13995TIP3    H141930   2.772   7.320   5.940
13995TIP3    H241931   2.706   7.444   5.997
13996TIP3   OH241932   4.643   5.583   2.764
13996TIP3    H141933   4.571   5.642   2.741
13996TIP3    H241934   4.601   5.498   2.775
13997TIP3   OH241935   2.425   0.504   5.906
13997TIP3    H141936   2.338   0.507   5.946
13997TIP3    H241937   2.420   0.568   5.834
13998TIP3   OH241938   0.822   0.633   3.714
13998TIP3    H141939   0.775   0.707   3.753
13998TIP3    H241940   0.753   0.575   3.683
13999TIP3   OH241941   3.414   4.659   6.094
13999TIP3    H141942   3.343   4.718   6.120
13999TIP3    H241943   3.453   4.701   6.017
14000TIP3   OH241944   3.531   6.831   5.421
14000TIP3    H141945   3.537   6.911   5.370
14000TIP3    H241946   3.557   6.856   5.509
14001TIP3   OH241947   1.850   7.348   2.412
14001TIP3    H141948   1.904   7.363   2.490
14001TIP3    H241949   1.789   7.421   2.411
14002TIP3   OH241950   0.949   1.187   2.110
14002TIP3    H141951   0.871   1.242   2.121
14002TIP3    H241952   0.959   1.142   2.193
14003TIP3   OH241953   2.186   0.363   4.395
14003TIP3    H141954   2.129   0.347   4.470
14003TIP3    H241955   2.272   0.332   4.423
14004TIP3   OH241956   3.402   0.051   4.804
14004TIP3    H141957   3.485   0.087   4.773
14004TIP3    H241958   3.357   0.126   4.843
14005TIP3   OH241959   7.970   2.561   1.111
14005TIP3    H141960   8.061   2.570   1.083
14005TIP3    H241961   7.933   2.649   1.099
14006TIP3   OH241962   0.096   7.531   5.607
14006TIP3    H141963   0.076   7.484   5.687
14006TIP3    H241964   0.149   7.470   5.555
14007TIP3   OH241965   5.492   7.282   4.659
14007TIP3    H141966   5.536   7.229   4.725
14007TIP3    H241967   5.554   7.353   4.640
14008TIP3   OH241968   1.317   5.146   5.347
14008TIP3    H141969   1.358   5.099   5.275
14008TIP3    H241970   1.358   5.232   5.346
14009TIP3   OH241971   5.012   3.328   0.619
14009TIP3    H141972   4.949   3.371   0.562
14009TIP3    H241973   4.962   3.259   0.663
14010TIP3   OH241974   2.604   2.432   0.836
14010TIP3    H141975   2.666   2.359   0.832
14010TIP3    H241976   2.612   2.466   0.925
14011TIP3   OH241977   3.080   0.271   1.972
14011TIP3    H141978   3.079   0.358   1.931
14011TIP3    H241979   3.104   0.212   1.901
14012TIP3   OH241980   5.697   0.246   0.812
14012TIP3    H141981   5.719   0.207   0.728
14012TIP3    H241982   5.605   0.224   0.825
14013TIP3   OH241983   1.190   4.956   5.134
14013TIP3    H141984   1.208   5.039   5.090
14013TIP3    H241985   1.196   4.890   5.065
14014TIP3   OH241986   1.858   7.215   3.006
14014TIP3    H141987   1.904   7.204   2.923
14014TIP3    H241988   1.860   7.128   3.046
14015TIP3   OH241989   2.463   1.121   5.472
14015TIP3    H141990   2.404   1.047   5.463
14015TIP3    H241991   2.461   1.164   5.386
14016TIP3   OH241992   3.514   4.934   5.419
14016TIP3    H141993   3.425   4.946   5.451
14016TIP3    H241994   3.544   4.854   5.463
14017TIP3   OH241995   0.492   6.678   5.388
14017TIP3    H141996   0.489   6.615   5.315
14017TIP3    H241997   0.430   6.644   5.452
14018TIP3   OH241998   4.399   3.223   1.164
14018TIP3    H141999   4.367   3.133   1.155
14018TIP3    H242000   4.490   3.219   1.133
14019TIP3   OH242001   3.940   6.694   0.851
14019TIP3    H142002   3.851   6.659   0.853
14019TIP3    H242003   3.988   6.635   0.793
14020TIP3   OH242004   2.432   0.652   4.714
14020TIP3    H142005   2.337   0.640   4.721
14020TIP3    H242006   2.442   0.739   4.676
14021TIP3   OH242007   5.521   3.826   2.054
14021TIP3    H142008   5.459   3.761   2.021
14021TIP3    H242009   5.563   3.784   2.129
14022TIP3   OH242010   3.206   7.176   2.038
14022TIP3    H142011   3.226   7.220   1.956
14022TIP3    H242012   3.288   7.131   2.061
14023TIP3   OH242013   7.154   2.635   0.104
14023TIP3    H142014   7.249   2.632   0.091
14023TIP3    H242015   7.137   2.575   0.176
14024TIP3   OH242016   6.626   2.613   1.775
14024TIP3    H142017   6.642   2.518   1.775
14024TIP3    H242018   6.664   2.643   1.693
14025TIP3   OH242019   5.279   3.037   6.537
14025TIP3    H142020   5.341   3.024   6.465
14025TIP3    H242021   5.243   3.124   6.521
14026TIP3   OH242022   4.820   0.383   0.893
14026TIP3    H142023   4.870   0.383   0.975
14026TIP3    H242024   4.855   0.308   0.844
14027TIP3   OH242025   6.476   0.301   3.170
14027TIP3    H142026   6.482   0.321   3.264
14027TIP3    H242027   6.499   0.208   3.165
14028TIP3   OH242028   4.859   0.167   3.852
14028TIP3    H142029   4.954   0.175   3.851
14028TIP3    H242030   4.832   0.209   3.934
14029TIP3   OH242031   3.522   6.056   0.512
14029TIP3    H142032   3.616   6.063   0.496
14029TIP3    H242033   3.485   6.028   0.429
14030TIP3   OH242034   7.685   5.462   2.750
14030TIP3    H142035   7.675   5.556   2.765
14030TIP3    H242036   7.686   5.453   2.655
14031TIP3   OH242037   6.759   3.718   2.417
14031TIP3    H142038   6.802   3.659   2.356
14031TIP3    H242039   6.730   3.662   2.489
14032TIP3   OH242040   4.048   6.317   1.047
14032TIP3    H142041   3.959   6.349   1.055
14032TIP3    H242042   4.049   6.266   0.966
14033TIP3   OH242043   3.021   6.959   2.399
14033TIP3    H142044   3.016   7.048   2.365
14033TIP3    H242045   3.115   6.940   2.402
14034TIP3   OH242046   1.730   2.707   6.135
14034TIP3    H142047   1.809   2.684   6.185
14034TIP3    H242048   1.709   2.627   6.087
14035TIP3   OH242049   2.093   6.061   2.388
14035TIP3    H142050   2.143   6.028   2.463
14035TIP3    H242051   2.154   6.058   2.315
14036TIP3   OH242052   7.190   5.511   2.038
14036TIP3    H142053   7.149   5.436   1.996
14036TIP3    H242054   7.234   5.475   2.115
14037TIP3   OH242055   6.379   5.006   5.957
14037TIP3    H142056   6.332   5.000   5.874
14037TIP3    H242057   6.352   4.928   6.006
14038TIP3   OH242058   7.375   3.500   3.865
14038TIP3    H142059   7.433   3.447   3.810
14038TIP3    H242060   7.288   3.489   3.826
14039TIP3   OH242061   6.811   5.712   2.570
14039TIP3    H142062   6.718   5.708   2.592
14039TIP3    H242063   6.815   5.686   2.478
14040TIP3   OH242064   5.531   4.586   5.916
14040TIP3    H142065   5.573   4.536   5.846
14040TIP3    H242066   5.467   4.642   5.871
14041TIP3   OH242067   1.690   7.115   1.023
14041TIP3    H142068   1.654   7.142   1.107
14041TIP3    H242069   1.625   7.142   0.959
14042TIP3   OH242070   4.741   7.454   4.060
14042TIP3    H142071   4.715   7.504   3.982
14042TIP3    H242072   4.790   7.516   4.113
14043TIP3   OH242073   7.972   0.920   1.653
14043TIP3    H142074   7.995   0.975   1.578
14043TIP3    H242075   8.042   0.855   1.658
14044TIP3   OH242076   7.842   6.900   0.857
14044TIP3    H142077   7.802   6.955   0.925
14044TIP3    H242078   7.770   6.876   0.799
14045TIP3   OH242079   8.222   0.256   5.962
14045TIP3    H142080   8.254   0.268   6.051
14045TIP3    H242081   8.298   0.223   5.914
14046TIP3   OH242082   6.424   4.894   4.351
14046TIP3    H142083   6.518   4.877   4.350
14046TIP3    H242084   6.416   4.987   4.370
14047TIP3   OH242085   3.977   1.505   4.363
14047TIP3    H142086   3.884   1.524   4.372
14047TIP3    H242087   3.981   1.428   4.307
14048TIP3   OH242088   2.568   6.473   3.484
14048TIP3    H142089   2.527   6.524   3.554
14048TIP3    H242090   2.659   6.462   3.512
14049TIP3   OH242091   5.874   1.292   4.943
14049TIP3    H142092   5.925   1.306   4.864
14049TIP3    H242093   5.858   1.197   4.945
14050TIP3   OH242094   4.172   4.280   3.331
14050TIP3    H142095   4.258   4.320   3.343
14050TIP3    H242096   4.165   4.216   3.402
14051TIP3   OH242097   4.925   0.387   3.388
14051TIP3    H142098   4.941   0.480   3.376
14051TIP3    H242099   4.834   0.380   3.415
14052TIP3   OH242100   0.064   0.268   1.455
14052TIP3    H142101  -0.026   0.298   1.442
14052TIP3    H242102   0.056   0.186   1.503
14053TIP3   OH242103   1.009   5.406   6.222
14053TIP3    H142104   1.088   5.451   6.252
14053TIP3    H242105   0.987   5.449   6.139
14054TIP3   OH242106   7.119   0.511   3.245
14054TIP3    H142107   7.179   0.579   3.214
14054TIP3    H242108   7.037   0.557   3.262
14055TIP3   OH242109   7.269   5.535   3.420
14055TIP3    H142110   7.273   5.616   3.370
14055TIP3    H242111   7.313   5.556   3.503
14056TIP3   OH242112   2.352   6.775   2.234
14056TIP3    H142113   2.291   6.727   2.290
14056TIP3    H242114   2.299   6.802   2.158
14057TIP3   OH242115   3.430   1.253   6.112
14057TIP3    H142116   3.410   1.175   6.164
14057TIP3    H242117   3.447   1.321   6.178
14058TIP3   OH242118   4.018   3.517   4.533
14058TIP3    H142119   3.947   3.529   4.471
14058TIP3    H242120   3.993   3.570   4.609
14059TIP3   OH242121   7.168   2.238   6.019
14059TIP3    H142122   7.134   2.155   6.054
14059TIP3    H242123   7.103   2.303   6.047
14060TIP3   OH242124   1.035   5.489   3.050
14060TIP3    H142125   1.048   5.420   3.115
14060TIP3    H242126   1.107   5.476   2.988
14061TIP3   OH242127   1.039   0.350   1.699
14061TIP3    H142128   1.027   0.430   1.751
14061TIP3    H242129   1.130   0.354   1.669
14062TIP3   OH242130   4.261   0.242   2.778
14062TIP3    H142131   4.224   0.306   2.716
14062TIP3    H242132   4.214   0.257   2.859
14063TIP3   OH242133   6.365   6.480   3.354
14063TIP3    H142134   6.378   6.574   3.342
14063TIP3    H242135   6.295   6.473   3.419
14064TIP3   OH242136   5.691   2.613   1.480
14064TIP3    H142137   5.616   2.605   1.539
14064TIP3    H242138   5.693   2.706   1.457
14065TIP3   OH242139   5.227   2.414   0.118
14065TIP3    H142140   5.149   2.370   0.152
14065TIP3    H242141   5.201   2.445   0.031
14066TIP3   OH242142   5.313   0.084   6.007
14066TIP3    H142143   5.363   0.056   5.930
14066TIP3    H242144   5.341   0.174   6.023
14067TIP3   OH242145   2.223   6.075   6.469
14067TIP3    H142146   2.314   6.054   6.489
14067TIP3    H242147   2.201   6.020   6.394
14068TIP3   OH242148   1.317   5.202   6.775
14068TIP3    H142149   1.348   5.240   6.692
14068TIP3    H242150   1.396   5.175   6.820
14069TIP3   OH242151   1.563   2.559   6.305
14069TIP3    H142152   1.576   2.638   6.358
14069TIP3    H242153   1.623   2.569   6.232
14070TIP3   OH242154   3.858   1.886   6.709
14070TIP3    H142155   3.770   1.894   6.673
14070TIP3    H242156   3.845   1.869   6.802
14071TIP3   OH242157   1.831   6.991   3.145
14071TIP3    H142158   1.747   6.969   3.106
14071TIP3    H242159   1.886   6.915   3.129
14072TIP3   OH242160   7.899   7.231   0.022
14072TIP3    H142161   7.873   7.169   0.090
14072TIP3    H242162   7.987   7.259   0.047
14073TIP3   OH242163   0.269   2.062   1.553
14073TIP3    H142164   0.353   2.019   1.539
14073TIP3    H242165   0.289   2.155   1.554
14074TIP3   OH242166   2.940   3.760   2.035
14074TIP3    H142167   2.953   3.854   2.050
14074TIP3    H242168   3.022   3.720   2.062
14075TIP3   OH242169   4.244   0.910   0.615
14075TIP3    H142170   4.214   0.935   0.703
14075TIP3    H242171   4.276   0.820   0.626
14076TIP3   OH242172   3.850   4.175   3.715
14076TIP3    H142173   3.815   4.244   3.771
14076TIP3    H242174   3.931   4.149   3.758
14077TIP3   OH242175   1.013   4.395   4.981
14077TIP3    H142176   1.040   4.351   5.061
14077TIP3    H242177   0.995   4.324   4.919
14078TIP3   OH242178   3.684   7.175   2.748
14078TIP3    H142179   3.589   7.183   2.738
14078TIP3    H242180   3.711   7.117   2.676
14079TIP3   OH242181   2.362   0.810   0.027
14079TIP3    H142182   2.276   0.770   0.014
14079TIP3    H242183   2.358   0.892  -0.022
14080TIP3   OH242184   5.675   2.580   5.356
14080TIP3    H142185   5.743   2.644   5.378
14080TIP3    H242186   5.682   2.513   5.423
14081TIP3   OH242187   3.283   6.394   4.619
14081TIP3    H142188   3.265   6.328   4.687
14081TIP3    H242189   3.212   6.383   4.556
14082TIP3   OH242190   6.720   3.513   0.410
14082TIP3    H142191   6.626   3.501   0.400
14082TIP3    H242192   6.745   3.569   0.336
14083TIP3   OH242193   3.076   2.710   4.588
14083TIP3    H142194   3.035   2.662   4.659
14083TIP3    H242195   3.063   2.655   4.511
14084TIP3   OH242196   3.914   4.319   0.239
14084TIP3    H142197   3.933   4.259   0.311
14084TIP3    H242198   3.827   4.294   0.210
14085TIP3   OH242199   2.150   2.544   5.255
14085TIP3    H142200   2.059   2.568   5.236
14085TIP3    H242201   2.186   2.623   5.296
14086TIP3   OH242202   5.162   2.433   4.781
14086TIP3    H142203   5.190   2.342   4.792
14086TIP3    H242204   5.070   2.432   4.805
14087TIP3   OH242205   2.756   3.170   6.206
14087TIP3    H142206   2.750   3.203   6.296
14087TIP3    H242207   2.692   3.099   6.202
14088TIP3   OH242208   0.754   7.581   0.417
14088TIP3    H142209   0.692   7.508   0.419
14088TIP3    H242210   0.714   7.648   0.473
14089TIP3   OH242211   6.755   2.712   1.583
14089TIP3    H142212   6.832   2.747   1.538
14089TIP3    H242213   6.682   2.763   1.549
14090TIP3   OH242214   5.868   1.433   5.581
14090TIP3    H142215   5.843   1.492   5.509
14090TIP3    H242216   5.961   1.449   5.593
14091TIP3   OH242217   7.697   2.913   3.565
14091TIP3    H142218   7.716   2.909   3.472
14091TIP3    H242219   7.608   2.947   3.571
14092TIP3   OH242220   3.471   4.708   3.759
14092TIP3    H142221   3.394   4.710   3.816
14092TIP3    H242222   3.446   4.758   3.682
14093TIP3   OH242223   0.073   4.878   5.762
14093TIP3    H142224   0.084   4.863   5.668
14093TIP3    H242225   0.116   4.803   5.803
14094TIP3   OH242226   4.483   1.609   4.135
14094TIP3    H142227   4.412   1.604   4.199
14094TIP3    H242228   4.541   1.677   4.169
14095TIP3   OH242229   4.902   4.305   4.625
14095TIP3    H142230   4.933   4.328   4.712
14095TIP3    H242231   4.887   4.390   4.582
14096TIP3   OH242232   2.009   0.953   4.271
14096TIP3    H142233   2.069   1.001   4.329
14096TIP3    H242234   1.997   0.868   4.314
14097TIP3   OH242235   0.393   0.905   6.657
14097TIP3    H142236   0.308   0.892   6.699
14097TIP3    H242237   0.432   0.817   6.657
14098TIP3   OH242238   5.778   7.429   1.954
14098TIP3    H142239   5.810   7.371   2.023
14098TIP3    H242240   5.835   7.506   1.959
14099TIP3   OH242241   2.750   6.087   1.264
14099TIP3    H142242   2.763   6.040   1.181
14099TIP3    H242243   2.834   6.131   1.280
14100TIP3   OH242244   6.297   0.406   5.642
14100TIP3    H142245   6.213   0.449   5.625
14100TIP3    H242246   6.346   0.416   5.560
14101TIP3   OH242247   2.597   2.700   1.172
14101TIP3    H142248   2.510   2.669   1.146
14101TIP3    H242249   2.648   2.699   1.091
14102TIP3   OH242250   4.719   1.253   6.565
14102TIP3    H142251   4.709   1.162   6.535
14102TIP3    H242252   4.633   1.292   6.552
14103TIP3   OH242253   5.078   0.240   4.840
14103TIP3    H142254   5.068   0.210   4.750
14103TIP3    H242255   5.030   0.175   4.892
14104TIP3   OH242256   1.217   4.195   3.924
14104TIP3    H142257   1.140   4.145   3.948
14104TIP3    H242258   1.193   4.286   3.941
14105TIP3   OH242259   8.242   2.777   1.708
14105TIP3    H142260   8.256   2.872   1.704
14105TIP3    H242261   8.260   2.754   1.799
14106TIP3   OH242262   0.039   6.683   4.496
14106TIP3    H142263   0.017   6.752   4.558
14106TIP3    H242264   0.071   6.729   4.418
14107TIP3   OH242265   5.660   5.741   0.282
14107TIP3    H142266   5.704   5.669   0.326
14107TIP3    H242267   5.592   5.699   0.229
14108TIP3   OH242268   4.184   7.272   3.890
14108TIP3    H142269   4.104   7.259   3.940
14108TIP3    H242270   4.250   7.220   3.936
14109TIP3   OH242271   5.335   4.456   6.115
14109TIP3    H142272   5.412   4.469   6.060
14109TIP3    H242273   5.356   4.379   6.169
14110TIP3   OH242274   3.433   3.867   2.596
14110TIP3    H142275   3.443   3.819   2.679
14110TIP3    H242276   3.343   3.898   2.598
14111TIP3   OH242277   2.040   4.997   3.436
14111TIP3    H142278   2.134   5.013   3.444
14111TIP3    H242279   2.034   4.931   3.367
14112TIP3   OH242280   2.920   7.415   5.740
14112TIP3    H142281   2.963   7.477   5.799
14112TIP3    H242282   2.979   7.339   5.737
14113TIP3   OH242283   4.010   2.669   6.374
14113TIP3    H142284   4.012   2.765   6.375
14113TIP3    H242285   3.945   2.646   6.441
14114TIP3   OH242286   2.818   1.973   4.216
14114TIP3    H142287   2.786   1.884   4.201
14114TIP3    H242288   2.797   2.020   4.135
14115TIP3   OH242289   7.804   7.290   4.717
14115TIP3    H142290   7.826   7.316   4.806
14115TIP3    H242291   7.798   7.373   4.669
14116TIP3   OH242292   6.509   3.718   4.183
14116TIP3    H142293   6.604   3.728   4.191
14116TIP3    H242294   6.474   3.773   4.253
14117TIP3   OH242295   0.314   4.227   3.321
14117TIP3    H142296   0.318   4.320   3.300
14117TIP3    H242297   0.262   4.222   3.401
14118TIP3   OH242298   1.253   6.565   2.263
14118TIP3    H142299   1.328   6.509   2.283
14118TIP3    H242300   1.250   6.628   2.335
14119TIP3   OH242301   2.071   2.426   0.757
14119TIP3    H142302   2.028   2.511   0.751
14119TIP3    H242303   2.028   2.373   0.689
14120TIP3   OH242304   4.633   6.698   0.338
14120TIP3    H142305   4.675   6.762   0.281
14120TIP3    H242306   4.618   6.622   0.282
14121TIP3   OH242307   1.488   3.469   5.456
14121TIP3    H142308   1.483   3.523   5.534
14121TIP3    H242309   1.402   3.478   5.414
14122TIP3   OH242310   8.040   6.240   5.616
14122TIP3    H142311   8.088   6.312   5.574
14122TIP3    H242312   8.021   6.273   5.704
14123TIP3   OH242313   1.993   1.290   1.794
14123TIP3    H142314   2.041   1.348   1.734
14123TIP3    H242315   1.901   1.308   1.777
14124TIP3   OH242316   0.605   0.795   1.918
14124TIP3    H142317   0.551   0.773   1.994
14124TIP3    H242318   0.589   0.725   1.855
14125TIP3   OH242319   3.443   0.618   1.542
14125TIP3    H142320   3.493   0.662   1.610
14125TIP3    H242321   3.378   0.567   1.589
14126TIP3   OH242322   8.305   0.944   5.378
14126TIP3    H142323   8.290   0.852   5.356
14126TIP3    H242324   8.221   0.987   5.359
14127TIP3   OH242325   6.189   3.360   4.126
14127TIP3    H142326   6.147   3.436   4.166
14127TIP3    H242327   6.222   3.393   4.042
14128TIP3   OH242328   6.311   6.863   2.228
14128TIP3    H142329   6.268   6.779   2.245
14128TIP3    H242330   6.254   6.907   2.165
14129TIP3   OH242331   8.026   5.150   0.754
14129TIP3    H142332   8.041   5.216   0.687
14129TIP3    H242333   8.061   5.188   0.835
14130TIP3   OH242334   5.415   5.270   5.082
14130TIP3    H142335   5.379   5.232   5.002
14130TIP3    H242336   5.486   5.210   5.107
14131TIP3   OH242337   4.546   6.476   6.690
14131TIP3    H142338   4.506   6.403   6.642
14131TIP3    H242339   4.592   6.526   6.623
14132TIP3   OH242340   0.081   1.286   0.445
14132TIP3    H142341   0.013   1.286   0.378
14132TIP3    H242342   0.154   1.239   0.405
14133TIP3   OH242343   3.693   3.352   1.427
14133TIP3    H142344   3.748   3.297   1.483
14133TIP3    H242345   3.603   3.328   1.451
14134TIP3   OH242346   3.826   1.147   1.036
14134TIP3    H142347   3.800   1.057   1.054
14134TIP3    H242348   3.857   1.181   1.120
14135TIP3   OH242349   5.107   4.989   0.427
14135TIP3    H142350   5.120   4.954   0.339
14135TIP3    H242351   5.086   5.081   0.413
14136TIP3   OH242352   4.818   2.822   6.693
14136TIP3    H142353   4.798   2.783   6.607
14136TIP3    H242354   4.852   2.909   6.672
14137TIP3   OH242355   4.923   5.588   2.758
14137TIP3    H142356   4.922   5.661   2.697
14137TIP3    H242357   4.831   5.574   2.780
14138TIP3   OH242358   3.042   6.654   6.138
14138TIP3    H142359   3.133   6.625   6.144
14138TIP3    H242360   3.013   6.624   6.052
14139TIP3   OH242361   0.910   0.874   6.086
14139TIP3    H142362   0.943   0.962   6.066
14139TIP3    H242363   0.865   0.884   6.170
14140TIP3   OH242364   1.329   1.269   0.396
14140TIP3    H142365   1.256   1.215   0.424
14140TIP3    H242366   1.354   1.233   0.310
14141TIP3   OH242367   6.970   1.272   1.115
14141TIP3    H142368   7.006   1.357   1.090
14141TIP3    H242369   6.924   1.241   1.037
14142TIP3   OH242370   6.096   4.925   3.758
14142TIP3    H142371   6.133   4.889   3.677
14142TIP3    H242372   6.144   4.879   3.828
14143TIP3   OH242373   0.501   0.856   2.575
14143TIP3    H142374   0.529   0.766   2.595
14143TIP3    H242375   0.488   0.897   2.660
14144TIP3   OH242376   7.697   7.030   2.607
14144TIP3    H142377   7.762   7.065   2.546
14144TIP3    H242378   7.626   6.999   2.552
14145TIP3   OH242379   7.689   6.206   2.428
14145TIP3    H142380   7.704   6.296   2.459
14145TIP3    H242381   7.668   6.157   2.507
14146TIP3   OH242382   5.566   1.999   1.819
14146TIP3    H142383   5.544   2.063   1.752
14146TIP3    H242384   5.589   1.920   1.771
14147TIP3   OH242385   5.027   0.176   3.561
14147TIP3    H142386   5.044   0.231   3.637
14147TIP3    H242387   5.001   0.237   3.492
14148TIP3   OH242388   7.096   0.263   5.229
14148TIP3    H142389   7.082   0.330   5.162
14148TIP3    H242390   7.115   0.183   5.179
14149TIP3   OH242391   1.580   2.399   0.452
14149TIP3    H142392   1.595   2.489   0.421
14149TIP3    H242393   1.643   2.389   0.524
14150TIP3   OH242394   7.092   4.590   4.260
14150TIP3    H142395   7.172   4.571   4.309
14150TIP3    H242396   7.021   4.579   4.323
14151TIP3   OH242397   2.841   6.077   3.236
14151TIP3    H142398   2.925   6.072   3.192
14151TIP3    H242399   2.832   6.169   3.260
14152TIP3   OH242400   7.224   2.835   0.667
14152TIP3    H142401   7.136   2.809   0.641
14152TIP3    H242402   7.275   2.831   0.586
14153TIP3   OH242403   3.783   3.308   1.908
14153TIP3    H142404   3.803   3.400   1.922
14153TIP3    H242405   3.868   3.264   1.913
14154TIP3   OH242406   3.138   5.451   2.466
14154TIP3    H142407   3.049   5.461   2.432
14154TIP3    H242408   3.136   5.495   2.551
14155TIP3   OH242409   1.077   5.955   5.059
14155TIP3    H142410   1.054   6.001   5.140
14155TIP3    H242411   1.136   5.885   5.089
14156TIP3   OH242412   6.058   0.668   2.210
14156TIP3    H142413   6.077   0.702   2.123
14156TIP3    H242414   6.117   0.593   2.220
14157TIP3   OH242415   6.945   7.789   3.523
14157TIP3    H142416   6.949   7.725   3.594
14157TIP3    H242417   6.901   7.865   3.562
14158TIP3   OH242418   8.259   6.377   6.584
14158TIP3    H142419   8.166   6.398   6.589
14158TIP3    H242420   8.286   6.408   6.497
14159TIP3   OH242421   6.983   6.462   2.676
14159TIP3    H142422   7.028   6.470   2.592
14159TIP3    H242423   6.957   6.552   2.697
14160TIP3   OH242424   8.290   2.068   0.480
14160TIP3    H142425   8.264   2.041   0.568
14160TIP3    H242426   8.209   2.096   0.438
14161TIP3   OH242427   5.613   4.241   0.887
14161TIP3    H142428   5.653   4.328   0.888
14161TIP3    H242429   5.539   4.248   0.947
14162TIP3   OH242430   4.312   6.025   3.760
14162TIP3    H142431   4.264   6.000   3.681
14162TIP3    H242432   4.319   5.944   3.811
14163TIP3   OH242433   3.019   1.022   4.438
14163TIP3    H142434   3.014   1.114   4.410
14163TIP3    H242435   3.100   0.989   4.398
14164TIP3   OH242436   2.437   7.669   0.864
14164TIP3    H142437   2.424   7.614   0.942
14164TIP3    H242438   2.532   7.676   0.855
14165TIP3   OH242439   4.755   1.880   3.220
14165TIP3    H142440   4.828   1.939   3.238
14165TIP3    H242441   4.705   1.879   3.302
14166TIP3   OH242442   1.223   6.348   1.906
14166TIP3    H142443   1.264   6.339   1.820
14166TIP3    H242444   1.142   6.296   1.900
14167TIP3   OH242445   1.869   6.751   6.207
14167TIP3    H142446   1.814   6.674   6.221
14167TIP3    H242447   1.925   6.755   6.284
14168TIP3   OH242448   6.273   4.318   4.019
14168TIP3    H142449   6.234   4.380   3.956
14168TIP3    H242450   6.261   4.232   3.979
14169TIP3   OH242451   5.678   6.141   4.497
14169TIP3    H142452   5.694   6.234   4.485
14169TIP3    H242453   5.734   6.115   4.570
14170TIP3   OH242454   5.198   2.023   1.911
14170TIP3    H142455   5.125   2.071   1.871
14170TIP3    H242456   5.214   2.069   1.993
14171TIP3   OH242457   4.916   6.030   6.461
14171TIP3    H142458   4.905   5.935   6.460
14171TIP3    H242459   4.952   6.051   6.375
14172TIP3   OH242460   3.256   3.084   0.089
14172TIP3    H142461   3.317   3.071   0.162
14172TIP3    H242462   3.279   3.169   0.053
14173TIP3   OH242463   8.271   6.033   4.776
14173TIP3    H142464   8.243   5.943   4.790
14173TIP3    H242465   8.347   6.043   4.833
14174TIP3   OH242466   7.435   4.009   6.287
14174TIP3    H142467   7.467   4.045   6.204
14174TIP3    H242468   7.512   4.006   6.344
14175TIP3   OH242469   2.181   4.025   1.688
14175TIP3    H142470   2.151   3.990   1.772
14175TIP3    H242471   2.162   4.118   1.693
14176TIP3   OH242472   6.077   3.206   5.945
14176TIP3    H142473   6.016   3.143   5.906
14176TIP3    H242474   6.146   3.152   5.983
14177TIP3   OH242475   5.460   6.432   2.419
14177TIP3    H142476   5.534   6.471   2.372
14177TIP3    H242477   5.385   6.485   2.394
14178TIP3   OH242478   4.297   3.808   2.766
14178TIP3    H142479   4.236   3.881   2.763
14178TIP3    H242480   4.325   3.805   2.858
14179TIP3   OH242481   4.588   3.346   3.421
14179TIP3    H142482   4.591   3.265   3.471
14179TIP3    H242483   4.610   3.414   3.485
14180TIP3   OH242484   0.170   5.622   3.975
14180TIP3    H142485   0.230   5.557   4.011
14180TIP3    H242486   0.089   5.573   3.959
14181TIP3   OH242487   6.946   4.994   1.721
14181TIP3    H142488   6.996   4.989   1.802
14181TIP3    H242489   7.011   5.007   1.653
14182TIP3   OH242490   1.340   1.070   0.205
14182TIP3    H142491   1.379   0.983   0.192
14182TIP3    H242492   1.293   1.087   0.124
14183TIP3   OH242493   0.564   7.711   1.448
14183TIP3    H142494   0.570   7.615   1.451
14183TIP3    H242495   0.522   7.730   1.364
14184TIP3   OH242496   3.549   6.634   2.342
14184TIP3    H142497   3.516   6.546   2.322
14184TIP3    H242498   3.472   6.685   2.365
14185TIP3   OH242499   1.002   3.483   1.074
14185TIP3    H142500   1.068   3.503   1.141
14185TIP3    H242501   0.921   3.472   1.124
14186TIP3   OH242502   2.315   2.315   3.384
14186TIP3    H142503   2.410   2.323   3.397
14186TIP3    H242504   2.291   2.393   3.335
14187TIP3   OH242505   0.206   0.377   0.150
14187TIP3    H142506   0.142   0.331   0.096
14187TIP3    H242507   0.282   0.389   0.093
14188TIP3   OH242508   3.788   4.745   1.555
14188TIP3    H142509   3.870   4.788   1.529
14188TIP3    H242510   3.816   4.672   1.610
14189TIP3   OH242511   1.505   4.305   2.648
14189TIP3    H142512   1.425   4.353   2.669
14189TIP3    H242513   1.559   4.313   2.727
14190TIP3   OH242514   7.686   4.645   1.041
14190TIP3    H142515   7.756   4.617   0.982
14190TIP3    H242516   7.705   4.601   1.124
14191TIP3   OH242517   2.224   0.901   5.464
14191TIP3    H142518   2.176   0.891   5.546
14191TIP3    H242519   2.171   0.964   5.414
14192TIP3   OH242520   7.919   6.887   1.629
14192TIP3    H142521   7.864   6.867   1.705
14192TIP3    H242522   7.970   6.963   1.655
14193TIP3   OH242523   4.111   7.020   4.144
14193TIP3    H142524   4.180   6.953   4.135
14193TIP3    H242525   4.039   6.988   4.090
14194TIP3   OH242526   1.677   6.078   3.085
14194TIP3    H142527   1.607   6.140   3.106
14194TIP3    H242528   1.758   6.127   3.100
14195TIP3   OH242529   4.180   6.423   6.493
14195TIP3    H142530   4.170   6.516   6.471
14195TIP3    H242531   4.124   6.411   6.570
14196TIP3   OH242532   5.739   1.286   2.988
14196TIP3    H142533   5.716   1.378   2.998
14196TIP3    H242534   5.711   1.245   3.070
14197TIP3   OH242535   6.590   2.270   2.343
14197TIP3    H142536   6.539   2.278   2.424
14197TIP3    H242537   6.662   2.210   2.366
14198TIP3   OH242538   2.875   3.484   1.255
14198TIP3    H142539   2.968   3.505   1.264
14198TIP3    H242540   2.874   3.399   1.211
14199TIP3   OH242541   5.828   1.383   1.569
14199TIP3    H142542   5.781   1.446   1.514
14199TIP3    H242543   5.918   1.416   1.571
14200TIP3   OH242544   4.208   2.529   3.867
14200TIP3    H142545   4.202   2.447   3.817
14200TIP3    H242546   4.182   2.596   3.805
14201TIP3   OH242547   6.525   1.399   0.233
14201TIP3    H142548   6.468   1.390   0.157
14201TIP3    H242549   6.472   1.445   0.298
14202TIP3   OH242550   7.183   0.561   0.359
14202TIP3    H142551   7.182   0.651   0.325
14202TIP3    H242552   7.191   0.571   0.454
14203TIP3   OH242553   3.735   1.406   4.835
14203TIP3    H142554   3.797   1.394   4.763
14203TIP3    H242555   3.675   1.473   4.803
14204TIP3   OH242556   5.823   2.252   5.368
14204TIP3    H142557   5.742   2.224   5.324
14204TIP3    H242558   5.793   2.287   5.452
14205TIP3   OH242559   3.579   6.090   5.737
14205TIP3    H142560   3.576   6.077   5.642
14205TIP3    H242561   3.517   6.026   5.772
14206TIP3   OH242562   5.338   1.646   6.620
14206TIP3    H142563   5.260   1.649   6.675
14206TIP3    H242564   5.397   1.585   6.663
14207TIP3   OH242565   1.610   2.653   1.260
14207TIP3    H142566   1.648   2.715   1.198
14207TIP3    H242567   1.518   2.680   1.268
14208TIP3   OH242568   6.445   4.148   0.640
14208TIP3    H142569   6.455   4.193   0.557
14208TIP3    H242570   6.518   4.085   0.642
14209TIP3   OH242571   7.253   3.329   0.822
14209TIP3    H142572   7.274   3.237   0.804
14209TIP3    H242573   7.204   3.358   0.745
14210TIP3   OH242574   5.896   6.350   2.916
14210TIP3    H142575   5.921   6.318   2.829
14210TIP3    H242576   5.828   6.416   2.899
14211TIP3   OH242577   3.893   4.982   3.666
14211TIP3    H142578   3.797   4.979   3.673
14211TIP3    H242579   3.919   5.050   3.729
14212TIP3   OH242580   0.470   4.949   4.108
14212TIP3    H142581   0.527   4.943   4.031
14212TIP3    H242582   0.466   4.860   4.143
14213TIP3   OH242583   5.151   7.486   4.256
14213TIP3    H142584   5.205   7.487   4.335
14213TIP3    H242585   5.149   7.576   4.226
14214TIP3   OH242586   0.922   3.986   0.536
14214TIP3    H142587   0.893   3.922   0.471
14214TIP3    H242588   0.887   4.069   0.504
14215TIP3   OH242589   8.000   6.441   6.605
14215TIP3    H142590   7.976   6.533   6.601
14215TIP3    H242591   7.933   6.396   6.553
14216TIP3   OH242592   2.847   0.636   0.517
14216TIP3    H142593   2.893   0.718   0.496
14216TIP3    H242594   2.880   0.613   0.604
14217TIP3   OH242595   0.572   7.008   2.295
14217TIP3    H142596   0.618   6.928   2.271
14217TIP3    H242597   0.479   6.989   2.278
14218TIP3   OH242598   8.157   5.127   3.793
14218TIP3    H142599   8.107   5.059   3.838
14218TIP3    H242600   8.133   5.117   3.701
14219TIP3   OH242601   5.253   0.311   0.850
14219TIP3    H142602   5.198   0.328   0.927
14219TIP3    H242603   5.206   0.352   0.778
14220TIP3   OH242604   3.825   0.853   5.037
14220TIP3    H142605   3.904   0.899   5.065
14220TIP3    H242606   3.835   0.843   4.942
14221TIP3   OH242607   1.463   7.621   0.997
14221TIP3    H142608   1.454   7.641   0.904
14221TIP3    H242609   1.420   7.536   1.007
14222TIP3   OH242610   4.553   7.372   4.368
14222TIP3    H142611   4.509   7.305   4.421
14222TIP3    H242612   4.560   7.333   4.281
14223TIP3   OH242613   6.259   0.129   5.042
14223TIP3    H142614   6.215   0.198   5.090
14223TIP3    H242615   6.305   0.078   5.110
14224TIP3   OH242616   2.283   0.971   6.311
14224TIP3    H142617   2.270   0.956   6.218
14224TIP3    H242618   2.285   0.884   6.350
14225TIP3   OH242619   5.897   1.607   1.821
14225TIP3    H142620   5.986   1.606   1.786
14225TIP3    H242621   5.883   1.519   1.854
14226TIP3   OH242622   6.856   1.189   4.159
14226TIP3    H142623   6.779   1.244   4.143
14226TIP3    H242624   6.875   1.149   4.075
14227TIP3   OH242625   1.958   6.959   3.918
14227TIP3    H142626   1.917   6.954   3.832
14227TIP3    H242627   2.013   7.038   3.914
14228TIP3   OH242628   0.500   1.999   0.517
14228TIP3    H142629   0.527   1.946   0.442
14228TIP3    H242630   0.413   2.031   0.493
14229TIP3   OH242631   2.640   1.281   6.408
14229TIP3    H142632   2.564   1.267   6.464
14229TIP3    H242633   2.688   1.353   6.449
14230TIP3   OH242634   6.543   0.102   5.930
14230TIP3    H142635   6.597   0.121   5.854
14230TIP3    H242636   6.470   0.164   5.924
14231TIP3   OH242637   0.753   1.198   5.131
14231TIP3    H142638   0.845   1.187   5.155
14231TIP3    H242639   0.713   1.112   5.149
14232TIP3   OH242640   5.236   3.090   3.496
14232TIP3    H142641   5.251   3.011   3.548
14232TIP3    H242642   5.324   3.118   3.469
14233TIP3   OH242643   6.020   2.756   5.726
14233TIP3    H142644   6.113   2.744   5.746
14233TIP3    H242645   6.018   2.829   5.665
14234TIP3   OH242646   4.811   1.531   6.724
14234TIP3    H142647   4.837   1.481   6.802
14234TIP3    H242648   4.722   1.500   6.704
14235TIP3   OH242649   3.378   2.949   4.328
14235TIP3    H142650   3.379   2.869   4.381
14235TIP3    H242651   3.437   3.009   4.373
14236TIP3   OH242652   0.960   5.626   4.120
14236TIP3    H142653   0.950   5.719   4.098
14236TIP3    H242654   0.874   5.589   4.105
14237TIP3   OH242655   6.500   6.842   6.281
14237TIP3    H142656   6.422   6.897   6.281
14237TIP3    H242657   6.471   6.759   6.242
14238TIP3   OH242658   3.865   0.842   3.455
14238TIP3    H142659   3.786   0.790   3.438
14238TIP3    H242660   3.913   0.838   3.373
14239TIP3   OH242661   7.970   4.858   2.914
14239TIP3    H142662   7.988   4.785   2.974
14239TIP3    H242663   8.048   4.863   2.859
14240TIP3   OH242664   5.982   1.744   4.433
14240TIP3    H142665   6.042   1.707   4.497
14240TIP3    H242666   6.000   1.696   4.352
14241TIP3   OH242667   8.202   5.803   1.681
14241TIP3    H142668   8.236   5.731   1.735
14241TIP3    H242669   8.280   5.846   1.647
14242TIP3   OH242670   7.956   6.767   4.290
14242TIP3    H142671   7.981   6.698   4.351
14242TIP3    H242672   7.861   6.773   4.299
14243TIP3   OH242673   7.892   7.696   1.369
14243TIP3    H142674   7.945   7.751   1.427
14243TIP3    H242675   7.854   7.630   1.426
14244TIP3   OH242676   5.093   2.150   2.674
14244TIP3    H142677   5.150   2.078   2.646
14244TIP3    H242678   5.128   2.227   2.629
14245TIP3   OH242679   3.133   7.570   4.222
14245TIP3    H142680   3.094   7.608   4.143
14245TIP3    H242681   3.063   7.573   4.287
14246TIP3   OH242682   6.900   6.080   1.585
14246TIP3    H142683   6.987   6.048   1.563
14246TIP3    H242684   6.844   6.048   1.514
14247TIP3   OH242685   1.754   3.037   4.949
14247TIP3    H142686   1.713   2.954   4.975
14247TIP3    H242687   1.771   3.082   5.031
14248TIP3   OH242688   3.593   2.865   0.480
14248TIP3    H142689   3.526   2.806   0.445
14248TIP3    H242690   3.675   2.831   0.444
14249TIP3   OH242691   3.749   5.058   1.411
14249TIP3    H142692   3.786   4.999   1.477
14249TIP3    H242693   3.739   5.003   1.333
14250TIP3   OH242694   8.171   1.756   4.052
14250TIP3    H142695   8.243   1.721   4.000
14250TIP3    H242696   8.201   1.843   4.079
14251TIP3   OH242697   2.553   0.543   0.756
14251TIP3    H142698   2.474   0.529   0.704
14251TIP3    H242699   2.577   0.456   0.788
14252TIP3   OH242700   6.157   7.213   1.847
14252TIP3    H142701   6.232   7.265   1.819
14252TIP3    H242702   6.109   7.195   1.766
14253TIP3   OH242703   6.690   5.471   0.430
14253TIP3    H142704   6.608   5.444   0.389
14253TIP3    H242705   6.664   5.533   0.498
14254TIP3   OH242706   2.200   0.319   4.921
14254TIP3    H142707   2.166   0.235   4.953
14254TIP3    H242708   2.295   0.308   4.922
14255TIP3   OH242709   6.282   4.639   6.340
14255TIP3    H142710   6.375   4.648   6.362
14255TIP3    H242711   6.279   4.560   6.286
14256TIP3   OH242712   5.314   4.330   0.081
14256TIP3    H142713   5.344   4.302   0.167
14256TIP3    H242714   5.384   4.387   0.049
14257TIP3   OH242715   0.942   5.011   1.806
14257TIP3    H142716   0.973   4.947   1.871
14257TIP3    H242717   0.999   4.997   1.730
14258TIP3   OH242718   2.147   5.690   3.560
14258TIP3    H142719   2.128   5.718   3.470
14258TIP3    H242720   2.169   5.770   3.606
14259TIP3   OH242721   1.160   4.737   4.989
14259TIP3    H142722   1.106   4.738   4.910
14259TIP3    H242723   1.097   4.728   5.061
14260TIP3   OH242724   5.316   5.320   4.283
14260TIP3    H142725   5.299   5.250   4.346
14260TIP3    H242726   5.232   5.335   4.239
14261TIP3   OH242727   3.598   3.797   1.533
14261TIP3    H142728   3.653   3.762   1.463
14261TIP3    H242729   3.636   3.882   1.554
14262TIP3   OH242730   7.735   4.492   6.692
14262TIP3    H142731   7.653   4.530   6.661
14262TIP3    H242732   7.799   4.563   6.687
14263TIP3   OH242733   4.135   1.149   1.243
14263TIP3    H142734   4.122   1.059   1.271
14263TIP3    H242735   4.161   1.142   1.151
14264TIP3   OH242736   1.155   2.037   1.363
14264TIP3    H142737   1.218   2.108   1.350
14264TIP3    H242738   1.154   1.990   1.280
14265TIP3   OH242739   6.018   6.322   4.565
14265TIP3    H142740   6.064   6.388   4.513
14265TIP3    H242741   6.083   6.253   4.578
14266TIP3   OH242742   6.811   0.896   3.143
14266TIP3    H142743   6.899   0.930   3.133
14266TIP3    H242744   6.823   0.802   3.156
14267TIP3   OH242745   0.023   6.579   5.208
14267TIP3    H142746   0.083   6.512   5.242
14267TIP3    H242747   0.038   6.577   5.113
14268TIP3   OH242748   7.816   3.843   4.185
14268TIP3    H142749   7.794   3.927   4.226
14268TIP3    H242750   7.911   3.846   4.173
14269TIP3   OH242751   8.059   0.044   1.572
14269TIP3    H142752   8.048   0.011   1.483
14269TIP3    H242753   8.103  -0.026   1.619
14270TIP3   OH242754   6.494   4.865   3.273
14270TIP3    H142755   6.540   4.944   3.245
14270TIP3    H242756   6.544   4.833   3.348
14271TIP3   OH242757   1.512   3.637   3.308
14271TIP3    H142758   1.466   3.563   3.347
14271TIP3    H242759   1.474   3.646   3.221
14272TIP3   OH242760   0.077   3.911   5.298
14272TIP3    H142761   0.062   3.818   5.314
14272TIP3    H242762   0.099   3.948   5.383
14273TIP3   OH242763   4.795   5.312   4.041
14273TIP3    H142764   4.854   5.304   3.965
14273TIP3    H242765   4.709   5.327   4.002
14274TIP3   OH242766   4.395   1.083   2.742
14274TIP3    H142767   4.342   1.004   2.756
14274TIP3    H242768   4.453   1.060   2.670
14275TIP3   OH242769   2.985   0.926   6.212
14275TIP3    H142770   3.009   0.964   6.127
14275TIP3    H242771   2.907   0.975   6.239
14276TIP3   OH242772   7.792   0.510   4.973
14276TIP3    H142773   7.864   0.502   5.036
14276TIP3    H242774   7.716   0.477   5.020
14277TIP3   OH242775   1.656   2.507   5.264
14277TIP3    H142776   1.577   2.552   5.235
14277TIP3    H242777   1.677   2.447   5.193
14278TIP3   OH242778   4.457   6.299   1.354
14278TIP3    H142779   4.509   6.370   1.317
14278TIP3    H242780   4.507   6.220   1.335
14279TIP3   OH242781   4.155   3.622   0.391
14279TIP3    H142782   4.183   3.704   0.349
14279TIP3    H242783   4.137   3.647   0.482
14280TIP3   OH242784   4.606   4.772   0.377
14280TIP3    H142785   4.693   4.734   0.391
14280TIP3    H242786   4.590   4.825   0.455
14281TIP3   OH242787   0.566   1.671   0.545
14281TIP3    H142788   0.638   1.614   0.572
14281TIP3    H242789   0.608   1.749   0.509
14282TIP3   OH242790   4.271   1.112   1.006
14282TIP3    H142791   4.212   1.077   0.939
14282TIP3    H242792   4.321   1.179   0.960
14283TIP3   OH242793   0.901   0.320   0.795
14283TIP3    H142794   0.905   0.411   0.764
14283TIP3    H242795   0.886   0.268   0.716
14284TIP3   OH242796   3.751   1.054   0.336
14284TIP3    H142797   3.785   1.128   0.286
14284TIP3    H242798   3.688   1.092   0.396
14285TIP3   OH242799   7.991   7.029   1.248
14285TIP3    H142800   8.070   6.990   1.285
14285TIP3    H242801   7.947   7.070   1.322
14286TIP3   OH242802   1.088   2.432   5.037
14286TIP3    H142803   1.176   2.427   4.999
14286TIP3    H242804   1.047   2.505   4.991
14287TIP3   OH242805   1.432   6.678   3.415
14287TIP3    H142806   1.465   6.601   3.460
14287TIP3    H242807   1.411   6.647   3.327
14288TIP3   OH242808   4.767   2.973   5.640
14288TIP3    H142809   4.712   3.045   5.671
14288TIP3    H242810   4.706   2.902   5.620
14289TIP3   OH242811   1.354   2.052   0.028
14289TIP3    H142812   1.274   2.092  -0.006
14289TIP3    H242813   1.328   1.963   0.052
14290TIP3   OH242814   3.079   4.941   6.004
14290TIP3    H142815   3.130   5.021   6.011
14290TIP3    H242816   2.994   4.969   5.969
14291TIP3   OH242817   5.131   1.746   4.180
14291TIP3    H142818   5.064   1.798   4.225
14291TIP3    H242819   5.196   1.728   4.248
14292TIP3   OH242820   6.353   1.590   1.191
14292TIP3    H142821   6.334   1.562   1.101
14292TIP3    H242822   6.302   1.529   1.246
14293TIP3   OH242823   7.383   5.337   2.831
14293TIP3    H142824   7.457   5.395   2.844
14293TIP3    H242825   7.307   5.395   2.825
14294TIP3   OH242826   3.157   6.443   4.059
14294TIP3    H142827   3.076   6.394   4.076
14294TIP3    H242828   3.213   6.422   4.134
14295TIP3   OH242829   1.108   3.290   3.362
14295TIP3    H142830   1.122   3.284   3.457
14295TIP3    H242831   1.042   3.359   3.352
14296TIP3   OH242832   7.758   3.557   0.526
14296TIP3    H142833   7.815   3.503   0.471
14296TIP3    H242834   7.719   3.620   0.465
14297TIP3   OH242835   1.497   5.946   2.306
14297TIP3    H142836   1.493   5.991   2.222
14297TIP3    H242837   1.584   5.905   2.308
14298TIP3   OH242838   4.899   7.459   6.151
14298TIP3    H142839   4.907   7.416   6.066
14298TIP3    H242840   4.826   7.415   6.194
14299TIP3   OH242841   5.835   7.351   2.291
14299TIP3    H142842   5.855   7.307   2.374
14299TIP3    H242843   5.903   7.321   2.231
14300TIP3   OH242844   8.221   1.397   3.761
14300TIP3    H142845   8.267   1.316   3.780
14300TIP3    H242846   8.129   1.373   3.759
14301TIP3   OH242847   2.926   6.272   4.065
14301TIP3    H142848   2.855   6.209   4.056
14301TIP3    H242849   2.967   6.249   4.149
14302TIP3   OH242850   1.015   7.856   2.771
14302TIP3    H142851   1.106   7.838   2.748
14302TIP3    H242852   0.979   7.770   2.794
14303TIP3   OH242853   4.473   1.490   2.202
14303TIP3    H142854   4.438   1.566   2.157
14303TIP3    H242855   4.519   1.526   2.278
14304TIP3   OH242856   4.784   2.031   1.834
14304TIP3    H142857   4.778   2.104   1.772
14304TIP3    H242858   4.738   1.959   1.791
14305TIP3   OH242859   6.991   2.025   5.372
14305TIP3    H142860   6.946   2.014   5.288
14305TIP3    H242861   6.924   2.059   5.431
14306TIP3   OH242862   2.272   3.559   4.322
14306TIP3    H142863   2.288   3.481   4.376
14306TIP3    H242864   2.329   3.626   4.359
14307TIP3   OH242865   7.294   2.377   3.030
14307TIP3    H142866   7.202   2.397   3.013
14307TIP3    H242867   7.334   2.462   3.049
14308TIP3   OH242868   6.502   3.712   3.887
14308TIP3    H142869   6.488   3.696   3.981
14308TIP3    H242870   6.594   3.736   3.880
14309TIP3   OH242871   7.526   7.580   5.499
14309TIP3    H142872   7.545   7.519   5.428
14309TIP3    H242873   7.563   7.538   5.577
14310TIP3   OH242874   4.123   0.740   1.881
14310TIP3    H142875   4.082   0.701   1.958
14310TIP3    H242876   4.212   0.707   1.881
14311TIP3   OH242877   7.112   4.367   5.835
14311TIP3    H142878   7.082   4.278   5.815
14311TIP3    H242879   7.207   4.360   5.836
14312TIP3   OH242880   6.079   6.384   1.068
14312TIP3    H142881   6.139   6.370   0.994
14312TIP3    H242882   6.041   6.471   1.052
14313TIP3   OH242883   0.686   6.427   1.906
14313TIP3    H142884   0.730   6.446   1.823
14313TIP3    H242885   0.751   6.448   1.973
14314TIP3   OH242886   1.107   3.209   0.113
14314TIP3    H142887   1.094   3.141   0.179
14314TIP3    H242888   1.032   3.200   0.054
14315TIP3   OH242889   5.209   0.000   3.445
14315TIP3    H142890   5.135   0.034   3.496
14315TIP3    H242891   5.286   0.037   3.489
14316TIP3   OH242892   2.653   4.456   6.277
14316TIP3    H142893   2.673   4.507   6.355
14316TIP3    H242894   2.561   4.430   6.288
14317TIP3   OH242895   4.365   3.951   3.670
14317TIP3    H142896   4.438   3.994   3.713
14317TIP3    H242897   4.345   3.876   3.726
14318TIP3   OH242898   1.295   1.261   6.428
14318TIP3    H142899   1.305   1.356   6.432
14318TIP3    H242900   1.212   1.247   6.381
14319TIP3   OH242901   6.770   3.831   0.247
14319TIP3    H142902   6.765   3.905   0.187
14319TIP3    H242903   6.702   3.849   0.313
14320TIP3   OH242904   1.079   5.050   2.109
14320TIP3    H142905   1.055   4.961   2.082
14320TIP3    H242906   1.107   5.092   2.028
14321TIP3   OH242907   2.128   1.465   2.460
14321TIP3    H142908   2.216   1.500   2.442
14321TIP3    H242909   2.140   1.409   2.536
14322TIP3   OH242910   0.274   2.001   1.839
14322TIP3    H142911   0.255   2.036   1.752
14322TIP3    H242912   0.346   2.054   1.871
14323TIP3   OH242913   0.211   5.500   6.211
14323TIP3    H142914   0.219   5.552   6.291
14323TIP3    H242915   0.173   5.560   6.147
14324TIP3   OH242916   4.860   3.147   4.256
14324TIP3    H142917   4.867   3.084   4.327
14324TIP3    H242918   4.856   3.093   4.176
14325TIP3   OH242919   6.425   6.604   0.451
14325TIP3    H142920   6.410   6.548   0.527
14325TIP3    H242921   6.369   6.566   0.382
14326TIP3   OH242922   6.314   2.861   3.684
14326TIP3    H142923   6.251   2.789   3.683
14326TIP3    H242924   6.396   2.821   3.714
14327TIP3   OH242925   5.767   4.944   6.724
14327TIP3    H142926   5.730   4.962   6.638
14327TIP3    H242927   5.693   4.910   6.775
14328TIP3   OH242928   3.046   5.542   4.067
14328TIP3    H142929   3.024   5.628   4.104
14328TIP3    H242930   2.996   5.537   3.985
14329TIP3   OH242931   3.129   4.983   1.068
14329TIP3    H142932   3.039   5.001   1.041
14329TIP3    H242933   3.159   4.915   1.008
14330TIP3   OH242934   5.018   0.417   5.230
14330TIP3    H142935   4.933   0.438   5.267
14330TIP3    H242936   5.063   0.502   5.222
14331TIP3   OH242937   5.607   3.526   1.865
14331TIP3    H142938   5.634   3.453   1.809
14331TIP3    H242939   5.574   3.484   1.944
14332TIP3   OH242940   3.916   1.682   1.758
14332TIP3    H142941   3.906   1.587   1.752
14332TIP3    H242942   3.987   1.695   1.821
14333TIP3   OH242943   3.328   5.712   1.067
14333TIP3    H142944   3.254   5.666   1.106
14333TIP3    H242945   3.326   5.799   1.106
14334TIP3   OH242946   3.869   0.417   5.446
14334TIP3    H142947   3.801   0.484   5.453
14334TIP3    H242948   3.826   0.344   5.403
14335TIP3   OH242949   6.713   1.380   2.132
14335TIP3    H142950   6.631   1.421   2.106
14335TIP3    H242951   6.763   1.372   2.051
14336TIP3   OH242952   0.798   7.343   3.415
14336TIP3    H142953   0.727   7.316   3.473
14336TIP3    H242954   0.802   7.438   3.424
14337TIP3   OH242955   4.233   6.972   0.039
14337TIP3    H142956   4.288   6.899   0.008
14337TIP3    H242957   4.171   6.931   0.099
14338TIP3   OH242958   5.250   0.596   5.080
14338TIP3    H142959   5.298   0.638   5.151
14338TIP3    H242960   5.280   0.505   5.082
14339TIP3   OH242961   8.150   0.728   4.898
14339TIP3    H142962   8.188   0.732   4.810
14339TIP3    H242963   8.221   0.758   4.956
14340TIP3   OH242964   7.287   7.822   5.409
14340TIP3    H142965   7.253   7.733   5.406
14340TIP3    H242966   7.328   7.829   5.495
14341TIP3   OH242967   4.791   1.851   4.023
14341TIP3    H142968   4.705   1.893   4.030
14341TIP3    H242969   4.840   1.883   4.098
14342TIP3   OH242970   6.991   5.671   4.793
14342TIP3    H142971   6.992   5.713   4.879
14342TIP3    H242972   7.064   5.712   4.746
14343TIP3   OH242973   0.496   2.347   0.070
14343TIP3    H142974   0.484   2.360  -0.024
14343TIP3    H242975   0.466   2.257   0.085
14344TIP3   OH242976   5.783   1.018   4.954
14344TIP3    H142977   5.826   0.987   4.874
14344TIP3    H242978   5.813   0.957   5.022
14345TIP3   OH242979   3.871   3.501   3.944
14345TIP3    H142980   3.930   3.440   3.990
14345TIP3    H242981   3.909   3.587   3.960
14346TIP3   OH242982   2.120   7.265   1.135
14346TIP3    H142983   2.055   7.246   1.067
14346TIP3    H242984   2.200   7.224   1.103
14347TIP3   OH242985   5.160   1.881   5.911
14347TIP3    H142986   5.065   1.898   5.909
14347TIP3    H242987   5.198   1.962   5.944
14348TIP3   OH242988   3.394   1.677   5.536
14348TIP3    H142989   3.396   1.588   5.501
14348TIP3    H242990   3.343   1.671   5.617
14349TIP3   OH242991   3.342   4.209   4.671
14349TIP3    H142992   3.392   4.132   4.642
14349TIP3    H242993   3.313   4.251   4.590
14350TIP3   OH242994   7.344   7.315   5.321
14350TIP3    H142995   7.423   7.370   5.322
14350TIP3    H242996   7.376   7.227   5.336
14351TIP3   OH242997   0.314   2.324   1.500
14351TIP3    H142998   0.408   2.331   1.482
14351TIP3    H242999   0.302   2.372   1.582
14352TIP3   OH243000   2.166   1.726   5.636
14352TIP3    H143001   2.189   1.637   5.663
14352TIP3    H243002   2.188   1.729   5.543
14353TIP3   OH243003   7.183   5.838   5.836
14353TIP3    H143004   7.134   5.904   5.786
14353TIP3    H243005   7.192   5.876   5.924
14354TIP3   OH243006   1.653   0.333   6.187
14354TIP3    H143007   1.581   0.326   6.125
14354TIP3    H243008   1.731   0.342   6.132
14355TIP3   OH243009   5.176   5.415   5.156
14355TIP3    H143010   5.268   5.413   5.133
14355TIP3    H243011   5.172   5.459   5.241
14356TIP3   OH243012   1.542   5.761   4.592
14356TIP3    H143013   1.570   5.681   4.549
14356TIP3    H243014   1.580   5.757   4.680
14357TIP3   OH243015   1.093   0.496   3.309
14357TIP3    H143016   1.096   0.557   3.383
14357TIP3    H243017   1.183   0.492   3.278
14358TIP3   OH243018   1.713   3.790   6.092
14358TIP3    H143019   1.663   3.779   6.173
14358TIP3    H243020   1.804   3.776   6.118
14359TIP3   OH243021   2.343   0.232   2.864
14359TIP3    H143022   2.333   0.327   2.866
14359TIP3    H243023   2.276   0.199   2.923
14360TIP3   OH243024   1.846   4.530   0.353
14360TIP3    H143025   1.810   4.441   0.365
14360TIP3    H243026   1.817   4.555   0.266
14361TIP3   OH243027   2.655   5.707   6.324
14361TIP3    H143028   2.671   5.625   6.370
14361TIP3    H243029   2.711   5.703   6.247
14362TIP3   OH243030   7.858   1.566   5.880
14362TIP3    H143031   7.907   1.641   5.914
14362TIP3    H243032   7.767   1.584   5.906
14363TIP3   OH243033   1.308   6.696   2.935
14363TIP3    H143034   1.390   6.693   2.886
14363TIP3    H243035   1.317   6.772   2.992
14364TIP3   OH243036   7.891   3.436   2.236
14364TIP3    H143037   7.946   3.360   2.216
14364TIP3    H243038   7.808   3.399   2.265
14365TIP3   OH243039   0.360   5.380   4.359
14365TIP3    H143040   0.388   5.352   4.446
14365TIP3    H243041   0.386   5.308   4.301
14366TIP3   OH243042   0.277   4.451   0.948
14366TIP3    H143043   0.362   4.428   0.912
14366TIP3    H243044   0.228   4.369   0.948
14367TIP3   OH243045   5.094   0.761   3.963
14367TIP3    H143046   5.164   0.791   4.022
14367TIP3    H243047   5.028   0.723   4.020
14368TIP3   OH243048   0.047   4.166   2.150
14368TIP3    H143049  -0.002   4.122   2.080
14368TIP3    H243050   0.134   4.180   2.112
14369TIP3   OH243051   2.533   5.386   3.754
14369TIP3    H143052   2.597   5.388   3.683
14369TIP3    H243053   2.539   5.297   3.789
14370TIP3   OH243054   4.246   6.474   2.043
14370TIP3    H143055   4.336   6.484   2.071
14370TIP3    H243056   4.244   6.388   1.999
14371TIP3   OH243057   1.305   7.207   2.062
14371TIP3    H143058   1.210   7.208   2.049
14371TIP3    H243059   1.337   7.138   2.004
14372TIP3   OH243060   4.376   0.268   6.044
14372TIP3    H143061   4.398   0.358   6.022
14372TIP3    H243062   4.298   0.249   5.991
14373TIP3   OH243063   5.809   0.845   1.526
14373TIP3    H143064   5.717   0.836   1.500
14373TIP3    H243065   5.846   0.904   1.461
14374TIP3   OH243066   2.169   6.678   1.668
14374TIP3    H143067   2.218   6.653   1.589
14374TIP3    H243068   2.131   6.763   1.647
14375TIP3   OH243069   6.024   2.798   2.611
14375TIP3    H143070   6.017   2.826   2.702
14375TIP3    H243071   6.117   2.780   2.599
14376TIP3   OH243072   2.873   4.655   1.146
14376TIP3    H143073   2.804   4.628   1.207
14376TIP3    H243074   2.847   4.743   1.119
14377TIP3   OH243075   5.554   0.321   2.322
14377TIP3    H143076   5.480   0.263   2.302
14377TIP3    H243077   5.567   0.310   2.416
14378TIP3   OH243078   4.942   2.872   4.597
14378TIP3    H143079   5.037   2.869   4.599
14378TIP3    H243080   4.920   2.891   4.506
14379TIP3   OH243081   0.065   7.787   1.279
14379TIP3    H143082   0.012   7.710   1.300
14379TIP3    H243083   0.024   7.824   1.201
14380TIP3   OH243084   2.775   6.918   0.850
14380TIP3    H143085   2.781   6.904   0.756
14380TIP3    H243086   2.842   6.983   0.869
14381TIP3   OH243087   1.829   2.658   2.814
14381TIP3    H143088   1.747   2.645   2.765
14381TIP3    H243089   1.898   2.653   2.749
14382TIP3   OH243090   2.839   6.449   4.657
14382TIP3    H143091   2.830   6.372   4.713
14382TIP3    H243092   2.904   6.423   4.591
14383TIP3   OH243093   7.759   2.739   5.829
14383TIP3    H143094   7.761   2.721   5.735
14383TIP3    H243095   7.844   2.778   5.848
14384TIP3   OH243096   0.289   5.500   2.830
14384TIP3    H143097   0.343   5.421   2.842
14384TIP3    H243098   0.220   5.492   2.896
14385TIP3   OH243099   3.653   1.594   6.535
14385TIP3    H143100   3.617   1.670   6.490
14385TIP3    H243101   3.707   1.550   6.469
14386TIP3   OH243102   5.481   2.174   4.515
14386TIP3    H143103   5.416   2.128   4.462
14386TIP3    H243104   5.543   2.106   4.541
14387TIP3   OH243105   4.625   2.919   4.154
14387TIP3    H143106   4.638   2.941   4.246
14387TIP3    H243107   4.708   2.880   4.126
14388TIP3   OH243108   4.190   6.390   2.614
14388TIP3    H143109   4.131   6.394   2.539
14388TIP3    H243110   4.278   6.398   2.576
14389TIP3   OH243111   3.241   3.692   0.525
14389TIP3    H143112   3.226   3.619   0.585
14389TIP3    H243113   3.332   3.717   0.541
14390TIP3   OH243114   7.489   2.016   6.318
14390TIP3    H143115   7.495   2.086   6.383
14390TIP3    H243116   7.397   1.990   6.321
14391TIP3   OH243117   1.521   4.152   2.140
14391TIP3    H143118   1.447   4.145   2.201
14391TIP3    H243119   1.552   4.062   2.128
14392TIP3   OH243120   3.983   7.190   0.956
14392TIP3    H143121   4.037   7.247   0.902
14392TIP3    H243122   3.952   7.123   0.896
14393TIP3   OH243123   3.298   7.180   0.983
14393TIP3    H143124   3.388   7.151   1.003
14393TIP3    H243125   3.253   7.173   1.067
14394TIP3   OH243126   3.622   0.292   4.988
14394TIP3    H143127   3.650   0.201   4.977
14394TIP3    H243128   3.676   0.325   5.060
14395TIP3   OH243129   8.284   3.563   4.419
14395TIP3    H143130   8.198   3.605   4.413
14395TIP3    H243131   8.346   3.633   4.401
14396TIP3   OH243132   1.047   7.322   4.971
14396TIP3    H143133   0.984   7.325   5.044
14396TIP3    H243134   1.012   7.256   4.912
14397TIP3   OH243135   8.158   3.401   5.510
14397TIP3    H143136   8.217   3.348   5.564
14397TIP3    H243137   8.194   3.490   5.515
14398TIP3   OH243138   7.260   1.695   2.688
14398TIP3    H143139   7.339   1.677   2.638
14398TIP3    H243140   7.275   1.651   2.772
14399TIP3   OH243141   1.190   1.156   2.863
14399TIP3    H143142   1.113   1.133   2.915
14399TIP3    H243143   1.180   1.249   2.845
14400TIP3   OH243144   4.155   4.133   0.107
14400TIP3    H143145   4.209   4.094   0.039
14400TIP3    H243146   4.073   4.157   0.062
14401TIP3   OH243147   4.780   1.010   1.000
14401TIP3    H143148   4.764   1.017   1.094
14401TIP3    H243149   4.851   0.946   0.993
14402TIP3   OH243150   6.126   7.393   5.170
14402TIP3    H143151   6.162   7.411   5.257
14402TIP3    H243152   6.047   7.341   5.187
14403TIP3   OH243153   8.110   7.658   4.598
14403TIP3    H143154   8.195   7.647   4.641
14403TIP3    H243155   8.068   7.729   4.647
14404TIP3   OH243156   7.144   2.375   6.711
14404TIP3    H143157   7.122   2.357   6.620
14404TIP3    H243158   7.110   2.463   6.727
14405TIP3   OH243159   2.954   0.665   3.059
14405TIP3    H143160   2.946   0.612   2.980
14405TIP3    H243161   3.011   0.613   3.116
14406TIP3   OH243162   0.653   0.115   1.961
14406TIP3    H143163   0.631   0.027   1.931
14406TIP3    H243164   0.698   0.156   1.887
14407TIP3   OH243165   4.315   7.468   2.422
14407TIP3    H143166   4.303   7.533   2.352
14407TIP3    H243167   4.405   7.438   2.411
14408TIP3   OH243168   1.836   4.918   3.665
14408TIP3    H143169   1.884   4.919   3.748
14408TIP3    H243170   1.904   4.904   3.598
14409TIP3   OH243171   6.025   1.997   2.905
14409TIP3    H143172   6.042   1.978   2.997
14409TIP3    H243173   5.929   1.992   2.898
14410TIP3   OH243174   0.357   7.079   1.587
14410TIP3    H143175   0.431   7.020   1.569
14410TIP3    H243176   0.354   7.137   1.511
14411TIP3   OH243177   5.868   5.385   5.989
14411TIP3    H143178   5.812   5.405   6.064
14411TIP3    H243179   5.890   5.471   5.953
14412TIP3   OH243180   8.127   7.525   3.452
14412TIP3    H143181   8.065   7.464   3.493
14412TIP3    H243182   8.143   7.489   3.365
14413TIP3   OH243183   0.554   5.885   5.380
14413TIP3    H143184   0.469   5.863   5.341
14413TIP3    H243185   0.537   5.964   5.430
14414TIP3   OH243186   8.228   5.307   2.210
14414TIP3    H143187   8.168   5.344   2.145
14414TIP3    H243188   8.204   5.214   2.214
14415TIP3   OH243189   7.760   0.767   1.370
14415TIP3    H143190   7.736   0.840   1.428
14415TIP3    H243191   7.704   0.695   1.397
14416TIP3   OH243192   2.482   5.064   2.140
14416TIP3    H143193   2.469   5.039   2.231
14416TIP3    H243194   2.506   4.982   2.096
14417TIP3   OH243195   5.332   4.238   1.110
14417TIP3    H143196   5.303   4.152   1.078
14417TIP3    H243197   5.344   4.290   1.030
14418TIP3   OH243198   1.056   6.341   3.788
14418TIP3    H143199   1.133   6.398   3.787
14418TIP3    H243200   1.085   6.260   3.745
14419TIP3   OH243201   0.204   2.621   2.026
14419TIP3    H143202   0.199   2.717   2.027
14419TIP3    H243203   0.162   2.596   1.944
14420TIP3   OH243204   6.087   5.910   3.862
14420TIP3    H143205   6.140   5.903   3.783
14420TIP3    H243206   6.145   5.885   3.933
14421TIP3   OH243207   7.446   0.605   3.310
14421TIP3    H143208   7.421   0.618   3.219
14421TIP3    H243209   7.521   0.545   3.306
14422TIP3   OH243210   0.133   1.764   3.130
14422TIP3    H143211   0.135   1.769   3.035
14422TIP3    H243212   0.148   1.853   3.160
14423TIP3   OH243213   4.837   4.961   4.902
14423TIP3    H143214   4.777   4.963   4.977
14423TIP3    H243215   4.922   4.942   4.941
14424TIP3   OH243216   4.263   4.294   3.867
14424TIP3    H143217   4.225   4.210   3.840
14424TIP3    H243218   4.231   4.356   3.801
14425TIP3   OH243219   6.952   5.353   1.271
14425TIP3    H143220   6.896   5.299   1.214
14425TIP3    H243221   6.979   5.427   1.216
14426TIP3   OH243222   5.020   1.821   0.449
14426TIP3    H143223   5.082   1.828   0.521
14426TIP3    H243224   4.936   1.850   0.486
14427TIP3   OH243225   0.933   7.682   1.915
14427TIP3    H143226   0.845   7.720   1.909
14427TIP3    H243227   0.979   7.717   1.838
14428TIP3   OH243228   7.105   6.970   2.649
14428TIP3    H143229   7.132   7.021   2.725
14428TIP3    H243230   7.106   7.032   2.576
14429TIP3   OH243231   7.273   0.238   4.841
14429TIP3    H143232   7.212   0.198   4.902
14429TIP3    H243233   7.229   0.232   4.756
14430TIP3   OH243234   4.711   3.369   2.426
14430TIP3    H143235   4.720   3.460   2.399
14430TIP3    H243236   4.721   3.371   2.521
14431TIP3   OH243237   3.416   1.804   2.230
14431TIP3    H143238   3.390   1.804   2.322
14431TIP3    H243239   3.390   1.718   2.197
14432TIP3   OH243240   7.802   7.252   4.083
14432TIP3    H143241   7.881   7.308   4.084
14432TIP3    H243242   7.767   7.261   3.994
14433TIP3   OH243243   1.322   0.019   0.055
14433TIP3    H143244   1.397  -0.034   0.029
14433TIP3    H243245   1.328   0.097  -0.001
14434TIP3   OH243246   3.903   1.176   2.688
14434TIP3    H143247   3.837   1.243   2.707
14434TIP3    H243248   3.949   1.209   2.610
14435TIP3   OH243249   4.366   5.075   6.591
14435TIP3    H143250   4.371   5.159   6.637
14435TIP3    H243251   4.279   5.040   6.612
14436TIP3   OH243252   4.192   2.238   6.497
14436TIP3    H143253   4.250   2.225   6.421
14436TIP3    H243254   4.248   2.282   6.562
14437TIP3   OH243255   0.923   6.551   5.967
14437TIP3    H143256   0.859   6.608   6.008
14437TIP3    H243257   0.991   6.540   6.033
14438TIP3   OH243258   5.505   2.259   6.560
14438TIP3    H143259   5.516   2.265   6.654
14438TIP3    H243260   5.462   2.175   6.545
14439TIP3   OH243261   4.233   3.128   3.950
14439TIP3    H143262   4.165   3.072   3.913
14439TIP3    H243263   4.256   3.187   3.879
14440TIP3   OH243264   6.616   7.801   3.036
14440TIP3    H143265   6.556   7.769   3.104
14440TIP3    H243266   6.696   7.752   3.049
14441TIP3   OH243267   0.968   6.089   3.629
14441TIP3    H143268   0.873   6.084   3.632
14441TIP3    H243269   0.997   6.036   3.703
14442TIP3   OH243270   2.887   5.300   4.686
14442TIP3    H143271   2.820   5.362   4.713
14442TIP3    H243272   2.940   5.348   4.621
14443TIP3   OH243273   5.995   1.731   1.318
14443TIP3    H143274   5.949   1.712   1.399
14443TIP3    H243275   6.067   1.668   1.316
14444TIP3   OH243276   7.974   6.114   1.616
14444TIP3    H143277   8.067   6.126   1.637
14444TIP3    H243278   7.930   6.115   1.701
14445TIP3   OH243279   0.240   5.241   5.801
14445TIP3    H143280   0.267   5.150   5.812
14445TIP3    H243281   0.237   5.276   5.890
14446TIP3   OH243282   3.062   0.208   4.191
14446TIP3    H143283   3.067   0.116   4.168
14446TIP3    H243284   3.048   0.253   4.108
14447TIP3   OH243285   1.044   5.163   0.223
14447TIP3    H143286   0.973   5.127   0.170
14447TIP3    H243287   1.089   5.087   0.259
14448TIP3   OH243288   0.508   1.960   1.479
14448TIP3    H143289   0.504   1.869   1.449
14448TIP3    H243290   0.542   2.009   1.404
14449TIP3   OH243291   5.665   4.322   5.476
14449TIP3    H143292   5.710   4.373   5.544
14449TIP3    H243293   5.643   4.386   5.409
14450TIP3   OH243294   3.733   5.486   0.657
14450TIP3    H143295   3.782   5.560   0.622
14450TIP3    H243296   3.742   5.418   0.590
14451TIP3   OH243297   5.529   5.877   3.605
14451TIP3    H143298   5.572   5.821   3.540
14451TIP3    H243299   5.471   5.818   3.653
14452TIP3   OH243300   3.761   4.315   1.396
14452TIP3    H143301   3.732   4.348   1.481
14452TIP3    H243302   3.751   4.389   1.336
14453TIP3   OH243303   3.121   7.267   4.104
14453TIP3    H143304   3.156   7.355   4.091
14453TIP3    H243305   3.147   7.219   4.025
14454TIP3   OH243306   4.862   0.045   5.848
14454TIP3    H143307   4.841  -0.038   5.805
14454TIP3    H243308   4.777   0.089   5.857
14455TIP3   OH243309   4.429   2.869   3.955
14455TIP3    H143310   4.514   2.855   3.997
14455TIP3    H243311   4.414   2.963   3.963
14456TIP3   OH243312   4.799   1.756   2.240
14456TIP3    H143313   4.771   1.671   2.272
14456TIP3    H243314   4.722   1.812   2.248
14457TIP3   OH243315   4.157   0.453   0.308
14457TIP3    H143316   4.201   0.427   0.227
14457TIP3    H243317   4.096   0.382   0.326
14458TIP3   OH243318   0.772   1.017   6.671
14458TIP3    H143319   0.845   1.039   6.613
14458TIP3    H243320   0.694   1.048   6.625
14459TIP3   OH243321   2.435   6.231   4.016
14459TIP3    H143322   2.357   6.268   4.058
14459TIP3    H243323   2.429   6.259   3.925
14460TIP3   OH243324   0.821   0.737   1.780
14460TIP3    H143325   0.755   0.754   1.848
14460TIP3    H243326   0.812   0.811   1.720
14461TIP3   OH243327   4.148   2.398   5.381
14461TIP3    H143328   4.174   2.354   5.300
14461TIP3    H243329   4.131   2.488   5.355
14462TIP3   OH243330   2.713   1.090   4.310
14462TIP3    H143331   2.709   1.181   4.281
14462TIP3    H243332   2.623   1.059   4.303
14463TIP3   OH243333   7.642   5.482   6.253
14463TIP3    H143334   7.637   5.545   6.181
14463TIP3    H243335   7.597   5.526   6.326
14464TIP3   OH243336   3.509   5.504   4.318
14464TIP3    H143337   3.567   5.427   4.314
14464TIP3    H243338   3.468   5.498   4.404
14465TIP3   OH243339   2.258   6.418   2.223
14465TIP3    H143340   2.265   6.431   2.129
14465TIP3    H243341   2.338   6.371   2.247
14466TIP3   OH243342   6.761   5.821   2.273
14466TIP3    H143343   6.690   5.880   2.247
14466TIP3    H243344   6.787   5.778   2.192
14467TIP3   OH243345   1.204   2.208   3.856
14467TIP3    H143346   1.181   2.295   3.888
14467TIP3    H243347   1.291   2.190   3.891
14468TIP3   OH243348   5.471   6.401   6.529
14468TIP3    H143349   5.457   6.321   6.478
14468TIP3    H243350   5.396   6.457   6.507
14469TIP3   OH243351   5.303   3.440   5.417
14469TIP3    H143352   5.258   3.469   5.497
14469TIP3    H243353   5.295   3.514   5.357
14470TIP3   OH243354   4.312   1.575   6.456
14470TIP3    H143355   4.267   1.595   6.538
14470TIP3    H243356   4.405   1.591   6.475
14471TIP3   OH243357   4.697   6.857   1.630
14471TIP3    H143358   4.748   6.778   1.613
14471TIP3    H243359   4.637   6.833   1.701
14472TIP3   OH243360   0.566   2.728   1.972
14472TIP3    H143361   0.528   2.672   2.040
14472TIP3    H243362   0.527   2.814   1.988
14473TIP3   OH243363   7.587   0.992   1.960
14473TIP3    H143364   7.673   0.999   1.918
14473TIP3    H243365   7.542   1.073   1.938
14474TIP3   OH243366   7.661   4.463   0.227
14474TIP3    H143367   7.672   4.532   0.162
14474TIP3    H243368   7.727   4.398   0.204
14475TIP3   OH243369   3.506   7.489   2.560
14475TIP3    H143370   3.512   7.410   2.507
14475TIP3    H243371   3.415   7.516   2.553
14476TIP3   OH243372   0.910   5.433   3.574
14476TIP3    H143373   0.915   5.452   3.668
14476TIP3    H243374   0.993   5.464   3.538
14477TIP3   OH243375   6.906   5.761   5.639
14477TIP3    H143376   7.001   5.764   5.640
14477TIP3    H243377   6.885   5.667   5.640
14478TIP3   OH243378   0.345   2.590   6.512
14478TIP3    H143379   0.430   2.631   6.495
14478TIP3    H243380   0.358   2.498   6.490
14479TIP3   OH243381   0.352   1.216   3.695
14479TIP3    H143382   0.442   1.235   3.668
14479TIP3    H243383   0.357   1.132   3.739
14480TIP3   OH243384   0.167   6.896   2.896
14480TIP3    H143385   0.090   6.877   2.841
14480TIP3    H243386   0.203   6.810   2.917
14481TIP3   OH243387   3.311   1.741   6.448
14481TIP3    H143388   3.281   1.690   6.523
14481TIP3    H243389   3.406   1.749   6.462
14482TIP3   OH243390   7.482   4.073   3.376
14482TIP3    H143391   7.453   4.064   3.285
14482TIP3    H243392   7.410   4.118   3.420
14483TIP3   OH243393   5.748   6.058   3.639
14483TIP3    H143394   5.685   6.004   3.591
14483TIP3    H243395   5.732   6.037   3.731
14484TIP3   OH243396   5.765   1.044   2.882
14484TIP3    H143397   5.856   1.072   2.892
14484TIP3    H243398   5.714   1.124   2.892
14485TIP3   OH243399   3.636   3.459   3.463
14485TIP3    H143400   3.644   3.364   3.462
14485TIP3    H243401   3.662   3.485   3.551
14486TIP3   OH243402   5.290   0.038   0.669
14486TIP3    H143403   5.255  -0.039   0.713
14486TIP3    H243404   5.267   0.111   0.726
14487TIP3   OH243405   0.145   5.301   5.197
14487TIP3    H143406   0.215   5.366   5.205
14487TIP3    H243407   0.190   5.218   5.182
14488TIP3   OH243408   6.678   3.975   2.364
14488TIP3    H143409   6.700   3.881   2.369
14488TIP3    H243410   6.677   3.994   2.271
14489TIP3   OH243411   4.055   1.340   3.785
14489TIP3    H143412   4.068   1.398   3.710
14489TIP3    H243413   3.995   1.273   3.752
14490TIP3   OH243414   7.153   7.471   6.156
14490TIP3    H143415   7.118   7.475   6.067
14490TIP3    H243416   7.231   7.525   6.154
14491TIP3   OH243417   3.129   5.206   0.212
14491TIP3    H143418   3.180   5.217   0.132
14491TIP3    H243419   3.193   5.183   0.279
14492TIP3   OH243420   7.276   3.140   2.700
14492TIP3    H143421   7.243   3.229   2.684
14492TIP3    H243422   7.214   3.102   2.763
14493TIP3   OH243423   1.570   0.286   5.040
14493TIP3    H143424   1.564   0.255   5.130
14493TIP3    H243425   1.479   0.290   5.010
14494TIP3   OH243426   7.372   4.567   2.335
14494TIP3    H143427   7.283   4.569   2.372
14494TIP3    H243428   7.422   4.516   2.399
14495TIP3   OH243429   5.592   5.631   5.165
14495TIP3    H143430   5.678   5.595   5.142
14495TIP3    H243431   5.586   5.712   5.115
14496TIP3   OH243432   6.905   4.076   2.495
14496TIP3    H143433   6.898   4.145   2.560
14496TIP3    H243434   6.814   4.055   2.473
14497TIP3   OH243435   7.014   5.216   4.058
14497TIP3    H143436   7.060   5.140   4.094
14497TIP3    H243437   7.007   5.197   3.965
14498TIP3   OH243438   0.644   4.072   3.330
14498TIP3    H143439   0.569   4.113   3.375
14498TIP3    H243440   0.713   4.069   3.396
14499TIP3   OH243441   3.792   7.379   3.080
14499TIP3    H143442   3.822   7.289   3.066
14499TIP3    H243443   3.871   7.433   3.069
14500TIP3   OH243444   7.258   1.894   6.690
14500TIP3    H143445   7.268   1.987   6.712
14500TIP3    H243446   7.273   1.890   6.595
14501TIP3   OH243447   6.999   7.471   6.486
14501TIP3    H143448   7.044   7.435   6.562
14501TIP3    H243449   7.047   7.552   6.466
14502TIP3   OH243450   6.860   2.084   3.076
14502TIP3    H143451   6.838   1.993   3.093
14502TIP3    H243452   6.775   2.127   3.064
14503TIP3   OH243453   7.142   5.779   4.414
14503TIP3    H143454   7.139   5.873   4.395
14503TIP3    H243455   7.051   5.752   4.416
14504TIP3   OH243456   1.025   4.662   0.142
14504TIP3    H143457   0.934   4.634   0.144
14504TIP3    H243458   1.075   4.582   0.160
14505TIP3   OH243459   6.331   5.192   2.570
14505TIP3    H143460   6.426   5.189   2.584
14505TIP3    H243461   6.310   5.285   2.569
14506TIP3   OH243462   7.351   7.667   2.228
14506TIP3    H143463   7.386   7.714   2.151
14506TIP3    H243464   7.261   7.697   2.235
14507TIP3   OH243465   3.173   3.485   6.557
14507TIP3    H143466   3.124   3.541   6.496
14507TIP3    H243467   3.106   3.444   6.611
14508TIP3   OH243468   0.204   7.315   4.122
14508TIP3    H143469   0.131   7.371   4.149
14508TIP3    H243470   0.279   7.345   4.174
14509TIP3   OH243471   5.408   7.191   3.868
14509TIP3    H143472   5.409   7.186   3.773
14509TIP3    H243473   5.443   7.277   3.889
14510TIP3   OH243474   2.246   6.191   1.264
14510TIP3    H143475   2.185   6.119   1.276
14510TIP3    H243476   2.331   6.149   1.251
14511TIP3   OH243477   2.355   5.795   3.796
14511TIP3    H143478   2.345   5.710   3.839
14511TIP3    H243479   2.365   5.858   3.868
14512TIP3   OH243480   5.799   6.431   5.999
14512TIP3    H143481   5.786   6.341   6.029
14512TIP3    H243482   5.877   6.461   6.045
14513TIP3   OH243483   4.382   4.549   4.924
14513TIP3    H143484   4.474   4.550   4.950
14513TIP3    H243485   4.365   4.457   4.902
14514TIP3   OH243486   5.939   1.565   5.953
14514TIP3    H143487   5.931   1.535   5.862
14514TIP3    H243488   5.859   1.613   5.969
14515TIP3   OH243489   7.402   1.009   3.196
14515TIP3    H143490   7.494   1.008   3.169
14515TIP3    H243491   7.355   0.981   3.118
14516TIP3   OH243492   2.899   1.573   3.748
14516TIP3    H143493   2.822   1.543   3.699
14516TIP3    H243494   2.973   1.550   3.691
14517TIP3   OH243495   1.493   2.307   1.081
14517TIP3    H143496   1.424   2.270   1.136
14517TIP3    H243497   1.449   2.328   0.998
14518TIP3   OH243498   6.319   1.544   5.810
14518TIP3    H143499   6.298   1.461   5.853
14518TIP3    H243500   6.239   1.569   5.765
14519TIP3   OH243501   1.544   1.519   5.826
14519TIP3    H143502   1.569   1.435   5.862
14519TIP3    H243503   1.505   1.566   5.899
14520TIP3   OH243504   2.645   6.428   3.775
14520TIP3    H143505   2.583   6.356   3.769
14520TIP3    H243506   2.592   6.507   3.768
14521TIP3   OH243507   6.206   5.970   0.577
14521TIP3    H143508   6.181   5.879   0.590
14521TIP3    H243509   6.292   5.978   0.619
14522TIP3   OH243510   4.303   3.319   5.409
14522TIP3    H143511   4.231   3.340   5.469
14522TIP3    H243512   4.380   3.356   5.451
14523TIP3   OH243513   5.478   5.156   2.433
14523TIP3    H143514   5.482   5.235   2.380
14523TIP3    H243515   5.557   5.107   2.408
14524TIP3   OH243516   1.080   7.365   0.190
14524TIP3    H143517   1.083   7.396   0.100
14524TIP3    H243518   1.107   7.273   0.184
14525TIP3   OH243519   7.777   0.553   4.427
14525TIP3    H143520   7.790   0.586   4.338
14525TIP3    H243521   7.691   0.587   4.452
14526TIP3   OH243522   6.872   7.773   5.673
14526TIP3    H143523   6.793   7.781   5.620
14526TIP3    H243524   6.911   7.689   5.647
14527TIP3   OH243525   7.574   1.879   6.777
14527TIP3    H143526   7.580   1.792   6.818
14527TIP3    H243527   7.546   1.861   6.687
14528TIP3   OH243528   7.163   0.148   5.454
14528TIP3    H143529   7.187   0.072   5.402
14528TIP3    H243530   7.136   0.214   5.390
14529TIP3   OH243531   2.914   2.744   3.570
14529TIP3    H143532   2.966   2.813   3.612
14529TIP3    H243533   2.848   2.792   3.519
14530TIP3   OH243534   4.015   5.418   3.820
14530TIP3    H143535   3.943   5.368   3.782
14530TIP3    H243536   4.038   5.370   3.900
14531TIP3   OH243537   2.456   4.446   3.855
14531TIP3    H143538   2.474   4.514   3.920
14531TIP3    H243539   2.360   4.443   3.850
14532TIP3   OH243540   0.937   4.687   4.192
14532TIP3    H143541   0.934   4.779   4.165
14532TIP3    H243542   0.951   4.639   4.110
14533TIP3   OH243543   3.671   7.177   5.892
14533TIP3    H143544   3.731   7.208   5.959
14533TIP3    H243545   3.709   7.096   5.860
14534TIP3   OH243546   4.847   0.765   1.504
14534TIP3    H143547   4.937   0.735   1.490
14534TIP3    H243548   4.839   0.773   1.599
14535TIP3   OH243549   0.934   7.725   5.004
14535TIP3    H143550   0.878   7.769   5.068
14535TIP3    H243551   0.999   7.679   5.057
14536TIP3   OH243552   5.064   3.427   6.332
14536TIP3    H143553   5.008   3.465   6.265
14536TIP3    H243554   5.149   3.469   6.319
14537TIP3   OH243555   1.932   6.695   5.749
14537TIP3    H143556   1.861   6.757   5.766
14537TIP3    H243557   2.006   6.727   5.801
14538TIP3   OH243558   2.428   1.921   2.450
14538TIP3    H143559   2.413   1.828   2.435
14538TIP3    H243560   2.377   1.941   2.528
14539TIP3   OH243561   6.666   4.009   5.937
14539TIP3    H143562   6.613   4.022   6.015
14539TIP3    H243563   6.654   3.916   5.915
14540TIP3   OH243564   4.422   7.248   6.103
14540TIP3    H143565   4.450   7.173   6.051
14540TIP3    H243566   4.331   7.229   6.126
14541TIP3   OH243567   7.488   6.178   6.549
14541TIP3    H143568   7.459   6.088   6.568
14541TIP3    H243569   7.531   6.207   6.629
14542TIP3   OH243570   2.156   3.247   2.479
14542TIP3    H143571   2.225   3.278   2.538
14542TIP3    H243572   2.092   3.206   2.537
14543TIP3   OH243573   2.397   2.576   4.967
14543TIP3    H143574   2.474   2.530   4.934
14543TIP3    H243575   2.412   2.668   4.946
14544TIP3   OH243576   5.297   4.011   3.547
14544TIP3    H143577   5.348   3.982   3.471
14544TIP3    H243578   5.287   3.932   3.601
14545TIP3   OH243579   3.464   7.558   2.828
14545TIP3    H143580   3.454   7.542   2.735
14545TIP3    H243581   3.514   7.639   2.833
14546TIP3   OH243582   3.163   5.434   0.526
14546TIP3    H143583   3.242   5.411   0.575
14546TIP3    H243584   3.187   5.516   0.482
14547TIP3   OH243585   5.770   6.446   3.235
14547TIP3    H143586   5.812   6.371   3.195
14547TIP3    H243587   5.814   6.522   3.195
14548TIP3   OH243588   7.862   3.129   1.939
14548TIP3    H143589   7.823   3.084   2.014
14548TIP3    H243590   7.790   3.142   1.878
14549TIP3   OH243591   7.081   6.036   4.594
14549TIP3    H143592   7.156   6.072   4.642
14549TIP3    H243593   7.105   6.048   4.502
14550TIP3   OH243594   6.184   6.364   2.411
14550TIP3    H143595   6.155   6.426   2.344
14550TIP3    H243596   6.130   6.286   2.396
14551TIP3   OH243597   3.223   1.890   0.186
14551TIP3    H143598   3.261   1.958   0.243
14551TIP3    H243599   3.255   1.808   0.224
14552TIP3   OH243600   4.227   2.725   4.774
14552TIP3    H143601   4.248   2.658   4.840
14552TIP3    H243602   4.153   2.688   4.726
14553TIP3   OH243603   2.436   5.212   5.596
14553TIP3    H143604   2.511   5.187   5.650
14553TIP3    H243605   2.448   5.163   5.514
14554TIP3   OH243606   8.057   7.211   0.634
14554TIP3    H143607   8.000   7.135   0.623
14554TIP3    H243608   8.033   7.247   0.719
14555TIP3   OH243609   0.769   5.936   0.066
14555TIP3    H143610   0.825   5.949  -0.009
14555TIP3    H243611   0.828   5.908   0.136
14556TIP3   OH243612   5.127   0.730   0.442
14556TIP3    H143613   5.129   0.712   0.348
14556TIP3    H243614   5.214   0.763   0.462
14557TIP3   OH243615   4.631   2.118   0.809
14557TIP3    H143616   4.647   2.037   0.858
14557TIP3    H243617   4.694   2.180   0.845
14558TIP3   OH243618   8.208   5.851   0.891
14558TIP3    H143619   8.239   5.892   0.810
14558TIP3    H243620   8.195   5.759   0.867
14559TIP3   OH243621   1.489   4.543   5.394
14559TIP3    H143622   1.454   4.628   5.421
14559TIP3    H243623   1.490   4.547   5.298
14560TIP3   OH243624   2.914   6.622   3.332
14560TIP3    H143625   2.986   6.680   3.305
14560TIP3    H243626   2.891   6.651   3.420
14561TIP3   OH243627   4.750   5.531   3.031
14561TIP3    H143628   4.672   5.481   3.055
14561TIP3    H243629   4.724   5.580   2.953
14562TIP3   OH243630   0.001   3.148   6.714
14562TIP3    H143631  -0.029   3.183   6.798
14562TIP3    H243632   0.091   3.119   6.731
14563TIP3   OH243633   7.620   6.562   2.569
14563TIP3    H143634   7.541   6.508   2.564
14563TIP3    H243635   7.604   6.622   2.642
14564TIP3   OH243636   5.526   2.885   4.838
14564TIP3    H143637   5.472   2.962   4.852
14564TIP3    H243638   5.467   2.811   4.849
14565TIP3   OH243639   3.906   6.816   6.734
14565TIP3    H143640   3.811   6.821   6.741
14565TIP3    H243641   3.932   6.759   6.806
14566TIP3   OH243642   4.107   3.249   1.134
14566TIP3    H143643   4.188   3.223   1.091
14566TIP3    H243644   4.100   3.193   1.210
14567TIP3   OH243645   6.732   1.357   6.418
14567TIP3    H143646   6.645   1.388   6.396
14567TIP3    H243647   6.720   1.265   6.442
14568TIP3   OH243648   7.998   2.619   0.785
14568TIP3    H143649   7.970   2.527   0.791
14568TIP3    H243650   8.051   2.623   0.706
14569TIP3   OH243651   1.829   3.823   4.794
14569TIP3    H143652   1.763   3.826   4.725
14569TIP3    H243653   1.780   3.826   4.876
14570TIP3   OH243654   7.383   6.417   1.244
14570TIP3    H143655   7.443   6.342   1.244
14570TIP3    H243656   7.431   6.485   1.197
14571TIP3   OH243657   1.443   6.107   4.561
14571TIP3    H143658   1.444   6.118   4.466
14571TIP3    H243659   1.468   6.193   4.594
14572TIP3   OH243660   1.149   5.079   3.232
14572TIP3    H143661   1.186   5.106   3.148
14572TIP3    H243662   1.124   5.161   3.275
14573TIP3   OH243663   5.750   2.780   4.766
14573TIP3    H143664   5.663   2.797   4.803
14573TIP3    H243665   5.802   2.749   4.840
14574TIP3   OH243666   0.955   1.031   2.361
14574TIP3    H143667   0.862   1.038   2.384
14574TIP3    H243668   0.999   1.094   2.417
14575TIP3   OH243669   6.445   2.962   4.461
14575TIP3    H143670   6.458   2.868   4.475
14575TIP3    H243671   6.351   2.971   4.447
14576TIP3   OH243672   3.210   3.477   0.690
14576TIP3    H143673   3.285   3.423   0.712
14576TIP3    H243674   3.148   3.462   0.761
14577TIP3   OH243675   1.512   6.301   1.160
14577TIP3    H143676   1.498   6.380   1.109
14577TIP3    H243677   1.543   6.332   1.246
14578TIP3   OH243678   4.445   4.641   6.514
14578TIP3    H143679   4.429   4.607   6.426
14578TIP3    H243680   4.482   4.728   6.500
14579TIP3   OH243681   6.138   1.995   4.394
14579TIP3    H143682   6.152   1.997   4.299
14579TIP3    H243683   6.131   1.902   4.415
14580TIP3   OH243684   1.185   5.247   0.854
14580TIP3    H143685   1.128   5.310   0.811
14580TIP3    H243686   1.265   5.247   0.801
14581TIP3   OH243687   8.251   0.830   3.911
14581TIP3    H143688   8.182   0.770   3.881
14581TIP3    H243689   8.249   0.902   3.848
14582TIP3   OH243690   1.297   2.110   5.375
14582TIP3    H143691   1.346   2.044   5.424
14582TIP3    H243692   1.315   2.192   5.421
14583TIP3   OH243693   7.328   0.252   6.284
14583TIP3    H143694   7.415   0.289   6.302
14583TIP3    H243695   7.298   0.220   6.369
14584TIP3   OH243696   5.724   5.663   6.386
14584TIP3    H143697   5.638   5.689   6.418
14584TIP3    H243698   5.708   5.627   6.299
14585TIP3   OH243699   6.937   3.424   5.902
14585TIP3    H143700   6.867   3.489   5.905
14585TIP3    H243701   6.915   3.361   5.971
14586TIP3   OH243702   6.495   6.024   5.389
14586TIP3    H143703   6.533   6.112   5.384
14586TIP3    H243704   6.404   6.036   5.360
14587TIP3   OH243705   7.428   5.875   4.539
14587TIP3    H143706   7.433   5.955   4.487
14587TIP3    H243707   7.447   5.805   4.476
14588TIP3   OH243708   3.018   3.419   5.647
14588TIP3    H143709   3.113   3.422   5.633
14588TIP3    H243710   2.984   3.369   5.573
14589TIP3   OH243711   3.154   2.386   5.401
14589TIP3    H143712   3.153   2.474   5.438
14589TIP3    H243713   3.062   2.366   5.386
14590TIP3   OH243714   5.379   4.143   2.949
14590TIP3    H143715   5.447   4.080   2.925
14590TIP3    H243716   5.297   4.101   2.923
14591TIP3   OH243717   6.290   6.164   3.374
14591TIP3    H143718   6.229   6.232   3.344
14591TIP3    H243719   6.242   6.120   3.445
14592TIP3   OH243720   3.496   5.979   1.000
14592TIP3    H143721   3.453   6.012   1.079
14592TIP3    H243722   3.535   5.896   1.028
14593TIP3   OH243723   1.552   7.644   0.205
14593TIP3    H143724   1.478   7.599   0.245
14593TIP3    H243725   1.521   7.668   0.117
14594TIP3   OH243726   0.737   6.257   1.236
14594TIP3    H143727   0.779   6.171   1.233
14594TIP3    H243728   0.783   6.305   1.304
14595TIP3   OH243729   0.740   2.149   1.296
14595TIP3    H143730   0.817   2.199   1.324
14595TIP3    H243731   0.776   2.079   1.242
14596TIP3   OH243732   6.822   0.923   0.250
14596TIP3    H143733   6.769   0.858   0.295
14596TIP3    H243734   6.759   0.989   0.221
14597TIP3   OH243735   7.522   1.142   2.925
14597TIP3    H143736   7.531   1.207   2.856
14597TIP3    H243737   7.588   1.167   2.990
14598TIP3   OH243738   0.113   0.338   5.427
14598TIP3    H143739   0.035   0.317   5.479
14598TIP3    H243740   0.115   0.434   5.425
14599TIP3   OH243741   6.944   4.572   3.443
14599TIP3    H143742   7.018   4.633   3.452
14599TIP3    H243743   6.921   4.550   3.533
14600TIP3   OH243744   1.175   3.062   4.500
14600TIP3    H143745   1.188   2.996   4.567
14600TIP3    H243746   1.192   3.017   4.417
14601TIP3   OH243747   1.325   3.311   4.504
14601TIP3    H143748   1.380   3.258   4.447
14601TIP3    H243749   1.268   3.248   4.547
14602TIP3   OH243750   5.576   0.171   3.765
14602TIP3    H143751   5.623   0.253   3.755
14602TIP3    H243752   5.504   0.176   3.702
14603TIP3   OH243753   3.330   3.800   5.404
14603TIP3    H143754   3.320   3.853   5.325
14603TIP3    H243755   3.424   3.801   5.423
14604TIP3   OH243756   0.776   1.620   5.852
14604TIP3    H143757   0.728   1.696   5.820
14604TIP3    H243758   0.716   1.579   5.915
14605TIP3   OH243759   6.209   1.271   4.923
14605TIP3    H143760   6.206   1.317   4.839
14605TIP3    H243761   6.123   1.230   4.932
14606TIP3   OH243762   1.509   5.586   6.389
14606TIP3    H143763   1.603   5.590   6.406
14606TIP3    H243764   1.472   5.543   6.466
14607TIP3   OH243765   5.381   6.489   0.705
14607TIP3    H143766   5.342   6.540   0.776
14607TIP3    H243767   5.323   6.503   0.631
14608TIP3   OH243768   7.136   4.623   5.943
14608TIP3    H143769   7.129   4.538   5.899
14608TIP3    H243770   7.045   4.652   5.955
14609TIP3   OH243771   7.814   7.601   5.901
14609TIP3    H143772   7.894   7.596   5.849
14609TIP3    H243773   7.845   7.614   5.991
14610TIP3   OH243774   0.156   0.580   1.111
14610TIP3    H143775   0.222   0.555   1.175
14610TIP3    H243776   0.195   0.655   1.065
14611TIP3   OH243777   2.435   3.830   6.638
14611TIP3    H143778   2.485   3.780   6.703
14611TIP3    H243779   2.414   3.767   6.570
14612TIP3   OH243780   7.551   6.388   2.044
14612TIP3    H143781   7.482   6.414   2.106
14612TIP3    H243782   7.510   6.396   1.958
14613TIP3   OH243783   7.091   7.704   3.139
14613TIP3    H143784   7.000   7.683   3.160
14613TIP3    H243785   7.090   7.798   3.120
14614TIP3   OH243786   7.792   1.526   1.580
14614TIP3    H143787   7.785   1.622   1.582
14614TIP3    H243788   7.720   1.498   1.523
14615TIP3   OH243789   2.922   6.423   3.829
14615TIP3    H143790   2.914   6.372   3.910
14615TIP3    H243791   2.832   6.430   3.796
14616TIP3   OH243792   5.950   3.460   4.938
14616TIP3    H143793   5.943   3.397   4.866
14616TIP3    H243794   5.924   3.411   5.016
14617TIP3   OH243795   2.803   1.098   2.167
14617TIP3    H143796   2.805   1.166   2.100
14617TIP3    H243797   2.820   1.144   2.249
14618TIP3   OH243798   3.580   1.912   6.694
14618TIP3    H143799   3.516   1.983   6.686
14618TIP3    H243800   3.531   1.839   6.733
14619TIP3   OH243801   0.863   7.387   1.747
14619TIP3    H143802   0.847   7.377   1.653
14619TIP3    H243803   0.786   7.434   1.780
14620TIP3   OH243804   8.103   3.519   3.685
14620TIP3    H143805   8.164   3.591   3.701
14620TIP3    H243806   8.059   3.505   3.769
14621TIP3   OH243807   4.071   5.753   1.319
14621TIP3    H143808   3.993   5.741   1.264
14621TIP3    H243809   4.078   5.847   1.331
14622TIP3   OH243810   7.563   6.084   4.718
14622TIP3    H143811   7.642   6.123   4.681
14622TIP3    H243812   7.536   6.019   4.653
14623TIP3   OH243813   2.780   1.885   6.475
14623TIP3    H143814   2.867   1.852   6.452
14623TIP3    H243815   2.768   1.962   6.420
14624TIP3   OH243816   0.980   6.976   3.216
14624TIP3    H143817   0.986   6.920   3.138
14624TIP3    H243818   1.062   6.960   3.263
14625TIP3   OH243819   2.369   1.570   2.689
14625TIP3    H143820   2.322   1.528   2.761
14625TIP3    H243821   2.438   1.621   2.732
14626TIP3   OH243822   7.457   1.596   4.148
14626TIP3    H143823   7.429   1.517   4.103
14626TIP3    H243824   7.541   1.572   4.189
14627TIP3   OH243825   0.380   5.093   1.941
14627TIP3    H143826   0.375   5.186   1.962
14627TIP3    H243827   0.289   5.067   1.927
14628TIP3   OH243828   5.288   5.508   2.685
14628TIP3    H143829   5.267   5.566   2.757
14628TIP3    H243830   5.205   5.494   2.639
14629TIP3   OH243831   4.326   4.589   2.024
14629TIP3    H143832   4.405   4.541   2.000
14629TIP3    H243833   4.340   4.677   1.988
14630TIP3   OH243834   4.552   6.013   6.597
14630TIP3    H143835   4.479   5.959   6.569
14630TIP3    H243836   4.624   5.951   6.612
14631TIP3   OH243837   7.124   2.276   6.445
14631TIP3    H143838   7.087   2.324   6.371
14631TIP3    H243839   7.071   2.197   6.452
14632TIP3   OH243840   7.470   2.474   6.325
14632TIP3    H143841   7.402   2.479   6.392
14632TIP3    H243842   7.472   2.561   6.285
14633TIP3   OH243843   4.075   7.417   2.206
14633TIP3    H143844   4.051   7.364   2.282
14633TIP3    H243845   4.005   7.401   2.143
14634TIP3   OH243846   4.279   7.498   5.904
14634TIP3    H143847   4.187   7.524   5.892
14634TIP3    H243848   4.278   7.443   5.982
14635TIP3   OH243849   1.819   1.134   6.362
14635TIP3    H143850   1.844   1.075   6.433
14635TIP3    H243851   1.724   1.131   6.361
14636TIP3   OH243852   3.543   5.326   0.194
14636TIP3    H143853   3.476   5.273   0.237
14636TIP3    H243854   3.586   5.266   0.132
14637TIP3   OH243855   0.952   6.083   4.069
14637TIP3    H143856   0.891   6.047   4.004
14637TIP3    H243857   0.895   6.128   4.133
14638TIP3   OH243858   8.019   3.974   0.358
14638TIP3    H143859   7.952   4.002   0.295
14638TIP3    H243860   8.025   3.879   0.345
14639TIP3   OH243861   0.410   0.822   4.059
14639TIP3    H143862   0.369   0.783   4.136
14639TIP3    H243863   0.448   0.904   4.090
14640TIP3   OH243864   6.010   5.313   1.313
14640TIP3    H143865   5.932   5.363   1.337
14640TIP3    H243866   5.980   5.222   1.310
14641TIP3   OH243867   6.726   1.976   6.397
14641TIP3    H143868   6.650   1.965   6.455
14641TIP3    H243869   6.690   1.968   6.309
14642TIP3   OH243870   7.502   3.000   1.027
14642TIP3    H143871   7.422   2.948   1.026
14642TIP3    H243872   7.490   3.063   0.955
14643TIP3   OH243873   6.992   4.176   0.538
14643TIP3    H143874   6.931   4.103   0.528
14643TIP3    H243875   7.071   4.149   0.491
14644TIP3   OH243876   2.035   6.457   4.877
14644TIP3    H143877   2.084   6.535   4.852
14644TIP3    H243878   1.955   6.491   4.918
14645TIP3   OH243879   6.695   5.106   5.431
14645TIP3    H143880   6.661   5.150   5.509
14645TIP3    H243881   6.660   5.156   5.358
14646TIP3   OH243882   8.143   1.365   4.675
14646TIP3    H143883   8.048   1.354   4.678
14646TIP3    H243884   8.164   1.412   4.756
14647TIP3   OH243885   3.720   7.277   0.757
14647TIP3    H143886   3.815   7.284   0.744
14647TIP3    H243887   3.697   7.192   0.720
14648TIP3   OH243888   1.299   1.297   3.727
14648TIP3    H143889   1.336   1.386   3.727
14648TIP3    H243890   1.353   1.248   3.789
14649TIP3   OH243891   7.634   0.356   3.259
14649TIP3    H143892   7.702   0.359   3.327
14649TIP3    H243893   7.682   0.342   3.178
14650TIP3   OH243894   3.128   5.847   6.549
14650TIP3    H143895   3.091   5.935   6.556
14650TIP3    H243896   3.053   5.790   6.535
14651TIP3   OH243897   3.327   3.822   0.805
14651TIP3    H143898   3.403   3.856   0.851
14651TIP3    H243899   3.296   3.749   0.859
14652TIP3   OH243900   3.022   5.458   3.210
14652TIP3    H143901   3.110   5.456   3.172
14652TIP3    H243902   3.002   5.551   3.219
14653TIP3   OH243903   1.412   5.061   5.766
14653TIP3    H143904   1.344   5.115   5.806
14653TIP3    H243905   1.369   5.020   5.691
14654TIP3   OH243906   6.945   5.837   1.203
14654TIP3    H143907   7.013   5.842   1.269
14654TIP3    H243908   6.863   5.850   1.251
14655TIP3   OH243909   3.688   2.755   1.858
14655TIP3    H143910   3.661   2.847   1.867
14655TIP3    H243911   3.670   2.734   1.766
14656TIP3   OH243912   0.262   1.831   2.888
14656TIP3    H143913   0.347   1.856   2.926
14656TIP3    H243914   0.239   1.905   2.832
14657TIP3   OH243915   5.720   2.841   6.089
14657TIP3    H143916   5.675   2.777   6.145
14657TIP3    H243917   5.765   2.788   6.024
14658TIP3   OH243918   5.534   3.734   6.685
14658TIP3    H143919   5.589   3.813   6.681
14658TIP3    H243920   5.596   3.662   6.695
14659TIP3   OH243921   1.384   3.110   1.049
14659TIP3    H143922   1.289   3.109   1.038
14659TIP3    H243923   1.415   3.178   0.989
14660TIP3   OH243924   0.521   6.600   6.640
14660TIP3    H143925   0.493   6.508   6.637
14660TIP3    H243926   0.606   6.597   6.685
14661TIP3   OH243927   7.631   6.415   0.797
14661TIP3    H143928   7.689   6.394   0.871
14661TIP3    H243929   7.642   6.343   0.736
14662TIP3   OH243930   6.125   6.982   2.008
14662TIP3    H143931   6.031   6.976   1.994
14662TIP3    H243932   6.148   7.070   1.979
14663TIP3   OH243933   8.071   2.922   3.615
14663TIP3    H143934   8.126   2.959   3.546
14663TIP3    H243935   7.985   2.913   3.574
14664TIP3   OH243936   2.840   0.433   6.414
14664TIP3    H143937   2.880   0.436   6.327
14664TIP3    H243938   2.858   0.520   6.451
14665TIP3   OH243939   3.604   4.269   4.835
14665TIP3    H143940   3.516   4.264   4.798
14665TIP3    H243941   3.653   4.322   4.773
14666TIP3   OH243942   0.425   4.265   1.910
14666TIP3    H143943   0.407   4.270   1.816
14666TIP3    H243944   0.513   4.227   1.915
14667TIP3   OH243945   2.817   1.747   3.374
14667TIP3    H143946   2.869   1.670   3.397
14667TIP3    H243947   2.872   1.821   3.397
14668TIP3   OH243948   8.050   6.294   4.280
14668TIP3    H143949   8.045   6.382   4.316
14668TIP3    H243950   8.016   6.302   4.191
14669TIP3   OH243951   7.230   7.088   0.665
14669TIP3    H143952   7.156   7.075   0.725
14669TIP3    H243953   7.228   7.011   0.608
14670TIP3   OH243954   3.128   7.072   1.734
14670TIP3    H143955   3.036   7.087   1.758
14670TIP3    H243956   3.176   7.139   1.783
14671TIP3   OH243957   1.522   0.135   5.316
14671TIP3    H143958   1.458   0.165   5.381
14671TIP3    H243959   1.592   0.096   5.368
14672TIP3   OH243960   7.371   2.229   4.987
14672TIP3    H143961   7.436   2.180   5.037
14672TIP3    H243962   7.340   2.168   4.920
14673TIP3   OH243963   1.534   0.675   4.331
14673TIP3    H143964   1.445   0.704   4.309
14673TIP3    H243965   1.590   0.725   4.271
14674TIP3   OH243966   4.618   6.980   1.949
14674TIP3    H143967   4.691   6.946   2.000
14674TIP3    H243968   4.658   7.019   1.871
14675TIP3   OH243969   6.174   3.026   4.726
14675TIP3    H143970   6.246   3.078   4.760
14675TIP3    H243971   6.105   3.034   4.792
14676TIP3   OH243972   4.558   1.259   0.588
14676TIP3    H143973   4.644   1.301   0.593
14676TIP3    H243974   4.553   1.205   0.667
14677TIP3   OH243975   4.455   4.225   5.819
14677TIP3    H143976   4.470   4.140   5.860
14677TIP3    H243977   4.411   4.277   5.885
14678TIP3   OH243978   7.312   6.550   6.157
14678TIP3    H143979   7.368   6.480   6.124
14678TIP3    H243980   7.369   6.627   6.162
14679TIP3   OH243981   1.781   1.698   3.502
14679TIP3    H143982   1.781   1.783   3.458
14679TIP3    H243983   1.719   1.709   3.574
14680TIP3   OH243984   2.065   0.997   1.385
14680TIP3    H143985   2.042   0.960   1.299
14680TIP3    H243986   2.132   0.937   1.419
14681TIP3   OH243987   7.066   5.281   6.324
14681TIP3    H143988   7.030   5.232   6.398
14681TIP3    H243989   7.108   5.214   6.269
14682TIP3   OH243990   1.570   0.874   2.960
14682TIP3    H143991   1.545   0.806   3.023
14682TIP3    H243992   1.635   0.927   3.006
14683TIP3   OH243993   6.443   7.746   5.571
14683TIP3    H143994   6.362   7.713   5.610
14683TIP3    H243995   6.431   7.841   5.567
14684TIP3   OH243996   0.110   3.849   5.890
14684TIP3    H143997   0.174   3.788   5.854
14684TIP3    H243998   0.162   3.918   5.931
14685TIP3   OH243999   4.624   7.580   6.436
14685TIP3    H144000   4.708   7.613   6.465
14685TIP3    H244001   4.620   7.491   6.470
14686TIP3   OH244002   2.366   6.731   3.948
14686TIP3    H144003   2.400   6.807   3.994
14686TIP3    H244004   2.333   6.674   4.018
14687TIP3   OH244005   2.059   2.791   0.205
14687TIP3    H144006   1.997   2.718   0.202
14687TIP3    H244007   2.132   2.763   0.150
14688TIP3   OH244008   0.575   3.849   0.696
14688TIP3    H144009   0.568   3.831   0.790
14688TIP3    H244010   0.657   3.807   0.670
14689TIP3   OH244011   7.098   6.739   5.826
14689TIP3    H144012   7.168   6.798   5.798
14689TIP3    H244013   7.045   6.792   5.885
14690TIP3   OH244014   6.385   5.067   0.970
14690TIP3    H144015   6.453   5.067   0.902
14690TIP3    H244016   6.348   5.155   0.967
14691TIP3   OH244017   4.065   2.313   4.041
14691TIP3    H144018   4.024   2.384   4.090
14691TIP3    H244019   4.118   2.358   3.974
14692TIP3   OH244020   2.499   3.889   1.063
14692TIP3    H144021   2.432   3.934   1.115
14692TIP3    H244022   2.531   3.820   1.121
14693TIP3   OH244023   8.194   1.033   2.011
14693TIP3    H144024   8.176   1.120   2.045
14693TIP3    H244025   8.212   1.047   1.918
14694TIP3   OH244026   3.933   1.954   0.948
14694TIP3    H144027   3.988   2.016   0.901
14694TIP3    H244028   3.843   1.980   0.926
14695TIP3   OH244029   5.462   2.842   2.116
14695TIP3    H144030   5.451   2.756   2.075
14695TIP3    H244031   5.477   2.901   2.043
14696TIP3   OH244032   4.139   2.895   1.670
14696TIP3    H144033   4.106   2.868   1.756
14696TIP3    H244034   4.122   2.989   1.667
14697TIP3   OH244035   1.454   7.002   1.952
14697TIP3    H144036   1.541   7.019   1.988
14697TIP3    H244037   1.433   6.913   1.980
14698TIP3   OH244038   0.611   7.373   5.936
14698TIP3    H144039   0.616   7.469   5.937
14698TIP3    H244040   0.577   7.352   5.849
14699TIP3   OH244041   1.154   1.492   0.151
14699TIP3    H144042   1.095   1.418   0.141
14699TIP3    H244043   1.184   1.487   0.242
14700TIP3   OH244044   0.351   5.911   2.251
14700TIP3    H144045   0.390   5.884   2.167
14700TIP3    H244046   0.306   5.833   2.282
14701TIP3   OH244047   4.461   4.830   0.606
14701TIP3    H144048   4.411   4.903   0.642
14701TIP3    H244049   4.432   4.754   0.657
14702TIP3   OH244050   1.484   1.322   1.349
14702TIP3    H144051   1.563   1.355   1.392
14702TIP3    H244052   1.467   1.383   1.278
14703TIP3   OH244053   0.987   0.075   6.057
14703TIP3    H144054   1.052   0.016   6.095
14703TIP3    H244055   1.034   0.119   5.985
14704TIP3   OH244056   1.469   6.462   0.693
14704TIP3    H144057   1.435   6.512   0.620
14704TIP3    H244058   1.392   6.435   0.743
14705TIP3   OH244059   1.644   5.685   6.746
14705TIP3    H144060   1.556   5.716   6.765
14705TIP3    H244061   1.669   5.636   6.825
14706TIP3   OH244062   4.710   7.232   4.705
14706TIP3    H144063   4.652   7.306   4.691
14706TIP3    H244064   4.798   7.267   4.693
14707TIP3   OH244065   0.568   4.164   5.853
14707TIP3    H144066   0.584   4.241   5.798
14707TIP3    H244067   0.603   4.091   5.802
14708TIP3   OH244068   7.384   1.905   4.536
14708TIP3    H144069   7.456   1.926   4.475
14708TIP3    H244070   7.332   1.839   4.490
14709TIP3   OH244071   1.425   1.965   3.712
14709TIP3    H144072   1.458   2.016   3.787
14709TIP3    H244073   1.355   2.018   3.676
14710TIP3   OH244074   6.646   2.899   0.977
14710TIP3    H144075   6.709   2.918   1.046
14710TIP3    H244076   6.660   2.968   0.912
14711TIP3   OH244077   4.612   6.880   2.299
14711TIP3    H144078   4.642   6.957   2.348
14711TIP3    H244079   4.544   6.842   2.355
14712TIP3   OH244080   5.310   1.505   2.840
14712TIP3    H144081   5.240   1.562   2.810
14712TIP3    H244082   5.265   1.435   2.887
14713TIP3   OH244083   7.512   0.427   2.818
14713TIP3    H144084   7.500   0.441   2.912
14713TIP3    H244085   7.428   0.391   2.789
14714TIP3   OH244086   5.990   6.720   1.563
14714TIP3    H144087   5.958   6.805   1.533
14714TIP3    H244088   6.033   6.682   1.487
14715TIP3   OH244089   2.732   5.751   3.095
14715TIP3    H144090   2.823   5.776   3.112
14715TIP3    H244091   2.730   5.657   3.112
14716TIP3   OH244092   5.785   0.560   3.970
14716TIP3    H144093   5.842   0.496   4.013
14716TIP3    H244094   5.714   0.574   4.032
14717TIP3   OH244095   3.817   7.164   0.085
14717TIP3    H144096   3.801   7.086   0.032
14717TIP3    H244097   3.739   7.218   0.073
14718TIP3   OH244098   3.947   5.045   1.119
14718TIP3    H144099   4.026   4.990   1.122
14718TIP3    H244100   3.875   4.983   1.117
14719TIP3   OH244101   7.886   0.196   1.716
14719TIP3    H144102   7.953   0.222   1.781
14719TIP3    H244103   7.922   0.118   1.674
14720TIP3   OH244104   7.660   4.034   0.807
14720TIP3    H144105   7.594   4.049   0.740
14720TIP3    H244106   7.703   3.953   0.780
14721TIP3   OH244107   0.309   3.975   0.670
14721TIP3    H144108   0.271   3.914   0.734
14721TIP3    H244109   0.402   3.953   0.668
14722TIP3   OH244110   0.162   1.411   4.689
14722TIP3    H144111   0.148   1.497   4.649
14722TIP3    H244112   0.130   1.421   4.779
14723TIP3   OH244113   1.333   1.274   1.822
14723TIP3    H144114   1.403   1.219   1.787
14723TIP3    H244115   1.317   1.338   1.753
14724TIP3   OH244116   7.730   2.086   3.104
14724TIP3    H144117   7.823   2.065   3.113
14724TIP3    H244118   7.718   2.099   3.010
14725TIP3   OH244119   5.064   2.098   3.822
14725TIP3    H144120   5.147   2.132   3.789
14725TIP3    H244121   5.078   2.088   3.916
14726TIP3   OH244122   4.878   0.345   4.347
14726TIP3    H144123   4.891   0.256   4.312
14726TIP3    H244124   4.894   0.336   4.441
14727TIP3   OH244125   8.028   3.871   0.686
14727TIP3    H144126   8.025   3.804   0.754
14727TIP3    H244127   8.119   3.871   0.656
14728TIP3   OH244128   8.163   1.074   4.908
14728TIP3    H144129   8.214   1.009   4.956
14728TIP3    H244130   8.134   1.136   4.976
14729TIP3   OH244131   4.837   6.083   0.091
14729TIP3    H144132   4.867   6.173   0.106
14729TIP3    H244133   4.870   6.035   0.167
14730TIP3   OH244134   5.577   2.770   1.079
14730TIP3    H144135   5.653   2.770   1.020
14730TIP3    H244136   5.523   2.698   1.047
14731TIP3   OH244137   5.003   4.700   5.222
14731TIP3    H144138   4.932   4.707   5.287
14731TIP3    H244139   5.049   4.620   5.246
14732TIP3   OH244140   5.752   7.302   5.656
14732TIP3    H144141   5.794   7.342   5.580
14732TIP3    H244142   5.802   7.336   5.731
14733TIP3   OH244143   3.393   4.201   6.060
14733TIP3    H144144   3.447   4.278   6.045
14733TIP3    H244145   3.304   4.235   6.067
14734TIP3   OH244146   3.765   2.840   6.423
14734TIP3    H144147   3.788   2.845   6.516
14734TIP3    H244148   3.749   2.931   6.397
14735TIP3   OH244149   3.166   5.992   2.309
14735TIP3    H144150   3.255   5.958   2.300
14735TIP3    H244151   3.148   6.034   2.225
14736TIP3   OH244152   7.801   3.033   1.307
14736TIP3    H144153   7.706   3.039   1.297
14736TIP3    H244154   7.827   2.961   1.249
14737TIP3   OH244155   2.364   5.521   1.127
14737TIP3    H144156   2.307   5.583   1.172
14737TIP3    H244157   2.308   5.444   1.112
14738TIP3   OH244158   1.601   7.186   1.297
14738TIP3    H144159   1.601   7.106   1.349
14738TIP3    H244160   1.516   7.226   1.315
14739TIP3   OH244161   5.257   1.167   0.065
14739TIP3    H144162   5.286   1.077   0.082
14739TIP3    H244163   5.171   1.172   0.106
14740TIP3   OH244164   1.383   7.423   2.608
14740TIP3    H144165   1.326   7.465   2.544
14740TIP3    H244166   1.407   7.340   2.567
14741TIP3   OH244167   1.990   7.017   0.492
14741TIP3    H144168   2.054   7.021   0.420
14741TIP3    H244169   1.978   6.924   0.508
14742TIP3   OH244170   0.140   3.237   3.955
14742TIP3    H144171   0.125   3.163   4.014
14742TIP3    H244172   0.121   3.202   3.868
14743TIP3   OH244173   5.618   4.413   4.392
14743TIP3    H144174   5.665   4.481   4.344
14743TIP3    H244175   5.674   4.393   4.467
14744TIP3   OH244176   1.932   6.153   5.750
14744TIP3    H144177   1.880   6.083   5.709
14744TIP3    H244178   1.889   6.234   5.722
14745TIP3   OH244179   0.161   3.853   4.069
14745TIP3    H144180   0.199   3.798   4.001
14745TIP3    H244181   0.187   3.942   4.045
14746TIP3   OH244182   7.667   2.638   4.199
14746TIP3    H144183   7.734   2.705   4.213
14746TIP3    H244184   7.619   2.667   4.122
14747TIP3   OH244185   0.235   7.139   6.631
14747TIP3    H144186   0.233   7.101   6.543
14747TIP3    H244187   0.327   7.135   6.657
14748TIP3   OH244188   4.102   6.907   3.872
14748TIP3    H144189   4.068   6.851   3.941
14748TIP3    H244190   4.139   6.847   3.807
14749TIP3   OH244191   5.366   4.968   5.556
14749TIP3    H144192   5.320   4.925   5.484
14749TIP3    H244193   5.443   5.008   5.514
14750TIP3   OH244194   7.957   2.593   5.271
14750TIP3    H144195   7.971   2.546   5.354
14750TIP3    H244196   7.876   2.555   5.236
14751TIP3   OH244197   5.629   5.659   3.942
14751TIP3    H144198   5.647   5.621   3.856
14751TIP3    H244199   5.700   5.626   3.998
14752TIP3   OH244200   4.345   5.825   0.278
14752TIP3    H144201   4.254   5.849   0.260
14752TIP3    H244202   4.347   5.729   0.273
14753TIP3   OH244203   0.610   5.105   5.138
14753TIP3    H144204   0.624   5.154   5.056
14753TIP3    H244205   0.665   5.150   5.202
14754TIP3   OH244206   2.442   7.594   5.215
14754TIP3    H144207   2.470   7.509   5.250
14754TIP3    H244208   2.424   7.646   5.293
14755TIP3   OH244209   1.343   5.260   1.593
14755TIP3    H144210   1.335   5.244   1.499
14755TIP3    H244211   1.375   5.350   1.600
14756TIP3   OH244212   0.058   0.030   1.601
14756TIP3    H144213   0.005  -0.049   1.591
14756TIP3    H244214   0.048   0.053   1.693
14757TIP3   OH244215   7.404   4.924   4.556
14757TIP3    H144216   7.384   4.962   4.641
14757TIP3    H244217   7.342   4.965   4.496
14758TIP3   OH244218   4.005   2.303   0.516
14758TIP3    H144219   4.028   2.383   0.468
14758TIP3    H244220   4.035   2.232   0.459
14759TIP3   OH244221   6.765   6.878   0.009
14759TIP3    H144222   6.731   6.950   0.062
14759TIP3    H244223   6.752   6.800   0.063
14760TIP3   OH244224   3.268   3.782   1.422
14760TIP3    H144225   3.359   3.798   1.446
14760TIP3    H244226   3.244   3.857   1.368
14761TIP3   OH244227   7.726   7.456   2.376
14761TIP3    H144228   7.640   7.497   2.381
14761TIP3    H244229   7.765   7.491   2.296
14762TIP3   OH244230   0.246   7.488   4.489
14762TIP3    H144231   0.234   7.580   4.511
14762TIP3    H244232   0.341   7.476   4.486
14763TIP3   OH244233   8.100   5.339   0.547
14763TIP3    H144234   8.032   5.389   0.502
14763TIP3    H244235   8.090   5.250   0.512
14764TIP3   OH244236   4.153   5.810   3.050
14764TIP3    H144237   4.158   5.873   3.122
14764TIP3    H244238   4.071   5.763   3.064
14765TIP3   OH244239   7.682   1.272   2.296
14765TIP3    H144240   7.752   1.221   2.255
14765TIP3    H244241   7.709   1.363   2.284
14766TIP3   OH244242   7.746   5.529   5.823
14766TIP3    H144243   7.814   5.587   5.789
14766TIP3    H244244   7.793   5.469   5.881
14767TIP3   OH244245   3.106   5.577   1.147
14767TIP3    H144246   3.134   5.496   1.189
14767TIP3    H244247   3.017   5.559   1.117
14768TIP3   OH244248   1.477   6.032   2.751
14768TIP3    H144249   1.430   6.050   2.670
14768TIP3    H244250   1.531   5.955   2.730
14769TIP3   OH244251   6.060   2.202   4.163
14769TIP3    H144252   6.068   2.110   4.135
14769TIP3    H244253   6.023   2.246   4.087
14770TIP3   OH244254   1.789   3.489   1.948
14770TIP3    H144255   1.838   3.570   1.961
14770TIP3    H244256   1.776   3.455   2.037
14771TIP3   OH244257   6.266   0.835   3.821
14771TIP3    H144258   6.195   0.775   3.842
14771TIP3    H244259   6.310   0.796   3.745
14772TIP3   OH244260   3.133   0.092   2.848
14772TIP3    H144261   3.078   0.015   2.857
14772TIP3    H244262   3.167   0.108   2.936
14773TIP3   OH244263   0.432   4.732   6.453
14773TIP3    H144264   0.381   4.809   6.478
14773TIP3    H244265   0.502   4.767   6.398
14774TIP3   OH244266   6.156   0.342   1.049
14774TIP3    H144267   6.108   0.399   1.109
14774TIP3    H244268   6.097   0.332   0.974
14775TIP3   OH244269   0.597   6.857   3.600
14775TIP3    H144270   0.617   6.770   3.635
14775TIP3    H244271   0.666   6.872   3.535
14776TIP3   OH244272   2.410   3.676  -0.009
14776TIP3    H144273   2.425   3.638   0.077
14776TIP3    H244274   2.328   3.724  -0.001
14777TIP3   OH244275   5.039   6.738   4.216
14777TIP3    H144276   4.981   6.804   4.177
14777TIP3    H244277   5.022   6.744   4.310
14778TIP3   OH244278   1.309   4.880   0.756
14778TIP3    H144279   1.360   4.803   0.729
14778TIP3    H244280   1.350   4.953   0.712
14779TIP3   OH244281   6.976   1.751   3.497
14779TIP3    H144282   7.063   1.774   3.528
14779TIP3    H244283   6.930   1.721   3.575
14780TIP3   OH244284   1.746   1.411   2.530
14780TIP3    H144285   1.754   1.316   2.535
14780TIP3    H244286   1.720   1.438   2.618
14781TIP3   OH244287   2.369   0.260   6.034
14781TIP3    H144288   2.449   0.212   6.056
14781TIP3    H244289   2.400   0.345   6.004
14782TIP3   OH244290   5.819   2.177   3.266
14782TIP3    H144291   5.752   2.157   3.331
14782TIP3    H244292   5.770   2.191   3.185
14783TIP3   OH244293   5.241   2.877   1.259
14783TIP3    H144294   5.197   2.807   1.210
14783TIP3    H244295   5.252   2.841   1.347
14784TIP3   OH244296   0.484   5.286   0.927
14784TIP3    H144297   0.477   5.195   0.898
14784TIP3    H244298   0.433   5.336   0.864
14785TIP3   OH244299   7.483   6.060   0.458
14785TIP3    H144300   7.530   6.061   0.541
14785TIP3    H244301   7.545   6.099   0.395
14786TIP3   OH244302   4.641   6.466   4.670
14786TIP3    H144303   4.692   6.544   4.647
14786TIP3    H244304   4.605   6.437   4.586
14787TIP3   OH244305   4.390   1.112   4.846
14787TIP3    H144306   4.428   1.033   4.883
14787TIP3    H244307   4.389   1.096   4.752
14788TIP3   OH244308   1.579   1.264   2.086
14788TIP3    H144309   1.607   1.268   1.995
14788TIP3    H244310   1.644   1.208   2.129
14789TIP3   OH244311   1.159   0.304   0.926
14789TIP3    H144312   1.143   0.354   1.006
14789TIP3    H244313   1.084   0.323   0.870
14790TIP3   OH244314   2.888   3.845   6.399
14790TIP3    H144315   2.855   3.778   6.340
14790TIP3    H244316   2.867   3.928   6.355
14791TIP3   OH244317   4.724   4.233   4.364
14791TIP3    H144318   4.707   4.227   4.458
14791TIP3    H244319   4.640   4.213   4.324
14792TIP3   OH244320   4.618   2.117   5.825
14792TIP3    H144321   4.546   2.121   5.761
14792TIP3    H244322   4.578   2.079   5.903
14793TIP3   OH244323   5.577   3.650   4.210
14793TIP3    H144324   5.538   3.564   4.195
14793TIP3    H244325   5.509   3.712   4.183
14794TIP3   OH244326   1.044   5.589   5.459
14794TIP3    H144327   1.132   5.601   5.424
14794TIP3    H244328   0.994   5.663   5.424
14795TIP3   OH244329   2.922   3.875   0.837
14795TIP3    H144330   2.933   3.781   0.827
14795TIP3    H244331   2.953   3.911   0.754
14796TIP3   OH244332   1.195   6.451   4.940
14796TIP3    H144333   1.168   6.365   4.973
14796TIP3    H244334   1.289   6.454   4.957
14797TIP3   OH244335   0.061   0.909   5.029
14797TIP3    H144336   0.128   0.840   5.033
14797TIP3    H244337   0.106   0.984   4.991
14798TIP3   OH244338   6.383   4.449   5.050
14798TIP3    H144339   6.383   4.357   5.023
14798TIP3    H244340   6.357   4.447   5.142
14799TIP3   OH244341   2.267   0.586   1.540
14799TIP3    H144342   2.313   0.649   1.596
14799TIP3    H244343   2.180   0.578   1.579
14800TIP3   OH244344   5.053   4.132   3.044
14800TIP3    H144345   5.033   4.117   2.952
14800TIP3    H244346   5.082   4.224   3.048
14801TIP3   OH244347   0.766   2.964   0.307
14801TIP3    H144348   0.714   3.039   0.279
14801TIP3    H244349   0.787   2.918   0.225
14802TIP3   OH244350   2.081   3.628   2.328
14802TIP3    H144351   2.131   3.645   2.408
14802TIP3    H244352   2.088   3.533   2.315
14803TIP3   OH244353   5.401   4.588   0.362
14803TIP3    H144354   5.307   4.608   0.362
14803TIP3    H244355   5.405   4.494   0.346
14804TIP3   OH244356   5.962   6.281   6.389
14804TIP3    H144357   6.048   6.315   6.365
14804TIP3    H244358   5.976   6.189   6.409
14805TIP3   OH244359   2.251   5.616   0.747
14805TIP3    H144360   2.292   5.697   0.717
14805TIP3    H244361   2.213   5.638   0.832
14806TIP3   OH244362   0.728   4.428   2.767
14806TIP3    H144363   0.701   4.511   2.806
14806TIP3    H244364   0.683   4.361   2.818
14807TIP3   OH244365   2.292   2.157   1.165
14807TIP3    H144366   2.316   2.064   1.158
14807TIP3    H244367   2.264   2.182   1.078
14808TIP3   OH244368   4.800   5.883   3.736
14808TIP3    H144369   4.871   5.947   3.745
14808TIP3    H244370   4.729   5.932   3.694
14809TIP3   OH244371   5.306   5.497   4.046
14809TIP3    H144372   5.269   5.585   4.052
14809TIP3    H244373   5.359   5.488   4.126
14810TIP3   OH244374   1.558   1.129   1.752
14810TIP3    H144375   1.552   1.054   1.693
14810TIP3    H244376   1.633   1.179   1.719
14811TIP3   OH244377   7.557   5.056   6.487
14811TIP3    H144378   7.497   5.030   6.417
14811TIP3    H244379   7.591   4.974   6.522
14812TIP3   OH244380   7.654   7.260   3.546
14812TIP3    H144381   7.737   7.295   3.515
14812TIP3    H244382   7.611   7.226   3.468
14813TIP3   OH244383   7.031   0.464   5.538
14813TIP3    H144384   6.954   0.456   5.481
14813TIP3    H244385   7.045   0.558   5.546
14814TIP3   OH244386   2.665   2.434   2.878
14814TIP3    H144387   2.700   2.390   2.800
14814TIP3    H244388   2.649   2.524   2.850
14815TIP3   OH244389   7.224   3.412   2.150
14815TIP3    H144390   7.288   3.484   2.154
14815TIP3    H244391   7.254   3.351   2.218
14816TIP3   OH244392   1.282   3.799   6.105
14816TIP3    H144393   1.267   3.887   6.137
14816TIP3    H244394   1.252   3.801   6.014
14817TIP3   OH244395   0.560   0.074   0.352
14817TIP3    H144396   0.600   0.161   0.345
14817TIP3    H244397   0.551   0.060   0.446
14818TIP3   OH244398   4.035   0.476   1.250
14818TIP3    H144399   4.011   0.496   1.160
14818TIP3    H244400   3.997   0.389   1.266
14819TIP3   OH244401   1.748   2.222   1.509
14819TIP3    H144402   1.812   2.273   1.559
14819TIP3    H244403   1.664   2.264   1.528
14820TIP3   OH244404   5.305   0.925   4.057
14820TIP3    H144405   5.293   0.990   4.126
14820TIP3    H244406   5.397   0.934   4.031
14821TIP3   OH244407   0.476   7.177   4.449
14821TIP3    H144408   0.462   7.225   4.531
14821TIP3    H244409   0.432   7.093   4.463
14822TIP3   OH244410   1.179   3.044   1.331
14822TIP3    H144411   1.245   3.097   1.377
14822TIP3    H244412   1.175   2.963   1.381
14823TIP3   OH244413   4.323   4.221   5.371
14823TIP3    H144414   4.366   4.230   5.456
14823TIP3    H244415   4.377   4.272   5.311
14824TIP3   OH244416   4.228   6.299   3.503
14824TIP3    H144417   4.299   6.235   3.499
14824TIP3    H244418   4.148   6.248   3.495
14825TIP3   OH244419   6.601   4.274   5.231
14825TIP3    H144420   6.515   4.249   5.196
14825TIP3    H244421   6.656   4.285   5.154
14826TIP3   OH244422   3.437   2.875   1.651
14826TIP3    H144423   3.493   2.946   1.618
14826TIP3    H244424   3.419   2.900   1.741
14827TIP3   OH244425   5.578   7.004   1.853
14827TIP3    H144426   5.491   6.972   1.877
14827TIP3    H244427   5.577   7.096   1.877
14828TIP3   OH244428   3.344   3.379   2.204
14828TIP3    H144429   3.411   3.313   2.186
14828TIP3    H244430   3.267   3.328   2.229
14829TIP3   OH244431   3.453   1.711   5.982
14829TIP3    H144432   3.475   1.619   5.996
14829TIP3    H244433   3.512   1.759   6.039
14830TIP3   OH244434   3.604   7.338   0.078
14830TIP3    H144435   3.537   7.305   0.018
14830TIP3    H244436   3.568   7.323   0.165
14831TIP3   OH244437   0.592   4.537   1.773
14831TIP3    H144438   0.602   4.499   1.686
14831TIP3    H244439   0.499   4.527   1.793
14832TIP3   OH244440   3.102   6.939   6.144
14832TIP3    H144441   3.079   6.847   6.132
14832TIP3    H244442   3.131   6.969   6.058
14833TIP3   OH244443   5.310   2.054   6.508
14833TIP3    H144444   5.265   2.006   6.439
14833TIP3    H244445   5.240   2.098   6.557
14834TIP3   OH244446   1.100   4.370   1.447
14834TIP3    H144447   1.109   4.460   1.416
14834TIP3    H244448   1.015   4.342   1.414
14835TIP3   OH244449   0.619   3.854   3.916
14835TIP3    H144450   0.636   3.760   3.914
14835TIP3    H244451   0.705   3.894   3.930
14836TIP3   OH244452   1.293   0.887   3.733
14836TIP3    H144453   1.313   0.859   3.644
14836TIP3    H244454   1.270   0.807   3.780
14837TIP3   OH244455   0.622   2.490   6.653
14837TIP3    H144456   0.709   2.520   6.625
14837TIP3    H244457   0.600   2.546   6.727
14838TIP3   OH244458   8.123   5.395   1.575
14838TIP3    H144459   8.050   5.427   1.523
14838TIP3    H244460   8.097   5.308   1.604
14839TIP3   OH244461   0.888   5.273   1.296
14839TIP3    H144462   0.915   5.359   1.327
14839TIP3    H244463   0.854   5.289   1.208
   8.30287   7.82803   6.77926   0.00000   0.00000  -2.76762   0.00000  -2.76762  -3.91401
