Title t= 139.00000 step= 69500
44389
    1GLY      N    1   5.842   3.585   0.910
    1GLY    HT1    2   5.738   3.580   0.900
    1GLY    HT2    3   5.879   3.492   0.935
    1GLY    HT3    4   5.879   3.608   0.816
    1GLY     CA    5   5.884   3.684   1.012
    1GLY    HA1    6   5.816   3.766   0.994
    1GLY    HA2    7   5.988   3.707   0.994
    1GLY      C    8   5.860   3.645   1.156
    1GLY      O    9   5.846   3.525   1.179
    2PRO      N   10   5.858   3.728   1.258
    2PRO     CD   11   5.887   3.872   1.233
    2PRO    HD1   12   5.800   3.925   1.187
    2PRO    HD2   13   5.971   3.893   1.164
    2PRO     CA   14   5.837   3.704   1.402
    2PRO     HA   15   5.926   3.668   1.450
    2PRO     CB   16   5.812   3.842   1.459
    2PRO    HB1   17   5.835   3.843   1.568
    2PRO    HB2   18   5.708   3.870   1.429
    2PRO     CG   19   5.909   3.927   1.371
    2PRO    HG1   20   5.870   4.032   1.369
    2PRO    HG2   21   6.013   3.923   1.408
    2PRO      C   22   5.735   3.606   1.441
    2PRO      O   23   5.627   3.610   1.386
    3GLY      N   24   5.757   3.520   1.544
    3GLY     HN   25   5.835   3.529   1.604
    3GLY     CA   26   5.669   3.412   1.577
    3GLY    HA1   27   5.568   3.442   1.551
    3GLY    HA2   28   5.664   3.382   1.681
    3GLY      C   29   5.717   3.289   1.501
    3GLY      O   30   5.832   3.282   1.455
    4ASP      N   31   5.636   3.185   1.492
    4ASP     HN   32   5.540   3.186   1.519
    4ASP     CA   33   5.683   3.060   1.431
    4ASP     HA   34   5.790   3.069   1.424
    4ASP     CB   35   5.641   2.937   1.523
    4ASP    HB1   36   5.657   2.844   1.464
    4ASP    HB2   37   5.533   2.951   1.542
    4ASP     CG   38   5.709   2.921   1.658
    4ASP    OD1   39   5.810   2.992   1.688
    4ASP    OD2   40   5.664   2.835   1.741
    4ASP      C   41   5.621   3.038   1.288
    4ASP      O   42   5.526   3.105   1.241
    5PRO      N   43   5.679   2.939   1.205
    5PRO     CD   44   5.817   2.893   1.227
    5PRO    HD1   45   5.808   2.830   1.318
    5PRO    HD2   46   5.885   2.977   1.250
    5PRO     CA   47   5.635   2.912   1.065
    5PRO     HA   48   5.653   3.006   1.014
    5PRO     CB   49   5.731   2.801   1.012
    5PRO    HB1   50   5.743   2.798   0.901
    5PRO    HB2   51   5.680   2.708   1.045
    5PRO     CG   52   5.860   2.824   1.098
    5PRO    HG1   53   5.909   2.727   1.121
    5PRO    HG2   54   5.937   2.888   1.050
    5PRO      C   55   5.487   2.891   1.035
    5PRO      O   56   5.408   2.834   1.114
    6GLY      N   57   5.441   2.947   0.921
    6GLY     HN   58   5.507   2.993   0.862
    6GLY     CA   59   5.301   2.956   0.893
    6GLY    HA1   60   5.269   2.853   0.886
    6GLY    HA2   61   5.287   3.001   0.796
    6GLY      C   62   5.218   3.051   0.971
    6GLY      O   63   5.268   3.117   1.065
    7SER      N   64   5.086   3.055   0.937
    7SER     HN   65   5.054   3.004   0.857
    7SER     CA   66   4.991   3.136   0.996
    7SER     HA   67   5.035   3.198   1.072
    7SER     CB   68   4.919   3.235   0.899
    7SER    HB1   69   4.844   3.304   0.944
    7SER    HB2   70   4.868   3.197   0.808
    7SER     OG   71   5.017   3.314   0.836
    7SER    HG1   72   5.045   3.370   0.909
    7SER      C   73   4.886   3.060   1.070
    7SER      O   74   4.824   2.970   1.014
    8GLY      N   75   4.860   3.089   1.203
    8GLY     HN   76   4.902   3.170   1.243
    8GLY     CA   77   4.755   3.026   1.288
    8GLY    HA1   78   4.781   3.050   1.390
    8GLY    HA2   79   4.761   2.920   1.269
    8GLY      C   80   4.619   3.078   1.263
    8GLY      O   81   4.598   3.145   1.159
    9ASN      N   82   4.520   3.044   1.340
    9ASN     HN   83   4.525   2.989   1.422
    9ASN     CA   84   4.388   3.079   1.302
    9ASN     HA   85   4.377   3.101   1.197
    9ASN     CB   86   4.302   2.949   1.329
    9ASN    HB1   87   4.294   2.922   1.436
    9ASN    HB2   88   4.355   2.867   1.276
    9ASN     CG   89   4.159   2.960   1.268
    9ASN    OD1   90   4.070   2.972   1.351
    9ASN    ND2   91   4.143   2.933   1.139
    9ASN   HD21   92   4.045   2.940   1.118
    9ASN   HD22   93   4.222   2.923   1.079
    9ASN      C   94   4.333   3.202   1.386
    9ASN      O   95   4.363   3.209   1.507
   10PRO      N   96   4.249   3.292   1.335
   10PRO     CD   97   4.239   3.316   1.193
   10PRO    HD1   98   4.190   3.232   1.139
   10PRO    HD2   99   4.339   3.324   1.144
   10PRO     CA  100   4.177   3.383   1.419
   10PRO     HA  101   4.243   3.460   1.457
   10PRO     CB  102   4.073   3.432   1.315
   10PRO    HB1  103   4.034   3.531   1.345
   10PRO    HB2  104   3.992   3.356   1.309
   10PRO     CG  105   4.146   3.443   1.181
   10PRO    HG1  106   4.079   3.449   1.093
   10PRO    HG2  107   4.212   3.532   1.187
   10PRO      C  108   4.101   3.325   1.545
   10PRO      O  109   4.051   3.211   1.535
   11GLY      N  110   4.090   3.407   1.645
   11GLY     HN  111   4.127   3.500   1.642
   11GLY     CA  112   4.015   3.376   1.767
   11GLY    HA1  113   4.074   3.404   1.852
   11GLY    HA2  114   3.972   3.276   1.767
   11GLY      C  115   3.895   3.475   1.757
   11GLY      O  116   3.887   3.564   1.675
   12SER      N  117   3.796   3.454   1.853
   12SER     HN  118   3.805   3.387   1.925
   12SER     CA  119   3.679   3.541   1.874
   12SER     HA  120   3.688   3.613   1.794
   12SER     CB  121   3.544   3.459   1.854
   12SER    HB1  122   3.533   3.467   1.744
   12SER    HB2  123   3.458   3.509   1.903
   12SER     OG  124   3.559   3.319   1.882
   12SER    HG1  125   3.610   3.284   1.809
   12SER      C  126   3.679   3.610   2.008
   12SER      O  127   3.582   3.678   2.032
   13GLY      N  128   3.782   3.603   2.099
   13GLY     HN  129   3.857   3.547   2.064
   13GLY     CA  130   3.799   3.678   2.226
   13GLY    HA1  131   3.809   3.780   2.192
   13GLY    HA2  132   3.875   3.640   2.292
   13GLY      C  133   3.691   3.666   2.328
   13GLY      O  134   3.578   3.617   2.304
   14ASP      N  135   3.725   3.714   2.448
   14ASP     HN  136   3.813   3.759   2.456
   14ASP     CA  137   3.646   3.714   2.571
   14ASP     HA  138   3.620   3.610   2.586
   14ASP     CB  139   3.737   3.762   2.689
   14ASP    HB1  140   3.670   3.751   2.777
   14ASP    HB2  141   3.777   3.865   2.677
   14ASP     CG  142   3.857   3.675   2.718
   14ASP    OD1  143   3.931   3.717   2.806
   14ASP    OD2  144   3.855   3.558   2.670
   14ASP      C  145   3.525   3.804   2.571
   14ASP      O  146   3.538   3.912   2.509
   15PRO      N  147   3.410   3.770   2.612
   15PRO     CD  148   3.372   3.640   2.674
   15PRO    HD1  149   3.430   3.619   2.767
   15PRO    HD2  150   3.401   3.557   2.606
   15PRO     CA  151   3.295   3.859   2.605
   15PRO     HA  152   3.292   3.888   2.501
   15PRO     CB  153   3.168   3.767   2.648
   15PRO    HB1  154   3.116   3.741   2.554
   15PRO    HB2  155   3.095   3.818   2.715
   15PRO     CG  156   3.225   3.642   2.708
   15PRO    HG1  157   3.216   3.650   2.819
   15PRO    HG2  158   3.170   3.551   2.677
   15PRO      C  159   3.292   3.988   2.685
   15PRO    OT1  160   3.329   3.996   2.803
   15PRO    OT2  161   3.247   4.089   2.621
   16SOD    SOD  162   4.525   3.790   0.618
   17SOD    SOD  163   1.682   3.470   1.359
   18SOD    SOD  164   2.670   6.124   3.622
   19SOD    SOD  165   7.210   4.279   4.655
   20SOD    SOD  166   3.813   1.317   2.186
   21SOD    SOD  167   0.392   5.645   0.000
   22SOD    SOD  168   5.212   4.855   4.624
   23SOD    SOD  169   2.080   0.162   4.432
   24SOD    SOD  170   0.526   6.534   1.320
   25SOD    SOD  171   5.765   6.887   5.150
   26SOD    SOD  172   1.884   3.816   4.100
   27SOD    SOD  173   0.913   3.410   4.571
   28SOD    SOD  174   7.991   1.336   5.655
   29SOD    SOD  175   7.209   7.053  -0.018
   30SOD    SOD  176   7.910   7.111   4.991
   31SOD    SOD  177   2.537   3.732   0.727
   32SOD    SOD  178   5.275   1.099   5.421
   33SOD    SOD  179   6.529   4.389   2.221
   34SOD    SOD  180   4.809   1.834   0.963
   35SOD    SOD  181   7.130   4.595   1.437
   36SOD    SOD  182   2.005   3.476   0.820
   37SOD    SOD  183   7.508   4.142   3.683
   38SOD    SOD  184   6.723   1.460   6.166
   39SOD    SOD  185   2.967   3.796   3.048
   40SOD    SOD  186   0.713   0.472   0.140
   41SOD    SOD  187   6.518   0.872   1.652
   42SOD    SOD  188   7.165   5.451   3.319
   43SOD    SOD  189   6.338   2.901   5.199
   44SOD    SOD  190   3.111   5.474   0.546
   45SOD    SOD  191   3.976   2.435   0.545
   46SOD    SOD  192   2.249   4.221   4.850
   47SOD    SOD  193   4.663   6.542   2.683
   48SOD    SOD  194   2.720   1.493   4.139
   49SOD    SOD  195   8.189   0.864   2.450
   50SOD    SOD  196   3.906   3.316   5.285
   51SOD    SOD  197   2.661   0.096   6.130
   52SOD    SOD  198   4.527   5.249   5.631
   53SOD    SOD  199   4.853   0.993   0.291
   54SOD    SOD  200   0.992   4.518   3.291
   55SOD    SOD  201   0.408   5.309   3.352
   56SOD    SOD  202   2.147   2.460   3.803
   57SOD    SOD  203   6.863   0.495   5.798
   58SOD    SOD  204   7.500   7.185   1.256
   59SOD    SOD  205   2.284   4.986   2.782
   60CLA    CLA  206   0.824   7.175   2.491
   61CLA    CLA  207   5.333   0.569   3.587
   62CLA    CLA  208   1.326   1.832   6.447
   63CLA    CLA  209   2.800   1.428   0.153
   64CLA    CLA  210   6.866   3.686   6.271
   65CLA    CLA  211   7.560   4.619   6.181
   66CLA    CLA  212   1.754   7.108   1.164
   67CLA    CLA  213   5.931   0.938   4.509
   68CLA    CLA  214   3.825   4.549   4.380
   69CLA    CLA  215   2.524   4.841   0.553
   70CLA    CLA  216   1.010   0.685   3.949
   71CLA    CLA  217   5.479   0.566   5.806
   72CLA    CLA  218   1.562   3.945   0.934
   73CLA    CLA  219   8.202   5.323   4.160
   74CLA    CLA  220   6.192   5.608   4.480
   75CLA    CLA  221   3.148   0.214   6.146
   76CLA    CLA  222   6.399   1.387   0.619
   77CLA    CLA  223   1.055   0.057   0.653
   78CLA    CLA  224   3.240   2.114   4.563
   79CLA    CLA  225   4.117   3.952   1.627
   80CLA    CLA  226   7.183   0.206   0.898
   81CLA    CLA  227   4.435   2.185   4.456
   82CLA    CLA  228   0.237   2.684   4.852
   83CLA    CLA  229   7.611   6.617   5.409
   84CLA    CLA  230   7.050   3.495   3.952
   85CLA    CLA  231   4.844   4.667   1.364
   86CLA    CLA  232   7.099   6.223   3.028
   87CLA    CLA  233   2.871   5.370   0.473
   88CLA    CLA  234   0.061   5.675   3.898
   89CLA    CLA  235   3.084   2.273   3.571
   90CLA    CLA  236   4.194   6.012   2.555
   91CLA    CLA  237   6.150   6.288   0.781
   92CLA    CLA  238   7.722   0.162   2.765
   93CLA    CLA  239   6.266   4.733   3.087
   94CLA    CLA  240   4.809   4.238   5.935
   95CLA    CLA  241   2.073   4.418   3.763
   96CLA    CLA  242   2.507   6.534   3.390
   97CLA    CLA  243   1.287   0.890   4.431
   98CLA    CLA  244   6.988   5.425   3.499
   99CLA    CLA  245   2.961   4.534   4.234
  100CLA    CLA  246   4.391   7.426   5.344
  101CLA    CLA  247   6.625   0.978   5.545
  102TIP3   OH2  248   0.586   0.404   3.258
  102TIP3    H1  249   0.613   0.493   3.239
  102TIP3    H2  250   0.638   0.379   3.335
  103TIP3   OH2  251   2.943   2.044   4.658
  103TIP3    H1  252   3.031   2.063   4.625
  103TIP3    H2  253   2.887   2.110   4.617
  104TIP3   OH2  254   3.496   7.218   6.366
  104TIP3    H1  255   3.554   7.144   6.348
  104TIP3    H2  256   3.485   7.217   6.461
  105TIP3   OH2  257   2.957   3.169   4.772
  105TIP3    H1  258   3.040   3.204   4.739
  105TIP3    H2  259   2.939   3.220   4.851
  106TIP3   OH2  260   6.279   4.001   2.980
  106TIP3    H1  261   6.363   3.982   3.021
  106TIP3    H2  262   6.214   3.979   3.046
  107TIP3   OH2  263   5.343   2.199   4.318
  107TIP3    H1  264   5.290   2.207   4.239
  107TIP3    H2  265   5.383   2.112   4.310
  108TIP3   OH2  266   6.297   0.170   4.379
  108TIP3    H1  267   6.244   0.249   4.370
  108TIP3    H2  268   6.238   0.098   4.358
  109TIP3   OH2  269   4.519   1.204   1.214
  109TIP3    H1  270   4.600   1.256   1.216
  109TIP3    H2  271   4.488   1.206   1.305
  110TIP3   OH2  272   0.463   0.366   3.696
  110TIP3    H1  273   0.503   0.285   3.729
  110TIP3    H2  274   0.507   0.381   3.612
  111TIP3   OH2  275   3.999   3.655   0.716
  111TIP3    H1  276   4.016   3.714   0.790
  111TIP3    H2  277   3.944   3.707   0.657
  112TIP3   OH2  278   3.832   1.287   2.891
  112TIP3    H1  279   3.763   1.311   2.953
  112TIP3    H2  280   3.902   1.350   2.906
  113TIP3   OH2  281   4.201   2.500   0.539
  113TIP3    H1  282   4.261   2.551   0.593
  113TIP3    H2  283   4.253   2.425   0.510
  114TIP3   OH2  284   5.129   1.121   0.968
  114TIP3    H1  285   5.103   1.086   1.053
  114TIP3    H2  286   5.048   1.121   0.917
  115TIP3   OH2  287   1.336   0.958   5.642
  115TIP3    H1  288   1.375   1.045   5.632
  115TIP3    H2  289   1.256   0.961   5.591
  116TIP3   OH2  290   0.675   5.619   5.955
  116TIP3    H1  291   0.742   5.652   6.016
  116TIP3    H2  292   0.690   5.668   5.874
  117TIP3   OH2  293   3.775   7.415   1.594
  117TIP3    H1  294   3.806   7.405   1.504
  117TIP3    H2  295   3.679   7.413   1.587
  118TIP3   OH2  296   5.629   2.025   3.560
  118TIP3    H1  297   5.671   2.065   3.484
  118TIP3    H2  298   5.597   1.941   3.528
  119TIP3   OH2  299   3.878   0.485   5.894
  119TIP3    H1  300   3.883   0.519   5.983
  119TIP3    H2  301   3.804   0.425   5.895
  120TIP3   OH2  302   4.162   2.976   2.640
  120TIP3    H1  303   4.148   3.067   2.612
  120TIP3    H2  304   4.253   2.974   2.670
  121TIP3   OH2  305   1.721   6.145   2.269
  121TIP3    H1  306   1.677   6.206   2.328
  121TIP3    H2  307   1.783   6.098   2.325
  122TIP3   OH2  308   3.154   1.556   1.489
  122TIP3    H1  309   3.222   1.505   1.532
  122TIP3    H2  310   3.073   1.531   1.534
  123TIP3   OH2  311   1.853   7.620   0.699
  123TIP3    H1  312   1.883   7.638   0.610
  123TIP3    H2  313   1.758   7.628   0.694
  124TIP3   OH2  314   8.217   5.568   1.164
  124TIP3    H1  315   8.188   5.548   1.254
  124TIP3    H2  316   8.141   5.611   1.124
  125TIP3   OH2  317   1.727   2.714   4.734
  125TIP3    H1  318   1.752   2.755   4.651
  125TIP3    H2  319   1.658   2.653   4.710
  126TIP3   OH2  320   0.085   6.836   6.022
  126TIP3    H1  321   0.161   6.783   6.046
  126TIP3    H2  322   0.118   6.894   5.953
  127TIP3   OH2  323   6.646   4.332   2.682
  127TIP3    H1  324   6.585   4.398   2.650
  127TIP3    H2  325   6.591   4.264   2.719
  128TIP3   OH2  326   8.249   7.553   2.876
  128TIP3    H1  327   8.176   7.522   2.823
  128TIP3    H2  328   8.301   7.607   2.817
  129TIP3   OH2  329   4.384   2.611   2.016
  129TIP3    H1  330   4.403   2.683   1.956
  129TIP3    H2  331   4.470   2.588   2.052
  130TIP3   OH2  332   1.355   0.001   0.580
  130TIP3    H1  333   1.273  -0.001   0.630
  130TIP3    H2  334   1.328   0.022   0.491
  131TIP3   OH2  335   5.781   7.780   5.858
  131TIP3    H1  336   5.860   7.757   5.908
  131TIP3    H2  337   5.793   7.872   5.835
  132TIP3   OH2  338   0.904   4.729   0.999
  132TIP3    H1  339   0.874   4.817   0.978
  132TIP3    H2  340   0.972   4.742   1.065
  133TIP3   OH2  341   1.393   7.666   0.815
  133TIP3    H1  342   1.305   7.684   0.780
  133TIP3    H2  343   1.418   7.583   0.776
  134TIP3   OH2  344   4.511   2.484   2.457
  134TIP3    H1  345   4.535   2.568   2.417
  134TIP3    H2  346   4.451   2.507   2.528
  135TIP3   OH2  347   2.473   4.286   3.362
  135TIP3    H1  348   2.563   4.317   3.355
  135TIP3    H2  349   2.471   4.235   3.443
  136TIP3   OH2  350   0.868   6.277   1.214
  136TIP3    H1  351   0.793   6.231   1.177
  136TIP3    H2  352   0.939   6.213   1.213
  137TIP3   OH2  353   7.631   5.826   0.088
  137TIP3    H1  354   7.556   5.820   0.029
  137TIP3    H2  355   7.685   5.750   0.066
  138TIP3   OH2  356   4.874   0.952   4.640
  138TIP3    H1  357   4.800   0.895   4.620
  138TIP3    H2  358   4.878   0.952   4.736
  139TIP3   OH2  359   4.749   4.702   3.828
  139TIP3    H1  360   4.731   4.771   3.892
  139TIP3    H2  361   4.845   4.693   3.828
  140TIP3   OH2  362   0.693   3.478   1.832
  140TIP3    H1  363   0.677   3.384   1.837
  140TIP3    H2  364   0.767   3.493   1.891
  141TIP3   OH2  365   2.649   4.071   4.795
  141TIP3    H1  366   2.745   4.069   4.792
  141TIP3    H2  367   2.623   4.111   4.712
  142TIP3   OH2  368   2.109   5.344   3.949
  142TIP3    H1  369   2.020   5.333   3.916
  142TIP3    H2  370   2.111   5.292   4.030
  143TIP3   OH2  371   5.908   1.311   4.947
  143TIP3    H1  372   5.976   1.257   4.906
  143TIP3    H2  373   5.827   1.260   4.936
  144TIP3   OH2  374   2.809   1.683   4.505
  144TIP3    H1  375   2.879   1.686   4.570
  144TIP3    H2  376   2.791   1.774   4.484
  145TIP3   OH2  377   7.609   3.386   2.070
  145TIP3    H1  378   7.681   3.425   2.020
  145TIP3    H2  379   7.535   3.388   2.010
  146TIP3   OH2  380   5.293   6.803   1.518
  146TIP3    H1  381   5.242   6.733   1.479
  146TIP3    H2  382   5.231   6.876   1.527
  147TIP3   OH2  383   1.212   7.413   0.060
  147TIP3    H1  384   1.231   7.402   0.153
  147TIP3    H2  385   1.241   7.332   0.019
  148TIP3   OH2  386   0.656   1.596   2.147
  148TIP3    H1  387   0.577   1.648   2.131
  148TIP3    H2  388   0.675   1.556   2.062
  149TIP3   OH2  389   0.714   7.689   1.195
  149TIP3    H1  390   0.750   7.612   1.239
  149TIP3    H2  391   0.791   7.731   1.155
  150TIP3   OH2  392   1.046   2.680   3.686
  150TIP3    H1  393   0.959   2.642   3.687
  150TIP3    H2  394   1.096   2.625   3.625
  151TIP3   OH2  395   6.253   3.507   0.690
  151TIP3    H1  396   6.169   3.554   0.690
  151TIP3    H2  397   6.283   3.513   0.781
  152TIP3   OH2  398   1.244   1.508   3.451
  152TIP3    H1  399   1.266   1.422   3.414
  152TIP3    H2  400   1.305   1.569   3.409
  153TIP3   OH2  401   2.595   6.517   5.564
  153TIP3    H1  402   2.689   6.500   5.567
  153TIP3    H2  403   2.556   6.431   5.548
  154TIP3   OH2  404   5.106   6.561   5.557
  154TIP3    H1  405   5.068   6.561   5.469
  154TIP3    H2  406   5.030   6.559   5.616
  155TIP3   OH2  407   2.965   4.154   3.680
  155TIP3    H1  408   2.978   4.171   3.773
  155TIP3    H2  409   2.938   4.062   3.675
  156TIP3   OH2  410   4.581   3.332   0.958
  156TIP3    H1  411   4.574   3.421   0.992
  156TIP3    H2  412   4.609   3.280   1.034
  157TIP3   OH2  413   7.670   5.861   1.515
  157TIP3    H1  414   7.704   5.862   1.604
  157TIP3    H2  415   7.613   5.784   1.512
  158TIP3   OH2  416   6.189   5.866   5.022
  158TIP3    H1  417   6.214   5.783   4.982
  158TIP3    H2  418   6.201   5.853   5.116
  159TIP3   OH2  419   7.356   3.119   0.639
  159TIP3    H1  420   7.434   3.064   0.636
  159TIP3    H2  421   7.364   3.176   0.563
  160TIP3   OH2  422   3.989   5.795   0.244
  160TIP3    H1  423   3.991   5.773   0.151
  160TIP3    H2  424   4.010   5.714   0.289
  161TIP3   OH2  425   7.886   6.040   5.603
  161TIP3    H1  426   7.963   6.075   5.559
  161TIP3    H2  427   7.912   6.034   5.695
  162TIP3   OH2  428   7.552   6.706   1.169
  162TIP3    H1  429   7.589   6.673   1.251
  162TIP3    H2  430   7.465   6.666   1.165
  163TIP3   OH2  431   5.813   6.810   3.689
  163TIP3    H1  432   5.744   6.751   3.719
  163TIP3    H2  433   5.890   6.787   3.742
  164TIP3   OH2  434   2.019   4.807   2.189
  164TIP3    H1  435   1.961   4.807   2.113
  164TIP3    H2  436   1.962   4.791   2.264
  165TIP3   OH2  437   8.145   5.631   3.057
  165TIP3    H1  438   8.189   5.708   3.094
  165TIP3    H2  439   8.216   5.576   3.025
  166TIP3   OH2  440   2.042   0.770   2.293
  166TIP3    H1  441   2.011   0.725   2.373
  166TIP3    H2  442   2.086   0.702   2.243
  167TIP3   OH2  443   4.571   3.816   5.022
  167TIP3    H1  444   4.603   3.786   4.937
  167TIP3    H2  445   4.477   3.832   5.008
  168TIP3   OH2  446   3.941   2.139   2.370
  168TIP3    H1  447   3.925   2.089   2.450
  168TIP3    H2  448   3.948   2.230   2.400
  169TIP3   OH2  449   7.693   7.323   3.043
  169TIP3    H1  450   7.644   7.297   2.965
  169TIP3    H2  451   7.674   7.417   3.053
  170TIP3   OH2  452   2.682   2.662   2.954
  170TIP3    H1  453   2.743   2.664   3.029
  170TIP3    H2  454   2.718   2.596   2.895
  171TIP3   OH2  455   1.191   3.160   0.108
  171TIP3    H1  456   1.166   3.099   0.177
  171TIP3    H2  457   1.153   3.122   0.028
  172TIP3   OH2  458   5.553   1.748   4.427
  172TIP3    H1  459   5.517   1.734   4.514
  172TIP3    H2  460   5.608   1.671   4.411
  173TIP3   OH2  461   0.834   4.769   4.672
  173TIP3    H1  462   0.883   4.814   4.741
  173TIP3    H2  463   0.744   4.799   4.683
  174TIP3   OH2  464   4.622   2.724   4.722
  174TIP3    H1  465   4.626   2.809   4.766
  174TIP3    H2  466   4.712   2.692   4.724
  175TIP3   OH2  467   5.982   7.503   4.220
  175TIP3    H1  468   5.896   7.461   4.223
  175TIP3    H2  469   5.964   7.596   4.234
  176TIP3   OH2  470   7.260   0.243   1.737
  176TIP3    H1  471   7.339   0.293   1.718
  176TIP3    H2  472   7.229   0.278   1.820
  177TIP3   OH2  473   5.347   2.311   3.270
  177TIP3    H1  474   5.313   2.386   3.319
  177TIP3    H2  475   5.334   2.236   3.328
  178TIP3   OH2  476   6.228   2.407   0.873
  178TIP3    H1  477   6.150   2.462   0.878
  178TIP3    H2  478   6.301   2.467   0.887
  179TIP3   OH2  479   4.514   6.541   0.466
  179TIP3    H1  480   4.461   6.525   0.387
  179TIP3    H2  481   4.451   6.538   0.538
  180TIP3   OH2  482   2.646   1.756   1.526
  180TIP3    H1  483   2.690   1.744   1.441
  180TIP3    H2  484   2.598   1.675   1.540
  181TIP3   OH2  485   7.502   4.440   6.452
  181TIP3    H1  486   7.516   4.513   6.392
  181TIP3    H2  487   7.501   4.363   6.396
  182TIP3   OH2  488   4.191   1.892   1.636
  182TIP3    H1  489   4.176   1.945   1.714
  182TIP3    H2  490   4.242   1.817   1.668
  183TIP3   OH2  491   0.733   2.372   0.058
  183TIP3    H1  492   0.648   2.414   0.047
  183TIP3    H2  493   0.761   2.349  -0.031
  184TIP3   OH2  494   4.211   5.748   1.496
  184TIP3    H1  495   4.291   5.696   1.497
  184TIP3    H2  496   4.147   5.695   1.544
  185TIP3   OH2  497   4.847   0.305   4.192
  185TIP3    H1  498   4.915   0.237   4.198
  185TIP3    H2  499   4.832   0.315   4.098
  186TIP3   OH2  500   4.156   6.355   2.646
  186TIP3    H1  501   4.135   6.271   2.604
  186TIP3    H2  502   4.157   6.418   2.574
  187TIP3   OH2  503   4.775   0.835   2.167
  187TIP3    H1  504   4.849   0.822   2.226
  187TIP3    H2  505   4.704   0.782   2.205
  188TIP3   OH2  506   8.102   7.107   1.131
  188TIP3    H1  507   8.159   7.088   1.057
  188TIP3    H2  508   8.162   7.135   1.201
  189TIP3   OH2  509   3.093   5.494   4.265
  189TIP3    H1  510   3.179   5.502   4.306
  189TIP3    H2  511   3.058   5.411   4.298
  190TIP3   OH2  512   4.309   6.394   6.474
  190TIP3    H1  513   4.335   6.413   6.564
  190TIP3    H2  514   4.388   6.359   6.433
  191TIP3   OH2  515   2.761   6.815   0.139
  191TIP3    H1  516   2.733   6.747   0.200
  191TIP3    H2  517   2.758   6.773   0.053
  192TIP3   OH2  518   0.554   3.630   3.760
  192TIP3    H1  519   0.554   3.638   3.665
  192TIP3    H2  520   0.616   3.697   3.789
  193TIP3   OH2  521   4.711   7.688   4.586
  193TIP3    H1  522   4.625   7.647   4.593
  193TIP3    H2  523   4.696   7.779   4.613
  194TIP3   OH2  524   6.727   4.454   2.323
  194TIP3    H1  525   6.765   4.541   2.336
  194TIP3    H2  526   6.786   4.410   2.262
  195TIP3   OH2  527   2.914   6.971   5.636
  195TIP3    H1  528   2.862   7.020   5.572
  195TIP3    H2  529   2.935   7.034   5.704
  196TIP3   OH2  530   5.126   4.683   1.975
  196TIP3    H1  531   5.153   4.708   2.063
  196TIP3    H2  532   5.032   4.697   1.974
  197TIP3   OH2  533   6.934   1.723   2.397
  197TIP3    H1  534   6.977   1.798   2.439
  197TIP3    H2  535   6.841   1.746   2.398
  198TIP3   OH2  536   7.023   1.362   1.894
  198TIP3    H1  537   6.959   1.315   1.841
  198TIP3    H2  538   6.975   1.438   1.926
  199TIP3   OH2  539   6.687   5.095   1.418
  199TIP3    H1  540   6.625   5.116   1.488
  199TIP3    H2  541   6.773   5.105   1.459
  200TIP3   OH2  542   7.098   1.605   1.666
  200TIP3    H1  543   7.015   1.649   1.645
  200TIP3    H2  544   7.121   1.637   1.753
  201TIP3   OH2  545   6.937   5.493   1.622
  201TIP3    H1  546   6.934   5.401   1.598
  201TIP3    H2  547   7.007   5.500   1.686
  202TIP3   OH2  548   5.986   1.801   6.318
  202TIP3    H1  549   5.952   1.863   6.252
  202TIP3    H2  550   5.971   1.715   6.279
  203TIP3   OH2  551   7.514   5.342   3.904
  203TIP3    H1  552   7.476   5.290   3.975
  203TIP3    H2  553   7.503   5.432   3.933
  204TIP3   OH2  554   8.204   6.971   4.060
  204TIP3    H1  555   8.251   6.991   3.980
  204TIP3    H2  556   8.143   6.901   4.036
  205TIP3   OH2  557   2.635   5.345   3.093
  205TIP3    H1  558   2.616   5.427   3.047
  205TIP3    H2  559   2.730   5.335   3.087
  206TIP3   OH2  560   2.788   1.218   5.028
  206TIP3    H1  561   2.863   1.172   5.068
  206TIP3    H2  562   2.776   1.175   4.944
  207TIP3   OH2  563   7.759   4.325   6.181
  207TIP3    H1  564   7.797   4.408   6.153
  207TIP3    H2  565   7.672   4.348   6.214
  208TIP3   OH2  566   0.037  -0.030   0.363
  208TIP3    H1  567   0.084  -0.019   0.281
  208TIP3    H2  568  -0.050   0.005   0.346
  209TIP3   OH2  569   1.545   2.754   1.945
  209TIP3    H1  570   1.537   2.739   2.039
  209TIP3    H2  571   1.462   2.725   1.908
  210TIP3   OH2  572   6.820   6.232   5.133
  210TIP3    H1  573   6.776   6.171   5.192
  210TIP3    H2  574   6.913   6.226   5.156
  211TIP3   OH2  575   1.098   6.972   2.886
  211TIP3    H1  576   1.151   6.979   2.966
  211TIP3    H2  577   1.081   7.063   2.861
  212TIP3   OH2  578   3.949   5.021   4.345
  212TIP3    H1  579   3.990   4.936   4.332
  212TIP3    H2  580   3.855   5.002   4.345
  213TIP3   OH2  581   1.623   7.244   3.681
  213TIP3    H1  582   1.594   7.327   3.719
  213TIP3    H2  583   1.684   7.270   3.612
  214TIP3   OH2  584   0.917   2.923   6.248
  214TIP3    H1  585   0.951   3.011   6.232
  214TIP3    H2  586   0.897   2.921   6.342
  215TIP3   OH2  587   3.589   6.012   6.367
  215TIP3    H1  588   3.506   5.965   6.368
  215TIP3    H2  589   3.654   5.946   6.343
  216TIP3   OH2  590   7.469   2.172   1.931
  216TIP3    H1  591   7.457   2.111   1.858
  216TIP3    H2  592   7.561   2.196   1.927
  217TIP3   OH2  593   7.971   6.631   2.544
  217TIP3    H1  594   7.888   6.585   2.549
  217TIP3    H2  595   8.016   6.591   2.470
  218TIP3   OH2  596   1.875   0.156   1.754
  218TIP3    H1  597   1.944   0.102   1.791
  218TIP3    H2  598   1.794   0.112   1.777
  219TIP3   OH2  599   1.334   6.809   2.016
  219TIP3    H1  600   1.262   6.767   2.061
  219TIP3    H2  601   1.337   6.897   2.052
  220TIP3   OH2  602   8.016   3.029   1.977
  220TIP3    H1  603   8.106   3.040   2.008
  220TIP3    H2  604   7.962   3.066   2.047
  221TIP3   OH2  605   2.960   4.489   2.612
  221TIP3    H1  606   3.054   4.469   2.610
  221TIP3    H2  607   2.921   4.414   2.657
  222TIP3   OH2  608   2.629   1.870   0.359
  222TIP3    H1  609   2.713   1.823   0.356
  222TIP3    H2  610   2.606   1.870   0.452
  223TIP3   OH2  611   6.322   3.745   5.161
  223TIP3    H1  612   6.325   3.698   5.245
  223TIP3    H2  613   6.229   3.750   5.140
  224TIP3   OH2  614   2.122   5.724   2.376
  224TIP3    H1  615   2.040   5.690   2.414
  224TIP3    H2  616   2.095   5.764   2.294
  225TIP3   OH2  617   3.662   4.432   5.175
  225TIP3    H1  618   3.713   4.428   5.094
  225TIP3    H2  619   3.648   4.525   5.190
  226TIP3   OH2  620   7.442   5.983   4.718
  226TIP3    H1  621   7.492   5.921   4.771
  226TIP3    H2  622   7.392   6.034   4.782
  227TIP3   OH2  623   0.590   7.818   6.510
  227TIP3    H1  624   0.575   7.788   6.420
  227TIP3    H2  625   0.645   7.750   6.548
  228TIP3   OH2  626   1.318   2.975   0.287
  228TIP3    H1  627   1.409   2.980   0.316
  228TIP3    H2  628   1.281   2.904   0.339
  229TIP3   OH2  629   2.087   0.077   0.065
  229TIP3    H1  630   2.135   0.157   0.090
  229TIP3    H2  631   1.996   0.106   0.057
  230TIP3   OH2  632   0.161   5.628   3.587
  230TIP3    H1  633   0.128   5.616   3.676
  230TIP3    H2  634   0.237   5.685   3.597
  231TIP3   OH2  635   4.503   4.258   6.009
  231TIP3    H1  636   4.598   4.245   6.012
  231TIP3    H2  637   4.490   4.317   5.934
  232TIP3   OH2  638   4.264   7.574   0.706
  232TIP3    H1  639   4.249   7.511   0.635
  232TIP3    H2  640   4.344   7.619   0.681
  233TIP3   OH2  641   2.355   3.982   1.405
  233TIP3    H1  642   2.430   3.971   1.463
  233TIP3    H2  643   2.313   3.896   1.403
  234TIP3   OH2  644   7.809   1.831   1.334
  234TIP3    H1  645   7.874   1.895   1.304
  234TIP3    H2  646   7.756   1.812   1.257
  235TIP3   OH2  647   2.542   3.937   4.051
  235TIP3    H1  648   2.553   3.868   4.117
  235TIP3    H2  649   2.449   3.934   4.029
  236TIP3   OH2  650   3.957   2.023   4.615
  236TIP3    H1  651   4.045   2.018   4.650
  236TIP3    H2  652   3.969   2.027   4.520
  237TIP3   OH2  653   3.838   5.647   3.767
  237TIP3    H1  654   3.858   5.572   3.823
  237TIP3    H2  655   3.881   5.721   3.810
  238TIP3   OH2  656   7.780   3.117   5.437
  238TIP3    H1  657   7.726   3.049   5.398
  238TIP3    H2  658   7.720   3.191   5.450
  239TIP3   OH2  659   7.586   4.733   2.626
  239TIP3    H1  660   7.543   4.811   2.662
  239TIP3    H2  661   7.568   4.736   2.532
  240TIP3   OH2  662   2.572   4.781   6.364
  240TIP3    H1  663   2.644   4.837   6.334
  240TIP3    H2  664   2.503   4.842   6.388
  241TIP3   OH2  665   3.367   2.493   0.150
  241TIP3    H1  666   3.460   2.474   0.139
  241TIP3    H2  667   3.336   2.516   0.062
  242TIP3   OH2  668   0.736   7.291   3.414
  242TIP3    H1  669   0.794   7.228   3.371
  242TIP3    H2  670   0.656   7.242   3.433
  243TIP3   OH2  671   2.291   1.575   0.497
  243TIP3    H1  672   2.385   1.556   0.500
  243TIP3    H2  673   2.275   1.625   0.577
  244TIP3   OH2  674   0.235   1.570   2.159
  244TIP3    H1  675   0.142   1.549   2.161
  244TIP3    H2  676   0.245   1.631   2.086
  245TIP3   OH2  677   6.906   5.431   1.278
  245TIP3    H1  678   6.939   5.438   1.189
  245TIP3    H2  679   6.818   5.393   1.268
  246TIP3   OH2  680   3.801   1.029   0.830
  246TIP3    H1  681   3.808   0.981   0.913
  246TIP3    H2  682   3.725   1.087   0.842
  247TIP3   OH2  683   7.097   4.768   4.488
  247TIP3    H1  684   7.189   4.753   4.510
  247TIP3    H2  685   7.097   4.796   4.397
  248TIP3   OH2  686   4.737   7.693   0.073
  248TIP3    H1  687   4.803   7.739   0.125
  248TIP3    H2  688   4.719   7.752   0.000
  249TIP3   OH2  689   5.367   1.972   4.666
  249TIP3    H1  690   5.358   1.876   4.665
  249TIP3    H2  691   5.309   2.002   4.596
  250TIP3   OH2  692   2.506   1.190   4.765
  250TIP3    H1  693   2.528   1.102   4.732
  250TIP3    H2  694   2.554   1.249   4.707
  251TIP3   OH2  695   5.675   1.254   5.613
  251TIP3    H1  696   5.762   1.231   5.646
  251TIP3    H2  697   5.653   1.336   5.658
  252TIP3   OH2  698   4.176   6.548   0.750
  252TIP3    H1  699   4.217   6.605   0.815
  252TIP3    H2  700   4.178   6.600   0.669
  253TIP3   OH2  701   7.021   3.104   3.053
  253TIP3    H1  702   7.062   3.102   3.140
  253TIP3    H2  703   6.988   3.016   3.039
  254TIP3   OH2  704   5.492   1.230   2.891
  254TIP3    H1  705   5.541   1.152   2.918
  254TIP3    H2  706   5.549   1.272   2.826
  255TIP3   OH2  707   0.182   2.412   5.803
  255TIP3    H1  708   0.214   2.333   5.759
  255TIP3    H2  709   0.183   2.389   5.896
  256TIP3   OH2  710   7.648   4.779   4.558
  256TIP3    H1  711   7.705   4.735   4.496
  256TIP3    H2  712   7.682   4.755   4.644
  257TIP3   OH2  713   5.604   1.714   6.354
  257TIP3    H1  714   5.641   1.628   6.331
  257TIP3    H2  715   5.511   1.697   6.370
  258TIP3   OH2  716   6.058   6.610   1.959
  258TIP3    H1  717   6.025   6.602   1.869
  258TIP3    H2  718   6.153   6.603   1.950
  259TIP3   OH2  719   5.916   0.928   4.820
  259TIP3    H1  720   5.893   0.955   4.731
  259TIP3    H2  721   5.850   0.862   4.843
  260TIP3   OH2  722   3.767   2.634   2.969
  260TIP3    H1  723   3.840   2.665   3.022
  260TIP3    H2  724   3.702   2.703   2.974
  261TIP3   OH2  725   2.355   0.863   2.707
  261TIP3    H1  726   2.364   0.854   2.802
  261TIP3    H2  727   2.318   0.951   2.695
  262TIP3   OH2  728   7.919   5.778   1.646
  262TIP3    H1  729   7.900   5.868   1.673
  262TIP3    H2  730   7.980   5.745   1.711
  263TIP3   OH2  731   6.744   5.412   3.697
  263TIP3    H1  732   6.684   5.343   3.667
  263TIP3    H2  733   6.806   5.423   3.624
  264TIP3   OH2  734   6.888   0.261   2.294
  264TIP3    H1  735   6.961   0.201   2.310
  264TIP3    H2  736   6.845   0.226   2.216
  265TIP3   OH2  737   2.548   4.803   5.073
  265TIP3    H1  738   2.462   4.796   5.032
  265TIP3    H2  739   2.606   4.832   5.002
  266TIP3   OH2  740   8.309   7.327   0.704
  266TIP3    H1  741   8.271   7.239   0.704
  266TIP3    H2  742   8.284   7.364   0.619
  267TIP3   OH2  743   2.027   5.853   3.740
  267TIP3    H1  744   2.073   5.867   3.657
  267TIP3    H2  745   2.024   5.758   3.751
  268TIP3   OH2  746   1.509   3.864   3.830
  268TIP3    H1  747   1.522   3.953   3.800
  268TIP3    H2  748   1.421   3.864   3.868
  269TIP3   OH2  749   0.673   3.131   5.589
  269TIP3    H1  750   0.699   3.223   5.588
  269TIP3    H2  751   0.655   3.111   5.497
  270TIP3   OH2  752   1.622   5.119   5.692
  270TIP3    H1  753   1.629   5.070   5.774
  270TIP3    H2  754   1.600   5.208   5.719
  271TIP3   OH2  755   1.359   3.136   3.891
  271TIP3    H1  756   1.304   3.213   3.879
  271TIP3    H2  757   1.298   3.063   3.899
  272TIP3   OH2  758   4.748   7.734   6.117
  272TIP3    H1  759   4.665   7.718   6.162
  272TIP3    H2  760   4.764   7.653   6.068
  273TIP3   OH2  761   0.630   0.318   4.297
  273TIP3    H1  762   0.705   0.287   4.348
  273TIP3    H2  763   0.629   0.263   4.219
  274TIP3   OH2  764   1.354   6.159   6.518
  274TIP3    H1  765   1.421   6.101   6.481
  274TIP3    H2  766   1.383   6.247   6.493
  275TIP3   OH2  767   0.110   0.900   0.039
  275TIP3    H1  768   0.112   0.877   0.132
  275TIP3    H2  769   0.055   0.833  -0.001
  276TIP3   OH2  770   1.310   5.404   2.283
  276TIP3    H1  771   1.310   5.372   2.374
  276TIP3    H2  772   1.371   5.345   2.238
  277TIP3   OH2  773   1.866   7.251   6.555
  277TIP3    H1  774   1.918   7.185   6.509
  277TIP3    H2  775   1.926   7.326   6.565
  278TIP3   OH2  776   7.480   5.533   0.762
  278TIP3    H1  777   7.394   5.575   0.758
  278TIP3    H2  778   7.532   5.577   0.694
  279TIP3   OH2  779   1.863   4.555   5.627
  279TIP3    H1  780   1.799   4.619   5.594
  279TIP3    H2  781   1.915   4.603   5.691
  280TIP3   OH2  782   2.946   0.212   3.544
  280TIP3    H1  783   3.038   0.224   3.569
  280TIP3    H2  784   2.947   0.139   3.482
  281TIP3   OH2  785   7.384   1.476   4.297
  281TIP3    H1  786   7.415   1.561   4.265
  281TIP3    H2  787   7.396   1.416   4.223
  282TIP3   OH2  788   1.284   2.558   6.710
  282TIP3    H1  789   1.288   2.467   6.679
  282TIP3    H2  790   1.362   2.599   6.671
  283TIP3   OH2  791   5.761   4.707   4.777
  283TIP3    H1  792   5.787   4.796   4.752
  283TIP3    H2  793   5.762   4.708   4.873
  284TIP3   OH2  794   7.681   3.767   3.509
  284TIP3    H1  795   7.697   3.767   3.414
  284TIP3    H2  796   7.665   3.675   3.530
  285TIP3   OH2  797   6.486   4.653   6.667
  285TIP3    H1  798   6.490   4.716   6.739
  285TIP3    H2  799   6.552   4.587   6.689
  286TIP3   OH2  800   1.397   3.367   4.651
  286TIP3    H1  801   1.463   3.363   4.582
  286TIP3    H2  802   1.445   3.392   4.730
  287TIP3   OH2  803   2.793   6.582   4.878
  287TIP3    H1  804   2.875   6.543   4.907
  287TIP3    H2  805   2.737   6.508   4.857
  288TIP3   OH2  806   1.120   1.166   4.560
  288TIP3    H1  807   1.055   1.119   4.612
  288TIP3    H2  808   1.157   1.100   4.502
  289TIP3   OH2  809   0.239   1.252   2.489
  289TIP3    H1  810   0.301   1.276   2.421
  289TIP3    H2  811   0.155   1.285   2.457
  290TIP3   OH2  812   7.028   4.145   3.703
  290TIP3    H1  813   6.952   4.164   3.648
  290TIP3    H2  814   7.053   4.056   3.679
  291TIP3   OH2  815   4.776   6.872   1.266
  291TIP3    H1  816   4.802   6.821   1.343
  291TIP3    H2  817   4.857   6.913   1.235
  292TIP3   OH2  818   2.786   0.430   2.963
  292TIP3    H1  819   2.763   0.510   3.010
  292TIP3    H2  820   2.755   0.445   2.873
  293TIP3   OH2  821   1.918   5.481   1.348
  293TIP3    H1  822   1.939   5.575   1.347
  293TIP3    H2  823   1.901   5.459   1.256
  294TIP3   OH2  824   6.288   5.504   5.592
  294TIP3    H1  825   6.353   5.471   5.529
  294TIP3    H2  826   6.205   5.466   5.563
  295TIP3   OH2  827   2.185   4.545   3.006
  295TIP3    H1  828   2.107   4.544   2.950
  295TIP3    H2  829   2.179   4.465   3.058
  296TIP3   OH2  830   1.349   5.115   4.484
  296TIP3    H1  831   1.392   5.146   4.564
  296TIP3    H2  832   1.405   5.147   4.413
  297TIP3   OH2  833   3.527   0.038   1.478
  297TIP3    H1  834   3.457   0.003   1.422
  297TIP3    H2  835   3.506   0.005   1.565
  298TIP3   OH2  836   6.888   6.551   5.676
  298TIP3    H1  837   6.818   6.572   5.737
  298TIP3    H2  838   6.948   6.494   5.725
  299TIP3   OH2  839   3.606   2.805   4.578
  299TIP3    H1  840   3.653   2.887   4.595
  299TIP3    H2  841   3.591   2.767   4.664
  300TIP3   OH2  842   1.192   3.008   1.253
  300TIP3    H1  843   1.158   2.919   1.243
  300TIP3    H2  844   1.283   2.996   1.280
  301TIP3   OH2  845   0.370   2.464   3.585
  301TIP3    H1  846   0.359   2.511   3.668
  301TIP3    H2  847   0.296   2.404   3.582
  302TIP3   OH2  848   1.052   2.715   2.261
  302TIP3    H1  849   1.075   2.743   2.349
  302TIP3    H2  850   1.131   2.672   2.228
  303TIP3   OH2  851   7.416   4.020   3.506
  303TIP3    H1  852   7.385   3.930   3.497
  303TIP3    H2  853   7.450   4.043   3.419
  304TIP3   OH2  854   4.890   4.525   6.234
  304TIP3    H1  855   4.879   4.482   6.149
  304TIP3    H2  856   4.868   4.458   6.298
  305TIP3   OH2  857   2.705   7.062   0.317
  305TIP3    H1  858   2.663   6.984   0.281
  305TIP3    H2  859   2.659   7.136   0.276
  306TIP3   OH2  860   3.006   4.841   0.506
  306TIP3    H1  861   2.977   4.930   0.525
  306TIP3    H2  862   2.942   4.808   0.443
  307TIP3   OH2  863   4.879   1.051   0.528
  307TIP3    H1  864   4.944   1.032   0.596
  307TIP3    H2  865   4.831   1.127   0.559
  308TIP3   OH2  866   6.816   6.855   1.624
  308TIP3    H1  867   6.793   6.818   1.538
  308TIP3    H2  868   6.741   6.909   1.648
  309TIP3   OH2  869   2.377   7.356   5.562
  309TIP3    H1  870   2.467   7.385   5.548
  309TIP3    H2  871   2.369   7.276   5.510
  310TIP3   OH2  872   5.832   1.041   3.794
  310TIP3    H1  873   5.896   1.053   3.865
  310TIP3    H2  874   5.885   1.039   3.714
  311TIP3   OH2  875   1.177   0.355   0.778
  311TIP3    H1  876   1.167   0.261   0.761
  311TIP3    H2  877   1.256   0.361   0.832
  312TIP3   OH2  878   4.186   6.767   4.085
  312TIP3    H1  879   4.145   6.683   4.062
  312TIP3    H2  880   4.157   6.827   4.017
  313TIP3   OH2  881   6.660   7.755   4.013
  313TIP3    H1  882   6.733   7.752   4.074
  313TIP3    H2  883   6.654   7.667   3.977
  314TIP3   OH2  884   1.415   6.556   4.443
  314TIP3    H1  885   1.492   6.538   4.389
  314TIP3    H2  886   1.362   6.615   4.389
  315TIP3   OH2  887   1.613   1.122   4.255
  315TIP3    H1  888   1.627   1.059   4.325
  315TIP3    H2  889   1.518   1.126   4.245
  316TIP3   OH2  890   6.586   7.640   1.307
  316TIP3    H1  891   6.665   7.686   1.335
  316TIP3    H2  892   6.564   7.678   1.223
  317TIP3   OH2  893   2.418   6.521   1.403
  317TIP3    H1  894   2.502   6.561   1.422
  317TIP3    H2  895   2.357   6.595   1.398
  318TIP3   OH2  896   7.447   3.759   1.731
  318TIP3    H1  897   7.393   3.684   1.706
  318TIP3    H2  898   7.389   3.834   1.723
  319TIP3   OH2  899   6.076   2.546   3.794
  319TIP3    H1  900   6.098   2.455   3.774
  319TIP3    H2  901   6.003   2.567   3.736
  320TIP3   OH2  902   5.302   7.428   4.678
  320TIP3    H1  903   5.359   7.480   4.734
  320TIP3    H2  904   5.318   7.338   4.704
  321TIP3   OH2  905   0.182   7.019   5.845
  321TIP3    H1  906   0.266   7.018   5.801
  321TIP3    H2  907   0.168   7.111   5.868
  322TIP3   OH2  908   4.465   1.259   5.544
  322TIP3    H1  909   4.519   1.312   5.485
  322TIP3    H2  910   4.397   1.320   5.575
  323TIP3   OH2  911   7.916   4.581   2.342
  323TIP3    H1  912   7.998   4.619   2.311
  323TIP3    H2  913   7.908   4.610   2.432
  324TIP3   OH2  914   5.666   6.139   4.606
  324TIP3    H1  915   5.731   6.120   4.539
  324TIP3    H2  916   5.624   6.220   4.576
  325TIP3   OH2  917   4.840   5.539   3.612
  325TIP3    H1  918   4.791   5.517   3.692
  325TIP3    H2  919   4.931   5.543   3.641
  326TIP3   OH2  920   0.259   2.996   1.595
  326TIP3    H1  921   0.321   3.056   1.636
  326TIP3    H2  922   0.255   2.921   1.655
  327TIP3   OH2  923   3.355   4.438   6.065
  327TIP3    H1  924   3.370   4.532   6.077
  327TIP3    H2  925   3.356   4.425   5.970
  328TIP3   OH2  926   1.266   2.388   3.148
  328TIP3    H1  927   1.354   2.366   3.119
  328TIP3    H2  928   1.219   2.305   3.150
  329TIP3   OH2  929   0.933   4.901   1.576
  329TIP3    H1  930   0.929   4.836   1.506
  329TIP3    H2  931   0.918   4.850   1.656
  330TIP3   OH2  932   2.487   2.453   4.925
  330TIP3    H1  933   2.439   2.371   4.914
  330TIP3    H2  934   2.472   2.501   4.844
  331TIP3   OH2  935   4.235   2.388   2.081
  331TIP3    H1  936   4.299   2.459   2.077
  331TIP3    H2  937   4.262   2.336   2.157
  332TIP3   OH2  938   7.663   4.838   0.687
  332TIP3    H1  939   7.629   4.922   0.657
  332TIP3    H2  940   7.759   4.849   0.685
  333TIP3   OH2  941   7.610   5.780   2.649
  333TIP3    H1  942   7.607   5.823   2.734
  333TIP3    H2  943   7.518   5.762   2.628
  334TIP3   OH2  944   3.458   2.229   2.509
  334TIP3    H1  945   3.512   2.281   2.449
  334TIP3    H2  946   3.403   2.294   2.554
  335TIP3   OH2  947   6.817   2.200   0.142
  335TIP3    H1  948   6.847   2.110   0.132
  335TIP3    H2  949   6.721   2.194   0.139
  336TIP3   OH2  950   0.486   5.966   5.104
  336TIP3    H1  951   0.459   6.010   5.184
  336TIP3    H2  952   0.406   5.958   5.052
  337TIP3   OH2  953   4.090   4.791   3.731
  337TIP3    H1  954   4.146   4.765   3.658
  337TIP3    H2  955   4.001   4.783   3.698
  338TIP3   OH2  956   6.490   1.758   3.926
  338TIP3    H1  957   6.475   1.850   3.903
  338TIP3    H2  958   6.422   1.710   3.879
  339TIP3   OH2  959   5.117   5.556   3.276
  339TIP3    H1  960   5.043   5.500   3.300
  339TIP3    H2  961   5.142   5.598   3.358
  340TIP3   OH2  962   0.661   0.141   2.890
  340TIP3    H1  963   0.572   0.151   2.858
  340TIP3    H2  964   0.668   0.049   2.915
  341TIP3   OH2  965   3.342   5.142   2.935
  341TIP3    H1  966   3.273   5.176   2.992
  341TIP3    H2  967   3.417   5.129   2.993
  342TIP3   OH2  968   6.165   6.873   1.639
  342TIP3    H1  969   6.237   6.848   1.697
  342TIP3    H2  970   6.127   6.950   1.680
  343TIP3   OH2  971   2.866   3.523   2.585
  343TIP3    H1  972   2.849   3.552   2.495
  343TIP3    H2  973   2.940   3.463   2.577
  344TIP3   OH2  974   3.569   2.904   6.340
  344TIP3    H1  975   3.481   2.883   6.307
  344TIP3    H2  976   3.597   2.978   6.286
  345TIP3   OH2  977   6.832   5.397   6.098
  345TIP3    H1  978   6.797   5.364   6.016
  345TIP3    H2  979   6.919   5.357   6.105
  346TIP3   OH2  980   5.734   1.856   6.664
  346TIP3    H1  981   5.734   1.912   6.586
  346TIP3    H2  982   5.642   1.850   6.689
  347TIP3   OH2  983   7.701   5.130   1.667
  347TIP3    H1  984   7.637   5.074   1.623
  347TIP3    H2  985   7.721   5.083   1.748
  348TIP3   OH2  986   7.520   0.581   0.389
  348TIP3    H1  987   7.426   0.602   0.398
  348TIP3    H2  988   7.561   0.626   0.463
  349TIP3   OH2  989   2.389   3.367   2.707
  349TIP3    H1  990   2.317   3.314   2.740
  349TIP3    H2  991   2.459   3.303   2.688
  350TIP3   OH2  992   8.123   5.772   3.381
  350TIP3    H1  993   8.143   5.679   3.375
  350TIP3    H2  994   8.173   5.802   3.457
  351TIP3   OH2  995   2.651   0.747   0.091
  351TIP3    H1  996   2.706   0.698   0.029
  351TIP3    H2  997   2.632   0.683   0.160
  352TIP3   OH2  998   1.915   0.847   1.069
  352TIP3    H1  999   2.001   0.832   1.108
  352TIP3    H2 1000   1.880   0.923   1.115
  353TIP3   OH2 1001   6.757   4.362   1.248
  353TIP3    H1 1002   6.704   4.283   1.234
  353TIP3    H2 1003   6.694   4.427   1.280
  354TIP3   OH2 1004   3.209   0.754   0.544
  354TIP3    H1 1005   3.217   0.790   0.456
  354TIP3    H2 1006   3.202   0.831   0.601
  355TIP3   OH2 1007   4.014   2.341   1.396
  355TIP3    H1 1008   4.040   2.432   1.412
  355TIP3    H2 1009   3.923   2.346   1.369
  356TIP3   OH2 1010   7.135   1.761   3.167
  356TIP3    H1 1011   7.116   1.767   3.074
  356TIP3    H2 1012   7.227   1.786   3.175
  357TIP3   OH2 1013   4.556   1.362   4.927
  357TIP3    H1 1014   4.574   1.441   4.979
  357TIP3    H2 1015   4.583   1.385   4.838
  358TIP3   OH2 1016   5.647   2.938   6.400
  358TIP3    H1 1017   5.610   3.007   6.455
  358TIP3    H2 1018   5.644   2.975   6.311
  359TIP3   OH2 1019   1.901   3.160   1.636
  359TIP3    H1 1020   1.951   3.158   1.718
  359TIP3    H2 1021   1.809   3.162   1.665
  360TIP3   OH2 1022   7.772   1.463   3.471
  360TIP3    H1 1023   7.687   1.434   3.505
  360TIP3    H2 1024   7.789   1.545   3.517
  361TIP3   OH2 1025   2.836   6.843   1.656
  361TIP3    H1 1026   2.889   6.850   1.577
  361TIP3    H2 1027   2.894   6.802   1.720
  362TIP3   OH2 1028   1.082   1.821   1.095
  362TIP3    H1 1029   1.066   1.737   1.053
  362TIP3    H2 1030   1.101   1.799   1.186
  363TIP3   OH2 1031   1.593   5.155   2.399
  363TIP3    H1 1032   1.594   5.243   2.362
  363TIP3    H2 1033   1.500   5.135   2.411
  364TIP3   OH2 1034   7.199   3.683   5.250
  364TIP3    H1 1035   7.251   3.733   5.313
  364TIP3    H2 1036   7.264   3.646   5.190
  365TIP3   OH2 1037   1.411   3.761   1.443
  365TIP3    H1 1038   1.321   3.730   1.457
  365TIP3    H2 1039   1.403   3.824   1.371
  366TIP3   OH2 1040   3.851   7.041   3.111
  366TIP3    H1 1041   3.786   7.096   3.067
  366TIP3    H2 1042   3.808   6.956   3.120
  367TIP3   OH2 1043   7.797   7.046   2.235
  367TIP3    H1 1044   7.784   6.994   2.156
  367TIP3    H2 1045   7.764   6.991   2.306
  368TIP3   OH2 1046   5.872   2.288   2.004
  368TIP3    H1 1047   5.885   2.258   1.914
  368TIP3    H2 1048   5.917   2.372   2.008
  369TIP3   OH2 1049   6.226   3.287   5.425
  369TIP3    H1 1050   6.148   3.334   5.453
  369TIP3    H2 1051   6.255   3.240   5.504
  370TIP3   OH2 1052   0.155   1.281   1.405
  370TIP3    H1 1053   0.201   1.334   1.470
  370TIP3    H2 1054   0.077   1.332   1.383
  371TIP3   OH2 1055   3.738   7.776   0.835
  371TIP3    H1 1056   3.680   7.850   0.851
  371TIP3    H2 1057   3.806   7.784   0.902
  372TIP3   OH2 1058   0.908   1.250   4.176
  372TIP3    H1 1059   0.937   1.182   4.116
  372TIP3    H2 1060   0.833   1.210   4.222
  373TIP3   OH2 1061   4.957   3.649   3.934
  373TIP3    H1 1062   4.862   3.651   3.921
  373TIP3    H2 1063   4.993   3.692   3.857
  374TIP3   OH2 1064   5.428   3.718   5.204
  374TIP3    H1 1065   5.496   3.706   5.137
  374TIP3    H2 1066   5.411   3.812   5.203
  375TIP3   OH2 1067   6.212   2.144   5.411
  375TIP3    H1 1068   6.203   2.164   5.504
  375TIP3    H2 1069   6.256   2.060   5.409
  376TIP3   OH2 1070   6.215   0.761   0.119
  376TIP3    H1 1071   6.205   0.670   0.147
  376TIP3    H2 1072   6.272   0.756   0.042
  377TIP3   OH2 1073   8.074   0.802   3.003
  377TIP3    H1 1074   8.161   0.840   3.009
  377TIP3    H2 1075   8.046   0.792   3.094
  378TIP3   OH2 1076   4.087   4.895   0.207
  378TIP3    H1 1077   4.155   4.829   0.196
  378TIP3    H2 1078   4.005   4.847   0.197
  379TIP3   OH2 1079   2.326   6.384   6.445
  379TIP3    H1 1080   2.329   6.389   6.540
  379TIP3    H2 1081   2.360   6.469   6.415
  380TIP3   OH2 1082   1.724   5.855   5.356
  380TIP3    H1 1083   1.780   5.785   5.322
  380TIP3    H2 1084   1.638   5.813   5.367
  381TIP3   OH2 1085   8.094   1.264   1.370
  381TIP3    H1 1086   8.016   1.212   1.353
  381TIP3    H2 1087   8.115   1.246   1.462
  382TIP3   OH2 1088   3.177   4.793   0.941
  382TIP3    H1 1089   3.106   4.856   0.930
  382TIP3    H2 1090   3.218   4.818   1.024
  383TIP3   OH2 1091   0.812   0.739   3.196
  383TIP3    H1 1092   0.856   0.654   3.183
  383TIP3    H2 1093   0.721   0.716   3.216
  384TIP3   OH2 1094   0.927   4.552   4.257
  384TIP3    H1 1095   0.924   4.458   4.238
  384TIP3    H2 1096   0.889   4.560   4.344
  385TIP3   OH2 1097   1.296   5.160   2.126
  385TIP3    H1 1098   1.254   5.225   2.069
  385TIP3    H2 1099   1.384   5.194   2.139
  386TIP3   OH2 1100   7.447   0.229   5.827
  386TIP3    H1 1101   7.364   0.181   5.823
  386TIP3    H2 1102   7.458   0.265   5.739
  387TIP3   OH2 1103   6.457   6.591   5.446
  387TIP3    H1 1104   6.512   6.516   5.424
  387TIP3    H2 1105   6.475   6.608   5.539
  388TIP3   OH2 1106   1.954   7.161   2.255
  388TIP3    H1 1107   1.982   7.069   2.254
  388TIP3    H2 1108   1.931   7.180   2.164
  389TIP3   OH2 1109   1.235   2.340   5.945
  389TIP3    H1 1110   1.313   2.346   6.001
  389TIP3    H2 1111   1.162   2.360   6.004
  390TIP3   OH2 1112   7.013   7.539   3.887
  390TIP3    H1 1113   7.049   7.493   3.812
  390TIP3    H2 1114   6.931   7.576   3.855
  391TIP3   OH2 1115   2.190   6.010   1.154
  391TIP3    H1 1116   2.202   5.930   1.103
  391TIP3    H2 1117   2.095   6.018   1.164
  392TIP3   OH2 1118   0.588   6.258   0.234
  392TIP3    H1 1119   0.526   6.325   0.260
  392TIP3    H2 1120   0.658   6.305   0.191
  393TIP3   OH2 1121   7.600   7.183   3.288
  393TIP3    H1 1122   7.650   7.102   3.279
  393TIP3    H2 1123   7.645   7.245   3.231
  394TIP3   OH2 1124   4.866   4.530   0.029
  394TIP3    H1 1125   4.889   4.437   0.033
  394TIP3    H2 1126   4.868   4.551  -0.064
  395TIP3   OH2 1127   5.418   4.956   4.567
  395TIP3    H1 1128   5.431   4.951   4.472
  395TIP3    H2 1129   5.470   5.032   4.594
  396TIP3   OH2 1130   7.684   4.483   5.911
  396TIP3    H1 1131   7.642   4.516   5.990
  396TIP3    H2 1132   7.630   4.409   5.883
  397TIP3   OH2 1133   8.301   7.582   3.400
  397TIP3    H1 1134   8.263   7.663   3.432
  397TIP3    H2 1135   8.267   7.573   3.311
  398TIP3   OH2 1136   3.762   6.791   3.178
  398TIP3    H1 1137   3.819   6.836   3.241
  398TIP3    H2 1138   3.708   6.734   3.232
  399TIP3   OH2 1139   1.523   1.508   2.366
  399TIP3    H1 1140   1.569   1.483   2.446
  399TIP3    H2 1141   1.581   1.573   2.325
  400TIP3   OH2 1142   5.744   6.875   0.531
  400TIP3    H1 1143   5.704   6.852   0.615
  400TIP3    H2 1144   5.836   6.851   0.540
  401TIP3   OH2 1145   1.569   2.151   4.086
  401TIP3    H1 1146   1.507   2.081   4.067
  401TIP3    H2 1147   1.575   2.152   4.182
  402TIP3   OH2 1148   4.791   3.918   1.322
  402TIP3    H1 1149   4.876   3.959   1.305
  402TIP3    H2 1150   4.812   3.834   1.363
  403TIP3   OH2 1151   0.451   5.925   1.660
  403TIP3    H1 1152   0.433   5.928   1.754
  403TIP3    H2 1153   0.449   5.832   1.638
  404TIP3   OH2 1154   1.039   5.736   3.310
  404TIP3    H1 1155   1.113   5.767   3.258
  404TIP3    H2 1156   1.033   5.643   3.291
  405TIP3   OH2 1157   1.769   1.934   6.009
  405TIP3    H1 1158   1.750   1.882   6.087
  405TIP3    H2 1159   1.846   1.985   6.032
  406TIP3   OH2 1160   1.916   5.577   6.839
  406TIP3    H1 1161   1.853   5.639   6.803
  406TIP3    H2 1162   1.926   5.510   6.772
  407TIP3   OH2 1163   4.100   0.080   4.812
  407TIP3    H1 1164   4.057   0.166   4.820
  407TIP3    H2 1165   4.151   0.072   4.893
  408TIP3   OH2 1166   0.633   4.935   1.729
  408TIP3    H1 1167   0.601   4.874   1.663
  408TIP3    H2 1168   0.554   4.975   1.766
  409TIP3   OH2 1169   2.686   2.011   4.819
  409TIP3    H1 1170   2.662   2.090   4.867
  409TIP3    H2 1171   2.770   2.033   4.777
  410TIP3   OH2 1172   6.063   3.737   5.417
  410TIP3    H1 1173   6.049   3.768   5.507
  410TIP3    H2 1174   6.153   3.707   5.416
  411TIP3   OH2 1175   4.830   1.187   6.286
  411TIP3    H1 1176   4.837   1.216   6.195
  411TIP3    H2 1177   4.771   1.112   6.282
  412TIP3   OH2 1178   0.847   1.449   6.073
  412TIP3    H1 1179   0.875   1.372   6.023
  412TIP3    H2 1180   0.877   1.524   6.021
  413TIP3   OH2 1181   0.862   3.227   2.674
  413TIP3    H1 1182   0.906   3.146   2.649
  413TIP3    H2 1183   0.786   3.232   2.617
  414TIP3   OH2 1184   5.227   1.088   5.909
  414TIP3    H1 1185   5.314   1.111   5.878
  414TIP3    H2 1186   5.224   0.992   5.905
  415TIP3   OH2 1187   4.572   6.517   1.371
  415TIP3    H1 1188   4.507   6.494   1.438
  415TIP3    H2 1189   4.543   6.470   1.293
  416TIP3   OH2 1190   1.823   4.341   0.656
  416TIP3    H1 1191   1.882   4.335   0.580
  416TIP3    H2 1192   1.822   4.253   0.693
  417TIP3   OH2 1193   4.373   4.852   1.252
  417TIP3    H1 1194   4.351   4.762   1.227
  417TIP3    H2 1195   4.453   4.871   1.203
  418TIP3   OH2 1196   2.729   3.949   4.453
  418TIP3    H1 1197   2.688   4.033   4.432
  418TIP3    H2 1198   2.822   3.968   4.457
  419TIP3   OH2 1199   0.123   6.384   5.107
  419TIP3    H1 1200   0.074   6.367   5.187
  419TIP3    H2 1201   0.209   6.413   5.137
  420TIP3   OH2 1202   5.629   1.878   3.196
  420TIP3    H1 1203   5.706   1.843   3.152
  420TIP3    H2 1204   5.558   1.818   3.172
  421TIP3   OH2 1205   4.226   2.470   0.938
  421TIP3    H1 1206   4.211   2.537   0.871
  421TIP3    H2 1207   4.224   2.517   1.021
  422TIP3   OH2 1208   3.287   3.047   3.182
  422TIP3    H1 1209   3.287   3.026   3.088
  422TIP3    H2 1210   3.375   3.079   3.200
  423TIP3   OH2 1211   4.791   5.486   5.937
  423TIP3    H1 1212   4.818   5.561   5.990
  423TIP3    H2 1213   4.871   5.437   5.922
  424TIP3   OH2 1214   0.373   2.595   5.103
  424TIP3    H1 1215   0.308   2.525   5.105
  424TIP3    H2 1216   0.355   2.643   5.022
  425TIP3   OH2 1217   2.555   6.712   4.278
  425TIP3    H1 1218   2.511   6.760   4.349
  425TIP3    H2 1219   2.508   6.739   4.199
  426TIP3   OH2 1220   4.043   0.098   6.382
  426TIP3    H1 1221   4.050   0.192   6.365
  426TIP3    H2 1222   3.948   0.081   6.384
  427TIP3   OH2 1223   2.641   3.287   4.526
  427TIP3    H1 1224   2.587   3.365   4.535
  427TIP3    H2 1225   2.728   3.315   4.553
  428TIP3   OH2 1226   2.379   2.239   3.010
  428TIP3    H1 1227   2.419   2.156   3.038
  428TIP3    H2 1228   2.443   2.306   3.033
  429TIP3   OH2 1229   7.935   1.128   3.760
  429TIP3    H1 1230   7.985   1.156   3.837
  429TIP3    H2 1231   7.844   1.139   3.787
  430TIP3   OH2 1232   5.006   2.386   3.569
  430TIP3    H1 1233   5.032   2.302   3.531
  430TIP3    H2 1234   4.912   2.392   3.551
  431TIP3   OH2 1235   4.489   0.860   0.294
  431TIP3    H1 1236   4.540   0.819   0.224
  431TIP3    H2 1237   4.465   0.788   0.352
  432TIP3   OH2 1238   0.990   6.840   3.690
  432TIP3    H1 1239   0.942   6.888   3.622
  432TIP3    H2 1240   1.068   6.808   3.646
  433TIP3   OH2 1241   1.962   1.411   5.387
  433TIP3    H1 1242   2.021   1.484   5.410
  433TIP3    H2 1243   1.893   1.452   5.336
  434TIP3   OH2 1244   5.905   4.106   4.071
  434TIP3    H1 1245   5.860   4.023   4.087
  434TIP3    H2 1246   5.940   4.098   3.982
  435TIP3   OH2 1247   6.023   5.020   4.245
  435TIP3    H1 1248   5.934   5.035   4.214
  435TIP3    H2 1249   6.070   5.101   4.224
  436TIP3   OH2 1250   7.161   5.746   3.735
  436TIP3    H1 1251   7.203   5.660   3.728
  436TIP3    H2 1252   7.090   5.743   3.670
  437TIP3   OH2 1253   1.182   4.675   1.479
  437TIP3    H1 1254   1.193   4.607   1.545
  437TIP3    H2 1255   1.230   4.751   1.514
  438TIP3   OH2 1256   4.011   7.327   0.695
  438TIP3    H1 1257   4.087   7.342   0.639
  438TIP3    H2 1258   3.935   7.340   0.637
  439TIP3   OH2 1259   1.720   6.725   5.840
  439TIP3    H1 1260   1.637   6.772   5.832
  439TIP3    H2 1261   1.699   6.634   5.817
  440TIP3   OH2 1262   4.835   0.489   0.234
  440TIP3    H1 1263   4.868   0.444   0.312
  440TIP3    H2 1264   4.875   0.442   0.161
  441TIP3   OH2 1265   1.805   0.575   1.139
  441TIP3    H1 1266   1.819   0.584   1.234
  441TIP3    H2 1267   1.835   0.658   1.102
  442TIP3   OH2 1268   2.872   6.489   1.231
  442TIP3    H1 1269   2.778   6.476   1.243
  442TIP3    H2 1270   2.887   6.475   1.137
  443TIP3   OH2 1271   2.954   1.049   2.060
  443TIP3    H1 1272   2.871   1.006   2.078
  443TIP3    H2 1273   2.953   1.128   2.115
  444TIP3   OH2 1274   2.758   6.682   2.490
  444TIP3    H1 1275   2.696   6.722   2.551
  444TIP3    H2 1276   2.711   6.680   2.406
  445TIP3   OH2 1277   7.372   6.701   3.666
  445TIP3    H1 1278   7.382   6.744   3.751
  445TIP3    H2 1279   7.342   6.613   3.686
  446TIP3   OH2 1280   2.445   0.593   6.625
  446TIP3    H1 1281   2.435   0.629   6.713
  446TIP3    H2 1282   2.390   0.649   6.569
  447TIP3   OH2 1283   8.165   6.799   4.935
  447TIP3    H1 1284   8.192   6.732   4.998
  447TIP3    H2 1285   8.153   6.878   4.987
  448TIP3   OH2 1286   1.897   4.988   4.731
  448TIP3    H1 1287   1.966   4.930   4.700
  448TIP3    H2 1288   1.856   4.940   4.803
  449TIP3   OH2 1289   5.880   7.195   4.210
  449TIP3    H1 1290   5.894   7.235   4.125
  449TIP3    H2 1291   5.838   7.263   4.263
  450TIP3   OH2 1292   5.906   3.542   2.939
  450TIP3    H1 1293   5.960   3.571   3.012
  450TIP3    H2 1294   5.913   3.446   2.940
  451TIP3   OH2 1295   6.909   1.861   1.983
  451TIP3    H1 1296   7.003   1.879   1.986
  451TIP3    H2 1297   6.875   1.924   1.919
  452TIP3   OH2 1298   3.265   4.304   2.240
  452TIP3    H1 1299   3.275   4.256   2.158
  452TIP3    H2 1300   3.303   4.247   2.307
  453TIP3   OH2 1301   8.033   7.071   6.711
  453TIP3    H1 1302   8.017   7.142   6.773
  453TIP3    H2 1303   8.078   7.004   6.763
  454TIP3   OH2 1304   3.343   1.136   3.803
  454TIP3    H1 1305   3.282   1.210   3.804
  454TIP3    H2 1306   3.429   1.176   3.814
  455TIP3   OH2 1307   2.520   2.418   2.479
  455TIP3    H1 1308   2.542   2.343   2.533
  455TIP3    H2 1309   2.602   2.467   2.471
  456TIP3   OH2 1310   4.285   3.931   4.490
  456TIP3    H1 1311   4.236   3.922   4.408
  456TIP3    H2 1312   4.233   3.994   4.541
  457TIP3   OH2 1313   3.475   0.848   0.865
  457TIP3    H1 1314   3.436   0.838   0.778
  457TIP3    H2 1315   3.524   0.766   0.878
  458TIP3   OH2 1316   4.244   0.243   5.151
  458TIP3    H1 1317   4.148   0.236   5.146
  458TIP3    H2 1318   4.268   0.300   5.078
  459TIP3   OH2 1319   2.677   6.581   1.006
  459TIP3    H1 1320   2.690   6.507   1.065
  459TIP3    H2 1321   2.593   6.618   1.032
  460TIP3   OH2 1322   5.470   6.292   5.928
  460TIP3    H1 1323   5.399   6.355   5.941
  460TIP3    H2 1324   5.472   6.241   6.008
  461TIP3   OH2 1325   1.678   0.072   4.822
  461TIP3    H1 1326   1.625   0.138   4.777
  461TIP3    H2 1327   1.628  -0.010   4.812
  462TIP3   OH2 1328   0.608   1.688   6.206
  462TIP3    H1 1329   0.576   1.774   6.235
  462TIP3    H2 1330   0.567   1.675   6.121
  463TIP3   OH2 1331   6.065   3.661   4.500
  463TIP3    H1 1332   5.980   3.619   4.481
  463TIP3    H2 1333   6.102   3.679   4.413
  464TIP3   OH2 1334   6.311   7.011   2.718
  464TIP3    H1 1335   6.290   6.918   2.704
  464TIP3    H2 1336   6.289   7.052   2.634
  465TIP3   OH2 1337   2.893   0.609   2.344
  465TIP3    H1 1338   2.824   0.560   2.389
  465TIP3    H2 1339   2.915   0.680   2.405
  466TIP3   OH2 1340   7.064   2.941   5.728
  466TIP3    H1 1341   6.989   2.972   5.778
  466TIP3    H2 1342   7.027   2.905   5.648
  467TIP3   OH2 1343   2.709   2.831   6.497
  467TIP3    H1 1344   2.793   2.823   6.452
  467TIP3    H2 1345   2.665   2.903   6.453
  468TIP3   OH2 1346   7.511   6.890   2.467
  468TIP3    H1 1347   7.466   6.848   2.541
  468TIP3    H2 1348   7.585   6.937   2.507
  469TIP3   OH2 1349   2.334   4.872   4.900
  469TIP3    H1 1350   2.322   4.858   4.806
  469TIP3    H2 1351   2.366   4.961   4.907
  470TIP3   OH2 1352   2.622   1.290   3.653
  470TIP3    H1 1353   2.576   1.293   3.569
  470TIP3    H2 1354   2.714   1.301   3.630
  471TIP3   OH2 1355   3.836   6.078   0.810
  471TIP3    H1 1356   3.838   6.062   0.905
  471TIP3    H2 1357   3.898   6.014   0.774
  472TIP3   OH2 1358   2.891   3.424   1.577
  472TIP3    H1 1359   2.985   3.423   1.556
  472TIP3    H2 1360   2.874   3.336   1.611
  473TIP3   OH2 1361   4.102   1.841   5.366
  473TIP3    H1 1362   4.031   1.787   5.330
  473TIP3    H2 1363   4.058   1.899   5.428
  474TIP3   OH2 1364   7.905   4.508   1.796
  474TIP3    H1 1365   7.999   4.522   1.784
  474TIP3    H2 1366   7.885   4.550   1.880
  475TIP3   OH2 1367   7.915   0.743   2.804
  475TIP3    H1 1368   7.960   0.764   2.886
  475TIP3    H2 1369   7.986   0.730   2.741
  476TIP3   OH2 1370   2.916   0.136   1.443
  476TIP3    H1 1371   2.900   0.041   1.441
  476TIP3    H2 1372   2.943   0.157   1.353
  477TIP3   OH2 1373   3.701   6.704   5.201
  477TIP3    H1 1374   3.756   6.643   5.151
  477TIP3    H2 1375   3.719   6.790   5.162
  478TIP3   OH2 1376   1.278   4.918   3.327
  478TIP3    H1 1377   1.243   5.002   3.356
  478TIP3    H2 1378   1.209   4.854   3.347
  479TIP3   OH2 1379   2.892   7.831   1.357
  479TIP3    H1 1380   2.955   7.795   1.295
  479TIP3    H2 1381   2.908   7.781   1.438
  480TIP3   OH2 1382   6.083   2.809   2.665
  480TIP3    H1 1383   6.011   2.861   2.628
  480TIP3    H2 1384   6.139   2.789   2.589
  481TIP3   OH2 1385   3.320   3.703   4.885
  481TIP3    H1 1386   3.238   3.721   4.931
  481TIP3    H2 1387   3.294   3.648   4.811
  482TIP3   OH2 1388   4.582   4.773   1.985
  482TIP3    H1 1389   4.499   4.820   1.990
  482TIP3    H2 1390   4.568   4.695   2.038
  483TIP3   OH2 1391   2.844   3.235   5.035
  483TIP3    H1 1392   2.845   3.288   5.115
  483TIP3    H2 1393   2.764   3.262   4.990
  484TIP3   OH2 1394   4.170   1.128   5.886
  484TIP3    H1 1395   4.135   1.046   5.920
  484TIP3    H2 1396   4.237   1.102   5.823
  485TIP3   OH2 1397   3.090   5.670   2.465
  485TIP3    H1 1398   3.170   5.622   2.490
  485TIP3    H2 1399   3.039   5.605   2.416
  486TIP3   OH2 1400   2.709   5.038   5.147
  486TIP3    H1 1401   2.622   5.007   5.171
  486TIP3    H2 1402   2.753   4.961   5.113
  487TIP3   OH2 1403   2.227   3.807   1.858
  487TIP3    H1 1404   2.237   3.712   1.869
  487TIP3    H2 1405   2.169   3.833   1.930
  488TIP3   OH2 1406   6.239   5.475   1.973
  488TIP3    H1 1407   6.144   5.464   1.979
  488TIP3    H2 1408   6.253   5.569   1.988
  489TIP3   OH2 1409   0.899   5.178   3.559
  489TIP3    H1 1410   0.830   5.126   3.600
  489TIP3    H2 1411   0.915   5.249   3.621
  490TIP3   OH2 1412   6.493   7.152   2.110
  490TIP3    H1 1413   6.458   7.175   2.197
  490TIP3    H2 1414   6.444   7.207   2.049
  491TIP3   OH2 1415   6.575   3.837   1.923
  491TIP3    H1 1416   6.521   3.916   1.929
  491TIP3    H2 1417   6.533   3.775   1.981
  492TIP3   OH2 1418   7.296   3.251   6.352
  492TIP3    H1 1419   7.358   3.211   6.413
  492TIP3    H2 1420   7.214   3.203   6.366
  493TIP3   OH2 1421   3.312   6.916   0.518
  493TIP3    H1 1422   3.239   6.870   0.476
  493TIP3    H2 1423   3.339   6.982   0.454
  494TIP3   OH2 1424   8.143   5.891   5.414
  494TIP3    H1 1425   8.160   5.922   5.503
  494TIP3    H2 1426   8.228   5.897   5.370
  495TIP3   OH2 1427   2.607   5.549   1.545
  495TIP3    H1 1428   2.514   5.538   1.565
  495TIP3    H2 1429   2.653   5.514   1.621
  496TIP3   OH2 1430   0.964   2.274   5.069
  496TIP3    H1 1431   0.924   2.359   5.090
  496TIP3    H2 1432   1.028   2.294   5.001
  497TIP3   OH2 1433   4.455   1.132   6.703
  497TIP3    H1 1434   4.511   1.181   6.763
  497TIP3    H2 1435   4.396   1.198   6.666
  498TIP3   OH2 1436   7.346   4.632   1.539
  498TIP3    H1 1437   7.392   4.630   1.455
  498TIP3    H2 1438   7.394   4.697   1.591
  499TIP3   OH2 1439   0.648   6.436   0.791
  499TIP3    H1 1440   0.592   6.391   0.854
  499TIP3    H2 1441   0.724   6.464   0.841
  500TIP3   OH2 1442   4.322   7.565   1.080
  500TIP3    H1 1443   4.321   7.605   1.167
  500TIP3    H2 1444   4.232   7.575   1.048
  501TIP3   OH2 1445   7.461   3.607   1.485
  501TIP3    H1 1446   7.396   3.580   1.550
  501TIP3    H2 1447   7.444   3.551   1.409
  502TIP3   OH2 1448   4.610   2.380   6.550
  502TIP3    H1 1449   4.617   2.475   6.561
  502TIP3    H2 1450   4.544   2.368   6.482
  503TIP3   OH2 1451   2.095   2.770   6.026
  503TIP3    H1 1452   2.088   2.846   5.967
  503TIP3    H2 1453   2.027   2.784   6.091
  504TIP3   OH2 1454   6.431   2.224   6.550
  504TIP3    H1 1455   6.518   2.234   6.587
  504TIP3    H2 1456   6.385   2.304   6.575
  505TIP3   OH2 1457   7.983   0.831   4.568
  505TIP3    H1 1458   7.943   0.885   4.636
  505TIP3    H2 1459   8.005   0.749   4.611
  506TIP3   OH2 1460   0.431   1.439   4.778
  506TIP3    H1 1461   0.466   1.357   4.813
  506TIP3    H2 1462   0.491   1.464   4.709
  507TIP3   OH2 1463   1.730   7.763   3.861
  507TIP3    H1 1464   1.730   7.808   3.776
  507TIP3    H2 1465   1.637   7.751   3.881
  508TIP3   OH2 1466   5.606   1.379   5.345
  508TIP3    H1 1467   5.674   1.442   5.370
  508TIP3    H2 1468   5.529   1.405   5.395
  509TIP3   OH2 1469   1.420   0.447   4.150
  509TIP3    H1 1470   1.385   0.398   4.224
  509TIP3    H2 1471   1.503   0.403   4.130
  510TIP3   OH2 1472   1.847   0.646   4.543
  510TIP3    H1 1473   1.895   0.727   4.560
  510TIP3    H2 1474   1.856   0.633   4.448
  511TIP3   OH2 1475   0.678   0.558   1.847
  511TIP3    H1 1476   0.665   0.649   1.820
  511TIP3    H2 1477   0.615   0.509   1.794
  512TIP3   OH2 1478   3.986   2.224   0.393
  512TIP3    H1 1479   3.961   2.193   0.307
  512TIP3    H2 1480   3.967   2.151   0.452
  513TIP3   OH2 1481   6.387   5.953   4.146
  513TIP3    H1 1482   6.470   5.969   4.101
  513TIP3    H2 1483   6.334   6.030   4.126
  514TIP3   OH2 1484   4.405   3.051   5.726
  514TIP3    H1 1485   4.460   3.021   5.799
  514TIP3    H2 1486   4.350   2.975   5.705
  515TIP3   OH2 1487   0.163   0.332   2.281
  515TIP3    H1 1488   0.211   0.250   2.273
  515TIP3    H2 1489   0.085   0.319   2.227
  516TIP3   OH2 1490   2.344   7.149   3.259
  516TIP3    H1 1491   2.368   7.154   3.166
  516TIP3    H2 1492   2.327   7.056   3.274
  517TIP3   OH2 1493   3.817   4.445   3.754
  517TIP3    H1 1494   3.897   4.403   3.721
  517TIP3    H2 1495   3.847   4.527   3.792
  518TIP3   OH2 1496   5.480   0.822   3.920
  518TIP3    H1 1497   5.411   0.837   3.856
  518TIP3    H2 1498   5.559   0.808   3.867
  519TIP3   OH2 1499   0.373   2.900   1.321
  519TIP3    H1 1500   0.306   2.845   1.362
  519TIP3    H2 1501   0.448   2.895   1.380
  520TIP3   OH2 1502   4.812   0.000   6.668
  520TIP3    H1 1503   4.824  -0.082   6.715
  520TIP3    H2 1504   4.775  -0.025   6.583
  521TIP3   OH2 1505   1.482   1.785   0.146
  521TIP3    H1 1506   1.472   1.848   0.217
  521TIP3    H2 1507   1.433   1.708   0.175
  522TIP3   OH2 1508   5.063   5.924   2.852
  522TIP3    H1 1509   5.136   5.869   2.882
  522TIP3    H2 1510   5.016   5.868   2.790
  523TIP3   OH2 1511   0.667   7.668   3.030
  523TIP3    H1 1512   0.654   7.598   3.094
  523TIP3    H2 1513   0.672   7.748   3.083
  524TIP3   OH2 1514   5.177   4.764   2.270
  524TIP3    H1 1515   5.190   4.692   2.332
  524TIP3    H2 1516   5.251   4.822   2.286
  525TIP3   OH2 1517   7.854   6.788   4.666
  525TIP3    H1 1518   7.827   6.741   4.745
  525TIP3    H2 1519   7.902   6.723   4.615
  526TIP3   OH2 1520   6.742   0.665   5.869
  526TIP3    H1 1521   6.783   0.745   5.835
  526TIP3    H2 1522   6.772   0.660   5.960
  527TIP3   OH2 1523   0.075   1.085   4.307
  527TIP3    H1 1524   0.076   1.016   4.374
  527TIP3    H2 1525  -0.017   1.110   4.299
  528TIP3   OH2 1526   2.458   4.321   4.921
  528TIP3    H1 1527   2.525   4.330   4.853
  528TIP3    H2 1528   2.494   4.367   4.996
  529TIP3   OH2 1529   7.768   4.686   4.785
  529TIP3    H1 1530   7.835   4.754   4.795
  529TIP3    H2 1531   7.767   4.641   4.869
  530TIP3   OH2 1532   4.908   5.370   0.043
  530TIP3    H1 1533   4.833   5.312   0.059
  530TIP3    H2 1534   4.975   5.312   0.006
  531TIP3   OH2 1535   5.512   0.995   5.807
  531TIP3    H1 1536   5.588   0.936   5.805
  531TIP3    H2 1537   5.509   1.032   5.718
  532TIP3   OH2 1538   7.647   3.359   3.251
  532TIP3    H1 1539   7.717   3.397   3.304
  532TIP3    H2 1540   7.680   3.361   3.161
  533TIP3   OH2 1541   5.281   4.608   4.537
  533TIP3    H1 1542   5.310   4.599   4.447
  533TIP3    H2 1543   5.292   4.521   4.575
  534TIP3   OH2 1544   5.268   3.068   5.258
  534TIP3    H1 1545   5.316   3.008   5.202
  534TIP3    H2 1546   5.299   3.155   5.234
  535TIP3   OH2 1547   0.411   2.898   2.695
  535TIP3    H1 1548   0.385   2.940   2.613
  535TIP3    H2 1549   0.375   2.809   2.690
  536TIP3   OH2 1550   8.168   4.378   6.096
  536TIP3    H1 1551   8.117   4.303   6.068
  536TIP3    H2 1552   8.155   4.383   6.191
  537TIP3   OH2 1553   4.778   6.095   0.690
  537TIP3    H1 1554   4.749   6.184   0.671
  537TIP3    H2 1555   4.858   6.084   0.638
  538TIP3   OH2 1556   1.663   6.996   4.730
  538TIP3    H1 1557   1.754   6.998   4.700
  538TIP3    H2 1558   1.622   6.929   4.676
  539TIP3   OH2 1559   0.978   3.159   6.738
  539TIP3    H1 1560   0.919   3.099   6.785
  539TIP3    H2 1561   0.920   3.227   6.703
  540TIP3   OH2 1562   1.451   0.832   5.928
  540TIP3    H1 1563   1.357   0.845   5.923
  540TIP3    H2 1564   1.483   0.907   5.979
  541TIP3   OH2 1565   2.109   7.242   1.010
  541TIP3    H1 1566   2.200   7.261   1.032
  541TIP3    H2 1567   2.075   7.324   0.975
  542TIP3   OH2 1568   5.128   7.036   4.299
  542TIP3    H1 1569   5.055   7.033   4.237
  542TIP3    H2 1570   5.206   7.040   4.244
  543TIP3   OH2 1571   4.231   1.820   2.240
  543TIP3    H1 1572   4.206   1.912   2.229
  543TIP3    H2 1573   4.244   1.788   2.150
  544TIP3   OH2 1574   6.631   6.357   5.001
  544TIP3    H1 1575   6.701   6.387   5.059
  544TIP3    H2 1576   6.653   6.266   4.982
  545TIP3   OH2 1577   3.426   5.046   3.685
  545TIP3    H1 1578   3.464   5.106   3.749
  545TIP3    H2 1579   3.359   4.999   3.734
  546TIP3   OH2 1580   7.888   3.615   4.199
  546TIP3    H1 1581   7.859   3.547   4.138
  546TIP3    H2 1582   7.911   3.567   4.279
  547TIP3   OH2 1583   6.767   7.428   1.451
  547TIP3    H1 1584   6.830   7.492   1.482
  547TIP3    H2 1585   6.761   7.444   1.357
  548TIP3   OH2 1586   1.462   1.711   1.639
  548TIP3    H1 1587   1.382   1.703   1.691
  548TIP3    H2 1588   1.530   1.734   1.703
  549TIP3   OH2 1589   1.729   3.251   3.306
  549TIP3    H1 1590   1.667   3.215   3.369
  549TIP3    H2 1591   1.799   3.185   3.301
  550TIP3   OH2 1592   4.465   7.631   4.704
  550TIP3    H1 1593   4.377   7.658   4.675
  550TIP3    H2 1594   4.461   7.637   4.799
  551TIP3   OH2 1595   0.356   4.426   2.065
  551TIP3    H1 1596   0.348   4.471   2.149
  551TIP3    H2 1597   0.419   4.479   2.016
  552TIP3   OH2 1598   1.101   2.810   1.007
  552TIP3    H1 1599   1.099   2.761   1.089
  552TIP3    H2 1600   1.023   2.866   1.010
  553TIP3   OH2 1601   6.979   0.111   1.562
  553TIP3    H1 1602   6.967   0.200   1.594
  553TIP3    H2 1603   7.009   0.062   1.638
  554TIP3   OH2 1604   2.582   4.968   1.512
  554TIP3    H1 1605   2.642   5.004   1.447
  554TIP3    H2 1606   2.495   4.991   1.479
  555TIP3   OH2 1607   2.530   7.778   2.539
  555TIP3    H1 1608   2.584   7.800   2.464
  555TIP3    H2 1609   2.585   7.721   2.593
  556TIP3   OH2 1610   3.061   0.409   0.428
  556TIP3    H1 1611   3.026   0.444   0.510
  556TIP3    H2 1612   2.990   0.421   0.365
  557TIP3   OH2 1613   0.838   5.433   5.763
  557TIP3    H1 1614   0.914   5.483   5.792
  557TIP3    H2 1615   0.816   5.471   5.678
  558TIP3   OH2 1616   6.256   2.994   1.850
  558TIP3    H1 1617   6.232   2.942   1.926
  558TIP3    H2 1618   6.294   2.931   1.788
  559TIP3   OH2 1619   2.618   6.494   6.228
  559TIP3    H1 1620   2.658   6.466   6.310
  559TIP3    H2 1621   2.535   6.535   6.254
  560TIP3   OH2 1622   3.483   0.833   4.682
  560TIP3    H1 1623   3.450   0.751   4.719
  560TIP3    H2 1624   3.405   0.878   4.650
  561TIP3   OH2 1625   1.288   5.014   6.076
  561TIP3    H1 1626   1.242   5.070   6.138
  561TIP3    H2 1627   1.337   5.075   6.020
  562TIP3   OH2 1628   2.263   1.430   3.038
  562TIP3    H1 1629   2.320   1.372   3.088
  562TIP3    H2 1630   2.176   1.392   3.047
  563TIP3   OH2 1631   5.651   2.486   6.637
  563TIP3    H1 1632   5.664   2.396   6.668
  563TIP3    H2 1633   5.598   2.477   6.558
  564TIP3   OH2 1634   6.675   3.561   3.173
  564TIP3    H1 1635   6.656   3.468   3.166
  564TIP3    H2 1636   6.717   3.572   3.258
  565TIP3   OH2 1637   5.329   4.737   1.296
  565TIP3    H1 1638   5.411   4.704   1.259
  565TIP3    H2 1639   5.262   4.677   1.264
  566TIP3   OH2 1640   4.719   4.280   2.090
  566TIP3    H1 1641   4.660   4.223   2.041
  566TIP3    H2 1642   4.748   4.226   2.164
  567TIP3   OH2 1643   0.380   1.725   4.121
  567TIP3    H1 1644   0.413   1.680   4.043
  567TIP3    H2 1645   0.454   1.727   4.181
  568TIP3   OH2 1646   1.493   3.796   0.146
  568TIP3    H1 1647   1.536   3.861   0.201
  568TIP3    H2 1648   1.400   3.817   0.153
  569TIP3   OH2 1649   4.571   0.732   3.299
  569TIP3    H1 1650   4.659   0.724   3.263
  569TIP3    H2 1651   4.521   0.663   3.256
  570TIP3   OH2 1652   7.565   1.254   0.539
  570TIP3    H1 1653   7.609   1.204   0.471
  570TIP3    H2 1654   7.561   1.194   0.614
  571TIP3   OH2 1655   0.065   4.223   3.612
  571TIP3    H1 1656   0.066   4.153   3.548
  571TIP3    H2 1657   0.128   4.195   3.679
  572TIP3   OH2 1658   0.228   1.017   3.547
  572TIP3    H1 1659   0.260   1.105   3.570
  572TIP3    H2 1660   0.271   0.959   3.610
  573TIP3   OH2 1661   5.232   1.269   3.629
  573TIP3    H1 1662   5.219   1.195   3.688
  573TIP3    H2 1663   5.248   1.344   3.687
  574TIP3   OH2 1664   2.595   4.496   2.847
  574TIP3    H1 1665   2.599   4.450   2.763
  574TIP3    H2 1666   2.566   4.429   2.909
  575TIP3   OH2 1667   6.066   1.648   5.713
  575TIP3    H1 1668   6.118   1.728   5.716
  575TIP3    H2 1669   5.977   1.676   5.732
  576TIP3   OH2 1670   3.052   6.375   3.416
  576TIP3    H1 1671   3.090   6.288   3.401
  576TIP3    H2 1672   3.127   6.434   3.414
  577TIP3   OH2 1673   4.256   5.340   6.665
  577TIP3    H1 1674   4.345   5.311   6.684
  577TIP3    H2 1675   4.252   5.344   6.569
  578TIP3   OH2 1676   5.961   7.423   2.190
  578TIP3    H1 1677   5.874   7.423   2.150
  578TIP3    H2 1678   5.946   7.396   2.281
  579TIP3   OH2 1679   2.223   3.069   1.189
  579TIP3    H1 1680   2.305   3.083   1.141
  579TIP3    H2 1681   2.233   2.982   1.229
  580TIP3   OH2 1682   5.586   0.905   1.991
  580TIP3    H1 1683   5.632   0.960   2.055
  580TIP3    H2 1684   5.493   0.925   2.005
  581TIP3   OH2 1685   2.673   2.610   5.318
  581TIP3    H1 1686   2.721   2.537   5.358
  581TIP3    H2 1687   2.734   2.645   5.253
  582TIP3   OH2 1688   0.790   2.997   2.400
  582TIP3    H1 1689   0.725   2.934   2.432
  582TIP3    H2 1690   0.874   2.960   2.424
  583TIP3   OH2 1691   4.402   5.599   4.722
  583TIP3    H1 1692   4.423   5.680   4.676
  583TIP3    H2 1693   4.438   5.530   4.667
  584TIP3   OH2 1694   2.118   1.757   5.311
  584TIP3    H1 1695   2.212   1.769   5.322
  584TIP3    H2 1696   2.093   1.693   5.378
  585TIP3   OH2 1697   2.331   5.716   6.218
  585TIP3    H1 1698   2.305   5.626   6.199
  585TIP3    H2 1699   2.354   5.715   6.311
  586TIP3   OH2 1700   6.513   1.967   2.260
  586TIP3    H1 1701   6.519   1.893   2.200
  586TIP3    H2 1702   6.460   2.032   2.214
  587TIP3   OH2 1703   3.978   5.382   5.820
  587TIP3    H1 1704   3.961   5.474   5.840
  587TIP3    H2 1705   4.009   5.383   5.730
  588TIP3   OH2 1706   7.355   5.026   5.597
  588TIP3    H1 1707   7.443   5.063   5.592
  588TIP3    H2 1708   7.370   4.934   5.622
  589TIP3   OH2 1709   4.080   0.216   0.618
  589TIP3    H1 1710   4.027   0.158   0.673
  589TIP3    H2 1711   4.120   0.278   0.679
  590TIP3   OH2 1712   2.380   0.307   5.571
  590TIP3    H1 1713   2.371   0.399   5.596
  590TIP3    H2 1714   2.443   0.271   5.633
  591TIP3   OH2 1715   8.018   1.547   3.898
  591TIP3    H1 1716   8.089   1.601   3.861
  591TIP3    H2 1717   7.993   1.489   3.826
  592TIP3   OH2 1718   2.602   7.367   0.464
  592TIP3    H1 1719   2.533   7.404   0.410
  592TIP3    H2 1720   2.575   7.276   0.479
  593TIP3   OH2 1721   5.356   1.681   2.315
  593TIP3    H1 1722   5.318   1.691   2.402
  593TIP3    H2 1723   5.282   1.684   2.255
  594TIP3   OH2 1724   2.860   3.492   4.866
  594TIP3    H1 1725   2.800   3.463   4.935
  594TIP3    H2 1726   2.941   3.444   4.883
  595TIP3   OH2 1727   7.559   1.800   1.516
  595TIP3    H1 1728   7.635   1.788   1.459
  595TIP3    H2 1729   7.487   1.817   1.456
  596TIP3   OH2 1730   3.809   1.561   6.412
  596TIP3    H1 1731   3.882   1.565   6.349
  596TIP3    H2 1732   3.731   1.555   6.357
  597TIP3   OH2 1733   1.858   6.780   2.446
  597TIP3    H1 1734   1.783   6.763   2.502
  597TIP3    H2 1735   1.821   6.810   2.363
  598TIP3   OH2 1736   3.886   6.694   6.622
  598TIP3    H1 1737   3.905   6.612   6.576
  598TIP3    H2 1738   3.875   6.668   6.714
  599TIP3   OH2 1739   0.969   4.303   4.740
  599TIP3    H1 1740   0.952   4.393   4.768
  599TIP3    H2 1741   0.908   4.250   4.791
  600TIP3   OH2 1742   3.516   3.850   1.759
  600TIP3    H1 1743   3.608   3.837   1.737
  600TIP3    H2 1744   3.515   3.931   1.811
  601TIP3   OH2 1745   5.726   3.162   4.817
  601TIP3    H1 1746   5.680   3.239   4.783
  601TIP3    H2 1747   5.659   3.112   4.864
  602TIP3   OH2 1748   3.378   2.275   6.488
  602TIP3    H1 1749   3.463   2.317   6.477
  602TIP3    H2 1750   3.388   2.222   6.567
  603TIP3   OH2 1751   6.788   5.949   5.020
  603TIP3    H1 1752   6.845   5.997   4.960
  603TIP3    H2 1753   6.819   5.858   5.015
  604TIP3   OH2 1754   0.765   2.005   2.367
  604TIP3    H1 1755   0.843   2.040   2.411
  604TIP3    H2 1756   0.781   1.911   2.361
  605TIP3   OH2 1757   7.030   6.123   0.386
  605TIP3    H1 1758   7.002   6.057   0.322
  605TIP3    H2 1759   7.123   6.135   0.368
  606TIP3   OH2 1760   1.597   4.876   2.530
  606TIP3    H1 1761   1.522   4.875   2.470
  606TIP3    H2 1762   1.608   4.785   2.555
  607TIP3   OH2 1763   4.815   5.173   3.269
  607TIP3    H1 1764   4.854   5.123   3.197
  607TIP3    H2 1765   4.736   5.123   3.292
  608TIP3   OH2 1766   8.027   7.337   4.944
  608TIP3    H1 1767   7.973   7.396   4.995
  608TIP3    H2 1768   8.115   7.346   4.981
  609TIP3   OH2 1769   2.062   6.417  -0.008
  609TIP3    H1 1770   2.072   6.370  -0.090
  609TIP3    H2 1771   2.120   6.493  -0.015
  610TIP3   OH2 1772   7.254   2.198   6.163
  610TIP3    H1 1773   7.238   2.156   6.247
  610TIP3    H2 1774   7.280   2.127   6.105
  611TIP3   OH2 1775   1.035   7.585   3.679
  611TIP3    H1 1776   1.062   7.543   3.761
  611TIP3    H2 1777   0.984   7.518   3.633
  612TIP3   OH2 1778   2.165   6.560   2.698
  612TIP3    H1 1779   2.099   6.490   2.694
  612TIP3    H2 1780   2.157   6.605   2.614
  613TIP3   OH2 1781   7.263   0.549   4.138
  613TIP3    H1 1782   7.237   0.512   4.222
  613TIP3    H2 1783   7.359   0.552   4.141
  614TIP3   OH2 1784   3.467   3.568   0.510
  614TIP3    H1 1785   3.513   3.588   0.429
  614TIP3    H2 1786   3.439   3.654   0.543
  615TIP3   OH2 1787   1.479   0.453   6.185
  615TIP3    H1 1788   1.433   0.453   6.269
  615TIP3    H2 1789   1.570   0.473   6.207
  616TIP3   OH2 1790   7.793   1.439   5.702
  616TIP3    H1 1791   7.794   1.505   5.771
  616TIP3    H2 1792   7.711   1.456   5.654
  617TIP3   OH2 1793   7.866   0.670   3.541
  617TIP3    H1 1794   7.796   0.694   3.601
  617TIP3    H2 1795   7.941   0.652   3.597
  618TIP3   OH2 1796   5.637   5.204   3.635
  618TIP3    H1 1797   5.610   5.257   3.561
  618TIP3    H2 1798   5.732   5.217   3.640
  619TIP3   OH2 1799   5.833   0.319   0.639
  619TIP3    H1 1800   5.766   0.253   0.620
  619TIP3    H2 1801   5.901   0.270   0.684
  620TIP3   OH2 1802   1.063   3.828   6.038
  620TIP3    H1 1803   1.046   3.747   6.086
  620TIP3    H2 1804   1.021   3.814   5.953
  621TIP3   OH2 1805   4.615   3.383   1.900
  621TIP3    H1 1806   4.672   3.375   1.976
  621TIP3    H2 1807   4.584   3.294   1.884
  622TIP3   OH2 1808   6.898   5.609   5.473
  622TIP3    H1 1809   6.809   5.620   5.506
  622TIP3    H2 1810   6.888   5.553   5.396
  623TIP3   OH2 1811   0.425   3.969   6.126
  623TIP3    H1 1812   0.506   3.933   6.089
  623TIP3    H2 1813   0.455   4.032   6.192
  624TIP3   OH2 1814   6.979   4.057   4.394
  624TIP3    H1 1815   6.920   4.098   4.331
  624TIP3    H2 1816   7.057   4.112   4.393
  625TIP3   OH2 1817   0.196   6.098   1.163
  625TIP3    H1 1818   0.263   6.068   1.225
  625TIP3    H2 1819   0.166   6.018   1.119
  626TIP3   OH2 1820   6.873   1.595   2.001
  626TIP3    H1 1821   6.961   1.579   2.036
  626TIP3    H2 1822   6.870   1.689   1.985
  627TIP3   OH2 1823   2.089   0.975   2.789
  627TIP3    H1 1824   2.039   0.901   2.824
  627TIP3    H2 1825   2.051   0.990   2.703
  628TIP3   OH2 1826   2.323   4.761   6.082
  628TIP3    H1 1827   2.380   4.735   6.155
  628TIP3    H2 1828   2.234   4.749   6.116
  629TIP3   OH2 1829   2.541   3.649   4.946
  629TIP3    H1 1830   2.576   3.738   4.949
  629TIP3    H2 1831   2.544   3.619   5.037
  630TIP3   OH2 1832   2.966   7.213   6.481
  630TIP3    H1 1833   2.995   7.137   6.431
  630TIP3    H2 1834   3.047   7.256   6.509
  631TIP3   OH2 1835   7.614   7.479   6.631
  631TIP3    H1 1836   7.631   7.453   6.722
  631TIP3    H2 1837   7.519   7.489   6.627
  632TIP3   OH2 1838   6.207   4.954   6.693
  632TIP3    H1 1839   6.179   4.916   6.610
  632TIP3    H2 1840   6.182   5.046   6.687
  633TIP3   OH2 1841   1.102   7.141   5.805
  633TIP3    H1 1842   1.137   7.099   5.884
  633TIP3    H2 1843   1.057   7.071   5.759
  634TIP3   OH2 1844   2.114   4.233   1.905
  634TIP3    H1 1845   2.145   4.221   1.815
  634TIP3    H2 1846   2.190   4.268   1.952
  635TIP3   OH2 1847   1.487   4.545   1.804
  635TIP3    H1 1848   1.529   4.514   1.884
  635TIP3    H2 1849   1.501   4.639   1.804
  636TIP3   OH2 1850   4.285   5.368   1.253
  636TIP3    H1 1851   4.267   5.275   1.246
  636TIP3    H2 1852   4.199   5.410   1.246
  637TIP3   OH2 1853   0.433   7.399   3.773
  637TIP3    H1 1854   0.510   7.355   3.739
  637TIP3    H2 1855   0.458   7.491   3.780
  638TIP3   OH2 1856   2.793   3.459   3.233
  638TIP3    H1 1857   2.837   3.436   3.152
  638TIP3    H2 1858   2.724   3.520   3.207
  639TIP3   OH2 1859   6.137   1.938   1.019
  639TIP3    H1 1860   6.068   1.998   0.991
  639TIP3    H2 1861   6.098   1.851   1.012
  640TIP3   OH2 1862   7.735   5.232   6.200
  640TIP3    H1 1863   7.807   5.275   6.248
  640TIP3    H2 1864   7.660   5.290   6.213
  641TIP3   OH2 1865   6.287   7.570   1.877
  641TIP3    H1 1866   6.368   7.525   1.856
  641TIP3    H2 1867   6.233   7.560   1.799
  642TIP3   OH2 1868   4.486   2.640   4.491
  642TIP3    H1 1869   4.512   2.647   4.583
  642TIP3    H2 1870   4.502   2.728   4.455
  643TIP3   OH2 1871   7.114   6.472   4.282
  643TIP3    H1 1872   7.043   6.432   4.231
  643TIP3    H2 1873   7.189   6.469   4.223
  644TIP3   OH2 1874   7.757   6.885   1.999
  644TIP3    H1 1875   7.670   6.895   2.036
  644TIP3    H2 1876   7.750   6.811   1.940
  645TIP3   OH2 1877   0.441   0.099   0.291
  645TIP3    H1 1878   0.448   0.050   0.208
  645TIP3    H2 1879   0.467   0.035   0.358
  646TIP3   OH2 1880   6.056   0.224   2.018
  646TIP3    H1 1881   6.015   0.288   2.075
  646TIP3    H2 1882   6.097   0.161   2.078
  647TIP3   OH2 1883   1.955   7.304   3.528
  647TIP3    H1 1884   2.049   7.291   3.514
  647TIP3    H2 1885   1.915   7.223   3.498
  648TIP3   OH2 1886   0.070   5.007   1.229
  648TIP3    H1 1887   0.121   4.941   1.277
  648TIP3    H2 1888   0.135   5.055   1.179
  649TIP3   OH2 1889   6.252   3.117   4.609
  649TIP3    H1 1890   6.234   3.138   4.701
  649TIP3    H2 1891   6.252   3.201   4.565
  650TIP3   OH2 1892   3.782   4.898   1.880
  650TIP3    H1 1893   3.689   4.919   1.866
  650TIP3    H2 1894   3.782   4.820   1.935
  651TIP3   OH2 1895   0.639   3.148   6.545
  651TIP3    H1 1896   0.627   3.166   6.638
  651TIP3    H2 1897   0.552   3.123   6.514
  652TIP3   OH2 1898   6.031   0.412   3.081
  652TIP3    H1 1899   6.123   0.418   3.106
  652TIP3    H2 1900   5.990   0.363   3.152
  653TIP3   OH2 1901   4.361   4.320   1.845
  653TIP3    H1 1902   4.424   4.359   1.906
  653TIP3    H2 1903   4.383   4.227   1.844
  654TIP3   OH2 1904   4.558   0.899   6.627
  654TIP3    H1 1905   4.506   0.840   6.682
  654TIP3    H2 1906   4.515   0.984   6.635
  655TIP3   OH2 1907   3.154   2.455   4.976
  655TIP3    H1 1908   3.233   2.449   4.922
  655TIP3    H2 1909   3.085   2.415   4.923
  656TIP3   OH2 1910   1.217   4.300   6.401
  656TIP3    H1 1911   1.203   4.290   6.307
  656TIP3    H2 1912   1.281   4.232   6.423
  657TIP3   OH2 1913   3.556   0.372   2.566
  657TIP3    H1 1914   3.483   0.312   2.580
  657TIP3    H2 1915   3.579   0.401   2.654
  658TIP3   OH2 1916   3.697   5.892   3.889
  658TIP3    H1 1917   3.601   5.902   3.893
  658TIP3    H2 1918   3.711   5.812   3.838
  659TIP3   OH2 1919   0.396   6.120   2.606
  659TIP3    H1 1920   0.481   6.163   2.615
  659TIP3    H2 1921   0.333   6.192   2.605
  660TIP3   OH2 1922   6.750   3.227   0.737
  660TIP3    H1 1923   6.794   3.142   0.737
  660TIP3    H2 1924   6.678   3.216   0.676
  661TIP3   OH2 1925   7.728   2.577   0.450
  661TIP3    H1 1926   7.712   2.484   0.432
  661TIP3    H2 1927   7.746   2.615   0.364
  662TIP3   OH2 1928   2.718   4.841   4.875
  662TIP3    H1 1929   2.728   4.884   4.790
  662TIP3    H2 1930   2.790   4.779   4.879
  663TIP3   OH2 1931   0.161   1.288   3.768
  663TIP3    H1 1932   0.224   1.295   3.696
  663TIP3    H2 1933   0.081   1.330   3.734
  664TIP3   OH2 1934   7.505   4.523   1.947
  664TIP3    H1 1935   7.542   4.459   1.886
  664TIP3    H2 1936   7.529   4.491   2.034
  665TIP3   OH2 1937   7.710   2.637   0.160
  665TIP3    H1 1938   7.677   2.680   0.081
  665TIP3    H2 1939   7.788   2.688   0.184
  666TIP3   OH2 1940   7.359   2.338   3.278
  666TIP3    H1 1941   7.378   2.354   3.185
  666TIP3    H2 1942   7.286   2.276   3.277
  667TIP3   OH2 1943   5.723   4.678   0.189
  667TIP3    H1 1944   5.643   4.679   0.243
  667TIP3    H2 1945   5.782   4.618   0.235
  668TIP3   OH2 1946   0.773   4.824   0.563
  668TIP3    H1 1947   0.762   4.751   0.624
  668TIP3    H2 1948   0.827   4.789   0.492
  669TIP3   OH2 1949   5.736   2.898   5.775
  669TIP3    H1 1950   5.763   2.919   5.864
  669TIP3    H2 1951   5.642   2.916   5.773
  670TIP3   OH2 1952   7.020   3.740   1.855
  670TIP3    H1 1953   7.079   3.747   1.930
  670TIP3    H2 1954   7.066   3.784   1.784
  671TIP3   OH2 1955   2.190   4.193   1.414
  671TIP3    H1 1956   2.251   4.265   1.400
  671TIP3    H2 1957   2.246   4.116   1.428
  672TIP3   OH2 1958   2.946   6.606   6.195
  672TIP3    H1 1959   3.003   6.588   6.120
  672TIP3    H2 1960   2.864   6.637   6.156
  673TIP3   OH2 1961   2.721   3.774   5.311
  673TIP3    H1 1962   2.812   3.747   5.324
  673TIP3    H2 1963   2.674   3.692   5.294
  674TIP3   OH2 1964   3.886   5.859   6.015
  674TIP3    H1 1965   3.959   5.894   5.963
  674TIP3    H2 1966   3.820   5.928   6.014
  675TIP3   OH2 1967   0.403   3.884   4.542
  675TIP3    H1 1968   0.313   3.877   4.572
  675TIP3    H2 1969   0.429   3.794   4.522
  676TIP3   OH2 1970   6.359   6.943   5.006
  676TIP3    H1 1971   6.444   6.952   5.050
  676TIP3    H2 1972   6.334   6.852   5.022
  677TIP3   OH2 1973   0.914   3.900   6.789
  677TIP3    H1 1974   0.906   3.805   6.777
  677TIP3    H2 1975   1.004   3.913   6.819
  678TIP3   OH2 1976   0.719   1.278   3.623
  678TIP3    H1 1977   0.769   1.256   3.701
  678TIP3    H2 1978   0.714   1.374   3.624
  679TIP3   OH2 1979   7.919   3.574   0.371
  679TIP3    H1 1980   7.902   3.664   0.400
  679TIP3    H2 1981   8.014   3.565   0.378
  680TIP3   OH2 1982   1.985   7.392   2.877
  680TIP3    H1 1983   1.990   7.296   2.880
  680TIP3    H2 1984   1.921   7.410   2.808
  681TIP3   OH2 1985   2.239   6.920   2.735
  681TIP3    H1 1986   2.165   6.859   2.736
  681TIP3    H2 1987   2.279   6.908   2.649
  682TIP3   OH2 1988   2.706   7.762   2.993
  682TIP3    H1 1989   2.661   7.747   2.909
  682TIP3    H2 1990   2.635   7.772   3.056
  683TIP3   OH2 1991   8.109   1.721  -0.001
  683TIP3    H1 1992   8.187   1.668   0.013
  683TIP3    H2 1993   8.118   1.754  -0.090
  684TIP3   OH2 1994   1.198   0.984   0.610
  684TIP3    H1 1995   1.118   0.991   0.558
  684TIP3    H2 1996   1.244   0.909   0.574
  685TIP3   OH2 1997   1.399   6.216   3.187
  685TIP3    H1 1998   1.345   6.277   3.137
  685TIP3    H2 1999   1.362   6.216   3.275
  686TIP3   OH2 2000   5.989   3.096   4.748
  686TIP3    H1 2001   5.896   3.098   4.768
  686TIP3    H2 2002   5.996   3.039   4.671
  687TIP3   OH2 2003   1.467   3.039   0.035
  687TIP3    H1 2004   1.433   3.026   0.124
  687TIP3    H2 2005   1.524   3.115   0.042
  688TIP3   OH2 2006   3.787   0.378   3.073
  688TIP3    H1 2007   3.799   0.469   3.100
  688TIP3    H2 2008   3.866   0.334   3.104
  689TIP3   OH2 2009   6.198   2.389   2.672
  689TIP3    H1 2010   6.204   2.295   2.653
  689TIP3    H2 2011   6.106   2.410   2.659
  690TIP3   OH2 2012   2.507   5.217   0.137
  690TIP3    H1 2013   2.505   5.167   0.219
  690TIP3    H2 2014   2.575   5.283   0.152
  691TIP3   OH2 2015   1.308   0.770   3.439
  691TIP3    H1 2016   1.314   0.752   3.533
  691TIP3    H2 2017   1.215   0.783   3.422
  692TIP3   OH2 2018   7.661   4.510   0.294
  692TIP3    H1 2019   7.729   4.519   0.361
  692TIP3    H2 2020   7.630   4.599   0.279
  693TIP3   OH2 2021   4.431   0.137   1.478
  693TIP3    H1 2022   4.483   0.119   1.400
  693TIP3    H2 2023   4.360   0.071   1.475
  694TIP3   OH2 2024   4.701   6.852   5.913
  694TIP3    H1 2025   4.655   6.812   5.987
  694TIP3    H2 2026   4.681   6.795   5.839
  695TIP3   OH2 2027   7.751   4.770   0.035
  695TIP3    H1 2028   7.666   4.787   0.075
  695TIP3    H2 2029   7.736   4.695  -0.023
  696TIP3   OH2 2030   4.406   3.882   5.844
  696TIP3    H1 2031   4.498   3.903   5.855
  696TIP3    H2 2032   4.375   3.944   5.778
  697TIP3   OH2 2033   8.036   6.295   2.676
  697TIP3    H1 2034   7.952   6.334   2.702
  697TIP3    H2 2035   8.095   6.317   2.748
  698TIP3   OH2 2036   3.834   2.158   3.654
  698TIP3    H1 2037   3.872   2.131   3.737
  698TIP3    H2 2038   3.804   2.076   3.613
  699TIP3   OH2 2039   7.526   7.050   2.032
  699TIP3    H1 2040   7.571   7.134   2.031
  699TIP3    H2 2041   7.434   7.072   2.049
  700TIP3   OH2 2042   1.055   7.435   0.644
  700TIP3    H1 2043   1.060   7.484   0.727
  700TIP3    H2 2044   1.049   7.344   0.671
  701TIP3   OH2 2045   1.470   2.449   4.851
  701TIP3    H1 2046   1.414   2.442   4.928
  701TIP3    H2 2047   1.551   2.405   4.877
  702TIP3   OH2 2048   8.103   5.960   4.248
  702TIP3    H1 2049   8.164   5.948   4.321
  702TIP3    H2 2050   8.093   6.054   4.240
  703TIP3   OH2 2051   7.629   1.041   0.027
  703TIP3    H1 2052   7.540   1.069   0.046
  703TIP3    H2 2053   7.644   0.965   0.084
  704TIP3   OH2 2054   4.373   2.098   5.949
  704TIP3    H1 2055   4.375   2.101   5.854
  704TIP3    H2 2056   4.444   2.040   5.974
  705TIP3   OH2 2057   1.157   5.161   6.272
  705TIP3    H1 2058   1.104   5.092   6.312
  705TIP3    H2 2059   1.094   5.228   6.247
  706TIP3   OH2 2060   5.304   6.222   6.565
  706TIP3    H1 2061   5.269   6.133   6.560
  706TIP3    H2 2062   5.230   6.279   6.542
  707TIP3   OH2 2063   5.580   3.172   0.742
  707TIP3    H1 2064   5.509   3.236   0.741
  707TIP3    H2 2065   5.658   3.222   0.718
  708TIP3   OH2 2066   4.236   3.341   5.398
  708TIP3    H1 2067   4.294   3.338   5.475
  708TIP3    H2 2068   4.166   3.278   5.418
  709TIP3   OH2 2069   5.103   0.239   5.317
  709TIP3    H1 2070   5.196   0.220   5.329
  709TIP3    H2 2071   5.099   0.333   5.300
  710TIP3   OH2 2072   6.342   3.178   1.651
  710TIP3    H1 2073   6.304   3.124   1.721
  710TIP3    H2 2074   6.267   3.200   1.595
  711TIP3   OH2 2075   7.774   5.185   5.395
  711TIP3    H1 2076   7.745   5.247   5.329
  711TIP3    H2 2077   7.720   5.205   5.472
  712TIP3   OH2 2078   1.504   7.417   0.244
  712TIP3    H1 2079   1.591   7.426   0.282
  712TIP3    H2 2080   1.505   7.472   0.166
  713TIP3   OH2 2081   1.127   0.978   2.658
  713TIP3    H1 2082   1.056   1.005   2.717
  713TIP3    H2 2083   1.084   0.918   2.597
  714TIP3   OH2 2084   0.874   2.587   3.998
  714TIP3    H1 2085   0.818   2.510   4.006
  714TIP3    H2 2086   0.961   2.557   4.026
  715TIP3   OH2 2087   4.982   7.608   1.673
  715TIP3    H1 2088   4.937   7.561   1.743
  715TIP3    H2 2089   4.946   7.570   1.592
  716TIP3   OH2 2090   7.278   6.304   6.151
  716TIP3    H1 2091   7.273   6.389   6.195
  716TIP3    H2 2092   7.204   6.304   6.090
  717TIP3   OH2 2093   1.831   1.588   1.697
  717TIP3    H1 2094   1.889   1.589   1.773
  717TIP3    H2 2095   1.856   1.666   1.648
  718TIP3   OH2 2096   7.508   6.492   6.216
  718TIP3    H1 2097   7.415   6.514   6.212
  718TIP3    H2 2098   7.550   6.552   6.155
  719TIP3   OH2 2099   6.044   7.456   5.922
  719TIP3    H1 2100   5.953   7.434   5.905
  719TIP3    H2 2101   6.042   7.549   5.945
  720TIP3   OH2 2102   5.538   0.805   4.216
  720TIP3    H1 2103   5.518   0.841   4.130
  720TIP3    H2 2104   5.523   0.711   4.207
  721TIP3   OH2 2105   0.153   6.436   2.020
  721TIP3    H1 2106   0.083   6.468   2.077
  721TIP3    H2 2107   0.199   6.515   1.991
  722TIP3   OH2 2108   5.377   1.236   3.985
  722TIP3    H1 2109   5.329   1.177   4.042
  722TIP3    H2 2110   5.468   1.208   3.992
  723TIP3   OH2 2111   1.211   1.080   1.835
  723TIP3    H1 2112   1.212   0.989   1.806
  723TIP3    H2 2113   1.136   1.119   1.790
  724TIP3   OH2 2114   3.613   2.859   5.293
  724TIP3    H1 2115   3.668   2.781   5.297
  724TIP3    H2 2116   3.569   2.854   5.209
  725TIP3   OH2 2117   7.007   4.631   3.073
  725TIP3    H1 2118   7.033   4.705   3.127
  725TIP3    H2 2119   6.917   4.612   3.099
  726TIP3   OH2 2120   5.051   3.889   4.733
  726TIP3    H1 2121   5.130   3.836   4.720
  726TIP3    H2 2122   5.000   3.876   4.653
  727TIP3   OH2 2123   6.279   2.994   4.066
  727TIP3    H1 2124   6.357   2.945   4.092
  727TIP3    H2 2125   6.292   3.081   4.102
  728TIP3   OH2 2126   7.323   7.151   0.867
  728TIP3    H1 2127   7.346   7.240   0.842
  728TIP3    H2 2128   7.362   7.095   0.799
  729TIP3   OH2 2129   4.851   4.576   0.712
  729TIP3    H1 2130   4.926   4.627   0.742
  729TIP3    H2 2131   4.779   4.602   0.769
  730TIP3   OH2 2132   7.598   3.441   5.946
  730TIP3    H1 2133   7.522   3.461   6.001
  730TIP3    H2 2134   7.618   3.350   5.965
  731TIP3   OH2 2135   1.091   3.949   6.473
  731TIP3    H1 2136   1.013   3.998   6.444
  731TIP3    H2 2137   1.162   4.012   6.466
  732TIP3   OH2 2138   5.786   6.661   2.581
  732TIP3    H1 2139   5.709   6.715   2.597
  732TIP3    H2 2140   5.854   6.699   2.636
  733TIP3   OH2 2141   3.819   0.875   5.302
  733TIP3    H1 2142   3.860   0.795   5.336
  733TIP3    H2 2143   3.806   0.858   5.209
  734TIP3   OH2 2144   0.904   3.323   0.548
  734TIP3    H1 2145   0.852   3.260   0.498
  734TIP3    H2 2146   0.839   3.376   0.594
  735TIP3   OH2 2147   3.001   2.168   6.323
  735TIP3    H1 2148   2.955   2.170   6.407
  735TIP3    H2 2149   2.934   2.189   6.258
  736TIP3   OH2 2150   6.341   6.223   5.649
  736TIP3    H1 2151   6.390   6.153   5.691
  736TIP3    H2 2152   6.281   6.178   5.589
  737TIP3   OH2 2153   3.834   6.442   6.531
  737TIP3    H1 2154   3.876   6.383   6.469
  737TIP3    H2 2155   3.794   6.385   6.596
  738TIP3   OH2 2156   6.959   0.735   4.083
  738TIP3    H1 2157   6.925   0.678   4.152
  738TIP3    H2 2158   6.946   0.686   4.002
  739TIP3   OH2 2159   1.369   2.558   0.881
  739TIP3    H1 2160   1.400   2.600   0.962
  739TIP3    H2 2161   1.307   2.621   0.845
  740TIP3   OH2 2162   5.717   6.243   0.857
  740TIP3    H1 2163   5.632   6.258   0.817
  740TIP3    H2 2164   5.727   6.148   0.858
  741TIP3   OH2 2165   6.989   2.243   0.915
  741TIP3    H1 2166   7.026   2.223   1.001
  741TIP3    H2 2167   6.953   2.159   0.885
  742TIP3   OH2 2168   3.627   6.845   5.818
  742TIP3    H1 2169   3.718   6.874   5.815
  742TIP3    H2 2170   3.593   6.866   5.731
  743TIP3   OH2 2171   3.179   7.118   6.226
  743TIP3    H1 2172   3.203   7.186   6.289
  743TIP3    H2 2173   3.121   7.060   6.276
  744TIP3   OH2 2174   6.746   6.102   0.100
  744TIP3    H1 2175   6.713   6.039   0.036
  744TIP3    H2 2176   6.682   6.100   0.171
  745TIP3   OH2 2177   3.714   6.692   0.449
  745TIP3    H1 2178   3.690   6.729   0.364
  745TIP3    H2 2179   3.802   6.725   0.466
  746TIP3   OH2 2180  -0.053   5.072   1.457
  746TIP3    H1 2181   0.010   5.116   1.514
  746TIP3    H2 2182  -0.004   5.053   1.377
  747TIP3   OH2 2183   1.237   0.879   0.226
  747TIP3    H1 2184   1.207   0.793   0.256
  747TIP3    H2 2185   1.190   0.942   0.281
  748TIP3   OH2 2186   6.727   2.868   1.160
  748TIP3    H1 2187   6.687   2.906   1.238
  748TIP3    H2 2188   6.712   2.933   1.092
  749TIP3   OH2 2189   3.471   7.484   1.756
  749TIP3    H1 2190   3.508   7.397   1.769
  749TIP3    H2 2191   3.488   7.504   1.664
  750TIP3   OH2 2192   3.229   4.148   5.896
  750TIP3    H1 2193   3.173   4.082   5.855
  750TIP3    H2 2194   3.211   4.229   5.847
  751TIP3   OH2 2195   2.552   1.194   0.782
  751TIP3    H1 2196   2.633   1.147   0.762
  751TIP3    H2 2197   2.512   1.212   0.697
  752TIP3   OH2 2198   7.185   6.420   0.074
  752TIP3    H1 2199   7.236   6.443   0.151
  752TIP3    H2 2200   7.238   6.354   0.029
  753TIP3   OH2 2201   4.092   1.122   6.621
  753TIP3    H1 2202   4.061   1.088   6.705
  753TIP3    H2 2203   4.164   1.065   6.597
  754TIP3   OH2 2204   6.383   2.690   6.475
  754TIP3    H1 2205   6.419   2.772   6.510
  754TIP3    H2 2206   6.288   2.703   6.479
  755TIP3   OH2 2207   5.585   2.562   5.920
  755TIP3    H1 2208   5.667   2.575   5.968
  755TIP3    H2 2209   5.611   2.540   5.831
  756TIP3   OH2 2210   3.985   1.506   1.418
  756TIP3    H1 2211   4.033   1.575   1.373
  756TIP3    H2 2212   3.918   1.552   1.468
  757TIP3   OH2 2213   6.910   5.579   4.441
  757TIP3    H1 2214   6.969   5.539   4.505
  757TIP3    H2 2215   6.846   5.510   4.421
  758TIP3   OH2 2216   2.447   0.454   0.207
  758TIP3    H1 2217   2.480   0.520   0.268
  758TIP3    H2 2218   2.487   0.477   0.123
  759TIP3   OH2 2219   4.578   4.824   6.393
  759TIP3    H1 2220   4.551   4.879   6.319
  759TIP3    H2 2221   4.497   4.788   6.428
  760TIP3   OH2 2222   0.102   4.069   3.177
  760TIP3    H1 2223   0.192   4.050   3.151
  760TIP3    H2 2224   0.079   4.149   3.129
  761TIP3   OH2 2225   5.453   4.042   6.208
  761TIP3    H1 2226   5.429   4.013   6.120
  761TIP3    H2 2227   5.542   4.076   6.199
  762TIP3   OH2 2228   4.366   5.626   6.669
  762TIP3    H1 2229   4.323   5.663   6.746
  762TIP3    H2 2230   4.329   5.538   6.662
  763TIP3   OH2 2231   6.095   3.645   2.119
  763TIP3    H1 2232   6.121   3.655   2.211
  763TIP3    H2 2233   6.095   3.734   2.084
  764TIP3   OH2 2234   0.834   5.926   1.552
  764TIP3    H1 2235   0.769   5.889   1.613
  764TIP3    H2 2236   0.918   5.912   1.596
  765TIP3   OH2 2237   6.387   2.244   3.802
  765TIP3    H1 2238   6.419   2.285   3.882
  765TIP3    H2 2239   6.293   2.230   3.817
  766TIP3   OH2 2240   1.496   5.705   5.376
  766TIP3    H1 2241   1.450   5.622   5.360
  766TIP3    H2 2242   1.427   5.771   5.373
  767TIP3   OH2 2243   7.511   7.586   2.446
  767TIP3    H1 2244   7.567   7.509   2.458
  767TIP3    H2 2245   7.456   7.589   2.525
  768TIP3   OH2 2246   6.325   4.333   4.796
  768TIP3    H1 2247   6.264   4.281   4.745
  768TIP3    H2 2248   6.300   4.424   4.779
  769TIP3   OH2 2249   4.237   5.015   4.691
  769TIP3    H1 2250   4.331   5.030   4.689
  769TIP3    H2 2251   4.198   5.102   4.681
  770TIP3   OH2 2252   5.565   3.969   3.718
  770TIP3    H1 2253   5.495   4.003   3.662
  770TIP3    H2 2254   5.598   4.046   3.765
  771TIP3   OH2 2255   4.597  -0.041   2.588
  771TIP3    H1 2256   4.652   0.028   2.624
  771TIP3    H2 2257   4.529   0.005   2.539
  772TIP3   OH2 2258   7.314   2.555   3.428
  772TIP3    H1 2259   7.331   2.476   3.376
  772TIP3    H2 2260   7.337   2.530   3.518
  773TIP3   OH2 2261   6.788   1.600   0.792
  773TIP3    H1 2262   6.763   1.664   0.858
  773TIP3    H2 2263   6.753   1.517   0.824
  774TIP3   OH2 2264   7.736   6.079   5.992
  774TIP3    H1 2265   7.653   6.125   5.991
  774TIP3    H2 2266   7.730   6.021   6.068
  775TIP3   OH2 2267   6.364   7.098   3.451
  775TIP3    H1 2268   6.351   7.192   3.438
  775TIP3    H2 2269   6.380   7.089   3.545
  776TIP3   OH2 2270   1.338   6.959   5.795
  776TIP3    H1 2271   1.336   6.896   5.723
  776TIP3    H2 2272   1.378   6.910   5.868
  777TIP3   OH2 2273   5.658   1.707   4.079
  777TIP3    H1 2274   5.693   1.640   4.138
  777TIP3    H2 2275   5.599   1.658   4.021
  778TIP3   OH2 2276   7.313   1.075   1.091
  778TIP3    H1 2277   7.331   1.007   1.156
  778TIP3    H2 2278   7.400   1.104   1.062
  779TIP3   OH2 2279   3.808   3.824   0.563
  779TIP3    H1 2280   3.753   3.817   0.641
  779TIP3    H2 2281   3.837   3.916   0.562
  780TIP3   OH2 2282   0.891   2.378   3.154
  780TIP3    H1 2283   0.928   2.437   3.088
  780TIP3    H2 2284   0.837   2.316   3.104
  781TIP3   OH2 2285   1.767   2.642   1.805
  781TIP3    H1 2286   1.674   2.621   1.802
  781TIP3    H2 2287   1.780   2.708   1.737
  782TIP3   OH2 2288   6.176   7.114   1.106
  782TIP3    H1 2289   6.249   7.092   1.165
  782TIP3    H2 2290   6.167   7.038   1.049
  783TIP3   OH2 2291   7.101   5.214   0.343
  783TIP3    H1 2292   7.196   5.224   0.350
  783TIP3    H2 2293   7.065   5.301   0.360
  784TIP3   OH2 2294   6.290   0.164   6.453
  784TIP3    H1 2295   6.204   0.166   6.496
  784TIP3    H2 2296   6.307   0.071   6.439
  785TIP3   OH2 2297   3.715   6.034   2.752
  785TIP3    H1 2298   3.713   5.990   2.667
  785TIP3    H2 2299   3.696   6.126   2.731
  786TIP3   OH2 2300   3.732   0.470   1.215
  786TIP3    H1 2301   3.688   0.443   1.295
  786TIP3    H2 2302   3.825   0.469   1.236
  787TIP3   OH2 2303   6.126   4.985   1.580
  787TIP3    H1 2304   6.156   4.920   1.643
  787TIP3    H2 2305   6.115   4.937   1.499
  788TIP3   OH2 2306   1.980   4.636   5.390
  788TIP3    H1 2307   1.915   4.621   5.458
  788TIP3    H2 2308   2.057   4.668   5.436
  789TIP3   OH2 2309   1.386   4.302   0.240
  789TIP3    H1 2310   1.383   4.221   0.291
  789TIP3    H2 2311   1.473   4.302   0.199
  790TIP3   OH2 2312   6.306   6.672   1.023
  790TIP3    H1 2313   6.378   6.706   1.076
  790TIP3    H2 2314   6.346   6.652   0.938
  791TIP3   OH2 2315   7.953   7.396   2.855
  791TIP3    H1 2316   7.905   7.421   2.935
  791TIP3    H2 2317   8.036   7.362   2.887
  792TIP3   OH2 2318   0.502   1.200   4.886
  792TIP3    H1 2319   0.548   1.172   4.965
  792TIP3    H2 2320   0.570   1.202   4.818
  793TIP3   OH2 2321   5.573   1.322   0.190
  793TIP3    H1 2322   5.606   1.241   0.151
  793TIP3    H2 2323   5.493   1.296   0.235
  794TIP3   OH2 2324   1.090   1.899   1.591
  794TIP3    H1 2325   1.027   1.971   1.593
  794TIP3    H2 2326   1.062   1.840   1.660
  795TIP3   OH2 2327   1.074   7.225   2.717
  795TIP3    H1 2328   1.022   7.167   2.662
  795TIP3    H2 2329   1.152   7.244   2.665
  796TIP3   OH2 2330   7.060   1.761   4.702
  796TIP3    H1 2331   7.154   1.769   4.691
  796TIP3    H2 2332   7.024   1.841   4.663
  797TIP3   OH2 2333   6.863   7.622   3.218
  797TIP3    H1 2334   6.884   7.553   3.281
  797TIP3    H2 2335   6.773   7.646   3.238
  798TIP3   OH2 2336   8.194   0.792   2.683
  798TIP3    H1 2337   8.189   0.825   2.773
  798TIP3    H2 2338   8.270   0.734   2.683
  799TIP3   OH2 2339   4.509   5.152   5.881
  799TIP3    H1 2340   4.520   5.060   5.902
  799TIP3    H2 2341   4.419   5.173   5.905
  800TIP3   OH2 2342   2.416   5.652   3.236
  800TIP3    H1 2343   2.496   5.600   3.251
  800TIP3    H2 2344   2.347   5.603   3.280
  801TIP3   OH2 2345   3.152   5.415   4.569
  801TIP3    H1 2346   3.122   5.358   4.499
  801TIP3    H2 2347   3.102   5.387   4.646
  802TIP3   OH2 2348   1.969   6.011   2.975
  802TIP3    H1 2349   2.050   5.995   2.927
  802TIP3    H2 2350   1.903   6.024   2.907
  803TIP3   OH2 2351   3.525   5.855   4.434
  803TIP3    H1 2352   3.560   5.792   4.497
  803TIP3    H2 2353   3.440   5.880   4.469
  804TIP3   OH2 2354   3.635   7.166   2.316
  804TIP3    H1 2355   3.687   7.091   2.287
  804TIP3    H2 2356   3.581   7.131   2.387
  805TIP3   OH2 2357   5.617   1.552   2.108
  805TIP3    H1 2358   5.682   1.486   2.083
  805TIP3    H2 2359   5.577   1.579   2.025
  806TIP3   OH2 2360   1.418   4.168   5.197
  806TIP3    H1 2361   1.348   4.105   5.186
  806TIP3    H2 2362   1.395   4.217   5.276
  807TIP3   OH2 2363   5.356   2.707   5.902
  807TIP3    H1 2364   5.361   2.782   5.842
  807TIP3    H2 2365   5.446   2.675   5.909
  808TIP3   OH2 2366   5.170   6.728   1.192
  808TIP3    H1 2367   5.199   6.651   1.144
  808TIP3    H2 2368   5.120   6.692   1.266
  809TIP3   OH2 2369   3.922   2.009   3.040
  809TIP3    H1 2370   3.948   1.987   3.130
  809TIP3    H2 2371   3.829   1.989   3.037
  810TIP3   OH2 2372   7.144   4.486   5.548
  810TIP3    H1 2373   7.205   4.543   5.595
  810TIP3    H2 2374   7.066   4.484   5.603
  811TIP3   OH2 2375   4.029   3.889   1.927
  811TIP3    H1 2376   4.047   3.887   1.833
  811TIP3    H2 2377   3.936   3.911   1.934
  812TIP3   OH2 2378   5.675   7.318   2.800
  812TIP3    H1 2379   5.649   7.256   2.733
  812TIP3    H2 2380   5.644   7.403   2.768
  813TIP3   OH2 2381   3.915   3.457   3.402
  813TIP3    H1 2382   3.944   3.373   3.439
  813TIP3    H2 2383   3.848   3.488   3.464
  814TIP3   OH2 2384   6.659   2.567   5.730
  814TIP3    H1 2385   6.606   2.578   5.809
  814TIP3    H2 2386   6.602   2.596   5.659
  815TIP3   OH2 2387   3.647   0.770   3.714
  815TIP3    H1 2388   3.658   0.769   3.809
  815TIP3    H2 2389   3.552   0.775   3.701
  816TIP3   OH2 2390   1.755   2.039   4.919
  816TIP3    H1 2391   1.836   2.052   4.969
  816TIP3    H2 2392   1.706   1.974   4.968
  817TIP3   OH2 2393   0.136   7.671   2.503
  817TIP3    H1 2394   0.081   7.744   2.474
  817TIP3    H2 2395   0.142   7.683   2.598
  818TIP3   OH2 2396   6.905   1.608   3.266
  818TIP3    H1 2397   6.943   1.669   3.203
  818TIP3    H2 2398   6.962   1.614   3.343
  819TIP3   OH2 2399   3.344   3.739   3.930
  819TIP3    H1 2400   3.436   3.739   3.956
  819TIP3    H2 2401   3.347   3.754   3.835
  820TIP3   OH2 2402   1.515   7.485   2.871
  820TIP3    H1 2403   1.539   7.427   2.800
  820TIP3    H2 2404   1.495   7.427   2.944
  821TIP3   OH2 2405   6.293   3.028   5.015
  821TIP3    H1 2406   6.279   3.117   4.984
  821TIP3    H2 2407   6.315   2.978   4.936
  822TIP3   OH2 2408   0.761   1.564   3.130
  822TIP3    H1 2409   0.838   1.608   3.093
  822TIP3    H2 2410   0.745   1.491   3.070
  823TIP3   OH2 2411   7.388   6.892   2.972
  823TIP3    H1 2412   7.455   6.827   2.950
  823TIP3    H2 2413   7.313   6.840   3.000
  824TIP3   OH2 2414   0.017   6.282   6.670
  824TIP3    H1 2415  -0.018   6.324   6.749
  824TIP3    H2 2416   0.091   6.337   6.645
  825TIP3   OH2 2417   5.165   2.854   5.384
  825TIP3    H1 2418   5.194   2.934   5.340
  825TIP3    H2 2419   5.107   2.884   5.454
  826TIP3   OH2 2420   0.886   4.476   3.079
  826TIP3    H1 2421   0.932   4.446   3.000
  826TIP3    H2 2422   0.795   4.487   3.051
  827TIP3   OH2 2423   0.563   6.777   5.811
  827TIP3    H1 2424   0.575   6.698   5.759
  827TIP3    H2 2425   0.590   6.752   5.899
  828TIP3   OH2 2426   4.797   7.679   5.010
  828TIP3    H1 2427   4.818   7.588   5.030
  828TIP3    H2 2428   4.735   7.705   5.079
  829TIP3   OH2 2429   3.961   4.416   0.887
  829TIP3    H1 2430   3.985   4.352   0.820
  829TIP3    H2 2431   3.917   4.364   0.954
  830TIP3   OH2 2432   0.872   0.145   5.650
  830TIP3    H1 2433   0.826   0.165   5.568
  830TIP3    H2 2434   0.832   0.203   5.715
  831TIP3   OH2 2435   0.627   2.420   6.333
  831TIP3    H1 2436   0.669   2.409   6.419
  831TIP3    H2 2437   0.696   2.398   6.270
  832TIP3   OH2 2438   3.097   4.515   4.891
  832TIP3    H1 2439   3.170   4.455   4.905
  832TIP3    H2 2440   3.020   4.459   4.885
  833TIP3   OH2 2441   7.864   3.073   4.524
  833TIP3    H1 2442   7.874   3.001   4.462
  833TIP3    H2 2443   7.773   3.065   4.555
  834TIP3   OH2 2444   5.448   2.898   5.725
  834TIP3    H1 2445   5.485   2.974   5.680
  834TIP3    H2 2446   5.389   2.859   5.662
  835TIP3   OH2 2447   0.897   3.858   2.604
  835TIP3    H1 2448   0.875   3.894   2.518
  835TIP3    H2 2449   0.813   3.838   2.645
  836TIP3   OH2 2450   1.514   7.725   5.350
  836TIP3    H1 2451   1.584   7.675   5.393
  836TIP3    H2 2452   1.513   7.809   5.396
  837TIP3   OH2 2453   1.974   1.517   3.523
  837TIP3    H1 2454   2.031   1.483   3.455
  837TIP3    H2 2455   1.989   1.458   3.598
  838TIP3   OH2 2456   6.392   5.759   1.244
  838TIP3    H1 2457   6.298   5.778   1.237
  838TIP3    H2 2458   6.429   5.838   1.283
  839TIP3   OH2 2459   2.216   6.877   4.216
  839TIP3    H1 2460   2.302   6.893   4.177
  839TIP3    H2 2461   2.216   6.927   4.297
  840TIP3   OH2 2462   3.838   1.366   1.004
  840TIP3    H1 2463   3.830   1.344   1.097
  840TIP3    H2 2464   3.767   1.429   0.988
  841TIP3   OH2 2465   2.990   5.729   6.187
  841TIP3    H1 2466   2.915   5.669   6.190
  841TIP3    H2 2467   3.040   5.709   6.266
  842TIP3   OH2 2468   3.038   0.638   5.889
  842TIP3    H1 2469   2.946   0.661   5.871
  842TIP3    H2 2470   3.067   0.704   5.952
  843TIP3   OH2 2471   0.357   6.248   4.564
  843TIP3    H1 2472   0.305   6.326   4.542
  843TIP3    H2 2473   0.385   6.213   4.479
  844TIP3   OH2 2474   0.657   4.697   4.212
  844TIP3    H1 2475   0.601   4.663   4.282
  844TIP3    H2 2476   0.746   4.679   4.241
  845TIP3   OH2 2477   7.989   6.871   5.324
  845TIP3    H1 2478   7.897   6.896   5.330
  845TIP3    H2 2479   7.988   6.775   5.325
  846TIP3   OH2 2480   5.881   7.718   1.980
  846TIP3    H1 2481   5.835   7.759   1.907
  846TIP3    H2 2482   5.822   7.649   2.010
  847TIP3   OH2 2483   2.832   7.009   2.598
  847TIP3    H1 2484   2.877   6.999   2.515
  847TIP3    H2 2485   2.902   7.010   2.664
  848TIP3   OH2 2486   8.178   3.482   0.438
  848TIP3    H1 2487   8.192   3.408   0.496
  848TIP3    H2 2488   8.207   3.558   0.489
  849TIP3   OH2 2489   6.513   5.728   6.660
  849TIP3    H1 2490   6.522   5.822   6.644
  849TIP3    H2 2491   6.458   5.697   6.589
  850TIP3   OH2 2492   6.592   2.242   2.626
  850TIP3    H1 2493   6.630   2.270   2.542
  850TIP3    H2 2494   6.538   2.166   2.603
  851TIP3   OH2 2495   1.624   4.470   1.446
  851TIP3    H1 2496   1.710   4.512   1.448
  851TIP3    H2 2497   1.598   4.463   1.538
  852TIP3   OH2 2498   2.289   7.432   0.931
  852TIP3    H1 2499   2.344   7.495   0.978
  852TIP3    H2 2500   2.289   7.464   0.840
  853TIP3   OH2 2501   1.646   5.843   5.961
  853TIP3    H1 2502   1.677   5.754   5.976
  853TIP3    H2 2503   1.722   5.891   5.928
  854TIP3   OH2 2504   1.757   1.628   4.116
  854TIP3    H1 2505   1.727   1.668   4.198
  854TIP3    H2 2506   1.703   1.549   4.107
  855TIP3   OH2 2507   5.718   6.866   6.153
  855TIP3    H1 2508   5.719   6.822   6.238
  855TIP3    H2 2509   5.639   6.833   6.110
  856TIP3   OH2 2510   8.064   0.245   4.139
  856TIP3    H1 2511   8.043   0.184   4.210
  856TIP3    H2 2512   8.071   0.189   4.061
  857TIP3   OH2 2513   4.900   2.451   0.793
  857TIP3    H1 2514   4.835   2.382   0.789
  857TIP3    H2 2515   4.941   2.442   0.879
  858TIP3   OH2 2516   4.741   2.610   1.780
  858TIP3    H1 2517   4.827   2.570   1.792
  858TIP3    H2 2518   4.712   2.579   1.694
  859TIP3   OH2 2519   6.679   0.900   2.412
  859TIP3    H1 2520   6.725   0.984   2.406
  859TIP3    H2 2521   6.739   0.837   2.373
  860TIP3   OH2 2522   5.205   5.556   0.052
  860TIP3    H1 2523   5.132   5.527   0.107
  860TIP3    H2 2524   5.164   5.603  -0.021
  861TIP3   OH2 2525   5.070   2.048   3.966
  861TIP3    H1 2526   5.159   2.033   3.933
  861TIP3    H2 2527   5.064   1.993   4.044
  862TIP3   OH2 2528   6.841   1.102   3.451
  862TIP3    H1 2529   6.762   1.148   3.420
  862TIP3    H2 2530   6.820   1.080   3.541
  863TIP3   OH2 2531   0.847   4.216   0.800
  863TIP3    H1 2532   0.829   4.268   0.878
  863TIP3    H2 2533   0.933   4.247   0.770
  864TIP3   OH2 2534   6.498   4.475   5.910
  864TIP3    H1 2535   6.470   4.470   5.819
  864TIP3    H2 2536   6.529   4.564   5.921
  865TIP3   OH2 2537   3.911   3.501   6.551
  865TIP3    H1 2538   3.880   3.519   6.640
  865TIP3    H2 2539   3.894   3.408   6.538
  866TIP3   OH2 2540   0.772   2.413   2.179
  866TIP3    H1 2541   0.738   2.492   2.219
  866TIP3    H2 2542   0.695   2.358   2.165
  867TIP3   OH2 2543   0.449   3.241   2.133
  867TIP3    H1 2544   0.392   3.241   2.057
  867TIP3    H2 2545   0.524   3.295   2.107
  868TIP3   OH2 2546   1.875   4.148   2.025
  868TIP3    H1 2547   1.827   4.076   1.985
  868TIP3    H2 2548   1.961   4.147   1.982
  869TIP3   OH2 2549   5.936   4.883   2.812
  869TIP3    H1 2550   6.001   4.813   2.803
  869TIP3    H2 2551   5.919   4.888   2.907
  870TIP3   OH2 2552   0.339   3.105   3.942
  870TIP3    H1 2553   0.328   3.178   4.004
  870TIP3    H2 2554   0.275   3.124   3.873
  871TIP3   OH2 2555   4.648   0.385   3.917
  871TIP3    H1 2556   4.639   0.448   3.989
  871TIP3    H2 2557   4.716   0.423   3.861
  872TIP3   OH2 2558   5.746   5.718   2.766
  872TIP3    H1 2559   5.765   5.652   2.700
  872TIP3    H2 2560   5.662   5.691   2.803
  873TIP3   OH2 2561   5.936   1.645   4.441
  873TIP3    H1 2562   6.009   1.588   4.417
  873TIP3    H2 2563   5.977   1.730   4.458
  874TIP3   OH2 2564   5.094   2.547   2.732
  874TIP3    H1 2565   5.136   2.632   2.743
  874TIP3    H2 2566   5.150   2.486   2.780
  875TIP3   OH2 2567   7.470   6.061   3.485
  875TIP3    H1 2568   7.550   6.014   3.506
  875TIP3    H2 2569   7.402   6.021   3.540
  876TIP3   OH2 2570   3.552   2.554   3.675
  876TIP3    H1 2571   3.475   2.547   3.732
  876TIP3    H2 2572   3.547   2.477   3.618
  877TIP3   OH2 2573   2.820   4.060   3.421
  877TIP3    H1 2574   2.837   4.150   3.395
  877TIP3    H2 2575   2.906   4.025   3.445
  878TIP3   OH2 2576   2.996   5.888   2.600
  878TIP3    H1 2577   2.997   5.802   2.559
  878TIP3    H2 2578   3.006   5.949   2.527
  879TIP3   OH2 2579   4.435   3.565   3.123
  879TIP3    H1 2580   4.361   3.607   3.166
  879TIP3    H2 2581   4.505   3.566   3.189
  880TIP3   OH2 2582   1.351   2.341   0.376
  880TIP3    H1 2583   1.304   2.261   0.352
  880TIP3    H2 2584   1.318   2.362   0.464
  881TIP3   OH2 2585   6.654   1.004   1.291
  881TIP3    H1 2586   6.590   1.059   1.245
  881TIP3    H2 2587   6.660   0.925   1.237
  882TIP3   OH2 2588   0.663   2.394   4.061
  882TIP3    H1 2589   0.588   2.381   4.120
  882TIP3    H2 2590   0.712   2.313   4.066
  883TIP3   OH2 2591   1.303   7.212   6.535
  883TIP3    H1 2592   1.395   7.236   6.526
  883TIP3    H2 2593   1.271   7.203   6.446
  884TIP3   OH2 2594   3.559   4.128   4.618
  884TIP3    H1 2595   3.613   4.182   4.560
  884TIP3    H2 2596   3.522   4.190   4.681
  885TIP3   OH2 2597   0.175   7.471   4.233
  885TIP3    H1 2598   0.247   7.408   4.227
  885TIP3    H2 2599   0.164   7.503   4.143
  886TIP3   OH2 2600   1.111   5.421   0.562
  886TIP3    H1 2601   1.090   5.393   0.651
  886TIP3    H2 2602   1.035   5.394   0.509
  887TIP3   OH2 2603   7.235   7.049   0.535
  887TIP3    H1 2604   7.276   7.134   0.519
  887TIP3    H2 2605   7.301   6.985   0.506
  888TIP3   OH2 2606   6.369   3.892   2.366
  888TIP3    H1 2607   6.451   3.902   2.416
  888TIP3    H2 2608   6.342   3.802   2.382
  889TIP3   OH2 2609   5.574   0.279   2.249
  889TIP3    H1 2610   5.522   0.359   2.257
  889TIP3    H2 2611   5.664   0.309   2.242
  890TIP3   OH2 2612   3.723   2.195   3.385
  890TIP3    H1 2613   3.778   2.143   3.445
  890TIP3    H2 2614   3.782   2.260   3.348
  891TIP3   OH2 2615   1.341   0.440   0.499
  891TIP3    H1 2616   1.272   0.507   0.501
  891TIP3    H2 2617   1.343   0.406   0.588
  892TIP3   OH2 2618   6.102   3.238   2.608
  892TIP3    H1 2619   6.145   3.208   2.688
  892TIP3    H2 2620   6.088   3.158   2.557
  893TIP3   OH2 2621   1.596   1.011   3.261
  893TIP3    H1 2622   1.509   1.002   3.300
  893TIP3    H2 2623   1.629   0.921   3.254
  894TIP3   OH2 2624   0.502   5.188   2.157
  894TIP3    H1 2625   0.518   5.230   2.242
  894TIP3    H2 2626   0.582   5.139   2.140
  895TIP3   OH2 2627   5.721   4.073   6.220
  895TIP3    H1 2628   5.776   4.039   6.291
  895TIP3    H2 2629   5.782   4.086   6.147
  896TIP3   OH2 2630   2.772   0.079   0.055
  896TIP3    H1 2631   2.722   0.048   0.130
  896TIP3    H2 2632   2.830   0.006   0.032
  897TIP3   OH2 2633   2.106   2.015   2.670
  897TIP3    H1 2634   2.102   2.019   2.765
  897TIP3    H2 2635   2.016   2.032   2.642
  898TIP3   OH2 2636   1.505   7.445   6.118
  898TIP3    H1 2637   1.471   7.376   6.061
  898TIP3    H2 2638   1.436   7.511   6.119
  899TIP3   OH2 2639   5.885   0.552   2.669
  899TIP3    H1 2640   5.819   0.598   2.720
  899TIP3    H2 2641   5.836   0.509   2.599
  900TIP3   OH2 2642   5.805   0.365   4.563
  900TIP3    H1 2643   5.808   0.360   4.659
  900TIP3    H2 2644   5.807   0.458   4.543
  901TIP3   OH2 2645   3.979   2.984   2.169
  901TIP3    H1 2646   4.041   2.912   2.156
  901TIP3    H2 2647   3.902   2.944   2.208
  902TIP3   OH2 2648   0.455   2.907   3.385
  902TIP3    H1 2649   0.517   2.836   3.401
  902TIP3    H2 2650   0.390   2.899   3.454
  903TIP3   OH2 2651   1.005   7.647   6.236
  903TIP3    H1 2652   1.010   7.741   6.254
  903TIP3    H2 2653   0.928   7.618   6.286
  904TIP3   OH2 2654   0.267   0.405   3.413
  904TIP3    H1 2655   0.330   0.343   3.377
  904TIP3    H2 2656   0.205   0.420   3.341
  905TIP3   OH2 2657   0.884   6.704   4.939
  905TIP3    H1 2658   0.813   6.731   4.997
  905TIP3    H2 2659   0.963   6.742   4.977
  906TIP3   OH2 2660   2.961   3.599   5.701
  906TIP3    H1 2661   3.050   3.634   5.705
  906TIP3    H2 2662   2.909   3.669   5.661
  907TIP3   OH2 2663   4.554   3.813   6.426
  907TIP3    H1 2664   4.496   3.829   6.501
  907TIP3    H2 2665   4.630   3.869   6.442
  908TIP3   OH2 2666   6.886   3.153   2.051
  908TIP3    H1 2667   6.937   3.173   1.972
  908TIP3    H2 2668   6.805   3.203   2.040
  909TIP3   OH2 2669   4.921   3.552   0.565
  909TIP3    H1 2670   4.987   3.589   0.624
  909TIP3    H2 2671   4.945   3.459   0.559
  910TIP3   OH2 2672   0.900   0.853   0.727
  910TIP3    H1 2673   0.956   0.823   0.799
  910TIP3    H2 2674   0.813   0.862   0.766
  911TIP3   OH2 2675   5.610   2.189   4.512
  911TIP3    H1 2676   5.570   2.242   4.443
  911TIP3    H2 2677   5.623   2.103   4.472
  912TIP3   OH2 2678   3.192   1.316   4.233
  912TIP3    H1 2679   3.141   1.302   4.313
  912TIP3    H2 2680   3.162   1.248   4.173
  913TIP3   OH2 2681   1.379   3.609   2.243
  913TIP3    H1 2682   1.382   3.612   2.339
  913TIP3    H2 2683   1.422   3.690   2.215
  914TIP3   OH2 2684   7.495   1.278   2.707
  914TIP3    H1 2685   7.483   1.297   2.800
  914TIP3    H2 2686   7.442   1.343   2.662
  915TIP3   OH2 2687   8.109   6.095   4.931
  915TIP3    H1 2688   8.098   6.062   4.842
  915TIP3    H2 2689   8.128   6.017   4.984
  916TIP3   OH2 2690   5.773   6.365   4.447
  916TIP3    H1 2691   5.807   6.444   4.405
  916TIP3    H2 2692   5.790   6.378   4.540
  917TIP3   OH2 2693   5.403   2.905   3.556
  917TIP3    H1 2694   5.323   2.911   3.503
  917TIP3    H2 2695   5.376   2.860   3.635
  918TIP3   OH2 2696   1.607   3.316   3.632
  918TIP3    H1 2697   1.607   3.231   3.676
  918TIP3    H2 2698   1.516   3.329   3.604
  919TIP3   OH2 2699   2.399   3.898   6.801
  919TIP3    H1 2700   2.407   3.803   6.802
  919TIP3    H2 2701   2.467   3.927   6.741
  920TIP3   OH2 2702   5.388   3.399   6.170
  920TIP3    H1 2703   5.441   3.460   6.120
  920TIP3    H2 2704   5.322   3.453   6.213
  921TIP3   OH2 2705   1.012   1.035   4.000
  921TIP3    H1 2706   0.949   0.964   4.011
  921TIP3    H2 2707   1.095   0.992   3.982
  922TIP3   OH2 2708   3.229   3.270   0.374
  922TIP3    H1 2709   3.178   3.224   0.442
  922TIP3    H2 2710   3.186   3.246   0.292
  923TIP3   OH2 2711   7.421   3.558   5.108
  923TIP3    H1 2712   7.408   3.491   5.041
  923TIP3    H2 2713   7.469   3.628   5.064
  924TIP3   OH2 2714   1.451   0.216   2.678
  924TIP3    H1 2715   1.481   0.126   2.685
  924TIP3    H2 2716   1.456   0.236   2.585
  925TIP3   OH2 2717   4.893   6.235   4.858
  925TIP3    H1 2718   4.983   6.261   4.881
  925TIP3    H2 2719   4.874   6.285   4.779
  926TIP3   OH2 2720   3.390   0.525   5.398
  926TIP3    H1 2721   3.358   0.486   5.479
  926TIP3    H2 2722   3.389   0.453   5.335
  927TIP3   OH2 2723   5.408   2.161   5.746
  927TIP3    H1 2724   5.400   2.223   5.674
  927TIP3    H2 2725   5.379   2.077   5.709
  928TIP3   OH2 2726   1.045   4.927   4.762
  928TIP3    H1 2727   1.129   4.883   4.748
  928TIP3    H2 2728   1.020   4.901   4.851
  929TIP3   OH2 2729   3.700   6.317   2.769
  929TIP3    H1 2730   3.642   6.393   2.767
  929TIP3    H2 2731   3.770   6.341   2.829
  930TIP3   OH2 2732   8.225   6.028   5.925
  930TIP3    H1 2733   8.230   6.065   6.013
  930TIP3    H2 2734   8.133   6.039   5.900
  931TIP3   OH2 2735   5.089   7.424   5.167
  931TIP3    H1 2736   4.995   7.420   5.150
  931TIP3    H2 2737   5.108   7.517   5.179
  932TIP3   OH2 2738   2.708   4.307   6.228
  932TIP3    H1 2739   2.689   4.222   6.189
  932TIP3    H2 2740   2.640   4.365   6.194
  933TIP3   OH2 2741   3.696   1.359   2.637
  933TIP3    H1 2742   3.656   1.274   2.620
  933TIP3    H2 2743   3.755   1.343   2.711
  934TIP3   OH2 2744   0.979   7.217   5.397
  934TIP3    H1 2745   1.021   7.238   5.313
  934TIP3    H2 2746   0.997   7.124   5.410
  935TIP3   OH2 2747   6.318   7.187   4.006
  935TIP3    H1 2748   6.349   7.216   3.920
  935TIP3    H2 2749   6.335   7.261   4.064
  936TIP3   OH2 2750   2.956   2.332   4.796
  936TIP3    H1 2751   2.880   2.389   4.801
  936TIP3    H2 2752   2.990   2.345   4.708
  937TIP3   OH2 2753   3.014   3.334   2.224
  937TIP3    H1 2754   3.026   3.316   2.131
  937TIP3    H2 2755   2.930   3.294   2.245
  938TIP3   OH2 2756   7.807   6.520   4.263
  938TIP3    H1 2757   7.764   6.604   4.247
  938TIP3    H2 2758   7.740   6.455   4.242
  939TIP3   OH2 2759   5.635   2.206   2.202
  939TIP3    H1 2760   5.668   2.187   2.290
  939TIP3    H2 2761   5.648   2.300   2.191
  940TIP3   OH2 2762   6.094   6.570   2.583
  940TIP3    H1 2763   6.156   6.519   2.531
  940TIP3    H2 2764   6.112   6.661   2.559
  941TIP3   OH2 2765   0.886   6.936   5.807
  941TIP3    H1 2766   0.826   6.982   5.866
  941TIP3    H2 2767   0.846   6.944   5.720
  942TIP3   OH2 2768   6.902   4.055   3.188
  942TIP3    H1 2769   6.871   3.964   3.192
  942TIP3    H2 2770   6.913   4.072   3.095
  943TIP3   OH2 2771   2.311   5.465   6.133
  943TIP3    H1 2772   2.257   5.392   6.104
  943TIP3    H2 2773   2.381   5.470   6.067
  944TIP3   OH2 2774   8.039   6.236   5.288
  944TIP3    H1 2775   7.988   6.156   5.271
  944TIP3    H2 2776   8.129   6.212   5.268
  945TIP3   OH2 2777   6.914   0.880   2.673
  945TIP3    H1 2778   6.926   0.964   2.629
  945TIP3    H2 2779   7.002   0.847   2.685
  946TIP3   OH2 2780   7.525   2.183   2.339
  946TIP3    H1 2781   7.483   2.246   2.282
  946TIP3    H2 2782   7.508   2.215   2.428
  947TIP3   OH2 2783   4.106   1.249   0.157
  947TIP3    H1 2784   4.150   1.173   0.196
  947TIP3    H2 2785   4.052   1.212   0.087
  948TIP3   OH2 2786   1.438   6.702   4.153
  948TIP3    H1 2787   1.510   6.754   4.117
  948TIP3    H2 2788   1.454   6.613   4.121
  949TIP3   OH2 2789   5.567   5.041   4.301
  949TIP3    H1 2790   5.592   5.090   4.223
  949TIP3    H2 2791   5.591   4.951   4.282
  950TIP3   OH2 2792   2.208   5.979   2.851
  950TIP3    H1 2793   2.170   5.962   2.765
  950TIP3    H2 2794   2.260   6.058   2.840
  951TIP3   OH2 2795   0.821   2.308   6.121
  951TIP3    H1 2796   0.870   2.292   6.202
  951TIP3    H2 2797   0.861   2.249   6.057
  952TIP3   OH2 2798   5.303   7.671   2.610
  952TIP3    H1 2799   5.229   7.731   2.618
  952TIP3    H2 2800   5.315   7.660   2.516
  953TIP3   OH2 2801   2.825   2.163   6.543
  953TIP3    H1 2802   2.751   2.196   6.594
  953TIP3    H2 2803   2.855   2.086   6.591
  954TIP3   OH2 2804   2.313   4.958   5.883
  954TIP3    H1 2805   2.315   4.895   5.955
  954TIP3    H2 2806   2.255   5.027   5.914
  955TIP3   OH2 2807   2.461   0.680   5.457
  955TIP3    H1 2808   2.504   0.765   5.460
  955TIP3    H2 2809   2.454   0.654   5.549
  956TIP3   OH2 2810   8.274   2.280   6.637
  956TIP3    H1 2811   8.284   2.218   6.564
  956TIP3    H2 2812   8.303   2.231   6.714
  957TIP3   OH2 2813   0.227   0.970   0.396
  957TIP3    H1 2814   0.275   0.982   0.314
  957TIP3    H2 2815   0.175   1.049   0.405
  958TIP3   OH2 2816   2.550   5.953   3.723
  958TIP3    H1 2817   2.458   5.942   3.747
  958TIP3    H2 2818   2.595   5.879   3.765
  959TIP3   OH2 2819   7.334   6.802   5.490
  959TIP3    H1 2820   7.260   6.744   5.507
  959TIP3    H2 2821   7.411   6.751   5.515
  960TIP3   OH2 2822   0.304   2.576   3.911
  960TIP3    H1 2823   0.225   2.534   3.943
  960TIP3    H2 2824   0.293   2.668   3.936
  961TIP3   OH2 2825   6.875   0.290   6.498
  961TIP3    H1 2826   6.938   0.361   6.487
  961TIP3    H2 2827   6.835   0.306   6.583
  962TIP3   OH2 2828   2.636   6.802   3.310
  962TIP3    H1 2829   2.573   6.853   3.259
  962TIP3    H2 2830   2.588   6.723   3.334
  963TIP3   OH2 2831   6.960   2.389   6.473
  963TIP3    H1 2832   7.041   2.427   6.506
  963TIP3    H2 2833   6.986   2.304   6.437
  964TIP3   OH2 2834   5.851   3.562   6.601
  964TIP3    H1 2835   5.937   3.602   6.608
  964TIP3    H2 2836   5.837   3.552   6.506
  965TIP3   OH2 2837   7.397   3.250   0.879
  965TIP3    H1 2838   7.311   3.258   0.920
  965TIP3    H2 2839   7.378   3.235   0.787
  966TIP3   OH2 2840   0.601   3.814   5.034
  966TIP3    H1 2841   0.572   3.772   5.116
  966TIP3    H2 2842   0.590   3.746   4.968
  967TIP3   OH2 2843   2.512   4.711   0.108
  967TIP3    H1 2844   2.443   4.660   0.150
  967TIP3    H2 2845   2.514   4.793   0.156
  968TIP3   OH2 2846   3.229   0.247   3.309
  968TIP3    H1 2847   3.311   0.214   3.273
  968TIP3    H2 2848   3.241   0.342   3.314
  969TIP3   OH2 2849   6.965   4.178   4.934
  969TIP3    H1 2850   6.960   4.083   4.931
  969TIP3    H2 2851   6.875   4.207   4.917
  970TIP3   OH2 2852   5.714   1.549   4.287
  970TIP3    H1 2853   5.800   1.583   4.311
  970TIP3    H2 2854   5.730   1.456   4.270
  971TIP3   OH2 2855   7.677   0.023   1.004
  971TIP3    H1 2856   7.763   0.064   0.997
  971TIP3    H2 2857   7.616   0.091   0.975
  972TIP3   OH2 2858   2.613   5.611   2.990
  972TIP3    H1 2859   2.698   5.654   2.999
  972TIP3    H2 2860   2.554   5.678   2.956
  973TIP3   OH2 2861   6.864   4.753   5.269
  973TIP3    H1 2862   6.846   4.660   5.258
  973TIP3    H2 2863   6.960   4.759   5.270
  974TIP3   OH2 2864   0.392   2.013   0.171
  974TIP3    H1 2865   0.425   2.049   0.253
  974TIP3    H2 2866   0.333   2.080   0.137
  975TIP3   OH2 2867   4.573   7.744   0.280
  975TIP3    H1 2868   4.626   7.694   0.218
  975TIP3    H2 2869   4.506   7.683   0.309
  976TIP3   OH2 2870   5.238   2.358   4.514
  976TIP3    H1 2871   5.257   2.281   4.461
  976TIP3    H2 2872   5.317   2.411   4.510
  977TIP3   OH2 2873   3.373   1.956   3.305
  977TIP3    H1 2874   3.380   2.040   3.261
  977TIP3    H2 2875   3.448   1.953   3.365
  978TIP3   OH2 2876   2.236   5.454   0.644
  978TIP3    H1 2877   2.274   5.407   0.570
  978TIP3    H2 2878   2.143   5.462   0.623
  979TIP3   OH2 2879   2.743   4.614   0.197
  979TIP3    H1 2880   2.790   4.695   0.217
  979TIP3    H2 2881   2.651   4.640   0.195
  980TIP3   OH2 2882   6.035   7.019   6.509
  980TIP3    H1 2883   6.086   7.097   6.487
  980TIP3    H2 2884   6.042   6.963   6.432
  981TIP3   OH2 2885   0.894   0.258   4.253
  981TIP3    H1 2886   0.894   0.164   4.235
  981TIP3    H2 2887   0.877   0.298   4.168
  982TIP3   OH2 2888   7.334   3.243   4.084
  982TIP3    H1 2889   7.323   3.222   3.991
  982TIP3    H2 2890   7.356   3.160   4.125
  983TIP3   OH2 2891   4.214   4.996   3.122
  983TIP3    H1 2892   4.125   4.980   3.091
  983TIP3    H2 2893   4.269   4.984   3.045
  984TIP3   OH2 2894   7.234   3.964   5.251
  984TIP3    H1 2895   7.207   4.048   5.216
  984TIP3    H2 2896   7.306   3.936   5.195
  985TIP3   OH2 2897   7.902   0.093   6.279
  985TIP3    H1 2898   7.944   0.093   6.365
  985TIP3    H2 2899   7.884   0.001   6.261
  986TIP3   OH2 2900   3.244   2.501   0.463
  986TIP3    H1 2901   3.223   2.482   0.372
  986TIP3    H2 2902   3.165   2.543   0.497
  987TIP3   OH2 2903   7.921   5.703   5.817
  987TIP3    H1 2904   8.014   5.681   5.816
  987TIP3    H2 2905   7.876   5.619   5.825
  988TIP3   OH2 2906   1.148   2.007   2.894
  988TIP3    H1 2907   1.085   1.966   2.834
  988TIP3    H2 2908   1.227   2.020   2.841
  989TIP3   OH2 2909   1.265   1.611   2.310
  989TIP3    H1 2910   1.340   1.579   2.361
  989TIP3    H2 2911   1.293   1.604   2.219
  990TIP3   OH2 2912   1.741   4.382   6.277
  990TIP3    H1 2913   1.754   4.375   6.371
  990TIP3    H2 2914   1.779   4.301   6.241
  991TIP3   OH2 2915   2.389   7.682   4.193
  991TIP3    H1 2916   2.405   7.625   4.117
  991TIP3    H2 2917   2.343   7.757   4.158
  992TIP3   OH2 2918   6.568   3.952   2.522
  992TIP3    H1 2919   6.517   3.987   2.594
  992TIP3    H2 2920   6.655   3.936   2.559
  993TIP3   OH2 2921   0.161   4.346   2.442
  993TIP3    H1 2922   0.244   4.388   2.465
  993TIP3    H2 2923   0.096   4.389   2.499
  994TIP3   OH2 2924   7.824   3.945   6.405
  994TIP3    H1 2925   7.737   3.907   6.414
  994TIP3    H2 2926   7.860   3.905   6.326
  995TIP3   OH2 2927   3.792   7.276   3.265
  995TIP3    H1 2928   3.716   7.333   3.272
  995TIP3    H2 2929   3.768   7.212   3.198
  996TIP3   OH2 2930   0.646   3.329   4.140
  996TIP3    H1 2931   0.555   3.300   4.146
  996TIP3    H2 2932   0.668   3.354   4.230
  997TIP3   OH2 2933   7.752   5.423   2.083
  997TIP3    H1 2934   7.783   5.506   2.120
  997TIP3    H2 2935   7.668   5.407   2.126
  998TIP3   OH2 2936   0.231   6.031   0.425
  998TIP3    H1 2937   0.158   5.981   0.386
  998TIP3    H2 2938   0.193   6.073   0.502
  999TIP3   OH2 2939   5.455   3.990   5.639
  999TIP3    H1 2940   5.512   3.915   5.627
  999TIP3    H2 2941   5.401   3.993   5.560
 1000TIP3   OH2 2942   2.435   5.174   4.952
 1000TIP3    H1 2943   2.480   5.144   5.031
 1000TIP3    H2 2944   2.356   5.218   4.984
 1001TIP3   OH2 2945   4.621   7.238   5.002
 1001TIP3    H1 2946   4.678   7.225   4.926
 1001TIP3    H2 2947   4.536   7.203   4.974
 1002TIP3   OH2 2948   3.242   2.563   5.557
 1002TIP3    H1 2949   3.314   2.610   5.600
 1002TIP3    H2 2950   3.173   2.629   5.549
 1003TIP3   OH2 2951   7.114   5.457   5.783
 1003TIP3    H1 2952   7.156   5.372   5.768
 1003TIP3    H2 2953   7.141   5.511   5.708
 1004TIP3   OH2 2954   3.777   7.424   3.535
 1004TIP3    H1 2955   3.726   7.347   3.508
 1004TIP3    H2 2956   3.732   7.455   3.613
 1005TIP3   OH2 2957   2.269   2.960   4.537
 1005TIP3    H1 2958   2.205   2.897   4.504
 1005TIP3    H2 2959   2.290   3.013   4.460
 1006TIP3   OH2 2960   1.062   2.071   0.573
 1006TIP3    H1 2961   1.095   2.011   0.640
 1006TIP3    H2 2962   0.967   2.071   0.586
 1007TIP3   OH2 2963   5.883   7.374   1.645
 1007TIP3    H1 2964   5.970   7.411   1.631
 1007TIP3    H2 2965   5.829   7.450   1.666
 1008TIP3   OH2 2966   0.851   3.629   3.124
 1008TIP3    H1 2967   0.925   3.568   3.115
 1008TIP3    H2 2968   0.774   3.573   3.127
 1009TIP3   OH2 2969   2.341   4.567   6.422
 1009TIP3    H1 2970   2.430   4.596   6.403
 1009TIP3    H2 2971   2.321   4.606   6.507
 1010TIP3   OH2 2972   5.638   6.232   3.762
 1010TIP3    H1 2973   5.543   6.233   3.752
 1010TIP3    H2 2974   5.671   6.193   3.681
 1011TIP3   OH2 2975   6.714   0.345   5.056
 1011TIP3    H1 2976   6.791   0.332   5.113
 1011TIP3    H2 2977   6.689   0.436   5.070
 1012TIP3   OH2 2978   2.281   0.913   3.268
 1012TIP3    H1 2979   2.253   0.837   3.319
 1012TIP3    H2 2980   2.233   0.987   3.306
 1013TIP3   OH2 2981   1.193   3.420   5.867
 1013TIP3    H1 2982   1.186   3.325   5.875
 1013TIP3    H2 2983   1.145   3.441   5.787
 1014TIP3   OH2 2984   5.529   6.129   3.224
 1014TIP3    H1 2985   5.478   6.170   3.154
 1014TIP3    H2 2986   5.620   6.132   3.193
 1015TIP3   OH2 2987   5.443   4.837   0.505
 1015TIP3    H1 2988   5.510   4.771   0.487
 1015TIP3    H2 2989   5.370   4.788   0.542
 1016TIP3   OH2 2990   4.424   6.947   2.771
 1016TIP3    H1 2991   4.375   6.964   2.691
 1016TIP3    H2 2992   4.357   6.925   2.836
 1017TIP3   OH2 2993   1.826   4.785   1.429
 1017TIP3    H1 2994   1.890   4.850   1.458
 1017TIP3    H2 2995   1.758   4.836   1.385
 1018TIP3   OH2 2996   7.999   4.401   6.608
 1018TIP3    H1 2997   7.983   4.307   6.621
 1018TIP3    H2 2998   7.921   4.433   6.564
 1019TIP3   OH2 2999   4.656   3.108   2.684
 1019TIP3    H1 3000   4.636   3.169   2.755
 1019TIP3    H2 3001   4.671   3.164   2.608
 1020TIP3   OH2 3002   2.368   0.652   0.984
 1020TIP3    H1 3003   2.288   0.606   0.957
 1020TIP3    H2 3004   2.383   0.621   1.073
 1021TIP3   OH2 3005   6.342   0.232   3.501
 1021TIP3    H1 3006   6.255   0.208   3.468
 1021TIP3    H2 3007   6.329   0.316   3.544
 1022TIP3   OH2 3008   1.055   7.491   2.706
 1022TIP3    H1 3009   1.039   7.403   2.740
 1022TIP3    H2 3010   1.125   7.479   2.642
 1023TIP3   OH2 3011   0.442   4.970   5.333
 1023TIP3    H1 3012   0.492   5.048   5.358
 1023TIP3    H2 3013   0.493   4.896   5.367
 1024TIP3   OH2 3014   7.311   3.604   2.946
 1024TIP3    H1 3015   7.234   3.601   3.003
 1024TIP3    H2 3016   7.380   3.641   3.002
 1025TIP3   OH2 3017   0.988   3.033   0.523
 1025TIP3    H1 3018   0.937   2.958   0.552
 1025TIP3    H2 3019   0.982   3.096   0.595
 1026TIP3   OH2 3020   3.251   5.260   0.486
 1026TIP3    H1 3021   3.229   5.177   0.442
 1026TIP3    H2 3022   3.285   5.316   0.416
 1027TIP3   OH2 3023   5.426   0.510   3.047
 1027TIP3    H1 3024   5.364   0.562   2.996
 1027TIP3    H2 3025   5.386   0.501   3.133
 1028TIP3   OH2 3026   2.769   1.380   5.577
 1028TIP3    H1 3027   2.833   1.450   5.561
 1028TIP3    H2 3028   2.794   1.310   5.517
 1029TIP3   OH2 3029   5.206   1.440   4.678
 1029TIP3    H1 3030   5.297   1.410   4.678
 1029TIP3    H2 3031   5.168   1.402   4.598
 1030TIP3   OH2 3032   6.448   3.090   5.332
 1030TIP3    H1 3033   6.524   3.085   5.389
 1030TIP3    H2 3034   6.414   3.178   5.345
 1031TIP3   OH2 3035   1.632   6.435   2.330
 1031TIP3    H1 3036   1.725   6.438   2.352
 1031TIP3    H2 3037   1.627   6.471   2.242
 1032TIP3   OH2 3038   1.984   1.975   3.786
 1032TIP3    H1 3039   1.956   1.976   3.878
 1032TIP3    H2 3040   1.985   1.882   3.762
 1033TIP3   OH2 3041   5.771   2.767   3.989
 1033TIP3    H1 3042   5.812   2.681   3.985
 1033TIP3    H2 3043   5.784   2.796   4.080
 1034TIP3   OH2 3044   6.649   6.554   6.757
 1034TIP3    H1 3045   6.633   6.560   6.662
 1034TIP3    H2 3046   6.740   6.526   6.764
 1035TIP3   OH2 3047   5.739   2.741   2.762
 1035TIP3    H1 3048   5.827   2.711   2.783
 1035TIP3    H2 3049   5.708   2.786   2.841
 1036TIP3   OH2 3050   7.749   2.621   2.371
 1036TIP3    H1 3051   7.671   2.569   2.392
 1036TIP3    H2 3052   7.715   2.699   2.327
 1037TIP3   OH2 3053   2.274   1.278   3.827
 1037TIP3    H1 3054   2.216   1.320   3.762
 1037TIP3    H2 3055   2.234   1.193   3.843
 1038TIP3   OH2 3056   3.718   1.938   0.154
 1038TIP3    H1 3057   3.625   1.961   0.158
 1038TIP3    H2 3058   3.726   1.886   0.075
 1039TIP3   OH2 3059   1.217   5.108   4.916
 1039TIP3    H1 3060   1.207   5.087   5.009
 1039TIP3    H2 3061   1.294   5.058   4.889
 1040TIP3   OH2 3062   1.316   2.179   5.390
 1040TIP3    H1 3063   1.403   2.144   5.373
 1040TIP3    H2 3064   1.325   2.223   5.475
 1041TIP3   OH2 3065   6.992   2.149   0.463
 1041TIP3    H1 3066   6.902   2.182   0.465
 1041TIP3    H2 3067   6.990   2.078   0.399
 1042TIP3   OH2 3068   7.839   6.034   4.072
 1042TIP3    H1 3069   7.895   5.979   4.018
 1042TIP3    H2 3070   7.765   6.055   4.015
 1043TIP3   OH2 3071   3.823   2.692   1.960
 1043TIP3    H1 3072   3.869   2.613   1.929
 1043TIP3    H2 3073   3.878   2.764   1.931
 1044TIP3   OH2 3074   2.897   3.861   3.731
 1044TIP3    H1 3075   2.824   3.800   3.725
 1044TIP3    H2 3076   2.972   3.813   3.697
 1045TIP3   OH2 3077   2.640   3.210   4.100
 1045TIP3    H1 3078   2.658   3.144   4.167
 1045TIP3    H2 3079   2.679   3.290   4.134
 1046TIP3   OH2 3080   2.491   3.472   2.083
 1046TIP3    H1 3081   2.466   3.534   2.015
 1046TIP3    H2 3082   2.411   3.422   2.101
 1047TIP3   OH2 3083   4.479   1.165   1.679
 1047TIP3    H1 3084   4.403   1.169   1.737
 1047TIP3    H2 3085   4.445   1.187   1.593
 1048TIP3   OH2 3086   6.558   3.507   2.705
 1048TIP3    H1 3087   6.531   3.432   2.757
 1048TIP3    H2 3088   6.573   3.577   2.768
 1049TIP3   OH2 3089   3.336   2.532   6.381
 1049TIP3    H1 3090   3.333   2.586   6.460
 1049TIP3    H2 3091   3.348   2.443   6.413
 1050TIP3   OH2 3092   3.419   2.794   5.969
 1050TIP3    H1 3093   3.455   2.881   5.953
 1050TIP3    H2 3094   3.466   2.736   5.908
 1051TIP3   OH2 3095   7.831   2.468   0.711
 1051TIP3    H1 3096   7.855   2.550   0.754
 1051TIP3    H2 3097   7.778   2.496   0.636
 1052TIP3   OH2 3098   5.422   2.901   6.659
 1052TIP3    H1 3099   5.442   2.954   6.736
 1052TIP3    H2 3100   5.429   2.962   6.586
 1053TIP3   OH2 3101   2.029   3.308   4.452
 1053TIP3    H1 3102   1.947   3.292   4.405
 1053TIP3    H2 3103   2.019   3.259   4.534
 1054TIP3   OH2 3104   0.739   0.407   3.507
 1054TIP3    H1 3105   0.812   0.353   3.478
 1054TIP3    H2 3106   0.778   0.466   3.572
 1055TIP3   OH2 3107   7.903   1.196   6.059
 1055TIP3    H1 3108   7.941   1.283   6.072
 1055TIP3    H2 3109   7.840   1.187   6.130
 1056TIP3   OH2 3110   2.972   1.104   1.761
 1056TIP3    H1 3111   3.061   1.132   1.736
 1056TIP3    H2 3112   2.968   1.119   1.855
 1057TIP3   OH2 3113   0.966   6.821   6.045
 1057TIP3    H1 3114   0.882   6.867   6.053
 1057TIP3    H2 3115   1.001   6.850   5.961
 1058TIP3   OH2 3116   2.438   3.630   6.659
 1058TIP3    H1 3117   2.380   3.559   6.632
 1058TIP3    H2 3118   2.492   3.593   6.729
 1059TIP3   OH2 3119   6.277   5.050   2.984
 1059TIP3    H1 3120   6.311   5.033   2.896
 1059TIP3    H2 3121   6.260   4.963   3.020
 1060TIP3   OH2 3122   8.136   4.744   6.441
 1060TIP3    H1 3123   8.160   4.671   6.498
 1060TIP3    H2 3124   8.058   4.714   6.395
 1061TIP3   OH2 3125   2.410   7.785   6.668
 1061TIP3    H1 3126   2.504   7.774   6.655
 1061TIP3    H2 3127   2.370   7.725   6.604
 1062TIP3   OH2 3128   3.820   1.256   6.723
 1062TIP3    H1 3129   3.891   1.284   6.665
 1062TIP3    H2 3130   3.745   1.308   6.695
 1063TIP3   OH2 3131   8.132   6.692   6.400
 1063TIP3    H1 3132   8.079   6.629   6.448
 1063TIP3    H2 3133   8.171   6.641   6.329
 1064TIP3   OH2 3134   7.612   1.905   0.123
 1064TIP3    H1 3135   7.693   1.858   0.144
 1064TIP3    H2 3136   7.550   1.836   0.101
 1065TIP3   OH2 3137   6.010   7.293   0.591
 1065TIP3    H1 3138   6.100   7.316   0.617
 1065TIP3    H2 3139   6.015   7.282   0.496
 1066TIP3   OH2 3140   3.542   0.950   1.232
 1066TIP3    H1 3141   3.579   0.870   1.270
 1066TIP3    H2 3142   3.616   1.009   1.222
 1067TIP3   OH2 3143   6.486   7.439   1.458
 1067TIP3    H1 3144   6.462   7.519   1.410
 1067TIP3    H2 3145   6.580   7.449   1.474
 1068TIP3   OH2 3146  -0.025   6.914   2.933
 1068TIP3    H1 3147   0.051   6.922   2.991
 1068TIP3    H2 3148  -0.100   6.908   2.993
 1069TIP3   OH2 3149   5.922   6.362   2.694
 1069TIP3    H1 3150   5.967   6.445   2.676
 1069TIP3    H2 3151   5.834   6.388   2.721
 1070TIP3   OH2 3152   4.395   2.040   6.469
 1070TIP3    H1 3153   4.380   2.119   6.417
 1070TIP3    H2 3154   4.453   1.987   6.415
 1071TIP3   OH2 3155   6.389   5.468   1.696
 1071TIP3    H1 3156   6.339   5.388   1.678
 1071TIP3    H2 3157   6.379   5.482   1.790
 1072TIP3   OH2 3158   8.217   1.706   2.986
 1072TIP3    H1 3159   8.292   1.764   3.001
 1072TIP3    H2 3160   8.154   1.730   3.053
 1073TIP3   OH2 3161   5.374   6.392   0.050
 1073TIP3    H1 3162   5.427   6.408  -0.028
 1073TIP3    H2 3163   5.312   6.465   0.052
 1074TIP3   OH2 3164   6.155   0.379   2.622
 1074TIP3    H1 3165   6.239   0.378   2.668
 1074TIP3    H2 3166   6.089   0.369   2.690
 1075TIP3   OH2 3167   4.781   6.149   2.727
 1075TIP3    H1 3168   4.819   6.162   2.814
 1075TIP3    H2 3169   4.787   6.054   2.712
 1076TIP3   OH2 3170   7.142   1.486   6.246
 1076TIP3    H1 3171   7.129   1.434   6.167
 1076TIP3    H2 3172   7.130   1.577   6.217
 1077TIP3   OH2 3173   3.643   0.284   1.018
 1077TIP3    H1 3174   3.661   0.349   1.086
 1077TIP3    H2 3175   3.714   0.297   0.954
 1078TIP3   OH2 3176   3.571   2.444   2.297
 1078TIP3    H1 3177   3.597   2.404   2.214
 1078TIP3    H2 3178   3.491   2.491   2.277
 1079TIP3   OH2 3179   4.848   6.510   3.116
 1079TIP3    H1 3180   4.796   6.432   3.136
 1079TIP3    H2 3181   4.924   6.478   3.068
 1080TIP3   OH2 3182   7.653   0.640   5.199
 1080TIP3    H1 3183   7.627   0.723   5.160
 1080TIP3    H2 3184   7.749   0.641   5.195
 1081TIP3   OH2 3185   3.170   4.424   0.074
 1081TIP3    H1 3186   3.163   4.492   0.141
 1081TIP3    H2 3187   3.080   4.394   0.062
 1082TIP3   OH2 3188   3.108   1.142   2.991
 1082TIP3    H1 3189   3.190   1.155   2.944
 1082TIP3    H2 3190   3.078   1.056   2.965
 1083TIP3   OH2 3191   2.195   2.753   2.223
 1083TIP3    H1 3192   2.257   2.689   2.190
 1083TIP3    H2 3193   2.117   2.702   2.246
 1084TIP3   OH2 3194   7.001   1.147   2.624
 1084TIP3    H1 3195   6.964   1.188   2.702
 1084TIP3    H2 3196   7.090   1.123   2.650
 1085TIP3   OH2 3197   0.319   5.048   3.688
 1085TIP3    H1 3198   0.334   5.130   3.734
 1085TIP3    H2 3199   0.287   4.988   3.756
 1086TIP3   OH2 3200   7.133   1.319   4.934
 1086TIP3    H1 3201   7.070   1.363   4.878
 1086TIP3    H2 3202   7.218   1.336   4.893
 1087TIP3   OH2 3203   0.290   4.477   5.270
 1087TIP3    H1 3204   0.291   4.569   5.245
 1087TIP3    H2 3205   0.225   4.473   5.341
 1088TIP3   OH2 3206   6.252   2.712   5.105
 1088TIP3    H1 3207   6.298   2.646   5.053
 1088TIP3    H2 3208   6.161   2.683   5.108
 1089TIP3   OH2 3209   7.347  -0.012   1.665
 1089TIP3    H1 3210   7.332   0.081   1.682
 1089TIP3    H2 3211   7.385  -0.015   1.578
 1090TIP3   OH2 3212   8.035   7.680   1.216
 1090TIP3    H1 3213   7.953   7.685   1.266
 1090TIP3    H2 3214   8.063   7.771   1.207
 1091TIP3   OH2 3215   5.299   1.725   4.625
 1091TIP3    H1 3216   5.225   1.774   4.589
 1091TIP3    H2 3217   5.265   1.637   4.640
 1092TIP3   OH2 3218   1.310   2.770   4.455
 1092TIP3    H1 3219   1.376   2.723   4.505
 1092TIP3    H2 3220   1.322   2.862   4.479
 1093TIP3   OH2 3221   4.416   0.158   2.484
 1093TIP3    H1 3222   4.365   0.115   2.416
 1093TIP3    H2 3223   4.485   0.203   2.437
 1094TIP3   OH2 3224   7.160   6.942   3.678
 1094TIP3    H1 3225   7.203   6.866   3.640
 1094TIP3    H2 3226   7.073   6.945   3.639
 1095TIP3   OH2 3227   1.596   3.076   2.474
 1095TIP3    H1 3228   1.555   3.159   2.448
 1095TIP3    H2 3229   1.648   3.099   2.551
 1096TIP3   OH2 3230   2.473   1.860   4.112
 1096TIP3    H1 3231   2.426   1.863   4.029
 1096TIP3    H2 3232   2.548   1.918   4.100
 1097TIP3   OH2 3233   1.027   5.900   2.895
 1097TIP3    H1 3234   0.987   5.980   2.861
 1097TIP3    H2 3235   1.117   5.926   2.916
 1098TIP3   OH2 3236   0.194   7.435   1.569
 1098TIP3    H1 3237   0.196   7.446   1.664
 1098TIP3    H2 3238   0.119   7.377   1.553
 1099TIP3   OH2 3239   3.638   2.354   6.423
 1099TIP3    H1 3240   3.684   2.434   6.395
 1099TIP3    H2 3241   3.700   2.283   6.405
 1100TIP3   OH2 3242   7.221   2.643   1.102
 1100TIP3    H1 3243   7.306   2.634   1.144
 1100TIP3    H2 3244   7.160   2.600   1.162
 1101TIP3   OH2 3245   1.992   2.898   4.969
 1101TIP3    H1 3246   2.036   2.945   4.899
 1101TIP3    H2 3247   2.061   2.876   5.031
 1102TIP3   OH2 3248   7.812   0.778   6.193
 1102TIP3    H1 3249   7.839   0.819   6.275
 1102TIP3    H2 3250   7.893   0.749   6.152
 1103TIP3   OH2 3251   4.440   4.669   3.122
 1103TIP3    H1 3252   4.437   4.696   3.214
 1103TIP3    H2 3253   4.444   4.752   3.073
 1104TIP3   OH2 3254   5.920   4.225   2.823
 1104TIP3    H1 3255   5.969   4.191   2.748
 1104TIP3    H2 3256   5.885   4.309   2.793
 1105TIP3   OH2 3257   2.067   2.465   2.809
 1105TIP3    H1 3258   2.113   2.516   2.743
 1105TIP3    H2 3259   1.980   2.450   2.772
 1106TIP3   OH2 3260   7.927   0.159   1.006
 1106TIP3    H1 3261   7.967   0.163   0.920
 1106TIP3    H2 3262   7.935   0.248   1.041
 1107TIP3   OH2 3263   6.585   3.337   2.263
 1107TIP3    H1 3264   6.495   3.363   2.242
 1107TIP3    H2 3265   6.574   3.262   2.322
 1108TIP3   OH2 3266   3.935   4.872   2.506
 1108TIP3    H1 3267   3.989   4.798   2.477
 1108TIP3    H2 3268   3.846   4.838   2.508
 1109TIP3   OH2 3269   0.883   6.143   2.864
 1109TIP3    H1 3270   0.788   6.138   2.873
 1109TIP3    H2 3271   0.910   6.203   2.934
 1110TIP3   OH2 3272   5.642   5.027   0.330
 1110TIP3    H1 3273   5.641   4.958   0.396
 1110TIP3    H2 3274   5.566   5.009   0.275
 1111TIP3   OH2 3275   7.041   7.008   0.900
 1111TIP3    H1 3276   7.066   6.950   0.972
 1111TIP3    H2 3277   7.122   7.050   0.873
 1112TIP3   OH2 3278   1.277   5.443   6.529
 1112TIP3    H1 3279   1.209   5.447   6.596
 1112TIP3    H2 3280   1.290   5.349   6.515
 1113TIP3   OH2 3281   7.564   5.905   0.773
 1113TIP3    H1 3282   7.626   5.851   0.822
 1113TIP3    H2 3283   7.570   5.992   0.813
 1114TIP3   OH2 3284   6.008   7.727   0.099
 1114TIP3    H1 3285   6.007   7.676   0.180
 1114TIP3    H2 3286   6.098   7.717   0.066
 1115TIP3   OH2 3287   2.654   5.356   1.328
 1115TIP3    H1 3288   2.597   5.282   1.348
 1115TIP3    H2 3289   2.658   5.406   1.410
 1116TIP3   OH2 3290   7.954   4.570   4.036
 1116TIP3    H1 3291   7.963   4.657   4.075
 1116TIP3    H2 3292   7.860   4.554   4.034
 1117TIP3   OH2 3293   7.331   0.590   3.591
 1117TIP3    H1 3294   7.311   0.594   3.685
 1117TIP3    H2 3295   7.354   0.680   3.568
 1118TIP3   OH2 3296   5.771   3.055   5.121
 1118TIP3    H1 3297   5.688   3.091   5.087
 1118TIP3    H2 3298   5.838   3.097   5.068
 1119TIP3   OH2 3299   6.348   4.628   0.937
 1119TIP3    H1 3300   6.341   4.715   0.976
 1119TIP3    H2 3301   6.425   4.633   0.880
 1120TIP3   OH2 3302   1.367   0.458   6.437
 1120TIP3    H1 3303   1.438   0.436   6.497
 1120TIP3    H2 3304   1.318   0.376   6.427
 1121TIP3   OH2 3305   7.003   5.693   1.073
 1121TIP3    H1 3306   7.058   5.769   1.056
 1121TIP3    H2 3307   6.914   5.725   1.064
 1122TIP3   OH2 3308   4.550   1.554   4.367
 1122TIP3    H1 3309   4.493   1.613   4.317
 1122TIP3    H2 3310   4.559   1.597   4.453
 1123TIP3   OH2 3311   5.736   4.901   5.386
 1123TIP3    H1 3312   5.641   4.888   5.389
 1123TIP3    H2 3313   5.752   4.946   5.303
 1124TIP3   OH2 3314   2.928   5.690   3.942
 1124TIP3    H1 3315   3.018   5.710   3.969
 1124TIP3    H2 3316   2.873   5.732   4.008
 1125TIP3   OH2 3317   7.044   6.502   5.159
 1125TIP3    H1 3318   7.057   6.492   5.065
 1125TIP3    H2 3319   6.949   6.504   5.171
 1126TIP3   OH2 3320   3.891   7.480   5.676
 1126TIP3    H1 3321   3.915   7.450   5.589
 1126TIP3    H2 3322   3.968   7.529   5.706
 1127TIP3   OH2 3323   0.819   5.327   2.191
 1127TIP3    H1 3324   0.813   5.268   2.266
 1127TIP3    H2 3325   0.882   5.394   2.218
 1128TIP3   OH2 3326   5.870   5.227   2.924
 1128TIP3    H1 3327   5.939   5.196   2.982
 1128TIP3    H2 3328   5.880   5.322   2.921
 1129TIP3   OH2 3329   7.629   6.066   3.906
 1129TIP3    H1 3330   7.549   6.117   3.896
 1129TIP3    H2 3331   7.601   5.988   3.954
 1130TIP3   OH2 3332   2.350   7.355   3.064
 1130TIP3    H1 3333   2.324   7.283   3.006
 1130TIP3    H2 3334   2.438   7.330   3.094
 1131TIP3   OH2 3335   7.579   2.545   5.500
 1131TIP3    H1 3336   7.570   2.581   5.588
 1131TIP3    H2 3337   7.610   2.455   5.514
 1132TIP3   OH2 3338   4.238   5.490   0.606
 1132TIP3    H1 3339   4.143   5.490   0.592
 1132TIP3    H2 3340   4.252   5.558   0.672
 1133TIP3   OH2 3341   0.178   1.168   0.694
 1133TIP3    H1 3342   0.129   1.246   0.721
 1133TIP3    H2 3343   0.139   1.096   0.744
 1134TIP3   OH2 3344   1.080   1.344   0.539
 1134TIP3    H1 3345   1.007   1.285   0.521
 1134TIP3    H2 3346   1.063   1.421   0.485
 1135TIP3   OH2 3347   0.048   2.797   3.825
 1135TIP3    H1 3348   0.132   2.803   3.870
 1135TIP3    H2 3349  -0.015   2.836   3.885
 1136TIP3   OH2 3350   2.663   0.121   4.714
 1136TIP3    H1 3351   2.738   0.093   4.766
 1136TIP3    H2 3352   2.597   0.147   4.778
 1137TIP3   OH2 3353   3.636   0.332   2.293
 1137TIP3    H1 3354   3.640   0.239   2.316
 1137TIP3    H2 3355   3.601   0.375   2.371
 1138TIP3   OH2 3356   0.565   3.034   4.930
 1138TIP3    H1 3357   0.574   3.106   4.991
 1138TIP3    H2 3358   0.556   2.956   4.985
 1139TIP3   OH2 3359   2.604   6.476   0.570
 1139TIP3    H1 3360   2.620   6.540   0.639
 1139TIP3    H2 3361   2.588   6.394   0.617
 1140TIP3   OH2 3362   7.291   7.701   2.317
 1140TIP3    H1 3363   7.224   7.689   2.384
 1140TIP3    H2 3364   7.366   7.650   2.348
 1141TIP3   OH2 3365   6.020   6.079   5.229
 1141TIP3    H1 3366   6.077   6.002   5.230
 1141TIP3    H2 3367   5.944   6.053   5.282
 1142TIP3   OH2 3368   7.221   1.212   5.403
 1142TIP3    H1 3369   7.251   1.276   5.468
 1142TIP3    H2 3370   7.206   1.265   5.324
 1143TIP3   OH2 3371   4.309   4.381   0.692
 1143TIP3    H1 3372   4.265   4.316   0.746
 1143TIP3    H2 3373   4.239   4.426   0.645
 1144TIP3   OH2 3374   3.905   0.666   6.113
 1144TIP3    H1 3375   3.830   0.704   6.160
 1144TIP3    H2 3376   3.967   0.739   6.103
 1145TIP3   OH2 3377   3.496   7.741   3.932
 1145TIP3    H1 3378   3.421   7.798   3.951
 1145TIP3    H2 3379   3.532   7.776   3.850
 1146TIP3   OH2 3380   5.169   3.612   5.579
 1146TIP3    H1 3381   5.170   3.686   5.518
 1146TIP3    H2 3382   5.077   3.587   5.585
 1147TIP3   OH2 3383   1.598   4.183   0.484
 1147TIP3    H1 3384   1.581   4.137   0.566
 1147TIP3    H2 3385   1.656   4.255   0.508
 1148TIP3   OH2 3386   3.489   1.856   0.614
 1148TIP3    H1 3387   3.573   1.825   0.648
 1148TIP3    H2 3388   3.491   1.834   0.521
 1149TIP3   OH2 3389   3.765   3.419   5.121
 1149TIP3    H1 3390   3.695   3.361   5.089
 1149TIP3    H2 3391   3.731   3.508   5.105
 1150TIP3   OH2 3392   6.646   0.256   2.741
 1150TIP3    H1 3393   6.710   0.316   2.781
 1150TIP3    H2 3394   6.687   0.230   2.658
 1151TIP3   OH2 3395   4.183   6.472   3.532
 1151TIP3    H1 3396   4.137   6.546   3.571
 1151TIP3    H2 3397   4.138   6.395   3.568
 1152TIP3   OH2 3398   7.719   5.121   6.771
 1152TIP3    H1 3399   7.658   5.049   6.787
 1152TIP3    H2 3400   7.667   5.187   6.726
 1153TIP3   OH2 3401   3.315   5.230   2.664
 1153TIP3    H1 3402   3.310   5.216   2.759
 1153TIP3    H2 3403   3.396   5.187   2.638
 1154TIP3   OH2 3404   0.949   5.046   1.071
 1154TIP3    H1 3405   0.933   5.008   0.984
 1154TIP3    H2 3406   0.867   5.032   1.118
 1155TIP3   OH2 3407   6.724   3.221   6.091
 1155TIP3    H1 3408   6.722   3.156   6.161
 1155TIP3    H2 3409   6.794   3.281   6.116
 1156TIP3   OH2 3410   2.393   4.690   0.826
 1156TIP3    H1 3411   2.436   4.748   0.762
 1156TIP3    H2 3412   2.442   4.608   0.821
 1157TIP3   OH2 3413   6.076   2.123   5.960
 1157TIP3    H1 3414   6.113   2.138   6.046
 1157TIP3    H2 3415   6.032   2.205   5.937
 1158TIP3   OH2 3416   0.609   4.270   0.186
 1158TIP3    H1 3417   0.528   4.292   0.140
 1158TIP3    H2 3418   0.656   4.353   0.193
 1159TIP3   OH2 3419   2.454   2.896   4.894
 1159TIP3    H1 3420   2.501   2.886   4.977
 1159TIP3    H2 3421   2.486   2.978   4.858
 1160TIP3   OH2 3422   0.116   4.647   0.136
 1160TIP3    H1 3423   0.067   4.571   0.166
 1160TIP3    H2 3424   0.206   4.616   0.129
 1161TIP3   OH2 3425   6.952   2.189   5.076
 1161TIP3    H1 3426   7.003   2.176   5.156
 1161TIP3    H2 3427   6.904   2.107   5.063
 1162TIP3   OH2 3428   3.891   4.568   1.253
 1162TIP3    H1 3429   3.844   4.646   1.222
 1162TIP3    H2 3430   3.979   4.600   1.271
 1163TIP3   OH2 3431   6.005   3.475   4.223
 1163TIP3    H1 3432   5.967   3.513   4.144
 1163TIP3    H2 3433   5.940   3.411   4.253
 1164TIP3   OH2 3434   5.377   5.583   1.542
 1164TIP3    H1 3435   5.414   5.644   1.606
 1164TIP3    H2 3436   5.448   5.522   1.524
 1165TIP3   OH2 3437   6.185   6.809   2.459
 1165TIP3    H1 3438   6.202   6.903   2.469
 1165TIP3    H2 3439   6.270   6.773   2.434
 1166TIP3   OH2 3440   6.472   4.073   4.698
 1166TIP3    H1 3441   6.457   3.992   4.746
 1166TIP3    H2 3442   6.402   4.131   4.728
 1167TIP3   OH2 3443   3.816   4.194   6.222
 1167TIP3    H1 3444   3.774   4.243   6.151
 1167TIP3    H2 3445   3.793   4.103   6.204
 1168TIP3   OH2 3446   4.564   3.601   0.257
 1168TIP3    H1 3447   4.552   3.630   0.167
 1168TIP3    H2 3448   4.640   3.650   0.289
 1169TIP3   OH2 3449   4.451   5.792   5.382
 1169TIP3    H1 3450   4.397   5.724   5.343
 1169TIP3    H2 3451   4.496   5.833   5.308
 1170TIP3   OH2 3452   0.529   2.037   0.825
 1170TIP3    H1 3453   0.479   2.109   0.786
 1170TIP3    H2 3454   0.616   2.046   0.786
 1171TIP3   OH2 3455   2.356   2.064   0.314
 1171TIP3    H1 3456   2.412   2.025   0.247
 1171TIP3    H2 3457   2.267   2.046   0.285
 1172TIP3   OH2 3458   1.683   0.750   3.226
 1172TIP3    H1 3459   1.604   0.695   3.232
 1172TIP3    H2 3460   1.728   0.735   3.309
 1173TIP3   OH2 3461   6.132   4.630   3.473
 1173TIP3    H1 3462   6.181   4.570   3.417
 1173TIP3    H2 3463   6.104   4.700   3.414
 1174TIP3   OH2 3464   1.970   0.649   0.404
 1174TIP3    H1 3465   1.937   0.589   0.471
 1174TIP3    H2 3466   2.059   0.670   0.432
 1175TIP3   OH2 3467   5.469   1.606   2.674
 1175TIP3    H1 3468   5.408   1.533   2.686
 1175TIP3    H2 3469   5.413   1.681   2.653
 1176TIP3   OH2 3470   0.620   0.701   0.470
 1176TIP3    H1 3471   0.581   0.629   0.520
 1176TIP3    H2 3472   0.563   0.776   0.487
 1177TIP3   OH2 3473   3.417   1.088   0.492
 1177TIP3    H1 3474   3.441   1.151   0.423
 1177TIP3    H2 3475   3.500   1.047   0.516
 1178TIP3   OH2 3476   4.488   0.055   3.604
 1178TIP3    H1 3477   4.438   0.007   3.538
 1178TIP3    H2 3478   4.580   0.043   3.578
 1179TIP3   OH2 3479   3.635   2.929   3.610
 1179TIP3    H1 3480   3.676   2.881   3.681
 1179TIP3    H2 3481   3.547   2.951   3.642
 1180TIP3   OH2 3482   6.197   4.418   3.277
 1180TIP3    H1 3483   6.114   4.380   3.249
 1180TIP3    H2 3484   6.234   4.457   3.197
 1181TIP3   OH2 3485   7.471   5.790   3.282
 1181TIP3    H1 3486   7.526   5.772   3.359
 1181TIP3    H2 3487   7.418   5.866   3.308
 1182TIP3   OH2 3488   2.589   1.976   2.186
 1182TIP3    H1 3489   2.593   2.029   2.106
 1182TIP3    H2 3490   2.538   2.029   2.247
 1183TIP3   OH2 3491   7.952   7.505   0.107
 1183TIP3    H1 3492   8.007   7.514   0.185
 1183TIP3    H2 3493   7.924   7.595   0.088
 1184TIP3   OH2 3494   6.060   2.075   6.525
 1184TIP3    H1 3495   6.073   2.157   6.572
 1184TIP3    H2 3496   5.965   2.067   6.516
 1185TIP3   OH2 3497   8.183   7.345   2.028
 1185TIP3    H1 3498   8.193   7.418   2.089
 1185TIP3    H2 3499   8.133   7.280   2.076
 1186TIP3   OH2 3500   2.313   6.140   3.617
 1186TIP3    H1 3501   2.315   6.057   3.665
 1186TIP3    H2 3502   2.353   6.203   3.678
 1187TIP3   OH2 3503   6.546   2.400   0.638
 1187TIP3    H1 3504   6.626   2.445   0.611
 1187TIP3    H2 3505   6.574   2.341   0.709
 1188TIP3   OH2 3506   5.470   0.375   2.638
 1188TIP3    H1 3507   5.559   0.350   2.613
 1188TIP3    H2 3508   5.462   0.348   2.729
 1189TIP3   OH2 3509   6.098   2.024   1.314
 1189TIP3    H1 3510   6.192   2.040   1.322
 1189TIP3    H2 3511   6.091   1.951   1.252
 1190TIP3   OH2 3512   2.874   7.014   4.505
 1190TIP3    H1 3513   2.794   7.040   4.550
 1190TIP3    H2 3514   2.934   7.088   4.518
 1191TIP3   OH2 3515   1.589   5.181   3.994
 1191TIP3    H1 3516   1.580   5.089   3.969
 1191TIP3    H2 3517   1.548   5.229   3.922
 1192TIP3   OH2 3518   7.872   1.763   0.076
 1192TIP3    H1 3519   7.892   1.807   0.159
 1192TIP3    H2 3520   7.957   1.732   0.045
 1193TIP3   OH2 3521   5.368   1.900   4.269
 1193TIP3    H1 3522   5.293   1.841   4.257
 1193TIP3    H2 3523   5.433   1.846   4.315
 1194TIP3   OH2 3524   3.657   6.701   5.517
 1194TIP3    H1 3525   3.675   6.709   5.424
 1194TIP3    H2 3526   3.592   6.768   5.535
 1195TIP3   OH2 3527   3.727   2.235   6.083
 1195TIP3    H1 3528   3.717   2.330   6.094
 1195TIP3    H2 3529   3.680   2.198   6.157
 1196TIP3   OH2 3530   1.874   0.824   4.083
 1196TIP3    H1 3531   1.868   0.919   4.089
 1196TIP3    H2 3532   1.805   0.792   4.141
 1197TIP3   OH2 3533   1.322   5.612   6.012
 1197TIP3    H1 3534   1.257   5.616   6.082
 1197TIP3    H2 3535   1.405   5.633   6.055
 1198TIP3   OH2 3536   0.814   3.417   2.878
 1198TIP3    H1 3537   0.771   3.490   2.834
 1198TIP3    H2 3538   0.823   3.350   2.810
 1199TIP3   OH2 3539   7.340   3.168   5.082
 1199TIP3    H1 3540   7.432   3.193   5.092
 1199TIP3    H2 3541   7.331   3.089   5.134
 1200TIP3   OH2 3542   6.415   7.716   3.130
 1200TIP3    H1 3543   6.365   7.781   3.180
 1200TIP3    H2 3544   6.488   7.766   3.093
 1201TIP3   OH2 3545   5.038   2.085   1.298
 1201TIP3    H1 3546   4.987   2.155   1.258
 1201TIP3    H2 3547   5.097   2.056   1.228
 1202TIP3   OH2 3548   8.219   4.846   0.243
 1202TIP3    H1 3549   8.283   4.815   0.178
 1202TIP3    H2 3550   8.143   4.789   0.231
 1203TIP3   OH2 3551   3.494   2.998   0.348
 1203TIP3    H1 3552   3.517   3.087   0.323
 1203TIP3    H2 3553   3.423   2.973   0.288
 1204TIP3   OH2 3554   5.789   2.159   0.551
 1204TIP3    H1 3555   5.862   2.220   0.540
 1204TIP3    H2 3556   5.808   2.087   0.492
 1205TIP3   OH2 3557   6.492   6.750   3.221
 1205TIP3    H1 3558   6.557   6.814   3.193
 1205TIP3    H2 3559   6.418   6.761   3.161
 1206TIP3   OH2 3560   7.053   4.886   3.180
 1206TIP3    H1 3561   7.147   4.902   3.187
 1206TIP3    H2 3562   7.023   4.950   3.115
 1207TIP3   OH2 3563   4.082   7.269   6.751
 1207TIP3    H1 3564   4.119   7.216   6.681
 1207TIP3    H2 3565   4.016   7.212   6.792
 1208TIP3   OH2 3566   2.671   5.761   5.416
 1208TIP3    H1 3567   2.627   5.750   5.500
 1208TIP3    H2 3568   2.679   5.672   5.382
 1209TIP3   OH2 3569   6.646   6.512   4.128
 1209TIP3    H1 3570   6.586   6.503   4.202
 1209TIP3    H2 3571   6.595   6.555   4.061
 1210TIP3   OH2 3572   1.885   1.861   0.470
 1210TIP3    H1 3573   1.869   1.826   0.557
 1210TIP3    H2 3574   1.823   1.816   0.413
 1211TIP3   OH2 3575   3.141   4.691   2.384
 1211TIP3    H1 3576   3.152   4.631   2.458
 1211TIP3    H2 3577   3.083   4.643   2.324
 1212TIP3   OH2 3578   1.306   4.754   1.945
 1212TIP3    H1 3579   1.255   4.788   2.018
 1212TIP3    H2 3580   1.309   4.659   1.959
 1213TIP3   OH2 3581   4.840   6.192   0.957
 1213TIP3    H1 3582   4.810   6.147   0.878
 1213TIP3    H2 3583   4.763   6.240   0.987
 1214TIP3   OH2 3584   7.842   3.876   6.139
 1214TIP3    H1 3585   7.855   3.782   6.130
 1214TIP3    H2 3586   7.802   3.903   6.056
 1215TIP3   OH2 3587   1.727   3.998   3.165
 1215TIP3    H1 3588   1.710   4.076   3.217
 1215TIP3    H2 3589   1.805   3.959   3.205
 1216TIP3   OH2 3590   2.505   3.869   0.921
 1216TIP3    H1 3591   2.441   3.898   0.986
 1216TIP3    H2 3592   2.582   3.843   0.972
 1217TIP3   OH2 3593   3.730   7.570   5.001
 1217TIP3    H1 3594   3.766   7.563   5.089
 1217TIP3    H2 3595   3.807   7.581   4.945
 1218TIP3   OH2 3596   3.184   3.000   4.242
 1218TIP3    H1 3597   3.251   3.068   4.253
 1218TIP3    H2 3598   3.199   2.939   4.315
 1219TIP3   OH2 3599   2.749   1.949   5.905
 1219TIP3    H1 3600   2.781   1.859   5.901
 1219TIP3    H2 3601   2.829   2.002   5.913
 1220TIP3   OH2 3602   5.695   1.924   6.164
 1220TIP3    H1 3603   5.761   1.883   6.108
 1220TIP3    H2 3604   5.682   1.861   6.236
 1221TIP3   OH2 3605   6.434   1.138   0.148
 1221TIP3    H1 3606   6.379   1.183   0.212
 1221TIP3    H2 3607   6.373   1.106   0.081
 1222TIP3   OH2 3608   8.227   1.417   6.255
 1222TIP3    H1 3609   8.203   1.419   6.347
 1222TIP3    H2 3610   8.322   1.413   6.254
 1223TIP3   OH2 3611   6.966   6.150   1.580
 1223TIP3    H1 3612   6.902   6.198   1.528
 1223TIP3    H2 3613   7.002   6.085   1.520
 1224TIP3   OH2 3614   3.270   5.282   5.946
 1224TIP3    H1 3615   3.281   5.291   5.851
 1224TIP3    H2 3616   3.185   5.239   5.956
 1225TIP3   OH2 3617   0.607   6.565   3.161
 1225TIP3    H1 3618   0.628   6.627   3.091
 1225TIP3    H2 3619   0.535   6.606   3.208
 1226TIP3   OH2 3620   4.265   6.732   4.974
 1226TIP3    H1 3621   4.348   6.697   4.943
 1226TIP3    H2 3622   4.212   6.742   4.895
 1227TIP3   OH2 3623   7.424   7.313   2.865
 1227TIP3    H1 3624   7.393   7.260   2.792
 1227TIP3    H2 3625   7.426   7.253   2.939
 1228TIP3   OH2 3626   2.058   6.159   4.695
 1228TIP3    H1 3627   2.116   6.186   4.624
 1228TIP3    H2 3628   2.077   6.066   4.708
 1229TIP3   OH2 3629   2.464   6.665   2.080
 1229TIP3    H1 3630   2.543   6.630   2.040
 1229TIP3    H2 3631   2.393   6.636   2.023
 1230TIP3   OH2 3632   0.870   2.477   3.402
 1230TIP3    H1 3633   0.872   2.426   3.321
 1230TIP3    H2 3634   0.780   2.509   3.408
 1231TIP3   OH2 3635   4.481   4.847   1.532
 1231TIP3    H1 3636   4.564   4.877   1.495
 1231TIP3    H2 3637   4.429   4.823   1.455
 1232TIP3   OH2 3638   4.131   2.551   0.012
 1232TIP3    H1 3639   4.176   2.592  -0.061
 1232TIP3    H2 3640   4.187   2.567   0.088
 1233TIP3   OH2 3641   0.534   1.576   5.002
 1233TIP3    H1 3642   0.505   1.539   4.919
 1233TIP3    H2 3643   0.605   1.519   5.030
 1234TIP3   OH2 3644   3.751   1.580   6.694
 1234TIP3    H1 3645   3.775   1.576   6.602
 1234TIP3    H2 3646   3.664   1.541   6.698
 1235TIP3   OH2 3647   6.230   0.643   3.787
 1235TIP3    H1 3648   6.240   0.657   3.881
 1235TIP3    H2 3649   6.310   0.597   3.762
 1236TIP3   OH2 3650   2.385   0.313   1.092
 1236TIP3    H1 3651   2.390   0.239   1.152
 1236TIP3    H2 3652   2.300   0.353   1.111
 1237TIP3   OH2 3653   2.283   4.724   2.245
 1237TIP3    H1 3654   2.211   4.738   2.184
 1237TIP3    H2 3655   2.316   4.811   2.264
 1238TIP3   OH2 3656   3.536   6.300   4.049
 1238TIP3    H1 3657   3.603   6.240   4.081
 1238TIP3    H2 3658   3.519   6.272   3.959
 1239TIP3   OH2 3659   2.393   0.270   2.530
 1239TIP3    H1 3660   2.310   0.316   2.531
 1239TIP3    H2 3661   2.369   0.178   2.523
 1240TIP3   OH2 3662   1.963   0.441   6.594
 1240TIP3    H1 3663   2.056   0.420   6.589
 1240TIP3    H2 3664   1.919   0.363   6.562
 1241TIP3   OH2 3665   3.112   0.884   2.280
 1241TIP3    H1 3666   3.022   0.911   2.301
 1241TIP3    H2 3667   3.148   0.856   2.364
 1242TIP3   OH2 3668   0.716   5.361   6.047
 1242TIP3    H1 3669   0.665   5.346   6.126
 1242TIP3    H2 3670   0.688   5.447   6.016
 1243TIP3   OH2 3671   3.845   1.001   2.902
 1243TIP3    H1 3672   3.803   0.968   2.823
 1243TIP3    H2 3673   3.820   1.094   2.905
 1244TIP3   OH2 3674   0.718   6.822   6.328
 1244TIP3    H1 3675   0.712   6.733   6.361
 1244TIP3    H2 3676   0.649   6.870   6.374
 1245TIP3   OH2 3677   6.720   3.394   1.780
 1245TIP3    H1 3678   6.650   3.342   1.820
 1245TIP3    H2 3679   6.733   3.467   1.841
 1246TIP3   OH2 3680   5.568   0.298   1.790
 1246TIP3    H1 3681   5.593   0.381   1.832
 1246TIP3    H2 3682   5.506   0.258   1.850
 1247TIP3   OH2 3683   6.934   5.964   2.992
 1247TIP3    H1 3684   6.964   6.051   3.017
 1247TIP3    H2 3685   6.877   5.979   2.917
 1248TIP3   OH2 3686   3.143   1.895   1.830
 1248TIP3    H1 3687   3.203   1.852   1.770
 1248TIP3    H2 3688   3.055   1.873   1.798
 1249TIP3   OH2 3689   7.027   1.616   4.921
 1249TIP3    H1 3690   7.110   1.616   4.970
 1249TIP3    H2 3691   7.034   1.692   4.863
 1250TIP3   OH2 3692   8.127   0.867   6.570
 1250TIP3    H1 3693   8.144   0.959   6.547
 1250TIP3    H2 3694   8.071   0.872   6.648
 1251TIP3   OH2 3695   8.009   5.570   6.659
 1251TIP3    H1 3696   8.069   5.518   6.712
 1251TIP3    H2 3697   8.047   5.568   6.571
 1252TIP3   OH2 3698   7.403   6.127   2.988
 1252TIP3    H1 3699   7.316   6.101   3.018
 1252TIP3    H2 3700   7.440   6.175   3.062
 1253TIP3   OH2 3701   0.995   3.056   5.360
 1253TIP3    H1 3702   1.023   3.018   5.277
 1253TIP3    H2 3703   1.075   3.090   5.399
 1254TIP3   OH2 3704   3.782   6.442   3.358
 1254TIP3    H1 3705   3.851   6.490   3.405
 1254TIP3    H2 3706   3.703   6.493   3.373
 1255TIP3   OH2 3707   1.013   4.695   1.753
 1255TIP3    H1 3708   1.004   4.715   1.847
 1255TIP3    H2 3709   1.002   4.600   1.748
 1256TIP3   OH2 3710   6.803   5.631   6.207
 1256TIP3    H1 3711   6.808   5.554   6.150
 1256TIP3    H2 3712   6.808   5.706   6.147
 1257TIP3   OH2 3713   4.569   6.342   2.762
 1257TIP3    H1 3714   4.517   6.328   2.841
 1257TIP3    H2 3715   4.613   6.258   2.747
 1258TIP3   OH2 3716   1.476   4.146   0.726
 1258TIP3    H1 3717   1.489   4.072   0.784
 1258TIP3    H2 3718   1.413   4.115   0.661
 1259TIP3   OH2 3719   2.514   0.918   5.195
 1259TIP3    H1 3720   2.482   0.967   5.120
 1259TIP3    H2 3721   2.460   0.948   5.269
 1260TIP3   OH2 3722   1.612   5.832   4.686
 1260TIP3    H1 3723   1.667   5.767   4.730
 1260TIP3    H2 3724   1.674   5.894   4.647
 1261TIP3   OH2 3725   0.531   1.112   1.341
 1261TIP3    H1 3726   0.513   1.198   1.379
 1261TIP3    H2 3727   0.451   1.062   1.359
 1262TIP3   OH2 3728   4.274   1.330   6.551
 1262TIP3    H1 3729   4.296   1.292   6.465
 1262TIP3    H2 3730   4.197   1.282   6.580
 1263TIP3   OH2 3731   1.909   1.498   6.579
 1263TIP3    H1 3732   1.954   1.540   6.652
 1263TIP3    H2 3733   1.876   1.570   6.526
 1264TIP3   OH2 3734   6.184   5.271   1.641
 1264TIP3    H1 3735   6.148   5.183   1.627
 1264TIP3    H2 3736   6.115   5.317   1.690
 1265TIP3   OH2 3737   7.841   4.869   0.403
 1265TIP3    H1 3738   7.759   4.895   0.446
 1265TIP3    H2 3739   7.834   4.774   0.396
 1266TIP3   OH2 3740   6.972   2.607   2.786
 1266TIP3    H1 3741   7.056   2.599   2.740
 1266TIP3    H2 3742   6.930   2.522   2.773
 1267TIP3   OH2 3743   5.808   3.608   4.023
 1267TIP3    H1 3744   5.735   3.584   4.080
 1267TIP3    H2 3745   5.796   3.553   3.945
 1268TIP3   OH2 3746   5.562   0.020   0.313
 1268TIP3    H1 3747   5.524  -0.053   0.362
 1268TIP3    H2 3748   5.652   0.026   0.343
 1269TIP3   OH2 3749   0.767   4.078   1.508
 1269TIP3    H1 3750   0.774   4.109   1.417
 1269TIP3    H2 3751   0.698   4.012   1.506
 1270TIP3   OH2 3752   3.158   1.030   3.615
 1270TIP3    H1 3753   3.089   1.036   3.680
 1270TIP3    H2 3754   3.236   1.065   3.659
 1271TIP3   OH2 3755   7.166   2.804   0.401
 1271TIP3    H1 3756   7.206   2.747   0.467
 1271TIP3    H2 3757   7.147   2.746   0.328
 1272TIP3   OH2 3758   4.263   0.505   5.402
 1272TIP3    H1 3759   4.198   0.448   5.362
 1272TIP3    H2 3760   4.291   0.457   5.481
 1273TIP3   OH2 3761   5.486   1.277   3.395
 1273TIP3    H1 3762   5.487   1.192   3.438
 1273TIP3    H2 3763   5.462   1.339   3.464
 1274TIP3   OH2 3764   5.676   7.519   0.386
 1274TIP3    H1 3765   5.630   7.603   0.376
 1274TIP3    H2 3766   5.633   7.478   0.462
 1275TIP3   OH2 3767   7.280   3.372   3.189
 1275TIP3    H1 3768   7.321   3.406   3.269
 1275TIP3    H2 3769   7.237   3.448   3.150
 1276TIP3   OH2 3770   2.131   2.203   4.514
 1276TIP3    H1 3771   2.083   2.213   4.432
 1276TIP3    H2 3772   2.081   2.140   4.564
 1277TIP3   OH2 3773   5.600   0.435   1.024
 1277TIP3    H1 3774   5.644   0.361   1.066
 1277TIP3    H2 3775   5.546   0.394   0.956
 1278TIP3   OH2 3776   3.478   4.404   0.525
 1278TIP3    H1 3777   3.489   4.464   0.599
 1278TIP3    H2 3778   3.384   4.389   0.519
 1279TIP3   OH2 3779   1.178   3.133   4.743
 1279TIP3    H1 3780   1.135   3.219   4.752
 1279TIP3    H2 3781   1.204   3.110   4.831
 1280TIP3   OH2 3782   1.012   6.389   2.423
 1280TIP3    H1 3783   0.961   6.461   2.387
 1280TIP3    H2 3784   1.097   6.394   2.378
 1281TIP3   OH2 3785   4.223   1.780   1.970
 1281TIP3    H1 3786   4.138   1.796   1.930
 1281TIP3    H2 3787   4.247   1.691   1.942
 1282TIP3   OH2 3788   4.772   4.236   0.647
 1282TIP3    H1 3789   4.680   4.240   0.675
 1282TIP3    H2 3790   4.822   4.240   0.728
 1283TIP3   OH2 3791   4.791   2.424   2.674
 1283TIP3    H1 3792   4.870   2.471   2.700
 1283TIP3    H2 3793   4.730   2.493   2.647
 1284TIP3   OH2 3794   0.894   3.572   1.114
 1284TIP3    H1 3795   0.923   3.561   1.024
 1284TIP3    H2 3796   0.838   3.649   1.112
 1285TIP3   OH2 3797   4.006   3.183   5.452
 1285TIP3    H1 3798   3.930   3.134   5.420
 1285TIP3    H2 3799   4.030   3.139   5.534
 1286TIP3   OH2 3800   4.066   0.808   2.867
 1286TIP3    H1 3801   4.112   0.850   2.940
 1286TIP3    H2 3802   3.973   0.826   2.883
 1287TIP3   OH2 3803   5.903   5.496   2.854
 1287TIP3    H1 3804   5.961   5.535   2.788
 1287TIP3    H2 3805   5.868   5.571   2.903
 1288TIP3   OH2 3806   8.274   1.259   5.982
 1288TIP3    H1 3807   8.223   1.323   5.934
 1288TIP3    H2 3808   8.261   1.283   6.074
 1289TIP3   OH2 3809   3.119   4.685   3.296
 1289TIP3    H1 3810   3.070   4.662   3.375
 1289TIP3    H2 3811   3.206   4.710   3.328
 1290TIP3   OH2 3812   5.146   4.825   0.296
 1290TIP3    H1 3813   5.228   4.873   0.287
 1290TIP3    H2 3814   5.082   4.891   0.324
 1291TIP3   OH2 3815   7.113   0.083   2.337
 1291TIP3    H1 3816   7.085  -0.004   2.367
 1291TIP3    H2 3817   7.168   0.065   2.260
 1292TIP3   OH2 3818   4.257   1.450   5.532
 1292TIP3    H1 3819   4.209   1.470   5.612
 1292TIP3    H2 3820   4.189   1.432   5.467
 1293TIP3   OH2 3821   5.408   6.067   0.247
 1293TIP3    H1 3822   5.413   6.073   0.152
 1293TIP3    H2 3823   5.464   6.138   0.279
 1294TIP3   OH2 3824   2.489   2.220   0.064
 1294TIP3    H1 3825   2.447   2.260   0.140
 1294TIP3    H2 3826   2.551   2.286   0.033
 1295TIP3   OH2 3827   4.363   3.771   3.984
 1295TIP3    H1 3828   4.299   3.811   3.925
 1295TIP3    H2 3829   4.334   3.680   3.991
 1296TIP3   OH2 3830   1.514   5.366   3.814
 1296TIP3    H1 3831   1.427   5.406   3.822
 1296TIP3    H2 3832   1.563   5.428   3.760
 1297TIP3   OH2 3833   6.191   6.891   1.374
 1297TIP3    H1 3834   6.107   6.884   1.328
 1297TIP3    H2 3835   6.168   6.889   1.467
 1298TIP3   OH2 3836   5.751   3.196   3.840
 1298TIP3    H1 3837   5.761   3.290   3.853
 1298TIP3    H2 3838   5.662   3.177   3.868
 1299TIP3   OH2 3839   0.823   4.570   5.185
 1299TIP3    H1 3840   0.838   4.490   5.236
 1299TIP3    H2 3841   0.871   4.556   5.103
 1300TIP3   OH2 3842   0.813   7.159   0.161
 1300TIP3    H1 3843   0.779   7.131   0.076
 1300TIP3    H2 3844   0.790   7.252   0.167
 1301TIP3   OH2 3845   8.162   1.135   5.113
 1301TIP3    H1 3846   8.183   1.057   5.165
 1301TIP3    H2 3847   8.194   1.115   5.025
 1302TIP3   OH2 3848   2.685   0.270   4.390
 1302TIP3    H1 3849   2.612   0.242   4.335
 1302TIP3    H2 3850   2.675   0.221   4.471
 1303TIP3   OH2 3851   6.834   3.792   3.116
 1303TIP3    H1 3852   6.917   3.762   3.080
 1303TIP3    H2 3853   6.778   3.714   3.115
 1304TIP3   OH2 3854   8.128   7.473   3.687
 1304TIP3    H1 3855   8.109   7.478   3.594
 1304TIP3    H2 3856   8.205   7.529   3.700
 1305TIP3   OH2 3857   3.039   7.012   5.072
 1305TIP3    H1 3858   3.105   6.968   5.018
 1305TIP3    H2 3859   2.977   7.049   5.008
 1306TIP3   OH2 3860   4.607   1.882   0.065
 1306TIP3    H1 3861   4.663   1.932   0.006
 1306TIP3    H2 3862   4.599   1.797   0.024
 1307TIP3   OH2 3863   3.191   3.842   2.959
 1307TIP3    H1 3864   3.254   3.823   3.030
 1307TIP3    H2 3865   3.244   3.885   2.892
 1308TIP3   OH2 3866   8.006   3.305   1.577
 1308TIP3    H1 3867   8.058   3.279   1.501
 1308TIP3    H2 3868   8.062   3.368   1.624
 1309TIP3   OH2 3869   2.407   0.778   3.879
 1309TIP3    H1 3870   2.461   0.813   3.808
 1309TIP3    H2 3871   2.444   0.692   3.896
 1310TIP3   OH2 3872   3.759   6.365   0.992
 1310TIP3    H1 3873   3.797   6.436   1.044
 1310TIP3    H2 3874   3.744   6.404   0.906
 1311TIP3   OH2 3875   7.497   1.284   1.127
 1311TIP3    H1 3876   7.514   1.317   1.039
 1311TIP3    H2 3877   7.490   1.362   1.182
 1312TIP3   OH2 3878   3.768   4.415   1.472
 1312TIP3    H1 3879   3.828   4.484   1.443
 1312TIP3    H2 3880   3.771   4.350   1.402
 1313TIP3   OH2 3881   7.903   2.303   3.318
 1313TIP3    H1 3882   7.822   2.253   3.323
 1313TIP3    H2 3883   7.972   2.236   3.319
 1314TIP3   OH2 3884   7.447   2.212   6.656
 1314TIP3    H1 3885   7.498   2.273   6.602
 1314TIP3    H2 3886   7.512   2.157   6.698
 1315TIP3   OH2 3887   6.967   4.719   6.312
 1315TIP3    H1 3888   6.953   4.808   6.346
 1315TIP3    H2 3889   7.053   4.722   6.271
 1316TIP3   OH2 3890   0.771   6.830   1.262
 1316TIP3    H1 3891   0.783   6.925   1.262
 1316TIP3    H2 3892   0.835   6.798   1.325
 1317TIP3   OH2 3893   2.230   0.072   3.724
 1317TIP3    H1 3894   2.296   0.135   3.697
 1317TIP3    H2 3895   2.266  -0.013   3.699
 1318TIP3   OH2 3896   7.779   1.621   4.044
 1318TIP3    H1 3897   7.778   1.580   4.130
 1318TIP3    H2 3898   7.858   1.587   4.002
 1319TIP3   OH2 3899   2.251   7.808   5.784
 1319TIP3    H1 3900   2.269   7.842   5.697
 1319TIP3    H2 3901   2.182   7.744   5.771
 1320TIP3   OH2 3902   5.626   7.502   6.520
 1320TIP3    H1 3903   5.636   7.408   6.505
 1320TIP3    H2 3904   5.552   7.528   6.466
 1321TIP3   OH2 3905   3.820   6.985   2.825
 1321TIP3    H1 3906   3.736   6.976   2.868
 1321TIP3    H2 3907   3.800   6.987   2.731
 1322TIP3   OH2 3908   8.287   2.568   5.633
 1322TIP3    H1 3909   8.314   2.551   5.543
 1322TIP3    H2 3910   8.341   2.508   5.685
 1323TIP3   OH2 3911   2.495   5.337   2.720
 1323TIP3    H1 3912   2.590   5.334   2.707
 1323TIP3    H2 3913   2.459   5.309   2.636
 1324TIP3   OH2 3914   2.527   6.694   0.758
 1324TIP3    H1 3915   2.465   6.705   0.686
 1324TIP3    H2 3916   2.490   6.746   0.829
 1325TIP3   OH2 3917   1.834   1.422   0.800
 1325TIP3    H1 3918   1.750   1.467   0.808
 1325TIP3    H2 3919   1.847   1.412   0.706
 1326TIP3   OH2 3920   6.265   2.046   4.524
 1326TIP3    H1 3921   6.278   2.141   4.525
 1326TIP3    H2 3922   6.349   2.010   4.496
 1327TIP3   OH2 3923   1.029   5.551   3.962
 1327TIP3    H1 3924   0.998   5.641   3.975
 1327TIP3    H2 3925   0.949   5.498   3.967
 1328TIP3   OH2 3926   8.109   4.262   0.898
 1328TIP3    H1 3927   8.016   4.249   0.881
 1328TIP3    H2 3928   8.153   4.218   0.825
 1329TIP3   OH2 3929   3.571   4.592   1.885
 1329TIP3    H1 3930   3.505   4.640   1.935
 1329TIP3    H2 3931   3.555   4.617   1.794
 1330TIP3   OH2 3932   5.336   5.511   5.924
 1330TIP3    H1 3933   5.242   5.512   5.903
 1330TIP3    H2 3934   5.339   5.531   6.018
 1331TIP3   OH2 3935   0.925   4.975   2.118
 1331TIP3    H1 3936   0.924   5.064   2.152
 1331TIP3    H2 3937   0.834   4.957   2.093
 1332TIP3   OH2 3938   1.300   5.032   0.749
 1332TIP3    H1 3939   1.364   5.101   0.769
 1332TIP3    H2 3940   1.342   4.980   0.681
 1333TIP3   OH2 3941   0.960   0.888   1.460
 1333TIP3    H1 3942   0.865   0.899   1.446
 1333TIP3    H2 3943   0.980   0.805   1.418
 1334TIP3   OH2 3944   1.960   2.152   2.352
 1334TIP3    H1 3945   1.897   2.096   2.398
 1334TIP3    H2 3946   1.946   2.239   2.390
 1335TIP3   OH2 3947   0.363   6.434   0.005
 1335TIP3    H1 3948   0.286   6.429  -0.051
 1335TIP3    H2 3949   0.424   6.370  -0.032
 1336TIP3   OH2 3950   3.641   2.732   4.157
 1336TIP3    H1 3951   3.681   2.691   4.233
 1336TIP3    H2 3952   3.605   2.660   4.106
 1337TIP3   OH2 3953   3.864   1.511   5.678
 1337TIP3    H1 3954   3.897   1.427   5.709
 1337TIP3    H2 3955   3.805   1.489   5.605
 1338TIP3   OH2 3956   5.121   4.406   5.425
 1338TIP3    H1 3957   5.068   4.486   5.426
 1338TIP3    H2 3958   5.119   4.375   5.515
 1339TIP3   OH2 3959   3.763   2.133   5.841
 1339TIP3    H1 3960   3.735   2.206   5.786
 1339TIP3    H2 3961   3.763   2.168   5.930
 1340TIP3   OH2 3962   3.322   4.789   3.478
 1340TIP3    H1 3963   3.398   4.800   3.421
 1340TIP3    H2 3964   3.358   4.788   3.567
 1341TIP3   OH2 3965   5.503   6.813   0.779
 1341TIP3    H1 3966   5.435   6.760   0.821
 1341TIP3    H2 3967   5.574   6.752   0.762
 1342TIP3   OH2 3968   5.219   7.331   2.848
 1342TIP3    H1 3969   5.196   7.239   2.858
 1342TIP3    H2 3970   5.182   7.374   2.925
 1343TIP3   OH2 3971   0.613   7.216   3.999
 1343TIP3    H1 3972   0.650   7.134   4.032
 1343TIP3    H2 3973   0.628   7.212   3.904
 1344TIP3   OH2 3974   0.739   4.629   2.312
 1344TIP3    H1 3975   0.780   4.684   2.245
 1344TIP3    H2 3976   0.648   4.622   2.285
 1345TIP3   OH2 3977   0.395   5.230   6.121
 1345TIP3    H1 3978   0.316   5.249   6.071
 1345TIP3    H2 3979   0.380   5.143   6.158
 1346TIP3   OH2 3980   1.813   5.926   0.934
 1346TIP3    H1 3981   1.822   5.995   0.868
 1346TIP3    H2 3982   1.849   5.848   0.893
 1347TIP3   OH2 3983   7.616   6.685   3.509
 1347TIP3    H1 3984   7.531   6.706   3.547
 1347TIP3    H2 3985   7.595   6.636   3.429
 1348TIP3   OH2 3986   4.933   3.820   0.724
 1348TIP3    H1 3987   4.988   3.819   0.646
 1348TIP3    H2 3988   4.956   3.902   0.768
 1349TIP3   OH2 3989   2.109   3.750   1.602
 1349TIP3    H1 3990   2.031   3.806   1.594
 1349TIP3    H2 3991   2.145   3.771   1.689
 1350TIP3   OH2 3992   2.638   2.600   6.130
 1350TIP3    H1 3993   2.604   2.598   6.040
 1350TIP3    H2 3994   2.636   2.692   6.154
 1351TIP3   OH2 3995   4.243   3.290   3.269
 1351TIP3    H1 3996   4.249   3.377   3.231
 1351TIP3    H2 3997   4.172   3.296   3.332
 1352TIP3   OH2 3998   5.137   4.153   2.067
 1352TIP3    H1 3999   5.222   4.180   2.103
 1352TIP3    H2 4000   5.085   4.233   2.066
 1353TIP3   OH2 4001   0.668   2.818   0.919
 1353TIP3    H1 4002   0.599   2.775   0.969
 1353TIP3    H2 4003   0.718   2.867   0.984
 1354TIP3   OH2 4004   4.319   6.215   1.498
 1354TIP3    H1 4005   4.368   6.133   1.503
 1354TIP3    H2 4006   4.267   6.207   1.417
 1355TIP3   OH2 4007   7.936   6.559   4.927
 1355TIP3    H1 4008   7.946   6.463   4.925
 1355TIP3    H2 4009   8.015   6.591   4.970
 1356TIP3   OH2 4010   4.279   5.284   5.953
 1356TIP3    H1 4011   4.202   5.307   6.006
 1356TIP3    H2 4012   4.251   5.298   5.862
 1357TIP3   OH2 4013   8.226   3.773   5.388
 1357TIP3    H1 4014   8.311   3.809   5.412
 1357TIP3    H2 4015   8.198   3.825   5.313
 1358TIP3   OH2 4016   1.271   1.965   5.151
 1358TIP3    H1 4017   1.352   1.992   5.107
 1358TIP3    H2 4018   1.293   1.965   5.244
 1359TIP3   OH2 4019   5.432   5.526   6.196
 1359TIP3    H1 4020   5.520   5.498   6.220
 1359TIP3    H2 4021   5.376   5.452   6.218
 1360TIP3   OH2 4022   5.243   0.818   1.312
 1360TIP3    H1 4023   5.195   0.749   1.359
 1360TIP3    H2 4024   5.329   0.779   1.294
 1361TIP3   OH2 4025   2.289   1.648   2.268
 1361TIP3    H1 4026   2.327   1.710   2.206
 1361TIP3    H2 4027   2.216   1.695   2.308
 1362TIP3   OH2 4028   4.023   0.906   1.149
 1362TIP3    H1 4029   4.108   0.862   1.157
 1362TIP3    H2 4030   3.976   0.857   1.082
 1363TIP3   OH2 4031   4.462   5.145   6.581
 1363TIP3    H1 4032   4.499   5.187   6.503
 1363TIP3    H2 4033   4.490   5.201   6.653
 1364TIP3   OH2 4034   5.243   6.797   4.405
 1364TIP3    H1 4035   5.224   6.724   4.345
 1364TIP3    H2 4036   5.219   6.875   4.356
 1365TIP3   OH2 4037   4.739   3.006   2.285
 1365TIP3    H1 4038   4.823   3.041   2.313
 1365TIP3    H2 4039   4.752   2.911   2.285
 1366TIP3   OH2 4040   0.430   3.500   2.752
 1366TIP3    H1 4041   0.525   3.515   2.746
 1366TIP3    H2 4042   0.422   3.415   2.794
 1367TIP3   OH2 4043   5.452   6.672   5.516
 1367TIP3    H1 4044   5.533   6.717   5.540
 1367TIP3    H2 4045   5.406   6.659   5.599
 1368TIP3   OH2 4046   1.293   0.067   1.104
 1368TIP3    H1 4047   1.358   0.136   1.088
 1368TIP3    H2 4048   1.258   0.088   1.191
 1369TIP3   OH2 4049   8.193   1.806   3.901
 1369TIP3    H1 4050   8.237   1.891   3.892
 1369TIP3    H2 4051   8.106   1.820   3.863
 1370TIP3   OH2 4052   3.742   1.771   3.229
 1370TIP3    H1 4053   3.827   1.809   3.250
 1370TIP3    H2 4054   3.728   1.704   3.295
 1371TIP3   OH2 4055   0.656   3.892   3.527
 1371TIP3    H1 4056   0.595   3.960   3.498
 1371TIP3    H2 4057   0.714   3.879   3.452
 1372TIP3   OH2 4058   6.522   5.272   4.130
 1372TIP3    H1 4059   6.519   5.225   4.213
 1372TIP3    H2 4060   6.588   5.225   4.078
 1373TIP3   OH2 4061   4.721   0.268   1.758
 1373TIP3    H1 4062   4.792   0.332   1.766
 1373TIP3    H2 4063   4.744   0.215   1.681
 1374TIP3   OH2 4064   6.048   7.064   1.820
 1374TIP3    H1 4065   5.995   7.078   1.899
 1374TIP3    H2 4066   6.005   7.117   1.753
 1375TIP3   OH2 4067   1.380   4.700   1.092
 1375TIP3    H1 4068   1.334   4.783   1.083
 1375TIP3    H2 4069   1.424   4.705   1.177
 1376TIP3   OH2 4070   2.620   4.765   5.421
 1376TIP3    H1 4071   2.607   4.838   5.483
 1376TIP3    H2 4072   2.615   4.806   5.335
 1377TIP3   OH2 4073   7.025   1.578   1.297
 1377TIP3    H1 4074   7.004   1.600   1.206
 1377TIP3    H2 4075   6.950   1.610   1.347
 1378TIP3   OH2 4076   6.084   1.761   4.831
 1378TIP3    H1 4077   6.010   1.701   4.820
 1378TIP3    H2 4078   6.160   1.711   4.799
 1379TIP3   OH2 4079   6.777   2.520   0.540
 1379TIP3    H1 4080   6.838   2.478   0.601
 1379TIP3    H2 4081   6.822   2.517   0.455
 1380TIP3   OH2 4082   0.192   5.967   3.975
 1380TIP3    H1 4083   0.115   6.022   3.963
 1380TIP3    H2 4084   0.167   5.881   3.939
 1381TIP3   OH2 4085   0.838   7.198   5.112
 1381TIP3    H1 4086   0.762   7.178   5.166
 1381TIP3    H2 4087   0.810   7.175   5.023
 1382TIP3   OH2 4088   4.500   4.390   3.385
 1382TIP3    H1 4089   4.407   4.381   3.366
 1382TIP3    H2 4090   4.529   4.463   3.329
 1383TIP3   OH2 4091   6.385   5.169   4.382
 1383TIP3    H1 4092   6.289   5.172   4.385
 1383TIP3    H2 4093   6.405   5.088   4.336
 1384TIP3   OH2 4094   5.782   1.510   1.208
 1384TIP3    H1 4095   5.745   1.456   1.278
 1384TIP3    H2 4096   5.778   1.455   1.130
 1385TIP3   OH2 4097   6.479   0.529   5.799
 1385TIP3    H1 4098   6.398   0.579   5.809
 1385TIP3    H2 4099   6.547   0.588   5.831
 1386TIP3   OH2 4100   3.496   2.604   1.310
 1386TIP3    H1 4101   3.526   2.573   1.225
 1386TIP3    H2 4102   3.557   2.566   1.373
 1387TIP3   OH2 4103   5.633   5.323   6.237
 1387TIP3    H1 4104   5.706   5.339   6.178
 1387TIP3    H2 4105   5.588   5.247   6.199
 1388TIP3   OH2 4106   2.050   1.594   2.760
 1388TIP3    H1 4107   2.117   1.647   2.803
 1388TIP3    H2 4108   2.078   1.504   2.776
 1389TIP3   OH2 4109   5.919   3.273   5.267
 1389TIP3    H1 4110   5.961   3.354   5.238
 1389TIP3    H2 4111   5.930   3.213   5.193
 1390TIP3   OH2 4112   4.129   2.388   2.774
 1390TIP3    H1 4113   4.109   2.396   2.681
 1390TIP3    H2 4114   4.096   2.301   2.798
 1391TIP3   OH2 4115   7.873   6.455   6.126
 1391TIP3    H1 4116   7.928   6.509   6.070
 1391TIP3    H2 4117   7.901   6.477   6.215
 1392TIP3   OH2 4118   3.291   0.603   2.591
 1392TIP3    H1 4119   3.300   0.538   2.521
 1392TIP3    H2 4120   3.336   0.563   2.666
 1393TIP3   OH2 4121   5.109   0.354   3.964
 1393TIP3    H1 4122   5.168   0.428   3.951
 1393TIP3    H2 4123   5.022   0.388   3.942
 1394TIP3   OH2 4124   1.671   6.838   2.227
 1394TIP3    H1 4125   1.711   6.756   2.198
 1394TIP3    H2 4126   1.694   6.902   2.160
 1395TIP3   OH2 4127   3.524   4.990  -0.035
 1395TIP3    H1 4128   3.534   4.944   0.048
 1395TIP3    H2 4129   3.596   5.053  -0.036
 1396TIP3   OH2 4130   3.441   4.756   2.055
 1396TIP3    H1 4131   3.465   4.841   2.019
 1396TIP3    H2 4132   3.431   4.770   2.149
 1397TIP3   OH2 4133   4.036   6.464   6.231
 1397TIP3    H1 4134   3.961   6.406   6.240
 1397TIP3    H2 4135   4.041   6.510   6.315
 1398TIP3   OH2 4136   2.444   1.173   3.206
 1398TIP3    H1 4137   2.365   1.119   3.202
 1398TIP3    H2 4138   2.515   1.111   3.218
 1399TIP3   OH2 4139   4.181   2.955   6.037
 1399TIP3    H1 4140   4.163   3.037   5.991
 1399TIP3    H2 4141   4.164   2.887   5.973
 1400TIP3   OH2 4142   0.516   3.245   4.758
 1400TIP3    H1 4143   0.580   3.255   4.688
 1400TIP3    H2 4144   0.556   3.183   4.819
 1401TIP3   OH2 4145   1.731   7.474   3.408
 1401TIP3    H1 4146   1.824   7.465   3.388
 1401TIP3    H2 4147   1.694   7.387   3.393
 1402TIP3   OH2 4148   8.188   5.483   1.694
 1402TIP3    H1 4149   8.154   5.572   1.692
 1402TIP3    H2 4150   8.180   5.456   1.786
 1403TIP3   OH2 4151   7.290   4.792   5.052
 1403TIP3    H1 4152   7.197   4.807   5.072
 1403TIP3    H2 4153   7.297   4.697   5.046
 1404TIP3   OH2 4154   1.639   6.900   4.362
 1404TIP3    H1 4155   1.548   6.924   4.381
 1404TIP3    H2 4156   1.638   6.866   4.273
 1405TIP3   OH2 4157   4.664   6.762   1.010
 1405TIP3    H1 4158   4.697   6.843   0.972
 1405TIP3    H2 4159   4.663   6.778   1.104
 1406TIP3   OH2 4160   3.532   4.544   6.756
 1406TIP3    H1 4161   3.591   4.591   6.815
 1406TIP3    H2 4162   3.510   4.607   6.688
 1407TIP3   OH2 4163   5.855   2.360   5.120
 1407TIP3    H1 4164   5.824   2.363   5.029
 1407TIP3    H2 4165   5.927   2.297   5.118
 1408TIP3   OH2 4166   0.601   6.526   4.921
 1408TIP3    H1 4167   0.694   6.545   4.909
 1408TIP3    H2 4168   0.581   6.461   4.854
 1409TIP3   OH2 4169   6.981   6.354   0.255
 1409TIP3    H1 4170   7.064   6.363   0.209
 1409TIP3    H2 4171   6.965   6.260   0.257
 1410TIP3   OH2 4172   0.207   6.795   0.504
 1410TIP3    H1 4173   0.279   6.856   0.519
 1410TIP3    H2 4174   0.218   6.728   0.571
 1411TIP3   OH2 4175   1.601   0.191   1.731
 1411TIP3    H1 4176   1.593   0.273   1.780
 1411TIP3    H2 4177   1.525   0.139   1.759
 1412TIP3   OH2 4178   3.588   7.196   0.192
 1412TIP3    H1 4179   3.563   7.109   0.159
 1412TIP3    H2 4180   3.505   7.242   0.205
 1413TIP3   OH2 4181   1.141   4.674   3.206
 1413TIP3    H1 4182   1.166   4.717   3.124
 1413TIP3    H2 4183   1.211   4.612   3.223
 1414TIP3   OH2 4184   7.419   4.518   2.399
 1414TIP3    H1 4185   7.439   4.428   2.424
 1414TIP3    H2 4186   7.368   4.553   2.472
 1415TIP3   OH2 4187   5.424   3.622   5.686
 1415TIP3    H1 4188   5.483   3.682   5.640
 1415TIP3    H2 4189   5.342   3.625   5.637
 1416TIP3   OH2 4190   7.487   1.565   3.227
 1416TIP3    H1 4191   7.438   1.542   3.306
 1416TIP3    H2 4192   7.472   1.659   3.216
 1417TIP3   OH2 4193   2.968   7.511   6.364
 1417TIP3    H1 4194   3.052   7.557   6.360
 1417TIP3    H2 4195   2.988   7.421   6.336
 1418TIP3   OH2 4196   0.891   1.714   6.272
 1418TIP3    H1 4197   0.803   1.707   6.234
 1418TIP3    H2 4198   0.884   1.668   6.356
 1419TIP3   OH2 4199   0.059   3.536   1.526
 1419TIP3    H1 4200   0.113   3.464   1.561
 1419TIP3    H2 4201  -0.006   3.553   1.594
 1420TIP3   OH2 4202   6.806   4.551   1.885
 1420TIP3    H1 4203   6.852   4.633   1.902
 1420TIP3    H2 4204   6.821   4.534   1.792
 1421TIP3   OH2 4205   3.097   1.306   0.585
 1421TIP3    H1 4206   3.024   1.301   0.524
 1421TIP3    H2 4207   3.094   1.395   0.620
 1422TIP3   OH2 4208   1.885   6.011   1.187
 1422TIP3    H1 4209   1.811   5.993   1.245
 1422TIP3    H2 4210   1.858   5.976   1.102
 1423TIP3   OH2 4211   3.529   7.737   1.234
 1423TIP3    H1 4212   3.448   7.786   1.231
 1423TIP3    H2 4213   3.570   7.761   1.317
 1424TIP3   OH2 4214   1.897   6.335   0.622
 1424TIP3    H1 4215   1.972   6.374   0.666
 1424TIP3    H2 4216   1.870   6.401   0.558
 1425TIP3   OH2 4217   3.737   2.375   0.597
 1425TIP3    H1 4218   3.670   2.340   0.537
 1425TIP3    H2 4219   3.736   2.315   0.671
 1426TIP3   OH2 4220   6.097   2.281   4.356
 1426TIP3    H1 4221   6.145   2.216   4.306
 1426TIP3    H2 4222   6.163   2.326   4.408
 1427TIP3   OH2 4223   8.018   3.418   0.721
 1427TIP3    H1 4224   8.083   3.361   0.760
 1427TIP3    H2 4225   8.042   3.506   0.751
 1428TIP3   OH2 4226   6.483   7.668   4.470
 1428TIP3    H1 4227   6.425   7.671   4.546
 1428TIP3    H2 4228   6.433   7.709   4.400
 1429TIP3   OH2 4229   7.953   2.840   4.348
 1429TIP3    H1 4230   8.044   2.840   4.378
 1429TIP3    H2 4231   7.955   2.791   4.266
 1430TIP3   OH2 4232   0.630   4.975   1.083
 1430TIP3    H1 4233   0.654   4.900   1.138
 1430TIP3    H2 4234   0.603   4.937   1.000
 1431TIP3   OH2 4235   0.640   1.838   1.858
 1431TIP3    H1 4236   0.622   1.883   1.941
 1431TIP3    H2 4237   0.670   1.751   1.884
 1432TIP3   OH2 4238   1.613   7.394   5.736
 1432TIP3    H1 4239   1.562   7.420   5.659
 1432TIP3    H2 4240   1.585   7.305   5.755
 1433TIP3   OH2 4241   5.392   1.880   1.839
 1433TIP3    H1 4242   5.374   1.911   1.750
 1433TIP3    H2 4243   5.318   1.911   1.891
 1434TIP3   OH2 4244   2.611   7.237   3.049
 1434TIP3    H1 4245   2.582   7.175   2.982
 1434TIP3    H2 4246   2.676   7.189   3.100
 1435TIP3   OH2 4247   2.879   1.870   6.411
 1435TIP3    H1 4248   2.798   1.825   6.435
 1435TIP3    H2 4249   2.892   1.847   6.319
 1436TIP3   OH2 4250   0.647   1.171   0.605
 1436TIP3    H1 4251   0.560   1.137   0.626
 1436TIP3    H2 4252   0.679   1.206   0.688
 1437TIP3   OH2 4253   5.751   4.032   5.936
 1437TIP3    H1 4254   5.763   3.940   5.962
 1437TIP3    H2 4255   5.822   4.049   5.875
 1438TIP3   OH2 4256   0.241   5.137   4.629
 1438TIP3    H1 4257   0.197   5.217   4.658
 1438TIP3    H2 4258   0.320   5.133   4.683
 1439TIP3   OH2 4259   0.410   3.238   3.311
 1439TIP3    H1 4260   0.401   3.224   3.217
 1439TIP3    H2 4261   0.473   3.172   3.339
 1440TIP3   OH2 4262   6.861   5.439   0.630
 1440TIP3    H1 4263   6.829   5.353   0.604
 1440TIP3    H2 4264   6.872   5.487   0.548
 1441TIP3   OH2 4265   5.196   0.621   0.393
 1441TIP3    H1 4266   5.285   0.603   0.422
 1441TIP3    H2 4267   5.189   0.581   0.307
 1442TIP3   OH2 4268   5.253   2.074   1.673
 1442TIP3    H1 4269   5.242   2.134   1.600
 1442TIP3    H2 4270   5.213   2.120   1.747
 1443TIP3   OH2 4271   0.069   5.104   6.397
 1443TIP3    H1 4272   0.087   5.026   6.345
 1443TIP3    H2 4273  -0.014   5.137   6.362
 1444TIP3   OH2 4274   2.003   7.529   0.467
 1444TIP3    H1 4275   2.046   7.509   0.384
 1444TIP3    H2 4276   2.039   7.466   0.529
 1445TIP3   OH2 4277   6.002   6.671   3.138
 1445TIP3    H1 4278   5.988   6.695   3.046
 1445TIP3    H2 4279   6.092   6.636   3.140
 1446TIP3   OH2 4280   7.583   5.503   1.012
 1446TIP3    H1 4281   7.524   5.549   1.073
 1446TIP3    H2 4282   7.527   5.482   0.937
 1447TIP3   OH2 4283   4.020   7.430   5.442
 1447TIP3    H1 4284   4.012   7.518   5.405
 1447TIP3    H2 4285   3.966   7.375   5.385
 1448TIP3   OH2 4286   6.543   6.807   1.019
 1448TIP3    H1 4287   6.580   6.850   1.096
 1448TIP3    H2 4288   6.564   6.865   0.946
 1449TIP3   OH2 4289   2.855   5.766   3.047
 1449TIP3    H1 4290   2.938   5.784   3.003
 1449TIP3    H2 4291   2.814   5.852   3.055
 1450TIP3   OH2 4292   1.763   5.236   1.972
 1450TIP3    H1 4293   1.827   5.291   2.018
 1450TIP3    H2 4294   1.806   5.215   1.889
 1451TIP3   OH2 4295   1.941   2.025   4.686
 1451TIP3    H1 4296   1.907   2.114   4.675
 1451TIP3    H2 4297   1.891   1.989   4.760
 1452TIP3   OH2 4298   3.409   4.190   1.107
 1452TIP3    H1 4299   3.323   4.159   1.078
 1452TIP3    H2 4300   3.419   4.275   1.064
 1453TIP3   OH2 4301   1.771   4.201   0.101
 1453TIP3    H1 4302   1.741   4.277   0.150
 1453TIP3    H2 4303   1.771   4.229   0.010
 1454TIP3   OH2 4304   0.090   7.442   0.949
 1454TIP3    H1 4305   0.048   7.422   0.866
 1454TIP3    H2 4306   0.123   7.532   0.939
 1455TIP3   OH2 4307   0.005   7.311   6.715
 1455TIP3    H1 4308   0.078   7.315   6.653
 1455TIP3    H2 4309  -0.073   7.312   6.660
 1456TIP3   OH2 4310   1.591   3.641   1.851
 1456TIP3    H1 4311   1.577   3.729   1.884
 1456TIP3    H2 4312   1.579   3.584   1.928
 1457TIP3   OH2 4313   1.521   1.597   3.805
 1457TIP3    H1 4314   1.465   1.533   3.849
 1457TIP3    H2 4315   1.466   1.631   3.734
 1458TIP3   OH2 4316   7.773   2.974   1.373
 1458TIP3    H1 4317   7.702   2.970   1.437
 1458TIP3    H2 4318   7.766   3.061   1.333
 1459TIP3   OH2 4319   7.173   7.212   0.135
 1459TIP3    H1 4320   7.084   7.202   0.170
 1459TIP3    H2 4321   7.197   7.302   0.158
 1460TIP3   OH2 4322   0.819   5.602   3.015
 1460TIP3    H1 4323   0.829   5.514   2.980
 1460TIP3    H2 4324   0.900   5.618   3.064
 1461TIP3   OH2 4325   3.852   4.271   0.102
 1461TIP3    H1 4326   3.944   4.280   0.075
 1461TIP3    H2 4327   3.856   4.244   0.194
 1462TIP3   OH2 4328   5.119   5.559   2.366
 1462TIP3    H1 4329   5.074   5.475   2.357
 1462TIP3    H2 4330   5.178   5.547   2.440
 1463TIP3   OH2 4331   6.732   6.287   5.641
 1463TIP3    H1 4332   6.824   6.300   5.622
 1463TIP3    H2 4333   6.707   6.365   5.691
 1464TIP3   OH2 4334   7.407   4.900   2.419
 1464TIP3    H1 4335   7.357   4.982   2.421
 1464TIP3    H2 4336   7.484   4.920   2.365
 1465TIP3   OH2 4337   7.533   1.080   4.730
 1465TIP3    H1 4338   7.602   1.017   4.706
 1465TIP3    H2 4339   7.470   1.075   4.658
 1466TIP3   OH2 4340   1.219   3.946   5.426
 1466TIP3    H1 4341   1.185   3.998   5.353
 1466TIP3    H2 4342   1.194   3.994   5.504
 1467TIP3   OH2 4343   2.054  -0.033   2.253
 1467TIP3    H1 4344   2.007  -0.088   2.316
 1467TIP3    H2 4345   2.137  -0.013   2.296
 1468TIP3   OH2 4346   7.729   4.467   5.268
 1468TIP3    H1 4347   7.703   4.434   5.354
 1468TIP3    H2 4348   7.762   4.555   5.285
 1469TIP3   OH2 4349   5.903   0.269   6.042
 1469TIP3    H1 4350   5.925   0.216   6.119
 1469TIP3    H2 4351   5.814   0.242   6.020
 1470TIP3   OH2 4352   5.259   3.396   1.613
 1470TIP3    H1 4353   5.304   3.314   1.592
 1470TIP3    H2 4354   5.168   3.370   1.624
 1471TIP3   OH2 4355   7.272   0.576   1.299
 1471TIP3    H1 4356   7.361   0.575   1.335
 1471TIP3    H2 4357   7.285   0.566   1.205
 1472TIP3   OH2 4358   1.436   0.168   5.924
 1472TIP3    H1 4359   1.385   0.102   5.876
 1472TIP3    H2 4360   1.522   0.127   5.937
 1473TIP3   OH2 4361   3.669   7.154   1.437
 1473TIP3    H1 4362   3.708   7.210   1.370
 1473TIP3    H2 4363   3.739   7.140   1.501
 1474TIP3   OH2 4364   0.278   0.468   5.510
 1474TIP3    H1 4365   0.238   0.546   5.550
 1474TIP3    H2 4366   0.224   0.396   5.542
 1475TIP3   OH2 4367   1.492   7.020   2.449
 1475TIP3    H1 4368   1.586   7.009   2.439
 1475TIP3    H2 4369   1.455   6.934   2.429
 1476TIP3   OH2 4370   3.998   1.116   5.477
 1476TIP3    H1 4371   3.903   1.111   5.464
 1476TIP3    H2 4372   4.032   1.038   5.433
 1477TIP3   OH2 4373   5.794   0.743   4.069
 1477TIP3    H1 4374   5.711   0.709   4.102
 1477TIP3    H2 4375   5.822   0.680   4.003
 1478TIP3   OH2 4376   5.152   3.633   6.236
 1478TIP3    H1 4377   5.188   3.719   6.215
 1478TIP3    H2 4378   5.092   3.649   6.308
 1479TIP3   OH2 4379   5.957   5.858   0.264
 1479TIP3    H1 4380   6.050   5.877   0.274
 1479TIP3    H2 4381   5.913   5.933   0.303
 1480TIP3   OH2 4382   5.619   5.150   2.908
 1480TIP3    H1 4383   5.713   5.155   2.926
 1480TIP3    H2 4384   5.582   5.224   2.956
 1481TIP3   OH2 4385   4.687   3.321   5.640
 1481TIP3    H1 4386   4.731   3.308   5.724
 1481TIP3    H2 4387   4.611   3.375   5.660
 1482TIP3   OH2 4388   3.035   0.798   5.148
 1482TIP3    H1 4389   3.021   0.766   5.059
 1482TIP3    H2 4390   3.001   0.728   5.204
 1483TIP3   OH2 4391   2.720   4.701   1.201
 1483TIP3    H1 4392   2.625   4.716   1.203
 1483TIP3    H2 4393   2.757   4.786   1.177
 1484TIP3   OH2 4394   6.630   7.478   2.290
 1484TIP3    H1 4395   6.650   7.541   2.221
 1484TIP3    H2 4396   6.716   7.449   2.322
 1485TIP3   OH2 4397   5.659   7.055   5.658
 1485TIP3    H1 4398   5.574   7.051   5.616
 1485TIP3    H2 4399   5.688   6.964   5.663
 1486TIP3   OH2 4400   1.546   1.780   4.622
 1486TIP3    H1 4401   1.555   1.853   4.683
 1486TIP3    H2 4402   1.458   1.792   4.584
 1487TIP3   OH2 4403   3.720   5.950   2.020
 1487TIP3    H1 4404   3.776   5.872   2.029
 1487TIP3    H2 4405   3.631   5.916   2.026
 1488TIP3   OH2 4406   5.979   6.849   5.042
 1488TIP3    H1 4407   6.012   6.935   5.067
 1488TIP3    H2 4408   6.054   6.790   5.056
 1489TIP3   OH2 4409   4.800   0.581   1.706
 1489TIP3    H1 4410   4.706   0.583   1.723
 1489TIP3    H2 4411   4.838   0.636   1.775
 1490TIP3   OH2 4412   8.223   7.593   1.414
 1490TIP3    H1 4413   8.160   7.601   1.486
 1490TIP3    H2 4414   8.180   7.636   1.340
 1491TIP3   OH2 4415   2.707   1.406   1.412
 1491TIP3    H1 4416   2.715   1.355   1.493
 1491TIP3    H2 4417   2.614   1.404   1.392
 1492TIP3   OH2 4418   4.878   5.992   3.628
 1492TIP3    H1 4419   4.872   6.079   3.590
 1492TIP3    H2 4420   4.849   5.933   3.558
 1493TIP3   OH2 4421   7.436   6.073   1.175
 1493TIP3    H1 4422   7.485   6.001   1.135
 1493TIP3    H2 4423   7.499   6.115   1.233
 1494TIP3   OH2 4424   1.369   4.931   4.208
 1494TIP3    H1 4425   1.369   4.933   4.113
 1494TIP3    H2 4426   1.393   5.020   4.234
 1495TIP3   OH2 4427   0.982   1.982   6.301
 1495TIP3    H1 4428   1.000   1.970   6.394
 1495TIP3    H2 4429   0.967   1.894   6.267
 1496TIP3   OH2 4430   1.770   7.593   4.675
 1496TIP3    H1 4431   1.803   7.616   4.762
 1496TIP3    H2 4432   1.842   7.542   4.636
 1497TIP3   OH2 4433   0.864   2.630   1.903
 1497TIP3    H1 4434   0.884   2.700   1.964
 1497TIP3    H2 4435   0.949   2.592   1.880
 1498TIP3   OH2 4436   2.621   6.688   0.363
 1498TIP3    H1 4437   2.571   6.625   0.413
 1498TIP3    H2 4438   2.561   6.762   0.350
 1499TIP3   OH2 4439   5.522   1.663   0.769
 1499TIP3    H1 4440   5.447   1.620   0.728
 1499TIP3    H2 4441   5.561   1.715   0.699
 1500TIP3   OH2 4442   3.758   2.813   1.680
 1500TIP3    H1 4443   3.667   2.791   1.697
 1500TIP3    H2 4444   3.755   2.881   1.612
 1501TIP3   OH2 4445   6.346   2.804   5.425
 1501TIP3    H1 4446   6.265   2.772   5.466
 1501TIP3    H2 4447   6.360   2.890   5.465
 1502TIP3   OH2 4448   7.902   4.494   1.330
 1502TIP3    H1 4449   7.880   4.581   1.297
 1502TIP3    H2 4450   7.964   4.510   1.401
 1503TIP3   OH2 4451   4.052   1.887   5.040
 1503TIP3    H1 4452   4.094   1.964   5.001
 1503TIP3    H2 4453   4.067   1.896   5.134
 1504TIP3   OH2 4454   2.132   7.781   2.266
 1504TIP3    H1 4455   2.079   7.714   2.309
 1504TIP3    H2 4456   2.087   7.863   2.284
 1505TIP3   OH2 4457   5.577   4.912   3.712
 1505TIP3    H1 4458   5.588   5.001   3.678
 1505TIP3    H2 4459   5.555   4.859   3.636
 1506TIP3   OH2 4460   4.137   7.284   1.696
 1506TIP3    H1 4461   4.141   7.299   1.602
 1506TIP3    H2 4462   4.089   7.202   1.706
 1507TIP3   OH2 4463   5.410   7.672   4.236
 1507TIP3    H1 4464   5.357   7.747   4.264
 1507TIP3    H2 4465   5.468   7.654   4.310
 1508TIP3   OH2 4466   3.324   2.612   2.272
 1508TIP3    H1 4467   3.291   2.523   2.277
 1508TIP3    H2 4468   3.367   2.627   2.357
 1509TIP3   OH2 4469   0.845   4.940   4.055
 1509TIP3    H1 4470   0.806   4.994   4.124
 1509TIP3    H2 4471   0.917   4.894   4.098
 1510TIP3   OH2 4472   0.298   2.409   1.724
 1510TIP3    H1 4473   0.287   2.366   1.639
 1510TIP3    H2 4474   0.382   2.376   1.757
 1511TIP3   OH2 4475   0.633   1.832   0.115
 1511TIP3    H1 4476   0.682   1.911   0.090
 1511TIP3    H2 4477   0.544   1.863   0.132
 1512TIP3   OH2 4478   6.266   1.892   0.430
 1512TIP3    H1 4479   6.211   1.944   0.489
 1512TIP3    H2 4480   6.319   1.838   0.489
 1513TIP3   OH2 4481   1.971   2.660   5.365
 1513TIP3    H1 4482   1.920   2.646   5.285
 1513TIP3    H2 4483   1.939   2.743   5.400
 1514TIP3   OH2 4484   8.036   5.179   3.493
 1514TIP3    H1 4485   8.049   5.086   3.512
 1514TIP3    H2 4486   8.106   5.224   3.540
 1515TIP3   OH2 4487   7.731   3.142   0.387
 1515TIP3    H1 4488   7.793   3.091   0.335
 1515TIP3    H2 4489   7.782   3.214   0.422
 1516TIP3   OH2 4490   1.424   1.987   3.276
 1516TIP3    H1 4491   1.348   2.033   3.310
 1516TIP3    H2 4492   1.388   1.923   3.215
 1517TIP3   OH2 4493   3.518   5.264   5.146
 1517TIP3    H1 4494   3.469   5.196   5.192
 1517TIP3    H2 4495   3.509   5.342   5.201
 1518TIP3   OH2 4496   1.254   5.474   5.789
 1518TIP3    H1 4497   1.251   5.531   5.866
 1518TIP3    H2 4498   1.324   5.411   5.809
 1519TIP3   OH2 4499   3.130   4.481   6.359
 1519TIP3    H1 4500   3.175   4.504   6.441
 1519TIP3    H2 4501   3.038   4.506   6.375
 1520TIP3   OH2 4502   5.641   4.779   4.545
 1520TIP3    H1 4503   5.702   4.751   4.613
 1520TIP3    H2 4504   5.560   4.802   4.592
 1521TIP3   OH2 4505   6.112   1.607   3.123
 1521TIP3    H1 4506   6.193   1.611   3.175
 1521TIP3    H2 4507   6.128   1.666   3.050
 1522TIP3   OH2 4508   6.887   4.606   6.570
 1522TIP3    H1 4509   6.879   4.654   6.488
 1522TIP3    H2 4510   6.930   4.668   6.630
 1523TIP3   OH2 4511   7.865   4.225   5.081
 1523TIP3    H1 4512   7.841   4.275   5.159
 1523TIP3    H2 4513   7.810   4.261   5.011
 1524TIP3   OH2 4514   0.904   7.696   4.603
 1524TIP3    H1 4515   0.862   7.780   4.585
 1524TIP3    H2 4516   0.927   7.662   4.517
 1525TIP3   OH2 4517   4.149   6.100   5.415
 1525TIP3    H1 4518   4.148   6.172   5.477
 1525TIP3    H2 4519   4.241   6.072   5.412
 1526TIP3   OH2 4520   6.478   7.602   2.836
 1526TIP3    H1 4521   6.413   7.650   2.784
 1526TIP3    H2 4522   6.442   7.514   2.843
 1527TIP3   OH2 4523   6.926   1.337   3.157
 1527TIP3    H1 4524   6.933   1.430   3.176
 1527TIP3    H2 4525   6.847   1.309   3.203
 1528TIP3   OH2 4526   0.057   2.880   4.718
 1528TIP3    H1 4527   0.130   2.822   4.741
 1528TIP3    H2 4528  -0.015   2.853   4.776
 1529TIP3   OH2 4529   4.253   3.713   6.018
 1529TIP3    H1 4530   4.283   3.743   6.103
 1529TIP3    H2 4531   4.293   3.775   5.956
 1530TIP3   OH2 4532   5.351   4.361   6.754
 1530TIP3    H1 4533   5.439   4.358   6.717
 1530TIP3    H2 4534   5.302   4.419   6.695
 1531TIP3   OH2 4535   6.129   6.510   1.477
 1531TIP3    H1 4536   6.159   6.502   1.567
 1531TIP3    H2 4537   6.041   6.548   1.484
 1532TIP3   OH2 4538   6.017   4.570   3.000
 1532TIP3    H1 4539   6.096   4.618   3.026
 1532TIP3    H2 4540   6.047   4.480   2.986
 1533TIP3   OH2 4541   3.681   2.369   5.693
 1533TIP3    H1 4542   3.684   2.352   5.599
 1533TIP3    H2 4543   3.643   2.456   5.702
 1534TIP3   OH2 4544   2.174   1.753   1.084
 1534TIP3    H1 4545   2.159   1.722   0.995
 1534TIP3    H2 4546   2.100   1.720   1.134
 1535TIP3   OH2 4547   3.866   0.975   1.452
 1535TIP3    H1 4548   3.893   1.056   1.494
 1535TIP3    H2 4549   3.827   1.003   1.369
 1536TIP3   OH2 4550   2.612   2.669   3.338
 1536TIP3    H1 4551   2.647   2.675   3.250
 1536TIP3    H2 4552   2.637   2.751   3.380
 1537TIP3   OH2 4553   0.529   6.223   1.244
 1537TIP3    H1 4554   0.458   6.160   1.249
 1537TIP3    H2 4555   0.591   6.195   1.311
 1538TIP3   OH2 4556   5.129   1.458   0.129
 1538TIP3    H1 4557   5.149   1.414   0.047
 1538TIP3    H2 4558   5.098   1.545   0.102
 1539TIP3   OH2 4559   1.186   0.302   0.119
 1539TIP3    H1 4560   1.238   0.235   0.162
 1539TIP3    H2 4561   1.228   0.315   0.034
 1540TIP3   OH2 4562   7.051   2.417   2.052
 1540TIP3    H1 4563   6.997   2.353   2.006
 1540TIP3    H2 4564   7.126   2.432   1.994
 1541TIP3   OH2 4565   8.195   0.302   1.462
 1541TIP3    H1 4566   8.119   0.246   1.446
 1541TIP3    H2 4567   8.159   0.377   1.510
 1542TIP3   OH2 4568   4.523   1.455   4.051
 1542TIP3    H1 4569   4.450   1.430   4.108
 1542TIP3    H2 4570   4.598   1.463   4.110
 1543TIP3   OH2 4571   6.306   2.194   3.527
 1543TIP3    H1 4572   6.294   2.158   3.615
 1543TIP3    H2 4573   6.263   2.279   3.530
 1544TIP3   OH2 4574   6.680   5.462   3.380
 1544TIP3    H1 4575   6.678   5.529   3.311
 1544TIP3    H2 4576   6.764   5.474   3.423
 1545TIP3   OH2 4577   7.089   4.648   4.122
 1545TIP3    H1 4578   7.077   4.628   4.030
 1545TIP3    H2 4579   7.008   4.621   4.164
 1546TIP3   OH2 4580   4.057   6.462   2.089
 1546TIP3    H1 4581   4.001   6.392   2.056
 1546TIP3    H2 4582   4.130   6.416   2.130
 1547TIP3   OH2 4583   6.313   2.404   2.344
 1547TIP3    H1 4584   6.254   2.366   2.409
 1547TIP3    H2 4585   6.384   2.442   2.396
 1548TIP3   OH2 4586   1.270   6.229   0.246
 1548TIP3    H1 4587   1.313   6.167   0.305
 1548TIP3    H2 4588   1.284   6.193   0.158
 1549TIP3   OH2 4589   5.680   0.146   4.467
 1549TIP3    H1 4590   5.600   0.192   4.442
 1549TIP3    H2 4591   5.726   0.207   4.525
 1550TIP3   OH2 4592   2.995   3.563   5.141
 1550TIP3    H1 4593   3.048   3.496   5.097
 1550TIP3    H2 4594   2.925   3.514   5.184
 1551TIP3   OH2 4595   0.265   3.634   0.569
 1551TIP3    H1 4596   0.284   3.555   0.519
 1551TIP3    H2 4597   0.287   3.706   0.510
 1552TIP3   OH2 4598   1.182   1.680   6.214
 1552TIP3    H1 4599   1.212   1.754   6.267
 1552TIP3    H2 4600   1.090   1.668   6.239
 1553TIP3   OH2 4601   5.639   6.868   1.317
 1553TIP3    H1 4602   5.581   6.830   1.384
 1553TIP3    H2 4603   5.615   6.823   1.236
 1554TIP3   OH2 4604   5.799   5.693   2.190
 1554TIP3    H1 4605   5.737   5.744   2.242
 1554TIP3    H2 4606   5.773   5.602   2.206
 1555TIP3   OH2 4607   0.673   7.037   4.603
 1555TIP3    H1 4608   0.745   6.988   4.642
 1555TIP3    H2 4609   0.653   7.106   4.667
 1556TIP3   OH2 4610   0.072   3.076   2.211
 1556TIP3    H1 4611   0.036   3.014   2.275
 1556TIP3    H2 4612   0.095   3.022   2.136
 1557TIP3   OH2 4613   0.886   0.808   6.381
 1557TIP3    H1 4614   0.952   0.851   6.436
 1557TIP3    H2 4615   0.882   0.719   6.415
 1558TIP3   OH2 4616   4.330   3.810   6.259
 1558TIP3    H1 4617   4.343   3.738   6.320
 1558TIP3    H2 4618   4.377   3.884   6.298
 1559TIP3   OH2 4619   3.661   7.415   2.479
 1559TIP3    H1 4620   3.663   7.337   2.534
 1559TIP3    H2 4621   3.656   7.381   2.390
 1560TIP3   OH2 4622   6.956   4.456   0.748
 1560TIP3    H1 4623   7.033   4.424   0.795
 1560TIP3    H2 4624   6.948   4.397   0.673
 1561TIP3   OH2 4625   7.230   5.538   0.236
 1561TIP3    H1 4626   7.309   5.535   0.182
 1561TIP3    H2 4627   7.161   5.503   0.180
 1562TIP3   OH2 4628   5.672   5.163   4.927
 1562TIP3    H1 4629   5.720   5.239   4.896
 1562TIP3    H2 4630   5.613   5.140   4.856
 1563TIP3   OH2 4631   5.669   3.871   0.789
 1563TIP3    H1 4632   5.711   3.953   0.814
 1563TIP3    H2 4633   5.647   3.829   0.872
 1564TIP3   OH2 4634   6.132   4.306   1.364
 1564TIP3    H1 4635   6.189   4.380   1.385
 1564TIP3    H2 4636   6.129   4.255   1.445
 1565TIP3   OH2 4637   7.814   0.238   0.116
 1565TIP3    H1 4638   7.827   0.144   0.100
 1565TIP3    H2 4639   7.864   0.282   0.048
 1566TIP3   OH2 4640   3.650   7.463   6.356
 1566TIP3    H1 4641   3.733   7.452   6.402
 1566TIP3    H2 4642   3.619   7.374   6.340
 1567TIP3   OH2 4643   4.374   5.841   5.710
 1567TIP3    H1 4644   4.400   5.842   5.617
 1567TIP3    H2 4645   4.451   5.874   5.756
 1568TIP3   OH2 4646   7.359  -0.020   3.179
 1568TIP3    H1 4647   7.370   0.030   3.098
 1568TIP3    H2 4648   7.275   0.010   3.214
 1569TIP3   OH2 4649   0.129   3.993   4.997
 1569TIP3    H1 4650   0.151   4.070   4.945
 1569TIP3    H2 4651   0.212   3.962   5.032
 1570TIP3   OH2 4652   0.606   5.043   3.000
 1570TIP3    H1 4653   0.558   5.002   2.928
 1570TIP3    H2 4654   0.550   5.032   3.076
 1571TIP3   OH2 4655   0.149   4.479   1.519
 1571TIP3    H1 4656   0.121   4.393   1.551
 1571TIP3    H2 4657   0.107   4.541   1.577
 1572TIP3   OH2 4658   0.081   7.235   2.746
 1572TIP3    H1 4659   0.164   7.244   2.793
 1572TIP3    H2 4660   0.103   7.255   2.655
 1573TIP3   OH2 4661   2.189   5.543   0.899
 1573TIP3    H1 4662   2.107   5.495   0.891
 1573TIP3    H2 4663   2.241   5.517   0.823
 1574TIP3   OH2 4664   3.995   0.646   5.316
 1574TIP3    H1 4665   4.031   0.683   5.235
 1574TIP3    H2 4666   4.051   0.570   5.334
 1575TIP3   OH2 4667   4.675   4.082   4.985
 1575TIP3    H1 4668   4.647   3.992   5.003
 1575TIP3    H2 4669   4.637   4.102   4.900
 1576TIP3   OH2 4670   0.452   0.908   2.878
 1576TIP3    H1 4671   0.486   0.823   2.907
 1576TIP3    H2 4672   0.357   0.900   2.890
 1577TIP3   OH2 4673   8.251   7.238   1.325
 1577TIP3    H1 4674   8.192   7.291   1.378
 1577TIP3    H2 4675   8.301   7.187   1.388
 1578TIP3   OH2 4676   1.835   4.297   4.237
 1578TIP3    H1 4677   1.797   4.371   4.189
 1578TIP3    H2 4678   1.914   4.333   4.276
 1579TIP3   OH2 4679   4.988   0.191   5.993
 1579TIP3    H1 4680   5.068   0.194   6.045
 1579TIP3    H2 4681   5.009   0.133   5.920
 1580TIP3   OH2 4682   0.639   1.562   5.591
 1580TIP3    H1 4683   0.729   1.535   5.573
 1580TIP3    H2 4684   0.603   1.587   5.506
 1581TIP3   OH2 4685   5.270   7.786   3.442
 1581TIP3    H1 4686   5.325   7.758   3.369
 1581TIP3    H2 4687   5.251   7.705   3.490
 1582TIP3   OH2 4688   2.865   1.927   3.880
 1582TIP3    H1 4689   2.922   1.859   3.845
 1582TIP3    H2 4690   2.834   1.975   3.804
 1583TIP3   OH2 4691   3.522   7.329   4.775
 1583TIP3    H1 4692   3.456   7.263   4.796
 1583TIP3    H2 4693   3.491   7.370   4.695
 1584TIP3   OH2 4694   3.459   6.353   0.307
 1584TIP3    H1 4695   3.401   6.344   0.231
 1584TIP3    H2 4696   3.421   6.425   0.358
 1585TIP3   OH2 4697   2.863   5.226   2.777
 1585TIP3    H1 4698   2.916   5.284   2.723
 1585TIP3    H2 4699   2.877   5.139   2.740
 1586TIP3   OH2 4700   7.713   3.232   1.250
 1586TIP3    H1 4701   7.741   3.294   1.316
 1586TIP3    H2 4702   7.773   3.245   1.177
 1587TIP3   OH2 4703   2.894   4.246   2.835
 1587TIP3    H1 4704   2.978   4.216   2.870
 1587TIP3    H2 4705   2.834   4.239   2.909
 1588TIP3   OH2 4706   7.679   6.454   4.769
 1588TIP3    H1 4707   7.766   6.491   4.785
 1588TIP3    H2 4708   7.681   6.429   4.676
 1589TIP3   OH2 4709   5.982   2.392   3.336
 1589TIP3    H1 4710   6.039   2.320   3.308
 1589TIP3    H2 4711   5.920   2.402   3.263
 1590TIP3   OH2 4712   4.145   7.571   4.206
 1590TIP3    H1 4713   4.237   7.545   4.213
 1590TIP3    H2 4714   4.103   7.529   4.282
 1591TIP3   OH2 4715   0.124   0.755   0.558
 1591TIP3    H1 4716   0.153   0.808   0.484
 1591TIP3    H2 4717   0.101   0.819   0.626
 1592TIP3   OH2 4718   4.402   6.372   6.780
 1592TIP3    H1 4719   4.487   6.395   6.742
 1592TIP3    H2 4720   4.391   6.432   6.854
 1593TIP3   OH2 4721   2.680   2.353   3.736
 1593TIP3    H1 4722   2.617   2.388   3.799
 1593TIP3    H2 4723   2.765   2.380   3.769
 1594TIP3   OH2 4724   5.165   0.196   2.949
 1594TIP3    H1 4725   5.103   0.187   3.021
 1594TIP3    H2 4726   5.116   0.246   2.882
 1595TIP3   OH2 4727   6.702   2.141   0.766
 1595TIP3    H1 4728   6.733   2.154   0.676
 1595TIP3    H2 4729   6.641   2.067   0.759
 1596TIP3   OH2 4730   7.220   2.902   3.862
 1596TIP3    H1 4731   7.225   2.989   3.823
 1596TIP3    H2 4732   7.227   2.917   3.957
 1597TIP3   OH2 4733   3.155   4.240   6.720
 1597TIP3    H1 4734   3.207   4.278   6.790
 1597TIP3    H2 4735   3.190   4.152   6.707
 1598TIP3   OH2 4736   3.129   2.028   4.038
 1598TIP3    H1 4737   3.064   1.958   4.027
 1598TIP3    H2 4738   3.186   1.995   4.107
 1599TIP3   OH2 4739   5.492   5.286   2.130
 1599TIP3    H1 4740   5.440   5.345   2.075
 1599TIP3    H2 4741   5.426   5.235   2.178
 1600TIP3   OH2 4742   7.614   7.603   2.867
 1600TIP3    H1 4743   7.680   7.553   2.819
 1600TIP3    H2 4744   7.650   7.691   2.873
 1601TIP3   OH2 4745   5.699   1.012   2.835
 1601TIP3    H1 4746   5.727   0.936   2.887
 1601TIP3    H2 4747   5.624   0.980   2.784
 1602TIP3   OH2 4748   6.149   7.017   5.877
 1602TIP3    H1 4749   6.170   7.087   5.815
 1602TIP3    H2 4750   6.217   6.951   5.863
 1603TIP3   OH2 4751   5.312   1.127   1.644
 1603TIP3    H1 4752   5.243   1.113   1.709
 1603TIP3    H2 4753   5.380   1.175   1.691
 1604TIP3   OH2 4754   7.025   4.829   5.033
 1604TIP3    H1 4755   7.035   4.889   5.107
 1604TIP3    H2 4756   6.956   4.868   4.980
 1605TIP3   OH2 4757   3.324   6.093   2.234
 1605TIP3    H1 4758   3.267   6.107   2.310
 1605TIP3    H2 4759   3.354   6.003   2.244
 1606TIP3   OH2 4760   5.392   6.230   0.738
 1606TIP3    H1 4761   5.350   6.302   0.691
 1606TIP3    H2 4762   5.340   6.221   0.818
 1607TIP3   OH2 4763   4.030   1.926   1.045
 1607TIP3    H1 4764   4.072   1.990   1.103
 1607TIP3    H2 4765   4.101   1.869   1.016
 1608TIP3   OH2 4766   1.573   0.296   6.614
 1608TIP3    H1 4767   1.562   0.260   6.702
 1608TIP3    H2 4768   1.613   0.381   6.627
 1609TIP3   OH2 4769   1.325   0.817   4.732
 1609TIP3    H1 4770   1.312   0.836   4.640
 1609TIP3    H2 4771   1.416   0.788   4.738
 1610TIP3   OH2 4772   8.205   0.073   1.242
 1610TIP3    H1 4773   8.179   0.008   1.176
 1610TIP3    H2 4774   8.133   0.073   1.305
 1611TIP3   OH2 4775   7.377   5.317   6.025
 1611TIP3    H1 4776   7.323   5.392   6.002
 1611TIP3    H2 4777   7.346   5.245   5.970
 1612TIP3   OH2 4778   3.135   5.330   2.977
 1612TIP3    H1 4779   3.172   5.392   3.039
 1612TIP3    H2 4780   3.151   5.369   2.891
 1613TIP3   OH2 4781   4.292   5.334   6.376
 1613TIP3    H1 4782   4.348   5.401   6.338
 1613TIP3    H2 4783   4.307   5.257   6.322
 1614TIP3   OH2 4784   2.317   7.645   6.459
 1614TIP3    H1 4785   2.387   7.581   6.446
 1614TIP3    H2 4786   2.298   7.679   6.372
 1615TIP3   OH2 4787   5.951   0.318   2.814
 1615TIP3    H1 4788   5.921   0.401   2.775
 1615TIP3    H2 4789   5.940   0.332   2.908
 1616TIP3   OH2 4790   6.263   4.902   4.663
 1616TIP3    H1 4791   6.227   4.913   4.751
 1616TIP3    H2 4792   6.187   4.902   4.605
 1617TIP3   OH2 4793   2.509   6.073   6.430
 1617TIP3    H1 4794   2.534   6.025   6.509
 1617TIP3    H2 4795   2.414   6.061   6.424
 1618TIP3   OH2 4796   8.150  -0.054   0.870
 1618TIP3    H1 4797   8.112  -0.073   0.956
 1618TIP3    H2 4798   8.229  -0.004   0.889
 1619TIP3   OH2 4799   1.304   1.454   3.053
 1619TIP3    H1 4800   1.280   1.464   2.961
 1619TIP3    H2 4801   1.310   1.359   3.065
 1620TIP3   OH2 4802   2.294   1.024   1.789
 1620TIP3    H1 4803   2.249   0.946   1.821
 1620TIP3    H2 4804   2.238   1.056   1.719
 1621TIP3   OH2 4805   5.876   2.948   3.731
 1621TIP3    H1 4806   5.838   3.028   3.767
 1621TIP3    H2 4807   5.810   2.880   3.749
 1622TIP3   OH2 4808   1.619   1.289   0.279
 1622TIP3    H1 4809   1.617   1.240   0.361
 1622TIP3    H2 4810   1.688   1.247   0.228
 1623TIP3   OH2 4811   6.850   3.696   4.680
 1623TIP3    H1 4812   6.885   3.725   4.595
 1623TIP3    H2 4813   6.797   3.770   4.710
 1624TIP3   OH2 4814   7.790   1.522   1.568
 1624TIP3    H1 4815   7.709   1.566   1.597
 1624TIP3    H2 4816   7.763   1.471   1.492
 1625TIP3   OH2 4817   4.196   3.705   2.756
 1625TIP3    H1 4818   4.106   3.697   2.789
 1625TIP3    H2 4819   4.237   3.622   2.779
 1626TIP3   OH2 4820   5.873   7.030   3.190
 1626TIP3    H1 4821   5.901   7.043   3.100
 1626TIP3    H2 4822   5.954   7.016   3.239
 1627TIP3   OH2 4823   8.005   2.361   1.442
 1627TIP3    H1 4824   7.992   2.433   1.503
 1627TIP3    H2 4825   7.995   2.282   1.496
 1628TIP3   OH2 4826   6.881   4.397   2.578
 1628TIP3    H1 4827   6.844   4.431   2.497
 1628TIP3    H2 4828   6.804   4.376   2.632
 1629TIP3   OH2 4829   7.588   0.772   4.940
 1629TIP3    H1 4830   7.657   0.807   4.884
 1629TIP3    H2 4831   7.507   0.802   4.899
 1630TIP3   OH2 4832   0.678   6.522   1.924
 1630TIP3    H1 4833   0.740   6.541   1.853
 1630TIP3    H2 4834   0.683   6.428   1.936
 1631TIP3   OH2 4835   5.793   3.232   5.520
 1631TIP3    H1 4836   5.795   3.315   5.568
 1631TIP3    H2 4837   5.863   3.240   5.455
 1632TIP3   OH2 4838   4.698   2.525   3.563
 1632TIP3    H1 4839   4.614   2.564   3.537
 1632TIP3    H2 4840   4.683   2.431   3.562
 1633TIP3   OH2 4841   7.151   0.078   6.475
 1633TIP3    H1 4842   7.076   0.046   6.525
 1633TIP3    H2 4843   7.121   0.160   6.437
 1634TIP3   OH2 4844   4.710   2.178   5.806
 1634TIP3    H1 4845   4.682   2.096   5.765
 1634TIP3    H2 4846   4.646   2.243   5.776
 1635TIP3   OH2 4847   0.238   2.862   5.141
 1635TIP3    H1 4848   0.290   2.801   5.193
 1635TIP3    H2 4849   0.227   2.818   5.057
 1636TIP3   OH2 4850   4.192   6.629   0.204
 1636TIP3    H1 4851   4.210   6.551   0.151
 1636TIP3    H2 4852   4.263   6.689   0.182
 1637TIP3   OH2 4853   1.511   5.296   3.501
 1637TIP3    H1 4854   1.465   5.310   3.584
 1637TIP3    H2 4855   1.570   5.371   3.492
 1638TIP3   OH2 4856   5.352   3.138   1.543
 1638TIP3    H1 4857   5.319   3.186   1.468
 1638TIP3    H2 4858   5.333   3.047   1.524
 1639TIP3   OH2 4859   0.542   0.693   2.999
 1639TIP3    H1 4860   0.557   0.621   2.938
 1639TIP3    H2 4861   0.504   0.652   3.076
 1640TIP3   OH2 4862   1.435   3.623   3.406
 1640TIP3    H1 4863   1.463   3.552   3.348
 1640TIP3    H2 4864   1.498   3.621   3.479
 1641TIP3   OH2 4865   6.620   2.242   5.166
 1641TIP3    H1 4866   6.654   2.180   5.102
 1641TIP3    H2 4867   6.669   2.224   5.246
 1642TIP3   OH2 4868   1.666   2.354   5.649
 1642TIP3    H1 4869   1.671   2.267   5.610
 1642TIP3    H2 4870   1.635   2.338   5.739
 1643TIP3   OH2 4871   1.766   6.974   1.478
 1643TIP3    H1 4872   1.681   6.946   1.512
 1643TIP3    H2 4873   1.747   7.007   1.391
 1644TIP3   OH2 4874   0.205   5.550   0.118
 1644TIP3    H1 4875   0.217   5.462   0.081
 1644TIP3    H2 4876   0.188   5.534   0.211
 1645TIP3   OH2 4877   7.655   6.641   0.391
 1645TIP3    H1 4878   7.613   6.686   0.464
 1645TIP3    H2 4879   7.595   6.655   0.317
 1646TIP3   OH2 4880   7.839   5.669   4.129
 1646TIP3    H1 4881   7.910   5.629   4.079
 1646TIP3    H2 4882   7.867   5.662   4.220
 1647TIP3   OH2 4883   5.639   1.584   3.383
 1647TIP3    H1 4884   5.653   1.539   3.467
 1647TIP3    H2 4885   5.587   1.523   3.331
 1648TIP3   OH2 4886   2.550   2.896   0.966
 1648TIP3    H1 4887   2.462   2.926   0.944
 1648TIP3    H2 4888   2.564   2.820   0.910
 1649TIP3   OH2 4889   6.270   0.589   4.138
 1649TIP3    H1 4890   6.175   0.585   4.151
 1649TIP3    H2 4891   6.301   0.501   4.159
 1650TIP3   OH2 4892   0.565   7.779   3.273
 1650TIP3    H1 4893   0.580   7.684   3.269
 1650TIP3    H2 4894   0.555   7.798   3.366
 1651TIP3   OH2 4895   1.780   1.314   3.897
 1651TIP3    H1 4896   1.739   1.348   3.977
 1651TIP3    H2 4897   1.711   1.263   3.854
 1652TIP3   OH2 4898   6.262   2.422   1.514
 1652TIP3    H1 4899   6.337   2.370   1.485
 1652TIP3    H2 4900   6.242   2.387   1.601
 1653TIP3   OH2 4901   4.546   6.022   1.343
 1653TIP3    H1 4902   4.522   5.929   1.351
 1653TIP3    H2 4903   4.494   6.054   1.269
 1654TIP3   OH2 4904   5.062   0.867   0.323
 1654TIP3    H1 4905   5.104   0.781   0.320
 1654TIP3    H2 4906   5.109   0.913   0.393
 1655TIP3   OH2 4907   4.952   3.510   4.394
 1655TIP3    H1 4908   4.995   3.426   4.412
 1655TIP3    H2 4909   4.962   3.560   4.475
 1656TIP3   OH2 4910   4.603   3.829   3.069
 1656TIP3    H1 4911   4.576   3.822   3.161
 1656TIP3    H2 4912   4.523   3.812   3.020
 1657TIP3   OH2 4913   7.521   7.227   3.578
 1657TIP3    H1 4914   7.564   7.250   3.495
 1657TIP3    H2 4915   7.479   7.143   3.561
 1658TIP3   OH2 4916   7.122   5.307   1.941
 1658TIP3    H1 4917   7.073   5.352   2.010
 1658TIP3    H2 4918   7.180   5.247   1.988
 1659TIP3   OH2 4919   6.420   4.921   0.396
 1659TIP3    H1 4920   6.374   4.845   0.361
 1659TIP3    H2 4921   6.394   4.993   0.339
 1660TIP3   OH2 4922   7.791   6.925   5.077
 1660TIP3    H1 4923   7.774   6.902   5.168
 1660TIP3    H2 4924   7.777   6.844   5.028
 1661TIP3   OH2 4925   6.693   2.498   1.370
 1661TIP3    H1 4926   6.706   2.458   1.456
 1661TIP3    H2 4927   6.609   2.542   1.377
 1662TIP3   OH2 4928   0.223   5.633   1.908
 1662TIP3    H1 4929   0.192   5.610   1.820
 1662TIP3    H2 4930   0.184   5.719   1.925
 1663TIP3   OH2 4931   6.239   4.796   5.942
 1663TIP3    H1 4932   6.268   4.831   5.858
 1663TIP3    H2 4933   6.159   4.747   5.921
 1664TIP3   OH2 4934   7.817   7.405   1.157
 1664TIP3    H1 4935   7.903   7.448   1.165
 1664TIP3    H2 4936   7.833   7.315   1.185
 1665TIP3   OH2 4937   5.891   7.668   1.447
 1665TIP3    H1 4938   5.912   7.583   1.409
 1665TIP3    H2 4939   5.976   7.705   1.470
 1666TIP3   OH2 4940   4.046   4.743   4.323
 1666TIP3    H1 4941   4.053   4.705   4.235
 1666TIP3    H2 4942   3.983   4.686   4.368
 1667TIP3   OH2 4943   0.706   2.284   1.519
 1667TIP3    H1 4944   0.641   2.256   1.583
 1667TIP3    H2 4945   0.659   2.344   1.461
 1668TIP3   OH2 4946   3.657   0.013   1.037
 1668TIP3    H1 4947   3.747  -0.019   1.030
 1668TIP3    H2 4948   3.666   0.108   1.040
 1669TIP3   OH2 4949   1.587   4.523   0.498
 1669TIP3    H1 4950   1.498   4.502   0.526
 1669TIP3    H2 4951   1.640   4.516   0.577
 1670TIP3   OH2 4952   2.253   0.284   3.044
 1670TIP3    H1 4953   2.338   0.327   3.043
 1670TIP3    H2 4954   2.193   0.349   3.007
 1671TIP3   OH2 4955   1.374   0.401   2.113
 1671TIP3    H1 4956   1.290   0.384   2.154
 1671TIP3    H2 4957   1.390   0.495   2.128
 1672TIP3   OH2 4958   4.342   7.459   6.691
 1672TIP3    H1 4959   4.337   7.550   6.663
 1672TIP3    H2 4960   4.267   7.449   6.751
 1673TIP3   OH2 4961   3.531   4.126   6.319
 1673TIP3    H1 4962   3.611   4.173   6.297
 1673TIP3    H2 4963   3.470   4.195   6.347
 1674TIP3   OH2 4964   5.496   2.994   0.550
 1674TIP3    H1 4965   5.532   3.069   0.598
 1674TIP3    H2 4966   5.554   2.984   0.474
 1675TIP3   OH2 4967   3.849   7.122   4.066
 1675TIP3    H1 4968   3.850   7.209   4.025
 1675TIP3    H2 4969   3.857   7.141   4.160
 1676TIP3   OH2 4970   4.677   3.101   0.566
 1676TIP3    H1 4971   4.614   3.147   0.620
 1676TIP3    H2 4972   4.753   3.159   0.563
 1677TIP3   OH2 4973   5.077   0.702   5.015
 1677TIP3    H1 4974   5.138   0.637   4.980
 1677TIP3    H2 4975   5.099   0.709   5.108
 1678TIP3   OH2 4976   2.245   0.603   4.496
 1678TIP3    H1 4977   2.238   0.571   4.586
 1678TIP3    H2 4978   2.278   0.528   4.446
 1679TIP3   OH2 4979   1.783   6.843   6.584
 1679TIP3    H1 4980   1.845   6.776   6.616
 1679TIP3    H2 4981   1.760   6.893   6.663
 1680TIP3   OH2 4982   6.711   2.183   2.339
 1680TIP3    H1 4983   6.781   2.121   2.319
 1680TIP3    H2 4984   6.640   2.158   2.280
 1681TIP3   OH2 4985   1.148   3.062   2.912
 1681TIP3    H1 4986   1.078   3.034   2.971
 1681TIP3    H2 4987   1.221   3.004   2.931
 1682TIP3   OH2 4988  -0.002   4.216   2.142
 1682TIP3    H1 4989   0.057   4.181   2.208
 1682TIP3    H2 4990  -0.085   4.170   2.156
 1683TIP3   OH2 4991   6.498   0.735   2.224
 1683TIP3    H1 4992   6.519   0.642   2.219
 1683TIP3    H2 4993   6.507   0.757   2.317
 1684TIP3   OH2 4994   2.588   3.373   4.966
 1684TIP3    H1 4995   2.504   3.332   4.945
 1684TIP3    H2 4996   2.579   3.463   4.935
 1685TIP3   OH2 4997   0.079   4.211   1.251
 1685TIP3    H1 4998   0.002   4.266   1.237
 1685TIP3    H2 4999   0.043   4.122   1.261
 1686TIP3   OH2 5000   5.088   5.849   0.649
 1686TIP3    H1 5001   5.124   5.780   0.593
 1686TIP3    H2 5002   5.156   5.864   0.715
 1687TIP3   OH2 5003   0.602   2.781   5.544
 1687TIP3    H1 5004   0.557   2.709   5.588
 1687TIP3    H2 5005   0.695   2.764   5.556
 1688TIP3   OH2 5006   8.035   4.225   0.445
 1688TIP3    H1 5007   7.949   4.195   0.474
 1688TIP3    H2 5008   8.076   4.147   0.407
 1689TIP3   OH2 5009   2.255   6.075   5.001
 1689TIP3    H1 5010   2.242   6.144   5.066
 1689TIP3    H2 5011   2.311   6.117   4.934
 1690TIP3   OH2 5012   7.811   0.853   5.332
 1690TIP3    H1 5013   7.781   0.817   5.415
 1690TIP3    H2 5014   7.875   0.790   5.299
 1691TIP3   OH2 5015   6.749   1.985   6.426
 1691TIP3    H1 5016   6.826   1.937   6.456
 1691TIP3    H2 5017   6.676   1.943   6.472
 1692TIP3   OH2 5018   0.485   4.815   3.761
 1692TIP3    H1 5019   0.414   4.817   3.825
 1692TIP3    H2 5020   0.478   4.899   3.715
 1693TIP3   OH2 5021   2.826   0.977   4.858
 1693TIP3    H1 5022   2.848   0.990   4.765
 1693TIP3    H2 5023   2.893   0.918   4.891
 1694TIP3   OH2 5024   3.136   1.299   6.098
 1694TIP3    H1 5025   3.086   1.342   6.168
 1694TIP3    H2 5026   3.175   1.370   6.048
 1695TIP3   OH2 5027   3.496   2.992   4.104
 1695TIP3    H1 5028   3.544   2.910   4.095
 1695TIP3    H2 5029   3.550   3.045   4.163
 1696TIP3   OH2 5030   1.006   1.986   0.068
 1696TIP3    H1 5031   1.063   2.062   0.074
 1696TIP3    H2 5032   0.922   2.016   0.104
 1697TIP3   OH2 5033   1.374   7.723   1.990
 1697TIP3    H1 5034   1.449   7.683   1.948
 1697TIP3    H2 5035   1.313   7.650   2.005
 1698TIP3   OH2 5036   7.220   2.903   0.799
 1698TIP3    H1 5037   7.225   2.935   0.889
 1698TIP3    H2 5038   7.254   2.975   0.746
 1699TIP3   OH2 5039   6.732   0.723   1.482
 1699TIP3    H1 5040   6.771   0.674   1.410
 1699TIP3    H2 5041   6.726   0.661   1.554
 1700TIP3   OH2 5042   2.467   2.318   5.850
 1700TIP3    H1 5043   2.496   2.409   5.841
 1700TIP3    H2 5044   2.521   2.282   5.920
 1701TIP3   OH2 5045   0.181   1.780   2.778
 1701TIP3    H1 5046   0.197   1.841   2.850
 1701TIP3    H2 5047   0.094   1.804   2.746
 1702TIP3   OH2 5048   8.027   2.944   2.888
 1702TIP3    H1 5049   7.963   2.968   2.955
 1702TIP3    H2 5050   8.083   3.021   2.880
 1703TIP3   OH2 5051   4.603   0.157   1.244
 1703TIP3    H1 5052   4.693   0.132   1.268
 1703TIP3    H2 5053   4.613   0.207   1.164
 1704TIP3   OH2 5054   7.825   1.911   3.109
 1704TIP3    H1 5055   7.920   1.919   3.111
 1704TIP3    H2 5056   7.808   1.835   3.054
 1705TIP3   OH2 5057   3.539   5.400   0.732
 1705TIP3    H1 5058   3.613   5.459   0.743
 1705TIP3    H2 5059   3.574   5.326   0.683
 1706TIP3   OH2 5060   5.339   2.471   2.292
 1706TIP3    H1 5061   5.352   2.523   2.371
 1706TIP3    H2 5062   5.332   2.381   2.322
 1707TIP3   OH2 5063   8.291   6.370   1.545
 1707TIP3    H1 5064   8.374   6.358   1.590
 1707TIP3    H2 5065   8.277   6.288   1.497
 1708TIP3   OH2 5066   7.680   1.332   5.220
 1708TIP3    H1 5067   7.771   1.325   5.191
 1708TIP3    H2 5068   7.642   1.246   5.203
 1709TIP3   OH2 5069   1.744   2.164   2.893
 1709TIP3    H1 5070   1.734   2.100   2.823
 1709TIP3    H2 5071   1.720   2.117   2.972
 1710TIP3   OH2 5072   6.899   5.991   1.890
 1710TIP3    H1 5073   6.820   6.045   1.899
 1710TIP3    H2 5074   6.880   5.932   1.818
 1711TIP3   OH2 5075   5.387   5.950   6.471
 1711TIP3    H1 5076   5.369   5.857   6.478
 1711TIP3    H2 5077   5.455   5.967   6.537
 1712TIP3   OH2 5078   2.594   0.948   1.615
 1712TIP3    H1 5079   2.531   1.009   1.653
 1712TIP3    H2 5080   2.673   1.001   1.600
 1713TIP3   OH2 5081   6.542   4.160   1.184
 1713TIP3    H1 5082   6.525   4.085   1.241
 1713TIP3    H2 5083   6.529   4.126   1.095
 1714TIP3   OH2 5084   4.550   7.760   6.297
 1714TIP3    H1 5085   4.512   7.815   6.366
 1714TIP3    H2 5086   4.483   7.693   6.280
 1715TIP3   OH2 5087   7.769   4.438   0.074
 1715TIP3    H1 5088   7.730   4.464   0.157
 1715TIP3    H2 5089   7.773   4.342   0.078
 1716TIP3   OH2 5090   1.709   7.695   1.216
 1716TIP3    H1 5091   1.770   7.769   1.217
 1716TIP3    H2 5092   1.765   7.619   1.204
 1717TIP3   OH2 5093   1.547   7.596   1.805
 1717TIP3    H1 5094   1.585   7.517   1.843
 1717TIP3    H2 5095   1.608   7.622   1.736
 1718TIP3   OH2 5096   1.150   2.502   3.499
 1718TIP3    H1 5097   1.058   2.483   3.481
 1718TIP3    H2 5098   1.198   2.428   3.463
 1719TIP3   OH2 5099   1.695   2.182   0.459
 1719TIP3    H1 5100   1.662   2.253   0.403
 1719TIP3    H2 5101   1.755   2.133   0.402
 1720TIP3   OH2 5102   1.180   2.404   5.301
 1720TIP3    H1 5103   1.212   2.314   5.313
 1720TIP3    H2 5104   1.226   2.436   5.224
 1721TIP3   OH2 5105   4.010   0.568   4.498
 1721TIP3    H1 5106   4.006   0.616   4.580
 1721TIP3    H2 5107   3.925   0.585   4.456
 1722TIP3   OH2 5108   0.708   4.151   2.174
 1722TIP3    H1 5109   0.726   4.240   2.142
 1722TIP3    H2 5110   0.619   4.133   2.146
 1723TIP3   OH2 5111   0.286   1.323   0.490
 1723TIP3    H1 5112   0.211   1.373   0.461
 1723TIP3    H2 5113   0.251   1.258   0.551
 1724TIP3   OH2 5114   8.072   5.238   3.222
 1724TIP3    H1 5115   8.069   5.247   3.317
 1724TIP3    H2 5116   8.059   5.144   3.206
 1725TIP3   OH2 5117   6.157   3.588   3.672
 1725TIP3    H1 5118   6.120   3.501   3.670
 1725TIP3    H2 5119   6.111   3.633   3.743
 1726TIP3   OH2 5120   4.530   0.397   2.327
 1726TIP3    H1 5121   4.450   0.448   2.341
 1726TIP3    H2 5122   4.578   0.444   2.259
 1727TIP3   OH2 5123   7.252   1.859   1.433
 1727TIP3    H1 5124   7.172   1.884   1.386
 1727TIP3    H2 5125   7.238   1.891   1.522
 1728TIP3   OH2 5126   6.348   7.377   3.396
 1728TIP3    H1 5127   6.410   7.373   3.323
 1728TIP3    H2 5128   6.262   7.366   3.355
 1729TIP3   OH2 5129   7.299   3.943   3.873
 1729TIP3    H1 5130   7.377   3.889   3.885
 1729TIP3    H2 5131   7.227   3.880   3.870
 1730TIP3   OH2 5132   1.394   1.940   4.154
 1730TIP3    H1 5133   1.440   1.856   4.164
 1730TIP3    H2 5134   1.313   1.928   4.203
 1731TIP3   OH2 5135   7.732   4.589   3.228
 1731TIP3    H1 5136   7.657   4.630   3.270
 1731TIP3    H2 5137   7.697   4.511   3.185
 1732TIP3   OH2 5138   3.319   5.313   2.212
 1732TIP3    H1 5139   3.379   5.272   2.275
 1732TIP3    H2 5140   3.232   5.288   2.241
 1733TIP3   OH2 5141   1.557   1.734   5.718
 1733TIP3    H1 5142   1.523   1.737   5.807
 1733TIP3    H2 5143   1.516   1.657   5.679
 1734TIP3   OH2 5144   2.672   2.091   3.101
 1734TIP3    H1 5145   2.587   2.061   3.134
 1734TIP3    H2 5146   2.735   2.055   3.163
 1735TIP3   OH2 5147   5.817   5.302   0.110
 1735TIP3    H1 5148   5.835   5.376   0.051
 1735TIP3    H2 5149   5.742   5.331   0.162
 1736TIP3   OH2 5150   7.339   6.542   1.064
 1736TIP3    H1 5151   7.285   6.518   1.139
 1736TIP3    H2 5152   7.306   6.487   0.992
 1737TIP3   OH2 5153   4.154   6.429   1.792
 1737TIP3    H1 5154   4.249   6.431   1.795
 1737TIP3    H2 5155   4.126   6.466   1.875
 1738TIP3   OH2 5156   5.143   6.377   4.931
 1738TIP3    H1 5157   5.116   6.456   4.976
 1738TIP3    H2 5158   5.208   6.337   4.989
 1739TIP3   OH2 5159   3.344   3.941   4.744
 1739TIP3    H1 5160   3.365   3.851   4.770
 1739TIP3    H2 5161   3.413   3.965   4.683
 1740TIP3   OH2 5162   0.422   2.144   1.338
 1740TIP3    H1 5163   0.437   2.059   1.379
 1740TIP3    H2 5164   0.390   2.123   1.250
 1741TIP3   OH2 5165   4.680   0.253   3.084
 1741TIP3    H1 5166   4.723   0.180   3.041
 1741TIP3    H2 5167   4.600   0.267   3.035
 1742TIP3   OH2 5168   4.718   1.319  -0.042
 1742TIP3    H1 5169   4.635   1.292  -0.004
 1742TIP3    H2 5170   4.766   1.357   0.031
 1743TIP3   OH2 5171   2.863   5.326   4.044
 1743TIP3    H1 5172   2.776   5.329   4.005
 1743TIP3    H2 5173   2.864   5.399   4.106
 1744TIP3   OH2 5174   1.530   0.171   0.998
 1744TIP3    H1 5175   1.612   0.123   0.988
 1744TIP3    H2 5176   1.556   0.262   1.010
 1745TIP3   OH2 5177   4.830   6.260   2.074
 1745TIP3    H1 5178   4.810   6.167   2.064
 1745TIP3    H2 5179   4.787   6.301   1.999
 1746TIP3   OH2 5180   5.519   7.180   3.390
 1746TIP3    H1 5181   5.480   7.099   3.358
 1746TIP3    H2 5182   5.588   7.152   3.449
 1747TIP3   OH2 5183   1.908   1.948   1.119
 1747TIP3    H1 5184   1.932   1.999   1.197
 1747TIP3    H2 5185   1.920   1.857   1.145
 1748TIP3   OH2 5186   3.423   7.463   4.232
 1748TIP3    H1 5187   3.426   7.416   4.315
 1748TIP3    H2 5188   3.497   7.428   4.182
 1749TIP3   OH2 5189   8.230   0.743   4.020
 1749TIP3    H1 5190   8.139   0.735   4.049
 1749TIP3    H2 5191   8.238   0.835   3.994
 1750TIP3   OH2 5192   1.757   6.074   5.526
 1750TIP3    H1 5193   1.837   6.029   5.554
 1750TIP3    H2 5194   1.719   6.015   5.461
 1751TIP3   OH2 5195   1.095   0.256   2.433
 1751TIP3    H1 5196   1.093   0.320   2.505
 1751TIP3    H2 5197   1.073   0.307   2.356
 1752TIP3   OH2 5198   4.766   1.344   4.152
 1752TIP3    H1 5199   4.736   1.329   4.241
 1752TIP3    H2 5200   4.774   1.256   4.114
 1753TIP3   OH2 5201   0.193   4.460   4.269
 1753TIP3    H1 5202   0.102   4.465   4.239
 1753TIP3    H2 5203   0.225   4.550   4.263
 1754TIP3   OH2 5204   2.566   0.410   4.775
 1754TIP3    H1 5205   2.650   0.378   4.742
 1754TIP3    H2 5206   2.590   0.481   4.835
 1755TIP3   OH2 5207   6.003   0.053   3.970
 1755TIP3    H1 5208   5.909   0.055   3.988
 1755TIP3    H2 5209   6.034   0.140   3.995
 1756TIP3   OH2 5210   2.212   3.393   2.380
 1756TIP3    H1 5211   2.216   3.338   2.458
 1756TIP3    H2 5212   2.122   3.385   2.349
 1757TIP3   OH2 5213   5.914   5.322   1.105
 1757TIP3    H1 5214   5.830   5.320   1.150
 1757TIP3    H2 5215   5.924   5.235   1.067
 1758TIP3   OH2 5216   6.190   2.471   3.521
 1758TIP3    H1 5217   6.186   2.566   3.515
 1758TIP3    H2 5218   6.103   2.442   3.496
 1759TIP3   OH2 5219   1.590   3.193   5.046
 1759TIP3    H1 5220   1.517   3.219   4.991
 1759TIP3    H2 5221   1.551   3.167   5.129
 1760TIP3   OH2 5222   1.121   5.439   2.897
 1760TIP3    H1 5223   1.187   5.407   2.958
 1760TIP3    H2 5224   1.061   5.365   2.886
 1761TIP3   OH2 5225   6.056   3.833   6.016
 1761TIP3    H1 5226   6.132   3.777   6.003
 1761TIP3    H2 5227   6.079   3.888   6.091
 1762TIP3   OH2 5228   1.607   2.938   4.368
 1762TIP3    H1 5229   1.572   2.981   4.290
 1762TIP3    H2 5230   1.610   3.007   4.435
 1763TIP3   OH2 5231   5.420   1.011   4.986
 1763TIP3    H1 5232   5.513   1.001   5.007
 1763TIP3    H2 5233   5.415   0.996   4.892
 1764TIP3   OH2 5234   0.601   0.276   0.962
 1764TIP3    H1 5235   0.665   0.279   0.891
 1764TIP3    H2 5236   0.568   0.186   0.961
 1765TIP3   OH2 5237   3.277   6.783   0.820
 1765TIP3    H1 5238   3.357   6.781   0.767
 1765TIP3    H2 5239   3.305   6.818   0.904
 1766TIP3   OH2 5240   4.636   5.122   3.001
 1766TIP3    H1 5241   4.623   5.217   3.004
 1766TIP3    H2 5242   4.707   5.110   2.939
 1767TIP3   OH2 5243   3.354   6.069   5.182
 1767TIP3    H1 5244   3.309   6.016   5.248
 1767TIP3    H2 5245   3.289   6.135   5.156
 1768TIP3   OH2 5246   3.934   1.567   6.140
 1768TIP3    H1 5247   4.017   1.526   6.165
 1768TIP3    H2 5248   3.956   1.659   6.127
 1769TIP3   OH2 5249   0.750   7.499   6.230
 1769TIP3    H1 5250   0.664   7.523   6.195
 1769TIP3    H2 5251   0.801   7.474   6.153
 1770TIP3   OH2 5252   0.711   1.784   5.893
 1770TIP3    H1 5253   0.737   1.752   5.806
 1770TIP3    H2 5254   0.641   1.725   5.920
 1771TIP3   OH2 5255   0.672   5.192   3.951
 1771TIP3    H1 5256   0.585   5.212   3.985
 1771TIP3    H2 5257   0.718   5.155   4.026
 1772TIP3   OH2 5258   4.626   5.226   2.567
 1772TIP3    H1 5259   4.681   5.178   2.629
 1772TIP3    H2 5260   4.551   5.169   2.553
 1773TIP3   OH2 5261   3.445   1.440   2.327
 1773TIP3    H1 5262   3.526   1.411   2.285
 1773TIP3    H2 5263   3.380   1.374   2.304
 1774TIP3   OH2 5264   0.218   0.370   5.975
 1774TIP3    H1 5265   0.217   0.338   6.065
 1774TIP3    H2 5266   0.296   0.426   5.969
 1775TIP3   OH2 5267   0.598   1.472   4.517
 1775TIP3    H1 5268   0.655   1.498   4.444
 1775TIP3    H2 5269   0.538   1.545   4.528
 1776TIP3   OH2 5270   5.346   1.666   6.421
 1776TIP3    H1 5271   5.298   1.630   6.495
 1776TIP3    H2 5272   5.279   1.686   6.356
 1777TIP3   OH2 5273   2.383   0.039   6.552
 1777TIP3    H1 5274   2.348   0.096   6.484
 1777TIP3    H2 5275   2.368  -0.049   6.520
 1778TIP3   OH2 5276   4.050   0.411   6.160
 1778TIP3    H1 5277   3.973   0.464   6.142
 1778TIP3    H2 5278   4.054   0.405   6.256
 1779TIP3   OH2 5279   4.514   1.790   3.602
 1779TIP3    H1 5280   4.485   1.832   3.520
 1779TIP3    H2 5281   4.609   1.783   3.593
 1780TIP3   OH2 5282   1.389   4.560   1.333
 1780TIP3    H1 5283   1.346   4.614   1.400
 1780TIP3    H2 5284   1.475   4.540   1.370
 1781TIP3   OH2 5285   4.362   3.462   5.974
 1781TIP3    H1 5286   4.365   3.542   6.025
 1781TIP3    H2 5287   4.435   3.410   6.006
 1782TIP3   OH2 5288   5.254   4.968   6.541
 1782TIP3    H1 5289   5.325   4.923   6.495
 1782TIP3    H2 5290   5.294   5.002   6.621
 1783TIP3   OH2 5291   1.544   0.503   2.341
 1783TIP3    H1 5292   1.487   0.562   2.293
 1783TIP3    H2 5293   1.631   0.517   2.302
 1784TIP3   OH2 5294   2.010   3.235   3.147
 1784TIP3    H1 5295   2.090   3.219   3.198
 1784TIP3    H2 5296   1.948   3.169   3.178
 1785TIP3   OH2 5297   4.719   2.192   3.498
 1785TIP3    H1 5298   4.653   2.128   3.472
 1785TIP3    H2 5299   4.780   2.143   3.552
 1786TIP3   OH2 5300   6.127   6.634   6.302
 1786TIP3    H1 5301   6.036   6.612   6.283
 1786TIP3    H2 5302   6.178   6.577   6.245
 1787TIP3   OH2 5303   2.218   7.657   3.351
 1787TIP3    H1 5304   2.207   7.653   3.256
 1787TIP3    H2 5305   2.293   7.714   3.364
 1788TIP3   OH2 5306   3.245   1.867   2.089
 1788TIP3    H1 5307   3.186   1.864   2.013
 1788TIP3    H2 5308   3.211   1.802   2.149
 1789TIP3   OH2 5309   2.091   0.162   1.322
 1789TIP3    H1 5310   2.137   0.244   1.337
 1789TIP3    H2 5311   2.160   0.095   1.323
 1790TIP3   OH2 5312   2.684   6.679   3.610
 1790TIP3    H1 5313   2.626   6.622   3.560
 1790TIP3    H2 5314   2.689   6.760   3.558
 1791TIP3   OH2 5315   7.755   2.085   6.515
 1791TIP3    H1 5316   7.779   2.058   6.604
 1791TIP3    H2 5317   7.836   2.076   6.465
 1792TIP3   OH2 5318   7.789   2.660   1.389
 1792TIP3    H1 5319   7.817   2.695   1.304
 1792TIP3    H2 5320   7.733   2.728   1.426
 1793TIP3   OH2 5321   0.521   2.138   3.848
 1793TIP3    H1 5322   0.432   2.162   3.825
 1793TIP3    H2 5323   0.572   2.160   3.770
 1794TIP3   OH2 5324   8.189   1.704   5.884
 1794TIP3    H1 5325   8.165   1.789   5.919
 1794TIP3    H2 5326   8.244   1.724   5.808
 1795TIP3   OH2 5327   5.894   4.458   1.633
 1795TIP3    H1 5328   5.915   4.475   1.541
 1795TIP3    H2 5329   5.800   4.477   1.640
 1796TIP3   OH2 5330   3.644   2.041   4.220
 1796TIP3    H1 5331   3.629   2.035   4.126
 1796TIP3    H2 5332   3.572   2.096   4.252
 1797TIP3   OH2 5333   7.340   7.137   3.113
 1797TIP3    H1 5334   7.338   7.044   3.088
 1797TIP3    H2 5335   7.412   7.143   3.175
 1798TIP3   OH2 5336   1.593   1.664   6.489
 1798TIP3    H1 5337   1.511   1.714   6.493
 1798TIP3    H2 5338   1.626   1.665   6.579
 1799TIP3   OH2 5339   1.975   0.014   4.816
 1799TIP3    H1 5340   1.883   0.014   4.790
 1799TIP3    H2 5341   2.019   0.065   4.748
 1800TIP3   OH2 5342   2.302   7.397   0.368
 1800TIP3    H1 5343   2.345   7.315   0.344
 1800TIP3    H2 5344   2.334   7.460   0.304
 1801TIP3   OH2 5345   8.277   0.954   5.281
 1801TIP3    H1 5346   8.327   0.992   5.353
 1801TIP3    H2 5347   8.343   0.916   5.223
 1802TIP3   OH2 5348   5.062   7.645   6.205
 1802TIP3    H1 5349   5.025   7.643   6.116
 1802TIP3    H2 5350   5.145   7.598   6.197
 1803TIP3   OH2 5351   5.402   5.838   1.059
 1803TIP3    H1 5352   5.441   5.772   1.117
 1803TIP3    H2 5353   5.360   5.787   0.990
 1804TIP3   OH2 5354   0.166   7.218   1.110
 1804TIP3    H1 5355   0.104   7.235   1.182
 1804TIP3    H2 5356   0.175   7.302   1.066
 1805TIP3   OH2 5357   5.354   2.580   5.261
 1805TIP3    H1 5358   5.419   2.615   5.200
 1805TIP3    H2 5359   5.289   2.538   5.205
 1806TIP3   OH2 5360   7.192   3.735   1.372
 1806TIP3    H1 5361   7.162   3.654   1.331
 1806TIP3    H2 5362   7.287   3.727   1.375
 1807TIP3   OH2 5363   7.001   4.250   1.333
 1807TIP3    H1 5364   6.971   4.216   1.417
 1807TIP3    H2 5365   6.924   4.297   1.298
 1808TIP3   OH2 5366   0.532   0.537   2.264
 1808TIP3    H1 5367   0.460   0.599   2.270
 1808TIP3    H2 5368   0.531   0.491   2.348
 1809TIP3   OH2 5369   3.448   6.476   0.974
 1809TIP3    H1 5370   3.493   6.472   1.058
 1809TIP3    H2 5371   3.510   6.521   0.916
 1810TIP3   OH2 5372   1.611   4.181   1.399
 1810TIP3    H1 5373   1.684   4.235   1.368
 1810TIP3    H2 5374   1.534   4.238   1.392
 1811TIP3   OH2 5375   3.348   0.594   1.921
 1811TIP3    H1 5376   3.290   0.542   1.866
 1811TIP3    H2 5377   3.290   0.656   1.965
 1812TIP3   OH2 5378   1.008   3.666   1.850
 1812TIP3    H1 5379   0.967   3.699   1.769
 1812TIP3    H2 5380   1.097   3.645   1.825
 1813TIP3   OH2 5381   4.923   3.111   5.174
 1813TIP3    H1 5382   4.991   3.129   5.238
 1813TIP3    H2 5383   4.868   3.189   5.175
 1814TIP3   OH2 5384   5.076   1.532   3.768
 1814TIP3    H1 5385   5.121   1.473   3.829
 1814TIP3    H2 5386   4.990   1.492   3.755
 1815TIP3   OH2 5387   8.089   4.937   6.637
 1815TIP3    H1 5388   8.017   4.897   6.686
 1815TIP3    H2 5389   8.121   4.866   6.581
 1816TIP3   OH2 5390   1.296   1.578   5.098
 1816TIP3    H1 5391   1.308   1.604   5.007
 1816TIP3    H2 5392   1.338   1.493   5.105
 1817TIP3   OH2 5393   6.209   0.732   3.420
 1817TIP3    H1 5394   6.186   0.766   3.506
 1817TIP3    H2 5395   6.140   0.765   3.362
 1818TIP3   OH2 5396   4.070   2.140   4.090
 1818TIP3    H1 5397   4.165   2.148   4.083
 1818TIP3    H2 5398   4.049   2.182   4.174
 1819TIP3   OH2 5399   7.767   7.368   5.438
 1819TIP3    H1 5400   7.697   7.427   5.410
 1819TIP3    H2 5401   7.845   7.423   5.443
 1820TIP3   OH2 5402   5.914   0.455   6.249
 1820TIP3    H1 5403   5.960   0.539   6.251
 1820TIP3    H2 5404   5.943   0.413   6.168
 1821TIP3   OH2 5405   4.963   5.087   6.154
 1821TIP3    H1 5406   5.056   5.073   6.133
 1821TIP3    H2 5407   4.960   5.091   6.249
 1822TIP3   OH2 5408   2.139   4.584   6.217
 1822TIP3    H1 5409   2.190   4.573   6.297
 1822TIP3    H2 5410   2.134   4.497   6.179
 1823TIP3   OH2 5411   2.842   3.236   0.723
 1823TIP3    H1 5412   2.825   3.324   0.689
 1823TIP3    H2 5413   2.937   3.231   0.732
 1824TIP3   OH2 5414   1.503   4.829   1.550
 1824TIP3    H1 5415   1.568   4.900   1.557
 1824TIP3    H2 5416   1.484   4.806   1.641
 1825TIP3   OH2 5417   1.330   5.393   2.585
 1825TIP3    H1 5418   1.295   5.309   2.613
 1825TIP3    H2 5419   1.356   5.437   2.666
 1826TIP3   OH2 5420   1.957   4.869   2.726
 1826TIP3    H1 5421   1.993   4.784   2.701
 1826TIP3    H2 5422   2.025   4.908   2.782
 1827TIP3   OH2 5423   6.802   2.672   4.004
 1827TIP3    H1 5424   6.834   2.713   4.085
 1827TIP3    H2 5425   6.876   2.679   3.944
 1828TIP3   OH2 5426   2.424   5.070   5.670
 1828TIP3    H1 5427   2.409   5.158   5.705
 1828TIP3    H2 5428   2.390   5.011   5.737
 1829TIP3   OH2 5429   1.182   4.198   5.555
 1829TIP3    H1 5430   1.169   4.284   5.515
 1829TIP3    H2 5431   1.210   4.217   5.645
 1830TIP3   OH2 5432   2.564   4.231   5.902
 1830TIP3    H1 5433   2.572   4.159   5.965
 1830TIP3    H2 5434   2.477   4.267   5.917
 1831TIP3   OH2 5435   5.655   5.143   1.966
 1831TIP3    H1 5436   5.593   5.077   1.935
 1831TIP3    H2 5437   5.617   5.174   2.048
 1832TIP3   OH2 5438   6.845   2.462   0.265
 1832TIP3    H1 5439   6.764   2.502   0.233
 1832TIP3    H2 5440   6.844   2.374   0.229
 1833TIP3   OH2 5441   1.678   2.661   0.743
 1833TIP3    H1 5442   1.602   2.610   0.714
 1833TIP3    H2 5443   1.659   2.751   0.715
 1834TIP3   OH2 5444   2.794   5.736   4.810
 1834TIP3    H1 5445   2.795   5.795   4.735
 1834TIP3    H2 5446   2.769   5.791   4.885
 1835TIP3   OH2 5447   6.625   1.505   5.801
 1835TIP3    H1 5448   6.592   1.470   5.718
 1835TIP3    H2 5449   6.656   1.592   5.779
 1836TIP3   OH2 5450   2.163   7.629   4.886
 1836TIP3    H1 5451   2.219   7.592   4.817
 1836TIP3    H2 5452   2.150   7.557   4.947
 1837TIP3   OH2 5453   0.264   3.063   5.803
 1837TIP3    H1 5454   0.278   3.128   5.734
 1837TIP3    H2 5455   0.347   3.016   5.809
 1838TIP3   OH2 5456   8.011   3.956   0.334
 1838TIP3    H1 5457   7.947   3.994   0.274
 1838TIP3    H2 5458   8.034   3.872   0.294
 1839TIP3   OH2 5459   4.399   6.129   0.446
 1839TIP3    H1 5460   4.462   6.064   0.479
 1839TIP3    H2 5461   4.450   6.186   0.389
 1840TIP3   OH2 5462   5.099   1.907   5.437
 1840TIP3    H1 5463   5.068   1.957   5.361
 1840TIP3    H2 5464   5.145   1.832   5.400
 1841TIP3   OH2 5465   7.131   2.735   4.643
 1841TIP3    H1 5466   7.143   2.828   4.626
 1841TIP3    H2 5467   7.182   2.691   4.575
 1842TIP3   OH2 5468   3.970   5.867   3.887
 1842TIP3    H1 5469   3.896   5.922   3.912
 1842TIP3    H2 5470   4.043   5.900   3.939
 1843TIP3   OH2 5471   4.157   0.319   2.163
 1843TIP3    H1 5472   4.160   0.338   2.069
 1843TIP3    H2 5473   4.071   0.353   2.191
 1844TIP3   OH2 5474   4.625   1.345   0.377
 1844TIP3    H1 5475   4.695   1.390   0.330
 1844TIP3    H2 5476   4.563   1.414   0.400
 1845TIP3   OH2 5477   5.913   4.724   2.358
 1845TIP3    H1 5478   5.831   4.691   2.394
 1845TIP3    H2 5479   5.886   4.774   2.280
 1846TIP3   OH2 5480   3.378   2.675   3.907
 1846TIP3    H1 5481   3.328   2.605   3.866
 1846TIP3    H2 5482   3.433   2.631   3.972
 1847TIP3   OH2 5483   4.103   7.063   2.471
 1847TIP3    H1 5484   4.180   7.089   2.522
 1847TIP3    H2 5485   4.139   7.031   2.388
 1848TIP3   OH2 5486   6.850   5.685   4.949
 1848TIP3    H1 5487   6.875   5.601   4.910
 1848TIP3    H2 5488   6.811   5.734   4.877
 1849TIP3   OH2 5489   6.488   4.526   3.198
 1849TIP3    H1 5490   6.436   4.578   3.137
 1849TIP3    H2 5491   6.465   4.561   3.284
 1850TIP3   OH2 5492   6.045   7.779   5.358
 1850TIP3    H1 5493   6.043   7.692   5.318
 1850TIP3    H2 5494   5.964   7.784   5.408
 1851TIP3   OH2 5495   8.149   0.947   3.710
 1851TIP3    H1 5496   8.214   0.946   3.781
 1851TIP3    H2 5497   8.092   1.021   3.731
 1852TIP3   OH2 5498   1.530   1.437   1.096
 1852TIP3    H1 5499   1.554   1.356   1.140
 1852TIP3    H2 5500   1.592   1.502   1.130
 1853TIP3   OH2 5501   5.991   2.808   6.715
 1853TIP3    H1 5502   5.955   2.726   6.748
 1853TIP3    H2 5503   5.916   2.856   6.680
 1854TIP3   OH2 5504   6.879   5.665   1.427
 1854TIP3    H1 5505   6.880   5.643   1.520
 1854TIP3    H2 5506   6.918   5.589   1.384
 1855TIP3   OH2 5507   1.355   0.514   4.666
 1855TIP3    H1 5508   1.328   0.573   4.595
 1855TIP3    H2 5509   1.275   0.471   4.693
 1856TIP3   OH2 5510   4.414   4.105   0.468
 1856TIP3    H1 5511   4.486   4.066   0.518
 1856TIP3    H2 5512   4.457   4.155   0.399
 1857TIP3   OH2 5513   4.582   0.280   6.089
 1857TIP3    H1 5514   4.542   0.366   6.082
 1857TIP3    H2 5515   4.629   0.269   6.006
 1858TIP3   OH2 5516   0.077   3.143   0.362
 1858TIP3    H1 5517   0.149   3.116   0.419
 1858TIP3    H2 5518   0.025   3.063   0.350
 1859TIP3   OH2 5519   3.274   0.429   4.789
 1859TIP3    H1 5520   3.194   0.413   4.839
 1859TIP3    H2 5521   3.331   0.355   4.810
 1860TIP3   OH2 5522   5.363   2.441   0.129
 1860TIP3    H1 5523   5.368   2.377   0.200
 1860TIP3    H2 5524   5.292   2.500   0.155
 1861TIP3   OH2 5525   1.797   3.839   2.075
 1861TIP3    H1 5526   1.892   3.835   2.075
 1861TIP3    H2 5527   1.774   3.889   1.997
 1862TIP3   OH2 5528   7.352   0.993   5.701
 1862TIP3    H1 5529   7.433   1.032   5.733
 1862TIP3    H2 5530   7.365   0.985   5.606
 1863TIP3   OH2 5531   7.670   2.810   4.838
 1863TIP3    H1 5532   7.713   2.805   4.923
 1863TIP3    H2 5533   7.610   2.884   4.846
 1864TIP3   OH2 5534   2.175   3.225   6.356
 1864TIP3    H1 5535   2.249   3.219   6.295
 1864TIP3    H2 5536   2.131   3.141   6.348
 1865TIP3   OH2 5537   5.133   0.231   2.591
 1865TIP3    H1 5538   5.108   0.214   2.500
 1865TIP3    H2 5539   5.206   0.171   2.608
 1866TIP3   OH2 5540   0.676   5.211   5.712
 1866TIP3    H1 5541   0.726   5.288   5.738
 1866TIP3    H2 5542   0.590   5.223   5.752
 1867TIP3   OH2 5543   5.303   3.304   4.762
 1867TIP3    H1 5544   5.367   3.310   4.833
 1867TIP3    H2 5545   5.231   3.253   4.800
 1868TIP3   OH2 5546   6.435   2.647  -0.025
 1868TIP3    H1 5547   6.362   2.702  -0.052
 1868TIP3    H2 5548   6.404   2.605   0.055
 1869TIP3   OH2 5549   1.583   3.009   3.341
 1869TIP3    H1 5550   1.631   2.963   3.272
 1869TIP3    H2 5551   1.616   2.971   3.423
 1870TIP3   OH2 5552   0.740   1.023   6.062
 1870TIP3    H1 5553   0.691   0.965   6.121
 1870TIP3    H2 5554   0.672   1.069   6.012
 1871TIP3   OH2 5555   0.426   1.575   0.410
 1871TIP3    H1 5556   0.342   1.535   0.387
 1871TIP3    H2 5557   0.479   1.502   0.443
 1872TIP3   OH2 5558   1.202   0.811   1.779
 1872TIP3    H1 5559   1.196   0.754   1.703
 1872TIP3    H2 5560   1.119   0.799   1.825
 1873TIP3   OH2 5561   1.533   4.832   1.826
 1873TIP3    H1 5562   1.589   4.903   1.857
 1873TIP3    H2 5563   1.471   4.817   1.897
 1874TIP3   OH2 5564   7.647   6.995   1.221
 1874TIP3    H1 5565   7.711   7.025   1.156
 1874TIP3    H2 5566   7.616   6.911   1.186
 1875TIP3   OH2 5567   4.208   6.173   2.961
 1875TIP3    H1 5568   4.116   6.180   2.936
 1875TIP3    H2 5569   4.211   6.100   3.022
 1876TIP3   OH2 5570   1.480   4.197   6.190
 1876TIP3    H1 5571   1.460   4.142   6.265
 1876TIP3    H2 5572   1.558   4.158   6.151
 1877TIP3   OH2 5573   0.757   6.123   4.054
 1877TIP3    H1 5574   0.675   6.079   4.034
 1877TIP3    H2 5575   0.769   6.185   3.982
 1878TIP3   OH2 5576   3.885   1.792   0.349
 1878TIP3    H1 5577   3.825   1.837   0.289
 1878TIP3    H2 5578   3.846   1.706   0.361
 1879TIP3   OH2 5579   1.102   7.048   4.518
 1879TIP3    H1 5580   1.123   7.045   4.611
 1879TIP3    H2 5581   1.068   7.137   4.503
 1880TIP3   OH2 5582   7.891   5.559   5.137
 1880TIP3    H1 5583   7.856   5.472   5.154
 1880TIP3    H2 5584   7.954   5.574   5.207
 1881TIP3   OH2 5585   1.190   6.419   2.224
 1881TIP3    H1 5586   1.144   6.401   2.143
 1881TIP3    H2 5587   1.274   6.373   2.216
 1882TIP3   OH2 5588   1.400   3.894   1.203
 1882TIP3    H1 5589   1.324   3.876   1.148
 1882TIP3    H2 5590   1.466   3.929   1.143
 1883TIP3   OH2 5591   4.120   2.167   5.629
 1883TIP3    H1 5592   4.214   2.155   5.612
 1883TIP3    H2 5593   4.080   2.085   5.601
 1884TIP3   OH2 5594   6.937   5.541   0.382
 1884TIP3    H1 5595   6.860   5.580   0.339
 1884TIP3    H2 5596   7.012   5.584   0.341
 1885TIP3   OH2 5597   6.228   7.498   1.191
 1885TIP3    H1 5598   6.212   7.563   1.123
 1885TIP3    H2 5599   6.143   7.456   1.205
 1886TIP3   OH2 5600   8.096   3.795   4.131
 1886TIP3    H1 5601   8.008   3.761   4.150
 1886TIP3    H2 5602   8.092   3.821   4.039
 1887TIP3   OH2 5603   5.190   1.994   3.202
 1887TIP3    H1 5604   5.272   1.999   3.152
 1887TIP3    H2 5605   5.215   1.950   3.283
 1888TIP3   OH2 5606   1.023   3.913   0.847
 1888TIP3    H1 5607   0.953   3.949   0.791
 1888TIP3    H2 5608   1.096   3.898   0.787
 1889TIP3   OH2 5609   5.768   7.729   0.820
 1889TIP3    H1 5610   5.817   7.667   0.766
 1889TIP3    H2 5611   5.715   7.674   0.878
 1890TIP3   OH2 5612   4.277   4.148   0.848
 1890TIP3    H1 5613   4.186   4.138   0.875
 1890TIP3    H2 5614   4.323   4.173   0.928
 1891TIP3   OH2 5615   3.273   6.005   1.789
 1891TIP3    H1 5616   3.233   6.037   1.870
 1891TIP3    H2 5617   3.281   6.082   1.734
 1892TIP3   OH2 5618   0.266   5.245   3.166
 1892TIP3    H1 5619   0.175   5.254   3.136
 1892TIP3    H2 5620   0.318   5.253   3.086
 1893TIP3   OH2 5621   6.172   0.423   5.980
 1893TIP3    H1 5622   6.191   0.390   6.068
 1893TIP3    H2 5623   6.216   0.509   5.978
 1894TIP3   OH2 5624   8.114   1.979   5.871
 1894TIP3    H1 5625   8.021   1.963   5.857
 1894TIP3    H2 5626   8.152   1.975   5.784
 1895TIP3   OH2 5627   4.144   3.027   3.989
 1895TIP3    H1 5628   4.216   2.967   3.967
 1895TIP3    H2 5629   4.068   2.969   3.997
 1896TIP3   OH2 5630   3.041   4.004   3.152
 1896TIP3    H1 5631   3.056   4.032   3.062
 1896TIP3    H2 5632   3.029   4.085   3.201
 1897TIP3   OH2 5633   1.630   3.141   4.558
 1897TIP3    H1 5634   1.635   3.155   4.653
 1897TIP3    H2 5635   1.587   3.219   4.524
 1898TIP3   OH2 5636   1.388   6.962   5.423
 1898TIP3    H1 5637   1.413   6.891   5.481
 1898TIP3    H2 5638   1.365   7.034   5.482
 1899TIP3   OH2 5639   3.264   2.268   0.273
 1899TIP3    H1 5640   3.249   2.208   0.200
 1899TIP3    H2 5641   3.286   2.352   0.231
 1900TIP3   OH2 5642   5.050   1.714   6.354
 1900TIP3    H1 5643   4.976   1.668   6.392
 1900TIP3    H2 5644   5.028   1.807   6.364
 1901TIP3   OH2 5645   5.402   5.328   4.470
 1901TIP3    H1 5646   5.355   5.403   4.506
 1901TIP3    H2 5647   5.420   5.352   4.379
 1902TIP3   OH2 5648   2.309   3.095   5.256
 1902TIP3    H1 5649   2.242   3.090   5.188
 1902TIP3    H2 5650   2.361   3.015   5.245
 1903TIP3   OH2 5651   5.052   0.335   6.600
 1903TIP3    H1 5652   4.961   0.359   6.584
 1903TIP3    H2 5653   5.102   0.415   6.581
 1904TIP3   OH2 5654   5.841   6.250   0.568
 1904TIP3    H1 5655   5.887   6.272   0.649
 1904TIP3    H2 5656   5.903   6.195   0.520
 1905TIP3   OH2 5657   7.284   6.090   6.576
 1905TIP3    H1 5658   7.374   6.067   6.595
 1905TIP3    H2 5659   7.275   6.180   6.607
 1906TIP3   OH2 5660   4.364   0.392   3.883
 1906TIP3    H1 5661   4.323   0.465   3.837
 1906TIP3    H2 5662   4.457   0.415   3.887
 1907TIP3   OH2 5663   7.104   7.431   4.981
 1907TIP3    H1 5664   7.127   7.483   4.904
 1907TIP3    H2 5665   7.129   7.486   5.055
 1908TIP3   OH2 5666   5.956   7.233   4.714
 1908TIP3    H1 5667   6.039   7.186   4.714
 1908TIP3    H2 5668   5.927   7.232   4.623
 1909TIP3   OH2 5669   1.615   5.655   0.006
 1909TIP3    H1 5670   1.565   5.577   0.032
 1909TIP3    H2 5671   1.624   5.707   0.086
 1910TIP3   OH2 5672   7.181   5.931   1.164
 1910TIP3    H1 5673   7.270   5.961   1.183
 1910TIP3    H2 5674   7.166   5.958   1.073
 1911TIP3   OH2 5675   7.284   1.096   0.419
 1911TIP3    H1 5676   7.233   1.014   0.416
 1911TIP3    H2 5677   7.222   1.161   0.452
 1912TIP3   OH2 5678   4.973   3.563   6.705
 1912TIP3    H1 5679   4.897   3.519   6.745
 1912TIP3    H2 5680   5.027   3.589   6.779
 1913TIP3   OH2 5681   6.308   7.515   4.969
 1913TIP3    H1 5682   6.317   7.428   5.008
 1913TIP3    H2 5683   6.332   7.575   5.039
 1914TIP3   OH2 5684   8.266   4.553   5.021
 1914TIP3    H1 5685   8.215   4.472   5.035
 1914TIP3    H2 5686   8.252   4.603   5.101
 1915TIP3   OH2 5687   6.798   7.716   3.696
 1915TIP3    H1 5688   6.843   7.741   3.614
 1915TIP3    H2 5689   6.724   7.662   3.667
 1916TIP3   OH2 5690   4.110   4.522   2.199
 1916TIP3    H1 5691   4.082   4.588   2.135
 1916TIP3    H2 5692   4.079   4.439   2.163
 1917TIP3   OH2 5693   7.929   5.325   4.286
 1917TIP3    H1 5694   7.870   5.348   4.214
 1917TIP3    H2 5695   8.016   5.323   4.246
 1918TIP3   OH2 5696   5.038   5.286   0.366
 1918TIP3    H1 5697   5.022   5.201   0.406
 1918TIP3    H2 5698   4.960   5.338   0.388
 1919TIP3   OH2 5699   0.159   3.858   5.722
 1919TIP3    H1 5700   0.070   3.824   5.707
 1919TIP3    H2 5701   0.181   3.905   5.642
 1920TIP3   OH2 5702   5.039   6.364   2.991
 1920TIP3    H1 5703   5.059   6.387   2.900
 1920TIP3    H2 5704   5.101   6.415   3.042
 1921TIP3   OH2 5705  -0.033   4.955   3.250
 1921TIP3    H1 5706  -0.085   4.907   3.314
 1921TIP3    H2 5707   0.010   5.024   3.300
 1922TIP3   OH2 5708   3.225   3.043   4.941
 1922TIP3    H1 5709   3.167   3.031   5.016
 1922TIP3    H2 5710   3.173   3.094   4.879
 1923TIP3   OH2 5711   3.151   5.909   3.523
 1923TIP3    H1 5712   3.121   5.841   3.583
 1923TIP3    H2 5713   3.246   5.905   3.528
 1924TIP3   OH2 5714   4.656   4.726   2.379
 1924TIP3    H1 5715   4.745   4.695   2.362
 1924TIP3    H2 5716   4.644   4.799   2.317
 1925TIP3   OH2 5717   2.904   6.730   2.147
 1925TIP3    H1 5718   2.909   6.799   2.212
 1925TIP3    H2 5719   2.981   6.675   2.164
 1926TIP3   OH2 5720   0.660   5.758   0.516
 1926TIP3    H1 5721   0.729   5.804   0.564
 1926TIP3    H2 5722   0.597   5.734   0.584
 1927TIP3   OH2 5723   0.371   3.115   5.189
 1927TIP3    H1 5724   0.309   3.047   5.163
 1927TIP3    H2 5725   0.318   3.192   5.206
 1928TIP3   OH2 5726   3.529   5.468   5.701
 1928TIP3    H1 5727   3.588   5.520   5.647
 1928TIP3    H2 5728   3.455   5.525   5.719
 1929TIP3   OH2 5729   5.858   5.406   1.452
 1929TIP3    H1 5730   5.881   5.323   1.493
 1929TIP3    H2 5731   5.941   5.442   1.422
 1930TIP3   OH2 5732   4.336   3.806   0.156
 1930TIP3    H1 5733   4.416   3.845   0.123
 1930TIP3    H2 5734   4.347   3.805   0.251
 1931TIP3   OH2 5735   0.729   1.216   0.073
 1931TIP3    H1 5736   0.692   1.143   0.024
 1931TIP3    H2 5737   0.801   1.177   0.123
 1932TIP3   OH2 5738   1.315   6.160   1.294
 1932TIP3    H1 5739   1.241   6.152   1.353
 1932TIP3    H2 5740   1.280   6.206   1.218
 1933TIP3   OH2 5741   7.706   1.922   0.399
 1933TIP3    H1 5742   7.650   1.991   0.363
 1933TIP3    H2 5743   7.676   1.910   0.489
 1934TIP3   OH2 5744   7.065   7.584   5.543
 1934TIP3    H1 5745   7.060   7.651   5.612
 1934TIP3    H2 5746   7.051   7.501   5.589
 1935TIP3   OH2 5747   6.193   0.449   1.308
 1935TIP3    H1 5748   6.237   0.402   1.380
 1935TIP3    H2 5749   6.099   0.439   1.327
 1936TIP3   OH2 5750   4.651   3.678   4.750
 1936TIP3    H1 5751   4.643   3.584   4.768
 1936TIP3    H2 5752   4.573   3.699   4.699
 1937TIP3   OH2 5753   7.755   5.490   2.907
 1937TIP3    H1 5754   7.829   5.494   2.968
 1937TIP3    H2 5755   7.795   5.492   2.820
 1938TIP3   OH2 5756   5.661   1.210   1.793
 1938TIP3    H1 5757   5.697   1.214   1.881
 1938TIP3    H2 5758   5.579   1.258   1.798
 1939TIP3   OH2 5759   5.749   0.151   6.335
 1939TIP3    H1 5760   5.666   0.188   6.365
 1939TIP3    H2 5761   5.724   0.088   6.267
 1940TIP3   OH2 5762   5.076   0.139   4.141
 1940TIP3    H1 5763   5.128   0.168   4.216
 1940TIP3    H2 5764   5.089   0.207   4.076
 1941TIP3   OH2 5765   2.096   6.962   5.499
 1941TIP3    H1 5766   2.027   6.926   5.554
 1941TIP3    H2 5767   2.085   7.057   5.505
 1942TIP3   OH2 5768   1.786   4.537   2.095
 1942TIP3    H1 5769   1.801   4.619   2.049
 1942TIP3    H2 5770   1.798   4.469   2.029
 1943TIP3   OH2 5771   5.637   6.447   3.212
 1943TIP3    H1 5772   5.699   6.510   3.175
 1943TIP3    H2 5773   5.678   6.362   3.195
 1944TIP3   OH2 5774   3.696   4.141   2.495
 1944TIP3    H1 5775   3.676   4.215   2.439
 1944TIP3    H2 5776   3.615   4.091   2.501
 1945TIP3   OH2 5777   0.586   6.674   2.214
 1945TIP3    H1 5778   0.531   6.628   2.151
 1945TIP3    H2 5779   0.551   6.763   2.215
 1946TIP3   OH2 5780   1.492   1.220   1.808
 1946TIP3    H1 5781   1.574   1.259   1.778
 1946TIP3    H2 5782   1.473   1.263   1.891
 1947TIP3   OH2 5783   7.232   0.119   1.195
 1947TIP3    H1 5784   7.239   0.206   1.236
 1947TIP3    H2 5785   7.245   0.136   1.102
 1948TIP3   OH2 5786   2.563   1.414   0.987
 1948TIP3    H1 5787   2.643   1.361   0.994
 1948TIP3    H2 5788   2.506   1.363   0.929
 1949TIP3   OH2 5789   7.864   0.441   5.469
 1949TIP3    H1 5790   7.812   0.433   5.549
 1949TIP3    H2 5791   7.955   0.436   5.498
 1950TIP3   OH2 5792   5.932   6.408   5.429
 1950TIP3    H1 5793   5.924   6.353   5.507
 1950TIP3    H2 5794   6.012   6.458   5.443
 1951TIP3   OH2 5795   7.764   2.371   5.262
 1951TIP3    H1 5796   7.773   2.406   5.173
 1951TIP3    H2 5797   7.815   2.431   5.316
 1952TIP3   OH2 5798   0.949   1.090   4.750
 1952TIP3    H1 5799   0.987   1.010   4.785
 1952TIP3    H2 5800   0.869   1.062   4.706
 1953TIP3   OH2 5801   1.845   0.433   3.375
 1953TIP3    H1 5802   1.752   0.435   3.398
 1953TIP3    H2 5803   1.888   0.394   3.451
 1954TIP3   OH2 5804   6.682   3.990   6.659
 1954TIP3    H1 5805   6.588   3.990   6.642
 1954TIP3    H2 5806   6.717   3.917   6.607
 1955TIP3   OH2 5807   2.772   4.862   0.344
 1955TIP3    H1 5808   2.714   4.820   0.407
 1955TIP3    H2 5809   2.747   4.955   0.347
 1956TIP3   OH2 5810   4.761   1.260   0.933
 1956TIP3    H1 5811   4.667   1.276   0.940
 1956TIP3    H2 5812   4.796   1.282   1.019
 1957TIP3   OH2 5813   6.319   7.461   6.677
 1957TIP3    H1 5814   6.248   7.403   6.649
 1957TIP3    H2 5815   6.296   7.547   6.641
 1958TIP3   OH2 5816   5.828   4.896   0.088
 1958TIP3    H1 5817   5.777   4.820   0.115
 1958TIP3    H2 5818   5.885   4.915   0.163
 1959TIP3   OH2 5819   1.667   4.238   3.255
 1959TIP3    H1 5820   1.733   4.285   3.205
 1959TIP3    H2 5821   1.584   4.264   3.216
 1960TIP3   OH2 5822   4.821   1.436   0.217
 1960TIP3    H1 5823   4.888   1.435   0.285
 1960TIP3    H2 5824   4.843   1.512   0.163
 1961TIP3   OH2 5825   6.042   0.538   2.006
 1961TIP3    H1 5826   6.118   0.482   2.023
 1961TIP3    H2 5827   6.071   0.598   1.938
 1962TIP3   OH2 5828   7.414   1.641   5.662
 1962TIP3    H1 5829   7.477   1.672   5.597
 1962TIP3    H2 5830   7.374   1.720   5.696
 1963TIP3   OH2 5831   4.815   6.376   1.613
 1963TIP3    H1 5832   4.804   6.469   1.594
 1963TIP3    H2 5833   4.881   6.375   1.682
 1964TIP3   OH2 5834   4.426   7.730   3.846
 1964TIP3    H1 5835   4.389   7.666   3.785
 1964TIP3    H2 5836   4.426   7.812   3.797
 1965TIP3   OH2 5837   4.480   4.401   6.261
 1965TIP3    H1 5838   4.514   4.367   6.178
 1965TIP3    H2 5839   4.426   4.331   6.296
 1966TIP3   OH2 5840   1.576   2.711   6.701
 1966TIP3    H1 5841   1.638   2.726   6.772
 1966TIP3    H2 5842   1.566   2.797   6.659
 1967TIP3   OH2 5843   5.159   5.183   3.076
 1967TIP3    H1 5844   5.229   5.126   3.041
 1967TIP3    H2 5845   5.183   5.270   3.045
 1968TIP3   OH2 5846   7.550   0.296   4.506
 1968TIP3    H1 5847   7.554   0.245   4.425
 1968TIP3    H2 5848   7.533   0.231   4.575
 1969TIP3   OH2 5849   8.276   7.746   3.065
 1969TIP3    H1 5850   8.290   7.692   2.987
 1969TIP3    H2 5851   8.205   7.703   3.113
 1970TIP3   OH2 5852   7.329   6.153   2.529
 1970TIP3    H1 5853   7.263   6.189   2.589
 1970TIP3    H2 5854   7.395   6.113   2.586
 1971TIP3   OH2 5855   6.172   7.306   2.946
 1971TIP3    H1 5856   6.105   7.292   2.880
 1971TIP3    H2 5857   6.192   7.399   2.942
 1972TIP3   OH2 5858   0.004   5.828   6.316
 1972TIP3    H1 5859   0.058   5.832   6.395
 1972TIP3    H2 5860   0.023   5.909   6.270
 1973TIP3   OH2 5861   4.757   3.906   3.441
 1973TIP3    H1 5862   4.811   3.875   3.368
 1973TIP3    H2 5863   4.677   3.854   3.436
 1974TIP3   OH2 5864   3.964   7.554   6.082
 1974TIP3    H1 5865   3.989   7.571   5.991
 1974TIP3    H2 5866   3.883   7.603   6.094
 1975TIP3   OH2 5867   1.138   7.498   3.343
 1975TIP3    H1 5868   1.075   7.458   3.283
 1975TIP3    H2 5869   1.095   7.578   3.374
 1976TIP3   OH2 5870   7.788   6.956   0.544
 1976TIP3    H1 5871   7.790   6.974   0.450
 1976TIP3    H2 5872   7.835   6.873   0.554
 1977TIP3   OH2 5873   2.655   5.546   0.604
 1977TIP3    H1 5874   2.722   5.498   0.555
 1977TIP3    H2 5875   2.673   5.638   0.585
 1978TIP3   OH2 5876   4.452   0.475   6.489
 1978TIP3    H1 5877   4.498   0.542   6.438
 1978TIP3    H2 5878   4.500   0.394   6.471
 1979TIP3   OH2 5879   7.534   6.367   1.808
 1979TIP3    H1 5880   7.504   6.454   1.780
 1979TIP3    H2 5881   7.453   6.321   1.831
 1980TIP3   OH2 5882   4.085   1.828   6.338
 1980TIP3    H1 5883   4.156   1.864   6.284
 1980TIP3    H2 5884   4.015   1.808   6.275
 1981TIP3   OH2 5885   0.117   6.974   6.269
 1981TIP3    H1 5886   0.114   6.924   6.187
 1981TIP3    H2 5887   0.029   7.011   6.277
 1982TIP3   OH2 5888   1.833   5.306   3.868
 1982TIP3    H1 5889   1.823   5.401   3.859
 1982TIP3    H2 5890   1.763   5.280   3.927
 1983TIP3   OH2 5891   3.003   2.306   3.026
 1983TIP3    H1 5892   2.907   2.305   3.031
 1983TIP3    H2 5893   3.029   2.373   3.088
 1984TIP3   OH2 5894   6.330   2.318   5.122
 1984TIP3    H1 5895   6.401   2.259   5.143
 1984TIP3    H2 5896   6.252   2.262   5.116
 1985TIP3   OH2 5897   2.280   6.288   5.895
 1985TIP3    H1 5898   2.366   6.248   5.879
 1985TIP3    H2 5899   2.294   6.346   5.969
 1986TIP3   OH2 5900   0.733   5.622   3.824
 1986TIP3    H1 5901   0.786   5.686   3.871
 1986TIP3    H2 5902   0.666   5.594   3.887
 1987TIP3   OH2 5903   0.904   5.763   1.226
 1987TIP3    H1 5904   0.965   5.706   1.179
 1987TIP3    H2 5905   0.961   5.822   1.276
 1988TIP3   OH2 5906   6.990   5.424   0.999
 1988TIP3    H1 5907   7.005   5.518   1.015
 1988TIP3    H2 5908   7.033   5.407   0.916
 1989TIP3   OH2 5909   3.918   4.659   5.798
 1989TIP3    H1 5910   3.927   4.636   5.706
 1989TIP3    H2 5911   4.007   4.684   5.825
 1990TIP3   OH2 5912   8.134   1.112   2.020
 1990TIP3    H1 5913   8.204   1.129   1.957
 1990TIP3    H2 5914   8.107   1.200   2.048
 1991TIP3   OH2 5915   5.765   7.576   5.609
 1991TIP3    H1 5916   5.736   7.485   5.620
 1991TIP3    H2 5917   5.727   7.622   5.684
 1992TIP3   OH2 5918   5.480   0.906   2.695
 1992TIP3    H1 5919   5.400   0.856   2.710
 1992TIP3    H2 5920   5.458   0.969   2.627
 1993TIP3   OH2 5921   5.417   6.031   4.810
 1993TIP3    H1 5922   5.343   5.974   4.832
 1993TIP3    H2 5923   5.488   5.971   4.788
 1994TIP3   OH2 5924   1.344   2.436   4.300
 1994TIP3    H1 5925   1.294   2.394   4.230
 1994TIP3    H2 5926   1.282   2.447   4.372
 1995TIP3   OH2 5927   7.709   2.102   4.502
 1995TIP3    H1 5928   7.742   2.189   4.524
 1995TIP3    H2 5929   7.666   2.072   4.582
 1996TIP3   OH2 5930   3.057   4.167   2.469
 1996TIP3    H1 5931   3.090   4.220   2.397
 1996TIP3    H2 5932   3.133   4.155   2.527
 1997TIP3   OH2 5933   8.050   5.192   1.641
 1997TIP3    H1 5934   8.012   5.243   1.570
 1997TIP3    H2 5935   8.144   5.208   1.635
 1998TIP3   OH2 5936   6.065   3.977   1.756
 1998TIP3    H1 5937   6.050   3.977   1.851
 1998TIP3    H2 5938   5.980   3.999   1.718
 1999TIP3   OH2 5939   0.083   6.448   4.093
 1999TIP3    H1 5940   0.037   6.506   4.153
 1999TIP3    H2 5941   0.017   6.421   4.029
 2000TIP3   OH2 5942   3.654   7.194   5.631
 2000TIP3    H1 5943   3.621   7.280   5.607
 2000TIP3    H2 5944   3.725   7.177   5.568
 2001TIP3   OH2 5945   8.289   3.921   1.267
 2001TIP3    H1 5946   8.202   3.918   1.306
 2001TIP3    H2 5947   8.325   3.834   1.280
 2002TIP3   OH2 5948   5.277   3.195   0.285
 2002TIP3    H1 5949   5.205   3.225   0.229
 2002TIP3    H2 5950   5.348   3.256   0.266
 2003TIP3   OH2 5951   0.647   6.780   1.008
 2003TIP3    H1 5952   0.721   6.809   1.061
 2003TIP3    H2 5953   0.683   6.768   0.920
 2004TIP3   OH2 5954   5.500   2.805   4.708
 2004TIP3    H1 5955   5.586   2.823   4.671
 2004TIP3    H2 5956   5.517   2.749   4.784
 2005TIP3   OH2 5957   2.902   4.348   4.803
 2005TIP3    H1 5958   2.897   4.277   4.867
 2005TIP3    H2 5959   2.976   4.324   4.747
 2006TIP3   OH2 5960   4.215   2.167   4.654
 2006TIP3    H1 5961   4.229   2.240   4.715
 2006TIP3    H2 5962   4.292   2.169   4.597
 2007TIP3   OH2 5963   0.175   5.830   6.536
 2007TIP3    H1 5964   0.174   5.739   6.568
 2007TIP3    H2 5965   0.096   5.869   6.573
 2008TIP3   OH2 5966   0.757  -0.025   3.649
 2008TIP3    H1 5967   0.812   0.049   3.674
 2008TIP3    H2 5968   0.668   0.002   3.672
 2009TIP3   OH2 5969   6.043   0.193   6.682
 2009TIP3    H1 5970   5.987   0.263   6.649
 2009TIP3    H2 5971   6.047   0.207   6.776
 2010TIP3   OH2 5972   7.431   1.713   6.293
 2010TIP3    H1 5973   7.375   1.704   6.370
 2010TIP3    H2 5974   7.473   1.798   6.302
 2011TIP3   OH2 5975   7.611   7.401   5.174
 2011TIP3    H1 5976   7.578   7.322   5.217
 2011TIP3    H2 5977   7.532   7.454   5.158
 2012TIP3   OH2 5978   1.957   2.240   6.475
 2012TIP3    H1 5979   1.938   2.309   6.412
 2012TIP3    H2 5980   1.891   2.251   6.544
 2013TIP3   OH2 5981   6.080   4.864   0.793
 2013TIP3    H1 5982   6.032   4.838   0.714
 2013TIP3    H2 5983   6.172   4.865   0.767
 2014TIP3   OH2 5984   3.765   1.931   3.516
 2014TIP3    H1 5985   3.674   1.900   3.511
 2014TIP3    H2 5986   3.817   1.851   3.527
 2015TIP3   OH2 5987   6.219   7.453   4.364
 2015TIP3    H1 5988   6.130   7.481   4.343
 2015TIP3    H2 5989   6.267   7.462   4.282
 2016TIP3   OH2 5990   1.941   1.011   1.284
 2016TIP3    H1 5991   2.021   1.010   1.232
 2016TIP3    H2 5992   1.961   0.955   1.360
 2017TIP3   OH2 5993   4.865   5.896   2.115
 2017TIP3    H1 5994   4.806   5.836   2.070
 2017TIP3    H2 5995   4.951   5.853   2.110
 2018TIP3   OH2 5996   1.656   7.254   2.071
 2018TIP3    H1 5997   1.684   7.334   2.027
 2018TIP3    H2 5998   1.605   7.206   2.006
 2019TIP3   OH2 5999   1.886   6.921   5.639
 2019TIP3    H1 6000   1.876   6.949   5.730
 2019TIP3    H2 6001   1.818   6.855   5.626
 2020TIP3   OH2 6002   4.253   2.155   0.153
 2020TIP3    H1 6003   4.271   2.068   0.117
 2020TIP3    H2 6004   4.162   2.150   0.181
 2021TIP3   OH2 6005   7.060   5.131   5.477
 2021TIP3    H1 6006   6.978   5.103   5.436
 2021TIP3    H2 6007   7.078   5.063   5.542
 2022TIP3   OH2 6008   0.569   1.231   6.347
 2022TIP3    H1 6009   0.580   1.320   6.381
 2022TIP3    H2 6010   0.652   1.187   6.367
 2023TIP3   OH2 6011   4.124   3.055   0.879
 2023TIP3    H1 6012   4.209   3.025   0.911
 2023TIP3    H2 6013   4.144   3.103   0.799
 2024TIP3   OH2 6014   2.628   6.104   2.432
 2024TIP3    H1 6015   2.568   6.089   2.358
 2024TIP3    H2 6016   2.627   6.022   2.481
 2025TIP3   OH2 6017   5.275   1.723   1.309
 2025TIP3    H1 6018   5.326   1.643   1.318
 2025TIP3    H2 6019   5.330   1.790   1.350
 2026TIP3   OH2 6020   5.012   2.526   5.523
 2026TIP3    H1 6021   5.028   2.543   5.430
 2026TIP3    H2 6022   5.096   2.542   5.565
 2027TIP3   OH2 6023   1.351   4.899   1.326
 2027TIP3    H1 6024   1.324   4.983   1.364
 2027TIP3    H2 6025   1.414   4.864   1.389
 2028TIP3   OH2 6026   6.882   5.608   5.801
 2028TIP3    H1 6027   6.964   5.560   5.810
 2028TIP3    H2 6028   6.895   5.664   5.725
 2029TIP3   OH2 6029   2.120   4.340   5.680
 2029TIP3    H1 6030   2.074   4.308   5.602
 2029TIP3    H2 6031   2.076   4.423   5.700
 2030TIP3   OH2 6032   0.994   5.224   4.857
 2030TIP3    H1 6033   0.991   5.207   4.763
 2030TIP3    H2 6034   1.071   5.176   4.887
 2031TIP3   OH2 6035   0.763   5.032   0.335
 2031TIP3    H1 6036   0.702   5.006   0.404
 2031TIP3    H2 6037   0.806   4.951   0.308
 2032TIP3   OH2 6038   0.960   4.177   1.934
 2032TIP3    H1 6039   0.980   4.084   1.939
 2032TIP3    H2 6040   0.899   4.185   1.860
 2033TIP3   OH2 6041   7.919   5.976   5.290
 2033TIP3    H1 6042   7.851   5.947   5.350
 2033TIP3    H2 6043   8.000   5.943   5.328
 2034TIP3   OH2 6044   0.249   7.128   3.378
 2034TIP3    H1 6045   0.274   7.220   3.385
 2034TIP3    H2 6046   0.319   7.081   3.422
 2035TIP3   OH2 6047   2.692   3.447   1.287
 2035TIP3    H1 6048   2.708   3.353   1.291
 2035TIP3    H2 6049   2.600   3.457   1.311
 2036TIP3   OH2 6050   0.269   3.604   3.800
 2036TIP3    H1 6051   0.209   3.654   3.857
 2036TIP3    H2 6052   0.356   3.623   3.835
 2037TIP3   OH2 6053   3.161   3.309   2.710
 2037TIP3    H1 6054   3.147   3.358   2.629
 2037TIP3    H2 6055   3.097   3.238   2.707
 2038TIP3   OH2 6056   5.982   6.385   3.141
 2038TIP3    H1 6057   6.068   6.427   3.139
 2038TIP3    H2 6058   5.926   6.443   3.090
 2039TIP3   OH2 6059   4.903   7.279   0.294
 2039TIP3    H1 6060   4.986   7.289   0.342
 2039TIP3    H2 6061   4.915   7.201   0.240
 2040TIP3   OH2 6062   8.067   2.618   3.234
 2040TIP3    H1 6063   8.103   2.553   3.173
 2040TIP3    H2 6064   8.031   2.566   3.305
 2041TIP3   OH2 6065   4.570   7.011   5.615
 2041TIP3    H1 6066   4.519   6.951   5.561
 2041TIP3    H2 6067   4.505   7.064   5.661
 2042TIP3   OH2 6068   0.254   7.300   6.235
 2042TIP3    H1 6069   0.221   7.323   6.322
 2042TIP3    H2 6070   0.346   7.275   6.250
 2043TIP3   OH2 6071   4.715   7.769   0.682
 2043TIP3    H1 6072   4.661   7.766   0.761
 2043TIP3    H2 6073   4.718   7.678   0.652
 2044TIP3   OH2 6074   2.822   6.594   4.419
 2044TIP3    H1 6075   2.896   6.635   4.462
 2044TIP3    H2 6076   2.857   6.562   4.336
 2045TIP3   OH2 6077   5.039   3.234   5.524
 2045TIP3    H1 6078   4.961   3.288   5.514
 2045TIP3    H2 6079   5.111   3.292   5.497
 2046TIP3   OH2 6080   6.081   0.152   3.478
 2046TIP3    H1 6081   6.003   0.121   3.524
 2046TIP3    H2 6082   6.077   0.248   3.487
 2047TIP3   OH2 6083   7.117   2.810   1.485
 2047TIP3    H1 6084   7.147   2.841   1.400
 2047TIP3    H2 6085   7.022   2.802   1.476
 2048TIP3   OH2 6086   0.732   1.133   1.138
 2048TIP3    H1 6087   0.678   1.098   1.209
 2048TIP3    H2 6088   0.800   1.183   1.183
 2049TIP3   OH2 6089   1.001   3.355   5.298
 2049TIP3    H1 6090   1.070   3.416   5.324
 2049TIP3    H2 6091   1.008   3.282   5.360
 2050TIP3   OH2 6092   6.752   3.408   2.080
 2050TIP3    H1 6093   6.746   3.499   2.052
 2050TIP3    H2 6094   6.692   3.401   2.154
 2051TIP3   OH2 6095   4.126   0.343   5.894
 2051TIP3    H1 6096   4.036   0.372   5.875
 2051TIP3    H2 6097   4.123   0.312   5.984
 2052TIP3   OH2 6098   2.006   3.799   0.533
 2052TIP3    H1 6099   2.039   3.818   0.445
 2052TIP3    H2 6100   1.935   3.737   0.519
 2053TIP3   OH2 6101   7.610   7.738   5.104
 2053TIP3    H1 6102   7.522   7.706   5.121
 2053TIP3    H2 6103   7.601   7.790   5.023
 2054TIP3   OH2 6104   1.851   2.375   1.446
 2054TIP3    H1 6105   1.875   2.360   1.355
 2054TIP3    H2 6106   1.783   2.311   1.464
 2055TIP3   OH2 6107   8.187   3.453   4.052
 2055TIP3    H1 6108   8.171   3.360   4.035
 2055TIP3    H2 6109   8.182   3.461   4.147
 2056TIP3   OH2 6110   3.224   0.270   0.740
 2056TIP3    H1 6111   3.162   0.341   0.726
 2056TIP3    H2 6112   3.290   0.281   0.672
 2057TIP3   OH2 6113   6.553   2.454   4.479
 2057TIP3    H1 6114   6.584   2.469   4.568
 2057TIP3    H2 6115   6.628   2.417   4.433
 2058TIP3   OH2 6116   0.374   5.704   0.457
 2058TIP3    H1 6117   0.335   5.623   0.490
 2058TIP3    H2 6118   0.412   5.746   0.534
 2059TIP3   OH2 6119   2.299   5.086   6.632
 2059TIP3    H1 6120   2.221   5.061   6.681
 2059TIP3    H2 6121   2.339   5.156   6.684
 2060TIP3   OH2 6122   6.937   1.875   0.853
 2060TIP3    H1 6123   6.845   1.858   0.875
 2060TIP3    H2 6124   6.933   1.944   0.787
 2061TIP3   OH2 6125   3.757   0.134   6.375
 2061TIP3    H1 6126   3.742   0.120   6.281
 2061TIP3    H2 6127   3.674   0.169   6.407
 2062TIP3   OH2 6128   3.033   7.727   5.790
 2062TIP3    H1 6129   3.108   7.684   5.829
 2062TIP3    H2 6130   3.004   7.790   5.856
 2063TIP3   OH2 6131   5.411   2.112   6.473
 2063TIP3    H1 6132   5.333   2.072   6.435
 2063TIP3    H2 6133   5.468   2.129   6.398
 2064TIP3   OH2 6134   6.270   3.281   4.894
 2064TIP3    H1 6135   6.220   3.336   4.834
 2064TIP3    H2 6136   6.252   3.317   4.980
 2065TIP3   OH2 6137   8.054   4.825   2.976
 2065TIP3    H1 6138   8.072   4.761   2.907
 2065TIP3    H2 6139   8.087   4.908   2.941
 2066TIP3   OH2 6140   4.392   0.809   2.647
 2066TIP3    H1 6141   4.420   0.734   2.595
 2066TIP3    H2 6142   4.298   0.814   2.633
 2067TIP3   OH2 6143   4.738   0.397   3.322
 2067TIP3    H1 6144   4.705   0.359   3.240
 2067TIP3    H2 6145   4.775   0.322   3.369
 2068TIP3   OH2 6146   7.285   4.479   4.212
 2068TIP3    H1 6147   7.346   4.552   4.227
 2068TIP3    H2 6148   7.247   4.497   4.126
 2069TIP3   OH2 6149   2.715   7.448   4.925
 2069TIP3    H1 6150   2.809   7.460   4.923
 2069TIP3    H2 6151   2.699   7.394   5.003
 2070TIP3   OH2 6152   1.704   2.323   3.619
 2070TIP3    H1 6153   1.668   2.356   3.537
 2070TIP3    H2 6154   1.628   2.317   3.678
 2071TIP3   OH2 6155   1.823   7.683   1.882
 2071TIP3    H1 6156   1.790   7.681   1.972
 2071TIP3    H2 6157   1.911   7.718   1.889
 2072TIP3   OH2 6158   5.351   4.883   3.927
 2072TIP3    H1 6159   5.408   4.921   3.860
 2072TIP3    H2 6160   5.275   4.941   3.929
 2073TIP3   OH2 6161   2.657   6.773   4.703
 2073TIP3    H1 6162   2.659   6.712   4.776
 2073TIP3    H2 6163   2.749   6.799   4.691
 2074TIP3   OH2 6164   5.850   0.979   4.201
 2074TIP3    H1 6165   5.889   0.966   4.288
 2074TIP3    H2 6166   5.806   0.896   4.181
 2075TIP3   OH2 6167   7.137   2.174   3.260
 2075TIP3    H1 6168   7.098   2.146   3.342
 2075TIP3    H2 6169   7.063   2.200   3.205
 2076TIP3   OH2 6170   7.287   4.717   2.190
 2076TIP3    H1 6171   7.317   4.757   2.272
 2076TIP3    H2 6172   7.354   4.740   2.126
 2077TIP3   OH2 6173   6.095   4.646   1.983
 2077TIP3    H1 6174   6.066   4.557   1.963
 2077TIP3    H2 6175   6.149   4.671   1.909
 2078TIP3   OH2 6176   0.280   1.676   5.165
 2078TIP3    H1 6177   0.353   1.637   5.117
 2078TIP3    H2 6178   0.261   1.757   5.118
 2079TIP3   OH2 6179   5.063   2.693   1.622
 2079TIP3    H1 6180   5.077   2.608   1.663
 2079TIP3    H2 6181   4.999   2.676   1.552
 2080TIP3   OH2 6182   0.151   4.969   2.511
 2080TIP3    H1 6183   0.071   4.974   2.564
 2080TIP3    H2 6184   0.184   5.059   2.509
 2081TIP3   OH2 6185   7.930   7.078   4.768
 2081TIP3    H1 6186   7.893   7.005   4.720
 2081TIP3    H2 6187   7.898   7.156   4.722
 2082TIP3   OH2 6188   7.485   0.601   0.098
 2082TIP3    H1 6189   7.403   0.649   0.109
 2082TIP3    H2 6190   7.500   0.560   0.184
 2083TIP3   OH2 6191  -0.060   3.689   1.929
 2083TIP3    H1 6192   0.020   3.654   1.967
 2083TIP3    H2 6193  -0.031   3.743   1.856
 2084TIP3   OH2 6194   7.512   0.827   3.535
 2084TIP3    H1 6195   7.567   0.826   3.613
 2084TIP3    H2 6196   7.517   0.917   3.503
 2085TIP3   OH2 6197   6.417   3.955   0.773
 2085TIP3    H1 6198   6.461   3.938   0.689
 2085TIP3    H2 6199   6.488   3.975   0.834
 2086TIP3   OH2 6200   2.662   0.419   5.428
 2086TIP3    H1 6201   2.581   0.455   5.391
 2086TIP3    H2 6202   2.657   0.441   5.522
 2087TIP3   OH2 6203   6.881   1.743   5.401
 2087TIP3    H1 6204   6.923   1.708   5.480
 2087TIP3    H2 6205   6.912   1.686   5.330
 2088TIP3   OH2 6206   7.809   3.738   0.110
 2088TIP3    H1 6207   7.757   3.732   0.030
 2088TIP3    H2 6208   7.874   3.806   0.091
 2089TIP3   OH2 6209   5.746   7.572   3.889
 2089TIP3    H1 6210   5.752   7.590   3.795
 2089TIP3    H2 6211   5.676   7.629   3.920
 2090TIP3   OH2 6212   5.745   6.228   1.564
 2090TIP3    H1 6213   5.794   6.251   1.485
 2090TIP3    H2 6214   5.692   6.152   1.539
 2091TIP3   OH2 6215   3.635   6.349   0.712
 2091TIP3    H1 6216   3.550   6.315   0.739
 2091TIP3    H2 6217   3.694   6.274   0.717
 2092TIP3   OH2 6218   7.089   2.916   6.303
 2092TIP3    H1 6219   7.064   2.824   6.302
 2092TIP3    H2 6220   7.184   2.916   6.308
 2093TIP3   OH2 6221   5.297   5.758   4.022
 2093TIP3    H1 6222   5.262   5.838   3.983
 2093TIP3    H2 6223   5.391   5.762   4.007
 2094TIP3   OH2 6224   6.952   0.531   3.868
 2094TIP3    H1 6225   6.936   0.440   3.896
 2094TIP3    H2 6226   6.936   0.530   3.774
 2095TIP3   OH2 6227   5.062   4.332   6.089
 2095TIP3    H1 6228   5.051   4.283   6.171
 2095TIP3    H2 6229   4.987   4.307   6.035
 2096TIP3   OH2 6230   4.583   3.956   4.000
 2096TIP3    H1 6231   4.497   3.918   3.984
 2096TIP3    H2 6232   4.565   4.044   4.033
 2097TIP3   OH2 6233   3.799   5.648   4.665
 2097TIP3    H1 6234   3.828   5.728   4.620
 2097TIP3    H2 6235   3.714   5.670   4.703
 2098TIP3   OH2 6236   0.630   2.494   5.177
 2098TIP3    H1 6237   0.606   2.438   5.251
 2098TIP3    H2 6238   0.549   2.540   5.154
 2099TIP3   OH2 6239   2.399   7.739   2.820
 2099TIP3    H1 6240   2.415   7.743   2.726
 2099TIP3    H2 6241   2.439   7.819   2.854
 2100TIP3   OH2 6242   1.422   2.508   6.020
 2100TIP3    H1 6243   1.421   2.541   6.110
 2100TIP3    H2 6244   1.402   2.585   5.966
 2101TIP3   OH2 6245   1.161   4.214   0.437
 2101TIP3    H1 6246   1.126   4.209   0.526
 2101TIP3    H2 6247   1.132   4.133   0.395
 2102TIP3   OH2 6248   0.754   0.331   2.608
 2102TIP3    H1 6249   0.683   0.394   2.597
 2102TIP3    H2 6250   0.833   0.378   2.580
 2103TIP3   OH2 6251   2.571   0.917   1.126
 2103TIP3    H1 6252   2.538   0.865   1.199
 2103TIP3    H2 6253   2.589   1.003   1.163
 2104TIP3   OH2 6254   1.997   5.362   2.099
 2104TIP3    H1 6255   2.069   5.351   2.037
 2104TIP3    H2 6256   2.025   5.317   2.178
 2105TIP3   OH2 6257   2.314   6.261   1.137
 2105TIP3    H1 6258   2.287   6.170   1.126
 2105TIP3    H2 6259   2.237   6.304   1.176
 2106TIP3   OH2 6260   1.060   1.562   1.016
 2106TIP3    H1 6261   1.081   1.511   0.938
 2106TIP3    H2 6262   1.140   1.561   1.068
 2107TIP3   OH2 6263   3.894   2.622   4.287
 2107TIP3    H1 6264   3.923   2.630   4.378
 2107TIP3    H2 6265   3.975   2.606   4.238
 2108TIP3   OH2 6266   7.178   0.333   0.391
 2108TIP3    H1 6267   7.090   0.310   0.422
 2108TIP3    H2 6268   7.237   0.280   0.443
 2109TIP3   OH2 6269   2.485   4.698   1.567
 2109TIP3    H1 6270   2.501   4.746   1.486
 2109TIP3    H2 6271   2.552   4.629   1.567
 2110TIP3   OH2 6272   4.321   2.501   3.747
 2110TIP3    H1 6273   4.332   2.418   3.699
 2110TIP3    H2 6274   4.347   2.568   3.684
 2111TIP3   OH2 6275   4.997   7.758   0.702
 2111TIP3    H1 6276   4.903   7.756   0.717
 2111TIP3    H2 6277   5.036   7.749   0.789
 2112TIP3   OH2 6278   7.307   2.609   0.543
 2112TIP3    H1 6279   7.280   2.604   0.635
 2112TIP3    H2 6280   7.322   2.517   0.518
 2113TIP3   OH2 6281   7.423   1.505   0.556
 2113TIP3    H1 6282   7.473   1.561   0.497
 2113TIP3    H2 6283   7.468   1.420   0.552
 2114TIP3   OH2 6284   5.568   6.647   1.498
 2114TIP3    H1 6285   5.504   6.689   1.556
 2114TIP3    H2 6286   5.538   6.557   1.489
 2115TIP3   OH2 6287   6.708   5.110   6.676
 2115TIP3    H1 6288   6.618   5.125   6.647
 2115TIP3    H2 6289   6.762   5.148   6.608
 2116TIP3   OH2 6290   4.096   5.243   3.182
 2116TIP3    H1 6291   4.136   5.330   3.184
 2116TIP3    H2 6292   4.164   5.185   3.147
 2117TIP3   OH2 6293   2.977   5.636   5.431
 2117TIP3    H1 6294   2.991   5.730   5.417
 2117TIP3    H2 6295   2.909   5.613   5.368
 2118TIP3   OH2 6296   5.770   3.724   6.221
 2118TIP3    H1 6297   5.840   3.772   6.265
 2118TIP3    H2 6298   5.691   3.746   6.270
 2119TIP3   OH2 6299   1.070   2.094   1.247
 2119TIP3    H1 6300   1.107   2.086   1.335
 2119TIP3    H2 6301   1.117   2.029   1.195
 2120TIP3   OH2 6302   1.708   6.426   5.124
 2120TIP3    H1 6303   1.675   6.384   5.203
 2120TIP3    H2 6304   1.691   6.519   5.138
 2121TIP3   OH2 6305   0.250   6.716   1.541
 2121TIP3    H1 6306   0.185   6.751   1.602
 2121TIP3    H2 6307   0.267   6.789   1.480
 2122TIP3   OH2 6308   2.750   7.246   4.699
 2122TIP3    H1 6309   2.755   7.309   4.628
 2122TIP3    H2 6310   2.739   7.299   4.778
 2123TIP3   OH2 6311   7.706   6.697   4.944
 2123TIP3    H1 6312   7.794   6.661   4.935
 2123TIP3    H2 6313   7.659   6.633   4.998
 2124TIP3   OH2 6314   0.717   4.089   4.253
 2124TIP3    H1 6315   0.631   4.101   4.214
 2124TIP3    H2 6316   0.726   4.163   4.313
 2125TIP3   OH2 6317   1.192   2.744   0.361
 2125TIP3    H1 6318   1.150   2.715   0.441
 2125TIP3    H2 6319   1.129   2.726   0.292
 2126TIP3   OH2 6320   4.225   4.777   5.740
 2126TIP3    H1 6321   4.245   4.698   5.690
 2126TIP3    H2 6322   4.308   4.802   5.780
 2127TIP3   OH2 6323   8.115   2.664   0.793
 2127TIP3    H1 6324   8.076   2.597   0.850
 2127TIP3    H2 6325   8.111   2.626   0.705
 2128TIP3   OH2 6326   4.526   1.553   2.721
 2128TIP3    H1 6327   4.589   1.563   2.792
 2128TIP3    H2 6328   4.464   1.625   2.733
 2129TIP3   OH2 6329   0.286   6.211   6.322
 2129TIP3    H1 6330   0.321   6.294   6.290
 2129TIP3    H2 6331   0.270   6.227   6.416
 2130TIP3   OH2 6332   2.767   7.176   2.806
 2130TIP3    H1 6333   2.706   7.247   2.823
 2130TIP3    H2 6334   2.747   7.147   2.717
 2131TIP3   OH2 6335   5.119   0.641   1.480
 2131TIP3    H1 6336   5.207   0.620   1.509
 2131TIP3    H2 6337   5.071   0.558   1.485
 2132TIP3   OH2 6338   7.947   4.238   1.787
 2132TIP3    H1 6339   7.908   4.187   1.858
 2132TIP3    H2 6340   7.926   4.329   1.808
 2133TIP3   OH2 6341   0.975   5.908   4.690
 2133TIP3    H1 6342   1.065   5.940   4.686
 2133TIP3    H2 6343   0.934   5.961   4.759
 2134TIP3   OH2 6344   8.116   4.353   1.194
 2134TIP3    H1 6345   8.024   4.366   1.217
 2134TIP3    H2 6346   8.114   4.296   1.117
 2135TIP3   OH2 6347   2.789   5.298   5.850
 2135TIP3    H1 6348   2.816   5.354   5.922
 2135TIP3    H2 6349   2.780   5.358   5.775
 2136TIP3   OH2 6350   5.243   7.667   2.285
 2136TIP3    H1 6351   5.148   7.656   2.291
 2136TIP3    H2 6352   5.256   7.721   2.207
 2137TIP3   OH2 6353   2.805   1.703   0.821
 2137TIP3    H1 6354   2.781   1.653   0.743
 2137TIP3    H2 6355   2.859   1.774   0.788
 2138TIP3   OH2 6356   1.137   3.454   1.230
 2138TIP3    H1 6357   1.153   3.470   1.323
 2138TIP3    H2 6358   1.047   3.482   1.216
 2139TIP3   OH2 6359   6.036   7.213   6.042
 2139TIP3    H1 6360   6.077   7.294   6.014
 2139TIP3    H2 6361   6.080   7.145   5.990
 2140TIP3   OH2 6362   1.663   4.904   2.271
 2140TIP3    H1 6363   1.650   4.985   2.320
 2140TIP3    H2 6364   1.710   4.847   2.331
 2141TIP3   OH2 6365   0.802   4.428   3.396
 2141TIP3    H1 6366   0.767   4.369   3.462
 2141TIP3    H2 6367   0.736   4.498   3.390
 2142TIP3   OH2 6368   1.202   3.521   5.371
 2142TIP3    H1 6369   1.207   3.571   5.289
 2142TIP3    H2 6370   1.198   3.588   5.439
 2143TIP3   OH2 6371   7.662   0.484   5.647
 2143TIP3    H1 6372   7.594   0.417   5.645
 2143TIP3    H2 6373   7.637   0.546   5.579
 2144TIP3   OH2 6374   7.071   0.202   5.482
 2144TIP3    H1 6375   7.096   0.122   5.530
 2144TIP3    H2 6376   7.153   0.233   5.443
 2145TIP3   OH2 6377   4.781   4.002   2.191
 2145TIP3    H1 6378   4.804   3.917   2.229
 2145TIP3    H2 6379   4.828   4.004   2.107
 2146TIP3   OH2 6380   0.266   4.822   6.510
 2146TIP3    H1 6381   0.203   4.770   6.561
 2146TIP3    H2 6382   0.261   4.785   6.422
 2147TIP3   OH2 6383   6.850   0.034   5.002
 2147TIP3    H1 6384   6.763   0.069   4.987
 2147TIP3    H2 6385   6.908   0.110   4.992
 2148TIP3   OH2 6386   6.117   6.792   0.294
 2148TIP3    H1 6387   6.163   6.728   0.239
 2148TIP3    H2 6388   6.047   6.741   0.336
 2149TIP3   OH2 6389   3.788   3.395   5.469
 2149TIP3    H1 6390   3.827   3.408   5.555
 2149TIP3    H2 6391   3.696   3.417   5.480
 2150TIP3   OH2 6392   2.286   4.274   1.679
 2150TIP3    H1 6393   2.277   4.360   1.720
 2150TIP3    H2 6394   2.314   4.292   1.590
 2151TIP3   OH2 6395   6.582   0.447   5.296
 2151TIP3    H1 6396   6.549   0.503   5.226
 2151TIP3    H2 6397   6.597   0.507   5.369
 2152TIP3   OH2 6398   7.567   7.532   3.297
 2152TIP3    H1 6399   7.531   7.604   3.347
 2152TIP3    H2 6400   7.532   7.543   3.209
 2153TIP3   OH2 6401   2.985   7.074   6.021
 2153TIP3    H1 6402   3.029   7.088   5.938
 2153TIP3    H2 6403   3.055   7.066   6.085
 2154TIP3   OH2 6404   8.165   0.584   1.561
 2154TIP3    H1 6405   8.152   0.657   1.500
 2154TIP3    H2 6406   8.214   0.621   1.634
 2155TIP3   OH2 6407   2.268   7.501   4.375
 2155TIP3    H1 6408   2.296   7.557   4.303
 2155TIP3    H2 6409   2.174   7.489   4.362
 2156TIP3   OH2 6410   1.220   4.258   6.107
 2156TIP3    H1 6411   1.308   4.249   6.143
 2156TIP3    H2 6412   1.222   4.341   6.059
 2157TIP3   OH2 6413   6.247   1.463   0.107
 2157TIP3    H1 6414   6.199   1.385   0.080
 2157TIP3    H2 6415   6.309   1.432   0.173
 2158TIP3   OH2 6416   6.880   0.364   1.633
 2158TIP3    H1 6417   6.817   0.418   1.585
 2158TIP3    H2 6418   6.891   0.410   1.717
 2159TIP3   OH2 6419   4.958   0.502   2.156
 2159TIP3    H1 6420   5.006   0.569   2.205
 2159TIP3    H2 6421   5.025   0.442   2.125
 2160TIP3   OH2 6422   1.821   7.083   3.102
 2160TIP3    H1 6423   1.805   7.099   3.009
 2160TIP3    H2 6424   1.825   7.170   3.141
 2161TIP3   OH2 6425   1.772   6.695   4.611
 2161TIP3    H1 6426   1.699   6.726   4.558
 2161TIP3    H2 6427   1.848   6.703   4.554
 2162TIP3   OH2 6428   2.197   1.695   3.958
 2162TIP3    H1 6429   2.135   1.684   3.886
 2162TIP3    H2 6430   2.277   1.651   3.928
 2163TIP3   OH2 6431   6.556   4.424   3.595
 2163TIP3    H1 6432   6.606   4.444   3.516
 2163TIP3    H2 6433   6.550   4.329   3.597
 2164TIP3   OH2 6434   7.941   3.139   0.762
 2164TIP3    H1 6435   7.930   3.230   0.734
 2164TIP3    H2 6436   7.938   3.088   0.681
 2165TIP3   OH2 6437   8.040   2.964   5.333
 2165TIP3    H1 6438   7.992   3.026   5.278
 2165TIP3    H2 6439   8.086   2.907   5.271
 2166TIP3   OH2 6440   3.628   6.673   3.368
 2166TIP3    H1 6441   3.652   6.763   3.393
 2166TIP3    H2 6442   3.534   6.669   3.382
 2167TIP3   OH2 6443   0.179   1.903   1.537
 2167TIP3    H1 6444   0.169   1.818   1.579
 2167TIP3    H2 6445   0.273   1.910   1.519
 2168TIP3   OH2 6446   7.655   0.052   4.001
 2168TIP3    H1 6447   7.671   0.026   4.092
 2168TIP3    H2 6448   7.580   0.111   4.005
 2169TIP3   OH2 6449   7.512   5.509   2.597
 2169TIP3    H1 6450   7.601   5.543   2.609
 2169TIP3    H2 6451   7.458   5.563   2.654
 2170TIP3   OH2 6452   7.937   0.913   0.951
 2170TIP3    H1 6453   7.982   0.829   0.939
 2170TIP3    H2 6454   7.861   0.908   0.893
 2171TIP3   OH2 6455   2.733   0.509   5.693
 2171TIP3    H1 6456   2.806   0.451   5.672
 2171TIP3    H2 6457   2.774   0.586   5.731
 2172TIP3   OH2 6458   2.918   1.698   1.941
 2172TIP3    H1 6459   2.925   1.617   1.992
 2172TIP3    H2 6460   2.938   1.767   2.003
 2173TIP3   OH2 6461   3.745   3.057   0.875
 2173TIP3    H1 6462   3.684   2.985   0.858
 2173TIP3    H2 6463   3.806   3.054   0.801
 2174TIP3   OH2 6464   7.875   2.058   6.210
 2174TIP3    H1 6465   7.819   2.093   6.140
 2174TIP3    H2 6466   7.888   2.131   6.270
 2175TIP3   OH2 6467   3.102   4.981   4.522
 2175TIP3    H1 6468   3.119   4.998   4.615
 2175TIP3    H2 6469   3.146   4.898   4.504
 2176TIP3   OH2 6470   8.080   5.657   2.791
 2176TIP3    H1 6471   8.076   5.624   2.881
 2176TIP3    H2 6472   8.145   5.602   2.749
 2177TIP3   OH2 6473   3.903   6.981   0.834
 2177TIP3    H1 6474   3.982   7.008   0.788
 2177TIP3    H2 6475   3.935   6.942   0.916
 2178TIP3   OH2 6476   3.795   3.067   1.855
 2178TIP3    H1 6477   3.837   3.008   1.792
 2178TIP3    H2 6478   3.734   3.011   1.903
 2179TIP3   OH2 6479   5.271   2.929   2.397
 2179TIP3    H1 6480   5.294   2.838   2.417
 2179TIP3    H2 6481   5.290   2.976   2.478
 2180TIP3   OH2 6482   0.475   7.337   5.696
 2180TIP3    H1 6483   0.517   7.298   5.619
 2180TIP3    H2 6484   0.547   7.351   5.757
 2181TIP3   OH2 6485   5.105   2.144   2.023
 2181TIP3    H1 6486   5.064   2.066   2.061
 2181TIP3    H2 6487   5.199   2.130   2.036
 2182TIP3   OH2 6488   3.506   3.377   5.408
 2182TIP3    H1 6489   3.487   3.304   5.350
 2182TIP3    H2 6490   3.448   3.364   5.483
 2183TIP3   OH2 6491   1.529   5.854   3.472
 2183TIP3    H1 6492   1.578   5.927   3.511
 2183TIP3    H2 6493   1.467   5.828   3.539
 2184TIP3   OH2 6494   7.938   0.546   6.766
 2184TIP3    H1 6495   7.868   0.557   6.830
 2184TIP3    H2 6496   7.893   0.544   6.682
 2185TIP3   OH2 6497   0.054   2.523   5.373
 2185TIP3    H1 6498   0.134   2.575   5.383
 2185TIP3    H2 6499   0.008   2.565   5.300
 2186TIP3   OH2 6500   6.916   4.885   4.668
 2186TIP3    H1 6501   6.980   4.834   4.620
 2186TIP3    H2 6502   6.914   4.845   4.755
 2187TIP3   OH2 6503   5.290   2.774   3.840
 2187TIP3    H1 6504   5.374   2.752   3.880
 2187TIP3    H2 6505   5.236   2.803   3.913
 2188TIP3   OH2 6506   1.890   0.919   3.809
 2188TIP3    H1 6507   1.898   0.869   3.890
 2188TIP3    H2 6508   1.817   0.979   3.826
 2189TIP3   OH2 6509   5.639   0.813   0.541
 2189TIP3    H1 6510   5.604   0.897   0.571
 2189TIP3    H2 6511   5.694   0.782   0.614
 2190TIP3   OH2 6512   4.824   1.540   6.456
 2190TIP3    H1 6513   4.800   1.527   6.364
 2190TIP3    H2 6514   4.740   1.541   6.503
 2191TIP3   OH2 6515   6.698   7.093   2.343
 2191TIP3    H1 6516   6.691   7.114   2.250
 2191TIP3    H2 6517   6.611   7.114   2.379
 2192TIP3   OH2 6518   1.718   5.836   2.422
 2192TIP3    H1 6519   1.648   5.901   2.422
 2192TIP3    H2 6520   1.688   5.768   2.483
 2193TIP3   OH2 6521   5.469   7.457   3.947
 2193TIP3    H1 6522   5.483   7.508   4.026
 2193TIP3    H2 6523   5.444   7.370   3.978
 2194TIP3   OH2 6524   0.955   4.050   3.814
 2194TIP3    H1 6525   1.020   4.084   3.876
 2194TIP3    H2 6526   1.007   4.001   3.751
 2195TIP3   OH2 6527   5.691   1.181   4.880
 2195TIP3    H1 6528   5.622   1.186   4.814
 2195TIP3    H2 6529   5.721   1.090   4.877
 2196TIP3   OH2 6530   7.666   7.251   1.413
 2196TIP3    H1 6531   7.640   7.202   1.491
 2196TIP3    H2 6532   7.756   7.278   1.431
 2197TIP3   OH2 6533   6.721   2.249   3.718
 2197TIP3    H1 6534   6.660   2.323   3.711
 2197TIP3    H2 6535   6.777   2.256   3.641
 2198TIP3   OH2 6536   2.458   5.026   2.353
 2198TIP3    H1 6537   2.542   5.059   2.385
 2198TIP3    H2 6538   2.452   4.938   2.390
 2199TIP3   OH2 6539   3.178   2.626   1.296
 2199TIP3    H1 6540   3.130   2.661   1.371
 2199TIP3    H2 6541   3.270   2.637   1.319
 2200TIP3   OH2 6542   7.508   4.066   3.245
 2200TIP3    H1 6543   7.444   4.097   3.181
 2200TIP3    H2 6544   7.588   4.115   3.224
 2201TIP3   OH2 6545   6.760   4.659   2.808
 2201TIP3    H1 6546   6.846   4.701   2.810
 2201TIP3    H2 6547   6.758   4.604   2.886
 2202TIP3   OH2 6548   5.355   7.032   5.231
 2202TIP3    H1 6549   5.362   7.114   5.183
 2202TIP3    H2 6550   5.261   7.012   5.231
 2203TIP3   OH2 6551   7.887   0.298   1.911
 2203TIP3    H1 6552   7.919   0.375   1.957
 2203TIP3    H2 6553   7.885   0.323   1.819
 2204TIP3   OH2 6554   7.378   7.369   1.297
 2204TIP3    H1 6555   7.400   7.454   1.258
 2204TIP3    H2 6556   7.361   7.390   1.389
 2205TIP3   OH2 6557   7.576   3.058   6.491
 2205TIP3    H1 6558   7.571   3.032   6.399
 2205TIP3    H2 6559   7.494   3.028   6.529
 2206TIP3   OH2 6560   0.797   5.390   3.322
 2206TIP3    H1 6561   0.794   5.485   3.336
 2206TIP3    H2 6562   0.881   5.375   3.279
 2207TIP3   OH2 6563   2.454   7.134   6.126
 2207TIP3    H1 6564   2.397   7.157   6.052
 2207TIP3    H2 6565   2.539   7.171   6.102
 2208TIP3   OH2 6566   4.239   1.804   3.446
 2208TIP3    H1 6567   4.268   1.861   3.374
 2208TIP3    H2 6568   4.179   1.858   3.496
 2209TIP3   OH2 6569   3.988   6.512   4.687
 2209TIP3    H1 6570   3.960   6.447   4.623
 2209TIP3    H2 6571   3.936   6.590   4.666
 2210TIP3   OH2 6572   5.748   7.034   3.537
 2210TIP3    H1 6573   5.824   7.048   3.479
 2210TIP3    H2 6574   5.761   6.946   3.573
 2211TIP3   OH2 6575   4.822   2.841   5.272
 2211TIP3    H1 6576   4.841   2.925   5.231
 2211TIP3    H2 6577   4.906   2.795   5.273
 2212TIP3   OH2 6578   7.865   0.737   1.302
 2212TIP3    H1 6579   7.835   0.791   1.375
 2212TIP3    H2 6580   7.815   0.656   1.311
 2213TIP3   OH2 6581   0.678   7.728   1.978
 2213TIP3    H1 6582   0.627   7.805   2.005
 2213TIP3    H2 6583   0.649   7.660   2.038
 2214TIP3   OH2 6584   3.716   4.775   1.148
 2214TIP3    H1 6585   3.691   4.794   1.057
 2214TIP3    H2 6586   3.637   4.736   1.186
 2215TIP3   OH2 6587   6.819   1.476   0.197
 2215TIP3    H1 6588   6.756   1.406   0.178
 2215TIP3    H2 6589   6.767   1.544   0.240
 2216TIP3   OH2 6590   1.490   5.576   2.842
 2216TIP3    H1 6591   1.568   5.615   2.881
 2216TIP3    H2 6592   1.503   5.482   2.851
 2217TIP3   OH2 6593   7.422   0.205   6.235
 2217TIP3    H1 6594   7.384   0.117   6.235
 2217TIP3    H2 6595   7.502   0.197   6.288
 2218TIP3   OH2 6596   2.197   2.276   1.267
 2218TIP3    H1 6597   2.289   2.251   1.266
 2218TIP3    H2 6598   2.183   2.312   1.355
 2219TIP3   OH2 6599   0.724   0.058   1.189
 2219TIP3    H1 6600   0.717   0.152   1.205
 2219TIP3    H2 6601   0.818   0.043   1.178
 2220TIP3   OH2 6602   1.989   3.398   6.454
 2220TIP3    H1 6603   2.070   3.366   6.413
 2220TIP3    H2 6604   1.933   3.422   6.381
 2221TIP3   OH2 6605   5.588   4.384   2.943
 2221TIP3    H1 6606   5.625   4.471   2.930
 2221TIP3    H2 6607   5.528   4.372   2.869
 2222TIP3   OH2 6608   1.685   5.637   0.622
 2222TIP3    H1 6609   1.605   5.587   0.607
 2222TIP3    H2 6610   1.659   5.729   0.610
 2223TIP3   OH2 6611   7.119   2.176   4.609
 2223TIP3    H1 6612   7.079   2.224   4.682
 2223TIP3    H2 6613   7.112   2.235   4.534
 2224TIP3   OH2 6614   0.566   3.804   5.614
 2224TIP3    H1 6615   0.520   3.786   5.696
 2224TIP3    H2 6616   0.587   3.897   5.617
 2225TIP3   OH2 6617   2.707   5.607   6.499
 2225TIP3    H1 6618   2.700   5.513   6.511
 2225TIP3    H2 6619   2.754   5.617   6.416
 2226TIP3   OH2 6620   6.070   1.840   2.278
 2226TIP3    H1 6621   6.136   1.771   2.271
 2226TIP3    H2 6622   6.116   1.920   2.252
 2227TIP3   OH2 6623   7.870   7.630   1.455
 2227TIP3    H1 6624   7.776   7.632   1.475
 2227TIP3    H2 6625   7.912   7.666   1.534
 2228TIP3   OH2 6626   3.705   5.264   1.194
 2228TIP3    H1 6627   3.669   5.293   1.278
 2228TIP3    H2 6628   3.740   5.177   1.211
 2229TIP3   OH2 6629   1.420   6.578   5.111
 2229TIP3    H1 6630   1.407   6.580   5.016
 2229TIP3    H2 6631   1.457   6.665   5.131
 2230TIP3   OH2 6632   3.494   7.613   4.875
 2230TIP3    H1 6633   3.578   7.615   4.922
 2230TIP3    H2 6634   3.480   7.521   4.852
 2231TIP3   OH2 6635   1.218   1.807   0.712
 2231TIP3    H1 6636   1.190   1.806   0.620
 2231TIP3    H2 6637   1.267   1.726   0.723
 2232TIP3   OH2 6638   1.828   2.364   6.011
 2232TIP3    H1 6639   1.755   2.330   5.960
 2232TIP3    H2 6640   1.818   2.459   6.008
 2233TIP3   OH2 6641   7.187   6.034   2.050
 2233TIP3    H1 6642   7.215   6.096   1.982
 2233TIP3    H2 6643   7.205   6.078   2.133
 2234TIP3   OH2 6644   4.846   0.587   6.317
 2234TIP3    H1 6645   4.905   0.662   6.321
 2234TIP3    H2 6646   4.882   0.531   6.248
 2235TIP3   OH2 6647   1.636   2.024   3.099
 2235TIP3    H1 6648   1.558   2.006   3.152
 2235TIP3    H2 6649   1.708   2.028   3.162
 2236TIP3   OH2 6650   7.114   1.588   2.158
 2236TIP3    H1 6651   7.176   1.582   2.231
 2236TIP3    H2 6652   7.066   1.669   2.174
 2237TIP3   OH2 6653   3.431   7.576   2.401
 2237TIP3    H1 6654   3.453   7.606   2.313
 2237TIP3    H2 6655   3.515   7.575   2.447
 2238TIP3   OH2 6656   2.613   3.310   3.647
 2238TIP3    H1 6657   2.695   3.359   3.658
 2238TIP3    H2 6658   2.546   3.367   3.686
 2239TIP3   OH2 6659   1.834   6.998   5.336
 2239TIP3    H1 6660   1.851   6.968   5.246
 2239TIP3    H2 6661   1.906   6.963   5.387
 2240TIP3   OH2 6662   2.629   0.661   5.194
 2240TIP3    H1 6663   2.688   0.654   5.269
 2240TIP3    H2 6664   2.586   0.746   5.204
 2241TIP3   OH2 6665   1.341   5.099   1.526
 2241TIP3    H1 6666   1.339   5.163   1.597
 2241TIP3    H2 6667   1.307   5.019   1.565
 2242TIP3   OH2 6668   7.338   6.472   3.035
 2242TIP3    H1 6669   7.287   6.391   3.032
 2242TIP3    H2 6670   7.275   6.541   3.015
 2243TIP3   OH2 6671   7.107   6.414   2.557
 2243TIP3    H1 6672   7.133   6.505   2.574
 2243TIP3    H2 6673   7.144   6.394   2.471
 2244TIP3   OH2 6674   4.622   6.735   6.753
 2244TIP3    H1 6675   4.614   6.828   6.770
 2244TIP3    H2 6676   4.647   6.730   6.660
 2245TIP3   OH2 6677   4.842   3.653   5.192
 2245TIP3    H1 6678   4.876   3.727   5.243
 2245TIP3    H2 6679   4.850   3.681   5.101
 2246TIP3   OH2 6680   6.810   3.566   1.361
 2246TIP3    H1 6681   6.884   3.517   1.325
 2246TIP3    H2 6682   6.844   3.654   1.376
 2247TIP3   OH2 6683   1.396   2.165   1.278
 2247TIP3    H1 6684   1.472   2.108   1.293
 2247TIP3    H2 6685   1.433   2.253   1.274
 2248TIP3   OH2 6686   4.631   5.461   5.228
 2248TIP3    H1 6687   4.595   5.543   5.194
 2248TIP3    H2 6688   4.680   5.424   5.154
 2249TIP3   OH2 6689   4.391   4.643   1.720
 2249TIP3    H1 6690   4.390   4.714   1.785
 2249TIP3    H2 6691   4.415   4.686   1.638
 2250TIP3   OH2 6692   1.832   1.758   2.060
 2250TIP3    H1 6693   1.861   1.691   1.998
 2250TIP3    H2 6694   1.899   1.826   2.056
 2251TIP3   OH2 6695   3.730   2.832   2.257
 2251TIP3    H1 6696   3.712   2.917   2.298
 2251TIP3    H2 6697   3.667   2.828   2.185
 2252TIP3   OH2 6698   3.813   0.240   5.569
 2252TIP3    H1 6699   3.788   0.326   5.535
 2252TIP3    H2 6700   3.731   0.190   5.570
 2253TIP3   OH2 6701   4.071   0.852   0.021
 2253TIP3    H1 6702   4.139   0.815   0.078
 2253TIP3    H2 6703   3.989   0.825   0.062
 2254TIP3   OH2 6704   6.599   2.163   1.563
 2254TIP3    H1 6705   6.538   2.161   1.637
 2254TIP3    H2 6706   6.545   2.187   1.488
 2255TIP3   OH2 6707   3.980   1.900   3.277
 2255TIP3    H1 6708   4.060   1.950   3.260
 2255TIP3    H2 6709   3.963   1.914   3.370
 2256TIP3   OH2 6710   4.165   5.462   0.008
 2256TIP3    H1 6711   4.152   5.440   0.100
 2256TIP3    H2 6712   4.259   5.483   0.002
 2257TIP3   OH2 6713   6.499   1.714   4.946
 2257TIP3    H1 6714   6.474   1.622   4.943
 2257TIP3    H2 6715   6.469   1.745   5.031
 2258TIP3   OH2 6716   5.635   6.073   2.763
 2258TIP3    H1 6717   5.665   6.149   2.714
 2258TIP3    H2 6718   5.699   6.063   2.833
 2259TIP3   OH2 6719   3.452   3.429   3.489
 2259TIP3    H1 6720   3.501   3.347   3.498
 2259TIP3    H2 6721   3.368   3.402   3.450
 2260TIP3   OH2 6722   1.646   3.885   4.970
 2260TIP3    H1 6723   1.667   3.817   4.906
 2260TIP3    H2 6724   1.611   3.957   4.918
 2261TIP3   OH2 6725   5.422   7.029   5.532
 2261TIP3    H1 6726   5.360   6.963   5.563
 2261TIP3    H2 6727   5.377   7.071   5.459
 2262TIP3   OH2 6728   2.537   7.218   0.121
 2262TIP3    H1 6729   2.442   7.232   0.113
 2262TIP3    H2 6730   2.566   7.201   0.031
 2263TIP3   OH2 6731   1.244   1.828   6.742
 2263TIP3    H1 6732   1.276   1.868   6.661
 2263TIP3    H2 6733   1.253   1.734   6.728
 2264TIP3   OH2 6734   4.114   3.635   3.625
 2264TIP3    H1 6735   4.085   3.692   3.554
 2264TIP3    H2 6736   4.040   3.578   3.643
 2265TIP3   OH2 6737   2.768   0.343   0.524
 2265TIP3    H1 6738   2.724   0.260   0.503
 2265TIP3    H2 6739   2.705   0.410   0.498
 2266TIP3   OH2 6740   5.040   5.818   5.502
 2266TIP3    H1 6741   5.010   5.817   5.593
 2266TIP3    H2 6742   5.029   5.909   5.474
 2267TIP3   OH2 6743   5.170   1.670   6.118
 2267TIP3    H1 6744   5.169   1.574   6.122
 2267TIP3    H2 6745   5.144   1.698   6.205
 2268TIP3   OH2 6746   3.934   0.197   4.359
 2268TIP3    H1 6747   4.003   0.263   4.357
 2268TIP3    H2 6748   3.966   0.127   4.303
 2269TIP3   OH2 6749   2.464   0.731   1.710
 2269TIP3    H1 6750   2.506   0.814   1.687
 2269TIP3    H2 6751   2.388   0.727   1.653
 2270TIP3   OH2 6752   3.982   0.215   5.127
 2270TIP3    H1 6753   3.930   0.249   5.055
 2270TIP3    H2 6754   3.932   0.140   5.160
 2271TIP3   OH2 6755   1.432   0.624   4.411
 2271TIP3    H1 6756   1.370   0.690   4.379
 2271TIP3    H2 6757   1.498   0.618   4.342
 2272TIP3   OH2 6758   2.090   7.709   3.089
 2272TIP3    H1 6759   2.057   7.621   3.107
 2272TIP3    H2 6760   2.097   7.713   2.993
 2273TIP3   OH2 6761   3.667   6.084   4.413
 2273TIP3    H1 6762   3.731   6.049   4.474
 2273TIP3    H2 6763   3.608   6.011   4.395
 2274TIP3   OH2 6764   7.024   6.243   1.811
 2274TIP3    H1 6765   6.988   6.215   1.727
 2274TIP3    H2 6766   7.007   6.170   1.870
 2275TIP3   OH2 6767   4.220   1.466   2.221
 2275TIP3    H1 6768   4.273   1.535   2.260
 2275TIP3    H2 6769   4.284   1.405   2.184
 2276TIP3   OH2 6770   2.557   6.317   2.045
 2276TIP3    H1 6771   2.534   6.377   1.974
 2276TIP3    H2 6772   2.620   6.366   2.098
 2277TIP3   OH2 6773   2.853   1.319   0.451
 2277TIP3    H1 6774   2.819   1.230   0.459
 2277TIP3    H2 6775   2.822   1.349   0.366
 2278TIP3   OH2 6776   3.187   5.531   0.312
 2278TIP3    H1 6777   3.279   5.527   0.287
 2278TIP3    H2 6778   3.153   5.607   0.265
 2279TIP3   OH2 6779   8.000   1.336   2.195
 2279TIP3    H1 6780   7.948   1.284   2.257
 2279TIP3    H2 6781   7.944   1.410   2.173
 2280TIP3   OH2 6782   3.499   3.797   5.957
 2280TIP3    H1 6783   3.514   3.876   6.009
 2280TIP3    H2 6784   3.433   3.822   5.893
 2281TIP3   OH2 6785   1.352   6.172   5.109
 2281TIP3    H1 6786   1.307   6.255   5.096
 2281TIP3    H2 6787   1.329   6.120   5.032
 2282TIP3   OH2 6788   5.252   0.332   0.592
 2282TIP3    H1 6789   5.203   0.391   0.535
 2282TIP3    H2 6790   5.192   0.314   0.665
 2283TIP3   OH2 6791   1.486   1.268   6.143
 2283TIP3    H1 6792   1.477   1.327   6.068
 2283TIP3    H2 6793   1.517   1.323   6.214
 2284TIP3   OH2 6794   3.944   1.846   2.502
 2284TIP3    H1 6795   3.990   1.769   2.471
 2284TIP3    H2 6796   3.852   1.820   2.504
 2285TIP3   OH2 6797   6.346   0.783   5.087
 2285TIP3    H1 6798   6.375   0.846   5.153
 2285TIP3    H2 6799   6.425   0.733   5.066
 2286TIP3   OH2 6800   5.697   6.460   0.502
 2286TIP3    H1 6801   5.616   6.436   0.458
 2286TIP3    H2 6802   5.735   6.378   0.531
 2287TIP3   OH2 6803   1.187   1.403   2.691
 2287TIP3    H1 6804   1.275   1.369   2.674
 2287TIP3    H2 6805   1.171   1.384   2.783
 2288TIP3   OH2 6806   6.811   4.686   3.966
 2288TIP3    H1 6807   6.843   4.748   3.900
 2288TIP3    H2 6808   6.721   4.668   3.939
 2289TIP3   OH2 6809   7.231   4.512   4.661
 2289TIP3    H1 6810   7.299   4.562   4.707
 2289TIP3    H2 6811   7.230   4.550   4.573
 2290TIP3   OH2 6812   7.055   5.068   2.114
 2290TIP3    H1 6813   7.064   4.973   2.124
 2290TIP3    H2 6814   7.136   5.095   2.071
 2291TIP3   OH2 6815   7.892   1.098   2.380
 2291TIP3    H1 6816   7.978   1.058   2.375
 2291TIP3    H2 6817   7.900   1.163   2.450
 2292TIP3   OH2 6818   1.538   1.222   3.798
 2292TIP3    H1 6819   1.487   1.172   3.862
 2292TIP3    H2 6820   1.499   1.199   3.713
 2293TIP3   OH2 6821   7.770   2.921   2.135
 2293TIP3    H1 6822   7.855   2.893   2.170
 2293TIP3    H2 6823   7.766   3.015   2.153
 2294TIP3   OH2 6824   8.005   4.850   1.979
 2294TIP3    H1 6825   7.941   4.779   1.975
 2294TIP3    H2 6826   8.006   4.887   1.891
 2295TIP3   OH2 6827   5.120   3.659   4.176
 2295TIP3    H1 6828   5.080   3.649   4.090
 2295TIP3    H2 6829   5.054   3.626   4.237
 2296TIP3   OH2 6830   1.301   1.831   3.077
 2296TIP3    H1 6831   1.308   1.783   2.995
 2296TIP3    H2 6832   1.218   1.880   3.070
 2297TIP3   OH2 6833   0.473   7.755   6.260
 2297TIP3    H1 6834   0.478   7.683   6.198
 2297TIP3    H2 6835   0.461   7.833   6.205
 2298TIP3   OH2 6836   7.104   3.426   6.687
 2298TIP3    H1 6837   7.070   3.368   6.618
 2298TIP3    H2 6838   7.044   3.501   6.687
 2299TIP3   OH2 6839   8.284   5.295   3.005
 2299TIP3    H1 6840   8.313   5.383   3.027
 2299TIP3    H2 6841   8.201   5.285   3.051
 2300TIP3   OH2 6842   2.197   4.001   3.882
 2300TIP3    H1 6843   2.251   3.966   3.811
 2300TIP3    H2 6844   2.110   3.965   3.866
 2301TIP3   OH2 6845   2.504   0.036   1.919
 2301TIP3    H1 6846   2.558   0.110   1.891
 2301TIP3    H2 6847   2.543   0.006   2.001
 2302TIP3   OH2 6848   5.946   5.551   6.616
 2302TIP3    H1 6849   6.014   5.519   6.674
 2302TIP3    H2 6850   5.870   5.565   6.672
 2303TIP3   OH2 6851   3.261   4.698   1.846
 2303TIP3    H1 6852   3.278   4.779   1.798
 2303TIP3    H2 6853   3.283   4.718   1.937
 2304TIP3   OH2 6854   7.049   0.796   3.679
 2304TIP3    H1 6855   7.112   0.869   3.672
 2304TIP3    H2 6856   6.983   0.827   3.741
 2305TIP3   OH2 6857   7.369   5.594   3.927
 2305TIP3    H1 6858   7.287   5.574   3.882
 2305TIP3    H2 6859   7.344   5.656   3.995
 2306TIP3   OH2 6860   6.410   7.790   2.134
 2306TIP3    H1 6861   6.322   7.829   2.128
 2306TIP3    H2 6862   6.430   7.790   2.227
 2307TIP3   OH2 6863   2.817   3.502   6.450
 2307TIP3    H1 6864   2.856   3.483   6.535
 2307TIP3    H2 6865   2.853   3.587   6.425
 2308TIP3   OH2 6866   5.162   6.873   0.050
 2308TIP3    H1 6867   5.247   6.880   0.007
 2308TIP3    H2 6868   5.153   6.954   0.099
 2309TIP3   OH2 6869   6.051   7.219   3.654
 2309TIP3    H1 6870   6.050   7.155   3.583
 2309TIP3    H2 6871   5.977   7.276   3.636
 2310TIP3   OH2 6872   1.700   4.491   4.080
 2310TIP3    H1 6873   1.687   4.583   4.055
 2310TIP3    H2 6874   1.668   4.441   4.006
 2311TIP3   OH2 6875   3.524   4.512   2.627
 2311TIP3    H1 6876   3.512   4.422   2.657
 2311TIP3    H2 6877   3.564   4.556   2.702
 2312TIP3   OH2 6878   7.130   7.240   1.304
 2312TIP3    H1 6879   7.182   7.185   1.245
 2312TIP3    H2 6880   7.166   7.328   1.293
 2313TIP3   OH2 6881   2.477   2.637   3.799
 2313TIP3    H1 6882   2.547   2.693   3.834
 2313TIP3    H2 6883   2.516   2.593   3.724
 2314TIP3   OH2 6884   0.758   5.121   4.226
 2314TIP3    H1 6885   0.840   5.123   4.276
 2314TIP3    H2 6886   0.705   5.190   4.264
 2315TIP3   OH2 6887   4.106   6.608   6.453
 2315TIP3    H1 6888   4.085   6.666   6.526
 2315TIP3    H2 6889   4.190   6.568   6.478
 2316TIP3   OH2 6890   6.534   4.798   1.642
 2316TIP3    H1 6891   6.544   4.743   1.564
 2316TIP3    H2 6892   6.503   4.882   1.609
 2317TIP3   OH2 6893   4.898   3.229   5.828
 2317TIP3    H1 6894   4.957   3.215   5.754
 2317TIP3    H2 6895   4.841   3.152   5.829
 2318TIP3   OH2 6896   3.934   4.385   3.162
 2318TIP3    H1 6897   3.862   4.401   3.224
 2318TIP3    H2 6898   3.913   4.299   3.124
 2319TIP3   OH2 6899   3.632   6.164   0.375
 2319TIP3    H1 6900   3.707   6.221   0.391
 2319TIP3    H2 6901   3.565   6.222   0.340
 2320TIP3   OH2 6902   6.888   3.663   4.136
 2320TIP3    H1 6903   6.950   3.736   4.133
 2320TIP3    H2 6904   6.925   3.598   4.077
 2321TIP3   OH2 6905   5.605   1.065   6.077
 2321TIP3    H1 6906   5.527   1.060   6.133
 2321TIP3    H2 6907   5.572   1.051   5.989
 2322TIP3   OH2 6908   5.063   5.513   4.613
 2322TIP3    H1 6909   4.990   5.552   4.565
 2322TIP3    H2 6910   5.127   5.492   4.545
 2323TIP3   OH2 6911   5.322   2.519   4.807
 2323TIP3    H1 6912   5.373   2.440   4.791
 2323TIP3    H2 6913   5.293   2.546   4.720
 2324TIP3   OH2 6914   3.851   7.138   2.531
 2324TIP3    H1 6915   3.855   7.205   2.599
 2324TIP3    H2 6916   3.942   7.107   2.523
 2325TIP3   OH2 6917   2.648   0.767   4.544
 2325TIP3    H1 6918   2.740   0.789   4.527
 2325TIP3    H2 6919   2.640   0.676   4.515
 2326TIP3   OH2 6920   7.550   6.783   2.217
 2326TIP3    H1 6921   7.469   6.798   2.169
 2326TIP3    H2 6922   7.543   6.837   2.296
 2327TIP3   OH2 6923   6.839   2.854   1.711
 2327TIP3    H1 6924   6.833   2.842   1.616
 2327TIP3    H2 6925   6.764   2.805   1.745
 2328TIP3   OH2 6926   1.340   1.093   2.468
 2328TIP3    H1 6927   1.320   1.169   2.413
 2328TIP3    H2 6928   1.255   1.068   2.505
 2329TIP3   OH2 6929   7.440   2.570   6.236
 2329TIP3    H1 6930   7.385   2.646   6.216
 2329TIP3    H2 6931   7.492   2.599   6.311
 2330TIP3   OH2 6932   7.767   2.318   0.387
 2330TIP3    H1 6933   7.836   2.251   0.385
 2330TIP3    H2 6934   7.695   2.280   0.336
 2331TIP3   OH2 6935   6.297   2.324   5.657
 2331TIP3    H1 6936   6.351   2.324   5.578
 2331TIP3    H2 6937   6.237   2.398   5.645
 2332TIP3   OH2 6938   0.828   5.737   2.137
 2332TIP3    H1 6939   0.795   5.702   2.055
 2332TIP3    H2 6940   0.894   5.673   2.165
 2333TIP3   OH2 6941   0.896   2.297   2.755
 2333TIP3    H1 6942   0.975   2.257   2.718
 2333TIP3    H2 6943   0.918   2.390   2.765
 2334TIP3   OH2 6944   6.609   2.872   5.525
 2334TIP3    H1 6945   6.562   2.814   5.585
 2334TIP3    H2 6946   6.649   2.938   5.581
 2335TIP3   OH2 6947   3.728   4.453   2.869
 2335TIP3    H1 6948   3.771   4.506   2.936
 2335TIP3    H2 6949   3.667   4.398   2.919
 2336TIP3   OH2 6950   0.788   4.629   2.807
 2336TIP3    H1 6951   0.732   4.666   2.875
 2336TIP3    H2 6952   0.770   4.682   2.730
 2337TIP3   OH2 6953   0.748   6.972   6.101
 2337TIP3    H1 6954   0.759   6.907   6.169
 2337TIP3    H2 6955   0.768   7.056   6.143
 2338TIP3   OH2 6956   3.018   4.939   2.376
 2338TIP3    H1 6957   2.930   4.902   2.366
 2338TIP3    H2 6958   3.076   4.864   2.362
 2339TIP3   OH2 6959   4.843   5.251   4.743
 2339TIP3    H1 6960   4.855   5.158   4.765
 2339TIP3    H2 6961   4.886   5.260   4.657
 2340TIP3   OH2 6962   7.294   5.058   3.093
 2340TIP3    H1 6963   7.389   5.052   3.088
 2340TIP3    H2 6964   7.263   5.030   3.007
 2341TIP3   OH2 6965   6.191   0.731   2.173
 2341TIP3    H1 6966   6.241   0.761   2.249
 2341TIP3    H2 6967   6.205   0.636   2.171
 2342TIP3   OH2 6968   2.559   4.437   4.171
 2342TIP3    H1 6969   2.619   4.511   4.162
 2342TIP3    H2 6970   2.551   4.402   4.082
 2343TIP3   OH2 6971   1.714   1.351   1.700
 2343TIP3    H1 6972   1.732   1.441   1.728
 2343TIP3    H2 6973   1.780   1.334   1.633
 2344TIP3   OH2 6974   3.477   0.783   2.680
 2344TIP3    H1 6975   3.417   0.734   2.625
 2344TIP3    H2 6976   3.432   0.791   2.764
 2345TIP3   OH2 6977   2.912   2.281   1.314
 2345TIP3    H1 6978   2.935   2.312   1.401
 2345TIP3    H2 6979   2.978   2.320   1.256
 2346TIP3   OH2 6980   0.468   4.877   4.536
 2346TIP3    H1 6981   0.528   4.948   4.560
 2346TIP3    H2 6982   0.396   4.883   4.599
 2347TIP3   OH2 6983   1.742   7.309   4.541
 2347TIP3    H1 6984   1.661   7.269   4.572
 2347TIP3    H2 6985   1.808   7.283   4.606
 2348TIP3   OH2 6986   1.735   5.695   1.088
 2348TIP3    H1 6987   1.785   5.706   1.007
 2348TIP3    H2 6988   1.752   5.605   1.114
 2349TIP3   OH2 6989   0.868   5.060   5.342
 2349TIP3    H1 6990   0.817   5.029   5.417
 2349TIP3    H2 6991   0.959   5.040   5.364
 2350TIP3   OH2 6992   6.925   6.715   3.330
 2350TIP3    H1 6993   6.897   6.795   3.375
 2350TIP3    H2 6994   6.845   6.662   3.324
 2351TIP3   OH2 6995   1.141   6.108   3.184
 2351TIP3    H1 6996   1.211   6.100   3.249
 2351TIP3    H2 6997   1.186   6.107   3.100
 2352TIP3   OH2 6998   3.165   6.885   5.783
 2352TIP3    H1 6999   3.213   6.833   5.847
 2352TIP3    H2 7000   3.100   6.824   5.748
 2353TIP3   OH2 7001   5.435   7.490   2.245
 2353TIP3    H1 7002   5.360   7.544   2.269
 2353TIP3    H2 7003   5.468   7.528   2.165
 2354TIP3   OH2 7004   0.648   6.276   5.358
 2354TIP3    H1 7005   0.614   6.364   5.342
 2354TIP3    H2 7006   0.716   6.265   5.292
 2355TIP3   OH2 7007   7.077   0.627   1.490
 2355TIP3    H1 7008   7.130   0.615   1.411
 2355TIP3    H2 7009   7.001   0.571   1.476
 2356TIP3   OH2 7010   7.541   3.503   0.449
 2356TIP3    H1 7011   7.612   3.484   0.511
 2356TIP3    H2 7012   7.578   3.478   0.364
 2357TIP3   OH2 7013   5.362   6.290   3.645
 2357TIP3    H1 7014   5.303   6.345   3.697
 2357TIP3    H2 7015   5.331   6.201   3.659
 2358TIP3   OH2 7016   5.699   4.325   3.195
 2358TIP3    H1 7017   5.741   4.407   3.222
 2358TIP3    H2 7018   5.650   4.348   3.117
 2359TIP3   OH2 7019   5.424   3.202   3.284
 2359TIP3    H1 7020   5.363   3.210   3.210
 2359TIP3    H2 7021   5.369   3.210   3.361
 2360TIP3   OH2 7022   5.930   0.612   0.513
 2360TIP3    H1 7023   5.889   0.692   0.478
 2360TIP3    H2 7024   5.882   0.594   0.593
 2361TIP3   OH2 7025   3.890   1.080   1.788
 2361TIP3    H1 7026   3.880   1.115   1.877
 2361TIP3    H2 7027   3.865   1.152   1.731
 2362TIP3   OH2 7028   2.141   0.822   5.541
 2362TIP3    H1 7029   2.185   0.886   5.597
 2362TIP3    H2 7030   2.171   0.843   5.453
 2363TIP3   OH2 7031   2.000   0.820   2.997
 2363TIP3    H1 7032   2.013   0.728   2.972
 2363TIP3    H2 7033   2.021   0.822   3.090
 2364TIP3   OH2 7034   2.925   6.441   5.312
 2364TIP3    H1 7035   2.874   6.519   5.288
 2364TIP3    H2 7036   2.879   6.369   5.270
 2365TIP3   OH2 7037   7.122   4.140   0.683
 2365TIP3    H1 7038   7.169   4.070   0.638
 2365TIP3    H2 7039   7.132   4.119   0.776
 2366TIP3   OH2 7040   4.681   3.613   0.630
 2366TIP3    H1 7041   4.651   3.536   0.582
 2366TIP3    H2 7042   4.776   3.613   0.619
 2367TIP3   OH2 7043   6.899   0.277   3.368
 2367TIP3    H1 7044   6.969   0.324   3.321
 2367TIP3    H2 7045   6.830   0.267   3.303
 2368TIP3   OH2 7046   6.228   2.127   2.624
 2368TIP3    H1 7047   6.314   2.115   2.583
 2368TIP3    H2 7048   6.168   2.131   2.550
 2369TIP3   OH2 7049   0.367   5.526   3.317
 2369TIP3    H1 7050   0.278   5.558   3.307
 2369TIP3    H2 7051   0.420   5.583   3.261
 2370TIP3   OH2 7052   2.049   6.238   3.625
 2370TIP3    H1 7053   2.132   6.193   3.608
 2370TIP3    H2 7054   1.987   6.196   3.566
 2371TIP3   OH2 7055   2.271   5.558   1.174
 2371TIP3    H1 7056   2.359   5.557   1.138
 2371TIP3    H2 7057   2.218   5.601   1.107
 2372TIP3   OH2 7058   0.211   1.431   3.097
 2372TIP3    H1 7059   0.273   1.498   3.126
 2372TIP3    H2 7060   0.182   1.389   3.179
 2373TIP3   OH2 7061   7.107   5.393   4.561
 2373TIP3    H1 7062   7.080   5.320   4.506
 2373TIP3    H2 7063   7.134   5.352   4.643
 2374TIP3   OH2 7064   7.207   4.487   6.391
 2374TIP3    H1 7065   7.291   4.442   6.399
 2374TIP3    H2 7066   7.227   4.566   6.341
 2375TIP3   OH2 7067   2.163   3.637   3.780
 2375TIP3    H1 7068   2.250   3.674   3.771
 2375TIP3    H2 7069   2.149   3.589   3.699
 2376TIP3   OH2 7070   5.734   2.900   6.701
 2376TIP3    H1 7071   5.669   2.899   6.631
 2376TIP3    H2 7072   5.705   2.968   6.760
 2377TIP3   OH2 7073   2.462   3.463   1.683
 2377TIP3    H1 7074   2.502   3.517   1.614
 2377TIP3    H2 7075   2.440   3.381   1.639
 2378TIP3   OH2 7076   0.239   0.856   5.158
 2378TIP3    H1 7077   0.233   0.933   5.100
 2378TIP3    H2 7078   0.332   0.836   5.161
 2379TIP3   OH2 7079   2.095   3.069   0.891
 2379TIP3    H1 7080   1.999   3.063   0.893
 2379TIP3    H2 7081   2.115   3.103   0.804
 2380TIP3   OH2 7082   1.935   2.925   5.464
 2380TIP3    H1 7083   1.984   2.976   5.400
 2380TIP3    H2 7084   1.855   2.898   5.418
 2381TIP3   OH2 7085   5.008   3.950   3.917
 2381TIP3    H1 7086   4.974   4.009   3.850
 2381TIP3    H2 7087   5.100   3.973   3.926
 2382TIP3   OH2 7088   3.878   3.162   0.301
 2382TIP3    H1 7089   3.949   3.162   0.238
 2382TIP3    H2 7090   3.798   3.158   0.248
 2383TIP3   OH2 7091   4.433   0.599   5.795
 2383TIP3    H1 7092   4.441   0.601   5.890
 2383TIP3    H2 7093   4.522   0.581   5.763
 2384TIP3   OH2 7094   8.083   2.917   6.165
 2384TIP3    H1 7095   8.147   2.845   6.171
 2384TIP3    H2 7096   8.084   2.943   6.073
 2385TIP3   OH2 7097   2.821   7.214   1.129
 2385TIP3    H1 7098   2.774   7.296   1.114
 2385TIP3    H2 7099   2.894   7.239   1.186
 2386TIP3   OH2 7100   2.807   0.651   1.364
 2386TIP3    H1 7101   2.851   0.658   1.449
 2386TIP3    H2 7102   2.866   0.694   1.303
 2387TIP3   OH2 7103   6.818   5.757   0.713
 2387TIP3    H1 7104   6.823   5.666   0.682
 2387TIP3    H2 7105   6.837   5.751   0.806
 2388TIP3   OH2 7106   5.610   3.268   1.053
 2388TIP3    H1 7107   5.628   3.348   1.103
 2388TIP3    H2 7108   5.587   3.203   1.119
 2389TIP3   OH2 7109   3.841   2.543   6.448
 2389TIP3    H1 7110   3.813   2.608   6.512
 2389TIP3    H2 7111   3.934   2.559   6.435
 2390TIP3   OH2 7112   7.126   3.526   3.402
 2390TIP3    H1 7113   7.107   3.442   3.444
 2390TIP3    H2 7114   7.174   3.575   3.469
 2391TIP3   OH2 7115   7.627   5.427   4.620
 2391TIP3    H1 7116   7.543   5.381   4.613
 2391TIP3    H2 7117   7.603   5.517   4.645
 2392TIP3   OH2 7118   4.183   6.014   6.647
 2392TIP3    H1 7119   4.159   6.094   6.600
 2392TIP3    H2 7120   4.115   5.951   6.624
 2393TIP3   OH2 7121   8.249   4.749   5.255
 2393TIP3    H1 7122   8.168   4.783   5.218
 2393TIP3    H2 7123   8.268   4.807   5.328
 2394TIP3   OH2 7124   3.201   0.926   6.616
 2394TIP3    H1 7125   3.157   0.959   6.695
 2394TIP3    H2 7126   3.224   0.836   6.639
 2395TIP3   OH2 7127   1.662   2.864   3.897
 2395TIP3    H1 7128   1.749   2.843   3.930
 2395TIP3    H2 7129   1.602   2.816   3.954
 2396TIP3   OH2 7130   7.108   6.802   2.330
 2396TIP3    H1 7131   7.045   6.866   2.363
 2396TIP3    H2 7132   7.054   6.728   2.301
 2397TIP3   OH2 7133   1.786   5.811   3.193
 2397TIP3    H1 7134   1.699   5.846   3.210
 2397TIP3    H2 7135   1.840   5.888   3.173
 2398TIP3   OH2 7136   0.137   5.905   1.841
 2398TIP3    H1 7137   0.125   5.988   1.886
 2398TIP3    H2 7138   0.095   5.918   1.755
 2399TIP3   OH2 7139   7.862   2.934   4.001
 2399TIP3    H1 7140   7.862   3.026   4.028
 2399TIP3    H2 7141   7.782   2.898   4.040
 2400TIP3   OH2 7142   5.998   3.517   0.256
 2400TIP3    H1 7143   6.009   3.543   0.164
 2400TIP3    H2 7144   6.076   3.464   0.274
 2401TIP3   OH2 7145   7.527   6.089   1.721
 2401TIP3    H1 7146   7.557   6.004   1.754
 2401TIP3    H2 7147   7.592   6.151   1.753
 2402TIP3   OH2 7148   3.313   5.555   0.589
 2402TIP3    H1 7149   3.344   5.643   0.611
 2402TIP3    H2 7150   3.390   5.511   0.553
 2403TIP3   OH2 7151   7.749   0.791   4.177
 2403TIP3    H1 7152   7.740   0.710   4.227
 2403TIP3    H2 7153   7.770   0.857   4.244
 2404TIP3   OH2 7154   7.773   4.276   5.650
 2404TIP3    H1 7155   7.812   4.328   5.720
 2404TIP3    H2 7156   7.818   4.305   5.570
 2405TIP3   OH2 7157   8.054   2.388   0.541
 2405TIP3    H1 7158   8.100   2.338   0.608
 2405TIP3    H2 7159   7.976   2.420   0.585
 2406TIP3   OH2 7160   1.495   4.365   2.048
 2406TIP3    H1 7161   1.424   4.305   2.071
 2406TIP3    H2 7162   1.570   4.308   2.030
 2407TIP3   OH2 7163   6.887   4.162   5.916
 2407TIP3    H1 7164   6.832   4.215   5.973
 2407TIP3    H2 7165   6.846   4.167   5.830
 2408TIP3   OH2 7166   5.759   4.669   1.955
 2408TIP3    H1 7167   5.740   4.641   2.044
 2408TIP3    H2 7168   5.843   4.629   1.934
 2409TIP3   OH2 7169   7.431   7.007   5.723
 2409TIP3    H1 7170   7.469   7.054   5.649
 2409TIP3    H2 7171   7.504   6.997   5.785
 2410TIP3   OH2 7172   1.155   5.414   3.550
 2410TIP3    H1 7173   1.087   5.480   3.562
 2410TIP3    H2 7174   1.207   5.447   3.477
 2411TIP3   OH2 7175   3.924   7.163   3.689
 2411TIP3    H1 7176   3.939   7.144   3.596
 2411TIP3    H2 7177   3.862   7.096   3.718
 2412TIP3   OH2 7178   6.737   3.896   5.312
 2412TIP3    H1 7179   6.742   3.941   5.228
 2412TIP3    H2 7180   6.826   3.901   5.348
 2413TIP3   OH2 7181   3.874   0.812   6.373
 2413TIP3    H1 7182   3.883   0.897   6.330
 2413TIP3    H2 7183   3.799   0.771   6.330
 2414TIP3   OH2 7184   4.195   6.004   3.978
 2414TIP3    H1 7185   4.222   5.982   4.067
 2414TIP3    H2 7186   4.208   6.098   3.971
 2415TIP3   OH2 7187   7.923   4.566   3.041
 2415TIP3    H1 7188   7.891   4.548   3.130
 2415TIP3    H2 7189   7.924   4.662   3.035
 2416TIP3   OH2 7190   3.390   3.765   3.139
 2416TIP3    H1 7191   3.444   3.781   3.216
 2416TIP3    H2 7192   3.448   3.721   3.077
 2417TIP3   OH2 7193   3.108   5.231   4.350
 2417TIP3    H1 7194   3.081   5.179   4.275
 2417TIP3    H2 7195   3.098   5.172   4.425
 2418TIP3   OH2 7196   3.142   0.429   1.336
 2418TIP3    H1 7197   3.116   0.447   1.245
 2418TIP3    H2 7198   3.155   0.334   1.338
 2419TIP3   OH2 7199   7.147   0.750   3.126
 2419TIP3    H1 7200   7.095   0.743   3.206
 2419TIP3    H2 7201   7.238   0.753   3.157
 2420TIP3   OH2 7202   7.158   5.680   3.283
 2420TIP3    H1 7203   7.083   5.718   3.237
 2420TIP3    H2 7204   7.224   5.749   3.281
 2421TIP3   OH2 7205   4.071   4.450   2.749
 2421TIP3    H1 7206   3.999   4.387   2.752
 2421TIP3    H2 7207   4.144   4.400   2.714
 2422TIP3   OH2 7208   4.839   6.276   1.322
 2422TIP3    H1 7209   4.829   6.209   1.390
 2422TIP3    H2 7210   4.830   6.359   1.368
 2423TIP3   OH2 7211   5.139   4.145   4.724
 2423TIP3    H1 7212   5.169   4.194   4.800
 2423TIP3    H2 7213   5.138   4.054   4.753
 2424TIP3   OH2 7214   1.969   3.345   2.204
 2424TIP3    H1 7215   1.888   3.297   2.219
 2424TIP3    H2 7216   1.940   3.429   2.166
 2425TIP3   OH2 7217   7.051   0.533  -0.020
 2425TIP3    H1 7218   7.137   0.575  -0.016
 2425TIP3    H2 7219   7.022   0.527   0.071
 2426TIP3   OH2 7220   8.035   6.141   6.198
 2426TIP3    H1 7221   7.969   6.205   6.171
 2426TIP3    H2 7222   8.088   6.186   6.263
 2427TIP3   OH2 7223   2.860   7.756   1.642
 2427TIP3    H1 7224   2.910   7.744   1.722
 2427TIP3    H2 7225   2.770   7.732   1.666
 2428TIP3   OH2 7226   3.992   5.697   1.675
 2428TIP3    H1 7227   3.908   5.741   1.681
 2428TIP3    H2 7228   3.983   5.620   1.731
 2429TIP3   OH2 7229   6.654   1.574   0.545
 2429TIP3    H1 7230   6.692   1.570   0.633
 2429TIP3    H2 7231   6.593   1.500   0.542
 2430TIP3   OH2 7232   8.202   2.893   4.456
 2430TIP3    H1 7233   8.246   2.869   4.538
 2430TIP3    H2 7234   8.274   2.904   4.394
 2431TIP3   OH2 7235   5.777   5.395   3.856
 2431TIP3    H1 7236   5.780   5.416   3.762
 2431TIP3    H2 7237   5.838   5.322   3.866
 2432TIP3   OH2 7238   5.507   5.690   4.298
 2432TIP3    H1 7239   5.574   5.645   4.349
 2432TIP3    H2 7240   5.556   5.751   4.243
 2433TIP3   OH2 7241   1.607   6.138   3.859
 2433TIP3    H1 7242   1.529   6.137   3.915
 2433TIP3    H2 7243   1.666   6.201   3.901
 2434TIP3   OH2 7244   1.694   2.297   2.065
 2434TIP3    H1 7245   1.679   2.207   2.035
 2434TIP3    H2 7246   1.764   2.330   2.008
 2435TIP3   OH2 7247   7.574   7.710   0.488
 2435TIP3    H1 7248   7.654   7.672   0.524
 2435TIP3    H2 7249   7.527   7.744   0.564
 2436TIP3   OH2 7250   2.756   7.412   3.319
 2436TIP3    H1 7251   2.742   7.359   3.241
 2436TIP3    H2 7252   2.810   7.358   3.376
 2437TIP3   OH2 7253   6.509   6.561   2.003
 2437TIP3    H1 7254   6.545   6.550   1.915
 2437TIP3    H2 7255   6.577   6.607   2.051
 2438TIP3   OH2 7256   6.858   2.758   4.737
 2438TIP3    H1 7257   6.948   2.791   4.741
 2438TIP3    H2 7258   6.867   2.666   4.714
 2439TIP3   OH2 7259   7.527   5.427   6.238
 2439TIP3    H1 7260   7.494   5.384   6.317
 2439TIP3    H2 7261   7.492   5.374   6.166
 2440TIP3   OH2 7262   7.802   5.384   3.425
 2440TIP3    H1 7263   7.728   5.420   3.475
 2440TIP3    H2 7264   7.855   5.339   3.490
 2441TIP3   OH2 7265   4.937   4.486   2.683
 2441TIP3    H1 7266   4.894   4.565   2.651
 2441TIP3    H2 7267   4.880   4.456   2.754
 2442TIP3   OH2 7268   2.926   1.005   1.011
 2442TIP3    H1 7269   2.970   0.976   0.930
 2442TIP3    H2 7270   2.842   0.961   1.010
 2443TIP3   OH2 7271   7.654   3.211   1.721
 2443TIP3    H1 7272   7.740   3.171   1.713
 2443TIP3    H2 7273   7.672   3.303   1.743
 2444TIP3   OH2 7274   8.006   7.034   1.376
 2444TIP3    H1 7275   8.024   7.050   1.284
 2444TIP3    H2 7276   7.967   7.115   1.408
 2445TIP3   OH2 7277   1.993   2.835   4.656
 2445TIP3    H1 7278   2.061   2.777   4.621
 2445TIP3    H2 7279   1.953   2.785   4.727
 2446TIP3   OH2 7280   5.504   3.790   4.052
 2446TIP3    H1 7281   5.440   3.808   4.120
 2446TIP3    H2 7282   5.463   3.722   3.998
 2447TIP3   OH2 7283   5.534   5.654   2.437
 2447TIP3    H1 7284   5.609   5.601   2.413
 2447TIP3    H2 7285   5.555   5.742   2.405
 2448TIP3   OH2 7286   5.338   6.732   5.232
 2448TIP3    H1 7287   5.336   6.710   5.325
 2448TIP3    H2 7288   5.345   6.827   5.230
 2449TIP3   OH2 7289   1.292   0.946   5.043
 2449TIP3    H1 7290   1.288   0.862   4.997
 2449TIP3    H2 7291   1.380   0.950   5.078
 2450TIP3   OH2 7292   2.932   3.745   4.192
 2450TIP3    H1 7293   2.948   3.660   4.150
 2450TIP3    H2 7294   2.837   3.753   4.194
 2451TIP3   OH2 7295   7.108   3.894   1.605
 2451TIP3    H1 7296   7.145   3.836   1.538
 2451TIP3    H2 7297   7.016   3.904   1.579
 2452TIP3   OH2 7298   4.794   0.561   1.167
 2452TIP3    H1 7299   4.890   0.566   1.171
 2452TIP3    H2 7300   4.777   0.491   1.104
 2453TIP3   OH2 7301   6.601   2.725   0.452
 2453TIP3    H1 7302   6.672   2.675   0.491
 2453TIP3    H2 7303   6.607   2.707   0.358
 2454TIP3   OH2 7304   1.337   2.508   5.515
 2454TIP3    H1 7305   1.294   2.545   5.592
 2454TIP3    H2 7306   1.269   2.506   5.447
 2455TIP3   OH2 7307   7.094   7.277   4.618
 2455TIP3    H1 7308   7.075   7.217   4.545
 2455TIP3    H2 7309   7.187   7.262   4.636
 2456TIP3   OH2 7310   1.961   6.113   0.340
 2456TIP3    H1 7311   1.889   6.163   0.300
 2456TIP3    H2 7312   2.009   6.177   0.391
 2457TIP3   OH2 7313   5.854   5.637   6.349
 2457TIP3    H1 7314   5.894   5.625   6.435
 2457TIP3    H2 7315   5.763   5.659   6.369
 2458TIP3   OH2 7316   1.199   7.017   2.534
 2458TIP3    H1 7317   1.221   7.070   2.457
 2458TIP3    H2 7318   1.175   6.932   2.498
 2459TIP3   OH2 7319   8.245   5.355   4.520
 2459TIP3    H1 7320   8.224   5.447   4.509
 2459TIP3    H2 7321   8.220   5.314   4.438
 2460TIP3   OH2 7322   2.267   6.980   2.024
 2460TIP3    H1 7323   2.269   7.072   1.996
 2460TIP3    H2 7324   2.232   6.933   1.948
 2461TIP3   OH2 7325   3.139   1.470   1.216
 2461TIP3    H1 7326   3.133   1.488   1.310
 2461TIP3    H2 7327   3.053   1.493   1.182
 2462TIP3   OH2 7328   4.783   5.779   0.906
 2462TIP3    H1 7329   4.691   5.782   0.932
 2462TIP3    H2 7330   4.803   5.686   0.899
 2463TIP3   OH2 7331   6.346   6.130   5.040
 2463TIP3    H1 7332   6.277   6.063   5.051
 2463TIP3    H2 7333   6.301   6.205   5.002
 2464TIP3   OH2 7334   5.663   7.438   1.259
 2464TIP3    H1 7335   5.630   7.430   1.169
 2464TIP3    H2 7336   5.650   7.351   1.297
 2465TIP3   OH2 7337   1.669   1.223   5.063
 2465TIP3    H1 7338   1.712   1.299   5.104
 2465TIP3    H2 7339   1.580   1.252   5.047
 2466TIP3   OH2 7340   7.271   5.551   0.512
 2466TIP3    H1 7341   7.255   5.558   0.418
 2466TIP3    H2 7342   7.232   5.630   0.549
 2467TIP3   OH2 7343   2.839   1.673   5.866
 2467TIP3    H1 7344   2.865   1.683   5.774
 2467TIP3    H2 7345   2.808   1.582   5.872
 2468TIP3   OH2 7346   4.080   4.403   3.626
 2468TIP3    H1 7347   4.019   4.441   3.562
 2468TIP3    H2 7348   4.152   4.466   3.630
 2469TIP3   OH2 7349   0.567   2.642   3.912
 2469TIP3    H1 7350   0.632   2.576   3.937
 2469TIP3    H2 7351   0.482   2.599   3.925
 2470TIP3   OH2 7352   0.847   7.228   2.133
 2470TIP3    H1 7353   0.755   7.243   2.114
 2470TIP3    H2 7354   0.855   7.243   2.227
 2471TIP3   OH2 7355   2.954   4.376   0.682
 2471TIP3    H1 7356   3.029   4.413   0.730
 2471TIP3    H2 7357   2.933   4.442   0.616
 2472TIP3   OH2 7358   0.509   2.633   2.939
 2472TIP3    H1 7359   0.433   2.657   2.992
 2472TIP3    H2 7360   0.523   2.541   2.957
 2473TIP3   OH2 7361   0.483   0.546   5.711
 2473TIP3    H1 7362   0.549   0.606   5.674
 2473TIP3    H2 7363   0.419   0.535   5.640
 2474TIP3   OH2 7364   5.214   7.690   1.827
 2474TIP3    H1 7365   5.168   7.654   1.752
 2474TIP3    H2 7366   5.307   7.679   1.806
 2475TIP3   OH2 7367   1.966   5.466   0.616
 2475TIP3    H1 7368   1.935   5.506   0.534
 2475TIP3    H2 7369   1.887   5.432   0.657
 2476TIP3   OH2 7370   5.745   7.260   1.859
 2476TIP3    H1 7371   5.734   7.176   1.814
 2476TIP3    H2 7372   5.809   7.307   1.805
 2477TIP3   OH2 7373   8.209   0.682   5.727
 2477TIP3    H1 7374   8.178   0.668   5.638
 2477TIP3    H2 7375   8.147   0.745   5.765
 2478TIP3   OH2 7376   1.942   1.260   4.867
 2478TIP3    H1 7377   2.023   1.238   4.822
 2478TIP3    H2 7378   1.874   1.216   4.817
 2479TIP3   OH2 7379   0.882   3.496   2.026
 2479TIP3    H1 7380   0.939   3.555   1.977
 2479TIP3    H2 7381   0.929   3.479   2.107
 2480TIP3   OH2 7382   2.972   1.443   4.925
 2480TIP3    H1 7383   2.926   1.526   4.939
 2480TIP3    H2 7384   2.920   1.378   4.970
 2481TIP3   OH2 7385   6.802   2.818   3.454
 2481TIP3    H1 7386   6.831   2.727   3.444
 2481TIP3    H2 7387   6.728   2.812   3.514
 2482TIP3   OH2 7388   4.476   3.659   4.218
 2482TIP3    H1 7389   4.408   3.661   4.285
 2482TIP3    H2 7390   4.434   3.697   4.141
 2483TIP3   OH2 7391   0.467   6.990   1.191
 2483TIP3    H1 7392   0.499   6.903   1.167
 2483TIP3    H2 7393   0.441   7.030   1.109
 2484TIP3   OH2 7394   5.972   7.634   4.897
 2484TIP3    H1 7395   6.013   7.631   4.810
 2484TIP3    H2 7396   6.017   7.565   4.946
 2485TIP3   OH2 7397   3.301   7.859   4.517
 2485TIP3    H1 7398   3.278   7.820   4.432
 2485TIP3    H2 7399   3.281   7.952   4.507
 2486TIP3   OH2 7400  -0.053   5.873   3.144
 2486TIP3    H1 7401  -0.047   5.840   3.234
 2486TIP3    H2 7402   0.037   5.879   3.114
 2487TIP3   OH2 7403   7.646   4.197   2.546
 2487TIP3    H1 7404   7.674   4.227   2.633
 2487TIP3    H2 7405   7.713   4.231   2.487
 2488TIP3   OH2 7406   7.563   7.115   5.481
 2488TIP3    H1 7407   7.620   7.192   5.480
 2488TIP3    H2 7408   7.523   7.113   5.394
 2489TIP3   OH2 7409   6.262   4.691   4.907
 2489TIP3    H1 7410   6.213   4.773   4.915
 2489TIP3    H2 7411   6.210   4.639   4.846
 2490TIP3   OH2 7412   6.203   2.883   2.087
 2490TIP3    H1 7413   6.110   2.888   2.112
 2490TIP3    H2 7414   6.223   2.790   2.089
 2491TIP3   OH2 7415   7.553   3.290   5.705
 2491TIP3    H1 7416   7.550   3.208   5.754
 2491TIP3    H2 7417   7.591   3.353   5.767
 2492TIP3   OH2 7418   3.147   5.454   6.264
 2492TIP3    H1 7419   3.096   5.482   6.340
 2492TIP3    H2 7420   3.151   5.359   6.271
 2493TIP3   OH2 7421   5.405   2.522   3.023
 2493TIP3    H1 7422   5.471   2.586   3.050
 2493TIP3    H2 7423   5.429   2.499   2.933
 2494TIP3   OH2 7424   2.943   3.154   6.078
 2494TIP3    H1 7425   2.953   3.228   6.018
 2494TIP3    H2 7426   3.023   3.102   6.067
 2495TIP3   OH2 7427   6.284   7.354   5.873
 2495TIP3    H1 7428   6.245   7.294   5.811
 2495TIP3    H2 7429   6.213   7.415   5.895
 2496TIP3   OH2 7430   3.099   0.689   4.193
 2496TIP3    H1 7431   3.141   0.634   4.127
 2496TIP3    H2 7432   3.008   0.661   4.193
 2497TIP3   OH2 7433   2.177   3.931   3.007
 2497TIP3    H1 7434   2.085   3.951   2.991
 2497TIP3    H2 7435   2.196   3.856   2.951
 2498TIP3   OH2 7436   3.857   0.605   2.490
 2498TIP3    H1 7437   3.787   0.650   2.443
 2498TIP3    H2 7438   3.846   0.632   2.581
 2499TIP3   OH2 7439   5.831   1.164   3.038
 2499TIP3    H1 7440   5.909   1.149   3.091
 2499TIP3    H2 7441   5.804   1.076   3.009
 2500TIP3   OH2 7442   4.448   5.638   4.005
 2500TIP3    H1 7443   4.417   5.724   3.976
 2500TIP3    H2 7444   4.510   5.611   3.937
 2501TIP3   OH2 7445   0.073   5.286   2.458
 2501TIP3    H1 7446   0.089   5.379   2.474
 2501TIP3    H2 7447   0.079   5.246   2.544
 2502TIP3   OH2 7448   6.425   3.553   3.549
 2502TIP3    H1 7449   6.464   3.504   3.621
 2502TIP3    H2 7450   6.351   3.599   3.589
 2503TIP3   OH2 7451   6.553   0.577   1.212
 2503TIP3    H1 7452   6.605   0.657   1.203
 2503TIP3    H2 7453   6.465   0.609   1.233
 2504TIP3   OH2 7454   3.163   7.295   1.084
 2504TIP3    H1 7455   3.107   7.266   1.156
 2504TIP3    H2 7456   3.200   7.215   1.047
 2505TIP3   OH2 7457   5.190   3.612   2.129
 2505TIP3    H1 7458   5.185   3.708   2.127
 2505TIP3    H2 7459   5.251   3.590   2.058
 2506TIP3   OH2 7460   2.269   1.079   5.978
 2506TIP3    H1 7461   2.356   1.048   6.005
 2506TIP3    H2 7462   2.281   1.173   5.964
 2507TIP3   OH2 7463   1.101   3.671   2.553
 2507TIP3    H1 7464   1.062   3.584   2.562
 2507TIP3    H2 7465   1.031   3.732   2.574
 2508TIP3   OH2 7466   6.520   0.600   0.056
 2508TIP3    H1 7467   6.456   0.615  -0.015
 2508TIP3    H2 7468   6.514   0.506   0.074
 2509TIP3   OH2 7469   2.731   0.812   2.211
 2509TIP3    H1 7470   2.737   0.862   2.292
 2509TIP3    H2 7471   2.657   0.852   2.164
 2510TIP3   OH2 7472   6.851   6.726   5.463
 2510TIP3    H1 7473   6.762   6.750   5.491
 2510TIP3    H2 7474   6.871   6.647   5.513
 2511TIP3   OH2 7475   0.315   1.463   0.718
 2511TIP3    H1 7476   0.324   1.442   0.625
 2511TIP3    H2 7477   0.365   1.395   0.763
 2512TIP3   OH2 7478   5.138   5.826   0.230
 2512TIP3    H1 7479   5.100   5.739   0.221
 2512TIP3    H2 7480   5.194   5.820   0.308
 2513TIP3   OH2 7481   3.735   5.464   2.399
 2513TIP3    H1 7482   3.765   5.497   2.484
 2513TIP3    H2 7483   3.709   5.374   2.415
 2514TIP3   OH2 7484   6.303   6.596   3.756
 2514TIP3    H1 7485   6.356   6.597   3.677
 2514TIP3    H2 7486   6.244   6.671   3.746
 2515TIP3   OH2 7487   0.643   6.660   2.603
 2515TIP3    H1 7488   0.552   6.663   2.573
 2515TIP3    H2 7489   0.681   6.743   2.573
 2516TIP3   OH2 7490   5.538   2.568   0.899
 2516TIP3    H1 7491   5.470   2.594   0.961
 2516TIP3    H2 7492   5.536   2.637   0.832
 2517TIP3   OH2 7493   2.107   0.548   3.124
 2517TIP3    H1 7494   2.201   0.554   3.106
 2517TIP3    H2 7495   2.103   0.523   3.217
 2518TIP3   OH2 7496   0.717   3.225   0.376
 2518TIP3    H1 7497   0.659   3.173   0.320
 2518TIP3    H2 7498   0.683   3.314   0.370
 2519TIP3   OH2 7499   7.356   4.288   4.459
 2519TIP3    H1 7500   7.426   4.223   4.448
 2519TIP3    H2 7501   7.360   4.341   4.379
 2520TIP3   OH2 7502   4.489   1.082   4.971
 2520TIP3    H1 7503   4.448   1.072   5.057
 2520TIP3    H2 7504   4.544   1.160   4.981
 2521TIP3   OH2 7505   7.869   2.464  -0.023
 2521TIP3    H1 7506   7.894   2.514   0.055
 2521TIP3    H2 7507   7.785   2.424   0.001
 2522TIP3   OH2 7508   2.921   7.569   0.867
 2522TIP3    H1 7509   2.841   7.534   0.829
 2522TIP3    H2 7510   2.916   7.547   0.960
 2523TIP3   OH2 7511   6.188   4.421   2.116
 2523TIP3    H1 7512   6.255   4.473   2.162
 2523TIP3    H2 7513   6.217   4.418   2.025
 2524TIP3   OH2 7514   0.336   0.850   5.839
 2524TIP3    H1 7515   0.383   0.817   5.916
 2524TIP3    H2 7516   0.382   0.931   5.816
 2525TIP3   OH2 7517   1.606   1.064   6.024
 2525TIP3    H1 7518   1.676   1.066   6.089
 2525TIP3    H2 7519   1.546   1.133   6.051
 2526TIP3   OH2 7520   7.752   6.188   1.834
 2526TIP3    H1 7521   7.798   6.204   1.916
 2526TIP3    H2 7522   7.707   6.271   1.815
 2527TIP3   OH2 7523   4.559   2.135   4.741
 2527TIP3    H1 7524   4.598   2.219   4.765
 2527TIP3    H2 7525   4.528   2.147   4.651
 2528TIP3   OH2 7526   6.555   3.098   0.297
 2528TIP3    H1 7527   6.640   3.055   0.309
 2528TIP3    H2 7528   6.550   3.114   0.203
 2529TIP3   OH2 7529   5.645   2.909   2.293
 2529TIP3    H1 7530   5.638   2.893   2.199
 2529TIP3    H2 7531   5.588   2.984   2.309
 2530TIP3   OH2 7532   7.160   0.721   5.072
 2530TIP3    H1 7533   7.195   0.762   4.992
 2530TIP3    H2 7534   7.151   0.629   5.050
 2531TIP3   OH2 7535   0.166   4.570   4.600
 2531TIP3    H1 7536   0.153   4.613   4.515
 2531TIP3    H2 7537   0.080   4.575   4.642
 2532TIP3   OH2 7538   7.755   7.225   4.127
 2532TIP3    H1 7539   7.684   7.164   4.104
 2532TIP3    H2 7540   7.821   7.212   4.059
 2533TIP3   OH2 7541   2.000   0.955   2.517
 2533TIP3    H1 7542   1.970   1.029   2.464
 2533TIP3    H2 7543   2.036   0.893   2.454
 2534TIP3   OH2 7544   6.993   3.234   1.455
 2534TIP3    H1 7545   6.934   3.198   1.389
 2534TIP3    H2 7546   7.031   3.158   1.498
 2535TIP3   OH2 7547   8.078   5.801   0.612
 2535TIP3    H1 7548   8.127   5.811   0.530
 2535TIP3    H2 7549   7.987   5.794   0.585
 2536TIP3   OH2 7550   7.431   1.346   0.253
 2536TIP3    H1 7551   7.488   1.285   0.300
 2536TIP3    H2 7552   7.474   1.431   0.262
 2537TIP3   OH2 7553   3.374   1.793   6.719
 2537TIP3    H1 7554   3.288   1.828   6.695
 2537TIP3    H2 7555   3.364   1.763   6.809
 2538TIP3   OH2 7556   5.082   4.925   1.175
 2538TIP3    H1 7557   5.027   4.923   1.254
 2538TIP3    H2 7558   5.154   4.865   1.194
 2539TIP3   OH2 7559   2.691   4.993   5.618
 2539TIP3    H1 7560   2.683   4.967   5.710
 2539TIP3    H2 7561   2.616   5.051   5.603
 2540TIP3   OH2 7562   3.146   2.776   4.073
 2540TIP3    H1 7563   3.222   2.766   4.016
 2540TIP3    H2 7564   3.163   2.856   4.122
 2541TIP3   OH2 7565   1.667   0.297   2.815
 2541TIP3    H1 7566   1.588   0.268   2.769
 2541TIP3    H2 7567   1.649   0.388   2.839
 2542TIP3   OH2 7568   6.377   0.481   1.729
 2542TIP3    H1 7569   6.367   0.444   1.641
 2542TIP3    H2 7570   6.335   0.418   1.787
 2543TIP3   OH2 7571   1.631   6.737   2.572
 2543TIP3    H1 7572   1.554   6.749   2.515
 2543TIP3    H2 7573   1.603   6.672   2.636
 2544TIP3   OH2 7574   0.971   1.085   1.680
 2544TIP3    H1 7575   0.924   1.053   1.757
 2544TIP3    H2 7576   0.996   1.006   1.632
 2545TIP3   OH2 7577   0.557   5.822   1.115
 2545TIP3    H1 7578   0.580   5.889   1.181
 2545TIP3    H2 7579   0.492   5.864   1.060
 2546TIP3   OH2 7580   1.797   6.127   2.778
 2546TIP3    H1 7581   1.782   6.185   2.704
 2546TIP3    H2 7582   1.720   6.139   2.834
 2547TIP3   OH2 7583   4.804   5.458   2.219
 2547TIP3    H1 7584   4.858   5.463   2.140
 2547TIP3    H2 7585   4.718   5.490   2.191
 2548TIP3   OH2 7586   1.480   3.412   3.228
 2548TIP3    H1 7587   1.388   3.388   3.222
 2548TIP3    H2 7588   1.520   3.379   3.148
 2549TIP3   OH2 7589   5.721   7.704   4.777
 2549TIP3    H1 7590   5.725   7.800   4.770
 2549TIP3    H2 7591   5.777   7.684   4.853
 2550TIP3   OH2 7592   6.880   7.281   0.745
 2550TIP3    H1 7593   6.896   7.366   0.704
 2550TIP3    H2 7594   6.910   7.293   0.835
 2551TIP3   OH2 7595   7.047   7.080   4.414
 2551TIP3    H1 7596   6.970   7.029   4.388
 2551TIP3    H2 7597   7.117   7.016   4.423
 2552TIP3   OH2 7598   0.579   0.512   1.071
 2552TIP3    H1 7599   0.552   0.490   1.160
 2552TIP3    H2 7600   0.601   0.428   1.031
 2553TIP3   OH2 7601   4.898   4.995   4.739
 2553TIP3    H1 7602   4.825   4.943   4.705
 2553TIP3    H2 7603   4.976   4.958   4.696
 2554TIP3   OH2 7604   6.692   3.911   3.991
 2554TIP3    H1 7605   6.757   3.980   3.982
 2554TIP3    H2 7606   6.701   3.859   3.911
 2555TIP3   OH2 7607   6.240   1.121   6.043
 2555TIP3    H1 7608   6.299   1.164   5.982
 2555TIP3    H2 7609   6.292   1.052   6.083
 2556TIP3   OH2 7610   5.993   2.223   4.622
 2556TIP3    H1 7611   6.029   2.211   4.535
 2556TIP3    H2 7612   6.049   2.170   4.679
 2557TIP3   OH2 7613   5.154   4.957   4.410
 2557TIP3    H1 7614   5.085   4.901   4.374
 2557TIP3    H2 7615   5.178   5.015   4.338
 2558TIP3   OH2 7616   7.165   2.507   6.610
 2558TIP3    H1 7617   7.230   2.541   6.672
 2558TIP3    H2 7618   7.215   2.448   6.553
 2559TIP3   OH2 7619   0.042   3.486   2.369
 2559TIP3    H1 7620   0.098   3.449   2.437
 2559TIP3    H2 7621  -0.047   3.463   2.396
 2560TIP3   OH2 7622   3.017   4.770   4.954
 2560TIP3    H1 7623   3.072   4.779   5.032
 2560TIP3    H2 7624   3.023   4.678   4.930
 2561TIP3   OH2 7625   5.349   7.347   5.722
 2561TIP3    H1 7626   5.316   7.288   5.790
 2561TIP3    H2 7627   5.275   7.356   5.661
 2562TIP3   OH2 7628   0.704   2.416   6.608
 2562TIP3    H1 7629   0.684   2.484   6.673
 2562TIP3    H2 7630   0.753   2.350   6.657
 2563TIP3   OH2 7631   0.763   6.730   4.279
 2563TIP3    H1 7632   0.731   6.692   4.360
 2563TIP3    H2 7633   0.759   6.658   4.216
 2564TIP3   OH2 7634   7.906   3.413   4.825
 2564TIP3    H1 7635   7.977   3.401   4.763
 2564TIP3    H2 7636   7.944   3.391   4.910
 2565TIP3   OH2 7637   4.215   5.130   1.117
 2565TIP3    H1 7638   4.291   5.148   1.061
 2565TIP3    H2 7639   4.146   5.105   1.057
 2566TIP3   OH2 7640   5.673   5.111   4.056
 2566TIP3    H1 7641   5.603   5.136   3.997
 2566TIP3    H2 7642   5.750   5.099   4.000
 2567TIP3   OH2 7643   4.311   2.818   4.224
 2567TIP3    H1 7644   4.266   2.899   4.249
 2567TIP3    H2 7645   4.242   2.753   4.215
 2568TIP3   OH2 7646   3.516   3.262   0.286
 2568TIP3    H1 7647   3.548   3.350   0.266
 2568TIP3    H2 7648   3.429   3.276   0.324
 2569TIP3   OH2 7649   6.432   2.318   1.744
 2569TIP3    H1 7650   6.339   2.340   1.749
 2569TIP3    H2 7651   6.475   2.399   1.716
 2570TIP3   OH2 7652   5.376   3.297   3.978
 2570TIP3    H1 7653   5.326   3.252   3.909
 2570TIP3    H2 7654   5.392   3.384   3.942
 2571TIP3   OH2 7655   0.068   5.279   1.616
 2571TIP3    H1 7656   0.145   5.304   1.566
 2571TIP3    H2 7657   0.018   5.360   1.626
 2572TIP3   OH2 7658   3.852   4.646   4.689
 2572TIP3    H1 7659   3.866   4.603   4.605
 2572TIP3    H2 7660   3.930   4.700   4.702
 2573TIP3   OH2 7661   2.160   0.555   5.594
 2573TIP3    H1 7662   2.256   0.560   5.599
 2573TIP3    H2 7663   2.132   0.646   5.595
 2574TIP3   OH2 7664   4.536   1.267   3.516
 2574TIP3    H1 7665   4.550   1.360   3.497
 2574TIP3    H2 7666   4.534   1.262   3.612
 2575TIP3   OH2 7667   7.749   5.900   6.208
 2575TIP3    H1 7668   7.717   5.810   6.199
 2575TIP3    H2 7669   7.838   5.890   6.241
 2576TIP3   OH2 7670   3.363   6.349   4.811
 2576TIP3    H1 7671   3.454   6.323   4.801
 2576TIP3    H2 7672   3.314   6.284   4.761
 2577TIP3   OH2 7673   1.665   7.541   4.298
 2577TIP3    H1 7674   1.721   7.602   4.250
 2577TIP3    H2 7675   1.626   7.594   4.368
 2578TIP3   OH2 7676   5.319   0.479   3.282
 2578TIP3    H1 7677   5.231   0.440   3.289
 2578TIP3    H2 7678   5.353   0.477   3.372
 2579TIP3   OH2 7679   1.312   2.872   3.097
 2579TIP3    H1 7680   1.273   2.811   3.160
 2579TIP3    H2 7681   1.398   2.836   3.080
 2580TIP3   OH2 7682   1.846   3.549   2.035
 2580TIP3    H1 7683   1.756   3.518   2.044
 2580TIP3    H2 7684   1.840   3.644   2.048
 2581TIP3   OH2 7685   6.612   5.893   0.551
 2581TIP3    H1 7686   6.703   5.921   0.567
 2581TIP3    H2 7687   6.598   5.822   0.614
 2582TIP3   OH2 7688   1.428   5.817   5.757
 2582TIP3    H1 7689   1.453   5.731   5.724
 2582TIP3    H2 7690   1.492   5.835   5.826
 2583TIP3   OH2 7691   4.823   1.790   5.110
 2583TIP3    H1 7692   4.835   1.879   5.144
 2583TIP3    H2 7693   4.895   1.740   5.148
 2584TIP3   OH2 7694   5.282   0.383   2.312
 2584TIP3    H1 7695   5.325   0.380   2.397
 2584TIP3    H2 7696   5.227   0.304   2.310
 2585TIP3   OH2 7697   8.098   3.199   4.089
 2585TIP3    H1 7698   8.128   3.176   4.177
 2585TIP3    H2 7699   8.008   3.228   4.102
 2586TIP3   OH2 7700   1.742   3.970   1.837
 2586TIP3    H1 7701   1.650   3.954   1.815
 2586TIP3    H2 7702   1.790   3.940   1.760
 2587TIP3   OH2 7703   6.100   1.009   5.821
 2587TIP3    H1 7704   6.050   0.936   5.857
 2587TIP3    H2 7705   6.152   1.042   5.894
 2588TIP3   OH2 7706   1.385   6.920   6.275
 2588TIP3    H1 7707   1.367   7.012   6.292
 2588TIP3    H2 7708   1.341   6.873   6.346
 2589TIP3   OH2 7709   3.810   6.323   5.915
 2589TIP3    H1 7710   3.811   6.417   5.898
 2589TIP3    H2 7711   3.893   6.291   5.880
 2590TIP3   OH2 7712   6.270   6.451   4.131
 2590TIP3    H1 7713   6.231   6.534   4.103
 2590TIP3    H2 7714   6.320   6.473   4.210
 2591TIP3   OH2 7715   6.848   7.429   0.060
 2591TIP3    H1 7716   6.869   7.350   0.111
 2591TIP3    H2 7717   6.902   7.421  -0.019
 2592TIP3   OH2 7718   6.020   4.275   4.253
 2592TIP3    H1 7719   6.112   4.263   4.276
 2592TIP3    H2 7720   6.005   4.213   4.181
 2593TIP3   OH2 7721   7.876   3.107   5.678
 2593TIP3    H1 7722   7.839   3.107   5.590
 2593TIP3    H2 7723   7.823   3.044   5.727
 2594TIP3   OH2 7724   6.546   3.674   2.946
 2594TIP3    H1 7725   6.598   3.635   3.016
 2594TIP3    H2 7726   6.465   3.622   2.945
 2595TIP3   OH2 7727   1.855   0.697   2.002
 2595TIP3    H1 7728   1.766   0.727   1.989
 2595TIP3    H2 7729   1.851   0.645   2.083
 2596TIP3   OH2 7730   0.238   5.898   3.353
 2596TIP3    H1 7731   0.250   5.982   3.309
 2596TIP3    H2 7732   0.267   5.913   3.443
 2597TIP3   OH2 7733   2.950   7.592   2.434
 2597TIP3    H1 7734   2.862   7.630   2.442
 2597TIP3    H2 7735   2.954   7.529   2.507
 2598TIP3   OH2 7736   0.024   1.917   6.692
 2598TIP3    H1 7737   0.089   1.922   6.622
 2598TIP3    H2 7738   0.069   1.871   6.763
 2599TIP3   OH2 7739   5.397   5.648   1.242
 2599TIP3    H1 7740   5.464   5.637   1.309
 2599TIP3    H2 7741   5.334   5.578   1.260
 2600TIP3   OH2 7742   7.195   2.029   2.430
 2600TIP3    H1 7743   7.162   2.089   2.497
 2600TIP3    H2 7744   7.184   2.076   2.347
 2601TIP3   OH2 7745   1.907   4.817   4.953
 2601TIP3    H1 7746   1.870   4.734   4.982
 2601TIP3    H2 7747   1.883   4.879   5.022
 2602TIP3   OH2 7748   3.971   7.240  -0.009
 2602TIP3    H1 7749   4.002   7.269   0.077
 2602TIP3    H2 7750   3.889   7.194   0.009
 2603TIP3   OH2 7751   3.072   1.763   5.404
 2603TIP3    H1 7752   3.101   1.743   5.315
 2603TIP3    H2 7753   2.977   1.765   5.399
 2604TIP3   OH2 7754   3.283   6.634   4.645
 2604TIP3    H1 7755   3.285   6.730   4.642
 2604TIP3    H2 7756   3.285   6.613   4.739
 2605TIP3   OH2 7757   6.787   7.017   4.269
 2605TIP3    H1 7758   6.758   7.063   4.190
 2605TIP3    H2 7759   6.745   6.931   4.264
 2606TIP3   OH2 7760   6.929   6.995   6.538
 2606TIP3    H1 7761   6.895   6.970   6.453
 2606TIP3    H2 7762   6.863   6.964   6.600
 2607TIP3   OH2 7763   3.945   3.246   0.893
 2607TIP3    H1 7764   4.023   3.192   0.909
 2607TIP3    H2 7765   3.872   3.185   0.905
 2608TIP3   OH2 7766   5.085   4.744   0.811
 2608TIP3    H1 7767   5.042   4.829   0.815
 2608TIP3    H2 7768   5.123   4.732   0.898
 2609TIP3   OH2 7769   3.346   5.503   0.906
 2609TIP3    H1 7770   3.258   5.469   0.894
 2609TIP3    H2 7771   3.392   5.478   0.826
 2610TIP3   OH2 7772   6.101   6.144   1.926
 2610TIP3    H1 7773   6.028   6.098   1.968
 2610TIP3    H2 7774   6.080   6.143   1.833
 2611TIP3   OH2 7775   8.094   0.386   5.236
 2611TIP3    H1 7776   8.139   0.441   5.300
 2611TIP3    H2 7777   8.045   0.322   5.288
 2612TIP3   OH2 7778   1.360   2.289   5.658
 2612TIP3    H1 7779   1.384   2.377   5.631
 2612TIP3    H2 7780   1.406   2.276   5.741
 2613TIP3   OH2 7781   7.294   4.296   3.027
 2613TIP3    H1 7782   7.266   4.344   3.105
 2613TIP3    H2 7783   7.366   4.349   2.992
 2614TIP3   OH2 7784   8.139   7.755   0.243
 2614TIP3    H1 7785   8.085   7.807   0.302
 2614TIP3    H2 7786   8.138   7.667   0.279
 2615TIP3   OH2 7787   5.759   0.303   2.568
 2615TIP3    H1 7788   5.778   0.235   2.633
 2615TIP3    H2 7789   5.770   0.259   2.484
 2616TIP3   OH2 7790   6.415   3.692   4.725
 2616TIP3    H1 7791   6.463   3.733   4.797
 2616TIP3    H2 7792   6.454   3.731   4.646
 2617TIP3   OH2 7793   4.948   6.121   2.467
 2617TIP3    H1 7794   4.985   6.159   2.547
 2617TIP3    H2 7795   5.006   6.152   2.398
 2618TIP3   OH2 7796   0.900   5.554   6.436
 2618TIP3    H1 7797   0.808   5.530   6.431
 2618TIP3    H2 7798   0.943   5.476   6.470
 2619TIP3   OH2 7799   4.083   1.648   4.805
 2619TIP3    H1 7800   4.008   1.680   4.755
 2619TIP3    H2 7801   4.060   1.664   4.896
 2620TIP3   OH2 7802   6.962   3.629   5.548
 2620TIP3    H1 7803   6.991   3.546   5.586
 2620TIP3    H2 7804   6.964   3.691   5.621
 2621TIP3   OH2 7805   2.693   1.575   3.426
 2621TIP3    H1 7806   2.681   1.654   3.478
 2621TIP3    H2 7807   2.784   1.550   3.441
 2622TIP3   OH2 7808   6.433   4.556   5.643
 2622TIP3    H1 7809   6.429   4.533   5.550
 2622TIP3    H2 7810   6.366   4.624   5.653
 2623TIP3   OH2 7811   4.554   6.861   3.110
 2623TIP3    H1 7812   4.514   6.779   3.138
 2623TIP3    H2 7813   4.544   6.862   3.015
 2624TIP3   OH2 7814   5.023   2.725   0.407
 2624TIP3    H1 7815   5.084   2.799   0.399
 2624TIP3    H2 7816   4.937   2.766   0.409
 2625TIP3   OH2 7817   4.414   5.525   1.478
 2625TIP3    H1 7818   4.372   5.462   1.419
 2625TIP3    H2 7819   4.449   5.472   1.550
 2626TIP3   OH2 7820   5.291   3.314   5.766
 2626TIP3    H1 7821   5.269   3.385   5.827
 2626TIP3    H2 7822   5.290   3.355   5.680
 2627TIP3   OH2 7823   0.044   6.570   2.218
 2627TIP3    H1 7824   0.072   6.535   2.303
 2627TIP3    H2 7825  -0.028   6.630   2.239
 2628TIP3   OH2 7826   4.290   1.888   3.174
 2628TIP3    H1 7827   4.280   1.983   3.168
 2628TIP3    H2 7828   4.241   1.854   3.099
 2629TIP3   OH2 7829   3.203   6.679   0.076
 2629TIP3    H1 7830   3.261   6.706   0.147
 2629TIP3    H2 7831   3.177   6.589   0.098
 2630TIP3   OH2 7832   7.677   1.226   3.650
 2630TIP3    H1 7833   7.647   1.224   3.741
 2630TIP3    H2 7834   7.616   1.286   3.607
 2631TIP3   OH2 7835   2.822   6.195   1.609
 2631TIP3    H1 7836   2.810   6.100   1.603
 2631TIP3    H2 7837   2.912   6.205   1.639
 2632TIP3   OH2 7838   2.046   7.620   5.720
 2632TIP3    H1 7839   1.970   7.663   5.679
 2632TIP3    H2 7840   2.009   7.546   5.767
 2633TIP3   OH2 7841   2.486   1.986   0.886
 2633TIP3    H1 7842   2.559   2.000   0.947
 2633TIP3    H2 7843   2.407   2.003   0.938
 2634TIP3   OH2 7844   7.510   1.263   6.465
 2634TIP3    H1 7845   7.538   1.186   6.516
 2634TIP3    H2 7846   7.418   1.246   6.444
 2635TIP3   OH2 7847   7.442   3.889   6.707
 2635TIP3    H1 7848   7.370   3.834   6.676
 2635TIP3    H2 7849   7.504   3.891   6.634
 2636TIP3   OH2 7850   3.783   0.284   3.385
 2636TIP3    H1 7851   3.840   0.226   3.335
 2636TIP3    H2 7852   3.807   0.269   3.477
 2637TIP3   OH2 7853   5.856   4.520   6.466
 2637TIP3    H1 7854   5.876   4.561   6.382
 2637TIP3    H2 7855   5.855   4.426   6.448
 2638TIP3   OH2 7856   5.097   1.832   1.543
 2638TIP3    H1 7857   5.129   1.913   1.583
 2638TIP3    H2 7858   5.043   1.862   1.470
 2639TIP3   OH2 7859   0.186   6.931   2.382
 2639TIP3    H1 7860   0.140   6.896   2.458
 2639TIP3    H2 7861   0.270   6.885   2.383
 2640TIP3   OH2 7862   2.439   2.383   1.532
 2640TIP3    H1 7863   2.518   2.353   1.487
 2640TIP3    H2 7864   2.411   2.460   1.483
 2641TIP3   OH2 7865   3.854   5.516   6.253
 2641TIP3    H1 7866   3.766   5.485   6.273
 2641TIP3    H2 7867   3.908   5.481   6.323
 2642TIP3   OH2 7868   7.576   3.676   2.257
 2642TIP3    H1 7869   7.578   3.656   2.163
 2642TIP3    H2 7870   7.559   3.592   2.299
 2643TIP3   OH2 7871   7.424   0.007   5.367
 2643TIP3    H1 7872   7.512   0.002   5.402
 2643TIP3    H2 7873   7.372   0.045   5.438
 2644TIP3   OH2 7874   4.637   7.539   3.319
 2644TIP3    H1 7875   4.629   7.595   3.242
 2644TIP3    H2 7876   4.663   7.599   3.389
 2645TIP3   OH2 7877   4.598   2.653   6.528
 2645TIP3    H1 7878   4.529   2.676   6.590
 2645TIP3    H2 7879   4.659   2.727   6.531
 2646TIP3   OH2 7880   3.415   1.054   3.286
 2646TIP3    H1 7881   3.428   1.115   3.358
 2646TIP3    H2 7882   3.476   1.083   3.218
 2647TIP3   OH2 7883   3.435   0.263   5.203
 2647TIP3    H1 7884   3.362   0.226   5.154
 2647TIP3    H2 7885   3.443   0.207   5.280
 2648TIP3   OH2 7886   8.110   1.188   4.309
 2648TIP3    H1 7887   8.028   1.193   4.261
 2648TIP3    H2 7888   8.099   1.248   4.383
 2649TIP3   OH2 7889   1.799   5.994   4.949
 2649TIP3    H1 7890   1.788   6.027   4.860
 2649TIP3    H2 7891   1.727   6.034   4.998
 2650TIP3   OH2 7892  -0.006   6.117   0.615
 2650TIP3    H1 7893  -0.019   6.211   0.607
 2650TIP3    H2 7894  -0.042   6.080   0.534
 2651TIP3   OH2 7895   5.710   4.600   3.579
 2651TIP3    H1 7896   5.761   4.583   3.658
 2651TIP3    H2 7897   5.727   4.524   3.522
 2652TIP3   OH2 7898   1.620   0.774   4.905
 2652TIP3    H1 7899   1.685   0.725   4.956
 2652TIP3    H2 7900   1.639   0.751   4.814
 2653TIP3   OH2 7901   6.297   1.700   1.494
 2653TIP3    H1 7902   6.301   1.708   1.589
 2653TIP3    H2 7903   6.364   1.635   1.472
 2654TIP3   OH2 7904   1.353   1.284   5.680
 2654TIP3    H1 7905   1.297   1.298   5.756
 2654TIP3    H2 7906   1.442   1.297   5.713
 2655TIP3   OH2 7907   8.099   6.587   2.928
 2655TIP3    H1 7908   8.081   6.633   3.010
 2655TIP3    H2 7909   8.139   6.505   2.955
 2656TIP3   OH2 7910   5.268   7.251   2.562
 2656TIP3    H1 7911   5.195   7.299   2.522
 2656TIP3    H2 7912   5.269   7.280   2.653
 2657TIP3   OH2 7913   3.686   0.967   4.840
 2657TIP3    H1 7914   3.653   1.051   4.874
 2657TIP3    H2 7915   3.617   0.937   4.780
 2658TIP3   OH2 7916   7.508   0.550   0.789
 2658TIP3    H1 7917   7.592   0.582   0.757
 2658TIP3    H2 7918   7.453   0.628   0.796
 2659TIP3   OH2 7919   7.234   7.746   0.985
 2659TIP3    H1 7920   7.286   7.757   1.065
 2659TIP3    H2 7921   7.149   7.715   1.015
 2660TIP3   OH2 7922   3.287   0.408   5.925
 2660TIP3    H1 7923   3.216   0.452   5.970
 2660TIP3    H2 7924   3.333   0.360   5.994
 2661TIP3   OH2 7925   0.452   2.995   1.821
 2661TIP3    H1 7926   0.479   2.923   1.877
 2661TIP3    H2 7927   0.381   3.037   1.869
 2662TIP3   OH2 7928   5.100   7.465   0.603
 2662TIP3    H1 7929   5.104   7.561   0.595
 2662TIP3    H2 7930   5.123   7.433   0.516
 2663TIP3   OH2 7931   8.181   3.984   5.183
 2663TIP3    H1 7932   8.231   4.004   5.103
 2663TIP3    H2 7933   8.097   3.952   5.151
 2664TIP3   OH2 7934   1.214   0.377   2.711
 2664TIP3    H1 7935   1.280   0.308   2.703
 2664TIP3    H2 7936   1.242   0.444   2.649
 2665TIP3   OH2 7937   0.655   5.152   1.336
 2665TIP3    H1 7938   0.684   5.178   1.248
 2665TIP3    H2 7939   0.734   5.161   1.390
 2666TIP3   OH2 7940   8.243   1.050   3.479
 2666TIP3    H1 7941   8.188   1.025   3.553
 2666TIP3    H2 7942   8.333   1.038   3.511
 2667TIP3   OH2 7943   3.735   2.645   2.677
 2667TIP3    H1 7944   3.763   2.731   2.646
 2667TIP3    H2 7945   3.763   2.642   2.769
 2668TIP3   OH2 7946   8.149   0.793   1.384
 2668TIP3    H1 7947   8.061   0.808   1.349
 2668TIP3    H2 7948   8.201   0.768   1.308
 2669TIP3   OH2 7949   5.946   4.698   5.638
 2669TIP3    H1 7950   5.930   4.792   5.632
 2669TIP3    H2 7951   6.001   4.688   5.717
 2670TIP3   OH2 7952   0.129   4.505   0.660
 2670TIP3    H1 7953   0.072   4.429   0.646
 2670TIP3    H2 7954   0.108   4.564   0.588
 2671TIP3   OH2 7955   1.440   6.946   0.938
 2671TIP3    H1 7956   1.424   7.004   0.863
 2671TIP3    H2 7957   1.522   6.902   0.917
 2672TIP3   OH2 7958   2.837   5.639   5.161
 2672TIP3    H1 7959   2.750   5.624   5.123
 2672TIP3    H2 7960   2.864   5.724   5.127
 2673TIP3   OH2 7961   1.317   0.377   1.139
 2673TIP3    H1 7962   1.357   0.432   1.206
 2673TIP3    H2 7963   1.353   0.409   1.057
 2674TIP3   OH2 7964   3.259   4.121   2.002
 2674TIP3    H1 7965   3.342   4.081   2.029
 2674TIP3    H2 7966   3.196   4.093   2.069
 2675TIP3   OH2 7967   4.044   4.111   5.939
 2675TIP3    H1 7968   3.996   4.030   5.956
 2675TIP3    H2 7969   3.979   4.171   5.903
 2676TIP3   OH2 7970   7.042   2.208   5.342
 2676TIP3    H1 7971   7.080   2.273   5.401
 2676TIP3    H2 7972   6.990   2.151   5.398
 2677TIP3   OH2 7973   5.715   5.930   0.012
 2677TIP3    H1 7974   5.707   5.974   0.097
 2677TIP3    H2 7975   5.646   5.863   0.014
 2678TIP3   OH2 7976   3.465   1.135   3.553
 2678TIP3    H1 7977   3.524   1.111   3.625
 2678TIP3    H2 7978   3.447   1.228   3.566
 2679TIP3   OH2 7979   4.422   5.073   0.973
 2679TIP3    H1 7980   4.384   4.985   0.975
 2679TIP3    H2 7981   4.508   5.063   1.013
 2680TIP3   OH2 7982   5.623   0.271   5.441
 2680TIP3    H1 7983   5.580   0.351   5.470
 2680TIP3    H2 7984   5.624   0.215   5.519
 2681TIP3   OH2 7985   4.096   0.714   5.073
 2681TIP3    H1 7986   4.169   0.685   5.018
 2681TIP3    H2 7987   4.115   0.806   5.092
 2682TIP3   OH2 7988   3.598   0.392   2.850
 2682TIP3    H1 7989   3.651   0.411   2.927
 2682TIP3    H2 7990   3.510   0.421   2.873
 2683TIP3   OH2 7991   0.928   5.392   4.207
 2683TIP3    H1 7992   0.963   5.303   4.210
 2683TIP3    H2 7993   1.002   5.445   4.177
 2684TIP3   OH2 7994   3.178   4.069   6.449
 2684TIP3    H1 7995   3.091   4.109   6.454
 2684TIP3    H2 7996   3.222   4.117   6.379
 2685TIP3   OH2 7997   5.079   3.144   1.697
 2685TIP3    H1 7998   5.029   3.222   1.720
 2685TIP3    H2 7999   5.114   3.163   1.610
 2686TIP3   OH2 8000   4.777   2.820   3.058
 2686TIP3    H1 8001   4.687   2.801   3.032
 2686TIP3    H2 8002   4.827   2.745   3.025
 2687TIP3   OH2 8003   1.773   7.012   6.181
 2687TIP3    H1 8004   1.819   7.095   6.167
 2687TIP3    H2 8005   1.752   7.011   6.274
 2688TIP3   OH2 8006   0.460   3.259   0.076
 2688TIP3    H1 8007   0.464   3.173   0.033
 2688TIP3    H2 8008   0.457   3.238   0.170
 2689TIP3   OH2 8009   3.446   1.945   2.442
 2689TIP3    H1 8010   3.451   2.037   2.466
 2689TIP3    H2 8011   3.534   1.911   2.459
 2690TIP3   OH2 8012   3.120   2.392   1.173
 2690TIP3    H1 8013   3.144   2.466   1.229
 2690TIP3    H2 8014   3.115   2.429   1.085
 2691TIP3   OH2 8015   8.129   5.091   2.885
 2691TIP3    H1 8016   8.190   5.145   2.934
 2691TIP3    H2 8017   8.055   5.149   2.867
 2692TIP3   OH2 8018   4.846   5.289   1.263
 2692TIP3    H1 8019   4.895   5.236   1.201
 2692TIP3    H2 8020   4.899   5.289   1.343
 2693TIP3   OH2 8021   4.967   1.197   0.313
 2693TIP3    H1 8022   5.009   1.224   0.231
 2693TIP3    H2 8023   4.967   1.276   0.367
 2694TIP3   OH2 8024   2.839   2.533   2.001
 2694TIP3    H1 8025   2.751   2.556   2.031
 2694TIP3    H2 8026   2.882   2.618   1.989
 2695TIP3   OH2 8027   1.442   6.179   1.851
 2695TIP3    H1 8028   1.358   6.164   1.896
 2695TIP3    H2 8029   1.507   6.144   1.911
 2696TIP3   OH2 8030   6.922   1.939   0.286
 2696TIP3    H1 8031   7.003   1.897   0.313
 2696TIP3    H2 8032   6.861   1.867   0.271
 2697TIP3   OH2 8033   7.634   7.292   4.519
 2697TIP3    H1 8034   7.715   7.300   4.570
 2697TIP3    H2 8035   7.637   7.364   4.457
 2698TIP3   OH2 8036   2.713   1.724   2.841
 2698TIP3    H1 8037   2.776   1.756   2.905
 2698TIP3    H2 8038   2.747   1.639   2.814
 2699TIP3   OH2 8039   4.759   0.911   5.930
 2699TIP3    H1 8040   4.706   0.991   5.931
 2699TIP3    H2 8041   4.812   0.917   6.009
 2700TIP3   OH2 8042   4.900   7.238   6.072
 2700TIP3    H1 8043   4.970   7.250   6.136
 2700TIP3    H2 8044   4.944   7.232   5.988
 2701TIP3   OH2 8045   5.824   1.901   2.811
 2701TIP3    H1 8046   5.748   1.943   2.852
 2701TIP3    H2 8047   5.787   1.848   2.741
 2702TIP3   OH2 8048   7.923   5.236   2.813
 2702TIP3    H1 8049   7.911   5.276   2.727
 2702TIP3    H2 8050   7.835   5.233   2.851
 2703TIP3   OH2 8051   5.434   0.170   1.985
 2703TIP3    H1 8052   5.408   0.079   1.997
 2703TIP3    H2 8053   5.461   0.198   2.073
 2704TIP3   OH2 8054   3.894   3.254   4.602
 2704TIP3    H1 8055   3.951   3.310   4.551
 2704TIP3    H2 8056   3.820   3.310   4.625
 2705TIP3   OH2 8057   7.673   2.885   5.401
 2705TIP3    H1 8058   7.625   2.823   5.346
 2705TIP3    H2 8059   7.735   2.831   5.449
 2706TIP3   OH2 8060   7.719   0.565   2.873
 2706TIP3    H1 8061   7.783   0.633   2.850
 2706TIP3    H2 8062   7.668   0.552   2.793
 2707TIP3   OH2 8063   8.025   6.669   0.131
 2707TIP3    H1 8064   8.046   6.722   0.209
 2707TIP3    H2 8065   8.063   6.717   0.058
 2708TIP3   OH2 8066   4.330   1.101   3.864
 2708TIP3    H1 8067   4.327   1.015   3.822
 2708TIP3    H2 8068   4.315   1.083   3.957
 2709TIP3   OH2 8069   6.174   4.316   6.337
 2709TIP3    H1 8070   6.202   4.289   6.250
 2709TIP3    H2 8071   6.235   4.385   6.362
 2710TIP3   OH2 8072   5.475   2.987   0.135
 2710TIP3    H1 8073   5.539   2.924   0.100
 2710TIP3    H2 8074   5.424   2.936   0.197
 2711TIP3   OH2 8075   5.549   0.187   0.887
 2711TIP3    H1 8076   5.518   0.159   0.801
 2711TIP3    H2 8077   5.640   0.157   0.890
 2712TIP3   OH2 8078   5.269   6.935   4.093
 2712TIP3    H1 8079   5.334   6.865   4.099
 2712TIP3    H2 8080   5.233   6.927   4.005
 2713TIP3   OH2 8081   5.522   0.750   3.216
 2713TIP3    H1 8082   5.484   0.834   3.242
 2713TIP3    H2 8083   5.447   0.697   3.187
 2714TIP3   OH2 8084   1.008   6.706   1.083
 2714TIP3    H1 8085   0.978   6.764   1.012
 2714TIP3    H2 8086   1.004   6.761   1.161
 2715TIP3   OH2 8087   4.259   6.251   3.855
 2715TIP3    H1 8088   4.345   6.254   3.814
 2715TIP3    H2 8089   4.224   6.340   3.845
 2716TIP3   OH2 8090   7.359   0.913   2.891
 2716TIP3    H1 8091   7.429   0.948   2.946
 2716TIP3    H2 8092   7.337   0.986   2.832
 2717TIP3   OH2 8093   8.094   7.781   6.311
 2717TIP3    H1 8094   8.018   7.723   6.318
 2717TIP3    H2 8095   8.161   7.739   6.365
 2718TIP3   OH2 8096   1.169   5.555   6.251
 2718TIP3    H1 8097   1.087   5.512   6.227
 2718TIP3    H2 8098   1.183   5.532   6.343
 2719TIP3   OH2 8099   4.058   4.599   4.996
 2719TIP3    H1 8100   4.051   4.643   4.912
 2719TIP3    H2 8101   3.985   4.536   4.996
 2720TIP3   OH2 8102   7.295   5.337   3.171
 2720TIP3    H1 8103   7.245   5.275   3.119
 2720TIP3    H2 8104   7.384   5.332   3.136
 2721TIP3   OH2 8105   0.181   0.087   0.590
 2721TIP3    H1 8106   0.199   0.027   0.662
 2721TIP3    H2 8107   0.118   0.041   0.535
 2722TIP3   OH2 8108   5.358   0.582   5.246
 2722TIP3    H1 8109   5.416   0.580   5.170
 2722TIP3    H2 8110   5.381   0.504   5.296
 2723TIP3   OH2 8111   6.860   1.421   6.568
 2723TIP3    H1 8112   6.809   1.492   6.608
 2723TIP3    H2 8113   6.808   1.342   6.585
 2724TIP3   OH2 8114   7.872   0.495   3.303
 2724TIP3    H1 8115   7.958   0.453   3.291
 2724TIP3    H2 8116   7.881   0.547   3.382
 2725TIP3   OH2 8117   3.283   6.534   1.872
 2725TIP3    H1 8118   3.343   6.459   1.874
 2725TIP3    H2 8119   3.330   6.603   1.919
 2726TIP3   OH2 8120   7.911   0.399   3.931
 2726TIP3    H1 8121   7.928   0.305   3.926
 2726TIP3    H2 8122   7.932   0.422   4.021
 2727TIP3   OH2 8123   4.579   0.628   6.311
 2727TIP3    H1 8124   4.562   0.628   6.217
 2727TIP3    H2 8125   4.674   0.614   6.318
 2728TIP3   OH2 8126   0.499   0.769   4.052
 2728TIP3    H1 8127   0.493   0.850   4.103
 2728TIP3    H2 8128   0.415   0.725   4.067
 2729TIP3   OH2 8129   3.948   3.935   3.869
 2729TIP3    H1 8130   3.905   3.878   3.805
 2729TIP3    H2 8131   3.894   4.013   3.873
 2730TIP3   OH2 8132   3.228   4.248   6.234
 2730TIP3    H1 8133   3.211   4.330   6.280
 2730TIP3    H2 8134   3.275   4.273   6.155
 2731TIP3   OH2 8135   6.918   0.016   3.495
 2731TIP3    H1 8136   6.896  -0.039   3.420
 2731TIP3    H2 8137   6.909   0.106   3.462
 2732TIP3   OH2 8138   1.007   2.987   2.604
 2732TIP3    H1 8139   1.090   3.031   2.619
 2732TIP3    H2 8140   0.995   2.930   2.680
 2733TIP3   OH2 8141   2.682   3.386   1.898
 2733TIP3    H1 8142   2.640   3.445   1.836
 2733TIP3    H2 8143   2.643   3.408   1.983
 2734TIP3   OH2 8144   7.189   6.723   2.606
 2734TIP3    H1 8145   7.217   6.808   2.642
 2734TIP3    H2 8146   7.159   6.744   2.517
 2735TIP3   OH2 8147   3.954   1.835   6.097
 2735TIP3    H1 8148   3.977   1.924   6.122
 2735TIP3    H2 8149   3.926   1.842   6.006
 2736TIP3   OH2 8150   3.947   2.902   6.378
 2736TIP3    H1 8151   3.871   2.863   6.423
 2736TIP3    H2 8152   4.022   2.858   6.416
 2737TIP3   OH2 8153   8.264   2.203   3.405
 2737TIP3    H1 8154   8.245   2.148   3.481
 2737TIP3    H2 8155   8.220   2.160   3.332
 2738TIP3   OH2 8156   4.947   4.993   3.110
 2738TIP3    H1 8157   5.010   5.055   3.075
 2738TIP3    H2 8158   4.965   4.911   3.063
 2739TIP3   OH2 8159   2.545   4.802   4.370
 2739TIP3    H1 8160   2.631   4.813   4.409
 2739TIP3    H2 8161   2.563   4.795   4.276
 2740TIP3   OH2 8162   4.831   2.606   4.958
 2740TIP3    H1 8163   4.867   2.621   4.870
 2740TIP3    H2 8164   4.827   2.693   4.998
 2741TIP3   OH2 8165   0.591   5.839   2.797
 2741TIP3    H1 8166   0.633   5.862   2.715
 2741TIP3    H2 8167   0.521   5.778   2.772
 2742TIP3   OH2 8168   8.156   6.321   2.426
 2742TIP3    H1 8169   8.139   6.362   2.511
 2742TIP3    H2 8170   8.130   6.387   2.362
 2743TIP3   OH2 8171   6.870   4.149   3.943
 2743TIP3    H1 8172   6.944   4.165   3.885
 2743TIP3    H2 8173   6.807   4.219   3.924
 2744TIP3   OH2 8174   5.854   3.157   6.266
 2744TIP3    H1 8175   5.905   3.159   6.347
 2744TIP3    H2 8176   5.779   3.214   6.284
 2745TIP3   OH2 8177   4.596   6.714   1.970
 2745TIP3    H1 8178   4.503   6.718   1.993
 2745TIP3    H2 8179   4.611   6.794   1.919
 2746TIP3   OH2 8180   1.176   3.078   1.705
 2746TIP3    H1 8181   1.179   3.172   1.691
 2746TIP3    H2 8182   1.159   3.068   1.799
 2747TIP3   OH2 8183   7.108   5.884   0.882
 2747TIP3    H1 8184   7.020   5.874   0.845
 2747TIP3    H2 8185   7.164   5.831   0.826
 2748TIP3   OH2 8186   6.721   5.688   0.263
 2748TIP3    H1 8187   6.639   5.659   0.302
 2748TIP3    H2 8188   6.720   5.651   0.175
 2749TIP3   OH2 8189   2.710   4.198   3.131
 2749TIP3    H1 8190   2.649   4.124   3.122
 2749TIP3    H2 8191   2.656   4.275   3.114
 2750TIP3   OH2 8192   7.386   2.980   3.257
 2750TIP3    H1 8193   7.295   2.959   3.277
 2750TIP3    H2 8194   7.399   2.949   3.167
 2751TIP3   OH2 8195   6.800   0.833   4.332
 2751TIP3    H1 8196   6.727   0.878   4.289
 2751TIP3    H2 8197   6.821   0.761   4.273
 2752TIP3   OH2 8198   3.039   0.492   0.725
 2752TIP3    H1 8199   2.964   0.546   0.699
 2752TIP3    H2 8200   3.065   0.526   0.810
 2753TIP3   OH2 8201   4.908   7.343   5.422
 2753TIP3    H1 8202   4.933   7.310   5.335
 2753TIP3    H2 8203   4.817   7.315   5.433
 2754TIP3   OH2 8204   7.459   6.338   3.350
 2754TIP3    H1 8205   7.479   6.252   3.387
 2754TIP3    H2 8206   7.370   6.330   3.316
 2755TIP3   OH2 8207   0.047   4.962   0.712
 2755TIP3    H1 8208   0.005   4.883   0.745
 2755TIP3    H2 8209  -0.015   4.996   0.647
 2756TIP3   OH2 8210   3.281   4.910   3.124
 2756TIP3    H1 8211   3.359   4.959   3.149
 2756TIP3    H2 8212   3.212   4.943   3.181
 2757TIP3   OH2 8213   8.269   0.902   4.493
 2757TIP3    H1 8214   8.306   0.848   4.563
 2757TIP3    H2 8215   8.176   0.880   4.492
 2758TIP3   OH2 8216   4.958   5.632   5.318
 2758TIP3    H1 8217   4.896   5.580   5.369
 2758TIP3    H2 8218   5.008   5.681   5.383
 2759TIP3   OH2 8219   0.928   1.975   2.727
 2759TIP3    H1 8220   0.867   1.910   2.694
 2759TIP3    H2 8221   0.955   2.025   2.650
 2760TIP3   OH2 8222   5.513   0.204   1.529
 2760TIP3    H1 8223   5.574   0.130   1.527
 2760TIP3    H2 8224   5.532   0.248   1.612
 2761TIP3   OH2 8225   5.192   4.625   3.125
 2761TIP3    H1 8226   5.105   4.659   3.105
 2761TIP3    H2 8227   5.231   4.691   3.183
 2762TIP3   OH2 8228   4.195   1.576   3.951
 2762TIP3    H1 8229   4.282   1.608   3.976
 2762TIP3    H2 8230   4.173   1.512   4.019
 2763TIP3   OH2 8231   6.708   6.505   3.032
 2763TIP3    H1 8232   6.773   6.504   2.961
 2763TIP3    H2 8233   6.645   6.571   3.005
 2764TIP3   OH2 8234   1.588   4.063   2.388
 2764TIP3    H1 8235   1.680   4.048   2.363
 2764TIP3    H2 8236   1.577   4.158   2.381
 2765TIP3   OH2 8237   1.015   1.233   3.353
 2765TIP3    H1 8238   0.978   1.162   3.406
 2765TIP3    H2 8239   1.082   1.191   3.300
 2766TIP3   OH2 8240   8.011   5.180   5.828
 2766TIP3    H1 8241   8.047   5.122   5.761
 2766TIP3    H2 8242   7.952   5.239   5.781
 2767TIP3   OH2 8243   5.025   1.685   1.038
 2767TIP3    H1 8244   5.052   1.607   0.990
 2767TIP3    H2 8245   5.047   1.665   1.129
 2768TIP3   OH2 8246   5.436   7.375   3.047
 2768TIP3    H1 8247   5.439   7.466   3.019
 2768TIP3    H2 8248   5.394   7.328   2.975
 2769TIP3   OH2 8249   3.433   2.008   0.140
 2769TIP3    H1 8250   3.382   1.931   0.164
 2769TIP3    H2 8251   3.370   2.068   0.100
 2770TIP3   OH2 8252   2.131   6.994   6.182
 2770TIP3    H1 8253   2.125   7.089   6.173
 2770TIP3    H2 8254   2.042   6.963   6.163
 2771TIP3   OH2 8255   8.119   4.228   5.723
 2771TIP3    H1 8256   8.051   4.296   5.719
 2771TIP3    H2 8257   8.151   4.222   5.633
 2772TIP3   OH2 8258   0.416   3.720   5.237
 2772TIP3    H1 8259   0.364   3.674   5.303
 2772TIP3    H2 8260   0.400   3.813   5.254
 2773TIP3   OH2 8261   7.547   4.416   2.180
 2773TIP3    H1 8262   7.519   4.326   2.197
 2773TIP3    H2 8263   7.527   4.463   2.261
 2774TIP3   OH2 8264   5.928   4.704   5.273
 2774TIP3    H1 8265   6.020   4.724   5.285
 2774TIP3    H2 8266   5.882   4.761   5.335
 2775TIP3   OH2 8267   3.709   1.734   0.755
 2775TIP3    H1 8268   3.777   1.792   0.789
 2775TIP3    H2 8269   3.695   1.670   0.826
 2776TIP3   OH2 8270   1.499   7.644   5.873
 2776TIP3    H1 8271   1.540   7.648   5.959
 2776TIP3    H2 8272   1.573   7.636   5.812
 2777TIP3   OH2 8273   0.572   0.668   3.286
 2777TIP3    H1 8274   0.560   0.652   3.380
 2777TIP3    H2 8275   0.496   0.721   3.261
 2778TIP3   OH2 8276   4.723   3.539   1.687
 2778TIP3    H1 8277   4.701   3.465   1.744
 2778TIP3    H2 8278   4.638   3.574   1.660
 2779TIP3   OH2 8279   8.027   0.024   2.068
 2779TIP3    H1 8280   7.951   0.077   2.093
 2779TIP3    H2 8281   8.002  -0.015   1.984
 2780TIP3   OH2 8282   4.340   3.828   0.478
 2780TIP3    H1 8283   4.267   3.770   0.456
 2780TIP3    H2 8284   4.298   3.912   0.499
 2781TIP3   OH2 8285   8.019   2.481   3.468
 2781TIP3    H1 8286   8.043   2.433   3.547
 2781TIP3    H2 8287   7.982   2.415   3.409
 2782TIP3   OH2 8288   0.418   7.412   4.061
 2782TIP3    H1 8289   0.464   7.344   4.011
 2782TIP3    H2 8290   0.484   7.480   4.073
 2783TIP3   OH2 8291   1.344   4.285   2.504
 2783TIP3    H1 8292   1.437   4.292   2.485
 2783TIP3    H2 8293   1.300   4.326   2.429
 2784TIP3   OH2 8294   3.577   1.515   5.607
 2784TIP3    H1 8295   3.597   1.433   5.652
 2784TIP3    H2 8296   3.486   1.533   5.628
 2785TIP3   OH2 8297   6.100   6.269   6.317
 2785TIP3    H1 8298   6.098   6.244   6.409
 2785TIP3    H2 8299   6.165   6.211   6.278
 2786TIP3   OH2 8300   3.421   6.027   0.054
 2786TIP3    H1 8301   3.353   6.015  -0.012
 2786TIP3    H2 8302   3.373   6.050   0.134
 2787TIP3   OH2 8303   3.597   3.612   4.960
 2787TIP3    H1 8304   3.538   3.573   5.023
 2787TIP3    H2 8305   3.540   3.641   4.888
 2788TIP3   OH2 8306   7.194   1.859   4.356
 2788TIP3    H1 8307   7.205   1.922   4.285
 2788TIP3    H2 8308   7.270   1.871   4.412
 2789TIP3   OH2 8309   0.674   3.167   1.070
 2789TIP3    H1 8310   0.723   3.212   1.139
 2789TIP3    H2 8311   0.694   3.216   0.991
 2790TIP3   OH2 8312   0.631   2.329   2.752
 2790TIP3    H1 8313   0.727   2.327   2.749
 2790TIP3    H2 8314   0.603   2.277   2.677
 2791TIP3   OH2 8315   4.203   5.769   6.131
 2791TIP3    H1 8316   4.281   5.757   6.076
 2791TIP3    H2 8317   4.135   5.718   6.087
 2792TIP3   OH2 8318   7.624   7.652   5.453
 2792TIP3    H1 8319   7.578   7.732   5.428
 2792TIP3    H2 8320   7.698   7.683   5.506
 2793TIP3   OH2 8321   5.621   0.668   3.486
 2793TIP3    H1 8322   5.550   0.621   3.530
 2793TIP3    H2 8323   5.577   0.724   3.422
 2794TIP3   OH2 8324   0.087   4.176   6.598
 2794TIP3    H1 8325   0.108   4.218   6.682
 2794TIP3    H2 8326   0.063   4.086   6.622
 2795TIP3   OH2 8327   7.669   3.527   4.696
 2795TIP3    H1 8328   7.630   3.601   4.742
 2795TIP3    H2 8329   7.741   3.499   4.752
 2796TIP3   OH2 8330   5.508   1.480   3.888
 2796TIP3    H1 8331   5.431   1.532   3.910
 2796TIP3    H2 8332   5.474   1.390   3.881
 2797TIP3   OH2 8333   5.919   3.483   3.286
 2797TIP3    H1 8334   5.983   3.554   3.288
 2797TIP3    H2 8335   5.967   3.408   3.252
 2798TIP3   OH2 8336   7.579   5.725   5.032
 2798TIP3    H1 8337   7.635   5.685   4.965
 2798TIP3    H2 8338   7.593   5.819   5.020
 2799TIP3   OH2 8339   5.308   4.034   0.471
 2799TIP3    H1 8340   5.307   4.094   0.545
 2799TIP3    H2 8341   5.367   3.964   0.497
 2800TIP3   OH2 8342   4.705   3.323   2.526
 2800TIP3    H1 8343   4.780   3.335   2.584
 2800TIP3    H2 8344   4.634   3.372   2.568
 2801TIP3   OH2 8345   5.598   5.981   1.209
 2801TIP3    H1 8346   5.558   5.933   1.137
 2801TIP3    H2 8347   5.668   5.924   1.240
 2802TIP3   OH2 8348   6.495   0.071   2.449
 2802TIP3    H1 8349   6.472  -0.010   2.493
 2802TIP3    H2 8350   6.416   0.126   2.456
 2803TIP3   OH2 8351   7.922   7.337   1.459
 2803TIP3    H1 8352   7.994   7.339   1.522
 2803TIP3    H2 8353   7.896   7.429   1.449
 2804TIP3   OH2 8354   5.018   5.235   2.021
 2804TIP3    H1 8355   4.958   5.248   1.948
 2804TIP3    H2 8356   5.043   5.324   2.047
 2805TIP3   OH2 8357   2.333   2.054   4.427
 2805TIP3    H1 8358   2.276   2.125   4.457
 2805TIP3    H2 8359   2.324   1.986   4.494
 2806TIP3   OH2 8360   3.764   1.843   6.505
 2806TIP3    H1 8361   3.669   1.834   6.495
 2806TIP3    H2 8362   3.800   1.772   6.452
 2807TIP3   OH2 8363   3.373   0.583   1.207
 2807TIP3    H1 8364   3.341   0.545   1.289
 2807TIP3    H2 8365   3.460   0.616   1.228
 2808TIP3   OH2 8366   7.674   6.321   4.521
 2808TIP3    H1 8367   7.608   6.296   4.456
 2808TIP3    H2 8368   7.731   6.244   4.528
 2809TIP3   OH2 8369   0.634   4.672   6.084
 2809TIP3    H1 8370   0.720   4.629   6.089
 2809TIP3    H2 8371   0.655   4.766   6.081
 2810TIP3   OH2 8372   3.907   2.956   3.756
 2810TIP3    H1 8373   3.993   2.920   3.735
 2810TIP3    H2 8374   3.859   2.882   3.794
 2811TIP3   OH2 8375   1.786   3.123   5.591
 2811TIP3    H1 8376   1.696   3.092   5.587
 2811TIP3    H2 8377   1.839   3.045   5.576
 2812TIP3   OH2 8378   7.276  -0.024   6.724
 2812TIP3    H1 8379   7.206   0.014   6.669
 2812TIP3    H2 8380   7.312   0.051   6.771
 2813TIP3   OH2 8381   1.659   3.032   0.605
 2813TIP3    H1 8382   1.738   2.984   0.579
 2813TIP3    H2 8383   1.591   2.965   0.610
 2814TIP3   OH2 8384   5.374   7.323   2.033
 2814TIP3    H1 8385   5.440   7.364   1.977
 2814TIP3    H2 8386   5.379   7.373   2.115
 2815TIP3   OH2 8387   0.810   5.790   0.216
 2815TIP3    H1 8388   0.785   5.720   0.276
 2815TIP3    H2 8389   0.754   5.864   0.241
 2816TIP3   OH2 8390   4.184   4.167   4.930
 2816TIP3    H1 8391   4.178   4.149   5.024
 2816TIP3    H2 8392   4.229   4.252   4.925
 2817TIP3   OH2 8393   6.729   1.728   5.695
 2817TIP3    H1 8394   6.703   1.819   5.684
 2817TIP3    H2 8395   6.758   1.700   5.609
 2818TIP3   OH2 8396   1.353   5.175   6.555
 2818TIP3    H1 8397   1.284   5.109   6.566
 2818TIP3    H2 8398   1.434   5.125   6.552
 2819TIP3   OH2 8399   7.092   5.185   2.618
 2819TIP3    H1 8400   7.056   5.195   2.530
 2819TIP3    H2 8401   7.119   5.274   2.643
 2820TIP3   OH2 8402   7.615   1.151   3.918
 2820TIP3    H1 8403   7.614   1.057   3.937
 2820TIP3    H2 8404   7.523   1.177   3.918
 2821TIP3   OH2 8405   4.871   1.462   1.488
 2821TIP3    H1 8406   4.942   1.397   1.488
 2821TIP3    H2 8407   4.794   1.412   1.461
 2822TIP3   OH2 8408   1.694   5.883   1.394
 2822TIP3    H1 8409   1.777   5.838   1.381
 2822TIP3    H2 8410   1.655   5.841   1.471
 2823TIP3   OH2 8411   5.410   3.501   3.120
 2823TIP3    H1 8412   5.437   3.558   3.193
 2823TIP3    H2 8413   5.390   3.417   3.162
 2824TIP3   OH2 8414   5.501   5.608   4.629
 2824TIP3    H1 8415   5.554   5.537   4.665
 2824TIP3    H2 8416   5.563   5.662   4.579
 2825TIP3   OH2 8417   3.638   6.702   1.608
 2825TIP3    H1 8418   3.686   6.776   1.643
 2825TIP3    H2 8419   3.635   6.638   1.680
 2826TIP3   OH2 8420   6.283   5.740   0.467
 2826TIP3    H1 8421   6.296   5.720   0.560
 2826TIP3    H2 8422   6.267   5.834   0.465
 2827TIP3   OH2 8423   6.093   5.453   3.840
 2827TIP3    H1 8424   6.181   5.483   3.863
 2827TIP3    H2 8425   6.096   5.437   3.746
 2828TIP3   OH2 8426   7.341   3.315   0.461
 2828TIP3    H1 8427   7.413   3.378   0.465
 2828TIP3    H2 8428   7.359   3.263   0.382
 2829TIP3   OH2 8429   6.988   5.492   6.383
 2829TIP3    H1 8430   6.914   5.513   6.326
 2829TIP3    H2 8431   7.038   5.574   6.389
 2830TIP3   OH2 8432   7.056   1.923   5.718
 2830TIP3    H1 8433   7.059   1.839   5.763
 2830TIP3    H2 8434   7.030   1.986   5.785
 2831TIP3   OH2 8435   5.813   2.861   0.655
 2831TIP3    H1 8436   5.802   2.935   0.597
 2831TIP3    H2 8437   5.905   2.866   0.683
 2832TIP3   OH2 8438   3.702   5.389   2.995
 2832TIP3    H1 8439   3.792   5.414   3.016
 2832TIP3    H2 8440   3.711   5.315   2.936
 2833TIP3   OH2 8441   7.900   5.406   6.347
 2833TIP3    H1 8442   7.956   5.484   6.351
 2833TIP3    H2 8443   7.853   5.407   6.431
 2834TIP3   OH2 8444   3.496   6.806   1.407
 2834TIP3    H1 8445   3.535   6.772   1.488
 2834TIP3    H2 8446   3.419   6.751   1.393
 2835TIP3   OH2 8447   4.559   0.120   4.512
 2835TIP3    H1 8448   4.629   0.182   4.529
 2835TIP3    H2 8449   4.486   0.151   4.565
 2836TIP3   OH2 8450   2.325   4.308   2.057
 2836TIP3    H1 8451   2.402   4.341   2.009
 2836TIP3    H2 8452   2.347   4.321   2.149
 2837TIP3   OH2 8453   4.569   5.618   4.945
 2837TIP3    H1 8454   4.646   5.673   4.933
 2837TIP3    H2 8455   4.532   5.610   4.857
 2838TIP3   OH2 8456   7.977   6.560   4.518
 2838TIP3    H1 8457   8.013   6.471   4.521
 2838TIP3    H2 8458   7.911   6.557   4.448
 2839TIP3   OH2 8459   0.323   3.238   3.058
 2839TIP3    H1 8460   0.247   3.292   3.038
 2839TIP3    H2 8461   0.358   3.212   2.973
 2840TIP3   OH2 8462   4.940   0.375   4.428
 2840TIP3    H1 8463   4.936   0.343   4.338
 2840TIP3    H2 8464   4.910   0.466   4.423
 2841TIP3   OH2 8465   5.303   7.461   0.161
 2841TIP3    H1 8466   5.367   7.525   0.132
 2841TIP3    H2 8467   5.222   7.511   0.172
 2842TIP3   OH2 8468   0.337   6.715   6.075
 2842TIP3    H1 8469   0.336   6.804   6.110
 2842TIP3    H2 8470   0.429   6.699   6.054
 2843TIP3   OH2 8471   5.838   2.099   4.923
 2843TIP3    H1 8472   5.769   2.068   4.864
 2843TIP3    H2 8473   5.803   2.083   5.011
 2844TIP3   OH2 8474   5.183   4.101   6.745
 2844TIP3    H1 8475   5.104   4.131   6.699
 2844TIP3    H2 8476   5.231   4.181   6.765
 2845TIP3   OH2 8477   5.365   4.631   4.269
 2845TIP3    H1 8478   5.446   4.681   4.269
 2845TIP3    H2 8479   5.391   4.543   4.241
 2846TIP3   OH2 8480   6.840   5.532   5.190
 2846TIP3    H1 8481   6.764   5.478   5.209
 2846TIP3    H2 8482   6.804   5.610   5.147
 2847TIP3   OH2 8483   3.771   7.446   0.565
 2847TIP3    H1 8484   3.708   7.386   0.606
 2847TIP3    H2 8485   3.718   7.513   0.523
 2848TIP3   OH2 8486   6.695   0.784   1.130
 2848TIP3    H1 8487   6.672   0.757   1.041
 2848TIP3    H2 8488   6.790   0.784   1.131
 2849TIP3   OH2 8489   5.615   3.983   0.514
 2849TIP3    H1 8490   5.625   3.934   0.595
 2849TIP3    H2 8491   5.620   3.916   0.445
 2850TIP3   OH2 8492   0.092   2.207   4.081
 2850TIP3    H1 8493   0.010   2.187   4.125
 2850TIP3    H2 8494   0.129   2.122   4.058
 2851TIP3   OH2 8495   7.084   2.243   0.035
 2851TIP3    H1 8496   6.988   2.236   0.036
 2851TIP3    H2 8497   7.103   2.305  -0.035
 2852TIP3   OH2 8498   8.011   4.679   0.165
 2852TIP3    H1 8499   7.927   4.674   0.119
 2852TIP3    H2 8500   8.008   4.609   0.230
 2853TIP3   OH2 8501   5.569   4.331   4.178
 2853TIP3    H1 8502   5.490   4.350   4.228
 2853TIP3    H2 8503   5.612   4.262   4.228
 2854TIP3   OH2 8504   5.060   2.066   6.082
 2854TIP3    H1 8505   5.129   2.107   6.030
 2854TIP3    H2 8506   5.032   1.991   6.029
 2855TIP3   OH2 8507   5.446   1.050   6.469
 2855TIP3    H1 8508   5.434   1.078   6.379
 2855TIP3    H2 8509   5.380   1.099   6.518
 2856TIP3   OH2 8510   3.137   3.560   6.578
 2856TIP3    H1 8511   3.125   3.655   6.576
 2856TIP3    H2 8512   3.162   3.536   6.489
 2857TIP3   OH2 8513   1.016   7.672   0.193
 2857TIP3    H1 8514   1.019   7.686   0.288
 2857TIP3    H2 8515   1.107   7.681   0.166
 2858TIP3   OH2 8516   3.120   0.477   1.809
 2858TIP3    H1 8517   3.032   0.480   1.845
 2858TIP3    H2 8518   3.109   0.435   1.724
 2859TIP3   OH2 8519   3.434   2.424   4.290
 2859TIP3    H1 8520   3.421   2.507   4.336
 2859TIP3    H2 8521   3.528   2.422   4.269
 2860TIP3   OH2 8522   4.652   2.090   2.032
 2860TIP3    H1 8523   4.667   2.105   1.939
 2860TIP3    H2 8524   4.556   2.085   2.039
 2861TIP3   OH2 8525   5.756   3.854   0.011
 2861TIP3    H1 8526   5.806   3.917  -0.040
 2861TIP3    H2 8527   5.725   3.903   0.088
 2862TIP3   OH2 8528   0.441   6.627   1.119
 2862TIP3    H1 8529   0.510   6.684   1.085
 2862TIP3    H2 8530   0.387   6.606   1.042
 2863TIP3   OH2 8531   7.151   6.427   1.983
 2863TIP3    H1 8532   7.166   6.343   1.939
 2863TIP3    H2 8533   7.086   6.472   1.928
 2864TIP3   OH2 8534   2.010   3.898   4.527
 2864TIP3    H1 8535   2.014   3.864   4.616
 2864TIP3    H2 8536   1.964   3.982   4.535
 2865TIP3   OH2 8537   0.148   1.997   5.482
 2865TIP3    H1 8538   0.185   1.929   5.425
 2865TIP3    H2 8539   0.136   1.954   5.566
 2866TIP3   OH2 8540   1.802   0.164   5.181
 2866TIP3    H1 8541   1.754   0.089   5.146
 2866TIP3    H2 8542   1.872   0.125   5.233
 2867TIP3   OH2 8543   1.765   5.241   4.674
 2867TIP3    H1 8544   1.789   5.149   4.687
 2867TIP3    H2 8545   1.775   5.256   4.580
 2868TIP3   OH2 8546   5.201   6.350   1.447
 2868TIP3    H1 8547   5.182   6.258   1.467
 2868TIP3    H2 8548   5.294   6.359   1.465
 2869TIP3   OH2 8549   6.262   5.084   6.225
 2869TIP3    H1 8550   6.290   5.170   6.194
 2869TIP3    H2 8551   6.335   5.026   6.206
 2870TIP3   OH2 8552   8.224   4.941   3.702
 2870TIP3    H1 8553   8.242   4.859   3.748
 2870TIP3    H2 8554   8.198   5.002   3.771
 2871TIP3   OH2 8555   6.539   6.261   6.695
 2871TIP3    H1 8556   6.632   6.248   6.682
 2871TIP3    H2 8557   6.515   6.332   6.636
 2872TIP3   OH2 8558   3.027   6.951   2.380
 2872TIP3    H1 8559   3.043   7.046   2.377
 2872TIP3    H2 8560   3.111   6.914   2.407
 2873TIP3   OH2 8561   1.416   2.281   4.573
 2873TIP3    H1 8562   1.432   2.221   4.646
 2873TIP3    H2 8563   1.467   2.245   4.501
 2874TIP3   OH2 8564   6.530   1.484   1.532
 2874TIP3    H1 8565   6.588   1.499   1.606
 2874TIP3    H2 8566   6.588   1.483   1.456
 2875TIP3   OH2 8567   6.048   3.039   3.192
 2875TIP3    H1 8568   6.070   2.963   3.139
 2875TIP3    H2 8569   6.026   3.003   3.278
 2876TIP3   OH2 8570   8.074   6.073   3.326
 2876TIP3    H1 8571   8.084   6.021   3.247
 2876TIP3    H2 8572   7.979   6.077   3.340
 2877TIP3   OH2 8573   1.803   7.083   3.455
 2877TIP3    H1 8574   1.728   7.034   3.422
 2877TIP3    H2 8575   1.826   7.038   3.537
 2878TIP3   OH2 8576   7.540   7.823   1.993
 2878TIP3    H1 8577   7.620   7.780   1.963
 2878TIP3    H2 8578   7.547   7.824   2.088
 2879TIP3   OH2 8579   6.989   3.462   1.648
 2879TIP3    H1 8580   6.986   3.413   1.566
 2879TIP3    H2 8581   6.902   3.447   1.687
 2880TIP3   OH2 8582   0.411   0.733   0.696
 2880TIP3    H1 8583   0.458   0.691   0.768
 2880TIP3    H2 8584   0.335   0.677   0.682
 2881TIP3   OH2 8585   5.851   2.174   2.712
 2881TIP3    H1 8586   5.880   2.083   2.719
 2881TIP3    H2 8587   5.804   2.179   2.629
 2882TIP3   OH2 8588   2.204   5.475   0.326
 2882TIP3    H1 8589   2.240   5.448   0.241
 2882TIP3    H2 8590   2.111   5.450   0.321
 2883TIP3   OH2 8591   1.999   3.213   5.740
 2883TIP3    H1 8592   1.922   3.212   5.682
 2883TIP3    H2 8593   2.032   3.124   5.738
 2884TIP3   OH2 8594   4.793   2.708   0.563
 2884TIP3    H1 8595   4.787   2.773   0.492
 2884TIP3    H2 8596   4.797   2.761   0.643
 2885TIP3   OH2 8597   5.066   7.231   1.449
 2885TIP3    H1 8598   4.975   7.207   1.433
 2885TIP3    H2 8599   5.117   7.168   1.397
 2886TIP3   OH2 8600   3.003   7.504   4.957
 2886TIP3    H1 8601   3.036   7.576   4.902
 2886TIP3    H2 8602   3.075   7.440   4.957
 2887TIP3   OH2 8603   1.302   2.804   1.846
 2887TIP3    H1 8604   1.234   2.859   1.806
 2887TIP3    H2 8605   1.302   2.724   1.793
 2888TIP3   OH2 8606   0.076   1.836   5.706
 2888TIP3    H1 8607   0.075   1.748   5.667
 2888TIP3    H2 8608   0.158   1.839   5.755
 2889TIP3   OH2 8609   3.296   0.474   0.501
 2889TIP3    H1 8610   3.207   0.449   0.475
 2889TIP3    H2 8611   3.287   0.565   0.532
 2890TIP3   OH2 8612   2.492   6.674   1.720
 2890TIP3    H1 8613   2.577   6.711   1.695
 2890TIP3    H2 8614   2.428   6.738   1.688
 2891TIP3   OH2 8615   3.019   5.160   5.918
 2891TIP3    H1 8616   3.071   5.203   5.849
 2891TIP3    H2 8617   2.929   5.169   5.888
 2892TIP3   OH2 8618   1.636   7.737   3.375
 2892TIP3    H1 8619   1.600   7.723   3.287
 2892TIP3    H2 8620   1.679   7.654   3.396
 2893TIP3   OH2 8621   4.574   4.063   6.740
 2893TIP3    H1 8622   4.519   4.131   6.778
 2893TIP3    H2 8623   4.599   4.097   6.654
 2894TIP3   OH2 8624   3.315   5.685   1.412
 2894TIP3    H1 8625   3.360   5.769   1.413
 2894TIP3    H2 8626   3.279   5.678   1.324
 2895TIP3   OH2 8627   7.548   1.009   3.119
 2895TIP3    H1 8628   7.541   0.925   3.164
 2895TIP3    H2 8629   7.634   1.043   3.144
 2896TIP3   OH2 8630   0.273   3.376   4.714
 2896TIP3    H1 8631   0.215   3.307   4.679
 2896TIP3    H2 8632   0.355   3.331   4.733
 2897TIP3   OH2 8633   2.736   4.534   3.099
 2897TIP3    H1 8634   2.671   4.601   3.123
 2897TIP3    H2 8635   2.701   4.494   3.020
 2898TIP3   OH2 8636   6.758   6.758   3.790
 2898TIP3    H1 8637   6.755   6.707   3.871
 2898TIP3    H2 8638   6.725   6.698   3.723
 2899TIP3   OH2 8639   1.193   3.293   2.362
 2899TIP3    H1 8640   1.214   3.219   2.419
 2899TIP3    H2 8641   1.165   3.362   2.422
 2900TIP3   OH2 8642   1.906   6.880   5.087
 2900TIP3    H1 8643   1.983   6.833   5.055
 2900TIP3    H2 8644   1.913   6.967   5.050
 2901TIP3   OH2 8645   7.788   1.043   3.444
 2901TIP3    H1 8646   7.778   1.095   3.524
 2901TIP3    H2 8647   7.822   0.959   3.474
 2902TIP3   OH2 8648   5.621   3.265   3.595
 2902TIP3    H1 8649   5.667   3.228   3.520
 2902TIP3    H2 8650   5.681   3.253   3.668
 2903TIP3   OH2 8651   6.243   5.847   3.104
 2903TIP3    H1 8652   6.323   5.870   3.058
 2903TIP3    H2 8653   6.197   5.788   3.044
 2904TIP3   OH2 8654   3.029   3.141   6.496
 2904TIP3    H1 8655   3.037   3.175   6.586
 2904TIP3    H2 8656   2.993   3.053   6.507
 2905TIP3   OH2 8657   1.760   7.123   0.000
 2905TIP3    H1 8658   1.792   7.152   0.085
 2905TIP3    H2 8659   1.720   7.201  -0.039
 2906TIP3   OH2 8660   2.731   5.463   4.264
 2906TIP3    H1 8661   2.708   5.377   4.300
 2906TIP3    H2 8662   2.765   5.512   4.339
 2907TIP3   OH2 8663   0.211   5.765   4.557
 2907TIP3    H1 8664   0.273   5.761   4.629
 2907TIP3    H2 8665   0.263   5.750   4.478
 2908TIP3   OH2 8666   3.620   4.739   3.858
 2908TIP3    H1 8667   3.549   4.735   3.922
 2908TIP3    H2 8668   3.578   4.727   3.774
 2909TIP3   OH2 8669   7.992   7.069   2.826
 2909TIP3    H1 8670   7.927   7.002   2.848
 2909TIP3    H2 8671   8.055   7.025   2.769
 2910TIP3   OH2 8672   7.246   7.729   4.350
 2910TIP3    H1 8673   7.212   7.675   4.278
 2910TIP3    H2 8674   7.170   7.744   4.407
 2911TIP3   OH2 8675   4.158   0.362   4.287
 2911TIP3    H1 8676   4.233   0.320   4.246
 2911TIP3    H2 8677   4.193   0.403   4.366
 2912TIP3   OH2 8678   6.400   1.787   5.921
 2912TIP3    H1 8679   6.471   1.841   5.887
 2912TIP3    H2 8680   6.371   1.736   5.845
 2913TIP3   OH2 8681   5.744   7.607   1.683
 2913TIP3    H1 8682   5.661   7.653   1.694
 2913TIP3    H2 8683   5.784   7.648   1.606
 2914TIP3   OH2 8684   4.841   4.500   3.654
 2914TIP3    H1 8685   4.789   4.421   3.650
 2914TIP3    H2 8686   4.785   4.564   3.699
 2915TIP3   OH2 8687   6.097   2.795   6.467
 2915TIP3    H1 8688   6.109   2.880   6.426
 2915TIP3    H2 8689   6.062   2.815   6.554
 2916TIP3   OH2 8690   6.915   0.662   1.792
 2916TIP3    H1 8691   7.005   0.629   1.793
 2916TIP3    H2 8692   6.918   0.737   1.733
 2917TIP3   OH2 8693   3.827   4.193   3.979
 2917TIP3    H1 8694   3.758   4.231   3.924
 2917TIP3    H2 8695   3.908   4.228   3.942
 2918TIP3   OH2 8696   7.797   6.294   2.377
 2918TIP3    H1 8697   7.767   6.327   2.461
 2918TIP3    H2 8698   7.718   6.268   2.331
 2919TIP3   OH2 8699   2.016   7.252   5.722
 2919TIP3    H1 8700   2.013   7.183   5.789
 2919TIP3    H2 8701   1.984   7.330   5.767
 2920TIP3   OH2 8702   0.668   1.537   1.089
 2920TIP3    H1 8703   0.619   1.466   1.048
 2920TIP3    H2 8704   0.610   1.613   1.084
 2921TIP3   OH2 8705   7.230   1.180   4.287
 2921TIP3    H1 8706   7.204   1.088   4.274
 2921TIP3    H2 8707   7.247   1.212   4.198
 2922TIP3   OH2 8708   1.456   0.225   2.403
 2922TIP3    H1 8709   1.425   0.175   2.327
 2922TIP3    H2 8710   1.470   0.313   2.369
 2923TIP3   OH2 8711   2.490   7.176   1.082
 2923TIP3    H1 8712   2.431   7.162   1.157
 2923TIP3    H2 8713   2.525   7.264   1.096
 2924TIP3   OH2 8714   1.851   0.228   0.806
 2924TIP3    H1 8715   1.919   0.171   0.841
 2924TIP3    H2 8716   1.807   0.176   0.740
 2925TIP3   OH2 8717   6.942   7.816   1.818
 2925TIP3    H1 8718   6.988   7.753   1.873
 2925TIP3    H2 8719   6.850   7.807   1.843
 2926TIP3   OH2 8720   6.125   5.305   5.983
 2926TIP3    H1 8721   6.088   5.243   6.046
 2926TIP3    H2 8722   6.075   5.386   5.998
 2927TIP3   OH2 8723   1.751   0.083   0.564
 2927TIP3    H1 8724   1.671   0.108   0.609
 2927TIP3    H2 8725   1.770   0.156   0.506
 2928TIP3   OH2 8726   5.162   7.051   2.836
 2928TIP3    H1 8727   5.070   7.075   2.842
 2928TIP3    H2 8728   5.162   6.956   2.838
 2929TIP3   OH2 8729   5.249   2.517   3.463
 2929TIP3    H1 8730   5.265   2.436   3.511
 2929TIP3    H2 8731   5.166   2.550   3.498
 2930TIP3   OH2 8732   7.455   2.396   2.178
 2930TIP3    H1 8733   7.462   2.487   2.150
 2930TIP3    H2 8734   7.538   2.356   2.152
 2931TIP3   OH2 8735   7.711  -0.026   3.240
 2931TIP3    H1 8736   7.650  -0.057   3.307
 2931TIP3    H2 8737   7.700   0.070   3.240
 2932TIP3   OH2 8738   4.657   5.605   3.201
 2932TIP3    H1 8739   4.628   5.693   3.176
 2932TIP3    H2 8740   4.601   5.582   3.275
 2933TIP3   OH2 8741   7.895   1.708   3.589
 2933TIP3    H1 8742   7.967   1.763   3.556
 2933TIP3    H2 8743   7.826   1.769   3.611
 2934TIP3   OH2 8744   3.401   4.140   2.415
 2934TIP3    H1 8745   3.440   4.054   2.400
 2934TIP3    H2 8746   3.367   4.135   2.504
 2935TIP3   OH2 8747   3.087   5.919   1.535
 2935TIP3    H1 8748   3.162   5.863   1.518
 2935TIP3    H2 8749   3.117   5.981   1.601
 2936TIP3   OH2 8750   1.147   5.013   0.323
 2936TIP3    H1 8751   1.183   4.962   0.250
 2936TIP3    H2 8752   1.224   5.038   0.374
 2937TIP3   OH2 8753   2.367   7.438   2.744
 2937TIP3    H1 8754   2.461   7.426   2.760
 2937TIP3    H2 8755   2.339   7.355   2.704
 2938TIP3   OH2 8756   5.939   3.004   2.863
 2938TIP3    H1 8757   5.951   3.086   2.911
 2938TIP3    H2 8758   5.873   3.024   2.797
 2939TIP3   OH2 8759   7.592   2.174   0.248
 2939TIP3    H1 8760   7.605   2.080   0.240
 2939TIP3    H2 8761   7.503   2.189   0.218
 2940TIP3   OH2 8762   4.509   2.780   2.458
 2940TIP3    H1 8763   4.600   2.802   2.440
 2940TIP3    H2 8764   4.462   2.803   2.378
 2941TIP3   OH2 8765   6.697   1.807   4.774
 2941TIP3    H1 8766   6.714   1.713   4.777
 2941TIP3    H2 8767   6.620   1.818   4.829
 2942TIP3   OH2 8768   3.676   7.706   0.579
 2942TIP3    H1 8769   3.692   7.720   0.673
 2942TIP3    H2 8770   3.618   7.778   0.554
 2943TIP3   OH2 8771   0.794   4.759   1.323
 2943TIP3    H1 8772   0.784   4.665   1.332
 2943TIP3    H2 8773   0.877   4.770   1.276
 2944TIP3   OH2 8774   0.232   6.033   3.624
 2944TIP3    H1 8775   0.185   6.007   3.704
 2944TIP3    H2 8776   0.208   6.124   3.610
 2945TIP3   OH2 8777   3.270   6.658   1.347
 2945TIP3    H1 8778   3.215   6.589   1.311
 2945TIP3    H2 8779   3.244   6.664   1.439
 2946TIP3   OH2 8780   3.705   6.244   4.726
 2946TIP3    H1 8781   3.684   6.154   4.699
 2946TIP3    H2 8782   3.797   6.239   4.753
 2947TIP3   OH2 8783   5.239   1.974   3.707
 2947TIP3    H1 8784   5.317   1.991   3.760
 2947TIP3    H2 8785   5.184   1.917   3.761
 2948TIP3   OH2 8786   5.834   3.706   5.954
 2948TIP3    H1 8787   5.801   3.690   6.042
 2948TIP3    H2 8788   5.920   3.745   5.967
 2949TIP3   OH2 8789   7.840   1.553   2.186
 2949TIP3    H1 8790   7.780   1.575   2.257
 2949TIP3    H2 8791   7.819   1.617   2.117
 2950TIP3   OH2 8792   5.831   6.056   4.389
 2950TIP3    H1 8793   5.838   6.117   4.315
 2950TIP3    H2 8794   5.922   6.031   4.407
 2951TIP3   OH2 8795   6.875   7.814   5.703
 2951TIP3    H1 8796   6.797   7.867   5.688
 2951TIP3    H2 8797   6.841   7.726   5.720
 2952TIP3   OH2 8798   3.691   6.751   0.193
 2952TIP3    H1 8799   3.771   6.799   0.172
 2952TIP3    H2 8800   3.707   6.662   0.162
 2953TIP3   OH2 8801   3.066   6.283   4.644
 2953TIP3    H1 8802   3.157   6.256   4.630
 2953TIP3    H2 8803   3.070   6.342   4.720
 2954TIP3   OH2 8804   4.092   6.696   3.699
 2954TIP3    H1 8805   4.082   6.773   3.642
 2954TIP3    H2 8806   4.005   6.684   3.737
 2955TIP3   OH2 8807   3.259   7.100   0.320
 2955TIP3    H1 8808   3.319   7.173   0.338
 2955TIP3    H2 8809   3.174   7.131   0.348
 2956TIP3   OH2 8810   5.015   4.543   3.451
 2956TIP3    H1 8811   4.968   4.518   3.530
 2956TIP3    H2 8812   4.947   4.553   3.385
 2957TIP3   OH2 8813   5.271   4.041   5.466
 2957TIP3    H1 8814   5.249   4.096   5.541
 2957TIP3    H2 8815   5.274   4.101   5.392
 2958TIP3   OH2 8816   3.682   5.939   5.240
 2958TIP3    H1 8817   3.714   5.929   5.151
 2958TIP3    H2 8818   3.723   6.020   5.271
 2959TIP3   OH2 8819   7.859   0.234   0.674
 2959TIP3    H1 8820   7.806   0.266   0.601
 2959TIP3    H2 8821   7.818   0.151   0.699
 2960TIP3   OH2 8822   4.000   3.984   0.786
 2960TIP3    H1 8823   3.936   4.055   0.778
 2960TIP3    H2 8824   4.059   3.997   0.711
 2961TIP3   OH2 8825   2.580   2.094   3.780
 2961TIP3    H1 8826   2.621   2.180   3.786
 2961TIP3    H2 8827   2.649   2.036   3.749
 2962TIP3   OH2 8828   1.974   5.938   4.029
 2962TIP3    H1 8829   1.904   6.002   4.037
 2962TIP3    H2 8830   1.958   5.894   3.946
 2963TIP3   OH2 8831   1.210   4.597   0.286
 2963TIP3    H1 8832   1.198   4.506   0.312
 2963TIP3    H2 8833   1.303   4.613   0.296
 2964TIP3   OH2 8834   7.519   4.659   4.256
 2964TIP3    H1 8835   7.604   4.643   4.296
 2964TIP3    H2 8836   7.537   4.720   4.184
 2965TIP3   OH2 8837   2.955   4.328   1.062
 2965TIP3    H1 8838   2.865   4.356   1.045
 2965TIP3    H2 8839   2.954   4.233   1.046
 2966TIP3   OH2 8840   5.197   3.330   2.572
 2966TIP3    H1 8841   5.232   3.370   2.492
 2966TIP3    H2 8842   5.213   3.395   2.640
 2967TIP3   OH2 8843   3.574   7.595   3.664
 2967TIP3    H1 8844   3.548   7.628   3.578
 2967TIP3    H2 8845   3.639   7.658   3.695
 2968TIP3   OH2 8846   1.117   5.113   5.757
 2968TIP3    H1 8847   1.205   5.139   5.785
 2968TIP3    H2 8848   1.059   5.141   5.828
 2969TIP3   OH2 8849   6.999   6.018   0.634
 2969TIP3    H1 8850   7.023   6.063   0.553
 2969TIP3    H2 8851   6.917   6.059   0.661
 2970TIP3   OH2 8852   5.075   1.192   3.312
 2970TIP3    H1 8853   5.112   1.119   3.363
 2970TIP3    H2 8854   5.139   1.208   3.243
 2971TIP3   OH2 8855   0.369   7.148   4.558
 2971TIP3    H1 8856   0.383   7.176   4.467
 2971TIP3    H2 8857   0.289   7.095   4.554
 2972TIP3   OH2 8858   1.090   1.639   4.375
 2972TIP3    H1 8859   0.997   1.655   4.360
 2972TIP3    H2 8860   1.101   1.642   4.470
 2973TIP3   OH2 8861   0.607   5.618   1.654
 2973TIP3    H1 8862   0.633   5.644   1.565
 2973TIP3    H2 8863   0.596   5.523   1.649
 2974TIP3   OH2 8864   7.307   3.035   6.537
 2974TIP3    H1 8865   7.282   3.097   6.606
 2974TIP3    H2 8866   7.263   2.953   6.560
 2975TIP3   OH2 8867   5.897   6.112   0.031
 2975TIP3    H1 8868   5.836   6.046  -0.001
 2975TIP3    H2 8869   5.886   6.186  -0.029
 2976TIP3   OH2 8870   8.283   6.974   2.657
 2976TIP3    H1 8871   8.276   6.907   2.725
 2976TIP3    H2 8872   8.307   7.053   2.704
 2977TIP3   OH2 8873   5.943   1.741   1.731
 2977TIP3    H1 8874   6.021   1.787   1.763
 2977TIP3    H2 8875   5.952   1.744   1.635
 2978TIP3   OH2 8876   2.023   3.189   1.880
 2978TIP3    H1 8877   2.030   3.205   1.975
 2978TIP3    H2 8878   2.091   3.124   1.862
 2979TIP3   OH2 8879   4.526   7.195   2.912
 2979TIP3    H1 8880   4.468   7.254   2.962
 2979TIP3    H2 8881   4.474   7.117   2.897
 2980TIP3   OH2 8882   4.250   1.392   3.724
 2980TIP3    H1 8883   4.223   1.424   3.810
 2980TIP3    H2 8884   4.345   1.380   3.732
 2981TIP3   OH2 8885   4.136   5.499   3.527
 2981TIP3    H1 8886   4.162   5.455   3.609
 2981TIP3    H2 8887   4.075   5.439   3.486
 2982TIP3   OH2 8888   2.139   7.389   2.221
 2982TIP3    H1 8889   2.086   7.311   2.204
 2982TIP3    H2 8890   2.087   7.441   2.283
 2983TIP3   OH2 8891   1.285   5.964   4.145
 2983TIP3    H1 8892   1.337   6.043   4.130
 2983TIP3    H2 8893   1.279   5.958   4.241
 2984TIP3   OH2 8894   4.194   7.177   5.466
 2984TIP3    H1 8895   4.179   7.267   5.493
 2984TIP3    H2 8896   4.282   7.178   5.428
 2985TIP3   OH2 8897   1.112   5.848   1.406
 2985TIP3    H1 8898   1.205   5.835   1.386
 2985TIP3    H2 8899   1.092   5.780   1.470
 2986TIP3   OH2 8900   4.235   7.041   6.300
 2986TIP3    H1 8901   4.255   6.956   6.261
 2986TIP3    H2 8902   4.254   7.104   6.231
 2987TIP3   OH2 8903   4.465   7.551   1.564
 2987TIP3    H1 8904   4.509   7.619   1.616
 2987TIP3    H2 8905   4.437   7.596   1.485
 2988TIP3   OH2 8906   1.875   2.510   5.687
 2988TIP3    H1 8907   1.787   2.475   5.677
 2988TIP3    H2 8908   1.924   2.477   5.612
 2989TIP3   OH2 8909   6.766   1.355   3.560
 2989TIP3    H1 8910   6.711   1.344   3.483
 2989TIP3    H2 8911   6.847   1.395   3.527
 2990TIP3   OH2 8912   5.378   7.367   1.137
 2990TIP3    H1 8913   5.296   7.338   1.097
 2990TIP3    H2 8914   5.416   7.288   1.175
 2991TIP3   OH2 8915   1.233   3.879   1.661
 2991TIP3    H1 8916   1.194   3.879   1.573
 2991TIP3    H2 8917   1.219   3.967   1.694
 2992TIP3   OH2 8918   2.325   2.562   1.049
 2992TIP3    H1 8919   2.241   2.517   1.038
 2992TIP3    H2 8920   2.371   2.548   0.966
 2993TIP3   OH2 8921   2.441   6.083   1.442
 2993TIP3    H1 8922   2.508   6.098   1.375
 2993TIP3    H2 8923   2.490   6.083   1.525
 2994TIP3   OH2 8924   4.877   0.201   3.442
 2994TIP3    H1 8925   4.856   0.129   3.501
 2994TIP3    H2 8926   4.972   0.211   3.450
 2995TIP3   OH2 8927   1.100   1.705   2.620
 2995TIP3    H1 8928   1.024   1.754   2.589
 2995TIP3    H2 8929   1.063   1.635   2.673
 2996TIP3   OH2 8930   7.292   1.811   2.845
 2996TIP3    H1 8931   7.324   1.721   2.839
 2996TIP3    H2 8932   7.301   1.833   2.938
 2997TIP3   OH2 8933   1.941   6.308   1.031
 2997TIP3    H1 8934   1.994   6.384   1.053
 2997TIP3    H2 8935   1.904   6.279   1.115
 2998TIP3   OH2 8936   3.557   4.009   0.857
 2998TIP3    H1 8937   3.519   3.926   0.887
 2998TIP3    H2 8938   3.500   4.036   0.785
 2999TIP3   OH2 8939   0.304   1.433   1.163
 2999TIP3    H1 8940   0.323   1.453   1.255
 2999TIP3    H2 8941   0.390   1.413   1.124
 3000TIP3   OH2 8942   7.491   1.632   4.726
 3000TIP3    H1 8943   7.508   1.670   4.640
 3000TIP3    H2 8944   7.432   1.693   4.769
 3001TIP3   OH2 8945   1.528   7.444   0.696
 3001TIP3    H1 8946   1.531   7.410   0.607
 3001TIP3    H2 8947   1.574   7.378   0.749
 3002TIP3   OH2 8948   2.147   4.434   2.222
 3002TIP3    H1 8949   2.129   4.519   2.183
 3002TIP3    H2 8950   2.155   4.374   2.148
 3003TIP3   OH2 8951   1.131   6.792   6.566
 3003TIP3    H1 8952   1.152   6.699   6.558
 3003TIP3    H2 8953   1.216   6.836   6.570
 3004TIP3   OH2 8954   4.730   5.347   0.592
 3004TIP3    H1 8955   4.758   5.293   0.666
 3004TIP3    H2 8956   4.638   5.365   0.609
 3005TIP3   OH2 8957   2.478   5.148   1.258
 3005TIP3    H1 8958   2.539   5.137   1.185
 3005TIP3    H2 8959   2.396   5.175   1.216
 3006TIP3   OH2 8960   2.246   5.239   2.766
 3006TIP3    H1 8961   2.210   5.289   2.839
 3006TIP3    H2 8962   2.331   5.279   2.749
 3007TIP3   OH2 8963   5.125   4.258   4.968
 3007TIP3    H1 8964   5.059   4.204   5.013
 3007TIP3    H2 8965   5.082   4.343   4.958
 3008TIP3   OH2 8966   6.405   5.571   6.440
 3008TIP3    H1 8967   6.364   5.494   6.478
 3008TIP3    H2 8968   6.429   5.544   6.351
 3009TIP3   OH2 8969   8.106   4.543   1.505
 3009TIP3    H1 8970   8.103   4.611   1.572
 3009TIP3    H2 8971   8.134   4.588   1.425
 3010TIP3   OH2 8972   5.046   7.246   0.753
 3010TIP3    H1 8973   4.959   7.218   0.723
 3010TIP3    H2 8974   5.066   7.323   0.700
 3011TIP3   OH2 8975   6.091   3.784   0.740
 3011TIP3    H1 8976   6.134   3.807   0.658
 3011TIP3    H2 8977   6.123   3.849   0.803
 3012TIP3   OH2 8978   2.484   1.553   1.649
 3012TIP3    H1 8979   2.514   1.511   1.730
 3012TIP3    H2 8980   2.422   1.490   1.611
 3013TIP3   OH2 8981   1.073   6.494   1.649
 3013TIP3    H1 8982   1.152   6.542   1.622
 3013TIP3    H2 8983   1.040   6.454   1.569
 3014TIP3   OH2 8984   3.509   1.844   3.526
 3014TIP3    H1 8985   3.474   1.758   3.551
 3014TIP3    H2 8986   3.472   1.905   3.590
 3015TIP3   OH2 8987   5.614   1.217   3.726
 3015TIP3    H1 8988   5.640   1.272   3.652
 3015TIP3    H2 8989   5.691   1.164   3.745
 3016TIP3   OH2 8990   2.688   4.591   5.926
 3016TIP3    H1 8991   2.782   4.592   5.942
 3016TIP3    H2 8992   2.679   4.605   5.832
 3017TIP3   OH2 8993   0.554   0.061   5.652
 3017TIP3    H1 8994   0.500   0.029   5.580
 3017TIP3    H2 8995   0.574   0.151   5.629
 3018TIP3   OH2 8996   3.879   0.803   3.595
 3018TIP3    H1 8997   3.929   0.834   3.671
 3018TIP3    H2 8998   3.788   0.801   3.625
 3019TIP3   OH2 8999   4.003   6.932   4.942
 3019TIP3    H1 9000   3.993   7.023   4.915
 3019TIP3    H2 9001   4.069   6.897   4.881
 3020TIP3   OH2 9002   8.224   5.388   4.810
 3020TIP3    H1 9003   8.315   5.384   4.841
 3020TIP3    H2 9004   8.232   5.381   4.715
 3021TIP3   OH2 9005   4.201   2.308   5.877
 3021TIP3    H1 9006   4.168   2.292   5.788
 3021TIP3    H2 9007   4.254   2.231   5.897
 3022TIP3   OH2 9008   7.233   3.591   1.624
 3022TIP3    H1 9009   7.212   3.625   1.537
 3022TIP3    H2 9010   7.157   3.538   1.649
 3023TIP3   OH2 9011   7.781   1.479   4.282
 3023TIP3    H1 9012   7.815   1.480   4.371
 3023TIP3    H2 9013   7.791   1.388   4.253
 3024TIP3   OH2 9014   7.168   4.038   0.285
 3024TIP3    H1 9015   7.187   3.945   0.274
 3024TIP3    H2 9016   7.244   4.073   0.332
 3025TIP3   OH2 9017   0.720   2.168   5.829
 3025TIP3    H1 9018   0.767   2.175   5.746
 3025TIP3    H2 9019   0.757   2.091   5.871
 3026TIP3   OH2 9020   6.940   6.350   3.476
 3026TIP3    H1 9021   6.943   6.446   3.476
 3026TIP3    H2 9022   6.896   6.328   3.394
 3027TIP3   OH2 9023   6.487   3.817   4.948
 3027TIP3    H1 9024   6.440   3.774   5.019
 3027TIP3    H2 9025   6.574   3.835   4.984
 3028TIP3   OH2 9026   0.593   2.208   5.121
 3028TIP3    H1 9027   0.600   2.140   5.187
 3028TIP3    H2 9028   0.637   2.284   5.160
 3029TIP3   OH2 9029   5.659   2.770   2.037
 3029TIP3    H1 9030   5.734   2.727   2.079
 3029TIP3    H2 9031   5.693   2.798   1.952
 3030TIP3   OH2 9032   1.017   0.512   3.191
 3030TIP3    H1 9033   1.009   0.418   3.203
 3030TIP3    H2 9034   1.086   0.523   3.126
 3031TIP3   OH2 9035   4.422   6.065   2.775
 3031TIP3    H1 9036   4.365   6.091   2.847
 3031TIP3    H2 9037   4.363   6.049   2.702
 3032TIP3   OH2 9038   5.522   2.924   4.005
 3032TIP3    H1 9039   5.493   2.980   3.934
 3032TIP3    H2 9040   5.617   2.922   3.997
 3033TIP3   OH2 9041   7.990   1.573   5.499
 3033TIP3    H1 9042   8.021   1.618   5.421
 3033TIP3    H2 9043   7.898   1.599   5.506
 3034TIP3   OH2 9044   3.425   5.948   3.836
 3034TIP3    H1 9045   3.357   6.013   3.822
 3034TIP3    H2 9046   3.466   5.937   3.751
 3035TIP3   OH2 9047   5.864   7.777   2.557
 3035TIP3    H1 9048   5.937   7.837   2.573
 3035TIP3    H2 9049   5.884   7.738   2.472
 3036TIP3   OH2 9050   3.934   5.580   2.958
 3036TIP3    H1 9051   4.027   5.600   2.963
 3036TIP3    H2 9052   3.891   5.658   2.993
 3037TIP3   OH2 9053   3.014   3.065   0.480
 3037TIP3    H1 9054   2.972   3.001   0.538
 3037TIP3    H2 9055   3.075   3.013   0.427
 3038TIP3   OH2 9056   1.372   2.678   1.482
 3038TIP3    H1 9057   1.293   2.730   1.497
 3038TIP3    H2 9058   1.348   2.618   1.412
 3039TIP3   OH2 9059   2.299   6.994   5.709
 3039TIP3    H1 9060   2.238   6.978   5.637
 3039TIP3    H2 9061   2.308   6.909   5.753
 3040TIP3   OH2 9062   7.980   7.599   4.359
 3040TIP3    H1 9063   7.927   7.555   4.293
 3040TIP3    H2 9064   8.068   7.601   4.322
 3041TIP3   OH2 9065   4.705   1.694   1.402
 3041TIP3    H1 9066   4.620   1.660   1.433
 3041TIP3    H2 9067   4.762   1.617   1.400
 3042TIP3   OH2 9068   0.862   5.446   1.075
 3042TIP3    H1 9069   0.851   5.505   1.001
 3042TIP3    H2 9070   0.802   5.374   1.057
 3043TIP3   OH2 9071   1.587   7.632   0.464
 3043TIP3    H1 9072   1.602   7.690   0.539
 3043TIP3    H2 9073   1.516   7.673   0.415
 3044TIP3   OH2 9074   4.663   0.932   3.018
 3044TIP3    H1 9075   4.695   0.868   3.081
 3044TIP3    H2 9076   4.731   1.000   3.016
 3045TIP3   OH2 9077   7.047   0.799   6.341
 3045TIP3    H1 9078   7.099   0.879   6.327
 3045TIP3    H2 9079   7.088   0.758   6.417
 3046TIP3   OH2 9080   8.118   1.950   6.284
 3046TIP3    H1 9081   8.115   1.855   6.277
 3046TIP3    H2 9082   8.036   1.980   6.245
 3047TIP3   OH2 9083   7.248   1.741   5.898
 3047TIP3    H1 9084   7.158   1.711   5.882
 3047TIP3    H2 9085   7.286   1.672   5.953
 3048TIP3   OH2 9086   3.105   6.499   6.369
 3048TIP3    H1 9087   3.187   6.498   6.320
 3048TIP3    H2 9088   3.039   6.528   6.306
 3049TIP3   OH2 9089   6.503   1.045   1.826
 3049TIP3    H1 9090   6.589   1.040   1.868
 3049TIP3    H2 9091   6.443   1.002   1.887
 3050TIP3   OH2 9092   4.741   7.475   0.667
 3050TIP3    H1 9093   4.657   7.432   0.655
 3050TIP3    H2 9094   4.806   7.410   0.640
 3051TIP3   OH2 9095   2.066   1.174   1.664
 3051TIP3    H1 9096   1.994   1.224   1.626
 3051TIP3    H2 9097   2.097   1.228   1.736
 3052TIP3   OH2 9098   4.819   5.826   3.405
 3052TIP3    H1 9099   4.871   5.786   3.335
 3052TIP3    H2 9100   4.736   5.778   3.404
 3053TIP3   OH2 9101   4.245   3.659   1.638
 3053TIP3    H1 9102   4.259   3.656   1.732
 3053TIP3    H2 9103   4.198   3.741   1.623
 3054TIP3   OH2 9104   7.184   7.485   1.463
 3054TIP3    H1 9105   7.206   7.567   1.507
 3054TIP3    H2 9106   7.090   7.474   1.477
 3055TIP3   OH2 9107   3.632   4.053   6.576
 3055TIP3    H1 9108   3.692   3.985   6.546
 3055TIP3    H2 9109   3.573   4.068   6.501
 3056TIP3   OH2 9110   1.631   7.221   2.895
 3056TIP3    H1 9111   1.704   7.272   2.860
 3056TIP3    H2 9112   1.566   7.220   2.825
 3057TIP3   OH2 9113   2.673   5.486   5.366
 3057TIP3    H1 9114   2.694   5.495   5.273
 3057TIP3    H2 9115   2.619   5.407   5.371
 3058TIP3   OH2 9116   5.537   7.423   5.084
 3058TIP3    H1 9117   5.524   7.395   5.175
 3058TIP3    H2 9118   5.595   7.499   5.090
 3059TIP3   OH2 9119   2.696   3.463   1.025
 3059TIP3    H1 9120   2.701   3.465   1.120
 3059TIP3    H2 9121   2.783   3.438   0.996
 3060TIP3   OH2 9122   2.843   4.542   3.800
 3060TIP3    H1 9123   2.756   4.537   3.840
 3060TIP3    H2 9124   2.894   4.475   3.846
 3061TIP3   OH2 9125   1.275   6.409   3.040
 3061TIP3    H1 9126   1.324   6.490   3.051
 3061TIP3    H2 9127   1.201   6.433   2.984
 3062TIP3   OH2 9128   2.200   0.218   0.704
 3062TIP3    H1 9129   2.278   0.163   0.700
 3062TIP3    H2 9130   2.148   0.180   0.775
 3063TIP3   OH2 9131   0.215   3.024   5.492
 3063TIP3    H1 9132   0.284   2.963   5.468
 3063TIP3    H2 9133   0.138   2.969   5.506
 3064TIP3   OH2 9134   2.020   3.048   3.593
 3064TIP3    H1 9135   2.105   3.086   3.572
 3064TIP3    H2 9136   1.984   3.105   3.660
 3065TIP3   OH2 9137   4.830   7.387   5.109
 3065TIP3    H1 9138   4.776   7.311   5.087
 3065TIP3    H2 9139   4.773   7.443   5.161
 3066TIP3   OH2 9140   7.427   0.625   2.973
 3066TIP3    H1 9141   7.468   0.611   3.058
 3066TIP3    H2 9142   7.404   0.718   2.972
 3067TIP3   OH2 9143   4.012   2.422   3.999
 3067TIP3    H1 9144   4.012   2.351   4.063
 3067TIP3    H2 9145   3.936   2.405   3.944
 3068TIP3   OH2 9146   5.412   4.593   3.355
 3068TIP3    H1 9147   5.406   4.614   3.262
 3068TIP3    H2 9148   5.472   4.659   3.391
 3069TIP3   OH2 9149   8.211   2.503   2.142
 3069TIP3    H1 9150   8.274   2.470   2.079
 3069TIP3    H2 9151   8.257   2.503   2.226
 3070TIP3   OH2 9152   7.223   0.167   0.156
 3070TIP3    H1 9153   7.276   0.093   0.187
 3070TIP3    H2 9154   7.250   0.240   0.211
 3071TIP3   OH2 9155   1.761   1.061   2.330
 3071TIP3    H1 9156   1.684   1.085   2.380
 3071TIP3    H2 9157   1.764   0.966   2.334
 3072TIP3   OH2 9158   4.306   5.356   5.697
 3072TIP3    H1 9159   4.245   5.290   5.664
 3072TIP3    H2 9160   4.269   5.440   5.669
 3073TIP3   OH2 9161   6.120   6.352   4.619
 3073TIP3    H1 9162   6.158   6.270   4.650
 3073TIP3    H2 9163   6.183   6.420   4.645
 3074TIP3   OH2 9164   1.445   7.296   4.046
 3074TIP3    H1 9165   1.402   7.213   4.028
 3074TIP3    H2 9166   1.535   7.272   4.068
 3075TIP3   OH2 9167   8.011   3.759   3.262
 3075TIP3    H1 9168   8.048   3.830   3.315
 3075TIP3    H2 9169   8.086   3.721   3.217
 3076TIP3   OH2 9170   7.321   7.423   6.364
 3076TIP3    H1 9171   7.252   7.376   6.410
 3076TIP3    H2 9172   7.286   7.512   6.351
 3077TIP3   OH2 9173   3.283   6.534   3.892
 3077TIP3    H1 9174   3.327   6.469   3.836
 3077TIP3    H2 9175   3.284   6.494   3.979
 3078TIP3   OH2 9176   6.005   1.421   2.889
 3078TIP3    H1 9177   6.058   1.477   2.945
 3078TIP3    H2 9178   5.916   1.455   2.898
 3079TIP3   OH2 9179   4.502   6.371   2.208
 3079TIP3    H1 9180   4.475   6.289   2.167
 3079TIP3    H2 9181   4.458   6.370   2.293
 3080TIP3   OH2 9182   6.073   3.369   3.971
 3080TIP3    H1 9183   6.137   3.322   4.025
 3080TIP3    H2 9184   6.124   3.402   3.897
 3081TIP3   OH2 9185   8.200   5.058   4.752
 3081TIP3    H1 9186   8.267   5.020   4.810
 3081TIP3    H2 9187   8.216   5.152   4.756
 3082TIP3   OH2 9188   3.532   3.255   2.631
 3082TIP3    H1 9189   3.456   3.227   2.579
 3082TIP3    H2 9190   3.607   3.229   2.578
 3083TIP3   OH2 9191   6.207   3.374   3.144
 3083TIP3    H1 9192   6.274   3.427   3.187
 3083TIP3    H2 9193   6.236   3.284   3.159
 3084TIP3   OH2 9194   3.430   3.342   0.654
 3084TIP3    H1 9195   3.442   3.415   0.594
 3084TIP3    H2 9196   3.479   3.366   0.733
 3085TIP3   OH2 9197   6.719   4.510   1.574
 3085TIP3    H1 9198   6.629   4.484   1.595
 3085TIP3    H2 9199   6.711   4.594   1.530
 3086TIP3   OH2 9200   4.863   1.872   0.428
 3086TIP3    H1 9201   4.783   1.912   0.394
 3086TIP3    H2 9202   4.931   1.937   0.413
 3087TIP3   OH2 9203   7.111   3.464   1.890
 3087TIP3    H1 9204   7.063   3.450   1.809
 3087TIP3    H2 9205   7.087   3.552   1.918
 3088TIP3   OH2 9206   6.265   3.575   0.399
 3088TIP3    H1 9207   6.246   3.526   0.479
 3088TIP3    H2 9208   6.330   3.522   0.353
 3089TIP3   OH2 9209   8.255   6.047   1.670
 3089TIP3    H1 9210   8.268   6.032   1.577
 3089TIP3    H2 9211   8.161   6.058   1.681
 3090TIP3   OH2 9212   3.253   5.938   5.380
 3090TIP3    H1 9213   3.160   5.924   5.360
 3090TIP3    H2 9214   3.254   5.959   5.474
 3091TIP3   OH2 9215   1.367   7.441   2.298
 3091TIP3    H1 9216   1.450   7.487   2.285
 3091TIP3    H2 9217   1.314   7.465   2.222
 3092TIP3   OH2 9218   7.944   1.778   6.446
 3092TIP3    H1 9219   7.971   1.715   6.513
 3092TIP3    H2 9220   7.979   1.742   6.364
 3093TIP3   OH2 9221   2.237   7.611   2.078
 3093TIP3    H1 9222   2.205   7.526   2.108
 3093TIP3    H2 9223   2.208   7.673   2.144
 3094TIP3   OH2 9224   1.364   5.180   5.268
 3094TIP3    H1 9225   1.386   5.138   5.352
 3094TIP3    H2 9226   1.447   5.186   5.222
 3095TIP3   OH2 9227   4.807   3.868   5.638
 3095TIP3    H1 9228   4.836   3.849   5.727
 3095TIP3    H2 9229   4.760   3.789   5.610
 3096TIP3   OH2 9230   3.110   4.542   0.828
 3096TIP3    H1 9231   3.019   4.571   0.835
 3096TIP3    H2 9232   3.162   4.615   0.860
 3097TIP3   OH2 9233   7.361   3.052   5.684
 3097TIP3    H1 9234   7.272   3.020   5.700
 3097TIP3    H2 9235   7.355   3.097   5.600
 3098TIP3   OH2 9236   3.352   1.521   6.308
 3098TIP3    H1 9237   3.369   1.567   6.226
 3098TIP3    H2 9238   3.257   1.514   6.312
 3099TIP3   OH2 9239   3.263   1.719   3.846
 3099TIP3    H1 9240   3.285   1.734   3.754
 3099TIP3    H2 9241   3.348   1.723   3.892
 3100TIP3   OH2 9242   6.476   5.233   1.501
 3100TIP3    H1 9243   6.506   5.324   1.499
 3100TIP3    H2 9244   6.393   5.234   1.454
 3101TIP3   OH2 9245   5.429   0.393   4.834
 3101TIP3    H1 9246   5.365   0.338   4.789
 3101TIP3    H2 9247   5.391   0.480   4.835
 3102TIP3   OH2 9248   6.842   7.138   1.261
 3102TIP3    H1 9249   6.937   7.145   1.254
 3102TIP3    H2 9250   6.811   7.228   1.250
 3103TIP3   OH2 9251   7.640   3.826   1.539
 3103TIP3    H1 9252   7.584   3.752   1.514
 3103TIP3    H2 9253   7.611   3.849   1.627
 3104TIP3   OH2 9254   3.820   4.297   2.241
 3104TIP3    H1 9255   3.915   4.289   2.243
 3104TIP3    H2 9256   3.802   4.385   2.274
 3105TIP3   OH2 9257   5.061   2.269   4.936
 3105TIP3    H1 9258   5.083   2.310   4.852
 3105TIP3    H2 9259   4.967   2.281   4.945
 3106TIP3   OH2 9260   6.596   5.875   2.834
 3106TIP3    H1 9261   6.559   5.920   2.910
 3106TIP3    H2 9262   6.659   5.938   2.798
 3107TIP3   OH2 9263   4.887   0.292   0.421
 3107TIP3    H1 9264   4.958   0.227   0.417
 3107TIP3    H2 9265   4.809   0.242   0.395
 3108TIP3   OH2 9266   7.006   7.645   1.056
 3108TIP3    H1 9267   6.947   7.719   1.074
 3108TIP3    H2 9268   6.948   7.572   1.036
 3109TIP3   OH2 9269   4.465   5.364   5.425
 3109TIP3    H1 9270   4.372   5.369   5.405
 3109TIP3    H2 9271   4.508   5.370   5.340
 3110TIP3   OH2 9272   2.916   2.803   2.754
 3110TIP3    H1 9273   2.934   2.814   2.661
 3110TIP3    H2 9274   2.909   2.708   2.766
 3111TIP3   OH2 9275   3.041   6.279   6.505
 3111TIP3    H1 9276   3.044   6.219   6.431
 3111TIP3    H2 9277   3.069   6.363   6.470
 3112TIP3   OH2 9278   2.965   7.379   5.896
 3112TIP3    H1 9279   2.897   7.335   5.948
 3112TIP3    H2 9280   3.046   7.362   5.943
 3113TIP3   OH2 9281   3.579   6.991   4.037
 3113TIP3    H1 9282   3.576   6.949   4.123
 3113TIP3    H2 9283   3.534   7.074   4.050
 3114TIP3   OH2 9284   0.351   5.082   1.794
 3114TIP3    H1 9285   0.297   5.109   1.720
 3114TIP3    H2 9286   0.373   5.163   1.839
 3115TIP3   OH2 9287   0.785   6.978   3.989
 3115TIP3    H1 9288   0.837   6.935   4.057
 3115TIP3    H2 9289   0.705   6.926   3.983
 3116TIP3   OH2 9290   2.223   0.261   2.188
 3116TIP3    H1 9291   2.279   0.331   2.153
 3116TIP3    H2 9292   2.279   0.184   2.189
 3117TIP3   OH2 9293   6.007   0.124   6.400
 3117TIP3    H1 9294   5.923   0.083   6.377
 3117TIP3    H2 9295   5.997   0.149   6.492
 3118TIP3   OH2 9296   3.996   4.971   2.181
 3118TIP3    H1 9297   3.977   4.886   2.219
 3118TIP3    H2 9298   4.085   4.991   2.210
 3119TIP3   OH2 9299   4.225   1.006   0.313
 3119TIP3    H1 9300   4.290   0.978   0.249
 3119TIP3    H2 9301   4.248   0.960   0.394
 3120TIP3   OH2 9302   5.669   3.388   6.773
 3120TIP3    H1 9303   5.588   3.439   6.770
 3120TIP3    H2 9304   5.734   3.443   6.729
 3121TIP3   OH2 9305   6.084   7.654   4.623
 3121TIP3    H1 9306   6.125   7.568   4.608
 3121TIP3    H2 9307   6.145   7.717   4.586
 3122TIP3   OH2 9308   7.494   6.207   5.990
 3122TIP3    H1 9309   7.415   6.209   6.045
 3122TIP3    H2 9310   7.464   6.237   5.904
 3123TIP3   OH2 9311   7.501   5.751   2.998
 3123TIP3    H1 9312   7.595   5.768   2.991
 3123TIP3    H2 9313   7.484   5.748   3.092
 3124TIP3   OH2 9314   6.109   0.299   0.607
 3124TIP3    H1 9315   6.128   0.361   0.536
 3124TIP3    H2 9316   6.125   0.349   0.687
 3125TIP3   OH2 9317   7.245   3.903   0.579
 3125TIP3    H1 9318   7.183   3.831   0.565
 3125TIP3    H2 9319   7.310   3.892   0.510
 3126TIP3   OH2 9320   1.958   3.706   5.236
 3126TIP3    H1 9321   1.897   3.638   5.264
 3126TIP3    H2 9322   2.001   3.735   5.317
 3127TIP3   OH2 9323   7.258   1.249   5.768
 3127TIP3    H1 9324   7.277   1.295   5.687
 3127TIP3    H2 9325   7.279   1.157   5.749
 3128TIP3   OH2 9326   4.713   6.694   5.269
 3128TIP3    H1 9327   4.710   6.692   5.173
 3128TIP3    H2 9328   4.669   6.775   5.293
 3129TIP3   OH2 9329   1.448   0.619   3.246
 3129TIP3    H1 9330   1.398   0.553   3.199
 3129TIP3    H2 9331   1.393   0.640   3.322
 3130TIP3   OH2 9332   0.899   3.878   0.093
 3130TIP3    H1 9333   0.900   3.921   0.008
 3130TIP3    H2 9334   0.882   3.948   0.155
 3131TIP3   OH2 9335   5.536   3.142   5.615
 3131TIP3    H1 9336   5.621   3.166   5.577
 3131TIP3    H2 9337   5.497   3.225   5.643
 3132TIP3   OH2 9338   3.711   6.496   2.390
 3132TIP3    H1 9339   3.688   6.405   2.370
 3132TIP3    H2 9340   3.646   6.523   2.454
 3133TIP3   OH2 9341   4.526   6.935   3.548
 3133TIP3    H1 9342   4.481   6.860   3.586
 3133TIP3    H2 9343   4.457   7.000   3.534
 3134TIP3   OH2 9344   7.202   1.362   0.474
 3134TIP3    H1 9345   7.253   1.373   0.394
 3134TIP3    H2 9346   7.251   1.408   0.541
 3135TIP3   OH2 9347   6.020   1.248   1.148
 3135TIP3    H1 9348   5.925   1.249   1.159
 3135TIP3    H2 9349   6.037   1.313   1.080
 3136TIP3   OH2 9350   3.104   4.548   4.624
 3136TIP3    H1 9351   3.111   4.565   4.718
 3136TIP3    H2 9352   3.191   4.568   4.590
 3137TIP3   OH2 9353   0.161   2.544   1.229
 3137TIP3    H1 9354   0.099   2.471   1.238
 3137TIP3    H2 9355   0.239   2.505   1.190
 3138TIP3   OH2 9356   6.025   5.620   1.386
 3138TIP3    H1 9357   6.112   5.627   1.426
 3138TIP3    H2 9358   5.968   5.667   1.446
 3139TIP3   OH2 9359   8.009   1.159   5.794
 3139TIP3    H1 9360   8.093   1.113   5.805
 3139TIP3    H2 9361   7.965   1.148   5.879
 3140TIP3   OH2 9362   0.197   4.095   2.332
 3140TIP3    H1 9363   0.199   4.188   2.356
 3140TIP3    H2 9364   0.203   4.049   2.416
 3141TIP3   OH2 9365   4.580   5.856   2.916
 3141TIP3    H1 9366   4.502   5.860   2.860
 3141TIP3    H2 9367   4.567   5.926   2.980
 3142TIP3   OH2 9368   2.914   0.402   1.069
 3142TIP3    H1 9369   2.964   0.480   1.044
 3142TIP3    H2 9370   2.896   0.357   0.986
 3143TIP3   OH2 9371   7.642   3.938   2.433
 3143TIP3    H1 9372   7.567   3.934   2.373
 3143TIP3    H2 9373   7.637   4.026   2.471
 3144TIP3   OH2 9374   7.519   2.916   3.917
 3144TIP3    H1 9375   7.470   2.950   3.842
 3144TIP3    H2 9376   7.609   2.910   3.886
 3145TIP3   OH2 9377   5.198   3.698   3.050
 3145TIP3    H1 9378   5.181   3.713   3.143
 3145TIP3    H2 9379   5.269   3.634   3.049
 3146TIP3   OH2 9380   5.390   0.476   2.029
 3146TIP3    H1 9381   5.331   0.422   2.081
 3146TIP3    H2 9382   5.347   0.561   2.025
 3147TIP3   OH2 9383   6.699   1.823   2.389
 3147TIP3    H1 9384   6.634   1.883   2.354
 3147TIP3    H2 9385   6.648   1.752   2.428
 3148TIP3   OH2 9386   8.239   3.269   1.351
 3148TIP3    H1 9387   8.300   3.222   1.408
 3148TIP3    H2 9388   8.295   3.322   1.294
 3149TIP3   OH2 9389   5.878   1.455   2.335
 3149TIP3    H1 9390   5.907   1.544   2.356
 3149TIP3    H2 9391   5.788   1.450   2.368
 3150TIP3   OH2 9392   3.580   6.747   3.899
 3150TIP3    H1 9393   3.530   6.823   3.929
 3150TIP3    H2 9394   3.514   6.689   3.860
 3151TIP3   OH2 9395   8.042   4.657   0.611
 3151TIP3    H1 9396   8.014   4.569   0.637
 3151TIP3    H2 9397   8.029   4.710   0.689
 3152TIP3   OH2 9398   2.853   3.081   2.752
 3152TIP3    H1 9399   2.847   3.009   2.815
 3152TIP3    H2 9400   2.879   3.038   2.670
 3153TIP3   OH2 9401   4.946   7.123   3.002
 3153TIP3    H1 9402   4.875   7.091   3.057
 3153TIP3    H2 9403   5.010   7.159   3.063
 3154TIP3   OH2 9404   3.440   5.194   1.730
 3154TIP3    H1 9405   3.357   5.240   1.720
 3154TIP3    H2 9406   3.501   5.261   1.761
 3155TIP3   OH2 9407   1.498   0.658   1.080
 3155TIP3    H1 9408   1.589   0.651   1.109
 3155TIP3    H2 9409   1.446   0.640   1.158
 3156TIP3   OH2 9410   5.671   4.269   1.534
 3156TIP3    H1 9411   5.738   4.290   1.469
 3156TIP3    H2 9412   5.602   4.226   1.484
 3157TIP3   OH2 9413   0.647   1.466   0.514
 3157TIP3    H1 9414   0.667   1.408   0.587
 3157TIP3    H2 9415   0.678   1.419   0.437
 3158TIP3   OH2 9416   2.093   3.803   4.169
 3158TIP3    H1 9417   2.143   3.869   4.218
 3158TIP3    H2 9418   2.157   3.762   4.112
 3159TIP3   OH2 9419   6.440   1.033   3.860
 3159TIP3    H1 9420   6.519   1.028   3.913
 3159TIP3    H2 9421   6.405   1.121   3.876
 3160TIP3   OH2 9422   0.277   5.449   0.564
 3160TIP3    H1 9423   0.267   5.441   0.659
 3160TIP3    H2 9424   0.294   5.359   0.535
 3161TIP3   OH2 9425   2.789   7.168   5.460
 3161TIP3    H1 9426   2.706   7.212   5.478
 3161TIP3    H2 9427   2.846   7.237   5.427
 3162TIP3   OH2 9428   1.727   2.586   3.248
 3162TIP3    H1 9429   1.800   2.535   3.211
 3162TIP3    H2 9430   1.769   2.644   3.311
 3163TIP3   OH2 9431   2.124   1.151   5.123
 3163TIP3    H1 9432   2.169   1.235   5.115
 3163TIP3    H2 9433   2.035   1.173   5.150
 3164TIP3   OH2 9434   7.134   0.516   1.001
 3164TIP3    H1 9435   7.039   0.509   0.991
 3164TIP3    H2 9436   7.165   0.426   0.996
 3165TIP3   OH2 9437   4.392   2.110   5.676
 3165TIP3    H1 9438   4.448   2.032   5.671
 3165TIP3    H2 9439   4.444   2.179   5.634
 3166TIP3   OH2 9440   1.894   1.390   5.098
 3166TIP3    H1 9441   1.904   1.347   5.013
 3166TIP3    H2 9442   1.982   1.421   5.120
 3167TIP3   OH2 9443   2.376   2.548   1.320
 3167TIP3    H1 9444   2.367   2.563   1.226
 3167TIP3    H2 9445   2.469   2.528   1.332
 3168TIP3   OH2 9446   0.709   2.342   0.694
 3168TIP3    H1 9447   0.744   2.422   0.657
 3168TIP3    H2 9448   0.786   2.286   0.708
 3169TIP3   OH2 9449   7.445   4.181   4.713
 3169TIP3    H1 9450   7.486   4.126   4.780
 3169TIP3    H2 9451   7.467   4.137   4.631
 3170TIP3   OH2 9452   1.146   3.964   0.340
 3170TIP3    H1 9453   1.054   3.971   0.316
 3170TIP3    H2 9454   1.180   3.892   0.286
 3171TIP3   OH2 9455   1.057   6.122   1.366
 3171TIP3    H1 9456   1.065   6.037   1.408
 3171TIP3    H2 9457   0.999   6.171   1.424
 3172TIP3   OH2 9458   5.857   5.266   3.365
 3172TIP3    H1 9459   5.851   5.314   3.448
 3172TIP3    H2 9460   5.940   5.295   3.326
 3173TIP3   OH2 9461   5.944   2.005   5.614
 3173TIP3    H1 9462   5.938   2.098   5.592
 3173TIP3    H2 9463   5.855   1.981   5.640
 3174TIP3   OH2 9464   6.480   1.175   6.213
 3174TIP3    H1 9465   6.501   1.158   6.121
 3174TIP3    H2 9466   6.560   1.151   6.261
 3175TIP3   OH2 9467   1.133   6.946   1.737
 3175TIP3    H1 9468   1.163   7.037   1.731
 3175TIP3    H2 9469   1.211   6.893   1.721
 3176TIP3   OH2 9470   3.924   1.465   3.708
 3176TIP3    H1 9471   3.962   1.393   3.759
 3176TIP3    H2 9472   3.942   1.442   3.617
 3177TIP3   OH2 9473   2.356   6.782   4.702
 3177TIP3    H1 9474   2.331   6.701   4.747
 3177TIP3    H2 9475   2.448   6.796   4.727
 3178TIP3   OH2 9476   2.245   0.589   6.002
 3178TIP3    H1 9477   2.332   0.621   5.978
 3178TIP3    H2 9478   2.185   0.635   5.942
 3179TIP3   OH2 9479   3.891   6.062   1.591
 3179TIP3    H1 9480   3.859   5.979   1.625
 3179TIP3    H2 9481   3.961   6.087   1.652
 3180TIP3   OH2 9482   5.447   7.804   5.115
 3180TIP3    H1 9483   5.404   7.815   5.030
 3180TIP3    H2 9484   5.540   7.810   5.096
 3181TIP3   OH2 9485   1.263   3.922   2.081
 3181TIP3    H1 9486   1.236   3.866   2.154
 3181TIP3    H2 9487   1.188   3.922   2.022
 3182TIP3   OH2 9488   7.516   2.934   6.260
 3182TIP3    H1 9489   7.558   2.851   6.285
 3182TIP3    H2 9490   7.445   2.907   6.202
 3183TIP3   OH2 9491   7.087   6.317   0.639
 3183TIP3    H1 9492   7.170   6.291   0.600
 3183TIP3    H2 9493   7.095   6.293   0.732
 3184TIP3   OH2 9494   8.096   3.396   6.623
 3184TIP3    H1 9495   8.124   3.471   6.572
 3184TIP3    H2 9496   8.063   3.334   6.558
 3185TIP3   OH2 9497   8.128   7.546   1.824
 3185TIP3    H1 9498   8.176   7.619   1.863
 3185TIP3    H2 9499   8.112   7.485   1.897
 3186TIP3   OH2 9500   7.410   6.664   5.935
 3186TIP3    H1 9501   7.476   6.662   5.865
 3186TIP3    H2 9502   7.455   6.707   6.008
 3187TIP3   OH2 9503   1.532   6.006   2.513
 3187TIP3    H1 9504   1.524   6.030   2.605
 3187TIP3    H2 9505   1.495   6.080   2.466
 3188TIP3   OH2 9506   4.858   2.758   2.102
 3188TIP3    H1 9507   4.903   2.776   2.184
 3188TIP3    H2 9508   4.928   2.752   2.037
 3189TIP3   OH2 9509   5.984   6.134   4.914
 3189TIP3    H1 9510   5.905   6.098   4.872
 3189TIP3    H2 9511   5.976   6.109   5.006
 3190TIP3   OH2 9512   2.678   4.297   1.768
 3190TIP3    H1 9513   2.650   4.215   1.727
 3190TIP3    H2 9514   2.616   4.311   1.840
 3191TIP3   OH2 9515   2.849   3.917   5.603
 3191TIP3    H1 9516   2.758   3.902   5.577
 3191TIP3    H2 9517   2.890   3.957   5.527
 3192TIP3   OH2 9518   8.178   4.242   0.067
 3192TIP3    H1 9519   8.089   4.264   0.039
 3192TIP3    H2 9520   8.227   4.230  -0.014
 3193TIP3   OH2 9521   1.639   7.400   6.608
 3193TIP3    H1 9522   1.675   7.489   6.607
 3193TIP3    H2 9523   1.709   7.345   6.573
 3194TIP3   OH2 9524   7.987   4.862   5.205
 3194TIP3    H1 9525   7.917   4.819   5.255
 3194TIP3    H2 9526   7.948   4.883   5.121
 3195TIP3   OH2 9527   5.405   1.223   4.597
 3195TIP3    H1 9528   5.405   1.232   4.502
 3195TIP3    H2 9529   5.374   1.134   4.613
 3196TIP3   OH2 9530   7.297   1.242   3.369
 3196TIP3    H1 9531   7.321   1.234   3.277
 3196TIP3    H2 9532   7.229   1.176   3.382
 3197TIP3   OH2 9533   0.351   7.664   2.198
 3197TIP3    H1 9534   0.433   7.639   2.241
 3197TIP3    H2 9535   0.365   7.755   2.171
 3198TIP3   OH2 9536   4.594   2.861   1.050
 3198TIP3    H1 9537   4.670   2.916   1.068
 3198TIP3    H2 9538   4.532   2.919   1.006
 3199TIP3   OH2 9539   7.626   2.743   4.582
 3199TIP3    H1 9540   7.644   2.760   4.675
 3199TIP3    H2 9541   7.610   2.649   4.578
 3200TIP3   OH2 9542   0.534   7.683   0.302
 3200TIP3    H1 9543   0.628   7.669   0.290
 3200TIP3    H2 9544   0.522   7.777   0.288
 3201TIP3   OH2 9545   2.933   2.792   6.319
 3201TIP3    H1 9546   2.972   2.725   6.264
 3201TIP3    H2 9547   3.006   2.826   6.371
 3202TIP3   OH2 9548   3.330   6.305   3.044
 3202TIP3    H1 9549   3.413   6.266   3.018
 3202TIP3    H2 9550   3.274   6.230   3.065
 3203TIP3   OH2 9551   1.947   7.004   6.447
 3203TIP3    H1 9552   2.006   6.937   6.412
 3203TIP3    H2 9553   1.878   6.955   6.492
 3204TIP3   OH2 9554   4.303   2.354   1.808
 3204TIP3    H1 9555   4.269   2.334   1.895
 3204TIP3    H2 9556   4.352   2.435   1.819
 3205TIP3   OH2 9557   2.794   1.732   5.393
 3205TIP3    H1 9558   2.711   1.691   5.416
 3205TIP3    H2 9559   2.774   1.784   5.315
 3206TIP3   OH2 9560   6.209   5.229   2.208
 3206TIP3    H1 9561   6.123   5.188   2.199
 3206TIP3    H2 9562   6.190   5.322   2.221
 3207TIP3   OH2 9563   0.257   2.261   4.895
 3207TIP3    H1 9564   0.196   2.305   4.835
 3207TIP3    H2 9565   0.343   2.289   4.866
 3208TIP3   OH2 9566   3.585   3.438   4.390
 3208TIP3    H1 9567   3.599   3.345   4.370
 3208TIP3    H2 9568   3.672   3.472   4.407
 3209TIP3   OH2 9569   5.284   0.092   0.070
 3209TIP3    H1 9570   5.302   0.125   0.158
 3209TIP3    H2 9571   5.352   0.026   0.055
 3210TIP3   OH2 9572   0.411   0.847   2.044
 3210TIP3    H1 9573   0.487   0.822   2.098
 3210TIP3    H2 9574   0.362   0.908   2.099
 3211TIP3   OH2 9575   4.953   3.388   4.012
 3211TIP3    H1 9576   4.884   3.395   4.077
 3211TIP3    H2 9577   4.976   3.478   3.991
 3212TIP3   OH2 9578   5.123   4.414   5.840
 3212TIP3    H1 9579   5.051   4.476   5.830
 3212TIP3    H2 9580   5.115   4.381   5.929
 3213TIP3   OH2 9581   8.069   1.713   4.154
 3213TIP3    H1 9582   8.155   1.685   4.185
 3213TIP3    H2 9583   8.076   1.710   4.058
 3214TIP3   OH2 9584   2.556   5.857   6.598
 3214TIP3    H1 9585   2.489   5.824   6.539
 3214TIP3    H2 9586   2.510   5.877   6.680
 3215TIP3   OH2 9587   3.966   6.070   4.841
 3215TIP3    H1 9588   4.043   6.014   4.853
 3215TIP3    H2 9589   3.945   6.102   4.928
 3216TIP3   OH2 9590   0.636   0.825   4.381
 3216TIP3    H1 9591   0.541   0.815   4.388
 3216TIP3    H2 9592   0.668   0.737   4.363
 3217TIP3   OH2 9593   0.381   7.545   6.610
 3217TIP3    H1 9594   0.465   7.586   6.629
 3217TIP3    H2 9595   0.316   7.608   6.641
 3218TIP3   OH2 9596   4.001   1.024   0.441
 3218TIP3    H1 9597   4.040   1.083   0.506
 3218TIP3    H2 9598   4.067   1.018   0.372
 3219TIP3   OH2 9599   1.160   1.910   2.273
 3219TIP3    H1 9600   1.185   1.885   2.184
 3219TIP3    H2 9601   1.173   1.831   2.325
 3220TIP3   OH2 9602   6.651   1.015   0.885
 3220TIP3    H1 9603   6.601   0.943   0.847
 3220TIP3    H2 9604   6.739   0.980   0.897
 3221TIP3   OH2 9605   7.175   3.306   2.800
 3221TIP3    H1 9606   7.243   3.304   2.867
 3221TIP3    H2 9607   7.216   3.268   2.723
 3222TIP3   OH2 9608   7.181   1.108   4.749
 3222TIP3    H1 9609   7.186   1.168   4.675
 3222TIP3    H2 9610   7.158   1.164   4.823
 3223TIP3   OH2 9611   0.577   1.353   3.411
 3223TIP3    H1 9612   0.659   1.354   3.462
 3223TIP3    H2 9613   0.606   1.350   3.320
 3224TIP3   OH2 9614   1.537   2.626   3.957
 3224TIP3    H1 9615   1.534   2.595   4.047
 3224TIP3    H2 9616   1.547   2.546   3.905
 3225TIP3   OH2 9617   8.155   3.431   4.680
 3225TIP3    H1 9618   8.193   3.398   4.598
 3225TIP3    H2 9619   8.182   3.522   4.684
 3226TIP3   OH2 9620   5.084   3.007   6.050
 3226TIP3    H1 9621   5.082   3.019   5.955
 3226TIP3    H2 9622   5.161   3.056   6.078
 3227TIP3   OH2 9623   4.620   0.760   0.051
 3227TIP3    H1 9624   4.548   0.784  -0.008
 3227TIP3    H2 9625   4.630   0.666   0.040
 3228TIP3   OH2 9626   0.992   6.137   0.790
 3228TIP3    H1 9627   0.987   6.223   0.748
 3228TIP3    H2 9628   0.920   6.087   0.751
 3229TIP3   OH2 9629   0.561   5.353   0.609
 3229TIP3    H1 9630   0.550   5.433   0.557
 3229TIP3    H2 9631   0.534   5.283   0.550
 3230TIP3   OH2 9632   2.666   4.748   2.761
 3230TIP3    H1 9633   2.621   4.671   2.796
 3230TIP3    H2 9634   2.681   4.804   2.838
 3231TIP3   OH2 9635   2.777   6.026   6.047
 3231TIP3    H1 9636   2.768   6.121   6.058
 3231TIP3    H2 9637   2.713   5.990   6.109
 3232TIP3   OH2 9638   1.185   3.823   1.066
 3232TIP3    H1 9639   1.153   3.843   0.978
 3232TIP3    H2 9640   1.172   3.728   1.075
 3233TIP3   OH2 9641   3.702   3.470   1.262
 3233TIP3    H1 9642   3.676   3.523   1.338
 3233TIP3    H2 9643   3.695   3.379   1.293
 3234TIP3   OH2 9644   1.411   1.167   0.684
 3234TIP3    H1 9645   1.399   1.181   0.778
 3234TIP3    H2 9646   1.371   1.081   0.668
 3235TIP3   OH2 9647   1.626   2.647   3.676
 3235TIP3    H1 9648   1.614   2.659   3.770
 3235TIP3    H2 9649   1.721   2.652   3.663
 3236TIP3   OH2 9650   0.610   4.733   5.244
 3236TIP3    H1 9651   0.678   4.684   5.199
 3236TIP3    H2 9652   0.601   4.813   5.194
 3237TIP3   OH2 9653   5.193   3.035   4.431
 3237TIP3    H1 9654   5.238   2.966   4.383
 3237TIP3    H2 9655   5.252   3.057   4.502
 3238TIP3   OH2 9656   2.047   3.796   2.079
 3238TIP3    H1 9657   2.090   3.880   2.098
 3238TIP3    H2 9658   2.078   3.737   2.147
 3239TIP3   OH2 9659   0.269   5.329   6.493
 3239TIP3    H1 9660   0.199   5.270   6.465
 3239TIP3    H2 9661   0.341   5.270   6.518
 3240TIP3   OH2 9662   2.212   7.243   0.138
 3240TIP3    H1 9663   2.179   7.308   0.200
 3240TIP3    H2 9664   2.142   7.234   0.073
 3241TIP3   OH2 9665   6.715   4.793   2.076
 3241TIP3    H1 9666   6.722   4.724   2.010
 3241TIP3    H2 9667   6.791   4.780   2.132
 3242TIP3   OH2 9668   2.341   4.358   5.269
 3242TIP3    H1 9669   2.359   4.400   5.353
 3242TIP3    H2 9670   2.281   4.418   5.225
 3243TIP3   OH2 9671   7.777   7.792   4.414
 3243TIP3    H1 9672   7.714   7.757   4.477
 3243TIP3    H2 9673   7.823   7.714   4.380
 3244TIP3   OH2 9674   2.384   0.303   5.246
 3244TIP3    H1 9675   2.402   0.264   5.331
 3244TIP3    H2 9676   2.357   0.393   5.265
 3245TIP3   OH2 9677   5.904   0.424   1.276
 3245TIP3    H1 9678   5.868   0.489   1.215
 3245TIP3    H2 9679   5.853   0.345   1.260
 3246TIP3   OH2 9680   5.999   4.704   1.125
 3246TIP3    H1 9681   5.911   4.726   1.093
 3246TIP3    H2 9682   6.035   4.788   1.154
 3247TIP3   OH2 9683   1.295   1.253   1.616
 3247TIP3    H1 9684   1.352   1.230   1.689
 3247TIP3    H2 9685   1.349   1.244   1.538
 3248TIP3   OH2 9686   4.568   1.268   6.362
 3248TIP3    H1 9687   4.538   1.359   6.349
 3248TIP3    H2 9688   4.653   1.265   6.318
 3249TIP3   OH2 9689   5.524   5.368   3.040
 3249TIP3    H1 9690   5.444   5.398   2.995
 3249TIP3    H2 9691   5.500   5.370   3.133
 3250TIP3   OH2 9692   4.488   0.764   2.101
 3250TIP3    H1 9693   4.396   0.789   2.105
 3250TIP3    H2 9694   4.497   0.718   2.017
 3251TIP3   OH2 9695   7.250   0.580   0.466
 3251TIP3    H1 9696   7.242   0.544   0.555
 3251TIP3    H2 9697   7.206   0.515   0.411
 3252TIP3   OH2 9698   0.203   2.727   6.593
 3252TIP3    H1 9699   0.121   2.754   6.635
 3252TIP3    H2 9700   0.217   2.638   6.625
 3253TIP3   OH2 9701   7.335   2.239   5.580
 3253TIP3    H1 9702   7.407   2.227   5.642
 3253TIP3    H2 9703   7.378   2.248   5.495
 3254TIP3   OH2 9704   0.474   4.449   5.523
 3254TIP3    H1 9705   0.452   4.521   5.583
 3254TIP3    H2 9706   0.403   4.450   5.459
 3255TIP3   OH2 9707   7.840   5.461   3.831
 3255TIP3    H1 9708   7.825   5.532   3.769
 3255TIP3    H2 9709   7.909   5.494   3.889
 3256TIP3   OH2 9710   4.851   4.965   1.432
 3256TIP3    H1 9711   4.843   4.873   1.406
 3256TIP3    H2 9712   4.894   4.962   1.517
 3257TIP3   OH2 9713   5.792   6.041   5.777
 3257TIP3    H1 9714   5.710   6.007   5.740
 3257TIP3    H2 9715   5.785   6.024   5.871
 3258TIP3   OH2 9716   3.803   6.578   4.502
 3258TIP3    H1 9717   3.719   6.537   4.481
 3258TIP3    H2 9718   3.848   6.583   4.418
 3259TIP3   OH2 9719   2.349   6.399   3.929
 3259TIP3    H1 9720   2.269   6.347   3.943
 3259TIP3    H2 9721   2.317   6.485   3.901
 3260TIP3   OH2 9722   4.401   6.019   6.207
 3260TIP3    H1 9723   4.436   5.987   6.125
 3260TIP3    H2 9724   4.306   6.018   6.195
 3261TIP3   OH2 9725   3.511   3.583   5.213
 3261TIP3    H1 9726   3.516   3.513   5.279
 3261TIP3    H2 9727   3.436   3.635   5.240
 3262TIP3   OH2 9728   7.583   3.235   3.582
 3262TIP3    H1 9729   7.545   3.319   3.608
 3262TIP3    H2 9730   7.514   3.171   3.601
 3263TIP3   OH2 9731   4.405   1.755   0.759
 3263TIP3    H1 9732   4.380   1.687   0.696
 3263TIP3    H2 9733   4.457   1.816   0.708
 3264TIP3   OH2 9734   4.014   4.470   6.024
 3264TIP3    H1 9735   4.035   4.382   6.055
 3264TIP3    H2 9736   4.005   4.461   5.929
 3265TIP3   OH2 9737   4.673   7.484   6.427
 3265TIP3    H1 9738   4.690   7.574   6.454
 3265TIP3    H2 9739   4.746   7.434   6.462
 3266TIP3   OH2 9740   4.534   4.012   0.156
 3266TIP3    H1 9741   4.527   4.104   0.182
 3266TIP3    H2 9742   4.615   4.007   0.107
 3267TIP3   OH2 9743   4.943   5.388   3.360
 3267TIP3    H1 9744   4.881   5.405   3.431
 3267TIP3    H2 9745   4.919   5.302   3.326
 3268TIP3   OH2 9746   0.757   0.693   6.158
 3268TIP3    H1 9747   0.733   0.612   6.203
 3268TIP3    H2 9748   0.781   0.753   6.228
 3269TIP3   OH2 9749   1.097   6.399   5.627
 3269TIP3    H1 9750   1.178   6.380   5.674
 3269TIP3    H2 9751   1.061   6.476   5.671
 3270TIP3   OH2 9752   1.375   6.342   5.675
 3270TIP3    H1 9753   1.391   6.248   5.683
 3270TIP3    H2 9754   1.399   6.362   5.584
 3271TIP3   OH2 9755   6.537   3.359   5.080
 3271TIP3    H1 9756   6.475   3.294   5.112
 3271TIP3    H2 9757   6.495   3.395   5.002
 3272TIP3   OH2 9758   5.082   6.041   6.423
 3272TIP3    H1 9759   5.083   6.131   6.390
 3272TIP3    H2 9760   5.084   6.050   6.518
 3273TIP3   OH2 9761   6.094   5.810   0.874
 3273TIP3    H1 9762   6.090   5.906   0.874
 3273TIP3    H2 9763   6.102   5.787   0.967
 3274TIP3   OH2 9764   2.922   0.084   0.373
 3274TIP3    H1 9765   2.840   0.039   0.350
 3274TIP3    H2 9766   2.894   0.168   0.407
 3275TIP3   OH2 9767   2.775   3.659   1.694
 3275TIP3    H1 9768   2.816   3.579   1.661
 3275TIP3    H2 9769   2.845   3.705   1.741
 3276TIP3   OH2 9770   4.230   0.231   1.131
 3276TIP3    H1 9771   4.192   0.159   1.181
 3276TIP3    H2 9772   4.287   0.188   1.067
 3277TIP3   OH2 9773   4.305   4.778   0.075
 3277TIP3    H1 9774   4.372   4.805   0.013
 3277TIP3    H2 9775   4.351   4.721   0.137
 3278TIP3   OH2 9776   7.577   7.644   4.095
 3278TIP3    H1 9777   7.512   7.679   4.035
 3278TIP3    H2 9778   7.660   7.682   4.066
 3279TIP3   OH2 9779   0.311   7.648   3.541
 3279TIP3    H1 9780   0.303   7.714   3.472
 3279TIP3    H2 9781   0.341   7.697   3.617
 3280TIP3   OH2 9782   0.453   2.726   1.085
 3280TIP3    H1 9783   0.464   2.805   1.139
 3280TIP3    H2 9784   0.359   2.718   1.074
 3281TIP3   OH2 9785   7.062   4.125   5.538
 3281TIP3    H1 9786   7.006   4.181   5.485
 3281TIP3    H2 9787   7.072   4.045   5.487
 3282TIP3   OH2 9788   5.465   6.287   4.865
 3282TIP3    H1 9789   5.405   6.330   4.803
 3282TIP3    H2 9790   5.459   6.194   4.843
 3283TIP3   OH2 9791   3.525   7.701   6.446
 3283TIP3    H1 9792   3.582   7.627   6.425
 3283TIP3    H2 9793   3.476   7.673   6.522
 3284TIP3   OH2 9794   7.009   3.050   6.540
 3284TIP3    H1 9795   7.046   3.004   6.465
 3284TIP3    H2 9796   6.974   2.981   6.596
 3285TIP3   OH2 9797   1.191   0.523   2.965
 3285TIP3    H1 9798   1.273   0.502   3.010
 3285TIP3    H2 9799   1.187   0.460   2.893
 3286TIP3   OH2 9800   3.805   7.314   0.886
 3286TIP3    H1 9801   3.751   7.392   0.871
 3286TIP3    H2 9802   3.870   7.317   0.816
 3287TIP3   OH2 9803   3.016   6.490   1.955
 3287TIP3    H1 9804   3.106   6.515   1.935
 3287TIP3    H2 9805   2.975   6.478   1.869
 3288TIP3   OH2 9806   8.003   2.621   5.984
 3288TIP3    H1 9807   7.989   2.672   5.904
 3288TIP3    H2 9808   8.084   2.655   6.021
 3289TIP3   OH2 9809   4.409   0.486   3.335
 3289TIP3    H1 9810   4.352   0.526   3.401
 3289TIP3    H2 9811   4.495   0.484   3.376
 3290TIP3   OH2 9812   4.422   7.151   5.988
 3290TIP3    H1 9813   4.505   7.162   6.035
 3290TIP3    H2 9814   4.446   7.157   5.895
 3291TIP3   OH2 9815   2.564   1.549  -0.030
 3291TIP3    H1 9816   2.495   1.555   0.037
 3291TIP3    H2 9817   2.644   1.533   0.019
 3292TIP3   OH2 9818   2.269   4.990   5.447
 3292TIP3    H1 9819   2.192   4.950   5.489
 3292TIP3    H2 9820   2.330   5.006   5.519
 3293TIP3   OH2 9821   0.222   5.723   5.434
 3293TIP3    H1 9822   0.220   5.816   5.454
 3293TIP3    H2 9823   0.277   5.685   5.503
 3294TIP3   OH2 9824   7.142   2.118   6.652
 3294TIP3    H1 9825   7.230   2.145   6.678
 3294TIP3    H2 9826   7.153   2.077   6.567
 3295TIP3   OH2 9827   0.232   1.378   1.655
 3295TIP3    H1 9828   0.159   1.325   1.688
 3295TIP3    H2 9829   0.308   1.346   1.704
 3296TIP3   OH2 9830   5.535   3.100   2.028
 3296TIP3    H1 9831   5.476   3.088   1.954
 3296TIP3    H2 9832   5.478   3.114   2.103
 3297TIP3   OH2 9833   1.613   0.901   3.930
 3297TIP3    H1 9834   1.621   0.806   3.921
 3297TIP3    H2 9835   1.582   0.914   4.020
 3298TIP3   OH2 9836   2.924   1.759   3.659
 3298TIP3    H1 9837   2.853   1.754   3.596
 3298TIP3    H2 9838   2.985   1.822   3.621
 3299TIP3   OH2 9839   6.851   1.941   4.226
 3299TIP3    H1 9840   6.927   1.997   4.238
 3299TIP3    H2 9841   6.874   1.885   4.152
 3300TIP3   OH2 9842   3.176   4.601   5.424
 3300TIP3    H1 9843   3.236   4.559   5.363
 3300TIP3    H2 9844   3.226   4.609   5.506
 3301TIP3   OH2 9845   4.916   5.857   2.620
 3301TIP3    H1 9846   4.942   5.944   2.590
 3301TIP3    H2 9847   4.895   5.810   2.539
 3302TIP3   OH2 9848   1.121   1.384   0.807
 3302TIP3    H1 9849   1.081   1.311   0.854
 3302TIP3    H2 9850   1.097   1.369   0.715
 3303TIP3   OH2 9851   7.203   0.979   2.027
 3303TIP3    H1 9852   7.159   0.924   2.091
 3303TIP3    H2 9853   7.143   0.981   1.952
 3304TIP3   OH2 9854   3.194   3.629   2.026
 3304TIP3    H1 9855   3.242   3.695   1.977
 3304TIP3    H2 9856   3.113   3.614   1.977
 3305TIP3   OH2 9857   6.951   6.987   5.658
 3305TIP3    H1 9858   6.869   6.950   5.690
 3305TIP3    H2 9859   6.957   6.957   5.567
 3306TIP3   OH2 9860   2.336   7.242   2.567
 3306TIP3    H1 9861   2.243   7.257   2.552
 3306TIP3    H2 9862   2.360   7.177   2.502
 3307TIP3   OH2 9863   3.152   5.322   3.411
 3307TIP3    H1 9864   3.072   5.298   3.363
 3307TIP3    H2 9865   3.128   5.400   3.460
 3308TIP3   OH2 9866   0.469   1.723   1.057
 3308TIP3    H1 9867   0.374   1.708   1.056
 3308TIP3    H2 9868   0.499   1.699   0.969
 3309TIP3   OH2 9869   4.508   0.546   4.427
 3309TIP3    H1 9870   4.417   0.518   4.441
 3309TIP3    H2 9871   4.550   0.470   4.387
 3310TIP3   OH2 9872   1.267   5.508   4.663
 3310TIP3    H1 9873   1.224   5.451   4.599
 3310TIP3    H2 9874   1.349   5.463   4.684
 3311TIP3   OH2 9875   5.107   3.974   0.060
 3311TIP3    H1 9876   5.109   3.982  -0.036
 3311TIP3    H2 9877   5.120   4.063   0.092
 3312TIP3   OH2 9878   3.929   3.910   0.048
 3312TIP3    H1 9879   3.930   3.862  -0.034
 3312TIP3    H2 9880   3.838   3.940   0.058
 3313TIP3   OH2 9881   2.094   4.391   0.847
 3313TIP3    H1 9882   2.159   4.381   0.916
 3313TIP3    H2 9883   2.012   4.361   0.886
 3314TIP3   OH2 9884   0.749   2.626   0.294
 3314TIP3    H1 9885   0.828   2.631   0.240
 3314TIP3    H2 9886   0.680   2.600   0.233
 3315TIP3   OH2 9887   0.816   1.632   4.853
 3315TIP3    H1 9888   0.776   1.695   4.793
 3315TIP3    H2 9889   0.813   1.676   4.939
 3316TIP3   OH2 9890   5.206   2.736   4.279
 3316TIP3    H1 9891   5.279   2.796   4.263
 3316TIP3    H2 9892   5.236   2.652   4.243
 3317TIP3   OH2 9893   3.296   1.992   2.970
 3317TIP3    H1 9894   3.304   1.898   2.983
 3317TIP3    H2 9895   3.367   2.013   2.908
 3318TIP3   OH2 9896   0.619   4.521   4.649
 3318TIP3    H1 9897   0.559   4.572   4.595
 3318TIP3    H2 9898   0.561   4.468   4.705
 3319TIP3   OH2 9899   6.920   7.003   4.775
 3319TIP3    H1 9900   6.991   6.948   4.741
 3319TIP3    H2 9901   6.899   7.062   4.702
 3320TIP3   OH2 9902   5.528   2.366   4.064
 3320TIP3    H1 9903   5.578   2.360   4.145
 3320TIP3    H2 9904   5.589   2.341   3.996
 3321TIP3   OH2 9905   5.301   3.846   4.254
 3321TIP3    H1 9906   5.298   3.939   4.230
 3321TIP3    H2 9907   5.216   3.811   4.226
 3322TIP3   OH2 9908   7.793   2.532   4.259
 3322TIP3    H1 9909   7.851   2.542   4.335
 3322TIP3    H2 9910   7.836   2.464   4.207
 3323TIP3   OH2 9911   1.505   3.911   2.769
 3323TIP3    H1 9912   1.494   3.818   2.788
 3323TIP3    H2 9913   1.418   3.949   2.782
 3324TIP3   OH2 9914   4.436   1.701   6.629
 3324TIP3    H1 9915   4.374   1.664   6.567
 3324TIP3    H2 9916   4.383   1.751   6.691
 3325TIP3   OH2 9917   3.619   3.221   1.377
 3325TIP3    H1 9918   3.620   3.126   1.372
 3325TIP3    H2 9919   3.527   3.244   1.389
 3326TIP3   OH2 9920   2.254   5.345   5.816
 3326TIP3    H1 9921   2.186   5.383   5.760
 3326TIP3    H2 9922   2.214   5.264   5.850
 3327TIP3   OH2 9923   7.881   4.073   3.716
 3327TIP3    H1 9924   7.846   4.049   3.802
 3327TIP3    H2 9925   7.810   4.052   3.655
 3328TIP3   OH2 9926   5.062   5.121   1.678
 3328TIP3    H1 9927   4.992   5.150   1.736
 3328TIP3    H2 9928   5.118   5.066   1.733
 3329TIP3   OH2 9929   6.772   0.162   2.509
 3329TIP3    H1 9930   6.774   0.215   2.429
 3329TIP3    H2 9931   6.762   0.072   2.478
 3330TIP3   OH2 9932   3.910   0.486   4.205
 3330TIP3    H1 9933   3.998   0.448   4.214
 3330TIP3    H2 9934   3.872   0.476   4.292
 3331TIP3   OH2 9935   0.436   5.176   4.136
 3331TIP3    H1 9936   0.445   5.080   4.134
 3331TIP3    H2 9937   0.468   5.201   4.222
 3332TIP3   OH2 9938   3.321   4.370   4.897
 3332TIP3    H1 9939   3.406   4.374   4.852
 3332TIP3    H2 9940   3.294   4.278   4.890
 3333TIP3   OH2 9941   1.234   7.757   5.871
 3333TIP3    H1 9942   1.234   7.821   5.800
 3333TIP3    H2 9943   1.320   7.716   5.867
 3334TIP3   OH2 9944   4.501   1.656   1.165
 3334TIP3    H1 9945   4.561   1.645   1.092
 3334TIP3    H2 9946   4.547   1.713   1.227
 3335TIP3   OH2 9947   1.290   4.887   0.101
 3335TIP3    H1 9948   1.370   4.937   0.085
 3335TIP3    H2 9949   1.287   4.823   0.030
 3336TIP3   OH2 9950   5.779   1.329   0.606
 3336TIP3    H1 9951   5.793   1.305   0.514
 3336TIP3    H2 9952   5.836   1.270   0.655
 3337TIP3   OH2 9953   5.100   1.907   4.532
 3337TIP3    H1 9954   5.091   1.927   4.439
 3337TIP3    H2 9955   5.042   1.970   4.576
 3338TIP3   OH2 9956   0.958   0.714   1.899
 3338TIP3    H1 9957   0.909   0.631   1.901
 3338TIP3    H2 9958   0.893   0.780   1.875
 3339TIP3   OH2 9959   3.427   2.969   2.569
 3339TIP3    H1 9960   3.505   2.970   2.624
 3339TIP3    H2 9961   3.460   2.975   2.480
 3340TIP3   OH2 9962   3.296   3.402   1.044
 3340TIP3    H1 9963   3.322   3.310   1.033
 3340TIP3    H2 9964   3.371   3.452   1.012
 3341TIP3   OH2 9965  -0.027   1.417   2.900
 3341TIP3    H1 9966   0.047   1.386   2.952
 3341TIP3    H2 9967  -0.040   1.507   2.928
 3342TIP3   OH2 9968   4.506   0.207   5.274
 3342TIP3    H1 9969   4.422   0.217   5.230
 3342TIP3    H2 9970   4.564   0.270   5.231
 3343TIP3   OH2 9971   5.366   1.131   6.218
 3343TIP3    H1 9972   5.286   1.079   6.226
 3343TIP3    H2 9973   5.342   1.217   6.254
 3344TIP3   OH2 9974   3.009   2.814   2.232
 3344TIP3    H1 9975   3.005   2.740   2.293
 3344TIP3    H2 9976   3.083   2.866   2.263
 3345TIP3   OH2 9977   4.502   2.726   4.048
 3345TIP3    H1 9978   4.452   2.775   4.114
 3345TIP3    H2 9979   4.460   2.640   4.046
 3346TIP3   OH2 9980   8.124   2.329   5.125
 3346TIP3    H1 9981   8.141   2.286   5.041
 3346TIP3    H2 9982   8.062   2.399   5.103
 3347TIP3   OH2 9983   1.314   3.143   2.143
 3347TIP3    H1 9984   1.334   3.063   2.193
 3347TIP3    H2 9985   1.269   3.199   2.206
 3348TIP3   OH2 9986  -0.012   7.738   4.517
 3348TIP3    H1 9987  -0.005   7.687   4.598
 3348TIP3    H2 9988  -0.051   7.821   4.545
 3349TIP3   OH2 9989   5.143   1.432   3.413
 3349TIP3    H1 9990   5.183   1.384   3.485
 3349TIP3    H2 9991   5.115   1.364   3.352
 3350TIP3   OH2 9992   6.901   3.759   2.235
 3350TIP3    H1 9993   6.808   3.746   2.220
 3350TIP3    H2 9994   6.940   3.673   2.222
 3351TIP3   OH2 9995   4.926   1.344   2.132
 3351TIP3    H1 9996   4.851   1.285   2.137
 3351TIP3    H2 9997   4.929   1.372   2.040
 3352TIP3   OH2 9998   0.068   1.711   0.178
 3352TIP3    H1 9999   0.111   1.627   0.193
 3352TIP3    H210000   0.119   1.774   0.229
 3353TIP3   OH210001   3.544   4.414   4.425
 3353TIP3    H110002   3.518   4.387   4.336
 3353TIP3    H210003   3.634   4.445   4.415
 3354TIP3   OH210004   7.647   3.036   0.630
 3354TIP3    H110005   7.658   3.072   0.542
 3354TIP3    H210006   7.692   2.952   0.628
 3355TIP3   OH210007   4.714   5.126   2.080
 3355TIP3    H110008   4.641   5.172   2.040
 3355TIP3    H210009   4.791   5.155   2.031
 3356TIP3   OH210010   2.943   2.923   4.669
 3356TIP3    H110011   2.938   3.009   4.711
 3356TIP3    H210012   3.009   2.934   4.600
 3357TIP3   OH210013   6.840   6.376   6.313
 3357TIP3    H110014   6.771   6.432   6.348
 3357TIP3    H210015   6.921   6.422   6.335
 3358TIP3   OH210016   4.261   4.842   0.662
 3358TIP3    H110017   4.190   4.840   0.598
 3358TIP3    H210018   4.321   4.909   0.628
 3359TIP3   OH210019   1.530   5.600   4.307
 3359TIP3    H110020   1.473   5.633   4.376
 3359TIP3    H210021   1.479   5.610   4.226
 3360TIP3   OH210022   1.188   3.488   0.967
 3360TIP3    H110023   1.166   3.457   1.055
 3360TIP3    H210024   1.264   3.545   0.981
 3361TIP3   OH210025   4.446   6.214   2.467
 3361TIP3    H110026   4.366   6.166   2.491
 3361TIP3    H210027   4.484   6.240   2.551
 3362TIP3   OH210028   6.692   2.121   3.094
 3362TIP3    H110029   6.678   2.077   3.010
 3362TIP3    H210030   6.604   2.143   3.125
 3363TIP3   OH210031   1.676   6.787   6.334
 3363TIP3    H110032   1.583   6.789   6.355
 3363TIP3    H210033   1.720   6.796   6.419
 3364TIP3   OH210034   4.229   1.530   3.477
 3364TIP3    H110035   4.253   1.622   3.472
 3364TIP3    H210036   4.239   1.507   3.569
 3365TIP3   OH210037   8.044   1.250   3.983
 3365TIP3    H110038   8.017   1.342   3.980
 3365TIP3    H210039   8.132   1.252   4.019
 3366TIP3   OH210040   2.866   0.386   0.223
 3366TIP3    H110041   2.882   0.360   0.133
 3366TIP3    H210042   2.780   0.350   0.244
 3367TIP3   OH210043   5.059   6.382   1.186
 3367TIP3    H110044   5.087   6.367   1.277
 3367TIP3    H210045   4.967   6.357   1.186
 3368TIP3   OH210046   2.265   1.330   2.749
 3368TIP3    H110047   2.190   1.330   2.808
 3368TIP3    H210048   2.342   1.336   2.806
 3369TIP3   OH210049   7.274   2.017   6.384
 3369TIP3    H110050   7.369   2.002   6.385
 3369TIP3    H210051   7.236   1.932   6.409
 3370TIP3   OH210052   1.738   5.674   1.588
 3370TIP3    H110053   1.687   5.625   1.652
 3370TIP3    H210054   1.822   5.690   1.631
 3371TIP3   OH210055   2.077   1.146   6.698
 3371TIP3    H110056   1.991   1.135   6.737
 3371TIP3    H210057   2.078   1.086   6.623
 3372TIP3   OH210058   1.969   2.359   3.919
 3372TIP3    H110059   1.925   2.279   3.891
 3372TIP3    H210060   1.902   2.407   3.967
 3373TIP3   OH210061   6.337   3.280   4.081
 3373TIP3    H110062   6.387   3.360   4.067
 3373TIP3    H210063   6.313   3.283   4.174
 3374TIP3   OH210064   3.396   1.582   3.656
 3374TIP3    H110065   3.403   1.496   3.616
 3374TIP3    H210066   3.452   1.578   3.733
 3375TIP3   OH210067   0.932   6.396   2.679
 3375TIP3    H110068   0.926   6.303   2.697
 3375TIP3    H210069   0.973   6.401   2.593
 3376TIP3   OH210070   3.009   5.430   2.346
 3376TIP3    H110071   3.039   5.342   2.368
 3376TIP3    H210072   2.987   5.425   2.253
 3377TIP3   OH210073   8.072   0.088   0.252
 3377TIP3    H110074   8.011   0.039   0.196
 3377TIP3    H210075   8.106   0.158   0.196
 3378TIP3   OH210076   6.755   2.403   4.059
 3378TIP3    H110077   6.849   2.384   4.054
 3378TIP3    H210078   6.747   2.492   4.026
 3379TIP3   OH210079   6.116   3.701   6.689
 3379TIP3    H110080   6.151   3.720   6.776
 3379TIP3    H210081   6.134   3.779   6.638
 3380TIP3   OH210082   7.203   0.472   1.967
 3380TIP3    H110083   7.211   0.423   2.049
 3380TIP3    H210084   7.257   0.550   1.981
 3381TIP3   OH210085   3.943   1.962   5.542
 3381TIP3    H110086   3.878   2.010   5.492
 3381TIP3    H210087   3.896   1.930   5.619
 3382TIP3   OH210088   5.502   5.760   0.007
 3382TIP3    H110089   5.417   5.798  -0.013
 3382TIP3    H210090   5.494   5.669  -0.019
 3383TIP3   OH210091   7.003   2.555   1.258
 3383TIP3    H110092   7.048   2.511   1.330
 3383TIP3    H210093   6.910   2.540   1.274
 3384TIP3   OH210094   5.065   4.770   5.784
 3384TIP3    H110095   5.148   4.753   5.828
 3384TIP3    H210096   5.009   4.696   5.809
 3385TIP3   OH210097   5.523   7.433   1.843
 3385TIP3    H110098   5.510   7.504   1.779
 3385TIP3    H210099   5.594   7.381   1.805
 3386TIP3   OH210100   7.755   4.962   6.492
 3386TIP3    H110101   7.665   4.940   6.516
 3386TIP3    H210102   7.807   4.888   6.522
 3387TIP3   OH210103   6.130   2.583   3.193
 3387TIP3    H110104   6.116   2.645   3.265
 3387TIP3    H210105   6.088   2.502   3.223
 3388TIP3   OH210106   1.660   6.175   5.762
 3388TIP3    H110107   1.680   6.153   5.671
 3388TIP3    H210108   1.734   6.140   5.812
 3389TIP3   OH210109   7.780   0.713   2.215
 3389TIP3    H110110   7.701   0.766   2.209
 3389TIP3    H210111   7.824   0.726   2.131
 3390TIP3   OH210112   2.942   6.834   5.240
 3390TIP3    H110113   2.959   6.914   5.190
 3390TIP3    H210114   3.029   6.799   5.258
 3391TIP3   OH210115   3.523   0.509   4.231
 3391TIP3    H110116   3.543   0.461   4.151
 3391TIP3    H210117   3.539   0.447   4.301
 3392TIP3   OH210118   4.770   3.467   4.209
 3392TIP3    H110119   4.840   3.465   4.274
 3392TIP3    H210120   4.691   3.485   4.259
 3393TIP3   OH210121   1.927   0.852   1.533
 3393TIP3    H110122   1.907   0.828   1.624
 3393TIP3    H210123   1.923   0.769   1.485
 3394TIP3   OH210124   4.047   6.795   5.366
 3394TIP3    H110125   4.116   6.760   5.311
 3394TIP3    H210126   4.025   6.880   5.328
 3395TIP3   OH210127   1.442   1.599   3.233
 3395TIP3    H110128   1.430   1.665   3.164
 3395TIP3    H210129   1.398   1.521   3.198
 3396TIP3   OH210130   6.021   2.349   6.617
 3396TIP3    H110131   6.019   2.368   6.523
 3396TIP3    H210132   6.111   2.368   6.643
 3397TIP3   OH210133   4.214   1.283   1.179
 3397TIP3    H110134   4.121   1.266   1.163
 3397TIP3    H210135   4.257   1.257   1.098
 3398TIP3   OH210136   1.842   4.325   0.970
 3398TIP3    H110137   1.820   4.271   1.047
 3398TIP3    H210138   1.831   4.266   0.896
 3399TIP3   OH210139   7.304   3.075   2.212
 3399TIP3    H110140   7.212   3.092   2.230
 3399TIP3    H210141   7.330   3.012   2.280
 3400TIP3   OH210142   8.219   0.392   0.351
 3400TIP3    H110143   8.287   0.326   0.338
 3400TIP3    H210144   8.238   0.429   0.437
 3401TIP3   OH210145   7.092   1.576   3.999
 3401TIP3    H110146   7.053   1.504   4.049
 3401TIP3    H210147   7.170   1.600   4.050
 3402TIP3   OH210148   7.452   3.792   3.129
 3402TIP3    H110149   7.508   3.848   3.182
 3402TIP3    H210150   7.378   3.847   3.106
 3403TIP3   OH210151   8.010   7.368   0.611
 3403TIP3    H110152   7.939   7.396   0.552
 3403TIP3    H210153   7.966   7.338   0.690
 3404TIP3   OH210154   4.549   2.964   5.259
 3404TIP3    H110155   4.531   3.005   5.344
 3404TIP3    H210156   4.626   2.910   5.274
 3405TIP3   OH210157   3.275   2.170   0.935
 3405TIP3    H110158   3.254   2.225   0.860
 3405TIP3    H210159   3.294   2.233   1.005
 3406TIP3   OH210160   1.517   2.354   3.867
 3406TIP3    H110161   1.544   2.302   3.943
 3406TIP3    H210162   1.423   2.339   3.861
 3407TIP3   OH210163   4.099   3.844   3.370
 3407TIP3    H110164   4.125   3.879   3.285
 3407TIP3    H210165   4.081   3.921   3.423
 3408TIP3   OH210166   3.816   5.229   1.512
 3408TIP3    H110167   3.878   5.168   1.553
 3408TIP3    H210168   3.770   5.269   1.585
 3409TIP3   OH210169   7.054   0.600   2.916
 3409TIP3    H110170   7.073   0.644   2.998
 3409TIP3    H210171   7.120   0.635   2.855
 3410TIP3   OH210172   3.225   0.684   6.725
 3410TIP3    H110173   3.140   0.641   6.719
 3410TIP3    H210174   3.272   0.655   6.647
 3411TIP3   OH210175   3.021   0.868   0.789
 3411TIP3    H110176   2.974   0.801   0.738
 3411TIP3    H210177   3.084   0.904   0.727
 3412TIP3   OH210178   3.925   6.213   5.078
 3412TIP3    H110179   3.914   6.178   5.166
 3412TIP3    H210180   3.844   6.261   5.060
 3413TIP3   OH210181   8.032   0.439   3.032
 3413TIP3    H110182   8.026   0.444   2.937
 3413TIP3    H210183   7.960   0.382   3.059
 3414TIP3   OH210184   7.447   7.424   0.855
 3414TIP3    H110185   7.377   7.453   0.797
 3414TIP3    H210186   7.496   7.504   0.875
 3415TIP3   OH210187   2.635   7.833   6.320
 3415TIP3    H110188   2.567   7.767   6.334
 3415TIP3    H210189   2.708   7.785   6.282
 3416TIP3   OH210190   6.946   3.058   0.873
 3416TIP3    H110191   6.861   3.044   0.914
 3416TIP3    H210192   6.985   2.970   0.867
 3417TIP3   OH210193   0.841   1.705   2.312
 3417TIP3    H110194   0.758   1.676   2.275
 3417TIP3    H210195   0.887   1.625   2.335
 3418TIP3   OH210196   4.335   0.835   3.097
 3418TIP3    H110197   4.403   0.882   3.048
 3418TIP3    H210198   4.335   0.747   3.059
 3419TIP3   OH210199   2.224   3.171   2.867
 3419TIP3    H110200   2.258   3.189   2.955
 3419TIP3    H210201   2.254   3.082   2.848
 3420TIP3   OH210202   7.913   3.098   1.741
 3420TIP3    H110203   7.950   3.158   1.676
 3420TIP3    H210204   7.976   3.099   1.812
 3421TIP3   OH210205   6.203   7.109   4.667
 3421TIP3    H110206   6.263   7.155   4.608
 3421TIP3    H210207   6.238   7.020   4.672
 3422TIP3   OH210208   6.546   6.779   6.437
 3422TIP3    H110209   6.523   6.850   6.376
 3422TIP3    H210210   6.611   6.818   6.495
 3423TIP3   OH210211   4.260   1.552   1.158
 3423TIP3    H110212   4.259   1.457   1.169
 3423TIP3    H210213   4.352   1.576   1.171
 3424TIP3   OH210214   7.162   6.776   3.073
 3424TIP3    H110215   7.175   6.789   3.167
 3424TIP3    H210216   7.117   6.692   3.067
 3425TIP3   OH210217   5.318   0.547   3.897
 3425TIP3    H110218   5.320   0.551   3.801
 3425TIP3    H210219   5.385   0.608   3.926
 3426TIP3   OH210220   6.839   5.849   1.679
 3426TIP3    H110221   6.780   5.789   1.634
 3426TIP3    H210222   6.889   5.891   1.609
 3427TIP3   OH210223   0.765   5.815   5.688
 3427TIP3    H110224   0.855   5.786   5.675
 3427TIP3    H210225   0.763   5.846   5.779
 3428TIP3   OH210226   7.099   3.887   4.102
 3428TIP3    H110227   7.098   3.979   4.127
 3428TIP3    H210228   7.191   3.861   4.109
 3429TIP3   OH210229   1.990   3.807   6.304
 3429TIP3    H110230   2.049   3.789   6.378
 3429TIP3    H210231   2.030   3.881   6.259
 3430TIP3   OH210232   5.674   6.642   0.090
 3430TIP3    H110233   5.591   6.656   0.137
 3430TIP3    H210234   5.727   6.591   0.151
 3431TIP3   OH210235   6.886   1.805   1.616
 3431TIP3    H110236   6.884   1.816   1.521
 3431TIP3    H210237   6.941   1.878   1.647
 3432TIP3   OH210238   0.612   3.046   0.585
 3432TIP3    H110239   0.679   3.092   0.534
 3432TIP3    H210240   0.551   3.114   0.612
 3433TIP3   OH210241   3.608   1.172   3.119
 3433TIP3    H110242   3.572   1.257   3.096
 3433TIP3    H210243   3.680   1.191   3.179
 3434TIP3   OH210244   3.178   5.013   2.000
 3434TIP3    H110245   3.270   5.001   1.977
 3434TIP3    H210246   3.175   4.999   2.095
 3435TIP3   OH210247   7.786   3.458   1.802
 3435TIP3    H110248   7.864   3.447   1.857
 3435TIP3    H210249   7.795   3.547   1.766
 3436TIP3   OH210250   6.958   3.641   6.558
 3436TIP3    H110251   6.953   3.696   6.480
 3436TIP3    H210252   6.867   3.636   6.589
 3437TIP3   OH210253   7.210   4.194   3.347
 3437TIP3    H110254   7.193   4.101   3.357
 3437TIP3    H210255   7.290   4.210   3.397
 3438TIP3   OH210256   8.069   5.673   1.876
 3438TIP3    H110257   8.054   5.761   1.911
 3438TIP3    H210258   8.095   5.621   1.952
 3439TIP3   OH210259   1.315   1.865   5.411
 3439TIP3    H110260   1.260   1.788   5.422
 3439TIP3    H210261   1.324   1.901   5.500
 3440TIP3   OH210262   5.675   0.875   4.970
 3440TIP3    H110263   5.666   0.783   4.946
 3440TIP3    H210264   5.681   0.874   5.066
 3441TIP3   OH210265   2.145   4.681   4.963
 3441TIP3    H110266   2.221   4.734   4.940
 3441TIP3    H210267   2.070   4.740   4.948
 3442TIP3   OH210268   2.320   7.346   4.095
 3442TIP3    H110269   2.350   7.423   4.048
 3442TIP3    H210270   2.226   7.360   4.107
 3443TIP3   OH210271   2.167   5.237   5.070
 3443TIP3    H110272   2.121   5.166   5.115
 3443TIP3    H210273   2.106   5.265   5.002
 3444TIP3   OH210274   5.036   1.607   1.312
 3444TIP3    H110275   5.108   1.664   1.341
 3444TIP3    H210276   5.010   1.559   1.390
 3445TIP3   OH210277   2.904   7.195   0.454
 3445TIP3    H110278   2.851   7.161   0.382
 3445TIP3    H210279   2.939   7.116   0.496
 3446TIP3   OH210280   7.434   1.586   6.056
 3446TIP3    H110281   7.434   1.495   6.085
 3446TIP3    H210282   7.427   1.636   6.137
 3447TIP3   OH210283   4.539   6.647   0.791
 3447TIP3    H110284   4.592   6.675   0.865
 3447TIP3    H210285   4.567   6.703   0.719
 3448TIP3   OH210286   1.328   1.576   1.432
 3448TIP3    H110287   1.381   1.615   1.501
 3448TIP3    H210288   1.342   1.482   1.440
 3449TIP3   OH210289   5.181   2.606   3.167
 3449TIP3    H110290   5.246   2.567   3.109
 3449TIP3    H210291   5.221   2.600   3.254
 3450TIP3   OH210292   6.763   3.931   2.770
 3450TIP3    H110293   6.744   3.866   2.837
 3450TIP3    H210294   6.806   3.882   2.700
 3451TIP3   OH210295   6.000   5.504   4.159
 3451TIP3    H110296   5.913   5.519   4.197
 3451TIP3    H210297   6.037   5.592   4.152
 3452TIP3   OH210298   7.206   1.876   1.969
 3452TIP3    H110299   7.260   1.803   1.999
 3452TIP3    H210300   7.229   1.948   2.028
 3453TIP3   OH210301   4.931   0.590   5.794
 3453TIP3    H110302   4.917   0.578   5.887
 3453TIP3    H210303   4.959   0.682   5.785
 3454TIP3   OH210304   6.131   0.577   4.677
 3454TIP3    H110305   6.166   0.540   4.758
 3454TIP3    H210306   6.171   0.664   4.671
 3455TIP3   OH210307   4.829   3.343   6.074
 3455TIP3    H110308   4.855   3.290   5.999
 3455TIP3    H210309   4.734   3.332   6.078
 3456TIP3   OH210310   0.769   1.182   5.735
 3456TIP3    H110311   0.689   1.232   5.717
 3456TIP3    H210312   0.833   1.248   5.761
 3457TIP3   OH210313   3.611   3.132   2.087
 3457TIP3    H110314   3.600   3.219   2.126
 3457TIP3    H210315   3.611   3.148   1.993
 3458TIP3   OH210316   7.703   1.676   6.443
 3458TIP3    H110317   7.786   1.723   6.452
 3458TIP3    H210318   7.650   1.731   6.385
 3459TIP3   OH210319   3.892   1.345   2.425
 3459TIP3    H110320   3.949   1.287   2.475
 3459TIP3    H210321   3.821   1.367   2.486
 3460TIP3   OH210322   4.754   4.518   4.052
 3460TIP3    H110323   4.823   4.566   4.005
 3460TIP3    H210324   4.677   4.528   3.997
 3461TIP3   OH210325   1.749   2.639   6.025
 3461TIP3    H110326   1.671   2.659   6.076
 3461TIP3    H210327   1.786   2.724   6.001
 3462TIP3   OH210328   3.062  -0.025   5.940
 3462TIP3    H110329   2.966  -0.033   5.943
 3462TIP3    H210330   3.087  -0.006   6.031
 3463TIP3   OH210331   3.844   4.333   4.737
 3463TIP3    H110332   3.906   4.359   4.669
 3463TIP3    H210333   3.786   4.269   4.695
 3464TIP3   OH210334   3.026   7.471   2.858
 3464TIP3    H110335   2.979   7.554   2.862
 3464TIP3    H210336   3.096   7.481   2.922
 3465TIP3   OH210337   8.193   5.609   5.819
 3465TIP3    H110338   8.212   5.570   5.904
 3465TIP3    H210339   8.244   5.557   5.757
 3466TIP3   OH210340   2.269   0.026   2.640
 3466TIP3    H110341   2.178   0.054   2.634
 3466TIP3    H210342   2.287   0.022   2.734
 3467TIP3   OH210343   7.694   2.551   3.886
 3467TIP3    H110344   7.771   2.608   3.885
 3467TIP3    H210345   7.631   2.595   3.829
 3468TIP3   OH210346   1.830   6.377   6.503
 3468TIP3    H110347   1.863   6.287   6.496
 3468TIP3    H210348   1.894   6.430   6.455
 3469TIP3   OH210349   5.335   1.378   0.704
 3469TIP3    H110350   5.278   1.309   0.670
 3469TIP3    H210351   5.345   1.438   0.630
 3470TIP3   OH210352   5.706   1.745   3.733
 3470TIP3    H110353   5.680   1.830   3.766
 3470TIP3    H210354   5.714   1.758   3.638
 3471TIP3   OH210355   0.862   4.702   5.738
 3471TIP3    H110356   0.769   4.682   5.742
 3471TIP3    H210357   0.876   4.741   5.652
 3472TIP3   OH210358   6.828   4.864   0.075
 3472TIP3    H110359   6.814   4.785   0.023
 3472TIP3    H210360   6.888   4.836   0.145
 3473TIP3   OH210361   0.583   5.177   5.446
 3473TIP3    H110362   0.621   5.176   5.534
 3473TIP3    H210363   0.658   5.167   5.387
 3474TIP3   OH210364   2.100   3.871   5.070
 3474TIP3    H110365   2.055   3.827   5.142
 3474TIP3    H210366   2.031   3.923   5.028
 3475TIP3   OH210367   3.298   1.360   0.299
 3475TIP3    H110368   3.243   1.281   0.297
 3475TIP3    H210369   3.383   1.331   0.265
 3476TIP3   OH210370   3.052   3.359   4.434
 3476TIP3    H110371   3.037   3.277   4.388
 3476TIP3    H210372   2.978   3.368   4.494
 3477TIP3   OH210373   6.948   1.233   2.912
 3477TIP3    H110374   6.930   1.260   3.002
 3477TIP3    H210375   6.995   1.150   2.920
 3478TIP3   OH210376   3.549   1.268   0.242
 3478TIP3    H110377   3.604   1.347   0.239
 3478TIP3    H210378   3.610   1.197   0.264
 3479TIP3   OH210379   6.380   4.753   1.345
 3479TIP3    H110380   6.333   4.708   1.275
 3479TIP3    H210381   6.448   4.804   1.301
 3480TIP3   OH210382   0.399   2.471   1.128
 3480TIP3    H110383   0.444   2.551   1.101
 3480TIP3    H210384   0.461   2.401   1.111
 3481TIP3   OH210385   0.656   2.787   2.534
 3481TIP3    H110386   0.571   2.813   2.500
 3481TIP3    H210387   0.639   2.763   2.625
 3482TIP3   OH210388   2.097   0.748   5.844
 3482TIP3    H110389   2.150   0.813   5.797
 3482TIP3    H210390   2.009   0.786   5.844
 3483TIP3   OH210391   2.999   2.792   5.719
 3483TIP3    H110392   2.915   2.813   5.760
 3483TIP3    H210393   3.048   2.746   5.787
 3484TIP3   OH210394   6.682   3.939   6.345
 3484TIP3    H110395   6.733   3.863   6.316
 3484TIP3    H210396   6.598   3.931   6.300
 3485TIP3   OH210397   7.973   1.978   1.139
 3485TIP3    H110398   7.932   2.028   1.069
 3485TIP3    H210399   7.968   1.887   1.110
 3486TIP3   OH210400   4.570   5.698   1.789
 3486TIP3    H110401   4.485   5.675   1.827
 3486TIP3    H210402   4.629   5.707   1.864
 3487TIP3   OH210403   2.584   7.660   4.373
 3487TIP3    H110404   2.500   7.634   4.335
 3487TIP3    H210405   2.597   7.750   4.342
 3488TIP3   OH210406   8.337   5.916   1.428
 3488TIP3    H110407   8.264   5.889   1.373
 3488TIP3    H210408   8.369   5.834   1.466
 3489TIP3   OH210409   2.650   2.574   6.539
 3489TIP3    H110410   2.665   2.667   6.519
 3489TIP3    H210411   2.599   2.541   6.465
 3490TIP3   OH210412   0.578   4.050   6.365
 3490TIP3    H110413   0.519   4.125   6.365
 3490TIP3    H210414   0.586   4.024   6.457
 3491TIP3   OH210415   2.755   0.938   3.555
 3491TIP3    H110416   2.827   0.921   3.495
 3491TIP3    H210417   2.725   0.851   3.583
 3492TIP3   OH210418   5.039   7.532   4.767
 3492TIP3    H110419   5.071   7.457   4.717
 3492TIP3    H210420   4.957   7.501   4.806
 3493TIP3   OH210421   2.482   0.407   6.428
 3493TIP3    H110422   2.574   0.422   6.405
 3493TIP3    H210423   2.465   0.468   6.500
 3494TIP3   OH210424   0.510   1.555   2.435
 3494TIP3    H110425   0.421   1.590   2.440
 3494TIP3    H210426   0.513   1.487   2.503
 3495TIP3   OH210427   6.766   0.357   6.727
 3495TIP3    H110428   6.805   0.346   6.813
 3495TIP3    H210429   6.786   0.448   6.703
 3496TIP3   OH210430   7.523   2.844   2.062
 3496TIP3    H110431   7.599   2.876   2.111
 3496TIP3    H210432   7.497   2.918   2.008
 3497TIP3   OH210433   6.658   3.812   1.645
 3497TIP3    H110434   6.594   3.742   1.631
 3497TIP3    H210435   6.651   3.832   1.738
 3498TIP3   OH210436   1.546   3.027   1.647
 3498TIP3    H110437   1.457   3.059   1.661
 3498TIP3    H210438   1.586   3.028   1.735
 3499TIP3   OH210439   2.275   5.831   0.286
 3499TIP3    H110440   2.251   5.759   0.345
 3499TIP3    H210441   2.370   5.840   0.296
 3500TIP3   OH210442   8.039   2.455   0.989
 3500TIP3    H110443   7.944   2.459   0.988
 3500TIP3    H210444   8.066   2.523   1.051
 3501TIP3   OH210445   3.703   1.622   5.880
 3501TIP3    H110446   3.768   1.583   5.822
 3501TIP3    H210447   3.650   1.548   5.910
 3502TIP3   OH210448   1.927   1.657   1.126
 3502TIP3    H110449   1.955   1.584   1.071
 3502TIP3    H210450   1.854   1.622   1.178
 3503TIP3   OH210451   4.561   3.376   3.809
 3503TIP3    H110452   4.652   3.376   3.779
 3503TIP3    H210453   4.519   3.446   3.759
 3504TIP3   OH210454   0.580   0.217   1.825
 3504TIP3    H110455   0.575   0.224   1.921
 3504TIP3    H210456   0.671   0.192   1.808
 3505TIP3   OH210457   8.049   1.452   5.844
 3505TIP3    H110458   7.998   1.472   5.923
 3505TIP3    H210459   8.099   1.532   5.827
 3506TIP3   OH210460   7.296   6.263   4.565
 3506TIP3    H110461   7.389   6.252   4.585
 3506TIP3    H210462   7.264   6.174   4.550
 3507TIP3   OH210463   6.545   1.351   5.188
 3507TIP3    H110464   6.629   1.381   5.224
 3507TIP3    H210465   6.497   1.317   5.263
 3508TIP3   OH210466   6.835   6.323   4.367
 3508TIP3    H110467   6.821   6.230   4.350
 3508TIP3    H210468   6.857   6.360   4.281
 3509TIP3   OH210469   4.244   2.033   0.562
 3509TIP3    H110470   4.259   2.049   0.655
 3509TIP3    H210471   4.150   2.015   0.556
 3510TIP3   OH210472   0.633   1.979   2.118
 3510TIP3    H110473   0.619   2.074   2.116
 3510TIP3    H210474   0.673   1.963   2.204
 3511TIP3   OH210475   0.218   4.859   3.895
 3511TIP3    H110476   0.193   4.946   3.929
 3511TIP3    H210477   0.134   4.817   3.876
 3512TIP3   OH210478   1.680   4.975   2.005
 3512TIP3    H110479   1.707   5.065   1.987
 3512TIP3    H210480   1.658   4.976   2.098
 3513TIP3   OH210481   8.120   2.413   5.854
 3513TIP3    H110482   8.125   2.508   5.864
 3513TIP3    H210483   8.059   2.385   5.923
 3514TIP3   OH210484   4.991   3.781   3.219
 3514TIP3    H110485   5.028   3.846   3.279
 3514TIP3    H210486   4.969   3.831   3.141
 3515TIP3   OH210487   5.939   2.592   4.378
 3515TIP3    H110488   5.961   2.649   4.452
 3515TIP3    H210489   5.887   2.522   4.417
 3516TIP3   OH210490   1.369   1.152   3.990
 3516TIP3    H110491   1.347   1.155   4.083
 3516TIP3    H210492   1.315   1.081   3.955
 3517TIP3   OH210493   1.789   4.738   1.709
 3517TIP3    H110494   1.700   4.705   1.719
 3517TIP3    H210495   1.808   4.727   1.616
 3518TIP3   OH210496   5.296   5.739   2.830
 3518TIP3    H110497   5.257   5.652   2.843
 3518TIP3    H210498   5.309   5.773   2.919
 3519TIP3   OH210499   2.659   7.213   5.935
 3519TIP3    H110500   2.699   7.262   6.007
 3519TIP3    H210501   2.635   7.280   5.871
 3520TIP3   OH210502   0.718   0.945   0.932
 3520TIP3    H110503   0.686   1.031   0.958
 3520TIP3    H210504   0.775   0.918   1.005
 3521TIP3   OH210505   0.673   3.764   1.112
 3521TIP3    H110506   0.732   3.840   1.117
 3521TIP3    H210507   0.604   3.792   1.051
 3522TIP3   OH210508   5.553   4.723   5.524
 3522TIP3    H110509   5.469   4.712   5.478
 3522TIP3    H210510   5.578   4.634   5.549
 3523TIP3   OH210511   1.187   7.858   3.307
 3523TIP3    H110512   1.114   7.799   3.288
 3523TIP3    H210513   1.235   7.814   3.377
 3524TIP3   OH210514   5.549   2.298   0.864
 3524TIP3    H110515   5.604   2.272   0.938
 3524TIP3    H210516   5.554   2.393   0.862
 3525TIP3   OH210517   1.990   7.731   3.519
 3525TIP3    H110518   2.048   7.700   3.450
 3525TIP3    H210519   1.988   7.659   3.583
 3526TIP3   OH210520   3.232   2.970   1.152
 3526TIP3    H110521   3.315   2.952   1.196
 3526TIP3    H210522   3.255   3.029   1.080
 3527TIP3   OH210523   5.464   7.179   4.695
 3527TIP3    H110524   5.444   7.127   4.773
 3527TIP3    H210525   5.550   7.217   4.713
 3528TIP3   OH210526   8.254   6.155   1.346
 3528TIP3    H110527   8.287   6.066   1.359
 3528TIP3    H210528   8.317   6.196   1.286
 3529TIP3   OH210529   7.181   5.621   1.274
 3529TIP3    H110530   7.156   5.685   1.342
 3529TIP3    H210531   7.114   5.632   1.206
 3530TIP3   OH210532   3.339   0.761   2.976
 3530TIP3    H110533   3.316   0.721   3.060
 3530TIP3    H210534   3.379   0.845   3.000
 3531TIP3   OH210535   7.222   4.472   1.888
 3531TIP3    H110536   7.307   4.515   1.900
 3531TIP3    H210537   7.158   4.543   1.895
 3532TIP3   OH210538   2.263   1.163   6.306
 3532TIP3    H110539   2.256   1.258   6.320
 3532TIP3    H210540   2.191   1.142   6.246
 3533TIP3   OH210541   6.238   4.269   3.524
 3533TIP3    H110542   6.251   4.331   3.451
 3533TIP3    H210543   6.177   4.314   3.582
 3534TIP3   OH210544   5.109   6.573   2.212
 3534TIP3    H110545   5.155   6.656   2.202
 3534TIP3    H210546   5.037   6.577   2.149
 3535TIP3   OH210547   2.250   7.229   5.225
 3535TIP3    H110548   2.308   7.178   5.282
 3535TIP3    H210549   2.171   7.243   5.278
 3536TIP3   OH210550   7.995   5.407   0.589
 3536TIP3    H110551   8.062   5.345   0.617
 3536TIP3    H210552   7.923   5.353   0.557
 3537TIP3   OH210553   6.437   3.863   3.592
 3537TIP3    H110554   6.442   3.846   3.498
 3537TIP3    H210555   6.504   3.807   3.630
 3538TIP3   OH210556   4.232   2.591   2.544
 3538TIP3    H110557   4.161   2.651   2.567
 3538TIP3    H210558   4.197   2.542   2.469
 3539TIP3   OH210559   7.247   1.147   2.353
 3539TIP3    H110560   7.340   1.138   2.333
 3539TIP3    H210561   7.218   1.057   2.373
 3540TIP3   OH210562   4.742   1.812   4.854
 3540TIP3    H110563   4.741   1.907   4.855
 3540TIP3    H210564   4.800   1.788   4.927
 3541TIP3   OH210565   6.799   2.970   0.321
 3541TIP3    H110566   6.804   2.913   0.398
 3541TIP3    H210567   6.831   2.915   0.249
 3542TIP3   OH210568   3.144   0.143   6.656
 3542TIP3    H110569   3.187   0.207   6.713
 3542TIP3    H210570   3.216   0.098   6.612
 3543TIP3   OH210571   1.291   7.442   2.582
 3543TIP3    H110572   1.333   7.512   2.632
 3543TIP3    H210573   1.326   7.452   2.493
 3544TIP3   OH210574   5.439   3.464   3.623
 3544TIP3    H110575   5.462   3.532   3.687
 3544TIP3    H210576   5.515   3.406   3.622
 3545TIP3   OH210577   3.281   7.766   0.957
 3545TIP3    H110578   3.315   7.748   0.869
 3545TIP3    H210579   3.356   7.801   1.005
 3546TIP3   OH210580   2.984   6.211   5.691
 3546TIP3    H110581   3.007   6.119   5.676
 3546TIP3    H210582   2.987   6.221   5.786
 3547TIP3   OH210583   5.437   0.065   5.856
 3547TIP3    H110584   5.367   0.130   5.859
 3547TIP3    H210585   5.473   0.072   5.768
 3548TIP3   OH210586   4.533   0.212   6.483
 3548TIP3    H110587   4.568   0.127   6.458
 3548TIP3    H210588   4.455   0.192   6.536
 3549TIP3   OH210589   3.144   6.060   4.019
 3549TIP3    H110590   3.136   5.966   4.002
 3549TIP3    H210591   3.206   6.066   4.092
 3550TIP3   OH210592   3.375   6.699   5.877
 3550TIP3    H110593   3.393   6.671   5.787
 3550TIP3    H210594   3.439   6.769   5.894
 3551TIP3   OH210595   7.557   5.394   4.252
 3551TIP3    H110596   7.610   5.472   4.269
 3551TIP3    H210597   7.468   5.420   4.277
 3552TIP3   OH210598   1.902   5.279   3.050
 3552TIP3    H110599   1.964   5.335   3.003
 3552TIP3    H210600   1.830   5.265   2.988
 3553TIP3   OH210601   3.994   2.418   2.469
 3553TIP3    H110602   3.913   2.410   2.519
 3553TIP3    H210603   3.967   2.460   2.387
 3554TIP3   OH210604   5.057   6.293   6.230
 3554TIP3    H110605   5.062   6.379   6.189
 3554TIP3    H210606   5.026   6.235   6.159
 3555TIP3   OH210607   0.564   7.152   5.502
 3555TIP3    H110608   0.640   7.093   5.506
 3555TIP3    H210609   0.491   7.096   5.479
 3556TIP3   OH210610   5.649   1.162   6.634
 3556TIP3    H110611   5.591   1.136   6.562
 3556TIP3    H210612   5.674   1.251   6.613
 3557TIP3   OH210613   1.313   3.048   4.528
 3557TIP3    H110614   1.389   3.030   4.584
 3557TIP3    H210615   1.257   3.104   4.581
 3558TIP3   OH210616   6.448   2.525   6.051
 3558TIP3    H110617   6.369   2.479   6.024
 3558TIP3    H210618   6.468   2.490   6.138
 3559TIP3   OH210619   4.190   3.237   5.900
 3559TIP3    H110620   4.096   3.251   5.888
 3559TIP3    H210621   4.226   3.324   5.915
 3560TIP3   OH210622   5.164   3.745   3.776
 3560TIP3    H110623   5.167   3.837   3.802
 3560TIP3    H210624   5.194   3.745   3.685
 3561TIP3   OH210625   0.926   7.480   1.134
 3561TIP3    H110626   0.852   7.452   1.188
 3561TIP3    H210627   0.962   7.556   1.180
 3562TIP3   OH210628   2.563   5.706   3.548
 3562TIP3    H110629   2.558   5.798   3.573
 3562TIP3    H210630   2.656   5.691   3.531
 3563TIP3   OH210631   4.016   0.832   1.830
 3563TIP3    H110632   3.948   0.900   1.828
 3563TIP3    H210633   3.967   0.751   1.843
 3564TIP3   OH210634   0.836   0.830   1.127
 3564TIP3    H110635   0.760   0.858   1.178
 3564TIP3    H210636   0.845   0.736   1.147
 3565TIP3   OH210637   0.652   7.443   1.750
 3565TIP3    H110638   0.583   7.487   1.800
 3565TIP3    H210639   0.731   7.493   1.770
 3566TIP3   OH210640   1.857   7.729   5.224
 3566TIP3    H110641   1.832   7.642   5.254
 3566TIP3    H210642   1.813   7.789   5.284
 3567TIP3   OH210643   4.328   0.851   5.226
 3567TIP3    H110644   4.369   0.916   5.283
 3567TIP3    H210645   4.382   0.773   5.235
 3568TIP3   OH210646   7.633   7.756   6.233
 3568TIP3    H110647   7.676   7.756   6.147
 3568TIP3    H210648   7.599   7.845   6.243
 3569TIP3   OH210649   6.996   1.409   4.699
 3569TIP3    H110650   6.905   1.411   4.671
 3569TIP3    H210651   7.011   1.494   4.740
 3570TIP3   OH210652   6.573   6.736   2.916
 3570TIP3    H110653   6.573   6.831   2.902
 3570TIP3    H210654   6.489   6.707   2.881
 3571TIP3   OH210655   8.235   7.590   4.771
 3571TIP3    H110656   8.263   7.499   4.762
 3571TIP3    H210657   8.231   7.605   4.865
 3572TIP3   OH210658   3.261   5.934   4.522
 3572TIP3    H110659   3.273   5.845   4.554
 3572TIP3    H210660   3.168   5.939   4.498
 3573TIP3   OH210661   2.037   1.606   3.150
 3573TIP3    H110662   2.062   1.671   3.084
 3573TIP3    H210663   1.942   1.598   3.142
 3574TIP3   OH210664   0.762   1.739   6.552
 3574TIP3    H110665   0.706   1.800   6.503
 3574TIP3    H210666   0.810   1.795   6.613
 3575TIP3   OH210667   1.904   0.872   4.684
 3575TIP3    H110668   1.855   0.929   4.744
 3575TIP3    H210669   1.948   0.809   4.741
 3576TIP3   OH210670   4.056   4.905   5.327
 3576TIP3    H110671   4.007   4.974   5.281
 3576TIP3    H210672   4.005   4.886   5.405
 3577TIP3   OH210673   6.335   1.986   1.476
 3577TIP3    H110674   6.310   1.894   1.472
 3577TIP3    H210675   6.361   2.000   1.567
 3578TIP3   OH210676   6.973   5.451   3.136
 3578TIP3    H110677   6.959   5.545   3.125
 3578TIP3    H210678   6.973   5.416   3.047
 3579TIP3   OH210679   3.400   3.114   5.325
 3579TIP3    H110680   3.398   3.102   5.420
 3579TIP3    H210681   3.353   3.038   5.290
 3580TIP3   OH210682   0.200   3.702   3.546
 3580TIP3    H110683   0.235   3.677   3.631
 3580TIP3    H210684   0.145   3.628   3.519
 3581TIP3   OH210685   5.698   3.293   2.348
 3581TIP3    H110686   5.708   3.378   2.305
 3581TIP3    H210687   5.604   3.283   2.358
 3582TIP3   OH210688   8.038   0.803   3.361
 3582TIP3    H110689   7.988   0.745   3.418
 3582TIP3    H210690   8.129   0.791   3.389
 3583TIP3   OH210691   5.691   4.985   2.683
 3583TIP3    H110692   5.777   4.945   2.692
 3583TIP3    H210693   5.678   5.033   2.765
 3584TIP3   OH210694   5.922   2.260   5.511
 3584TIP3    H110695   5.870   2.338   5.491
 3584TIP3    H210696   6.007   2.277   5.469
 3585TIP3   OH210697   0.236   4.668   2.642
 3585TIP3    H110698   0.143   4.684   2.623
 3585TIP3    H210699   0.275   4.657   2.555
 3586TIP3   OH210700   0.160   0.202   4.824
 3586TIP3    H110701   0.212   0.234   4.898
 3586TIP3    H210702   0.072   0.192   4.859
 3587TIP3   OH210703   5.369   3.884   0.767
 3587TIP3    H110704   5.455   3.870   0.808
 3587TIP3    H210705   5.346   3.974   0.792
 3588TIP3   OH210706   3.734   3.982   1.372
 3588TIP3    H110707   3.668   4.047   1.393
 3588TIP3    H210708   3.739   3.983   1.276
 3589TIP3   OH210709   0.870   2.374   4.326
 3589TIP3    H110710   0.933   2.443   4.306
 3589TIP3    H210711   0.879   2.312   4.253
 3590TIP3   OH210712   2.955   0.636   4.898
 3590TIP3    H110713   2.998   0.552   4.882
 3590TIP3    H210714   3.012   0.700   4.855
 3591TIP3   OH210715   6.639   3.571   4.433
 3591TIP3    H110716   6.644   3.660   4.466
 3591TIP3    H210717   6.619   3.518   4.510
 3592TIP3   OH210718   2.265   0.220   6.396
 3592TIP3    H110719   2.333   0.285   6.384
 3592TIP3    H210720   2.190   0.253   6.347
 3593TIP3   OH210721   3.960   6.287   4.522
 3593TIP3    H110722   3.897   6.313   4.454
 3593TIP3    H210723   3.933   6.199   4.548
 3594TIP3   OH210724   7.454   4.075   1.068
 3594TIP3    H110725   7.473   4.164   1.097
 3594TIP3    H210726   7.361   4.063   1.086
 3595TIP3   OH210727   3.292   6.466   3.575
 3595TIP3    H110728   3.323   6.419   3.497
 3595TIP3    H210729   3.245   6.542   3.540
 3596TIP3   OH210730   6.531   1.564   1.142
 3596TIP3    H110731   6.480   1.537   1.065
 3596TIP3    H210732   6.501   1.653   1.160
 3597TIP3   OH210733   1.226   7.615   6.562
 3597TIP3    H110734   1.271   7.589   6.642
 3597TIP3    H210735   1.286   7.677   6.520
 3598TIP3   OH210736   7.106   5.864   2.480
 3598TIP3    H110737   7.046   5.828   2.546
 3598TIP3    H210738   7.101   5.958   2.493
 3599TIP3   OH210739   0.305   6.330   2.328
 3599TIP3    H110740   0.399   6.345   2.324
 3599TIP3    H210741   0.282   6.340   2.421
 3600TIP3   OH210742   6.780   0.397   0.127
 3600TIP3    H110743   6.837   0.474   0.126
 3600TIP3    H210744   6.837   0.325   0.153
 3601TIP3   OH210745   4.775   5.197   0.821
 3601TIP3    H110746   4.696   5.143   0.818
 3601TIP3    H210747   4.750   5.272   0.876
 3602TIP3   OH210748   4.844   1.843   4.100
 3602TIP3    H110749   4.754   1.827   4.127
 3602TIP3    H210750   4.896   1.782   4.151
 3603TIP3   OH210751   4.990   4.255   3.833
 3603TIP3    H110752   4.920   4.227   3.773
 3603TIP3    H210753   5.049   4.307   3.779
 3604TIP3   OH210754   3.929   2.372   0.948
 3604TIP3    H110755   3.951   2.447   0.892
 3604TIP3    H210756   3.925   2.409   1.037
 3605TIP3   OH210757   5.433   4.027   4.903
 3605TIP3    H110758   5.436   4.122   4.914
 3605TIP3    H210759   5.524   4.000   4.896
 3606TIP3   OH210760   2.258   1.723   0.756
 3606TIP3    H110761   2.274   1.813   0.726
 3606TIP3    H210762   2.337   1.700   0.805
 3607TIP3   OH210763   4.255   3.027   3.311
 3607TIP3    H110764   4.224   3.117   3.300
 3607TIP3    H210765   4.323   3.017   3.245
 3608TIP3   OH210766   0.123   3.190   6.692
 3608TIP3    H110767   0.028   3.206   6.686
 3608TIP3    H210768   0.140   3.121   6.628
 3609TIP3   OH210769   1.258   6.495   0.640
 3609TIP3    H110770   1.325   6.471   0.704
 3609TIP3    H210771   1.307   6.503   0.557
 3610TIP3   OH210772   2.966   4.520   5.922
 3610TIP3    H110773   2.939   4.455   5.987
 3610TIP3    H210774   3.007   4.469   5.852
 3611TIP3   OH210775   3.077   6.510   4.951
 3611TIP3    H110776   3.082   6.500   5.046
 3611TIP3    H210777   3.162   6.477   4.919
 3612TIP3   OH210778   1.895   3.873   5.905
 3612TIP3    H110779   1.910   3.799   5.846
 3612TIP3    H210780   1.830   3.840   5.968
 3613TIP3   OH210781   3.224   4.267   1.358
 3613TIP3    H110782   3.206   4.343   1.303
 3613TIP3    H210783   3.170   4.197   1.322
 3614TIP3   OH210784   3.497   7.662   0.242
 3614TIP3    H110785   3.519   7.596   0.176
 3614TIP3    H210786   3.401   7.663   0.244
 3615TIP3   OH210787   1.708   6.679   3.045
 3615TIP3    H110788   1.632   6.730   3.017
 3615TIP3    H210789   1.758   6.738   3.101
 3616TIP3   OH210790   2.226   1.826   6.416
 3616TIP3    H110791   2.258   1.810   6.505
 3616TIP3    H210792   2.196   1.917   6.417
 3617TIP3   OH210793   4.811   1.595   2.823
 3617TIP3    H110794   4.877   1.580   2.890
 3617TIP3    H210795   4.848   1.559   2.743
 3618TIP3   OH210796   1.371   5.766   0.844
 3618TIP3    H110797   1.349   5.831   0.777
 3618TIP3    H210798   1.442   5.805   0.894
 3619TIP3   OH210799   0.310   5.737   5.691
 3619TIP3    H110800   0.369   5.811   5.688
 3619TIP3    H210801   0.226   5.774   5.717
 3620TIP3   OH210802   0.471   2.030   0.445
 3620TIP3    H110803   0.550   2.082   0.462
 3620TIP3    H210804   0.493   1.942   0.475
 3621TIP3   OH210805   6.210   1.239   2.077
 3621TIP3    H110806   6.284   1.197   2.121
 3621TIP3    H210807   6.194   1.185   2.000
 3622TIP3   OH210808   8.188   1.754   2.723
 3622TIP3    H110809   8.137   1.693   2.670
 3622TIP3    H210810   8.197   1.711   2.808
 3623TIP3   OH210811   6.464   0.505   6.155
 3623TIP3    H110812   6.383   0.480   6.199
 3623TIP3    H210813   6.498   0.422   6.119
 3624TIP3   OH210814   7.442   4.887   3.547
 3624TIP3    H110815   7.492   4.941   3.607
 3624TIP3    H210816   7.385   4.948   3.500
 3625TIP3   OH210817   0.057   0.910   3.034
 3625TIP3    H110818   0.095   0.974   3.094
 3625TIP3    H210819   0.106   0.921   2.952
 3626TIP3   OH210820   7.336   1.135   3.853
 3626TIP3    H110821   7.317   1.067   3.917
 3626TIP3    H210822   7.301   1.102   3.771
 3627TIP3   OH210823   7.162   4.125   2.173
 3627TIP3    H110824   7.117   4.168   2.245
 3627TIP3    H210825   7.139   4.032   2.183
 3628TIP3   OH210826   7.050   7.415   3.478
 3628TIP3    H110827   7.110   7.365   3.423
 3628TIP3    H210828   6.963   7.392   3.445
 3629TIP3   OH210829   1.118   2.562   1.903
 3629TIP3    H110830   1.092   2.480   1.944
 3629TIP3    H210831   1.148   2.537   1.816
 3630TIP3   OH210832   8.249   2.841   2.379
 3630TIP3    H110833   8.303   2.797   2.313
 3630TIP3    H210834   8.289   2.815   2.463
 3631TIP3   OH210835   6.764   3.193   4.824
 3631TIP3    H110836   6.698   3.252   4.788
 3631TIP3    H210837   6.713   3.121   4.862
 3632TIP3   OH210838   4.765   1.318   5.690
 3632TIP3    H110839   4.855   1.300   5.662
 3632TIP3    H210840   4.726   1.231   5.701
 3633TIP3   OH210841   6.225   6.556   3.095
 3633TIP3    H110842   6.270   6.606   3.027
 3633TIP3    H210843   6.294   6.504   3.136
 3634TIP3   OH210844   7.701   2.277   0.841
 3634TIP3    H110845   7.733   2.320   0.761
 3634TIP3    H210846   7.702   2.346   0.907
 3635TIP3   OH210847   1.426   0.461   0.903
 3635TIP3    H110848   1.442   0.553   0.925
 3635TIP3    H210849   1.513   0.421   0.905
 3636TIP3   OH210850   2.750   2.289   2.324
 3636TIP3    H110851   2.668   2.242   2.342
 3636TIP3    H210852   2.818   2.223   2.336
 3637TIP3   OH210853   4.914   6.118   2.986
 3637TIP3    H110854   4.969   6.197   2.987
 3637TIP3    H210855   4.975   6.047   2.965
 3638TIP3   OH210856   7.126   5.792   0.495
 3638TIP3    H110857   7.075   5.815   0.573
 3638TIP3    H210858   7.070   5.817   0.421
 3639TIP3   OH210859   5.214   1.882   0.937
 3639TIP3    H110860   5.150   1.823   0.977
 3639TIP3    H210861   5.232   1.948   1.003
 3640TIP3   OH210862   6.404   0.697   3.085
 3640TIP3    H110863   6.492   0.661   3.086
 3640TIP3    H210864   6.388   0.720   2.994
 3641TIP3   OH210865   4.456   7.322   6.471
 3641TIP3    H110866   4.425   7.376   6.544
 3641TIP3    H210867   4.530   7.370   6.435
 3642TIP3   OH210868   4.089   5.243   3.831
 3642TIP3    H110869   4.164   5.250   3.771
 3642TIP3    H210870   4.087   5.151   3.857
 3643TIP3   OH210871   4.280   3.196   6.371
 3643TIP3    H110872   4.185   3.191   6.357
 3643TIP3    H210873   4.306   3.105   6.387
 3644TIP3   OH210874   4.668   0.767   4.919
 3644TIP3    H110875   4.719   0.693   4.885
 3644TIP3    H210876   4.732   0.819   4.968
 3645TIP3   OH210877   7.053   1.106   5.206
 3645TIP3    H110878   7.088   1.144   5.287
 3645TIP3    H210879   7.017   1.180   5.158
 3646TIP3   OH210880   7.820   4.751   1.219
 3646TIP3    H110881   7.851   4.814   1.285
 3646TIP3    H210882   7.787   4.805   1.148
 3647TIP3   OH210883   4.539   4.509   2.133
 3647TIP3    H110884   4.485   4.526   2.210
 3647TIP3    H210885   4.571   4.419   2.145
 3648TIP3   OH210886   3.289   4.538   6.588
 3648TIP3    H110887   3.266   4.509   6.676
 3648TIP3    H210888   3.239   4.618   6.575
 3649TIP3   OH210889   1.152   4.171   4.315
 3649TIP3    H110890   1.140   4.227   4.392
 3649TIP3    H210891   1.207   4.221   4.256
 3650TIP3   OH210892   7.819   4.200   0.584
 3650TIP3    H110893   7.746   4.139   0.596
 3650TIP3    H210894   7.804   4.268   0.650
 3651TIP3   OH210895   3.660   0.263   4.282
 3651TIP3    H110896   3.668   0.267   4.187
 3651TIP3    H210897   3.747   0.235   4.312
 3652TIP3   OH210898   1.437   3.118   3.045
 3652TIP3    H110899   1.470   3.115   3.135
 3652TIP3    H210900   1.381   3.041   3.038
 3653TIP3   OH210901   8.063   1.492   1.574
 3653TIP3    H110902   8.101   1.579   1.557
 3653TIP3    H210903   7.969   1.509   1.586
 3654TIP3   OH210904   0.961   6.090   4.247
 3654TIP3    H110905   0.979   5.998   4.270
 3654TIP3    H210906   0.875   6.088   4.205
 3655TIP3   OH210907   7.994   6.363   5.544
 3655TIP3    H110908   7.975   6.334   5.455
 3655TIP3    H210909   7.925   6.323   5.597
 3656TIP3   OH210910   7.963   5.150   0.842
 3656TIP3    H110911   7.955   5.140   0.937
 3656TIP3    H210912   8.049   5.191   0.830
 3657TIP3   OH210913   5.617   6.013   6.623
 3657TIP3    H110914   5.660   6.099   6.616
 3657TIP3    H210915   5.578   6.013   6.711
 3658TIP3   OH210916   8.099   5.836   1.297
 3658TIP3    H110917   8.051   5.819   1.378
 3658TIP3    H210918   8.039   5.810   1.227
 3659TIP3   OH210919   1.462   2.038   1.654
 3659TIP3    H110920   1.435   1.948   1.639
 3659TIP3    H210921   1.555   2.032   1.676
 3660TIP3   OH210922   3.826   2.786   1.366
 3660TIP3    H110923   3.849   2.789   1.273
 3660TIP3    H210924   3.910   2.782   1.412
 3661TIP3   OH210925   3.600   2.328   0.379
 3661TIP3    H110926   3.620   2.398   0.316
 3661TIP3    H210927   3.540   2.270   0.332
 3662TIP3   OH210928   4.793   1.517   1.747
 3662TIP3    H110929   4.823   1.514   1.656
 3662TIP3    H210930   4.845   1.452   1.793
 3663TIP3   OH210931   3.109   2.413   5.884
 3663TIP3    H110932   3.066   2.463   5.954
 3663TIP3    H210933   3.177   2.362   5.930
 3664TIP3   OH210934   2.953   6.651   3.952
 3664TIP3    H110935   3.033   6.643   4.004
 3664TIP3    H210936   2.899   6.715   4.000
 3665TIP3   OH210937   6.637   3.026   4.985
 3665TIP3    H110938   6.596   2.972   5.053
 3665TIP3    H210939   6.631   3.115   5.019
 3666TIP3   OH210940   1.903   6.842   1.670
 3666TIP3    H110941   1.869   6.905   1.607
 3666TIP3    H210942   1.834   6.776   1.677
 3667TIP3   OH210943   5.533   7.164   1.239
 3667TIP3    H110944   5.488   7.162   1.324
 3667TIP3    H210945   5.520   7.076   1.204
 3668TIP3   OH210946   4.471   3.178   0.770
 3668TIP3    H110947   4.502   3.233   0.842
 3668TIP3    H210948   4.433   3.240   0.707
 3669TIP3   OH210949   4.230   1.097   3.154
 3669TIP3    H110950   4.277   1.047   3.220
 3669TIP3    H210951   4.230   1.041   3.077
 3670TIP3   OH210952   6.669   3.953   0.895
 3670TIP3    H110953   6.724   3.938   0.819
 3670TIP3    H210954   6.659   3.866   0.935
 3671TIP3   OH210955   0.537   5.493   2.179
 3671TIP3    H110956   0.476   5.439   2.229
 3671TIP3    H210957   0.490   5.575   2.163
 3672TIP3   OH210958   3.355   3.219   4.250
 3672TIP3    H110959   3.436   3.239   4.204
 3672TIP3    H210960   3.298   3.294   4.235
 3673TIP3   OH210961   5.732   2.299   3.905
 3673TIP3    H110962   5.783   2.250   3.968
 3673TIP3    H210963   5.785   2.377   3.887
 3674TIP3   OH210964   2.741   2.824   2.268
 3674TIP3    H110965   2.738   2.729   2.285
 3674TIP3    H210966   2.827   2.839   2.229
 3675TIP3   OH210967   4.936   5.009   5.778
 3675TIP3    H110968   4.973   4.921   5.765
 3675TIP3    H210969   4.873   4.998   5.849
 3676TIP3   OH210970   7.400   7.345   5.757
 3676TIP3    H110971   7.307   7.343   5.732
 3676TIP3    H210972   7.400   7.330   5.852
 3677TIP3   OH210973   5.986   6.220   3.712
 3677TIP3    H110974   5.924   6.264   3.654
 3677TIP3    H210975   6.031   6.290   3.757
 3678TIP3   OH210976   1.460   4.336   3.095
 3678TIP3    H110977   1.427   4.420   3.126
 3678TIP3    H210978   1.385   4.296   3.051
 3679TIP3   OH210979   7.416   0.144   3.477
 3679TIP3    H110980   7.357   0.171   3.407
 3679TIP3    H210981   7.359   0.134   3.554
 3680TIP3   OH210982   3.754   0.612   4.404
 3680TIP3    H110983   3.791   0.690   4.362
 3680TIP3    H210984   3.661   0.614   4.382
 3681TIP3   OH210985   4.052   4.781   6.711
 3681TIP3    H110986   4.147   4.779   6.717
 3681TIP3    H210987   4.022   4.776   6.802
 3682TIP3   OH210988   1.556   0.967   1.783
 3682TIP3    H110989   1.642   0.988   1.745
 3682TIP3    H210990   1.510   1.051   1.787
 3683TIP3   OH210991   4.764   1.075   5.306
 3683TIP3    H110992   4.735   0.984   5.306
 3683TIP3    H210993   4.842   1.076   5.362
 3684TIP3   OH210994   0.093   4.920   2.874
 3684TIP3    H110995   0.060   4.849   2.818
 3684TIP3    H210996   0.066   4.895   2.962
 3685TIP3   OH210997   2.639   0.812   0.455
 3685TIP3    H110998   2.595   0.896   0.442
 3685TIP3    H210999   2.569   0.752   0.480
 3686TIP3   OH211000   3.475   2.073   4.788
 3686TIP3    H111001   3.535   2.031   4.727
 3686TIP3    H211002   3.393   2.082   4.739
 3687TIP3   OH211003   2.436   4.013   4.556
 3687TIP3    H111004   2.378   3.938   4.565
 3687TIP3    H211005   2.515   3.978   4.515
 3688TIP3   OH211006   3.293   6.235   1.640
 3688TIP3    H111007   3.367   6.246   1.699
 3688TIP3    H211008   3.322   6.273   1.557
 3689TIP3   OH211009   5.252   6.302   3.342
 3689TIP3    H111010   5.284   6.390   3.322
 3689TIP3    H211011   5.297   6.278   3.423
 3690TIP3   OH211012   4.562   4.458   0.895
 3690TIP3    H111013   4.567   4.398   0.820
 3690TIP3    H211014   4.506   4.414   0.958
 3691TIP3   OH211015   1.570   0.699   4.641
 3691TIP3    H111016   1.654   0.695   4.595
 3691TIP3    H211017   1.508   0.657   4.583
 3692TIP3   OH211018   3.611   2.848   1.994
 3692TIP3    H111019   3.684   2.786   1.990
 3692TIP3    H211020   3.547   2.813   1.933
 3693TIP3   OH211021   1.698   3.096   1.319
 3693TIP3    H111022   1.620   3.134   1.361
 3693TIP3    H211023   1.770   3.151   1.349
 3694TIP3   OH211024   5.129   0.178   2.292
 3694TIP3    H111025   5.095   0.089   2.296
 3694TIP3    H211026   5.116   0.205   2.201
 3695TIP3   OH211027   7.251   5.834   3.970
 3695TIP3    H111028   7.174   5.828   4.026
 3695TIP3    H211029   7.227   5.787   3.890
 3696TIP3   OH211030   3.952   6.669   4.288
 3696TIP3    H111031   4.039   6.632   4.302
 3696TIP3    H211032   3.956   6.706   4.200
 3697TIP3   OH211033   3.698   5.407   4.081
 3697TIP3    H111034   3.753   5.423   4.003
 3697TIP3    H211035   3.676   5.494   4.113
 3698TIP3   OH211036   4.958   4.744   2.974
 3698TIP3    H111037   4.948   4.793   2.892
 3698TIP3    H211038   4.931   4.655   2.951
 3699TIP3   OH211039   3.526   3.549   1.015
 3699TIP3    H111040   3.621   3.538   1.018
 3699TIP3    H211041   3.502   3.574   1.104
 3700TIP3   OH211042   6.821   5.219   4.682
 3700TIP3    H111043   6.771   5.148   4.642
 3700TIP3    H211044   6.910   5.185   4.690
 3701TIP3   OH211045   7.901   5.492   6.021
 3701TIP3    H111046   7.884   5.474   6.114
 3701TIP3    H211047   7.996   5.488   6.013
 3702TIP3   OH211048   2.585   4.178   5.222
 3702TIP3    H111049   2.506   4.213   5.263
 3702TIP3    H211050   2.619   4.251   5.169
 3703TIP3   OH211051   0.049   1.859   5.089
 3703TIP3    H111052   0.061   1.923   5.020
 3703TIP3    H211053   0.010   1.909   5.161
 3704TIP3   OH211054   7.610   0.451   2.248
 3704TIP3    H111055   7.524   0.433   2.287
 3704TIP3    H211056   7.637   0.533   2.288
 3705TIP3   OH211057   5.310   4.343   1.111
 3705TIP3    H111058   5.343   4.427   1.081
 3705TIP3    H211059   5.371   4.316   1.179
 3706TIP3   OH211060   2.671   4.199   3.715
 3706TIP3    H111061   2.677   4.159   3.802
 3706TIP3    H211062   2.756   4.181   3.674
 3707TIP3   OH211063   5.701   4.394   4.759
 3707TIP3    H111064   5.729   4.482   4.784
 3707TIP3    H211065   5.772   4.360   4.704
 3708TIP3   OH211066   3.908   7.755   4.710
 3708TIP3    H111067   3.907   7.826   4.647
 3708TIP3    H211068   3.886   7.796   4.794
 3709TIP3   OH211069   0.845   0.540   3.720
 3709TIP3    H111070   0.772   0.541   3.781
 3709TIP3    H211071   0.918   0.578   3.768
 3710TIP3   OH211072   7.032   6.860   5.024
 3710TIP3    H111073   7.099   6.792   5.033
 3710TIP3    H211074   7.011   6.862   4.931
 3711TIP3   OH211075   5.408   0.822   5.973
 3711TIP3    H111076   5.423   0.875   5.896
 3711TIP3    H211077   5.444   0.736   5.951
 3712TIP3   OH211078   7.669   3.669   5.800
 3712TIP3    H111079   7.639   3.745   5.849
 3712TIP3    H211080   7.646   3.594   5.855
 3713TIP3   OH211081   4.874   6.710   2.381
 3713TIP3    H111082   4.837   6.640   2.326
 3713TIP3    H211083   4.829   6.789   2.351
 3714TIP3   OH211084   1.314   2.678   4.856
 3714TIP3    H111085   1.261   2.720   4.788
 3714TIP3    H211086   1.388   2.640   4.808
 3715TIP3   OH211087   4.534   3.910   1.446
 3715TIP3    H111088   4.620   3.953   1.445
 3715TIP3    H211089   4.472   3.981   1.464
 3716TIP3   OH211090   1.165   5.271   1.041
 3716TIP3    H111091   1.117   5.293   0.961
 3716TIP3    H211092   1.112   5.203   1.083
 3717TIP3   OH211093   0.972   3.067   0.255
 3717TIP3    H111094   0.994   3.040   0.344
 3717TIP3    H211095   0.895   3.015   0.232
 3718TIP3   OH211096   0.901   4.888   6.085
 3718TIP3    H111097   0.901   4.843   6.001
 3718TIP3    H211098   0.906   4.981   6.062
 3719TIP3   OH211099   5.600   2.323   6.065
 3719TIP3    H111100   5.573   2.412   6.045
 3719TIP3    H211101   5.617   2.283   5.980
 3720TIP3   OH211102   5.122   6.850   5.391
 3720TIP3    H111103   5.052   6.787   5.406
 3720TIP3    H211104   5.097   6.897   5.311
 3721TIP3   OH211105   8.127   4.869   1.116
 3721TIP3    H111106   8.208   4.920   1.124
 3721TIP3    H211107   8.057   4.933   1.129
 3722TIP3   OH211108   5.200   0.366   4.345
 3722TIP3    H111109   5.122   0.402   4.387
 3722TIP3    H211110   5.260   0.439   4.339
 3723TIP3   OH211111   3.152   0.538   0.975
 3723TIP3    H111112   3.213   0.465   0.984
 3723TIP3    H211113   3.197   0.612   1.014
 3724TIP3   OH211114   7.874   1.002   4.755
 3724TIP3    H111115   7.827   1.034   4.832
 3724TIP3    H211116   7.911   1.081   4.715
 3725TIP3   OH211117   4.074   5.283   1.422
 3725TIP3    H111118   3.988   5.268   1.462
 3725TIP3    H211119   4.071   5.374   1.392
 3726TIP3   OH211120   2.271   6.753   1.484
 3726TIP3    H111121   2.346   6.808   1.510
 3726TIP3    H211122   2.196   6.813   1.488
 3727TIP3   OH211123   2.598   6.430   5.187
 3727TIP3    H111124   2.627   6.370   5.256
 3727TIP3    H211125   2.645   6.512   5.205
 3728TIP3   OH211126   8.233   3.625   6.527
 3728TIP3    H111127   8.186   3.689   6.474
 3728TIP3    H211128   8.325   3.635   6.503
 3729TIP3   OH211129   4.896   6.971   6.785
 3729TIP3    H111130   4.850   6.888   6.791
 3729TIP3    H211131   4.908   6.986   6.692
 3730TIP3   OH211132   2.308   3.652   4.796
 3730TIP3    H111133   2.379   3.636   4.859
 3730TIP3    H211134   2.350   3.701   4.725
 3731TIP3   OH211135   7.206   7.599   3.184
 3731TIP3    H111136   7.296   7.594   3.154
 3731TIP3    H211137   7.212   7.628   3.275
 3732TIP3   OH211138   1.017   7.215   0.804
 3732TIP3    H111139   1.016   7.208   0.900
 3732TIP3    H211140   0.930   7.249   0.782
 3733TIP3   OH211141   5.170   6.481   2.680
 3733TIP3    H111142   5.185   6.535   2.602
 3733TIP3    H211143   5.104   6.417   2.653
 3734TIP3   OH211144   4.601   1.511   3.169
 3734TIP3    H111145   4.694   1.487   3.173
 3734TIP3    H211146   4.555   1.427   3.170
 3735TIP3   OH211147   1.078   1.781   5.683
 3735TIP3    H111148   1.101   1.834   5.606
 3735TIP3    H211149   1.117   1.827   5.757
 3736TIP3   OH211150   0.699   3.825   6.282
 3736TIP3    H111151   0.702   3.827   6.187
 3736TIP3    H211152   0.645   3.900   6.306
 3737TIP3   OH211153   6.517   0.421   0.948
 3737TIP3    H111154   6.482   0.463   1.026
 3737TIP3    H211155   6.443   0.415   0.888
 3738TIP3   OH211156   4.223   0.193   3.694
 3738TIP3    H111157   4.208   0.188   3.599
 3738TIP3    H211158   4.317   0.209   3.702
 3739TIP3   OH211159   5.197   1.316   2.461
 3739TIP3    H111160   5.268   1.256   2.486
 3739TIP3    H211161   5.124   1.258   2.437
 3740TIP3   OH211162   2.838   2.844   1.368
 3740TIP3    H111163   2.774   2.866   1.436
 3740TIP3    H211164   2.921   2.836   1.415
 3741TIP3   OH211165   1.074   3.390   2.597
 3741TIP3    H111166   1.103   3.400   2.687
 3741TIP3    H211167   1.000   3.329   2.602
 3742TIP3   OH211168  -0.033   3.741   2.457
 3742TIP3    H111169  -0.041   3.659   2.408
 3742TIP3    H211170  -0.115   3.787   2.441
 3743TIP3   OH211171   2.826   5.845   4.151
 3743TIP3    H111172   2.741   5.828   4.193
 3743TIP3    H211173   2.890   5.821   4.218
 3744TIP3   OH211174   4.033   5.904   2.794
 3744TIP3    H111175   3.978   5.843   2.746
 3744TIP3    H211176   4.073   5.958   2.725
 3745TIP3   OH211177   2.154   2.145   1.893
 3745TIP3    H111178   2.148   2.204   1.968
 3745TIP3    H211179   2.233   2.173   1.847
 3746TIP3   OH211180   7.733   6.346   1.547
 3746TIP3    H111181   7.740   6.418   1.484
 3746TIP3    H211182   7.799   6.366   1.613
 3747TIP3   OH211183   7.973   0.062   4.304
 3747TIP3    H111184   7.903  -0.003   4.298
 3747TIP3    H211185   7.960   0.103   4.390
 3748TIP3   OH211186   0.460   6.924   2.289
 3748TIP3    H111187   0.445   6.995   2.227
 3748TIP3    H211188   0.501   6.966   2.365
 3749TIP3   OH211189   6.360   0.669   2.670
 3749TIP3    H111190   6.283   0.657   2.615
 3749TIP3    H211191   6.380   0.762   2.662
 3750TIP3   OH211192   1.572   3.386   4.449
 3750TIP3    H111193   1.575   3.481   4.435
 3750TIP3    H211194   1.560   3.350   4.362
 3751TIP3   OH211195   4.657   3.966   0.516
 3751TIP3    H111196   4.723   3.955   0.447
 3751TIP3    H211197   4.692   4.034   0.573
 3752TIP3   OH211198   5.940   4.834   3.639
 3752TIP3    H111199   5.929   4.774   3.712
 3752TIP3    H211200   5.942   4.921   3.679
 3753TIP3   OH211201   2.446   5.178   6.165
 3753TIP3    H111202   2.482   5.151   6.081
 3753TIP3    H211203   2.404   5.100   6.201
 3754TIP3   OH211204   0.350   5.802   4.296
 3754TIP3    H111205   0.348   5.891   4.260
 3754TIP3    H211206   0.325   5.746   4.223
 3755TIP3   OH211207   0.440   5.924   1.919
 3755TIP3    H111208   0.508   5.988   1.941
 3755TIP3    H211209   0.480   5.839   1.938
 3756TIP3   OH211210   2.578   3.723   2.809
 3756TIP3    H111211   2.609   3.639   2.844
 3756TIP3    H211212   2.643   3.747   2.743
 3757TIP3   OH211213   3.884   3.674   1.152
 3757TIP3    H111214   3.917   3.729   1.223
 3757TIP3    H211215   3.834   3.606   1.197
 3758TIP3   OH211216   5.633   6.359   2.725
 3758TIP3    H111217   5.642   6.367   2.630
 3758TIP3    H211218   5.555   6.410   2.746
 3759TIP3   OH211219   5.067   5.580   2.866
 3759TIP3    H111220   5.021   5.544   2.790
 3759TIP3    H211221   5.000   5.590   2.933
 3760TIP3   OH211222   1.575   3.260   0.989
 3760TIP3    H111223   1.491   3.266   1.034
 3760TIP3    H211224   1.640   3.277   1.057
 3761TIP3   OH211225   3.889   4.366   0.555
 3761TIP3    H111226   3.840   4.409   0.485
 3761TIP3    H211227   3.973   4.412   0.556
 3762TIP3   OH211228   2.000   4.304   3.393
 3762TIP3    H111229   2.077   4.290   3.448
 3762TIP3    H211230   1.926   4.283   3.451
 3763TIP3   OH211231   4.248   6.802   6.183
 3763TIP3    H111232   4.258   6.824   6.090
 3763TIP3    H211233   4.164   6.755   6.187
 3764TIP3   OH211234   1.829   5.473   3.492
 3764TIP3    H111235   1.844   5.383   3.463
 3764TIP3    H211236   1.884   5.526   3.435
 3765TIP3   OH211237   7.014   3.378   3.026
 3765TIP3    H111238   7.005   3.284   3.040
 3765TIP3    H211239   7.043   3.386   2.935
 3766TIP3   OH211240   3.427   5.552   4.860
 3766TIP3    H111241   3.474   5.565   4.943
 3766TIP3    H211242   3.343   5.513   4.886
 3767TIP3   OH211243   2.276   0.938   0.233
 3767TIP3    H111244   2.289   0.893   0.150
 3767TIP3    H211245   2.257   1.029   0.208
 3768TIP3   OH211246   5.558   7.703   2.035
 3768TIP3    H111247   5.479   7.739   2.075
 3768TIP3    H211248   5.597   7.777   1.988
 3769TIP3   OH211249   4.234   4.281   6.041
 3769TIP3    H111250   4.188   4.221   5.982
 3769TIP3    H211251   4.325   4.250   6.041
 3770TIP3   OH211252   6.491   2.601   5.525
 3770TIP3    H111253   6.456   2.517   5.496
 3770TIP3    H211254   6.494   2.655   5.446
 3771TIP3   OH211255   4.287   2.530   1.193
 3771TIP3    H111256   4.380   2.537   1.170
 3771TIP3    H211257   4.285   2.539   1.288
 3772TIP3   OH211258   2.251   3.517   6.245
 3772TIP3    H111259   2.273   3.454   6.178
 3772TIP3    H211260   2.323   3.581   6.244
 3773TIP3   OH211261   8.210   7.012   4.433
 3773TIP3    H111262   8.168   7.086   4.390
 3773TIP3    H211263   8.184   6.936   4.380
 3774TIP3   OH211264   1.670   6.198   0.530
 3774TIP3    H111265   1.680   6.110   0.565
 3774TIP3    H211266   1.735   6.250   0.578
 3775TIP3   OH211267   5.909   4.948   4.732
 3775TIP3    H111268   5.945   4.966   4.645
 3775TIP3    H211269   5.879   5.033   4.764
 3776TIP3   OH211270   2.070   7.234   2.511
 3776TIP3    H111271   1.990   7.231   2.564
 3776TIP3    H211272   2.039   7.218   2.422
 3777TIP3   OH211273   2.168   5.781   5.869
 3777TIP3    H111274   2.217   5.756   5.791
 3777TIP3    H211275   2.128   5.865   5.847
 3778TIP3   OH211276   2.403   4.620   4.723
 3778TIP3    H111277   2.479   4.576   4.761
 3778TIP3    H211278   2.435   4.707   4.697
 3779TIP3   OH211279   0.362   0.513   4.063
 3779TIP3    H111280   0.358   0.422   4.032
 3779TIP3    H211281   0.304   0.561   4.004
 3780TIP3   OH211282   5.705   5.569   3.127
 3780TIP3    H111283   5.637   5.636   3.117
 3780TIP3    H211284   5.669   5.492   3.083
 3781TIP3   OH211285   7.902   3.087   3.074
 3781TIP3    H111286   7.819   3.061   3.112
 3781TIP3    H211287   7.895   3.181   3.062
 3782TIP3   OH211288   2.816   0.286   5.040
 3782TIP3    H111289   2.723   0.264   5.033
 3782TIP3    H211290   2.824   0.330   5.125
 3783TIP3   OH211291   4.639   2.673   2.679
 3783TIP3    H111292   4.591   2.713   2.607
 3783TIP3    H211293   4.610   2.721   2.757
 3784TIP3   OH211294   5.260   7.020   0.261
 3784TIP3    H111295   5.341   7.065   0.237
 3784TIP3    H211296   5.288   6.936   0.295
 3785TIP3   OH211297   6.012   3.495   6.363
 3785TIP3    H111298   6.045   3.582   6.338
 3785TIP3    H211299   5.954   3.470   6.291
 3786TIP3   OH211300   4.857   1.608   5.565
 3786TIP3    H111301   4.780   1.551   5.573
 3786TIP3    H211302   4.920   1.555   5.515
 3787TIP3   OH211303   3.564   5.849   3.211
 3787TIP3    H111304   3.637   5.829   3.153
 3787TIP3    H211305   3.601   5.906   3.278
 3788TIP3   OH211306   8.243   0.088   2.654
 3788TIP3    H111307   8.187   0.095   2.577
 3788TIP3    H211308   8.182   0.073   2.727
 3789TIP3   OH211309   1.250   1.988   4.545
 3789TIP3    H111310   1.263   1.904   4.502
 3789TIP3    H211311   1.300   1.982   4.626
 3790TIP3   OH211312   7.811   2.348   1.237
 3790TIP3    H111313   7.796   2.257   1.263
 3790TIP3    H211314   7.890   2.373   1.283
 3791TIP3   OH211315   7.709   5.395   0.508
 3791TIP3    H111316   7.710   5.485   0.476
 3791TIP3    H211317   7.685   5.343   0.432
 3792TIP3   OH211318   0.176   5.095   5.790
 3792TIP3    H111319   0.183   5.166   5.854
 3792TIP3    H211320   0.171   5.140   5.705
 3793TIP3   OH211321   2.303   1.217   0.170
 3793TIP3    H111322   2.283   1.276   0.097
 3793TIP3    H211323   2.396   1.231   0.187
 3794TIP3   OH211324   6.927   0.885   1.611
 3794TIP3    H111325   6.906   0.813   1.552
 3794TIP3    H211326   6.850   0.942   1.609
 3795TIP3   OH211327   7.452   7.205   4.892
 3795TIP3    H111328   7.360   7.189   4.910
 3795TIP3    H211329   7.459   7.300   4.883
 3796TIP3   OH211330   6.139   4.912   1.299
 3796TIP3    H111331   6.200   4.840   1.290
 3796TIP3    H211332   6.162   4.973   1.229
 3797TIP3   OH211333   0.981   7.114   1.502
 3797TIP3    H111334   1.048   7.145   1.562
 3797TIP3    H211335   0.909   7.177   1.512
 3798TIP3   OH211336   7.605   0.955   6.226
 3798TIP3    H111337   7.665   0.881   6.218
 3798TIP3    H211338   7.660   1.033   6.217
 3799TIP3   OH211339   7.973   4.131   1.114
 3799TIP3    H111340   7.889   4.174   1.123
 3799TIP3    H211341   7.999   4.146   1.023
 3800TIP3   OH211342   5.561   0.624   6.536
 3800TIP3    H111343   5.577   0.680   6.460
 3800TIP3    H211344   5.485   0.662   6.578
 3801TIP3   OH211345   4.685   3.247   6.342
 3801TIP3    H111346   4.752   3.314   6.331
 3801TIP3    H211347   4.715   3.195   6.416
 3802TIP3   OH211348   3.527   2.892   0.787
 3802TIP3    H111349   3.454   2.859   0.839
 3802TIP3    H211350   3.486   2.944   0.718
 3803TIP3   OH211351   3.951   0.844   0.625
 3803TIP3    H111352   3.931   0.909   0.693
 3803TIP3    H211353   3.981   0.896   0.551
 3804TIP3   OH211354   7.233   4.543   6.103
 3804TIP3    H111355   7.298   4.483   6.139
 3804TIP3    H211356   7.280   4.591   6.034
 3805TIP3   OH211357   0.192   0.481   2.509
 3805TIP3    H111358   0.166   0.416   2.573
 3805TIP3    H211359   0.207   0.432   2.429
 3806TIP3   OH211360   4.378   7.215   3.936
 3806TIP3    H111361   4.457   7.198   3.886
 3806TIP3    H211362   4.307   7.212   3.871
 3807TIP3   OH211363   4.652   4.318   2.476
 3807TIP3    H111364   4.743   4.317   2.448
 3807TIP3    H211365   4.609   4.254   2.421
 3808TIP3   OH211366   7.828   3.698   0.626
 3808TIP3    H111367   7.920   3.703   0.651
 3808TIP3    H211368   7.809   3.604   0.624
 3809TIP3   OH211369   0.280   1.377   4.296
 3809TIP3    H111370   0.272   1.370   4.201
 3809TIP3    H211371   0.261   1.469   4.316
 3810TIP3   OH211372   5.064   0.341   1.051
 3810TIP3    H111373   5.061   0.436   1.065
 3810TIP3    H211374   5.092   0.305   1.136
 3811TIP3   OH211375   6.078   2.994   4.239
 3811TIP3    H111376   6.149   2.965   4.182
 3811TIP3    H211377   6.049   3.078   4.202
 3812TIP3   OH211378   1.532   1.529   4.716
 3812TIP3    H111379   1.563   1.619   4.716
 3812TIP3    H211380   1.437   1.536   4.723
 3813TIP3   OH211381   2.171   5.017   1.348
 3813TIP3    H111382   2.240   5.051   1.291
 3813TIP3    H211383   2.116   4.965   1.289
 3814TIP3   OH211384   3.655   0.716   6.220
 3814TIP3    H111385   3.582   0.755   6.172
 3814TIP3    H211386   3.637   0.622   6.221
 3815TIP3   OH211387   2.532   0.267   5.022
 3815TIP3    H111388   2.472   0.299   5.089
 3815TIP3    H211389   2.518   0.326   4.948
 3816TIP3   OH211390   6.296   0.771   1.663
 3816TIP3    H111391   6.206   0.740   1.655
 3816TIP3    H211392   6.349   0.691   1.666
 3817TIP3   OH211393   4.031   4.233   1.494
 3817TIP3    H111394   4.059   4.149   1.531
 3817TIP3    H211395   3.946   4.250   1.536
 3818TIP3   OH211396   6.418   3.785   3.323
 3818TIP3    H111397   6.382   3.701   3.293
 3818TIP3    H211398   6.446   3.829   3.242
 3819TIP3   OH211399   2.002   6.764   2.827
 3819TIP3    H111400   2.026   6.671   2.824
 3819TIP3    H211401   2.053   6.799   2.900
 3820TIP3   OH211402   0.636   4.948   5.080
 3820TIP3    H111403   0.621   4.909   4.994
 3820TIP3    H211404   0.622   5.042   5.066
 3821TIP3   OH211405   5.880   2.771   3.394
 3821TIP3    H111406   5.803   2.827   3.406
 3821TIP3    H211407   5.863   2.725   3.311
 3822TIP3   OH211408   4.792   2.805   0.819
 3822TIP3    H111409   4.866   2.850   0.777
 3822TIP3    H211410   4.771   2.859   0.895
 3823TIP3   OH211411   3.765   3.426   3.164
 3823TIP3    H111412   3.817   3.441   3.243
 3823TIP3    H211413   3.701   3.360   3.190
 3824TIP3   OH211414   3.272   4.959   2.766
 3824TIP3    H111415   3.281   5.029   2.831
 3824TIP3    H211416   3.195   4.910   2.795
 3825TIP3   OH211417   3.382   6.725   0.261
 3825TIP3    H111418   3.478   6.733   0.264
 3825TIP3    H211419   3.357   6.707   0.351
 3826TIP3   OH211420   5.933   6.855   6.726
 3826TIP3    H111421   5.849   6.818   6.698
 3826TIP3    H211422   5.982   6.869   6.644
 3827TIP3   OH211423   3.081   2.492   0.919
 3827TIP3    H111424   3.121   2.477   0.834
 3827TIP3    H211425   3.086   2.587   0.932
 3828TIP3   OH211426   0.831   0.409   4.032
 3828TIP3    H111427   0.909   0.463   4.019
 3828TIP3    H211428   0.759   0.472   4.037
 3829TIP3   OH211429   7.075   0.963   4.214
 3829TIP3    H111430   7.019   0.906   4.161
 3829TIP3    H211431   7.054   0.939   4.305
 3830TIP3   OH211432   3.940   2.752   3.172
 3830TIP3    H111433   3.905   2.841   3.162
 3830TIP3    H211434   4.016   2.762   3.229
 3831TIP3   OH211435   7.134   7.299   5.637
 3831TIP3    H111436   7.154   7.229   5.575
 3831TIP3    H211437   7.097   7.255   5.713
 3832TIP3   OH211438   3.235   6.180   6.343
 3832TIP3    H111439   3.217   6.223   6.260
 3832TIP3    H211440   3.180   6.102   6.342
 3833TIP3   OH211441   6.867   6.338   2.457
 3833TIP3    H111442   6.891   6.253   2.420
 3833TIP3    H211443   6.947   6.368   2.501
 3834TIP3   OH211444   7.286   7.383   0.379
 3834TIP3    H111445   7.195   7.385   0.349
 3834TIP3    H211446   7.294   7.458   0.438
 3835TIP3   OH211447   7.932   0.128   3.933
 3835TIP3    H111448   7.848   0.087   3.954
 3835TIP3    H211449   7.969   0.072   3.866
 3836TIP3   OH211450   4.384   4.630   5.554
 3836TIP3    H111451   4.472   4.618   5.517
 3836TIP3    H211452   4.354   4.541   5.573
 3837TIP3   OH211453   1.788   4.826   6.378
 3837TIP3    H111454   1.868   4.774   6.376
 3837TIP3    H211455   1.731   4.780   6.440
 3838TIP3   OH211456   2.691   2.569   2.280
 3838TIP3    H111457   2.656   2.576   2.191
 3838TIP3    H211458   2.727   2.481   2.285
 3839TIP3   OH211459   2.108   5.483   1.650
 3839TIP3    H111460   2.047   5.552   1.675
 3839TIP3    H211461   2.189   5.529   1.628
 3840TIP3   OH211462   5.034   7.621   5.932
 3840TIP3    H111463   4.972   7.567   5.883
 3840TIP3    H211464   5.071   7.681   5.868
 3841TIP3   OH211465   7.005   3.855   5.346
 3841TIP3    H111466   7.076   3.901   5.301
 3841TIP3    H211467   7.045   3.772   5.373
 3842TIP3   OH211468   4.220   5.751   2.926
 3842TIP3    H111469   4.277   5.765   2.851
 3842TIP3    H211470   4.149   5.815   2.915
 3843TIP3   OH211471   0.225   3.142   3.538
 3843TIP3    H111472   0.300   3.201   3.534
 3843TIP3    H211473   0.215   3.112   3.447
 3844TIP3   OH211474   3.497   3.119   4.793
 3844TIP3    H111475   3.440   3.196   4.789
 3844TIP3    H211476   3.439   3.047   4.818
 3845TIP3   OH211477   7.060   1.302   2.241
 3845TIP3    H111478   7.100   1.383   2.207
 3845TIP3    H211479   7.134   1.243   2.254
 3846TIP3   OH211480   2.819   7.036   3.830
 3846TIP3    H111481   2.761   7.107   3.801
 3846TIP3    H211482   2.791   7.016   3.919
 3847TIP3   OH211483   4.176   1.019   1.707
 3847TIP3    H111484   4.130   1.080   1.765
 3847TIP3    H211485   4.128   0.937   1.715
 3848TIP3   OH211486   3.788   2.043   0.956
 3848TIP3    H111487   3.780   2.083   1.043
 3848TIP3    H211488   3.877   2.009   0.953
 3849TIP3   OH211489   7.377   6.661   6.528
 3849TIP3    H111490   7.433   6.583   6.534
 3849TIP3    H211491   7.362   6.686   6.619
 3850TIP3   OH211492   6.310   1.110   2.580
 3850TIP3    H111493   6.354   1.157   2.509
 3850TIP3    H211494   6.237   1.167   2.605
 3851TIP3   OH211495   2.745   2.567   5.755
 3851TIP3    H111496   2.778   2.480   5.734
 3851TIP3    H211497   2.661   2.551   5.797
 3852TIP3   OH211498   3.188   3.750   0.689
 3852TIP3    H111499   3.155   3.689   0.623
 3852TIP3    H211500   3.116   3.811   0.704
 3853TIP3   OH211501   2.376   2.519   1.866
 3853TIP3    H111502   2.299   2.518   1.923
 3853TIP3    H211503   2.389   2.428   1.841
 3854TIP3   OH211504   0.971   1.946   3.847
 3854TIP3    H111505   1.065   1.955   3.859
 3854TIP3    H211506   0.944   2.030   3.810
 3855TIP3   OH211507   3.084   3.626   3.939
 3855TIP3    H111508   3.087   3.533   3.918
 3855TIP3    H211509   3.173   3.658   3.921
 3856TIP3   OH211510   0.284   6.724   5.406
 3856TIP3    H111511   0.317   6.652   5.460
 3856TIP3    H211512   0.199   6.745   5.443
 3857TIP3   OH211513   5.738   3.193   1.861
 3857TIP3    H111514   5.645   3.168   1.855
 3857TIP3    H211515   5.779   3.150   1.786
 3858TIP3   OH211516   0.227   1.272   2.008
 3858TIP3    H111517   0.297   1.276   1.943
 3858TIP3    H211518   0.224   1.360   2.046
 3859TIP3   OH211519   1.185   3.533   4.250
 3859TIP3    H111520   1.191   3.439   4.264
 3859TIP3    H211521   1.116   3.544   4.185
 3860TIP3   OH211522   2.177   2.098   6.449
 3860TIP3    H111523   2.093   2.142   6.463
 3860TIP3    H211524   2.231   2.124   6.524
 3861TIP3   OH211525   1.844   3.381   1.489
 3861TIP3    H111526   1.857   3.315   1.557
 3861TIP3    H211527   1.912   3.447   1.505
 3862TIP3   OH211528   2.010   4.672   3.618
 3862TIP3    H111529   2.033   4.592   3.665
 3862TIP3    H211530   2.054   4.742   3.667
 3863TIP3   OH211531   5.111   5.550   1.766
 3863TIP3    H111532   5.078   5.634   1.734
 3863TIP3    H211533   5.202   5.567   1.790
 3864TIP3   OH211534   8.202   0.893   2.213
 3864TIP3    H111535   8.163   0.966   2.166
 3864TIP3    H211536   8.177   0.816   2.164
 3865TIP3   OH211537   2.932   5.368   1.949
 3865TIP3    H111538   2.999   5.413   2.001
 3865TIP3    H211539   2.930   5.280   1.985
 3866TIP3   OH211540   5.711   3.840   1.922
 3866TIP3    H111541   5.642   3.791   1.878
 3866TIP3    H211542   5.704   3.929   1.887
 3867TIP3   OH211543   8.041   3.396   1.175
 3867TIP3    H111544   7.968   3.351   1.133
 3867TIP3    H211545   8.111   3.330   1.178
 3868TIP3   OH211546   0.253   2.418   6.649
 3868TIP3    H111547   0.260   2.349   6.582
 3868TIP3    H211548   0.223   2.371   6.727
 3869TIP3   OH211549   5.441   7.719   3.144
 3869TIP3    H111550   5.388   7.799   3.151
 3869TIP3    H211551   5.420   7.683   3.058
 3870TIP3   OH211552   3.877   5.137   5.871
 3870TIP3    H111553   3.897   5.123   5.779
 3870TIP3    H211554   3.908   5.226   5.889
 3871TIP3   OH211555   3.836   5.229   5.494
 3871TIP3    H111556   3.754   5.222   5.543
 3871TIP3    H211557   3.828   5.312   5.446
 3872TIP3   OH211558   1.745   6.421   4.601
 3872TIP3    H111559   1.771   6.512   4.617
 3872TIP3    H211560   1.741   6.382   4.689
 3873TIP3   OH211561   0.015   1.295   5.333
 3873TIP3    H111562   0.031   1.389   5.331
 3873TIP3    H211563   0.012   1.269   5.241
 3874TIP3   OH211564   5.391   1.464   3.075
 3874TIP3    H111565   5.463   1.402   3.059
 3874TIP3    H211566   5.349   1.474   2.989
 3875TIP3   OH211567   6.724   7.637   5.859
 3875TIP3    H111568   6.634   7.669   5.855
 3875TIP3    H211569   6.735   7.585   5.780
 3876TIP3   OH211570   7.805   6.340   2.799
 3876TIP3    H111571   7.737   6.387   2.750
 3876TIP3    H211572   7.772   6.250   2.804
 3877TIP3   OH211573   6.644   2.920   0.624
 3877TIP3    H111574   6.738   2.913   0.605
 3877TIP3    H211575   6.607   2.839   0.590
 3878TIP3   OH211576   1.948   5.747   1.324
 3878TIP3    H111577   1.913   5.765   1.236
 3878TIP3    H211578   2.042   5.764   1.316
 3879TIP3   OH211579   6.299   0.850   5.620
 3879TIP3    H111580   6.239   0.913   5.659
 3879TIP3    H211581   6.386   0.881   5.646
 3880TIP3   OH211582   1.989   0.369   3.587
 3880TIP3    H111583   2.051   0.384   3.658
 3880TIP3    H211584   1.942   0.289   3.613
 3881TIP3   OH211585   2.686   6.964   4.298
 3881TIP3    H111586   2.595   6.944   4.322
 3881TIP3    H211587   2.735   6.951   4.379
 3882TIP3   OH211588   2.801   1.690   4.880
 3882TIP3    H111589   2.862   1.744   4.829
 3882TIP3    H211590   2.724   1.682   4.824
 3883TIP3   OH211591   4.111   2.121   2.151
 3883TIP3    H111592   4.034   2.114   2.207
 3883TIP3    H211593   4.076   2.134   2.063
 3884TIP3   OH211594   5.772   3.471   3.799
 3884TIP3    H111595   5.819   3.443   3.720
 3884TIP3    H211596   5.717   3.543   3.769
 3885TIP3   OH211597   3.735   2.927   2.628
 3885TIP3    H111598   3.804   2.949   2.565
 3885TIP3    H211599   3.748   2.988   2.700
 3886TIP3   OH211600   4.730   7.468   4.775
 3886TIP3    H111601   4.729   7.518   4.694
 3886TIP3    H211602   4.710   7.531   4.843
 3887TIP3   OH211603   6.326   4.559   4.607
 3887TIP3    H111604   6.264   4.519   4.547
 3887TIP3    H211605   6.311   4.653   4.597
 3888TIP3   OH211606   6.651   0.520   1.669
 3888TIP3    H111607   6.679   0.491   1.756
 3888TIP3    H211608   6.556   0.529   1.676
 3889TIP3   OH211609   3.105   3.340   1.259
 3889TIP3    H111610   3.082   3.429   1.287
 3889TIP3    H211611   3.184   3.352   1.206
 3890TIP3   OH211612   2.301   3.405   5.427
 3890TIP3    H111613   2.229   3.349   5.398
 3890TIP3    H211614   2.360   3.345   5.474
 3891TIP3   OH211615   4.240   7.624   5.551
 3891TIP3    H111616   4.180   7.552   5.571
 3891TIP3    H211617   4.302   7.587   5.488
 3892TIP3   OH211618   5.469   2.103   6.208
 3892TIP3    H111619   5.479   2.162   6.133
 3892TIP3    H211620   5.550   2.051   6.208
 3893TIP3   OH211621   4.602   2.885   1.554
 3893TIP3    H111622   4.599   2.960   1.614
 3893TIP3    H211623   4.667   2.826   1.592
 3894TIP3   OH211624   5.561   1.309   0.807
 3894TIP3    H111625   5.617   1.356   0.745
 3894TIP3    H211626   5.472   1.326   0.777
 3895TIP3   OH211627   2.091   7.736   1.859
 3895TIP3    H111628   2.135   7.777   1.935
 3895TIP3    H211629   2.149   7.754   1.786
 3896TIP3   OH211630   3.565   3.715   0.785
 3896TIP3    H111631   3.640   3.743   0.837
 3896TIP3    H211632   3.543   3.628   0.820
 3897TIP3   OH211633   0.377   1.366   2.274
 3897TIP3    H111634   0.324   1.445   2.264
 3897TIP3    H211635   0.465   1.392   2.246
 3898TIP3   OH211636   4.087   7.107   2.892
 3898TIP3    H111637   4.146   7.163   2.840
 3898TIP3    H211638   4.001   7.147   2.882
 3899TIP3   OH211639   4.796   6.501   1.095
 3899TIP3    H111640   4.730   6.437   1.121
 3899TIP3    H211641   4.749   6.560   1.035
 3900TIP3   OH211642   3.485   1.456   5.952
 3900TIP3    H111643   3.460   1.377   5.904
 3900TIP3    H211644   3.401   1.497   5.975
 3901TIP3   OH211645   3.584   4.958   6.553
 3901TIP3    H111646   3.634   4.877   6.548
 3901TIP3    H211647   3.525   4.955   6.478
 3902TIP3   OH211648   1.968   0.466   1.902
 3902TIP3    H111649   1.926   0.548   1.929
 3902TIP3    H211650   1.896   0.411   1.872
 3903TIP3   OH211651   2.798   1.130   2.628
 3903TIP3    H111652   2.773   1.180   2.551
 3903TIP3    H211653   2.772   1.185   2.702
 3904TIP3   OH211654   7.938   6.710   0.537
 3904TIP3    H111655   8.027   6.745   0.534
 3904TIP3    H211656   7.934   6.648   0.463
 3905TIP3   OH211657   6.715   6.067   5.341
 3905TIP3    H111658   6.689   5.981   5.306
 3905TIP3    H211659   6.803   6.052   5.375
 3906TIP3   OH211660   6.904   3.478   0.137
 3906TIP3    H111661   6.815   3.492   0.169
 3906TIP3    H211662   6.910   3.383   0.123
 3907TIP3   OH211663   5.030   0.594   3.614
 3907TIP3    H111664   5.125   0.604   3.614
 3907TIP3    H211665   5.008   0.565   3.526
 3908TIP3   OH211666   6.422   1.424   2.219
 3908TIP3    H111667   6.514   1.423   2.193
 3908TIP3    H211668   6.412   1.348   2.276
 3909TIP3   OH211669   3.830   0.054   6.650
 3909TIP3    H111670   3.795   0.100   6.574
 3909TIP3    H211671   3.816  -0.039   6.629
 3910TIP3   OH211672   8.094   6.811   3.704
 3910TIP3    H111673   8.006   6.808   3.666
 3910TIP3    H211674   8.093   6.743   3.772
 3911TIP3   OH211675   1.460   5.826   2.160
 3911TIP3    H111676   1.414   5.744   2.144
 3911TIP3    H211677   1.396   5.882   2.204
 3912TIP3   OH211678   2.131   6.592   0.494
 3912TIP3    H111679   2.166   6.551   0.573
 3912TIP3    H211680   2.143   6.527   0.425
 3913TIP3   OH211681   3.694   7.532   1.209
 3913TIP3    H111682   3.685   7.496   1.121
 3913TIP3    H211683   3.620   7.592   1.218
 3914TIP3   OH211684   0.450   1.785   2.107
 3914TIP3    H111685   0.397   1.793   2.187
 3914TIP3    H211686   0.506   1.862   2.108
 3915TIP3   OH211687   4.481   1.197   0.031
 3915TIP3    H111688   4.408   1.136   0.025
 3915TIP3    H211689   4.535   1.162   0.102
 3916TIP3   OH211690   7.634   5.522   6.778
 3916TIP3    H111691   7.589   5.605   6.763
 3916TIP3    H211692   7.660   5.493   6.690
 3917TIP3   OH211693   7.722   0.542   4.256
 3917TIP3    H111694   7.632   0.531   4.288
 3917TIP3    H211695   7.770   0.469   4.296
 3918TIP3   OH211696   2.486   3.299   0.065
 3918TIP3    H111697   2.524   3.270   0.148
 3918TIP3    H211698   2.509   3.392   0.059
 3919TIP3   OH211699   7.324   2.531   5.276
 3919TIP3    H111700   7.365   2.558   5.193
 3919TIP3    H211701   7.233   2.559   5.267
 3920TIP3   OH211702   3.930   6.886   0.082
 3920TIP3    H111703   3.874   6.964   0.081
 3920TIP3    H211704   4.019   6.921   0.085
 3921TIP3   OH211705   0.240   4.156   4.812
 3921TIP3    H111706   0.312   4.092   4.816
 3921TIP3    H211707   0.283   4.239   4.793
 3922TIP3   OH211708   1.312   0.828   2.386
 3922TIP3    H111709   1.357   0.903   2.424
 3922TIP3    H211710   1.314   0.762   2.456
 3923TIP3   OH211711   1.799   5.087   2.579
 3923TIP3    H111712   1.724   5.041   2.544
 3923TIP3    H211713   1.863   5.019   2.599
 3924TIP3   OH211714   2.464   6.432   1.822
 3924TIP3    H111715   2.490   6.515   1.784
 3924TIP3    H211716   2.371   6.443   1.844
 3925TIP3   OH211717   7.511   3.703   0.124
 3925TIP3    H111718   7.479   3.617   0.097
 3925TIP3    H211719   7.578   3.685   0.190
 3926TIP3   OH211720   2.864   6.434   5.607
 3926TIP3    H111721   2.895   6.420   5.517
 3926TIP3    H211722   2.921   6.378   5.660
 3927TIP3   OH211723   7.213   2.906   1.222
 3927TIP3    H111724   7.268   2.828   1.222
 3927TIP3    H211725   7.131   2.879   1.182
 3928TIP3   OH211726   3.119   7.566   3.102
 3928TIP3    H111727   3.174   7.637   3.136
 3928TIP3    H211728   3.119   7.500   3.171
 3929TIP3   OH211729   5.055   2.060   0.387
 3929TIP3    H111730   5.069   2.152   0.362
 3929TIP3    H211731   5.142   2.028   0.409
 3930TIP3   OH211732   1.856   2.032   6.262
 3930TIP3    H111733   1.763   2.044   6.240
 3930TIP3    H211734   1.889   2.121   6.273
 3931TIP3   OH211735   5.403   0.545   0.802
 3931TIP3    H111736   5.323   0.494   0.820
 3931TIP3    H211737   5.404   0.553   0.706
 3932TIP3   OH211738   6.651   5.432   5.880
 3932TIP3    H111739   6.572   5.474   5.847
 3932TIP3    H211740   6.720   5.498   5.869
 3933TIP3   OH211741   1.805   3.601   2.604
 3933TIP3    H111742   1.894   3.626   2.629
 3933TIP3    H211743   1.766   3.681   2.570
 3934TIP3   OH211744   6.018   7.460   5.472
 3934TIP3    H111745   5.955   7.483   5.540
 3934TIP3    H211746   6.097   7.510   5.494
 3935TIP3   OH211747   2.101   5.290   1.845
 3935TIP3    H111748   2.064   5.213   1.803
 3935TIP3    H211749   2.146   5.336   1.774
 3936TIP3   OH211750   3.594   5.137   5.894
 3936TIP3    H111751   3.596   5.231   5.916
 3936TIP3    H211752   3.686   5.111   5.892
 3937TIP3   OH211753   5.908   3.674   2.651
 3937TIP3    H111754   5.925   3.617   2.727
 3937TIP3    H211755   5.905   3.614   2.576
 3938TIP3   OH211756   7.814   7.094   1.035
 3938TIP3    H111757   7.778   7.036   0.968
 3938TIP3    H211758   7.903   7.112   1.007
 3939TIP3   OH211759   5.937   5.241   4.764
 3939TIP3    H111760   5.931   5.296   4.686
 3939TIP3    H211761   6.000   5.286   4.820
 3940TIP3   OH211762   0.751   5.218   5.152
 3940TIP3    H111763   0.810   5.280   5.109
 3940TIP3    H211764   0.809   5.160   5.201
 3941TIP3   OH211765   0.457   2.631   2.246
 3941TIP3    H111766   0.550   2.647   2.231
 3941TIP3    H211767   0.415   2.649   2.161
 3942TIP3   OH211768   6.840   0.677   2.345
 3942TIP3    H111769   6.825   0.611   2.412
 3942TIP3    H211770   6.859   0.627   2.266
 3943TIP3   OH211771   0.927   2.244   4.076
 3943TIP3    H111772   1.017   2.214   4.087
 3943TIP3    H211773   0.924   2.281   3.988
 3944TIP3   OH211774   1.463   3.984   3.097
 3944TIP3    H111775   1.554   3.993   3.125
 3944TIP3    H211776   1.469   3.962   3.004
 3945TIP3   OH211777   4.571   3.586   1.065
 3945TIP3    H111778   4.492   3.568   1.116
 3945TIP3    H211779   4.578   3.682   1.066
 3946TIP3   OH211780   7.562   7.437   3.916
 3946TIP3    H111781   7.611   7.482   3.985
 3946TIP3    H211782   7.617   7.362   3.893
 3947TIP3   OH211783   1.749   0.792   2.326
 3947TIP3    H111784   1.725   0.732   2.397
 3947TIP3    H211785   1.843   0.778   2.315
 3948TIP3   OH211786   5.243   1.377   6.356
 3948TIP3    H111787   5.171   1.431   6.324
 3948TIP3    H211788   5.320   1.410   6.310
 3949TIP3   OH211789   1.693   6.152   4.244
 3949TIP3    H111790   1.758   6.169   4.312
 3949TIP3    H211791   1.611   6.187   4.279
 3950TIP3   OH211792   8.176   3.756   5.715
 3950TIP3    H111793   8.145   3.733   5.627
 3950TIP3    H211794   8.107   3.811   5.752
 3951TIP3   OH211795   0.062   5.828   2.572
 3951TIP3    H111796  -0.026   5.821   2.535
 3951TIP3    H211797   0.093   5.915   2.545
 3952TIP3   OH211798   1.259   2.636   3.256
 3952TIP3    H111799   1.275   2.547   3.225
 3952TIP3    H211800   1.272   2.631   3.351
 3953TIP3   OH211801   2.424   2.146   2.345
 3953TIP3    H111802   2.362   2.215   2.367
 3953TIP3    H211803   2.410   2.079   2.412
 3954TIP3   OH211804   7.515   6.087   4.442
 3954TIP3    H111805   7.570   6.018   4.404
 3954TIP3    H211806   7.499   6.058   4.531
 3955TIP3   OH211807   7.571   7.078   6.717
 3955TIP3    H111808   7.556   6.994   6.759
 3955TIP3    H211809   7.506   7.136   6.756
 3956TIP3   OH211810   7.981   3.111   2.557
 3956TIP3    H111811   8.052   3.096   2.619
 3956TIP3    H211812   7.906   3.135   2.612
 3957TIP3   OH211813   1.342   2.511   5.100
 3957TIP3    H111814   1.426   2.556   5.108
 3957TIP3    H211815   1.292   2.566   5.040
 3958TIP3   OH211816   2.606   3.963   6.613
 3958TIP3    H111817   2.643   4.040   6.571
 3958TIP3    H211818   2.612   3.893   6.547
 3959TIP3   OH211819   7.917   7.118   5.831
 3959TIP3    H111820   7.952   7.161   5.754
 3959TIP3    H211821   7.848   7.061   5.798
 3960TIP3   OH211822   2.142   1.081   3.467
 3960TIP3    H111823   2.134   1.116   3.555
 3960TIP3    H211824   2.075   1.127   3.417
 3961TIP3   OH211825   6.145   3.189   3.682
 3961TIP3    H111826   6.230   3.234   3.675
 3961TIP3    H211827   6.164   3.108   3.729
 3962TIP3   OH211828   4.359   6.131   2.090
 3962TIP3    H111829   4.320   6.108   2.005
 3962TIP3    H211830   4.421   6.060   2.107
 3963TIP3   OH211831   1.599   1.606   0.877
 3963TIP3    H111832   1.595   1.694   0.913
 3963TIP3    H211833   1.561   1.550   0.946
 3964TIP3   OH211834   7.557   4.405   3.092
 3964TIP3    H111835   7.556   4.381   3.185
 3964TIP3    H211836   7.608   4.335   3.050
 3965TIP3   OH211837   4.619   0.159   0.653
 3965TIP3    H111838   4.674   0.113   0.589
 3965TIP3    H211839   4.532   0.162   0.613
 3966TIP3   OH211840   0.215   1.218   4.540
 3966TIP3    H111841   0.242   1.244   4.452
 3966TIP3    H211842   0.280   1.155   4.568
 3967TIP3   OH211843   1.044   4.167   3.031
 3967TIP3    H111844   0.953   4.169   3.002
 3967TIP3    H211845   1.058   4.078   3.063
 3968TIP3   OH211846   7.144   3.942   3.344
 3968TIP3    H111847   7.194   3.867   3.375
 3968TIP3    H211848   7.056   3.907   3.330
 3969TIP3   OH211849   5.836   4.099   5.245
 3969TIP3    H111850   5.828   4.151   5.165
 3969TIP3    H211851   5.860   4.163   5.312
 3970TIP3   OH211852   5.931   5.152   1.501
 3970TIP3    H111853   6.001   5.094   1.530
 3970TIP3    H211854   5.861   5.139   1.565
 3971TIP3   OH211855   5.532   4.475   6.345
 3971TIP3    H111856   5.439   4.456   6.338
 3971TIP3    H211857   5.564   4.475   6.255
 3972TIP3   OH211858   7.797   7.189   0.683
 3972TIP3    H111859   7.856   7.182   0.758
 3972TIP3    H211860   7.817   7.111   0.630
 3973TIP3   OH211861   5.536   3.555   5.394
 3973TIP3    H111862   5.485   3.620   5.346
 3973TIP3    H211863   5.578   3.606   5.464
 3974TIP3   OH211864   3.048   1.057   6.166
 3974TIP3    H111865   3.086   1.137   6.130
 3974TIP3    H211866   3.068   1.061   6.259
 3975TIP3   OH211867   7.995   6.453   2.284
 3975TIP3    H111868   7.908   6.425   2.310
 3975TIP3    H211869   7.999   6.438   2.190
 3976TIP3   OH211870   6.461   4.582   0.203
 3976TIP3    H111871   6.427   4.638   0.134
 3976TIP3    H211872   6.555   4.599   0.205
 3977TIP3   OH211873   7.486   3.221   0.194
 3977TIP3    H111874   7.470   3.294   0.134
 3977TIP3    H211875   7.579   3.226   0.214
 3978TIP3   OH211876   1.770   5.490   4.154
 3978TIP3    H111877   1.709   5.539   4.210
 3978TIP3    H211878   1.760   5.530   4.068
 3979TIP3   OH211879   1.263   1.573   4.834
 3979TIP3    H111880   1.232   1.496   4.788
 3979TIP3    H211881   1.235   1.647   4.780
 3980TIP3   OH211882   0.595   6.358   2.293
 3980TIP3    H111883   0.641   6.279   2.264
 3980TIP3    H211884   0.624   6.427   2.234
 3981TIP3   OH211885   2.542   2.200   2.637
 3981TIP3    H111886   2.503   2.133   2.581
 3981TIP3    H211887   2.582   2.151   2.709
 3982TIP3   OH211888   2.383   4.246   0.819
 3982TIP3    H111889   2.328   4.171   0.794
 3982TIP3    H211890   2.327   4.299   0.876
 3983TIP3   OH211891   1.579   6.613   0.581
 3983TIP3    H111892   1.546   6.599   0.670
 3983TIP3    H211893   1.673   6.626   0.592
 3984TIP3   OH211894   2.831   3.745   0.390
 3984TIP3    H111895   2.893   3.756   0.318
 3984TIP3    H211896   2.751   3.786   0.359
 3985TIP3   OH211897   1.522   3.189   1.951
 3985TIP3    H111898   1.574   3.112   1.926
 3985TIP3    H211899   1.469   3.158   2.025
 3986TIP3   OH211900   2.411   6.165   2.212
 3986TIP3    H111901   2.393   6.141   2.120
 3986TIP3    H211902   2.433   6.258   2.209
 3987TIP3   OH211903   7.570   7.259   1.056
 3987TIP3    H111904   7.518   7.297   0.986
 3987TIP3    H211905   7.661   7.277   1.032
 3988TIP3   OH211906   5.075   6.334   5.834
 3988TIP3    H111907   5.143   6.395   5.804
 3988TIP3    H211908   5.121   6.273   5.892
 3989TIP3   OH211909   3.082   3.890   0.055
 3989TIP3    H111910   3.061   3.955  -0.012
 3989TIP3    H211911   3.046   3.926   0.136
 3990TIP3   OH211912   5.705   6.747   4.278
 3990TIP3    H111913   5.712   6.808   4.204
 3990TIP3    H211914   5.689   6.662   4.236
 3991TIP3   OH211915   2.363   3.187   5.553
 3991TIP3    H111916   2.329   3.154   5.470
 3991TIP3    H211917   2.393   3.109   5.599
 3992TIP3   OH211918   4.996   3.708   6.434
 3992TIP3    H111919   4.983   3.673   6.523
 3992TIP3    H211920   4.973   3.801   6.442
 3993TIP3   OH211921   6.444   6.140   5.309
 3993TIP3    H111922   6.433   6.148   5.214
 3993TIP3    H211923   6.529   6.098   5.320
 3994TIP3   OH211924   0.721   6.695   0.197
 3994TIP3    H111925   0.737   6.761   0.130
 3994TIP3    H211926   0.701   6.744   0.276
 3995TIP3   OH211927   2.286   3.745   2.826
 3995TIP3    H111928   2.379   3.738   2.845
 3995TIP3    H211929   2.246   3.673   2.874
 3996TIP3   OH211930   3.167   1.793   1.344
 3996TIP3    H111931   3.167   1.709   1.389
 3996TIP3    H211932   3.201   1.774   1.257
 3997TIP3   OH211933   5.659   7.083   5.086
 3997TIP3    H111934   5.706   7.118   5.010
 3997TIP3    H211935   5.649   7.158   5.145
 3998TIP3   OH211936   4.046   2.645   6.094
 3998TIP3    H111937   3.963   2.693   6.101
 3998TIP3    H211938   4.023   2.555   6.116
 3999TIP3   OH211939   7.819   6.022   0.423
 3999TIP3    H111940   7.838   6.111   0.455
 3999TIP3    H211941   7.745   6.034   0.364
 4000TIP3   OH211942   7.541   5.928   6.676
 4000TIP3    H111943   7.588   5.998   6.722
 4000TIP3    H211944   7.565   5.941   6.584
 4001TIP3   OH211945   0.268   6.986   2.991
 4001TIP3    H111946   0.315   6.953   2.915
 4001TIP3    H211947   0.331   6.981   3.063
 4002TIP3   OH211948   4.146   7.040   0.192
 4002TIP3    H111949   4.115   7.014   0.279
 4002TIP3    H211950   4.148   7.135   0.194
 4003TIP3   OH211951   0.297   1.917   4.690
 4003TIP3    H111952   0.346   1.999   4.696
 4003TIP3    H211953   0.352   1.853   4.734
 4004TIP3   OH211954   0.641   0.341   5.602
 4004TIP3    H111955   0.728   0.372   5.575
 4004TIP3    H211956   0.599   0.418   5.640
 4005TIP3   OH211957   5.433   6.165   4.014
 4005TIP3    H111958   5.497   6.203   3.954
 4005TIP3    H211959   5.482   6.150   4.095
 4006TIP3   OH211960   0.880   4.529   4.535
 4006TIP3    H111961   0.793   4.493   4.553
 4006TIP3    H211962   0.880   4.614   4.581
 4007TIP3   OH211963   2.248   3.360   6.036
 4007TIP3    H111964   2.155   3.355   6.059
 4007TIP3    H211965   2.249   3.356   5.940
 4008TIP3   OH211966   4.482   3.815   3.606
 4008TIP3    H111967   4.448   3.746   3.662
 4008TIP3    H211968   4.560   3.847   3.651
 4009TIP3   OH211969   1.845   0.919   5.965
 4009TIP3    H111970   1.839   0.893   5.873
 4009TIP3    H211971   1.820   1.011   5.966
 4010TIP3   OH211972   5.968   5.570   1.994
 4010TIP3    H111973   5.889   5.623   1.996
 4010TIP3    H211974   5.955   5.510   1.921
 4011TIP3   OH211975   4.492   4.014   5.590
 4011TIP3    H111976   4.558   3.974   5.534
 4011TIP3    H211977   4.478   4.101   5.553
 4012TIP3   OH211978   7.968   2.070   0.091
 4012TIP3    H111979   7.968   2.131   0.164
 4012TIP3    H211980   7.884   2.083   0.048
 4013TIP3   OH211981   8.101   1.831   3.203
 4013TIP3    H111982   8.188   1.793   3.209
 4013TIP3    H211983   8.043   1.764   3.240
 4014TIP3   OH211984   2.988   1.921   0.068
 4014TIP3    H111985   2.974   1.842   0.015
 4014TIP3    H211986   2.900   1.951   0.089
 4015TIP3   OH211987   0.177   5.313   5.964
 4015TIP3    H111988   0.091   5.277   5.987
 4015TIP3    H211989   0.172   5.405   5.993
 4016TIP3   OH211990   7.889   4.902   2.232
 4016TIP3    H111991   7.893   4.997   2.240
 4016TIP3    H211992   7.933   4.883   2.149
 4017TIP3   OH211993   7.601   3.176   4.286
 4017TIP3    H111994   7.606   3.091   4.328
 4017TIP3    H211995   7.667   3.172   4.216
 4018TIP3   OH211996   6.302   6.492   6.138
 4018TIP3    H111997   6.254   6.517   6.059
 4018TIP3    H211998   6.306   6.396   6.133
 4019TIP3   OH211999   5.805   0.953   6.252
 4019TIP3    H112000   5.876   0.900   6.216
 4019TIP3    H212001   5.752   0.977   6.176
 4020TIP3   OH212002   6.793   0.042   3.211
 4020TIP3    H112003   6.774   0.012   3.122
 4020TIP3    H212004   6.709   0.040   3.256
 4021TIP3   OH212005   8.071   0.579   4.673
 4021TIP3    H112006   8.103   0.554   4.586
 4021TIP3    H212007   8.133   0.540   4.734
 4022TIP3   OH212008   8.233   4.268   3.883
 4022TIP3    H112009   8.297   4.324   3.841
 4022TIP3    H212010   8.167   4.251   3.815
 4023TIP3   OH212011   1.404   7.558   1.191
 4023TIP3    H112012   1.327   7.502   1.183
 4023TIP3    H212013   1.477   7.501   1.166
 4024TIP3   OH212014   6.011   5.856   2.093
 4024TIP3    H112015   5.950   5.785   2.112
 4024TIP3    H212016   6.090   5.834   2.143
 4025TIP3   OH212017   1.091   2.816   5.500
 4025TIP3    H112018   1.173   2.803   5.452
 4025TIP3    H212019   1.054   2.896   5.463
 4026TIP3   OH212020   0.512   1.116   5.915
 4026TIP3    H112021   0.525   1.210   5.926
 4026TIP3    H212022   0.504   1.104   5.820
 4027TIP3   OH212023   2.047   1.140   0.430
 4027TIP3    H112024   2.079   1.219   0.387
 4027TIP3    H212025   2.026   1.080   0.358
 4028TIP3   OH212026   7.178   0.789   2.717
 4028TIP3    H112027   7.229   0.741   2.652
 4028TIP3    H212028   7.244   0.824   2.778
 4029TIP3   OH212029   1.757   1.372   4.371
 4029TIP3    H112030   1.823   1.345   4.436
 4029TIP3    H212031   1.678   1.325   4.397
 4030TIP3   OH212032   1.323   5.592   2.061
 4030TIP3    H112033   1.331   5.515   2.119
 4030TIP3    H212034   1.302   5.555   1.976
 4031TIP3   OH212035   1.370   5.678   0.360
 4031TIP3    H112036   1.280   5.711   0.369
 4031TIP3    H212037   1.384   5.625   0.438
 4032TIP3   OH212038   0.339   1.873   3.486
 4032TIP3    H112039   0.367   1.909   3.401
 4032TIP3    H212040   0.414   1.885   3.544
 4033TIP3   OH212041   0.485   7.164   5.975
 4033TIP3    H112042   0.460   7.110   5.900
 4033TIP3    H212043   0.551   7.224   5.940
 4034TIP3   OH212044   3.625   7.332   2.081
 4034TIP3    H112045   3.602   7.291   1.997
 4034TIP3    H212046   3.640   7.259   2.141
 4035TIP3   OH212047   1.866   4.624   0.587
 4035TIP3    H112048   1.948   4.621   0.538
 4035TIP3    H212049   1.860   4.537   0.628
 4036TIP3   OH212050   5.386   1.352   5.816
 4036TIP3    H112051   5.338   1.370   5.897
 4036TIP3    H212052   5.449   1.424   5.810
 4037TIP3   OH212053   4.369   7.439   1.842
 4037TIP3    H112054   4.375   7.384   1.764
 4037TIP3    H212055   4.303   7.396   1.896
 4038TIP3   OH212056   4.851   6.675   4.985
 4038TIP3    H112057   4.857   6.765   4.951
 4038TIP3    H212058   4.923   6.669   5.048
 4039TIP3   OH212059   6.905   1.227   5.577
 4039TIP3    H112060   6.981   1.243   5.521
 4039TIP3    H212061   6.847   1.174   5.523
 4040TIP3   OH212062   7.287   4.590   0.384
 4040TIP3    H112063   7.203   4.560   0.351
 4040TIP3    H212064   7.270   4.615   0.475
 4041TIP3   OH212065   7.392   6.557   4.847
 4041TIP3    H112066   7.475   6.534   4.804
 4041TIP3    H212067   7.379   6.649   4.826
 4042TIP3   OH212068   2.577   2.635   2.047
 4042TIP3    H112069   2.591   2.723   2.013
 4042TIP3    H212070   2.507   2.600   1.993
 4043TIP3   OH212071   5.282   7.011   1.141
 4043TIP3    H112072   5.323   7.024   1.055
 4043TIP3    H212073   5.289   6.917   1.157
 4044TIP3   OH212074   3.578   2.593   0.566
 4044TIP3    H112075   3.492   2.569   0.532
 4044TIP3    H212076   3.629   2.511   0.564
 4045TIP3   OH212077   0.144   7.274   1.897
 4045TIP3    H112078   0.054   7.264   1.930
 4045TIP3    H212079   0.199   7.259   1.973
 4046TIP3   OH212080   5.311   0.972   2.122
 4046TIP3    H112081   5.291   1.057   2.083
 4046TIP3    H212082   5.347   0.993   2.208
 4047TIP3   OH212083   2.642   2.798   0.494
 4047TIP3    H112084   2.615   2.732   0.431
 4047TIP3    H212085   2.577   2.868   0.485
 4048TIP3   OH212086   5.217   1.674   2.921
 4048TIP3    H112087   5.163   1.746   2.888
 4048TIP3    H212088   5.155   1.603   2.936
 4049TIP3   OH212089   7.838   1.804   2.620
 4049TIP3    H112090   7.786   1.783   2.542
 4049TIP3    H212091   7.848   1.899   2.617
 4050TIP3   OH212092   7.166   5.762   2.229
 4050TIP3    H112093   7.113   5.801   2.298
 4050TIP3    H212094   7.130   5.798   2.148
 4051TIP3   OH212095   4.995   4.487   4.953
 4051TIP3    H112096   4.905   4.506   4.979
 4051TIP3    H212097   5.045   4.562   4.985
 4052TIP3   OH212098   5.477   0.260   6.449
 4052TIP3    H112099   5.402   0.320   6.451
 4052TIP3    H212100   5.438   0.173   6.449
 4053TIP3   OH212101   2.140   6.470   1.147
 4053TIP3    H112102   2.110   6.484   1.237
 4053TIP3    H212103   2.184   6.551   1.122
 4054TIP3   OH212104   2.926   0.966   5.826
 4054TIP3    H112105   2.861   1.015   5.775
 4054TIP3    H212106   2.948   0.891   5.771
 4055TIP3   OH212107   5.250   6.941   3.090
 4055TIP3    H112108   5.208   7.023   3.068
 4055TIP3    H212109   5.209   6.914   3.173
 4056TIP3   OH212110   4.561   3.263   6.037
 4056TIP3    H112111   4.537   3.247   6.128
 4056TIP3    H212112   4.568   3.175   5.998
 4057TIP3   OH212113   5.304   0.442   6.302
 4057TIP3    H112114   5.301   0.538   6.300
 4057TIP3    H212115   5.395   0.420   6.284
 4058TIP3   OH212116   0.934   5.077   2.649
 4058TIP3    H112117   0.912   5.036   2.733
 4058TIP3    H212118   1.011   5.030   2.619
 4059TIP3   OH212119   4.170   3.686   4.736
 4059TIP3    H112120   4.238   3.750   4.756
 4059TIP3    H212121   4.211   3.625   4.675
 4060TIP3   OH212122   7.939   0.451   1.639
 4060TIP3    H112123   8.022   0.500   1.638
 4060TIP3    H212124   7.872   0.518   1.647
 4061TIP3   OH212125   1.372   0.392   3.109
 4061TIP3    H112126   1.467   0.378   3.098
 4061TIP3    H212127   1.339   0.306   3.134
 4062TIP3   OH212128   2.769   6.479   3.809
 4062TIP3    H112129   2.819   6.532   3.871
 4062TIP3    H212130   2.755   6.536   3.734
 4063TIP3   OH212131   4.679   3.942   6.022
 4063TIP3    H112132   4.765   3.905   6.040
 4063TIP3    H212133   4.696   4.013   5.959
 4064TIP3   OH212134   3.115   7.209   0.711
 4064TIP3    H112135   3.106   7.127   0.662
 4064TIP3    H212136   3.074   7.191   0.796
 4065TIP3   OH212137   3.612   5.793   0.010
 4065TIP3    H112138   3.665   5.748   0.075
 4065TIP3    H212139   3.545   5.838   0.061
 4066TIP3   OH212140   7.139   2.875   5.178
 4066TIP3    H112141   7.232   2.894   5.172
 4066TIP3    H212142   7.098   2.937   5.118
 4067TIP3   OH212143   0.258   4.630   4.923
 4067TIP3    H112144   0.274   4.701   4.985
 4067TIP3    H212145   0.176   4.590   4.954
 4068TIP3   OH212146   6.336   0.930   6.374
 4068TIP3    H112147   6.380   0.895   6.297
 4068TIP3    H212148   6.405   0.972   6.425
 4069TIP3   OH212149   3.649   0.722   3.004
 4069TIP3    H112150   3.573   0.668   3.027
 4069TIP3    H212151   3.613   0.810   2.992
 4070TIP3   OH212152   0.388   3.302   4.176
 4070TIP3    H112153   0.337   3.373   4.137
 4070TIP3    H212154   0.329   3.263   4.240
 4071TIP3   OH212155   6.963   2.115   2.906
 4071TIP3    H112156   6.961   2.022   2.928
 4071TIP3    H212157   6.959   2.160   2.990
 4072TIP3   OH212158   0.010   1.614   4.380
 4072TIP3    H112159  -0.049   1.683   4.412
 4072TIP3    H212160   0.060   1.656   4.310
 4073TIP3   OH212161   5.018   5.652   4.864
 4073TIP3    H112162   5.009   5.598   4.786
 4073TIP3    H212163   5.046   5.592   4.932
 4074TIP3   OH212164   0.868   6.562   5.465
 4074TIP3    H112165   0.922   6.579   5.543
 4074TIP3    H212166   0.923   6.507   5.410
 4075TIP3   OH212167   0.852   7.534   5.949
 4075TIP3    H112168   0.943   7.531   5.921
 4075TIP3    H212169   0.819   7.618   5.919
 4076TIP3   OH212170   5.391   0.197   5.290
 4076TIP3    H112171   5.397   0.208   5.195
 4076TIP3    H212172   5.479   0.173   5.317
 4077TIP3   OH212173   1.647   5.485   1.816
 4077TIP3    H112174   1.694   5.507   1.896
 4077TIP3    H212175   1.674   5.395   1.797
 4078TIP3   OH212176   2.226   0.707   0.416
 4078TIP3    H112177   2.240   0.767   0.343
 4078TIP3    H212178   2.311   0.702   0.459
 4079TIP3   OH212179   4.419   5.368   2.817
 4079TIP3    H112180   4.514   5.371   2.820
 4079TIP3    H212181   4.399   5.328   2.732
 4080TIP3   OH212182   3.666   4.114   4.219
 4080TIP3    H112183   3.723   4.137   4.145
 4080TIP3    H212184   3.577   4.120   4.184
 4081TIP3   OH212185   3.560   6.492   6.202
 4081TIP3    H112186   3.595   6.543   6.275
 4081TIP3    H212187   3.614   6.518   6.127
 4082TIP3   OH212188   1.180   3.107   5.852
 4082TIP3    H112189   1.186   3.012   5.844
 4082TIP3    H212190   1.086   3.125   5.856
 4083TIP3   OH212191   3.438   2.704   4.389
 4083TIP3    H112192   3.500   2.724   4.459
 4083TIP3    H212193   3.446   2.777   4.327
 4084TIP3   OH212194   7.222   1.867   0.005
 4084TIP3    H112195   7.159   1.926  -0.036
 4084TIP3    H212196   7.209   1.881   0.099
 4085TIP3   OH212197   7.980   1.315   1.016
 4085TIP3    H112198   8.011   1.347   1.101
 4085TIP3    H212199   7.886   1.299   1.028
 4086TIP3   OH212200   5.983   2.941   4.519
 4086TIP3    H112201   6.008   2.983   4.437
 4086TIP3    H212202   6.054   2.880   4.538
 4087TIP3   OH212203   5.095   2.191   0.841
 4087TIP3    H112204   5.173   2.231   0.880
 4087TIP3    H212205   5.058   2.261   0.786
 4088TIP3   OH212206   8.008   0.120   3.126
 4088TIP3    H112207   8.012   0.195   3.185
 4088TIP3    H212208   7.932   0.070   3.157
 4089TIP3   OH212209   2.665   0.467   1.221
 4089TIP3    H112210   2.708   0.495   1.302
 4089TIP3    H212211   2.737   0.446   1.162
 4090TIP3   OH212212   8.219   5.214   0.366
 4090TIP3    H112213   8.247   5.306   0.365
 4090TIP3    H212214   8.264   5.175   0.291
 4091TIP3   OH212215   7.157   5.477   3.784
 4091TIP3    H112216   7.163   5.456   3.877
 4091TIP3    H212217   7.184   5.397   3.739
 4092TIP3   OH212218   0.232   7.205   3.783
 4092TIP3    H112219   0.304   7.268   3.772
 4092TIP3    H212220   0.170   7.228   3.714
 4093TIP3   OH212221   0.615   0.329   0.299
 4093TIP3    H112222   0.563   0.249   0.298
 4093TIP3    H212223   0.642   0.339   0.391
 4094TIP3   OH212224   4.259   1.333   2.971
 4094TIP3    H112225   4.226   1.244   2.983
 4094TIP3    H212226   4.284   1.362   3.059
 4095TIP3   OH212227   5.268   3.623   0.749
 4095TIP3    H112228   5.321   3.627   0.669
 4095TIP3    H212229   5.284   3.706   0.793
 4096TIP3   OH212230   4.356   1.546   0.277
 4096TIP3    H112231   4.310   1.630   0.270
 4096TIP3    H212232   4.329   1.497   0.200
 4097TIP3   OH212233   6.994   6.267   0.944
 4097TIP3    H112234   7.074   6.265   0.996
 4097TIP3    H212235   6.925   6.242   1.007
 4098TIP3   OH212236   0.888   3.219   6.022
 4098TIP3    H112237   0.898   3.150   5.957
 4098TIP3    H212238   0.943   3.192   6.096
 4099TIP3   OH212239   7.021   4.063   6.136
 4099TIP3    H112240   6.997   4.127   6.203
 4099TIP3    H212241   6.994   4.103   6.053
 4100TIP3   OH212242   1.159   0.815   2.927
 4100TIP3    H112243   1.152   0.720   2.935
 4100TIP3    H212244   1.189   0.829   2.838
 4101TIP3   OH212245   5.512   7.646   4.496
 4101TIP3    H112246   5.462   7.606   4.567
 4101TIP3    H212247   5.603   7.644   4.526
 4102TIP3   OH212248   3.424   7.533   5.185
 4102TIP3    H112249   3.360   7.599   5.212
 4102TIP3    H212250   3.485   7.580   5.128
 4103TIP3   OH212251   5.531   5.613   2.877
 4103TIP3    H112252   5.439   5.634   2.860
 4103TIP3    H212253   5.543   5.526   2.839
 4104TIP3   OH212254   8.014   4.844   4.485
 4104TIP3    H112255   7.946   4.908   4.465
 4104TIP3    H212256   8.017   4.842   4.581
 4105TIP3   OH212257   7.301   5.983   5.927
 4105TIP3    H112258   7.275   5.894   5.903
 4105TIP3    H212259   7.387   5.995   5.887
 4106TIP3   OH212260   6.286   5.730   3.349
 4106TIP3    H112261   6.330   5.649   3.322
 4106TIP3    H212262   6.250   5.766   3.268
 4107TIP3   OH212263   5.872   5.592   1.170
 4107TIP3    H112264   5.924   5.582   1.250
 4107TIP3    H212265   5.862   5.503   1.136
 4108TIP3   OH212266   7.626   4.707   5.640
 4108TIP3    H112267   7.613   4.780   5.700
 4108TIP3    H212268   7.663   4.747   5.561
 4109TIP3   OH212269   7.485   5.519   0.150
 4109TIP3    H112270   7.573   5.526   0.112
 4109TIP3    H212271   7.491   5.447   0.212
 4110TIP3   OH212272   0.715   5.845   2.554
 4110TIP3    H112273   0.765   5.926   2.544
 4110TIP3    H212274   0.780   5.776   2.546
 4111TIP3   OH212275   7.320   2.628  -0.039
 4111TIP3    H112276   7.318   2.560  -0.107
 4111TIP3    H212277   7.332   2.580   0.043
 4112TIP3   OH212278   2.218   0.108   5.759
 4112TIP3    H112279   2.209   0.203   5.757
 4112TIP3    H212280   2.146   0.075   5.705
 4113TIP3   OH212281   8.154   7.603   0.763
 4113TIP3    H112282   8.245   7.618   0.738
 4113TIP3    H212283   8.125   7.532   0.706
 4114TIP3   OH212284   7.711   0.967   2.217
 4114TIP3    H112285   7.790   0.997   2.263
 4114TIP3    H212286   7.644   0.962   2.286
 4115TIP3   OH212287   1.913   0.293   2.277
 4115TIP3    H112288   1.843   0.234   2.307
 4115TIP3    H212289   1.986   0.235   2.257
 4116TIP3   OH212290   4.920   4.533   4.691
 4116TIP3    H112291   4.852   4.475   4.657
 4116TIP3    H212292   4.950   4.490   4.771
 4117TIP3   OH212293   6.922   0.510   2.132
 4117TIP3    H112294   6.893   0.493   2.042
 4117TIP3    H212295   6.901   0.429   2.178
 4118TIP3   OH212296   6.245   4.807   5.640
 4118TIP3    H112297   6.186   4.769   5.575
 4118TIP3    H212298   6.239   4.901   5.625
 4119TIP3   OH212299   0.073   7.331   5.806
 4119TIP3    H112300   0.014   7.263   5.839
 4119TIP3    H212301   0.102   7.298   5.721
 4120TIP3   OH212302   0.845   7.680   0.636
 4120TIP3    H112303   0.788   7.654   0.708
 4120TIP3    H212304   0.837   7.775   0.632
 4121TIP3   OH212305   2.896   2.954   2.510
 4121TIP3    H112306   2.982   2.982   2.479
 4121TIP3    H212307   2.838   2.962   2.435
 4122TIP3   OH212308   6.926   7.080   2.694
 4122TIP3    H112309   6.838   7.111   2.713
 4122TIP3    H212310   6.914   7.015   2.624
 4123TIP3   OH212311   1.361   6.695   4.873
 4123TIP3    H112312   1.451   6.702   4.842
 4123TIP3    H212313   1.314   6.650   4.802
 4124TIP3   OH212314   5.179   0.383   0.186
 4124TIP3    H112315   5.089   0.354   0.203
 4124TIP3    H212316   5.232   0.306   0.206
 4125TIP3   OH212317   5.070   6.335   4.402
 4125TIP3    H112318   5.039   6.406   4.345
 4125TIP3    H212319   5.155   6.311   4.366
 4126TIP3   OH212320   7.902   3.285   6.177
 4126TIP3    H112321   7.953   3.349   6.128
 4126TIP3    H212322   7.814   3.289   6.138
 4127TIP3   OH212323   1.237   6.230   0.994
 4127TIP3    H112324   1.211   6.322   1.000
 4127TIP3    H212325   1.157   6.185   0.967
 4128TIP3   OH212326   6.045   1.597   5.310
 4128TIP3    H112327   6.122   1.582   5.365
 4128TIP3    H212328   6.080   1.606   5.222
 4129TIP3   OH212329   3.430   1.903   5.181
 4129TIP3    H112330   3.517   1.922   5.147
 4129TIP3    H212331   3.371   1.939   5.115
 4130TIP3   OH212332   5.866   6.229   4.127
 4130TIP3    H112333   5.863   6.192   4.039
 4130TIP3    H212334   5.882   6.322   4.112
 4131TIP3   OH212335   5.063   1.780   0.177
 4131TIP3    H112336   4.990   1.801   0.235
 4131TIP3    H212337   5.024   1.730   0.106
 4132TIP3   OH212338   2.279   6.793   0.648
 4132TIP3    H112339   2.235   6.877   0.635
 4132TIP3    H212340   2.246   6.738   0.577
 4133TIP3   OH212341   4.115   0.799   2.595
 4133TIP3    H112342   4.087   0.798   2.686
 4133TIP3    H212343   4.114   0.707   2.568
 4134TIP3   OH212344   3.525   6.512   1.243
 4134TIP3    H112345   3.493   6.594   1.282
 4134TIP3    H212346   3.620   6.520   1.245
 4135TIP3   OH212347   7.372   5.592   6.621
 4135TIP3    H112348   7.356   5.609   6.528
 4135TIP3    H212349   7.398   5.500   6.624
 4136TIP3   OH212350   6.387   7.734   4.811
 4136TIP3    H112351   6.345   7.657   4.849
 4136TIP3    H212352   6.389   7.799   4.882
 4137TIP3   OH212353   4.709   6.207   6.009
 4137TIP3    H112354   4.763   6.166   6.077
 4137TIP3    H212355   4.669   6.283   6.052
 4138TIP3   OH212356   6.927   5.875   3.922
 4138TIP3    H112357   6.961   5.801   3.871
 4138TIP3    H212358   6.850   5.839   3.966
 4139TIP3   OH212359   7.790   4.614   0.965
 4139TIP3    H112360   7.703   4.653   0.961
 4139TIP3    H212361   7.808   4.606   1.058
 4140TIP3   OH212362   7.076   1.894   3.751
 4140TIP3    H112363   7.001   1.854   3.796
 4140TIP3    H212364   7.064   1.870   3.659
 4141TIP3   OH212365   4.469   5.837   0.971
 4141TIP3    H112366   4.436   5.857   1.059
 4141TIP3    H212367   4.391   5.839   0.915
 4142TIP3   OH212368   6.208   6.197   1.104
 4142TIP3    H112369   6.216   6.204   1.009
 4142TIP3    H212370   6.197   6.287   1.135
 4143TIP3   OH212371   2.294   1.432   0.843
 4143TIP3    H112372   2.366   1.485   0.809
 4143TIP3    H212373   2.231   1.429   0.772
 4144TIP3   OH212374   7.970   1.312   0.731
 4144TIP3    H112375   8.029   1.322   0.806
 4144TIP3    H212376   8.023   1.269   0.664
 4145TIP3   OH212377   0.326   5.075   0.846
 4145TIP3    H112378   0.243   5.080   0.798
 4145TIP3    H212379   0.350   4.982   0.842
 4146TIP3   OH212380   6.348   2.813   5.976
 4146TIP3    H112381   6.315   2.836   6.063
 4146TIP3    H212382   6.374   2.721   5.984
 4147TIP3   OH212383   0.865   6.216   1.567
 4147TIP3    H112384   0.801   6.248   1.630
 4147TIP3    H212385   0.840   6.124   1.552
 4148TIP3   OH212386   1.098   5.835   6.087
 4148TIP3    H112387   1.064   5.922   6.065
 4148TIP3    H212388   1.182   5.852   6.131
 4149TIP3   OH212389   5.882   6.608   0.340
 4149TIP3    H112390   5.863   6.522   0.302
 4149TIP3    H212391   5.866   6.597   0.434
 4150TIP3   OH212392   6.717   4.178   5.173
 4150TIP3    H112393   6.691   4.205   5.085
 4150TIP3    H212394   6.639   4.193   5.227
 4151TIP3   OH212395   2.822   6.536   0.779
 4151TIP3    H112396   2.893   6.599   0.770
 4151TIP3    H212397   2.764   6.575   0.845
 4152TIP3   OH212398   6.433   4.889   6.141
 4152TIP3    H112399   6.386   4.869   6.060
 4152TIP3    H212400   6.510   4.832   6.139
 4153TIP3   OH212401   7.073   1.745   0.624
 4153TIP3    H112402   7.029   1.682   0.567
 4153TIP3    H212403   7.009   1.766   0.692
 4154TIP3   OH212404   2.810   3.081   2.039
 4154TIP3    H112405   2.771   3.079   2.126
 4154TIP3    H212406   2.755   3.142   1.990
 4155TIP3   OH212407   6.803   2.655   5.330
 4155TIP3    H112408   6.816   2.585   5.394
 4155TIP3    H212409   6.739   2.619   5.268
 4156TIP3   OH212410   2.434   5.990   5.434
 4156TIP3    H112411   2.401   5.963   5.349
 4156TIP3    H212412   2.505   5.928   5.453
 4157TIP3   OH212413   7.276   7.040   4.133
 4157TIP3    H112414   7.293   6.978   4.204
 4157TIP3    H212415   7.221   7.107   4.173
 4158TIP3   OH212416   5.499   4.345   1.304
 4158TIP3    H112417   5.480   4.437   1.323
 4158TIP3    H212418   5.593   4.336   1.321
 4159TIP3   OH212419   3.203   5.393   1.294
 4159TIP3    H112420   3.115   5.389   1.258
 4159TIP3    H212421   3.233   5.302   1.294
 4160TIP3   OH212422   7.697   1.449   2.949
 4160TIP3    H112423   7.699   1.455   3.044
 4160TIP3    H212424   7.618   1.399   2.929
 4161TIP3   OH212425   5.292   5.127   4.241
 4161TIP3    H112426   5.298   5.220   4.264
 4161TIP3    H212427   5.383   5.098   4.235
 4162TIP3   OH212428   1.515   7.455   4.758
 4162TIP3    H112429   1.584   7.514   4.726
 4162TIP3    H212430   1.562   7.386   4.805
 4163TIP3   OH212431   4.029   2.134   1.878
 4163TIP3    H112432   4.043   2.201   1.811
 4163TIP3    H212433   3.955   2.083   1.846
 4164TIP3   OH212434   1.757   1.635   3.195
 4164TIP3    H112435   1.662   1.623   3.197
 4164TIP3    H212436   1.781   1.657   3.285
 4165TIP3   OH212437   1.123   4.332   3.770
 4165TIP3    H112438   1.057   4.395   3.799
 4165TIP3    H212439   1.128   4.269   3.842
 4166TIP3   OH212440   1.487   3.062   5.280
 4166TIP3    H112441   1.447   3.128   5.336
 4166TIP3    H212442   1.436   2.983   5.295
 4167TIP3   OH212443   1.551   4.127   3.571
 4167TIP3    H112444   1.536   4.190   3.501
 4167TIP3    H212445   1.647   4.125   3.581
 4168TIP3   OH212446   3.169   7.405   0.077
 4168TIP3    H112447   3.149   7.353  -0.001
 4168TIP3    H212448   3.083   7.436   0.107
 4169TIP3   OH212449   2.894   7.378   5.342
 4169TIP3    H112450   2.953   7.316   5.299
 4169TIP3    H212451   2.941   7.461   5.341
 4170TIP3   OH212452   7.915   2.581   1.611
 4170TIP3    H112453   7.855   2.568   1.537
 4170TIP3    H212454   7.908   2.674   1.631
 4171TIP3   OH212455   0.591   7.284   2.260
 4171TIP3    H112456   0.500   7.290   2.290
 4171TIP3    H212457   0.631   7.219   2.318
 4172TIP3   OH212458   1.977   6.076   2.393
 4172TIP3    H112459   2.026   6.150   2.357
 4172TIP3    H212460   1.996   6.004   2.332
 4173TIP3   OH212461   0.563   0.077   4.982
 4173TIP3    H112462   0.505   0.001   4.989
 4173TIP3    H212463   0.504   0.151   4.967
 4174TIP3   OH212464   3.415   3.573   4.205
 4174TIP3    H112465   3.337   3.580   4.261
 4174TIP3    H212466   3.480   3.530   4.261
 4175TIP3   OH212467   6.997   7.585   4.395
 4175TIP3    H112468   6.970   7.539   4.475
 4175TIP3    H212469   7.038   7.518   4.341
 4176TIP3   OH212470   1.954   7.067   0.371
 4176TIP3    H112471   1.861   7.046   0.383
 4176TIP3    H212472   1.954   7.158   0.342
 4177TIP3   OH212473   0.801   4.767   3.581
 4177TIP3    H112474   0.831   4.808   3.662
 4177TIP3    H212475   0.806   4.673   3.597
 4178TIP3   OH212476   2.775   2.580   2.540
 4178TIP3    H112477   2.857   2.532   2.530
 4178TIP3    H212478   2.743   2.591   2.450
 4179TIP3   OH212479   2.924   2.090   2.356
 4179TIP3    H112480   3.011   2.072   2.321
 4179TIP3    H212481   2.929   2.064   2.448
 4180TIP3   OH212482   7.003   7.370   0.995
 4180TIP3    H112483   7.045   7.415   1.068
 4180TIP3    H212484   6.958   7.296   1.035
 4181TIP3   OH212485   2.586   0.179   2.743
 4181TIP3    H112486   2.533   0.103   2.768
 4181TIP3    H212487   2.534   0.221   2.674
 4182TIP3   OH212488   6.391   0.077   3.740
 4182TIP3    H112489   6.349   0.140   3.681
 4182TIP3    H212490   6.474   0.056   3.697
 4183TIP3   OH212491   7.356   6.168   3.926
 4183TIP3    H112492   7.342   6.201   4.015
 4183TIP3    H212493   7.296   6.094   3.919
 4184TIP3   OH212494   8.040   4.841   1.419
 4184TIP3    H112495   8.081   4.790   1.349
 4184TIP3    H212496   8.104   4.910   1.438
 4185TIP3   OH212497   7.486   7.166   0.491
 4185TIP3    H112498   7.503   7.239   0.431
 4185TIP3    H212499   7.551   7.177   0.560
 4186TIP3   OH212500   3.164   6.240   5.111
 4186TIP3    H112501   3.107   6.234   5.034
 4186TIP3    H212502   3.105   6.252   5.185
 4187TIP3   OH212503   3.896   4.602   2.540
 4187TIP3    H112504   3.966   4.562   2.592
 4187TIP3    H212505   3.836   4.639   2.605
 4188TIP3   OH212506   4.161   1.204   0.584
 4188TIP3    H112507   4.153   1.294   0.553
 4188TIP3    H212508   4.122   1.205   0.671
 4189TIP3   OH212509   2.116   4.945   3.409
 4189TIP3    H112510   2.063   4.865   3.406
 4189TIP3    H212511   2.101   4.988   3.325
 4190TIP3   OH212512   4.842   6.583   1.337
 4190TIP3    H112513   4.753   6.562   1.364
 4190TIP3    H212514   4.842   6.566   1.242
 4191TIP3   OH212515   5.598   5.023   2.439
 4191TIP3    H112516   5.604   5.017   2.534
 4191TIP3    H212517   5.571   5.113   2.422
 4192TIP3   OH212518   4.146   2.970   2.981
 4192TIP3    H112519   4.172   2.899   3.041
 4192TIP3    H212520   4.169   2.938   2.894
 4193TIP3   OH212521   5.607   7.102   6.224
 4193TIP3    H112522   5.641   7.021   6.185
 4193TIP3    H212523   5.597   7.161   6.149
 4194TIP3   OH212524   2.403   2.634   2.953
 4194TIP3    H112525   2.493   2.653   2.981
 4194TIP3    H212526   2.410   2.623   2.858
 4195TIP3   OH212527   4.373   3.575   3.681
 4195TIP3    H112528   4.288   3.617   3.687
 4195TIP3    H212529   4.356   3.492   3.637
 4196TIP3   OH212530   2.467   2.910   3.165
 4196TIP3    H112531   2.556   2.922   3.198
 4196TIP3    H212532   2.412   2.913   3.243
 4197TIP3   OH212533   4.081   7.591   3.329
 4197TIP3    H112534   4.066   7.504   3.365
 4197TIP3    H212535   4.165   7.584   3.283
 4198TIP3   OH212536   2.959   1.926   2.854
 4198TIP3    H112537   2.950   1.980   2.933
 4198TIP3    H212538   3.024   1.859   2.879
 4199TIP3   OH212539   2.750   4.629   2.511
 4199TIP3    H112540   2.827   4.577   2.532
 4199TIP3    H212541   2.730   4.676   2.592
 4200TIP3   OH212542   4.876   6.870   1.537
 4200TIP3    H112543   4.853   6.790   1.585
 4200TIP3    H212544   4.817   6.936   1.573
 4201TIP3   OH212545   7.678   0.363   4.906
 4201TIP3    H112546   7.677   0.432   4.972
 4201TIP3    H212547   7.591   0.367   4.866
 4202TIP3   OH212548   2.425   6.855   6.082
 4202TIP3    H112549   2.366   6.835   6.009
 4202TIP3    H212550   2.410   6.947   6.101
 4203TIP3   OH212551   2.907   5.194   3.347
 4203TIP3    H112552   2.889   5.181   3.253
 4203TIP3    H212553   2.821   5.209   3.386
 4204TIP3   OH212554   4.614   6.905   4.941
 4204TIP3    H112555   4.592   6.974   4.878
 4204TIP3    H212556   4.585   6.824   4.898
 4205TIP3   OH212557   4.062   4.798   0.478
 4205TIP3    H112558   3.975   4.815   0.513
 4205TIP3    H212559   4.061   4.838   0.391
 4206TIP3   OH212560   5.917   4.287   4.644
 4206TIP3    H112561   6.011   4.271   4.632
 4206TIP3    H212562   5.876   4.254   4.564
 4207TIP3   OH212563   6.992   5.205   2.347
 4207TIP3    H112564   6.972   5.294   2.318
 4207TIP3    H212565   7.020   5.159   2.268
 4208TIP3   OH212566   7.950   7.351   5.939
 4208TIP3    H112567   7.867   7.365   5.895
 4208TIP3    H212568   7.962   7.256   5.940
 4209TIP3   OH212569   0.240   4.222   1.015
 4209TIP3    H112570   0.180   4.185   1.080
 4209TIP3    H212571   0.324   4.230   1.061
 4210TIP3   OH212572   7.311   5.483   1.857
 4210TIP3    H112573   7.262   5.421   1.911
 4210TIP3    H212574   7.363   5.534   1.919
 4211TIP3   OH212575   7.782   3.622   4.993
 4211TIP3    H112576   7.754   3.532   4.976
 4211TIP3    H212577   7.877   3.617   5.001
 4212TIP3   OH212578   5.333   2.020   0.455
 4212TIP3    H112579   5.329   1.929   0.427
 4212TIP3    H212580   5.384   2.018   0.536
 4213TIP3   OH212581   4.473   5.382   0.666
 4213TIP3    H112582   4.472   5.426   0.751
 4213TIP3    H212583   4.386   5.397   0.630
 4214TIP3   OH212584   3.180   3.895   5.731
 4214TIP3    H112585   3.208   3.971   5.680
 4214TIP3    H212586   3.232   3.822   5.696
 4215TIP3   OH212587   4.798   6.695   1.723
 4215TIP3    H112588   4.710   6.705   1.760
 4215TIP3    H212589   4.848   6.650   1.791
 4216TIP3   OH212590   0.462   3.097   0.300
 4216TIP3    H112591   0.501   3.014   0.272
 4216TIP3    H212592   0.398   3.073   0.366
 4217TIP3   OH212593   2.159   4.628   0.679
 4217TIP3    H112594   2.151   4.539   0.716
 4217TIP3    H212595   2.248   4.655   0.700
 4218TIP3   OH212596   4.996   3.973   4.326
 4218TIP3    H112597   5.030   4.035   4.262
 4218TIP3    H212598   4.927   3.926   4.280
 4219TIP3   OH212599   8.053   0.447   1.011
 4219TIP3    H112600   8.082   0.398   0.934
 4219TIP3    H212601   8.132   0.457   1.064
 4220TIP3   OH212602   8.157   2.932   0.809
 4220TIP3    H112603   8.164   2.838   0.794
 4220TIP3    H212604   8.073   2.956   0.771
 4221TIP3   OH212605   6.566   6.824   2.293
 4221TIP3    H112606   6.600   6.839   2.382
 4221TIP3    H212607   6.644   6.808   2.240
 4222TIP3   OH212608   5.949   5.607   0.753
 4222TIP3    H112609   5.896   5.644   0.682
 4222TIP3    H212610   5.990   5.683   0.795
 4223TIP3   OH212611   7.233   0.193   3.746
 4223TIP3    H112612   7.157   0.214   3.799
 4223TIP3    H212613   7.225   0.249   3.669
 4224TIP3   OH212614   6.163   0.517   0.412
 4224TIP3    H112615   6.078   0.557   0.433
 4224TIP3    H212616   6.224   0.558   0.474
 4225TIP3   OH212617   5.908   0.389   6.527
 4225TIP3    H112618   5.917   0.391   6.432
 4225TIP3    H212619   5.813   0.389   6.542
 4226TIP3   OH212620   0.806   7.452   4.008
 4226TIP3    H112621   0.893   7.434   4.042
 4226TIP3    H212622   0.755   7.373   4.028
 4227TIP3   OH212623   3.870   2.987   5.033
 4227TIP3    H112624   3.884   2.920   4.967
 4227TIP3    H212625   3.915   3.064   5.000
 4228TIP3   OH212626   0.804   0.401   0.514
 4228TIP3    H112627   0.863   0.351   0.457
 4228TIP3    H212628   0.860   0.470   0.550
 4229TIP3   OH212629   1.993   5.718   2.864
 4229TIP3    H112630   1.960   5.783   2.802
 4229TIP3    H212631   2.073   5.757   2.899
 4230TIP3   OH212632   4.264   0.471   4.508
 4230TIP3    H112633   4.176   0.507   4.522
 4230TIP3    H212634   4.283   0.423   4.589
 4231TIP3   OH212635   7.486   0.857   4.344
 4231TIP3    H112636   7.577   0.858   4.317
 4231TIP3    H212637   7.441   0.801   4.281
 4232TIP3   OH212638   2.534   1.353   3.400
 4232TIP3    H112639   2.506   1.287   3.336
 4232TIP3    H212640   2.579   1.420   3.348
 4233TIP3   OH212641   6.755   4.140   1.978
 4233TIP3    H112642   6.766   4.052   2.014
 4233TIP3    H212643   6.747   4.197   2.055
 4234TIP3   OH212644   1.839   1.952   6.531
 4234TIP3    H112645   1.837   1.991   6.444
 4234TIP3    H212646   1.748   1.958   6.562
 4235TIP3   OH212647   4.290   1.014   4.132
 4235TIP3    H112648   4.264   0.936   4.182
 4235TIP3    H212649   4.351   1.060   4.189
 4236TIP3   OH212650   3.980   2.468   1.916
 4236TIP3    H112651   3.988   2.387   1.866
 4236TIP3    H212652   4.042   2.458   1.988
 4237TIP3   OH212653   6.666   3.666   6.602
 4237TIP3    H112654   6.676   3.617   6.684
 4237TIP3    H212655   6.581   3.708   6.610
 4238TIP3   OH212656   2.239   6.003   6.470
 4238TIP3    H112657   2.229   6.015   6.565
 4238TIP3    H212658   2.164   5.949   6.445
 4239TIP3   OH212659   5.821   5.628   0.242
 4239TIP3    H112660   5.827   5.580   0.160
 4239TIP3    H212661   5.850   5.717   0.221
 4240TIP3   OH212662   2.574   1.065   4.504
 4240TIP3    H112663   2.658   1.042   4.464
 4240TIP3    H212664   2.540   0.982   4.539
 4241TIP3   OH212665   6.824   6.177   3.867
 4241TIP3    H112666   6.843   6.096   3.821
 4241TIP3    H212667   6.812   6.151   3.958
 4242TIP3   OH212668   5.997   3.838   0.302
 4242TIP3    H112669   6.039   3.909   0.254
 4242TIP3    H212670   6.069   3.783   0.332
 4243TIP3   OH212671   0.467   1.979   6.660
 4243TIP3    H112672   0.480   1.904   6.601
 4243TIP3    H212673   0.418   2.042   6.608
 4244TIP3   OH212674   6.843   6.527   1.570
 4244TIP3    H112675   6.788   6.584   1.516
 4244TIP3    H212676   6.806   6.440   1.558
 4245TIP3   OH212677   3.864   0.447   1.673
 4245TIP3    H112678   3.903   0.360   1.676
 4245TIP3    H212679   3.883   0.479   1.585
 4246TIP3   OH212680   3.586   0.047   2.296
 4246TIP3    H112681   3.635   0.010   2.369
 4246TIP3    H212682   3.496   0.056   2.329
 4247TIP3   OH212683   5.280   6.726   2.916
 4247TIP3    H112684   5.192   6.734   2.879
 4247TIP3    H212685   5.288   6.798   2.977
 4248TIP3   OH212686   4.922   5.126   4.157
 4248TIP3    H112687   4.918   5.134   4.062
 4248TIP3    H212688   4.911   5.033   4.174
 4249TIP3   OH212689   5.094   6.836   0.899
 4249TIP3    H112690   5.085   6.793   0.985
 4249TIP3    H212691   5.141   6.772   0.846
 4250TIP3   OH212692   1.227   4.031   1.378
 4250TIP3    H112693   1.255   4.111   1.423
 4250TIP3    H212694   1.299   4.010   1.319
 4251TIP3   OH212695   5.718   7.818   1.281
 4251TIP3    H112696   5.762   7.792   1.362
 4251TIP3    H212697   5.625   7.810   1.300
 4252TIP3   OH212698  -0.026   5.622   4.236
 4252TIP3    H112699  -0.028   5.527   4.222
 4252TIP3    H212700  -0.019   5.659   4.148
 4253TIP3   OH212701   3.958   5.199   2.018
 4253TIP3    H112702   4.032   5.191   1.958
 4253TIP3    H212703   3.920   5.112   2.022
 4254TIP3   OH212704   3.725   3.904   4.720
 4254TIP3    H112705   3.673   3.975   4.682
 4254TIP3    H212706   3.812   3.915   4.681
 4255TIP3   OH212707   1.274   7.083   2.103
 4255TIP3    H112708   1.185   7.049   2.102
 4255TIP3    H212709   1.284   7.121   2.191
 4256TIP3   OH212710   2.752   3.145   0.466
 4256TIP3    H112711   2.808   3.167   0.541
 4256TIP3    H212712   2.802   3.080   0.417
 4257TIP3   OH212713   1.741   1.147   4.729
 4257TIP3    H112714   1.662   1.164   4.779
 4257TIP3    H212715   1.724   1.186   4.643
 4258TIP3   OH212716   0.994   5.854   4.411
 4258TIP3    H112717   1.088   5.848   4.394
 4258TIP3    H212718   0.988   5.876   4.504
 4259TIP3   OH212719   3.634   5.962   4.837
 4259TIP3    H112720   3.717   5.972   4.884
 4259TIP3    H212721   3.567   5.969   4.906
 4260TIP3   OH212722   4.901   7.645   2.061
 4260TIP3    H112723   4.907   7.727   2.012
 4260TIP3    H212724   4.919   7.669   2.151
 4261TIP3   OH212725   1.130   4.895   2.529
 4261TIP3    H112726   1.098   4.840   2.457
 4261TIP3    H212727   1.185   4.837   2.581
 4262TIP3   OH212728   0.733   3.293   2.115
 4262TIP3    H112729   0.754   3.305   2.208
 4262TIP3    H212730   0.778   3.366   2.071
 4263TIP3   OH212731   2.189   0.330   0.172
 4263TIP3    H112732   2.273   0.373   0.182
 4263TIP3    H212733   2.179   0.277   0.251
 4264TIP3   OH212734   6.371   6.357   3.454
 4264TIP3    H112735   6.425   6.369   3.533
 4264TIP3    H212736   6.284   6.388   3.479
 4265TIP3   OH212737   0.485   3.956   3.774
 4265TIP3    H112738   0.560   3.921   3.823
 4265TIP3    H212739   0.496   3.922   3.685
 4266TIP3   OH212740   7.426   3.392   4.636
 4266TIP3    H112741   7.421   3.396   4.732
 4266TIP3    H212742   7.513   3.427   4.616
 4267TIP3   OH212743   6.705   6.956   3.183
 4267TIP3    H112744   6.708   7.051   3.172
 4267TIP3    H212745   6.771   6.924   3.121
 4268TIP3   OH212746   4.889   4.544   5.854
 4268TIP3    H112747   4.858   4.454   5.842
 4268TIP3    H212748   4.809   4.598   5.846
 4269TIP3   OH212749   6.833   7.106   5.019
 4269TIP3    H112750   6.772   7.118   4.947
 4269TIP3    H212751   6.905   7.056   4.982
 4270TIP3   OH212752   1.864   3.323   5.965
 4270TIP3    H112753   1.782   3.274   5.970
 4270TIP3    H212754   1.920   3.271   5.907
 4271TIP3   OH212755   0.391   6.299   5.720
 4271TIP3    H112756   0.446   6.313   5.797
 4271TIP3    H212757   0.452   6.271   5.652
 4272TIP3   OH212758   6.637   7.257   4.845
 4272TIP3    H112759   6.658   7.227   4.757
 4272TIP3    H212760   6.650   7.352   4.842
 4273TIP3   OH212761   1.340   5.856   1.880
 4273TIP3    H112762   1.251   5.822   1.889
 4273TIP3    H212763   1.366   5.877   1.970
 4274TIP3   OH212764   6.877   7.195   0.190
 4274TIP3    H112765   6.846   7.116   0.146
 4274TIP3    H212766   6.816   7.207   0.264
 4275TIP3   OH212767   1.266   4.102   3.319
 4275TIP3    H112768   1.263   4.030   3.382
 4275TIP3    H212769   1.324   4.072   3.249
 4276TIP3   OH212770   4.311   3.886   1.958
 4276TIP3    H112771   4.232   3.901   1.906
 4276TIP3    H212772   4.310   3.792   1.977
 4277TIP3   OH212773   3.746   0.805   5.049
 4277TIP3    H112774   3.732   0.871   4.981
 4277TIP3    H212775   3.761   0.724   5.001
 4278TIP3   OH212776   1.034   6.950   2.018
 4278TIP3    H112777   0.974   6.876   2.024
 4278TIP3    H212778   1.054   6.958   1.925
 4279TIP3   OH212779   2.344   5.677   6.506
 4279TIP3    H112780   2.356   5.606   6.569
 4279TIP3    H212781   2.256   5.711   6.525
 4280TIP3   OH212782   8.024   4.871   4.128
 4280TIP3    H112783   8.099   4.912   4.170
 4280TIP3    H212784   7.994   4.934   4.063
 4281TIP3   OH212785   7.164   2.107   3.526
 4281TIP3    H112786   7.101   2.036   3.540
 4281TIP3    H212787   7.208   2.118   3.610
 4282TIP3   OH212788   1.668   5.517   6.613
 4282TIP3    H112789   1.678   5.571   6.692
 4282TIP3    H212790   1.589   5.465   6.630
 4283TIP3   OH212791   0.537   6.103   2.191
 4283TIP3    H112792   0.518   6.076   2.281
 4283TIP3    H212793   0.454   6.140   2.159
 4284TIP3   OH212794   6.067   0.108   2.279
 4284TIP3    H112795   6.115   0.152   2.349
 4284TIP3    H212796   5.999   0.058   2.324
 4285TIP3   OH212797   7.660   2.116   6.033
 4285TIP3    H112798   7.612   2.074   5.962
 4285TIP3    H212799   7.605   2.190   6.059
 4286TIP3   OH212800   7.765   7.617   4.815
 4286TIP3    H112801   7.841   7.607   4.759
 4286TIP3    H212802   7.771   7.708   4.847
 4287TIP3   OH212803   5.408   3.422   0.191
 4287TIP3    H112804   5.445   3.472   0.264
 4287TIP3    H212805   5.474   3.428   0.122
 4288TIP3   OH212806   1.081   3.809   2.993
 4288TIP3    H112807   1.130   3.766   3.064
 4288TIP3    H212808   1.141   3.877   2.962
 4289TIP3   OH212809   2.164   2.576   2.533
 4289TIP3    H112810   2.203   2.575   2.446
 4289TIP3    H212811   2.235   2.603   2.591
 4290TIP3   OH212812   1.352   3.640   0.661
 4290TIP3    H112813   1.415   3.571   0.679
 4290TIP3    H212814   1.277   3.596   0.622
 4291TIP3   OH212815   7.136   6.892   0.155
 4291TIP3    H112816   7.177   6.839   0.224
 4291TIP3    H212817   7.049   6.911   0.189
 4292TIP3   OH212818   0.689   2.693   6.490
 4292TIP3    H112819   0.628   2.696   6.415
 4292TIP3    H212820   0.692   2.601   6.515
 4293TIP3   OH212821   1.445   2.878   5.013
 4293TIP3    H112822   1.373   2.815   5.001
 4293TIP3    H212823   1.505   2.833   5.073
 4294TIP3   OH212824   2.924   6.669   6.527
 4294TIP3    H112825   3.010   6.628   6.532
 4294TIP3    H212826   2.904   6.694   6.617
 4295TIP3   OH212827   5.091   7.558   1.104
 4295TIP3    H112828   5.037   7.582   1.029
 4295TIP3    H212829   5.110   7.465   1.091
 4296TIP3   OH212830   6.335   4.869   1.079
 4296TIP3    H112831   6.407   4.894   1.136
 4296TIP3    H212832   6.320   4.945   1.023
 4297TIP3   OH212833   3.054   5.977   6.331
 4297TIP3    H112834   3.046   5.921   6.254
 4297TIP3    H212835   2.975   5.959   6.382
 4298TIP3   OH212836   0.878   1.492   1.249
 4298TIP3    H112837   0.814   1.522   1.185
 4298TIP3    H212838   0.917   1.415   1.208
 4299TIP3   OH212839   5.223   7.501   3.479
 4299TIP3    H112840   5.156   7.466   3.421
 4299TIP3    H212841   5.305   7.468   3.442
 4300TIP3   OH212842   1.301   5.421   4.108
 4300TIP3    H112843   1.336   5.400   4.022
 4300TIP3    H212844   1.307   5.516   4.114
 4301TIP3   OH212845   0.262   6.950   3.927
 4301TIP3    H112846   0.270   7.040   3.894
 4301TIP3    H212847   0.183   6.917   3.884
 4302TIP3   OH212848   4.330   5.834   1.232
 4302TIP3    H112849   4.289   5.913   1.267
 4302TIP3    H212850   4.260   5.768   1.232
 4303TIP3   OH212851   2.484   0.830   1.375
 4303TIP3    H112852   2.574   0.847   1.403
 4303TIP3    H212853   2.432   0.839   1.454
 4304TIP3   OH212854   4.764   3.537   5.908
 4304TIP3    H112855   4.822   3.492   5.968
 4304TIP3    H212856   4.738   3.617   5.954
 4305TIP3   OH212857   5.906   7.176   1.088
 4305TIP3    H112858   6.000   7.159   1.092
 4305TIP3    H212859   5.883   7.165   0.996
 4306TIP3   OH212860   5.969   5.419   1.742
 4306TIP3    H112861   5.879   5.395   1.766
 4306TIP3    H212862   5.960   5.503   1.696
 4307TIP3   OH212863   2.337   5.398   1.413
 4307TIP3    H112864   2.362   5.449   1.336
 4307TIP3    H212865   2.252   5.434   1.438
 4308TIP3   OH212866   1.694   0.381   0.976
 4308TIP3    H112867   1.762   0.327   0.935
 4308TIP3    H212868   1.743   0.450   1.022
 4309TIP3   OH212869   3.815   1.888   5.754
 4309TIP3    H112870   3.751   1.837   5.803
 4309TIP3    H212871   3.810   1.976   5.791
 4310TIP3   OH212872   3.649   3.780   4.003
 4310TIP3    H112873   3.635   3.789   4.097
 4310TIP3    H212874   3.715   3.711   3.995
 4311TIP3   OH212875   4.602   7.100   2.404
 4311TIP3    H112876   4.617   7.031   2.340
 4311TIP3    H212877   4.664   7.082   2.475
 4312TIP3   OH212878   0.530   2.497   1.389
 4312TIP3    H112879   0.461   2.500   1.456
 4312TIP3    H212880   0.485   2.520   1.308
 4313TIP3   OH212881   7.284   1.250   2.021
 4313TIP3    H112882   7.259   1.168   2.063
 4313TIP3    H212883   7.210   1.272   1.965
 4314TIP3   OH212884   7.758   3.959   5.433
 4314TIP3    H112885   7.849   3.982   5.417
 4314TIP3    H212886   7.757   3.926   5.523
 4315TIP3   OH212887   6.183   5.398   1.000
 4315TIP3    H112888   6.194   5.366   0.910
 4315TIP3    H212889   6.100   5.361   1.029
 4316TIP3   OH212890   2.016   1.354   2.872
 4316TIP3    H112891   2.017   1.321   2.961
 4316TIP3    H212892   1.937   1.316   2.833
 4317TIP3   OH212893   7.525   7.006   6.231
 4317TIP3    H112894   7.537   7.074   6.297
 4317TIP3    H212895   7.602   6.950   6.238
 4318TIP3   OH212896   7.130   0.182   2.620
 4318TIP3    H112897   7.089   0.187   2.533
 4318TIP3    H212898   7.087   0.108   2.662
 4319TIP3   OH212899   5.618   5.625   1.384
 4319TIP3    H112900   5.672   5.547   1.395
 4319TIP3    H212901   5.678   5.692   1.351
 4320TIP3   OH212902   4.752   7.683   5.718
 4320TIP3    H112903   4.678   7.732   5.682
 4320TIP3    H212904   4.823   7.747   5.723
 4321TIP3   OH212905   0.436   2.274   5.716
 4321TIP3    H112906   0.383   2.260   5.637
 4321TIP3    H212907   0.526   2.263   5.686
 4322TIP3   OH212908   5.149   7.220   6.559
 4322TIP3    H112909   5.149   7.213   6.654
 4322TIP3    H212910   5.127   7.312   6.541
 4323TIP3   OH212911   6.061   3.688   3.133
 4323TIP3    H112912   6.097   3.710   3.219
 4323TIP3    H212913   6.011   3.765   3.107
 4324TIP3   OH212914   2.205   0.984   1.164
 4324TIP3    H112915   2.251   0.990   1.080
 4324TIP3    H212916   2.227   1.065   1.210
 4325TIP3   OH212917   0.119   5.195   2.720
 4325TIP3    H112918   0.169   5.231   2.793
 4325TIP3    H212919   0.114   5.101   2.739
 4326TIP3   OH212920   0.722   5.998   4.927
 4326TIP3    H112921   0.691   6.002   4.837
 4326TIP3    H212922   0.643   6.009   4.981
 4327TIP3   OH212923   2.444   3.196   1.909
 4327TIP3    H112924   2.400   3.267   1.863
 4327TIP3    H212925   2.464   3.232   1.995
 4328TIP3   OH212926   2.532   6.343   0.352
 4328TIP3    H112927   2.561   6.408   0.416
 4328TIP3    H212928   2.439   6.331   0.370
 4329TIP3   OH212929   5.057   4.331   1.057
 4329TIP3    H112930   5.013   4.416   1.056
 4329TIP3    H212931   5.146   4.351   1.086
 4330TIP3   OH212932   3.434   5.850   3.565
 4330TIP3    H112933   3.468   5.763   3.545
 4330TIP3    H212934   3.466   5.905   3.494
 4331TIP3   OH212935   8.098   7.432   1.022
 4331TIP3    H112936   8.188   7.421   0.989
 4331TIP3    H212937   8.096   7.522   1.055
 4332TIP3   OH212938   0.672   3.494   0.329
 4332TIP3    H112939   0.753   3.526   0.290
 4332TIP3    H212940   0.683   3.507   0.423
 4333TIP3   OH212941   1.760   2.090   1.728
 4333TIP3    H112942   1.721   2.146   1.662
 4333TIP3    H212943   1.844   2.063   1.690
 4334TIP3   OH212944   2.750   5.974   3.460
 4334TIP3    H112945   2.684   5.950   3.395
 4334TIP3    H212946   2.783   5.890   3.492
 4335TIP3   OH212947   2.840   1.329   6.157
 4335TIP3    H112948   2.848   1.290   6.244
 4335TIP3    H212949   2.792   1.411   6.172
 4336TIP3   OH212950   0.146   2.693   0.439
 4336TIP3    H112951   0.128   2.605   0.408
 4336TIP3    H212952   0.179   2.681   0.528
 4337TIP3   OH212953   2.782   6.824   0.568
 4337TIP3    H112954   2.741   6.804   0.484
 4337TIP3    H212955   2.763   6.747   0.622
 4338TIP3   OH212956   0.246   2.183   3.791
 4338TIP3    H112957   0.222   2.179   3.884
 4338TIP3    H212958   0.186   2.246   3.753
 4339TIP3   OH212959   4.637   1.205   0.621
 4339TIP3    H112960   4.639   1.246   0.535
 4339TIP3    H212961   4.651   1.277   0.682
 4340TIP3   OH212962   1.184   0.679   0.695
 4340TIP3    H112963   1.253   0.723   0.646
 4340TIP3    H212964   1.161   0.740   0.765
 4341TIP3   OH212965   6.094   5.402   3.298
 4341TIP3    H112966   6.166   5.453   3.334
 4341TIP3    H212967   6.042   5.465   3.247
 4342TIP3   OH212968   3.199   3.640   1.088
 4342TIP3    H112969   3.264   3.648   1.158
 4342TIP3    H212970   3.208   3.550   1.057
 4343TIP3   OH212971   1.903   3.000   3.325
 4343TIP3    H112972   1.869   3.014   3.413
 4343TIP3    H212973   1.916   2.905   3.319
 4344TIP3   OH212974   3.426   1.573   1.220
 4344TIP3    H112975   3.398   1.655   1.177
 4344TIP3    H212976   3.345   1.524   1.232
 4345TIP3   OH212977   1.607   1.327   6.413
 4345TIP3    H112978   1.640   1.300   6.498
 4345TIP3    H212979   1.616   1.423   6.412
 4346TIP3   OH212980   7.522   7.369   0.273
 4346TIP3    H112981   7.433   7.384   0.305
 4346TIP3    H212982   7.562   7.456   0.270
 4347TIP3   OH212983   0.430   7.636   2.852
 4347TIP3    H112984   0.423   7.542   2.871
 4347TIP3    H212985   0.513   7.662   2.893
 4348TIP3   OH212986   1.074   5.821   0.070
 4348TIP3    H112987   0.992   5.818   0.120
 4348TIP3    H212988   1.140   5.848   0.133
 4349TIP3   OH212989   7.065   7.129   5.848
 4349TIP3    H112990   7.117   7.074   5.906
 4349TIP3    H212991   7.045   7.073   5.773
 4350TIP3   OH212992   5.332   2.273   2.660
 4350TIP3    H112993   5.299   2.197   2.708
 4350TIP3    H212994   5.308   2.255   2.569
 4351TIP3   OH212995   5.300   1.775   0.337
 4351TIP3    H112996   5.374   1.745   0.284
 4351TIP3    H212997   5.228   1.782   0.274
 4352TIP3   OH212998   7.443  -0.011   1.399
 4352TIP3    H112999   7.400   0.009   1.316
 4352TIP3    H213000   7.501   0.063   1.414
 4353TIP3   OH213001   4.795   4.445   0.307
 4353TIP3    H113002   4.821   4.527   0.264
 4353TIP3    H213003   4.754   4.474   0.389
 4354TIP3   OH213004   6.911   6.707   4.026
 4354TIP3    H113005   6.863   6.733   4.105
 4354TIP3    H213006   6.961   6.785   4.002
 4355TIP3   OH213007   4.762   4.771   6.169
 4355TIP3    H113008   4.701   4.794   6.239
 4355TIP3    H213009   4.803   4.690   6.199
 4356TIP3   OH213010   7.662   2.899   2.399
 4356TIP3    H113011   7.743   2.877   2.445
 4356TIP3    H213012   7.638   2.986   2.431
 4357TIP3   OH213013   3.548   0.734   0.533
 4357TIP3    H113014   3.491   0.705   0.604
 4357TIP3    H213015   3.585   0.817   0.563
 4358TIP3   OH213016   3.619   1.216   2.282
 4358TIP3    H113017   3.669   1.143   2.245
 4358TIP3    H213018   3.574   1.178   2.357
 4359TIP3   OH213019   1.223   4.901   1.681
 4359TIP3    H113020   1.131   4.875   1.695
 4359TIP3    H213021   1.271   4.855   1.750
 4360TIP3   OH213022   4.672   6.073   6.609
 4360TIP3    H113023   4.610   6.010   6.573
 4360TIP3    H213024   4.689   6.042   6.698
 4361TIP3   OH213025   8.242   4.490   3.196
 4361TIP3    H113026   8.150   4.500   3.220
 4361TIP3    H213027   8.249   4.399   3.167
 4362TIP3   OH213028   5.727   6.860   4.031
 4362TIP3    H113029   5.811   6.903   4.046
 4362TIP3    H213030   5.686   6.910   3.961
 4363TIP3   OH213031   2.598   6.816   5.750
 4363TIP3    H113032   2.646   6.744   5.790
 4363TIP3    H213033   2.587   6.881   5.820
 4364TIP3   OH213034   7.411   4.370   2.744
 4364TIP3    H113035   7.356   4.309   2.694
 4364TIP3    H213036   7.485   4.317   2.774
 4365TIP3   OH213037   0.807   6.422   0.140
 4365TIP3    H113038   0.903   6.428   0.140
 4365TIP3    H213039   0.778   6.503   0.181
 4366TIP3   OH213040   2.286   3.233   0.723
 4366TIP3    H113041   2.366   3.237   0.775
 4366TIP3    H213042   2.270   3.324   0.696
 4367TIP3   OH213043   7.862   0.912   6.420
 4367TIP3    H113044   7.903   0.996   6.401
 4367TIP3    H213045   7.919   0.872   6.487
 4368TIP3   OH213046   3.274   1.390   6.636
 4368TIP3    H113047   3.214   1.348   6.698
 4368TIP3    H213048   3.255   1.483   6.644
 4369TIP3   OH213049   0.113   4.711   5.634
 4369TIP3    H113050   0.070   4.791   5.603
 4369TIP3    H213051   0.051   4.674   5.697
 4370TIP3   OH213052   6.213   1.412   6.438
 4370TIP3    H113053   6.247   1.410   6.348
 4370TIP3    H213054   6.289   1.389   6.492
 4371TIP3   OH213055   5.888   2.891   5.310
 4371TIP3    H113056   5.812   2.877   5.367
 4371TIP3    H213057   5.853   2.941   5.236
 4372TIP3   OH213058   0.581   7.681   4.663
 4372TIP3    H113059   0.664   7.642   4.690
 4372TIP3    H213060   0.521   7.607   4.653
 4373TIP3   OH213061   0.108   2.007   1.817
 4373TIP3    H113062   0.045   2.079   1.822
 4373TIP3    H213063   0.104   1.978   1.726
 4374TIP3   OH213064   0.124   2.210   0.744
 4374TIP3    H113065   0.166   2.172   0.821
 4374TIP3    H213066   0.030   2.205   0.762
 4375TIP3   OH213067   7.768   4.590   0.544
 4375TIP3    H113068   7.792   4.518   0.602
 4375TIP3    H213069   7.719   4.651   0.600
 4376TIP3   OH213070   6.400   6.438   5.151
 4376TIP3    H113071   6.361   6.367   5.100
 4376TIP3    H213072   6.494   6.421   5.149
 4377TIP3   OH213073   3.076   1.081   4.397
 4377TIP3    H113074   2.996   1.063   4.348
 4377TIP3    H213075   3.144   1.033   4.350
 4378TIP3   OH213076   5.148   3.887   5.095
 4378TIP3    H113077   5.130   3.833   5.018
 4378TIP3    H213078   5.102   3.969   5.078
 4379TIP3   OH213079   3.046   7.609   3.903
 4379TIP3    H113080   3.020   7.685   3.953
 4379TIP3    H213081   3.128   7.580   3.943
 4380TIP3   OH213082   7.904   5.669   3.595
 4380TIP3    H113083   7.968   5.607   3.559
 4380TIP3    H213084   7.957   5.740   3.631
 4381TIP3   OH213085   5.133   2.487   1.333
 4381TIP3    H113086   5.089   2.459   1.413
 4381TIP3    H213087   5.220   2.512   1.362
 4382TIP3   OH213088   6.377   1.912   3.655
 4382TIP3    H113089   6.323   1.875   3.584
 4382TIP3    H213090   6.462   1.870   3.644
 4383TIP3   OH213091   6.170   3.740   1.586
 4383TIP3    H113092   6.118   3.659   1.589
 4383TIP3    H213093   6.106   3.809   1.604
 4384TIP3   OH213094   0.522   1.226   4.197
 4384TIP3    H113095   0.464   1.301   4.215
 4384TIP3    H213096   0.566   1.209   4.280
 4385TIP3   OH213097   3.806   4.497   4.952
 4385TIP3    H113098   3.833   4.461   4.868
 4385TIP3    H213099   3.732   4.554   4.931
 4386TIP3   OH213100   6.032   5.404   0.363
 4386TIP3    H113101   6.048   5.427   0.454
 4386TIP3    H213102   5.968   5.333   0.368
 4387TIP3   OH213103   3.865   6.964   6.607
 4387TIP3    H113104   3.871   6.869   6.611
 4387TIP3    H213105   3.956   6.994   6.600
 4388TIP3   OH213106   3.376   6.777   2.101
 4388TIP3    H113107   3.318   6.746   2.170
 4388TIP3    H213108   3.462   6.784   2.142
 4389TIP3   OH213109   2.407   2.750   1.642
 4389TIP3    H113110   2.460   2.700   1.580
 4389TIP3    H213111   2.385   2.686   1.711
 4390TIP3   OH213112   0.257   3.763   0.829
 4390TIP3    H113113   0.235   3.731   0.741
 4390TIP3    H213114   0.186   3.823   0.851
 4391TIP3   OH213115   1.182   4.584   5.647
 4391TIP3    H113116   1.152   4.675   5.651
 4391TIP3    H213117   1.145   4.550   5.565
 4392TIP3   OH213118   7.526   1.864   6.685
 4392TIP3    H113119   7.522   1.932   6.753
 4392TIP3    H213120   7.513   1.782   6.732
 4393TIP3   OH213121   6.914   5.749   3.177
 4393TIP3    H113122   6.821   5.769   3.186
 4393TIP3    H213123   6.945   5.805   3.106
 4394TIP3   OH213124   2.420   6.308   4.789
 4394TIP3    H113125   2.460   6.363   4.721
 4394TIP3    H213126   2.393   6.229   4.743
 4395TIP3   OH213127   7.622   5.803   4.051
 4395TIP3    H113128   7.713   5.775   4.048
 4395TIP3    H213129   7.609   5.836   4.140
 4396TIP3   OH213130   4.270   4.392   4.253
 4396TIP3    H113131   4.201   4.327   4.264
 4396TIP3    H213132   4.296   4.415   4.342
 4397TIP3   OH213133   6.589   1.443   6.377
 4397TIP3    H113134   6.554   1.521   6.419
 4397TIP3    H213135   6.523   1.375   6.392
 4398TIP3   OH213136   0.969   4.697   2.056
 4398TIP3    H113137   0.952   4.785   2.089
 4398TIP3    H213138   1.057   4.676   2.088
 4399TIP3   OH213139   2.825   5.901   5.047
 4399TIP3    H113140   2.792   5.926   5.133
 4399TIP3    H213141   2.820   5.982   4.995
 4400TIP3   OH213142   0.619   6.756   5.087
 4400TIP3    H113143   0.535   6.802   5.095
 4400TIP3    H213144   0.595   6.669   5.055
 4401TIP3   OH213145   5.419   0.268   3.562
 4401TIP3    H113146   5.398   0.360   3.578
 4401TIP3    H213147   5.512   0.268   3.541
 4402TIP3   OH213148   3.740   5.059   3.280
 4402TIP3    H113149   3.739   5.134   3.339
 4402TIP3    H213150   3.811   5.078   3.218
 4403TIP3   OH213151   0.746   1.861   3.271
 4403TIP3    H113152   0.755   1.876   3.177
 4403TIP3    H213153   0.790   1.777   3.286
 4404TIP3   OH213154   8.095   5.997   0.804
 4404TIP3    H113155   8.090   5.919   0.748
 4404TIP3    H213156   8.160   6.053   0.762
 4405TIP3   OH213157   0.863   2.829   3.341
 4405TIP3    H113158   0.908   2.769   3.281
 4405TIP3    H213159   0.934   2.872   3.389
 4406TIP3   OH213160   3.356   3.072   0.578
 4406TIP3    H113161   3.372   3.166   0.587
 4406TIP3    H213162   3.411   3.046   0.504
 4407TIP3   OH213163   7.847   3.320   4.389
 4407TIP3    H113164   7.800   3.290   4.311
 4407TIP3    H213165   7.831   3.251   4.454
 4408TIP3   OH213166   3.217   3.903   1.845
 4408TIP3    H113167   3.301   3.883   1.804
 4408TIP3    H213168   3.222   3.997   1.865
 4409TIP3   OH213169   4.873   3.322   1.441
 4409TIP3    H113170   4.797   3.362   1.399
 4409TIP3    H213171   4.869   3.352   1.532
 4410TIP3   OH213172   2.184   4.062   4.237
 4410TIP3    H113173   2.137   4.095   4.160
 4410TIP3    H213174   2.261   4.118   4.244
 4411TIP3   OH213175   4.044   7.423   4.761
 4411TIP3    H113176   4.139   7.417   4.772
 4411TIP3    H213177   4.016   7.486   4.828
 4412TIP3   OH213178   0.267   6.591   4.820
 4412TIP3    H113179   0.212   6.618   4.894
 4412TIP3    H213180   0.206   6.570   4.750
 4413TIP3   OH213181   6.289   0.396   2.122
 4413TIP3    H113182   6.294   0.319   2.180
 4413TIP3    H213183   6.376   0.435   2.127
 4414TIP3   OH213184   0.018   2.093   6.045
 4414TIP3    H113185   0.010   2.059   5.956
 4414TIP3    H213186  -0.038   2.036   6.098
 4415TIP3   OH213187   2.261   4.305   6.407
 4415TIP3    H113188   2.188   4.313   6.468
 4415TIP3    H213189   2.302   4.391   6.406
 4416TIP3   OH213190   4.514   1.933   0.548
 4416TIP3    H113191   4.429   1.975   0.554
 4416TIP3    H213192   4.554   1.969   0.469
 4417TIP3   OH213193   0.885   5.918   0.977
 4417TIP3    H113194   0.977   5.923   1.001
 4417TIP3    H213195   0.847   5.999   1.011
 4418TIP3   OH213196   1.599   6.142   1.368
 4418TIP3    H113197   1.508   6.141   1.338
 4418TIP3    H213198   1.627   6.051   1.362
 4419TIP3   OH213199   7.912   6.884   4.301
 4419TIP3    H113200   7.893   6.973   4.270
 4419TIP3    H213201   7.847   6.869   4.369
 4420TIP3   OH213202   8.345   5.836   5.734
 4420TIP3    H113203   8.282   5.765   5.735
 4420TIP3    H213204   8.297   5.911   5.770
 4421TIP3   OH213205   0.760   0.470   4.778
 4421TIP3    H113206   0.678   0.427   4.753
 4421TIP3    H213207   0.825   0.399   4.779
 4422TIP3   OH213208   3.866   2.584   2.257
 4422TIP3    H113209   3.839   2.676   2.252
 4422TIP3    H213210   3.885   2.559   2.167
 4423TIP3   OH213211   1.620   2.399   2.871
 4423TIP3    H113212   1.688   2.465   2.856
 4423TIP3    H213213   1.667   2.316   2.874
 4424TIP3   OH213214   2.337   1.813   4.626
 4424TIP3    H113215   2.370   1.745   4.566
 4424TIP3    H213216   2.242   1.804   4.621
 4425TIP3   OH213217   4.603   1.970   5.978
 4425TIP3    H113218   4.678   2.012   5.935
 4425TIP3    H213219   4.641   1.898   6.027
 4426TIP3   OH213220   6.464   4.173   0.038
 4426TIP3    H113221   6.395   4.234   0.063
 4426TIP3    H213222   6.485   4.196  -0.053
 4427TIP3   OH213223   3.645   5.393   5.944
 4427TIP3    H113224   3.645   5.475   5.994
 4427TIP3    H213225   3.623   5.418   5.855
 4428TIP3   OH213226   5.686   5.471   5.373
 4428TIP3    H113227   5.735   5.486   5.454
 4428TIP3    H213228   5.668   5.377   5.373
 4429TIP3   OH213229   3.188   5.174   0.239
 4429TIP3    H113230   3.202   5.204   0.150
 4429TIP3    H213231   3.096   5.148   0.241
 4430TIP3   OH213232   2.919   7.247   3.480
 4430TIP3    H113233   2.945   7.263   3.571
 4430TIP3    H213234   2.852   7.179   3.485
 4431TIP3   OH213235   1.809   1.568   3.794
 4431TIP3    H113236   1.799   1.474   3.804
 4431TIP3    H213237   1.720   1.603   3.807
 4432TIP3   OH213238   5.863   6.423   4.719
 4432TIP3    H113239   5.865   6.511   4.758
 4432TIP3    H213240   5.954   6.404   4.698
 4433TIP3   OH213241   7.798   0.084   1.618
 4433TIP3    H113242   7.808  -0.008   1.644
 4433TIP3    H213243   7.705   0.102   1.630
 4434TIP3   OH213244   5.130   4.230   5.633
 4434TIP3    H113245   5.155   4.302   5.691
 4434TIP3    H213246   5.042   4.206   5.661
 4435TIP3   OH213247   3.090   1.291   0.037
 4435TIP3    H113248   3.009   1.343   0.044
 4435TIP3    H213249   3.084   1.227   0.108
 4436TIP3   OH213250   1.917   3.987   1.161
 4436TIP3    H113251   1.935   4.079   1.178
 4436TIP3    H213252   1.991   3.940   1.200
 4437TIP3   OH213253   3.638   5.868   0.829
 4437TIP3    H113254   3.679   5.953   0.845
 4437TIP3    H213255   3.624   5.830   0.916
 4438TIP3   OH213256   3.082   3.585   1.374
 4438TIP3    H113257   3.110   3.674   1.393
 4438TIP3    H213258   2.988   3.586   1.390
 4439TIP3   OH213259   5.482   1.436   6.197
 4439TIP3    H113260   5.501   1.463   6.107
 4439TIP3    H213261   5.567   1.434   6.240
 4440TIP3   OH213262   2.855   5.889   6.501
 4440TIP3    H113263   2.777   5.937   6.530
 4440TIP3    H213264   2.889   5.849   6.581
 4441TIP3   OH213265   1.222   4.344   5.776
 4441TIP3    H113266   1.224   4.433   5.741
 4441TIP3    H213267   1.296   4.340   5.836
 4442TIP3   OH213268   2.442   6.966   1.570
 4442TIP3    H113269   2.485   6.987   1.487
 4442TIP3    H213270   2.473   7.033   1.630
 4443TIP3   OH213271   2.021   6.527   3.639
 4443TIP3    H113272   2.016   6.431   3.636
 4443TIP3    H213273   2.100   6.544   3.690
 4444TIP3   OH213274   2.129   1.017   4.887
 4444TIP3    H113275   2.125   1.048   4.978
 4444TIP3    H213276   2.183   1.081   4.842
 4445TIP3   OH213277   0.156   3.993   4.047
 4445TIP3    H113278   0.158   4.045   3.967
 4445TIP3    H213279   0.183   4.054   4.116
 4446TIP3   OH213280   3.280   2.338   3.364
 4446TIP3    H113281   3.210   2.348   3.429
 4446TIP3    H213282   3.261   2.255   3.321
 4447TIP3   OH213283   5.271   5.291   6.276
 4447TIP3    H113284   5.286   5.279   6.370
 4447TIP3    H213285   5.186   5.335   6.270
 4448TIP3   OH213286   5.291   3.512   4.590
 4448TIP3    H113287   5.296   3.448   4.661
 4448TIP3    H213288   5.229   3.578   4.621
 4449TIP3   OH213289   5.195   6.114   6.002
 4449TIP3    H113290   5.275   6.082   5.960
 4449TIP3    H213291   5.137   6.038   6.003
 4450TIP3   OH213292   1.538   5.884   1.045
 4450TIP3    H113293   1.609   5.820   1.050
 4450TIP3    H213294   1.490   5.873   1.127
 4451TIP3   OH213295   2.953   6.103   2.934
 4451TIP3    H113296   2.898   6.032   2.899
 4451TIP3    H213297   3.015   6.059   2.992
 4452TIP3   OH213298   3.239   5.316   6.543
 4452TIP3    H113299   3.322   5.349   6.577
 4452TIP3    H213300   3.195   5.278   6.619
 4453TIP3   OH213301   8.285   2.841   2.828
 4453TIP3    H113302   8.302   2.808   2.916
 4453TIP3    H213303   8.191   2.862   2.828
 4454TIP3   OH213304   2.539   5.839   0.245
 4454TIP3    H113305   2.540   5.743   0.253
 4454TIP3    H213306   2.627   5.866   0.269
 4455TIP3   OH213307   0.874   0.877   0.058
 4455TIP3    H113308   0.907   0.946   0.116
 4455TIP3    H213309   0.943   0.863  -0.006
 4456TIP3   OH213310   5.611   1.088   4.060
 4456TIP3    H113311   5.668   1.025   4.016
 4456TIP3    H213312   5.670   1.141   4.113
 4457TIP3   OH213313   3.202   5.793   3.992
 4457TIP3    H113314   3.282   5.838   3.964
 4457TIP3    H213315   3.218   5.700   3.973
 4458TIP3   OH213316   7.321   6.819   3.888
 4458TIP3    H113317   7.275   6.880   3.830
 4458TIP3    H213318   7.256   6.753   3.911
 4459TIP3   OH213319   7.468   1.389   3.544
 4459TIP3    H113320   7.400   1.358   3.484
 4459TIP3    H213321   7.422   1.444   3.606
 4460TIP3   OH213322   2.168   6.888   1.780
 4460TIP3    H113323   2.183   6.949   1.708
 4460TIP3    H213324   2.094   6.835   1.751
 4461TIP3   OH213325   7.976   2.569   3.835
 4461TIP3    H113326   7.972   2.492   3.778
 4461TIP3    H213327   8.051   2.553   3.891
 4462TIP3   OH213328   1.008   0.242   1.400
 4462TIP3    H113329   1.040   0.277   1.317
 4462TIP3    H213330   0.920   0.278   1.410
 4463TIP3   OH213331   5.814   2.994   6.020
 4463TIP3    H113332   5.877   2.922   6.026
 4463TIP3    H213333   5.824   3.043   6.101
 4464TIP3   OH213334   4.082   6.573   5.815
 4464TIP3    H113335   4.021   6.624   5.761
 4464TIP3    H213336   4.144   6.536   5.752
 4465TIP3   OH213337   2.447   4.708   1.141
 4465TIP3    H113338   2.396   4.628   1.150
 4465TIP3    H213339   2.418   4.745   1.058
 4466TIP3   OH213340   6.892   0.466   3.613
 4466TIP3    H113341   6.970   0.438   3.565
 4466TIP3    H213342   6.834   0.391   3.609
 4467TIP3   OH213343   1.842   1.420   5.641
 4467TIP3    H113344   1.917   1.446   5.693
 4467TIP3    H213345   1.873   1.422   5.550
 4468TIP3   OH213346   0.773   0.559   4.358
 4468TIP3    H113347   0.857   0.533   4.322
 4468TIP3    H213348   0.713   0.489   4.332
 4469TIP3   OH213349   3.573   1.823   4.392
 4469TIP3    H113350   3.566   1.842   4.486
 4469TIP3    H213351   3.602   1.905   4.353
 4470TIP3   OH213352   2.187   6.066   6.739
 4470TIP3    H113353   2.117   6.010   6.771
 4470TIP3    H213354   2.151   6.154   6.742
 4471TIP3   OH213355   1.481   3.399   0.769
 4471TIP3    H113356   1.517   3.384   0.681
 4471TIP3    H213357   1.504   3.320   0.818
 4472TIP3   OH213358   0.640   6.253   5.611
 4472TIP3    H113359   0.726   6.219   5.637
 4472TIP3    H213360   0.641   6.250   5.515
 4473TIP3   OH213361   3.532   5.909   0.434
 4473TIP3    H113362   3.514   5.906   0.528
 4473TIP3    H213363   3.549   6.001   0.415
 4474TIP3   OH213364   7.654   5.173   2.028
 4474TIP3    H113365   7.709   5.201   2.101
 4474TIP3    H213366   7.687   5.223   1.953
 4475TIP3   OH213367   1.843   2.167   5.355
 4475TIP3    H113368   1.924   2.128   5.322
 4475TIP3    H213369   1.871   2.249   5.396
 4476TIP3   OH213370   7.598   5.992   5.004
 4476TIP3    H113371   7.610   6.035   5.088
 4476TIP3    H213372   7.652   6.042   4.943
 4477TIP3   OH213373   1.340   5.783   2.645
 4477TIP3    H113374   1.296   5.743   2.721
 4477TIP3    H213375   1.397   5.849   2.684
 4478TIP3   OH213376   7.089   7.690   2.507
 4478TIP3    H113377   7.018   7.678   2.444
 4478TIP3    H213378   7.046   7.713   2.589
 4479TIP3   OH213379   5.431   6.544   1.904
 4479TIP3    H113380   5.499   6.491   1.862
 4479TIP3    H213381   5.366   6.558   1.836
 4480TIP3   OH213382   2.633   0.265   2.196
 4480TIP3    H113383   2.687   0.330   2.151
 4480TIP3    H213384   2.543   0.296   2.184
 4481TIP3   OH213385   7.638   3.084   3.277
 4481TIP3    H113386   7.628   3.178   3.264
 4481TIP3    H213387   7.550   3.054   3.300
 4482TIP3   OH213388   2.351   6.890   2.489
 4482TIP3    H113389   2.382   6.917   2.403
 4482TIP3    H213390   2.425   6.906   2.548
 4483TIP3   OH213391   7.199   2.579   3.176
 4483TIP3    H113392   7.186   2.508   3.112
 4483TIP3    H213393   7.233   2.535   3.254
 4484TIP3   OH213394   3.352   0.691   1.572
 4484TIP3    H113395   3.320   0.730   1.653
 4484TIP3    H213396   3.367   0.599   1.594
 4485TIP3   OH213397   1.266   4.017   2.384
 4485TIP3    H113398   1.248   3.979   2.470
 4485TIP3    H213399   1.337   4.079   2.399
 4486TIP3   OH213400   2.718   6.718   6.041
 4486TIP3    H113401   2.639   6.674   6.072
 4486TIP3    H213402   2.700   6.811   6.052
 4487TIP3   OH213403   3.680   3.389   4.742
 4487TIP3    H113404   3.633   3.319   4.787
 4487TIP3    H213405   3.712   3.446   4.812
 4488TIP3   OH213406   5.793   6.079   0.279
 4488TIP3    H113407   5.753   6.157   0.317
 4488TIP3    H213408   5.847   6.112   0.207
 4489TIP3   OH213409   4.506   7.600   4.989
 4489TIP3    H113410   4.458   7.651   5.054
 4489TIP3    H213411   4.567   7.546   5.041
 4490TIP3   OH213412   1.374   4.575   2.968
 4490TIP3    H113413   1.287   4.536   2.971
 4490TIP3    H213414   1.409   4.553   2.882
 4491TIP3   OH213415   5.785   2.079   6.483
 4491TIP3    H113416   5.733   2.145   6.527
 4491TIP3    H213417   5.777   2.100   6.389
 4492TIP3   OH213418   7.235   7.312   3.984
 4492TIP3    H113419   7.314   7.336   4.033
 4492TIP3    H213420   7.267   7.285   3.899
 4493TIP3   OH213421   4.482   3.656   5.347
 4493TIP3    H113422   4.409   3.623   5.398
 4493TIP3    H213423   4.486   3.599   5.270
 4494TIP3   OH213424   2.551   7.600   4.726
 4494TIP3    H113425   2.462   7.571   4.746
 4494TIP3    H213426   2.592   7.612   4.812
 4495TIP3   OH213427   4.714   2.616   3.242
 4495TIP3    H113428   4.770   2.634   3.167
 4495TIP3    H213429   4.717   2.520   3.253
 4496TIP3   OH213430   2.807   3.421   5.569
 4496TIP3    H113431   2.739   3.417   5.635
 4496TIP3    H213432   2.859   3.498   5.592
 4497TIP3   OH213433   3.477   7.699   1.906
 4497TIP3    H113434   3.434   7.622   1.869
 4497TIP3    H213435   3.465   7.767   1.841
 4498TIP3   OH213436   2.959   1.446   1.638
 4498TIP3    H113437   2.960   1.461   1.732
 4498TIP3    H213438   2.873   1.408   1.620
 4499TIP3   OH213439   2.144   2.215   2.177
 4499TIP3    H113440   2.100   2.211   2.261
 4499TIP3    H213441   2.138   2.307   2.151
 4500TIP3   OH213442   6.104   5.928   4.745
 4500TIP3    H113443   6.107   5.943   4.839
 4500TIP3    H213444   6.098   6.016   4.706
 4501TIP3   OH213445   5.990   2.332   0.478
 4501TIP3    H113446   6.004   2.356   0.386
 4501TIP3    H213447   6.076   2.303   0.509
 4502TIP3   OH213448   5.778   2.563   6.100
 4502TIP3    H113449   5.861   2.593   6.139
 4502TIP3    H213450   5.711   2.594   6.160
 4503TIP3   OH213451   3.867   0.266   4.885
 4503TIP3    H113452   3.833   0.294   4.800
 4503TIP3    H213453   3.794   0.281   4.946
 4504TIP3   OH213454   1.961   4.785   6.132
 4504TIP3    H113455   1.869   4.761   6.143
 4504TIP3    H213456   2.009   4.702   6.137
 4505TIP3   OH213457   7.819   0.976   4.374
 4505TIP3    H113458   7.910   0.984   4.402
 4505TIP3    H213459   7.771   1.030   4.436
 4506TIP3   OH213460   4.298   2.081   4.959
 4506TIP3    H113461   4.345   2.019   4.904
 4506TIP3    H213462   4.241   2.128   4.898
 4507TIP3   OH213463   4.291   7.319   3.266
 4507TIP3    H113464   4.214   7.300   3.212
 4507TIP3    H213465   4.357   7.257   3.236
 4508TIP3   OH213466   8.199   0.508   4.446
 4508TIP3    H113467   8.270   0.478   4.389
 4508TIP3    H213468   8.150   0.570   4.393
 4509TIP3   OH213469   3.841   5.499   1.425
 4509TIP3    H113470   3.808   5.411   1.409
 4509TIP3    H213471   3.820   5.516   1.517
 4510TIP3   OH213472   6.962   1.285   0.382
 4510TIP3    H113473   7.048   1.292   0.423
 4510TIP3    H213474   6.928   1.374   0.380
 4511TIP3   OH213475   6.007   6.052   0.931
 4511TIP3    H113476   5.920   6.040   0.893
 4511TIP3    H213477   6.035   6.138   0.900
 4512TIP3   OH213478   5.414   1.127   2.495
 4512TIP3    H113479   5.506   1.149   2.508
 4512TIP3    H213480   5.415   1.055   2.431
 4513TIP3   OH213481   8.212   0.700   1.834
 4513TIP3    H113482   8.283   0.745   1.880
 4513TIP3    H213483   8.146   0.768   1.821
 4514TIP3   OH213484   2.735   4.619   6.653
 4514TIP3    H113485   2.717   4.525   6.647
 4514TIP3    H213486   2.733   4.650   6.563
 4515TIP3   OH213487   1.929   2.771   0.806
 4515TIP3    H113488   1.850   2.734   0.767
 4515TIP3    H213489   1.916   2.760   0.900
 4516TIP3   OH213490   5.377   5.567   2.161
 4516TIP3    H113491   5.422   5.604   2.237
 4516TIP3    H213492   5.322   5.498   2.196
 4517TIP3   OH213493   2.703   1.717   2.189
 4517TIP3    H113494   2.781   1.772   2.183
 4517TIP3    H213495   2.633   1.777   2.214
 4518TIP3   OH213496   2.529   3.559   4.489
 4518TIP3    H113497   2.576   3.628   4.536
 4518TIP3    H213498   2.437   3.582   4.499
 4519TIP3   OH213499   7.182   6.416   5.376
 4519TIP3    H113500   7.189   6.464   5.294
 4519TIP3    H213501   7.153   6.481   5.440
 4520TIP3   OH213502   2.044   5.185   5.571
 4520TIP3    H113503   2.004   5.098   5.565
 4520TIP3    H213504   2.133   5.173   5.538
 4521TIP3   OH213505   3.548   6.843   1.064
 4521TIP3    H113506   3.606   6.887   1.126
 4521TIP3    H213507   3.559   6.892   0.983
 4522TIP3   OH213508   3.700   1.011   6.654
 4522TIP3    H113509   3.764   1.082   6.653
 4522TIP3    H213510   3.656   1.018   6.569
 4523TIP3   OH213511   7.702   4.399   4.380
 4523TIP3    H113512   7.753   4.321   4.402
 4523TIP3    H213513   7.677   4.386   4.288
 4524TIP3   OH213514   2.703   1.746   1.777
 4524TIP3    H113515   2.795   1.731   1.796
 4524TIP3    H213516   2.696   1.741   1.682
 4525TIP3   OH213517   8.210   5.518   5.172
 4525TIP3    H113518   8.177   5.430   5.153
 4525TIP3    H213519   8.139   5.576   5.145
 4526TIP3   OH213520   2.581   5.239   1.680
 4526TIP3    H113521   2.517   5.172   1.655
 4526TIP3    H213522   2.569   5.250   1.774
 4527TIP3   OH213523   6.378   7.356   2.729
 4527TIP3    H113524   6.363   7.269   2.764
 4527TIP3    H213525   6.303   7.372   2.672
 4528TIP3   OH213526   6.783   0.153   2.064
 4528TIP3    H113527   6.708   0.095   2.050
 4528TIP3    H213528   6.856   0.109   2.020
 4529TIP3   OH213529   3.518   5.850   5.426
 4529TIP3    H113530   3.430   5.883   5.407
 4529TIP3    H213531   3.574   5.894   5.363
 4530TIP3   OH213532   4.226   2.440   4.789
 4530TIP3    H113533   4.219   2.404   4.878
 4530TIP3    H213534   4.262   2.528   4.802
 4531TIP3   OH213535   1.743   2.054   3.674
 4531TIP3    H113536   1.740   2.149   3.675
 4531TIP3    H213537   1.834   2.032   3.692
 4532TIP3   OH213538   1.107   0.711   5.277
 4532TIP3    H113539   1.163   0.643   5.238
 4532TIP3    H213540   1.067   0.755   5.202
 4533TIP3   OH213541   3.238   4.285   0.352
 4533TIP3    H113542   3.156   4.315   0.311
 4533TIP3    H213543   3.212   4.210   0.406
 4534TIP3   OH213544   1.161   0.243   3.568
 4534TIP3    H113545   1.082   0.222   3.520
 4534TIP3    H213546   1.143   0.215   3.658
 4535TIP3   OH213547   3.397   4.555   0.052
 4535TIP3    H113548   3.320   4.499   0.054
 4535TIP3    H213549   3.434   4.543  -0.036
 4536TIP3   OH213550   5.642   6.192   6.237
 4536TIP3    H113551   5.563   6.159   6.194
 4536TIP3    H213552   5.611   6.235   6.317
 4537TIP3   OH213553   6.939   0.185   0.177
 4537TIP3    H113554   6.939   0.144   0.263
 4537TIP3    H213555   7.023   0.159   0.138
 4538TIP3   OH213556   7.388   2.971   2.865
 4538TIP3    H113557   7.371   3.059   2.900
 4538TIP3    H213558   7.324   2.915   2.911
 4539TIP3   OH213559   0.855   3.418   5.062
 4539TIP3    H113560   0.918   3.400   5.132
 4539TIP3    H213561   0.790   3.476   5.102
 4540TIP3   OH213562   3.560   7.291   0.642
 4540TIP3    H113563   3.492   7.295   0.574
 4540TIP3    H213564   3.513   7.310   0.723
 4541TIP3   OH213565   4.378   3.662   0.739
 4541TIP3    H113566   4.296   3.670   0.789
 4541TIP3    H213567   4.395   3.568   0.737
 4542TIP3   OH213568   2.816   4.257   5.798
 4542TIP3    H113569   2.873   4.215   5.863
 4542TIP3    H213570   2.739   4.283   5.848
 4543TIP3   OH213571   2.964   6.093   4.877
 4543TIP3    H113572   3.040   6.034   4.875
 4543TIP3    H213573   2.975   6.147   4.799
 4544TIP3   OH213574   0.108   2.712   2.598
 4544TIP3    H113575   0.089   2.731   2.690
 4544TIP3    H213576   0.203   2.697   2.596
 4545TIP3   OH213577   2.403   6.299   0.080
 4545TIP3    H113578   2.388   6.206   0.059
 4545TIP3    H213579   2.456   6.297   0.160
 4546TIP3   OH213580   5.009   0.127   4.923
 4546TIP3    H113581   5.006   0.053   4.862
 4546TIP3    H213582   4.940   0.107   4.987
 4547TIP3   OH213583   3.983   0.655   3.397
 4547TIP3    H113584   4.062   0.609   3.425
 4547TIP3    H213585   3.952   0.699   3.476
 4548TIP3   OH213586   2.649   7.023   5.277
 4548TIP3    H113587   2.685   6.935   5.275
 4548TIP3    H213588   2.695   7.066   5.350
 4549TIP3   OH213589   8.024   2.092   1.597
 4549TIP3    H113590   8.090   2.041   1.551
 4549TIP3    H213591   7.966   2.027   1.636
 4550TIP3   OH213592   0.052   2.930   5.936
 4550TIP3    H113593   0.080   2.841   5.913
 4550TIP3    H213594   0.112   2.987   5.889
 4551TIP3   OH213595   3.271   5.439   1.768
 4551TIP3    H113596   3.225   5.369   1.721
 4551TIP3    H213597   3.207   5.468   1.834
 4552TIP3   OH213598   5.803   3.436   5.738
 4552TIP3    H113599   5.801   3.528   5.765
 4552TIP3    H213600   5.767   3.388   5.812
 4553TIP3   OH213601   4.926   1.133   5.104
 4553TIP3    H113602   4.849   1.122   5.160
 4553TIP3    H213603   4.937   1.228   5.098
 4554TIP3   OH213604   8.047   6.718   5.712
 4554TIP3    H113605   7.953   6.731   5.709
 4554TIP3    H213606   8.084   6.802   5.686
 4555TIP3   OH213607   6.371   2.022   1.141
 4555TIP3    H113608   6.395   1.943   1.190
 4555TIP3    H213609   6.306   1.991   1.077
 4556TIP3   OH213610   1.814   6.161   1.659
 4556TIP3    H113611   1.881   6.153   1.590
 4556TIP3    H213612   1.785   6.071   1.673
 4557TIP3   OH213613   0.699   6.457   3.491
 4557TIP3    H113614   0.719   6.367   3.517
 4557TIP3    H213615   0.608   6.454   3.460
 4558TIP3   OH213616   1.553   3.056   3.725
 4558TIP3    H113617   1.473   3.092   3.763
 4558TIP3    H213618   1.588   3.000   3.794
 4559TIP3   OH213619   7.023   3.716   5.785
 4559TIP3    H113620   7.013   3.743   5.876
 4559TIP3    H213621   7.117   3.702   5.774
 4560TIP3   OH213622   1.014   1.494   5.093
 4560TIP3    H113623   1.108   1.490   5.077
 4560TIP3    H213624   0.974   1.476   5.007
 4561TIP3   OH213625   1.635   0.979   5.715
 4561TIP3    H113626   1.587   0.969   5.797
 4561TIP3    H213627   1.714   0.926   5.727
 4562TIP3   OH213628   4.792   7.339   3.155
 4562TIP3    H113629   4.826   7.294   3.078
 4562TIP3    H213630   4.701   7.359   3.133
 4563TIP3   OH213631   5.926   7.607   0.331
 4563TIP3    H113632   5.993   7.540   0.345
 4563TIP3    H213633   5.844   7.564   0.358
 4564TIP3   OH213634   2.659   1.180   1.264
 4564TIP3    H113635   2.690   1.158   1.352
 4564TIP3    H213636   2.727   1.238   1.228
 4565TIP3   OH213637   5.527   4.200   3.932
 4565TIP3    H113638   5.539   4.227   4.023
 4565TIP3    H213639   5.513   4.282   3.884
 4566TIP3   OH213640   6.829   4.768   1.169
 4566TIP3    H113641   6.892   4.812   1.111
 4566TIP3    H213642   6.751   4.755   1.114
 4567TIP3   OH213643   4.606   5.678   3.503
 4567TIP3    H113644   4.690   5.644   3.534
 4567TIP3    H213645   4.561   5.601   3.467
 4568TIP3   OH213646   6.802   6.222   6.644
 4568TIP3    H113647   6.884   6.191   6.606
 4568TIP3    H213648   6.828   6.293   6.703
 4569TIP3   OH213649   7.297   0.686   1.617
 4569TIP3    H113650   7.291   0.780   1.628
 4569TIP3    H213651   7.219   0.662   1.568
 4570TIP3   OH213652   4.705   3.924   1.905
 4570TIP3    H113653   4.684   3.838   1.943
 4570TIP3    H213654   4.718   3.907   1.812
 4571TIP3   OH213655   5.799   1.099   5.396
 4571TIP3    H113656   5.858   1.146   5.338
 4571TIP3    H213657   5.762   1.167   5.453
 4572TIP3   OH213658   4.371   4.370   5.009
 4572TIP3    H113659   4.384   4.465   5.005
 4572TIP3    H213660   4.420   4.342   5.086
 4573TIP3   OH213661   1.053   6.172   4.564
 4573TIP3    H113662   0.978   6.169   4.624
 4573TIP3    H213663   1.042   6.253   4.515
 4574TIP3   OH213664   6.712   2.190   5.425
 4574TIP3    H113665   6.742   2.276   5.454
 4574TIP3    H213666   6.773   2.128   5.466
 4575TIP3   OH213667   5.124   7.717   5.179
 4575TIP3    H113668   5.173   7.694   5.101
 4575TIP3    H213669   5.077   7.797   5.155
 4576TIP3   OH213670   2.027   6.663   6.685
 4576TIP3    H113671   2.059   6.610   6.612
 4576TIP3    H213672   1.947   6.618   6.713
 4577TIP3   OH213673   6.909   1.786   3.998
 4577TIP3    H113674   6.978   1.720   3.990
 4577TIP3    H213675   6.844   1.761   3.932
 4578TIP3   OH213676   4.088   2.812   0.288
 4578TIP3    H113677   4.097   2.892   0.340
 4578TIP3    H213678   4.009   2.826   0.236
 4579TIP3   OH213679   7.918   2.119   2.397
 4579TIP3    H113680   7.864   2.129   2.319
 4579TIP3    H213681   7.986   2.057   2.372
 4580TIP3   OH213682   4.089   6.745   2.119
 4580TIP3    H113683   4.049   6.688   2.185
 4580TIP3    H213684   4.116   6.823   2.168
 4581TIP3   OH213685   7.558   4.868   5.061
 4581TIP3    H113686   7.570   4.954   5.020
 4581TIP3    H213687   7.464   4.852   5.056
 4582TIP3   OH213688   0.776   7.336   0.761
 4582TIP3    H113689   0.722   7.367   0.688
 4582TIP3    H213690   0.736   7.375   0.838
 4583TIP3   OH213691   4.061   2.773   5.842
 4583TIP3    H113692   3.965   2.783   5.840
 4583TIP3    H213693   4.075   2.690   5.888
 4584TIP3   OH213694   2.059   2.029   0.317
 4584TIP3    H113695   1.980   2.047   0.265
 4584TIP3    H213696   2.025   1.993   0.399
 4585TIP3   OH213697   1.598   4.990   6.572
 4585TIP3    H113698   1.547   4.966   6.650
 4585TIP3    H213699   1.543   4.962   6.499
 4586TIP3   OH213700   2.418   2.089   1.271
 4586TIP3    H113701   2.436   1.997   1.254
 4586TIP3    H213702   2.504   2.128   1.289
 4587TIP3   OH213703   2.753   4.839   2.337
 4587TIP3    H113704   2.757   4.745   2.357
 4587TIP3    H213705   2.715   4.878   2.416
 4588TIP3   OH213706   6.260   2.785   2.443
 4588TIP3    H113707   6.313   2.740   2.508
 4588TIP3    H213708   6.323   2.814   2.376
 4589TIP3   OH213709   3.862   3.052   5.966
 4589TIP3    H113710   3.889   3.140   5.993
 4589TIP3    H213711   3.860   3.002   6.047
 4590TIP3   OH213712  -0.003   6.375   5.558
 4590TIP3    H113713  -0.095   6.398   5.541
 4590TIP3    H213714   0.021   6.427   5.634
 4591TIP3   OH213715   3.548   2.220   1.231
 4591TIP3    H113716   3.553   2.267   1.148
 4591TIP3    H213717   3.576   2.283   1.297
 4592TIP3   OH213718   1.850   1.147   3.319
 4592TIP3    H113719   1.763   1.119   3.289
 4592TIP3    H213720   1.840   1.158   3.414
 4593TIP3   OH213721   4.032   1.475   2.965
 4593TIP3    H113722   4.057   1.526   3.042
 4593TIP3    H213723   4.106   1.416   2.950
 4594TIP3   OH213724   0.630   7.337   4.868
 4594TIP3    H113725   0.630   7.371   4.958
 4594TIP3    H213726   0.722   7.315   4.851
 4595TIP3   OH213727   0.073   4.830   6.289
 4595TIP3    H113728   0.118   4.748   6.266
 4595TIP3    H213729  -0.009   4.801   6.330
 4596TIP3   OH213730   4.908   6.840   0.652
 4596TIP3    H113731   4.964   6.767   0.678
 4596TIP3    H213732   4.887   6.885   0.734
 4597TIP3   OH213733   5.864   1.276   6.446
 4597TIP3    H113734   5.891   1.186   6.430
 4597TIP3    H213735   5.943   1.328   6.431
 4598TIP3   OH213736   8.209   4.603   4.750
 4598TIP3    H113737   8.159   4.521   4.756
 4598TIP3    H213738   8.259   4.605   4.832
 4599TIP3   OH213739   2.939   2.037   1.649
 4599TIP3    H113740   2.944   1.946   1.618
 4599TIP3    H213741   2.873   2.078   1.593
 4600TIP3   OH213742   7.573   6.264   0.967
 4600TIP3    H113743   7.545   6.247   1.057
 4600TIP3    H213744   7.493   6.284   0.919
 4601TIP3   OH213745   7.609   3.307   5.150
 4601TIP3    H113746   7.625   3.275   5.240
 4601TIP3    H213747   7.550   3.381   5.161
 4602TIP3   OH213748   2.835   7.464   3.770
 4602TIP3    H113749   2.887   7.521   3.825
 4602TIP3    H213750   2.819   7.514   3.690
 4603TIP3   OH213751   4.316   1.640   4.243
 4603TIP3    H113752   4.239   1.661   4.296
 4603TIP3    H213753   4.323   1.713   4.181
 4604TIP3   OH213754   6.420   2.693   2.617
 4604TIP3    H113755   6.430   2.617   2.675
 4604TIP3    H213756   6.490   2.752   2.644
 4605TIP3   OH213757   4.739   7.518   4.154
 4605TIP3    H113758   4.833   7.523   4.135
 4605TIP3    H213759   4.719   7.425   4.149
 4606TIP3   OH213760   5.432   5.236   2.475
 4606TIP3    H113761   5.353   5.220   2.424
 4606TIP3    H213762   5.439   5.332   2.480
 4607TIP3   OH213763   5.592   4.822   3.440
 4607TIP3    H113764   5.651   4.753   3.469
 4607TIP3    H213765   5.650   4.894   3.414
 4608TIP3   OH213766   5.570   7.753   3.977
 4608TIP3    H113767   5.585   7.847   3.963
 4608TIP3    H213768   5.555   7.746   4.072
 4609TIP3   OH213769   1.244   6.740   0.861
 4609TIP3    H113770   1.302   6.801   0.905
 4609TIP3    H213771   1.174   6.794   0.826
 4610TIP3   OH213772   6.152   3.758   5.702
 4610TIP3    H113773   6.241   3.795   5.697
 4610TIP3    H213774   6.161   3.684   5.762
 4611TIP3   OH213775   1.632   4.732   3.939
 4611TIP3    H113776   1.595   4.723   3.851
 4611TIP3    H213777   1.718   4.771   3.926
 4612TIP3   OH213778   3.380   5.537   3.964
 4612TIP3    H113779   3.302   5.483   3.961
 4612TIP3    H213780   3.399   5.547   4.058
 4613TIP3   OH213781   2.910   0.289   5.700
 4613TIP3    H113782   3.002   0.269   5.711
 4613TIP3    H213783   2.869   0.265   5.783
 4614TIP3   OH213784   6.379   7.062   1.301
 4614TIP3    H113785   6.396   7.116   1.378
 4614TIP3    H213786   6.309   7.002   1.329
 4615TIP3   OH213787   1.017   6.423   3.864
 4615TIP3    H113788   1.048   6.333   3.863
 4615TIP3    H213789   0.931   6.419   3.821
 4616TIP3   OH213790   6.963   3.306   5.110
 4616TIP3    H113791   6.898   3.376   5.105
 4616TIP3    H213792   7.028   3.339   5.172
 4617TIP3   OH213793   1.196   2.817   2.483
 4617TIP3    H113794   1.267   2.821   2.547
 4617TIP3    H213795   1.129   2.875   2.517
 4618TIP3   OH213796   2.006   3.157   3.837
 4618TIP3    H113797   2.095   3.180   3.865
 4618TIP3    H213798   1.954   3.235   3.854
 4619TIP3   OH213799   6.313   4.941   5.160
 4619TIP3    H113800   6.340   4.885   5.087
 4619TIP3    H213801   6.389   4.994   5.179
 4620TIP3   OH213802   6.382   7.546   0.363
 4620TIP3    H113803   6.341   7.631   0.347
 4620TIP3    H213804   6.413   7.518   0.277
 4621TIP3   OH213805   7.154   3.554   6.340
 4621TIP3    H113806   7.149   3.473   6.391
 4621TIP3    H213807   7.064   3.586   6.339
 4622TIP3   OH213808   7.746   2.710   2.633
 4622TIP3    H113809   7.838   2.700   2.659
 4622TIP3    H213810   7.743   2.679   2.543
 4623TIP3   OH213811   0.890   2.516   4.571
 4623TIP3    H113812   0.866   2.608   4.558
 4623TIP3    H213813   0.969   2.504   4.518
 4624TIP3   OH213814   3.451   7.171   3.743
 4624TIP3    H113815   3.500   7.225   3.804
 4624TIP3    H213816   3.370   7.219   3.728
 4625TIP3   OH213817   2.146   6.973   4.963
 4625TIP3    H113818   2.151   7.063   4.996
 4625TIP3    H213819   2.236   6.941   4.970
 4626TIP3   OH213820   0.697   3.309   6.337
 4626TIP3    H113821   0.695   3.247   6.410
 4626TIP3    H213822   0.687   3.395   6.378
 4627TIP3   OH213823   5.310   0.874   3.667
 4627TIP3    H113824   5.399   0.895   3.639
 4627TIP3    H213825   5.307   0.778   3.666
 4628TIP3   OH213826   5.463   4.592   2.686
 4628TIP3    H113827   5.416   4.509   2.693
 4628TIP3    H213828   5.462   4.628   2.775
 4629TIP3   OH213829   0.813   5.748   5.317
 4629TIP3    H113830   0.796   5.746   5.223
 4629TIP3    H213831   0.886   5.687   5.330
 4630TIP3   OH213832   6.292   2.998   6.771
 4630TIP3    H113833   6.371   2.971   6.724
 4630TIP3    H213834   6.226   3.011   6.703
 4631TIP3   OH213835   1.052   7.724   0.457
 4631TIP3    H113836   1.001   7.688   0.530
 4631TIP3    H213837   1.143   7.705   0.480
 4632TIP3   OH213838   5.148   0.170   1.258
 4632TIP3    H113839   5.238   0.167   1.225
 4632TIP3    H213840   5.156   0.207   1.346
 4633TIP3   OH213841   4.292   1.775   4.613
 4633TIP3    H113842   4.337   1.823   4.683
 4633TIP3    H213843   4.235   1.713   4.659
 4634TIP3   OH213844   3.743   2.837   6.524
 4634TIP3    H113845   3.712   2.882   6.603
 4634TIP3    H213846   3.673   2.851   6.460
 4635TIP3   OH213847   4.415   6.522   1.823
 4635TIP3    H113848   4.354   6.586   1.858
 4635TIP3    H213849   4.496   6.536   1.871
 4636TIP3   OH213850   8.202   3.690   4.718
 4636TIP3    H113851   8.166   3.708   4.631
 4636TIP3    H213852   8.174   3.765   4.770
 4637TIP3   OH213853   8.057   0.108   2.432
 4637TIP3    H113854   8.025   0.193   2.404
 4637TIP3    H213855   8.094   0.069   2.353
 4638TIP3   OH213856   2.408   6.897   0.346
 4638TIP3    H113857   2.415   6.971   0.406
 4638TIP3    H213858   2.367   6.933   0.268
 4639TIP3   OH213859   4.206   6.284   6.098
 4639TIP3    H113860   4.181   6.355   6.158
 4639TIP3    H213861   4.160   6.208   6.133
 4640TIP3   OH213862   7.611   3.916   5.914
 4640TIP3    H113863   7.545   3.918   5.983
 4640TIP3    H213864   7.587   3.988   5.856
 4641TIP3   OH213865   1.786   4.280   4.844
 4641TIP3    H113866   1.769   4.357   4.898
 4641TIP3    H213867   1.709   4.224   4.857
 4642TIP3   OH213868   6.186   3.986   6.531
 4642TIP3    H113869   6.140   4.064   6.563
 4642TIP3    H213870   6.275   3.995   6.565
 4643TIP3   OH213871   6.491   1.260   5.489
 4643TIP3    H113872   6.403   1.223   5.493
 4643TIP3    H213873   6.548   1.190   5.521
 4644TIP3   OH213874   6.456   2.710   4.554
 4644TIP3    H113875   6.516   2.711   4.628
 4644TIP3    H213876   6.499   2.764   4.487
 4645TIP3   OH213877   6.201   0.575   1.033
 4645TIP3    H113878   6.176   0.668   1.031
 4645TIP3    H213879   6.166   0.543   1.116
 4646TIP3   OH213880   1.403   3.617   4.990
 4646TIP3    H113881   1.483   3.585   4.949
 4646TIP3    H213882   1.358   3.538   5.020
 4647TIP3   OH213883   5.397   1.584   0.537
 4647TIP3    H113884   5.483   1.572   0.497
 4647TIP3    H213885   5.361   1.662   0.495
 4648TIP3   OH213886   0.688   3.034   4.508
 4648TIP3    H113887   0.684   3.011   4.415
 4648TIP3    H213888   0.602   3.011   4.542
 4649TIP3   OH213889   7.883   4.128   0.844
 4649TIP3    H113890   7.890   4.096   0.754
 4649TIP3    H213891   7.793   4.107   0.870
 4650TIP3   OH213892   0.696   4.761   2.568
 4650TIP3    H113893   0.733   4.730   2.485
 4650TIP3    H213894   0.663   4.849   2.548
 4651TIP3   OH213895   5.559   4.751   6.037
 4651TIP3    H113896   5.486   4.779   6.092
 4651TIP3    H213897   5.631   4.810   6.059
 4652TIP3   OH213898   4.801   0.775   0.372
 4652TIP3    H113899   4.802   0.687   0.334
 4652TIP3    H213900   4.865   0.770   0.444
 4653TIP3   OH213901   0.135   7.188   3.112
 4653TIP3    H113902   0.155   7.133   3.036
 4653TIP3    H213903   0.141   7.129   3.187
 4654TIP3   OH213904   7.157   5.634   5.586
 4654TIP3    H113905   7.076   5.638   5.536
 4654TIP3    H213906   7.219   5.687   5.536
 4655TIP3   OH213907   4.810   3.961   6.512
 4655TIP3    H113908   4.887   4.017   6.513
 4655TIP3    H213909   4.811   3.916   6.597
 4656TIP3   OH213910   0.613   7.263   1.515
 4656TIP3    H113911   0.576   7.183   1.553
 4656TIP3    H213912   0.651   7.309   1.590
 4657TIP3   OH213913   1.741   4.391   3.721
 4657TIP3    H113914   1.701   4.417   3.637
 4657TIP3    H213915   1.827   4.433   3.720
 4658TIP3   OH213916   4.967   5.570   0.214
 4658TIP3    H113917   4.937   5.491   0.170
 4658TIP3    H213918   4.935   5.561   0.304
 4659TIP3   OH213919   6.543   1.880   6.566
 4659TIP3    H113920   6.450   1.894   6.548
 4659TIP3    H213921   6.549   1.872   6.661
 4660TIP3   OH213922   6.928   5.804   6.406
 4660TIP3    H113923   6.961   5.852   6.330
 4660TIP3    H213924   6.861   5.746   6.371
 4661TIP3   OH213925   8.172   2.865   4.936
 4661TIP3    H113926   8.230   2.941   4.947
 4661TIP3    H213927   8.091   2.902   4.900
 4662TIP3   OH213928   1.067   4.756   1.250
 4662TIP3    H113929   1.099   4.708   1.326
 4662TIP3    H213930   1.138   4.816   1.228
 4663TIP3   OH213931   6.284   5.069   0.921
 4663TIP3    H113932   6.323   5.099   0.839
 4663TIP3    H213933   6.190   5.074   0.906
 4664TIP3   OH213934   4.037   2.456   3.037
 4664TIP3    H113935   4.075   2.430   2.953
 4664TIP3    H213936   4.053   2.550   3.043
 4665TIP3   OH213937   2.198   4.667   1.495
 4665TIP3    H113938   2.232   4.616   1.568
 4665TIP3    H213939   2.256   4.743   1.489
 4666TIP3   OH213940   6.117   5.052   0.443
 4666TIP3    H113941   6.101   4.958   0.452
 4666TIP3    H213942   6.030   5.091   0.438
 4667TIP3   OH213943   2.645   0.246   3.699
 4667TIP3    H113944   2.564   0.250   3.647
 4667TIP3    H213945   2.692   0.326   3.676
 4668TIP3   OH213946   3.894   4.512   3.448
 4668TIP3    H113947   3.859   4.601   3.449
 4668TIP3    H213948   3.820   4.457   3.422
 4669TIP3   OH213949   2.662   5.459   3.327
 4669TIP3    H113950   2.630   5.439   3.415
 4669TIP3    H213951   2.626   5.390   3.272
 4670TIP3   OH213952   3.031   4.066   1.368
 4670TIP3    H113953   2.986   3.993   1.326
 4670TIP3    H213954   3.017   4.052   1.462
 4671TIP3   OH213955   2.710   2.311   4.310
 4671TIP3    H113956   2.792   2.295   4.264
 4671TIP3    H213957   2.730   2.290   4.401
 4672TIP3   OH213958   3.396   1.234   6.387
 4672TIP3    H113959   3.305   1.235   6.418
 4672TIP3    H213960   3.408   1.319   6.346
 4673TIP3   OH213961   6.790   1.683   5.076
 4673TIP3    H113962   6.856   1.622   5.045
 4673TIP3    H213963   6.707   1.637   5.062
 4674TIP3   OH213964   6.675   1.458   2.122
 4674TIP3    H113965   6.739   1.493   2.060
 4674TIP3    H213966   6.718   1.464   2.207
 4675TIP3   OH213967   6.426   2.362   4.080
 4675TIP3    H113968   6.392   2.437   4.130
 4675TIP3    H213969   6.521   2.369   4.087
 4676TIP3   OH213970   5.664   6.982   1.864
 4676TIP3    H113971   5.600   6.946   1.803
 4676TIP3    H213972   5.749   6.952   1.830
 4677TIP3   OH213973   1.661   3.931   6.345
 4677TIP3    H113974   1.730   3.985   6.307
 4677TIP3    H213975   1.686   3.920   6.437
 4678TIP3   OH213976   0.193   2.673   1.709
 4678TIP3    H113977   0.189   2.578   1.698
 4678TIP3    H213978   0.220   2.706   1.622
 4679TIP3   OH213979   0.917   5.300   6.549
 4679TIP3    H113980   0.864   5.256   6.615
 4679TIP3    H213981   0.954   5.230   6.496
 4680TIP3   OH213982   6.567   2.816   4.801
 4680TIP3    H113983   6.575   2.880   4.872
 4680TIP3    H213984   6.656   2.789   4.783
 4681TIP3   OH213985   5.991   3.164   5.019
 4681TIP3    H113986   5.992   3.133   4.929
 4681TIP3    H213987   6.025   3.254   5.013
 4682TIP3   OH213988   1.021   0.382   5.929
 4682TIP3    H113989   1.061   0.300   5.899
 4682TIP3    H213990   1.045   0.446   5.862
 4683TIP3   OH213991   5.175   5.288   0.836
 4683TIP3    H113992   5.257   5.312   0.879
 4683TIP3    H213993   5.112   5.354   0.866
 4684TIP3   OH213994   2.434   0.104   0.389
 4684TIP3    H113995   2.346   0.143   0.386
 4684TIP3    H213996   2.447   0.083   0.481
 4685TIP3   OH213997   2.294   7.172   4.614
 4685TIP3    H113998   2.299   7.189   4.520
 4685TIP3    H213999   2.380   7.136   4.637
 4686TIP3   OH214000   2.284   7.618   1.319
 4686TIP3    H114001   2.274   7.684   1.251
 4686TIP3    H214002   2.364   7.643   1.365
 4687TIP3   OH214003   6.356   4.514   6.425
 4687TIP3    H114004   6.430   4.457   6.404
 4687TIP3    H214005   6.377   4.551   6.510
 4688TIP3   OH214006   2.100   4.004   0.093
 4688TIP3    H114007   2.048   3.945   0.148
 4688TIP3    H214008   2.181   4.017   0.142
 4689TIP3   OH214009   2.225   2.274   0.894
 4689TIP3    H114010   2.180   2.340   0.946
 4689TIP3    H214011   2.225   2.196   0.949
 4690TIP3   OH214012   0.425   7.517   6.042
 4690TIP3    H114013   0.407   7.433   6.085
 4690TIP3    H214014   0.340   7.546   6.009
 4691TIP3   OH214015   4.381   1.797   2.472
 4691TIP3    H114016   4.330   1.743   2.534
 4691TIP3    H214017   4.325   1.803   2.395
 4692TIP3   OH214018   3.696   0.737   2.262
 4692TIP3    H114019   3.614   0.747   2.311
 4692TIP3    H214020   3.674   0.679   2.190
 4693TIP3   OH214021   6.316   4.172   0.357
 4693TIP3    H114022   6.400   4.129   0.372
 4693TIP3    H214023   6.296   4.216   0.440
 4694TIP3   OH214024   4.822   1.014   5.654
 4694TIP3    H114025   4.754   0.962   5.612
 4694TIP3    H214026   4.815   0.991   5.747
 4695TIP3   OH214027   5.155   6.970   5.653
 4695TIP3    H114028   5.137   6.920   5.574
 4695TIP3    H214029   5.119   7.057   5.635
 4696TIP3   OH214030   6.770   5.824   0.991
 4696TIP3    H114031   6.715   5.818   1.069
 4696TIP3    H214032   6.750   5.910   0.953
 4697TIP3   OH214033   0.389   4.912   2.839
 4697TIP3    H114034   0.385   4.873   2.752
 4697TIP3    H214035   0.300   4.904   2.873
 4698TIP3   OH214036   6.718   6.286   4.633
 4698TIP3    H114037   6.788   6.291   4.699
 4698TIP3    H214038   6.762   6.257   4.553
 4699TIP3   OH214039   5.857   1.151   0.112
 4699TIP3    H114040   5.785   1.089   0.108
 4699TIP3    H214041   5.888   1.159   0.022
 4700TIP3   OH214042   7.358   5.575   2.154
 4700TIP3    H114043   7.271   5.612   2.168
 4700TIP3    H214044   7.352   5.487   2.190
 4701TIP3   OH214045   2.242   6.096   5.652
 4701TIP3    H114046   2.307   6.122   5.717
 4701TIP3    H214047   2.293   6.054   5.583
 4702TIP3   OH214048   5.765   6.858   1.638
 4702TIP3    H114049   5.767   6.906   1.555
 4702TIP3    H214050   5.676   6.823   1.642
 4703TIP3   OH214051   6.634   6.428   0.995
 4703TIP3    H114052   6.698   6.494   0.967
 4703TIP3    H214053   6.549   6.465   0.970
 4704TIP3   OH214054   4.363   3.437   0.195
 4704TIP3    H114055   4.303   3.483   0.136
 4704TIP3    H214056   4.417   3.507   0.232
 4705TIP3   OH214057   6.559   4.155   2.230
 4705TIP3    H114058   6.552   4.144   2.325
 4705TIP3    H214059   6.629   4.094   2.204
 4706TIP3   OH214060   4.161   5.554   5.042
 4706TIP3    H114061   4.210   5.514   4.970
 4706TIP3    H214062   4.069   5.545   5.016
 4707TIP3   OH214063   5.971   3.036   5.662
 4707TIP3    H114064   5.904   2.987   5.708
 4707TIP3    H214065   5.984   3.115   5.715
 4708TIP3   OH214066   6.835   3.145   0.005
 4708TIP3    H114067   6.859   3.184  -0.079
 4708TIP3    H214068   6.871   3.056   0.000
 4709TIP3   OH214069   4.575   3.385   4.779
 4709TIP3    H114070   4.589   3.347   4.865
 4709TIP3    H214071   4.625   3.329   4.720
 4710TIP3   OH214072   7.670   0.262   5.339
 4710TIP3    H114073   7.744   0.318   5.362
 4710TIP3    H214074   7.695   0.175   5.370
 4711TIP3   OH214075   5.987   0.932   2.070
 4711TIP3    H114076   5.921   0.870   2.038
 4711TIP3    H214077   6.044   0.879   2.126
 4712TIP3   OH214078   7.982   0.094   1.417
 4712TIP3    H114079   7.930   0.026   1.375
 4712TIP3    H214080   7.942   0.104   1.504
 4713TIP3   OH214081   4.762   0.999   1.837
 4713TIP3    H114082   4.716   1.015   1.754
 4713TIP3    H214083   4.709   1.046   1.902
 4714TIP3   OH214084   2.986   6.809   3.738
 4714TIP3    H114085   2.952   6.748   3.803
 4714TIP3    H214086   2.959   6.895   3.770
 4715TIP3   OH214087   4.258   7.035   5.043
 4715TIP3    H114088   4.246   6.941   5.027
 4715TIP3    H214089   4.331   7.059   4.986
 4716TIP3   OH214090   5.572   2.337   3.498
 4716TIP3    H114091   5.542   2.253   3.532
 4716TIP3    H214092   5.547   2.337   3.406
 4717TIP3   OH214093   7.107   6.550   1.429
 4717TIP3    H114094   7.013   6.555   1.446
 4717TIP3    H214095   7.138   6.641   1.439
 4718TIP3   OH214096   6.608   2.920   2.002
 4718TIP3    H114097   6.588   3.003   1.960
 4718TIP3    H214098   6.607   2.856   1.931
 4719TIP3   OH214099   3.459   6.372   2.618
 4719TIP3    H114100   3.487   6.292   2.573
 4719TIP3    H214101   3.366   6.357   2.637
 4720TIP3   OH214102   3.017   0.034   3.349
 4720TIP3    H114103   3.009  -0.030   3.279
 4720TIP3    H214104   3.081   0.097   3.316
 4721TIP3   OH214105   7.956   1.178   6.452
 4721TIP3    H114106   8.047   1.152   6.469
 4721TIP3    H214107   7.943   1.255   6.508
 4722TIP3   OH214108   5.179   6.825   1.840
 4722TIP3    H114109   5.174   6.899   1.780
 4722TIP3    H214110   5.142   6.857   1.922
 4723TIP3   OH214111   3.417   5.883   5.010
 4723TIP3    H114112   3.373   5.944   5.070
 4723TIP3    H214113   3.430   5.804   5.063
 4724TIP3   OH214114   4.734   6.109   3.352
 4724TIP3    H114115   4.817   6.156   3.367
 4724TIP3    H214116   4.757   6.017   3.363
 4725TIP3   OH214117   0.455   5.321   1.931
 4725TIP3    H114118   0.492   5.281   2.010
 4725TIP3    H214119   0.456   5.415   1.950
 4726TIP3   OH214120   4.472   7.303   0.240
 4726TIP3    H114121   4.511   7.253   0.312
 4726TIP3    H214122   4.529   7.379   0.230
 4727TIP3   OH214123   1.287   2.642   2.118
 4727TIP3    H114124   1.240   2.611   2.041
 4727TIP3    H214125   1.337   2.566   2.149
 4728TIP3   OH214126   3.376   4.935   2.505
 4728TIP3    H114127   3.332   4.932   2.590
 4728TIP3    H214128   3.409   5.025   2.499
 4729TIP3   OH214129   4.024   6.280   0.871
 4729TIP3    H114130   4.046   6.310   0.783
 4729TIP3    H214131   3.932   6.254   0.866
 4730TIP3   OH214132   2.554   6.770   3.841
 4730TIP3    H114133   2.605   6.722   3.775
 4730TIP3    H214134   2.560   6.861   3.813
 4731TIP3   OH214135   4.199   7.213   3.742
 4731TIP3    H114136   4.222   7.190   3.652
 4731TIP3    H214137   4.103   7.213   3.744
 4732TIP3   OH214138   7.359   7.337   4.298
 4732TIP3    H114139   7.402   7.253   4.285
 4732TIP3    H214140   7.419   7.401   4.259
 4733TIP3   OH214141   4.122   0.876   6.019
 4733TIP3    H114142   4.192   0.831   6.067
 4733TIP3    H214143   4.139   0.856   5.927
 4734TIP3   OH214144   6.270   5.982   5.904
 4734TIP3    H114145   6.190   5.937   5.877
 4734TIP3    H214146   6.257   6.073   5.875
 4735TIP3   OH214147   0.490   3.477   1.008
 4735TIP3    H114148   0.429   3.404   1.002
 4735TIP3    H214149   0.470   3.519   1.092
 4736TIP3   OH214150   1.561   7.012   5.038
 4736TIP3    H114151   1.506   7.031   4.963
 4736TIP3    H214152   1.578   7.097   5.079
 4737TIP3   OH214153   6.608   1.865   1.862
 4737TIP3    H114154   6.533   1.908   1.820
 4737TIP3    H214155   6.671   1.935   1.876
 4738TIP3   OH214156   2.251   1.449   2.072
 4738TIP3    H114157   2.178   1.418   2.127
 4738TIP3    H214158   2.285   1.525   2.118
 4739TIP3   OH214159   3.588   3.343   4.062
 4739TIP3    H114160   3.617   3.431   4.088
 4739TIP3    H214161   3.638   3.325   3.982
 4740TIP3   OH214162   6.685   4.304   6.053
 4740TIP3    H114163   6.629   4.339   5.983
 4740TIP3    H214164   6.679   4.369   6.123
 4741TIP3   OH214165   0.296   5.641   4.089
 4741TIP3    H114166   0.223   5.651   4.028
 4741TIP3    H214167   0.282   5.556   4.130
 4742TIP3   OH214168   5.059   6.353   6.532
 4742TIP3    H114169   5.021   6.311   6.609
 4742TIP3    H214170   5.012   6.315   6.458
 4743TIP3   OH214171   3.673   1.455   6.183
 4743TIP3    H114172   3.613   1.452   6.109
 4743TIP3    H214173   3.750   1.502   6.150
 4744TIP3   OH214174   4.850   4.643   1.658
 4744TIP3    H114175   4.838   4.651   1.563
 4744TIP3    H214176   4.771   4.599   1.689
 4745TIP3   OH214177   3.358   5.846   6.041
 4745TIP3    H114178   3.382   5.803   6.123
 4745TIP3    H214179   3.432   5.828   5.983
 4746TIP3   OH214180   7.594   7.552   1.217
 4746TIP3    H114181   7.595   7.537   1.312
 4746TIP3    H214182   7.645   7.479   1.181
 4747TIP3   OH214183   4.774   1.787   3.564
 4747TIP3    H114184   4.804   1.810   3.652
 4747TIP3    H214185   4.853   1.754   3.521
 4748TIP3   OH214186   5.797   4.214   0.721
 4748TIP3    H114187   5.849   4.147   0.677
 4748TIP3    H214188   5.742   4.251   0.653
 4749TIP3   OH214189   0.881   7.185   6.219
 4749TIP3    H114190   0.936   7.253   6.180
 4749TIP3    H214191   0.868   7.212   6.310
 4750TIP3   OH214192   6.506   4.856   4.970
 4750TIP3    H114193   6.516   4.779   4.914
 4750TIP3    H214194   6.521   4.930   4.911
 4751TIP3   OH214195   4.487   7.693   0.867
 4751TIP3    H114196   4.453   7.619   0.917
 4751TIP3    H214197   4.449   7.770   0.909
 4752TIP3   OH214198   0.802   6.378   3.044
 4752TIP3    H114199   0.851   6.460   3.046
 4752TIP3    H214200   0.722   6.397   3.092
 4753TIP3   OH214201   4.026   0.875   3.825
 4753TIP3    H114202   4.024   0.934   3.901
 4753TIP3    H214203   4.034   0.788   3.863
 4754TIP3   OH214204   5.682   3.445   1.947
 4754TIP3    H114205   5.727   3.361   1.960
 4754TIP3    H214206   5.640   3.437   1.861
 4755TIP3   OH214207   7.786   0.466   1.410
 4755TIP3    H114208   7.838   0.448   1.489
 4755TIP3    H214209   7.799   0.389   1.355
 4756TIP3   OH214210   0.496   5.636   1.910
 4756TIP3    H114211   0.512   5.605   1.821
 4756TIP3    H214212   0.402   5.625   1.922
 4757TIP3   OH214213   2.092   4.292   2.668
 4757TIP3    H114214   2.110   4.202   2.641
 4757TIP3    H214215   2.054   4.284   2.755
 4758TIP3   OH214216   2.319   2.541   4.248
 4758TIP3    H114217   2.280   2.453   4.253
 4758TIP3    H214218   2.269   2.585   4.179
 4759TIP3   OH214219   0.744   0.859   2.948
 4759TIP3    H114220   0.649   0.866   2.957
 4759TIP3    H214221   0.773   0.819   3.030
 4760TIP3   OH214222   6.116   5.669   2.948
 4760TIP3    H114223   6.063   5.653   3.027
 4760TIP3    H214224   6.153   5.584   2.926
 4761TIP3   OH214225   6.494   6.780   4.425
 4761TIP3    H114226   6.525   6.764   4.514
 4761TIP3    H214227   6.573   6.801   4.376
 4762TIP3   OH214228   0.230   6.487   4.528
 4762TIP3    H114229   0.305   6.546   4.534
 4762TIP3    H214230   0.154   6.545   4.533
 4763TIP3   OH214231   5.846   6.582   1.380
 4763TIP3    H114232   5.781   6.539   1.325
 4763TIP3    H214233   5.797   6.609   1.458
 4764TIP3   OH214234   0.626   6.263   2.558
 4764TIP3    H114235   0.610   6.314   2.479
 4764TIP3    H214236   0.635   6.328   2.628
 4765TIP3   OH214237   7.190   3.324   6.017
 4765TIP3    H114238   7.109   3.279   5.995
 4765TIP3    H214239   7.237   3.330   5.934
 4766TIP3   OH214240   3.119   1.977   3.565
 4766TIP3    H114241   3.185   1.953   3.500
 4766TIP3    H214242   3.108   2.071   3.553
 4767TIP3   OH214243   5.628   3.779   5.565
 4767TIP3    H114244   5.655   3.820   5.483
 4767TIP3    H214245   5.710   3.756   5.609
 4768TIP3   OH214246   5.654   5.317   1.193
 4768TIP3    H114247   5.621   5.383   1.132
 4768TIP3    H214248   5.597   5.324   1.270
 4769TIP3   OH214249   1.137   7.159   3.459
 4769TIP3    H114250   1.162   7.233   3.405
 4769TIP3    H214251   1.164   7.183   3.547
 4770TIP3   OH214252   0.771   1.014   5.489
 4770TIP3    H114253   0.786   1.057   5.573
 4770TIP3    H214254   0.778   0.920   5.507
 4771TIP3   OH214255   6.556   2.812   5.189
 4771TIP3    H114256   6.616   2.847   5.254
 4771TIP3    H214257   6.590   2.724   5.169
 4772TIP3   OH214258   0.274   1.344   5.065
 4772TIP3    H114259   0.344   1.297   5.019
 4772TIP3    H214260   0.314   1.373   5.147
 4773TIP3   OH214261   2.583   3.988   2.474
 4773TIP3    H114262   2.535   3.971   2.555
 4773TIP3    H214263   2.674   4.001   2.502
 4774TIP3   OH214264   2.592   3.208   2.653
 4774TIP3    H114265   2.644   3.232   2.730
 4774TIP3    H214266   2.656   3.169   2.593
 4775TIP3   OH214267   2.198   2.343   0.020
 4775TIP3    H114268   2.274   2.348   0.078
 4775TIP3    H214269   2.133   2.400   0.061
 4776TIP3   OH214270   2.120   2.303   6.040
 4776TIP3    H114271   2.031   2.306   6.005
 4776TIP3    H214272   2.169   2.365   5.986
 4777TIP3   OH214273   4.782   6.800   0.090
 4777TIP3    H114274   4.762   6.709   0.069
 4777TIP3    H214275   4.705   6.849   0.064
 4778TIP3   OH214276   4.177   0.065   0.399
 4778TIP3    H114277   4.144   0.119   0.470
 4778TIP3    H214278   4.145   0.108   0.319
 4779TIP3   OH214279   6.144   2.759   3.395
 4779TIP3    H114280   6.195   2.796   3.468
 4779TIP3    H214281   6.056   2.794   3.408
 4780TIP3   OH214282   0.182   3.433   4.044
 4780TIP3    H114283   0.214   3.520   4.017
 4780TIP3    H214284   0.090   3.432   4.018
 4781TIP3   OH214285   5.596   5.663   6.455
 4781TIP3    H114286   5.528   5.692   6.516
 4781TIP3    H214287   5.600   5.568   6.466
 4782TIP3   OH214288   6.632   7.692   3.332
 4782TIP3    H114289   6.542   7.677   3.306
 4782TIP3    H214290   6.641   7.648   3.417
 4783TIP3   OH214291   7.252   0.958   1.569
 4783TIP3    H114292   7.277   1.042   1.531
 4783TIP3    H214293   7.185   0.981   1.634
 4784TIP3   OH214294   6.305   0.371   4.574
 4784TIP3    H114295   6.268   0.284   4.559
 4784TIP3    H214296   6.230   0.430   4.578
 4785TIP3   OH214297   7.676   2.253   1.611
 4785TIP3    H114298   7.695   2.233   1.519
 4785TIP3    H214299   7.609   2.321   1.607
 4786TIP3   OH214300   7.006   5.978   1.373
 4786TIP3    H114301   7.038   5.898   1.415
 4786TIP3    H214302   7.046   5.978   1.287
 4787TIP3   OH214303   1.563   2.656   5.170
 4787TIP3    H114304   1.587   2.611   5.251
 4787TIP3    H214305   1.647   2.672   5.126
 4788TIP3   OH214306   3.206   0.342   0.054
 4788TIP3    H114307   3.121   0.299   0.045
 4788TIP3    H214308   3.263   0.274   0.090
 4789TIP3   OH214309   4.065   6.520   4.068
 4789TIP3    H114310   4.071   6.442   4.123
 4789TIP3    H214311   3.978   6.514   4.028
 4790TIP3   OH214312   5.741   1.008   2.209
 4790TIP3    H114313   5.812   1.068   2.233
 4790TIP3    H214314   5.783   0.922   2.205
 4791TIP3   OH214315   3.828   5.111   3.607
 4791TIP3    H114316   3.862   5.144   3.690
 4791TIP3    H214317   3.826   5.016   3.618
 4792TIP3   OH214318   6.799   0.834   6.491
 4792TIP3    H114319   6.881   0.839   6.443
 4792TIP3    H214320   6.771   0.743   6.484
 4793TIP3   OH214321   0.682   1.270   4.691
 4793TIP3    H114322   0.664   1.344   4.633
 4793TIP3    H214323   0.696   1.196   4.632
 4794TIP3   OH214324   4.955   3.313   2.262
 4794TIP3    H114325   5.031   3.302   2.319
 4794TIP3    H214326   4.941   3.226   2.225
 4795TIP3   OH214327   5.283   4.728   5.357
 4795TIP3    H114328   5.225   4.736   5.433
 4795TIP3    H214329   5.299   4.818   5.329
 4796TIP3   OH214330   7.973   3.325   5.394
 4796TIP3    H114331   8.053   3.302   5.441
 4796TIP3    H214332   7.903   3.276   5.439
 4797TIP3   OH214333   1.256   2.748   3.896
 4797TIP3    H114334   1.186   2.731   3.833
 4797TIP3    H214335   1.337   2.732   3.847
 4798TIP3   OH214336   3.645   6.640   0.894
 4798TIP3    H114337   3.739   6.642   0.876
 4798TIP3    H214338   3.630   6.716   0.952
 4799TIP3   OH214339   1.859   5.686   0.851
 4799TIP3    H114340   1.819   5.616   0.799
 4799TIP3    H214341   1.940   5.707   0.805
 4800TIP3   OH214342   8.294   4.909   5.476
 4800TIP3    H114343   8.221   4.951   5.521
 4800TIP3    H214344   8.365   4.972   5.482
 4801TIP3   OH214345   2.769   7.195   2.235
 4801TIP3    H114346   2.799   7.126   2.294
 4801TIP3    H214347   2.720   7.148   2.167
 4802TIP3   OH214348   7.219   5.809   0.210
 4802TIP3    H114349   7.252   5.831   0.122
 4802TIP3    H214350   7.191   5.718   0.203
 4803TIP3   OH214351   0.708   2.576   0.564
 4803TIP3    H114352   0.714   2.601   0.472
 4803TIP3    H214353   0.647   2.639   0.602
 4804TIP3   OH214354   0.093   6.095   2.495
 4804TIP3    H114355   0.161   6.126   2.553
 4804TIP3    H214356   0.017   6.150   2.515
 4805TIP3   OH214357   7.406   1.968   2.232
 4805TIP3    H114358   7.356   1.967   2.314
 4805TIP3    H214359   7.462   2.045   2.239
 4806TIP3   OH214360   1.298   4.126   4.805
 4806TIP3    H114361   1.344   4.157   4.727
 4806TIP3    H214362   1.266   4.039   4.781
 4807TIP3   OH214363   4.373   4.541   3.585
 4807TIP3    H114364   4.357   4.626   3.545
 4807TIP3    H214365   4.413   4.489   3.516
 4808TIP3   OH214366   6.078   0.881   2.846
 4808TIP3    H114367   6.059   0.822   2.919
 4808TIP3    H214368   6.158   0.926   2.871
 4809TIP3   OH214369   0.216   1.470   0.190
 4809TIP3    H114370   0.195   1.385   0.228
 4809TIP3    H214371   0.241   1.451   0.099
 4810TIP3   OH214372   1.222   3.258   4.321
 4810TIP3    H114373   1.239   3.187   4.260
 4810TIP3    H214374   1.224   3.216   4.408
 4811TIP3   OH214375   3.119   5.024   3.312
 4811TIP3    H114376   3.062   5.099   3.325
 4811TIP3    H214377   3.155   5.005   3.399
 4812TIP3   OH214378   2.676   0.212   3.373
 4812TIP3    H114379   2.746   0.227   3.436
 4812TIP3    H214380   2.717   0.228   3.288
 4813TIP3   OH214381   4.808   4.538   3.265
 4813TIP3    H114382   4.775   4.493   3.187
 4813TIP3    H214383   4.805   4.631   3.241
 4814TIP3   OH214384   3.070   1.108   2.649
 4814TIP3    H114385   2.977   1.129   2.639
 4814TIP3    H214386   3.074   1.057   2.729
 4815TIP3   OH214387   0.503   4.348   1.051
 4815TIP3    H114388   0.448   4.359   0.973
 4815TIP3    H214389   0.555   4.429   1.055
 4816TIP3   OH214390   3.123   4.970   4.796
 4816TIP3    H114391   3.137   5.045   4.854
 4816TIP3    H214392   3.064   4.913   4.844
 4817TIP3   OH214393   5.660   6.403   1.257
 4817TIP3    H114394   5.693   6.407   1.167
 4817TIP3    H214395   5.580   6.351   1.250
 4818TIP3   OH214396   6.215   3.931   3.227
 4818TIP3    H114397   6.277   3.879   3.278
 4818TIP3    H214398   6.205   4.012   3.277
 4819TIP3   OH214399   8.200   5.508   6.061
 4819TIP3    H114400   8.259   5.556   6.119
 4819TIP3    H214401   8.217   5.416   6.081
 4820TIP3   OH214402   1.459   6.256   4.328
 4820TIP3    H114403   1.463   6.312   4.405
 4820TIP3    H214404   1.367   6.232   4.320
 4821TIP3   OH214405   0.778   0.653   0.274
 4821TIP3    H114406   0.704   0.680   0.329
 4821TIP3    H214407   0.854   0.660   0.332
 4822TIP3   OH214408   1.664   1.180   1.128
 4822TIP3    H114409   1.716   1.147   1.054
 4822TIP3    H214410   1.612   1.105   1.157
 4823TIP3   OH214411   6.877   6.921   2.443
 4823TIP3    H114412   6.826   6.845   2.472
 4823TIP3    H214413   6.813   6.977   2.399
 4824TIP3   OH214414   3.876   0.299   4.601
 4824TIP3    H114415   3.966   0.331   4.601
 4824TIP3    H214416   3.872   0.239   4.526
 4825TIP3   OH214417   6.130   4.069   0.196
 4825TIP3    H114418   6.188   4.110   0.260
 4825TIP3    H214419   6.099   4.142   0.142
 4826TIP3   OH214420   7.045   0.532   6.541
 4826TIP3    H114421   6.998   0.558   6.620
 4826TIP3    H214422   7.115   0.597   6.533
 4827TIP3   OH214423   1.388   7.460   3.530
 4827TIP3    H114424   1.430   7.416   3.457
 4827TIP3    H214425   1.300   7.480   3.499
 4828TIP3   OH214426   0.530   0.922   3.805
 4828TIP3    H114427   0.612   0.900   3.760
 4828TIP3    H214428   0.557   0.955   3.890
 4829TIP3   OH214429   3.704   6.906   1.273
 4829TIP3    H114430   3.624   6.873   1.315
 4829TIP3    H214431   3.741   6.967   1.337
 4830TIP3   OH214432   7.969   1.576   2.562
 4830TIP3    H114433   7.906   1.573   2.489
 4830TIP3    H214434   7.930   1.637   2.624
 4831TIP3   OH214435   2.136   0.393   5.827
 4831TIP3    H114436   2.137   0.459   5.758
 4831TIP3    H214437   2.205   0.419   5.887
 4832TIP3   OH214438   5.889   4.603   3.847
 4832TIP3    H114439   5.816   4.656   3.879
 4832TIP3    H214440   5.864   4.513   3.866
 4833TIP3   OH214441   5.932   1.190   0.768
 4833TIP3    H114442   5.900   1.223   0.852
 4833TIP3    H214443   5.967   1.104   0.788
 4834TIP3   OH214444   2.981   2.130   4.981
 4834TIP3    H114445   2.958   2.178   4.901
 4834TIP3    H214446   2.925   2.168   5.049
 4835TIP3   OH214447   4.025   2.283   3.466
 4835TIP3    H114448   4.018   2.365   3.417
 4835TIP3    H214449   3.960   2.290   3.535
 4836TIP3   OH214450   5.100   5.518   5.106
 4836TIP3    H114451   5.061   5.565   5.179
 4836TIP3    H214452   5.193   5.513   5.128
 4837TIP3   OH214453   2.835   6.093   3.810
 4837TIP3    H114454   2.787   6.094   3.893
 4837TIP3    H214455   2.924   6.119   3.833
 4838TIP3   OH214456   8.185   6.965   0.107
 4838TIP3    H114457   8.109   6.996   0.156
 4838TIP3    H214458   8.246   6.934   0.175
 4839TIP3   OH214459   1.564   3.530   6.236
 4839TIP3    H114460   1.567   3.566   6.147
 4839TIP3    H214461   1.505   3.589   6.283
 4840TIP3   OH214462   5.005   7.251   2.475
 4840TIP3    H114463   4.994   7.273   2.567
 4840TIP3    H214464   4.934   7.189   2.456
 4841TIP3   OH214465   8.129   2.976   3.213
 4841TIP3    H114466   8.057   2.957   3.274
 4841TIP3    H214467   8.088   3.021   3.140
 4842TIP3   OH214468   2.174   3.234   0.230
 4842TIP3    H114469   2.248   3.185   0.263
 4842TIP3    H214470   2.147   3.187   0.151
 4843TIP3   OH214471   3.806   5.490   2.675
 4843TIP3    H114472   3.842   5.476   2.763
 4843TIP3    H214473   3.735   5.553   2.688
 4844TIP3   OH214474   5.415   2.852   3.206
 4844TIP3    H114475   5.478   2.786   3.178
 4844TIP3    H214476   5.429   2.861   3.300
 4845TIP3   OH214477   2.796   3.807   3.205
 4845TIP3    H114478   2.789   3.864   3.282
 4845TIP3    H214479   2.713   3.759   3.204
 4846TIP3   OH214480   1.876   4.001   2.364
 4846TIP3    H114481   1.905   3.938   2.299
 4846TIP3    H214482   1.932   4.077   2.351
 4847TIP3   OH214483   6.388   2.445   0.220
 4847TIP3    H114484   6.377   2.392   0.141
 4847TIP3    H214485   6.393   2.382   0.291
 4848TIP3   OH214486   0.584   6.558   3.844
 4848TIP3    H114487   0.582   6.568   3.939
 4848TIP3    H214488   0.668   6.594   3.817
 4849TIP3   OH214489   1.036   4.789   4.165
 4849TIP3    H114490   0.998   4.704   4.186
 4849TIP3    H214491   1.082   4.815   4.245
 4850TIP3   OH214492   8.119   7.329   6.462
 4850TIP3    H114493   8.159   7.262   6.407
 4850TIP3    H214494   8.028   7.300   6.472
 4851TIP3   OH214495   7.782   7.807   5.990
 4851TIP3    H114496   7.874   7.808   5.964
 4851TIP3    H214497   7.744   7.882   5.943
 4852TIP3   OH214498   5.411   4.187   3.584
 4852TIP3    H114499   5.347   4.187   3.654
 4852TIP3    H214500   5.360   4.192   3.503
 4853TIP3   OH214501   6.174   7.293   1.650
 4853TIP3    H114502   6.123   7.259   1.576
 4853TIP3    H214503   6.177   7.387   1.637
 4854TIP3   OH214504   1.510   7.620   0.047
 4854TIP3    H114505   1.418   7.636   0.069
 4854TIP3    H214506   1.508   7.590  -0.044
 4855TIP3   OH214507   2.563   3.036   6.365
 4855TIP3    H114508   2.633   3.100   6.372
 4855TIP3    H214509   2.498   3.078   6.307
 4856TIP3   OH214510   0.952   3.269   4.355
 4856TIP3    H114511   1.040   3.272   4.317
 4856TIP3    H214512   0.910   3.194   4.311
 4857TIP3   OH214513   7.474   2.790   2.691
 4857TIP3    H114514   7.441   2.843   2.763
 4857TIP3    H214515   7.566   2.775   2.713
 4858TIP3   OH214516   7.195   0.944   0.868
 4858TIP3    H114517   7.103   0.967   0.852
 4858TIP3    H214518   7.227   1.012   0.927
 4859TIP3   OH214519   7.180   7.092   6.605
 4859TIP3    H114520   7.232   7.032   6.553
 4859TIP3    H214521   7.089   7.071   6.583
 4860TIP3   OH214522   2.030   5.089   5.257
 4860TIP3    H114523   1.984   5.010   5.229
 4860TIP3    H214524   2.052   5.073   5.348
 4861TIP3   OH214525   7.896   2.834   0.205
 4861TIP3    H114526   7.987   2.821   0.232
 4861TIP3    H214527   7.887   2.929   0.200
 4862TIP3   OH214528   3.133   3.241   3.682
 4862TIP3    H114529   3.158   3.227   3.590
 4862TIP3    H214530   3.190   3.182   3.731
 4863TIP3   OH214531   6.478   5.143   6.539
 4863TIP3    H114532   6.451   5.058   6.504
 4863TIP3    H214533   6.415   5.205   6.502
 4864TIP3   OH214534   7.240   1.373   2.566
 4864TIP3    H114535   7.145   1.364   2.556
 4864TIP3    H214536   7.276   1.300   2.516
 4865TIP3   OH214537   1.232   2.271   6.669
 4865TIP3    H114538   1.201   2.208   6.734
 4865TIP3    H214539   1.152   2.311   6.635
 4866TIP3   OH214540   1.657   0.769   4.262
 4866TIP3    H114541   1.573   0.777   4.217
 4866TIP3    H214542   1.659   0.844   4.322
 4867TIP3   OH214543   3.581   4.284   3.081
 4867TIP3    H114544   3.488   4.304   3.096
 4867TIP3    H214545   3.579   4.204   3.028
 4868TIP3   OH214546   6.215   1.047   1.110
 4868TIP3    H114547   6.193   0.984   1.179
 4868TIP3    H214548   6.151   1.118   1.121
 4869TIP3   OH214549   1.296   0.642   4.965
 4869TIP3    H114550   1.386   0.620   4.991
 4869TIP3    H214551   1.303   0.666   4.872
 4870TIP3   OH214552   2.644   1.454   2.149
 4870TIP3    H114553   2.604   1.491   2.070
 4870TIP3    H214554   2.700   1.524   2.183
 4871TIP3   OH214555   5.330   3.614   3.413
 4871TIP3    H114556   5.241   3.584   3.431
 4871TIP3    H214557   5.386   3.563   3.471
 4872TIP3   OH214558   1.146   0.593   0.229
 4872TIP3    H114559   1.051   0.586   0.215
 4872TIP3    H214560   1.181   0.511   0.195
 4873TIP3   OH214561   4.552   5.621   6.420
 4873TIP3    H114562   4.483   5.597   6.358
 4873TIP3    H214563   4.505   5.648   6.499
 4874TIP3   OH214564   3.958   7.525   6.685
 4874TIP3    H114565   3.982   7.465   6.755
 4874TIP3    H214566   3.979   7.478   6.605
 4875TIP3   OH214567   0.217   3.547   6.447
 4875TIP3    H114568   0.283   3.609   6.477
 4875TIP3    H214569   0.258   3.461   6.457
 4876TIP3   OH214570   0.202   1.653   6.183
 4876TIP3    H114571   0.226   1.746   6.187
 4876TIP3    H214572   0.219   1.621   6.272
 4877TIP3   OH214573   2.088   4.291   0.171
 4877TIP3    H114574   2.005   4.339   0.167
 4877TIP3    H214575   2.077   4.219   0.110
 4878TIP3   OH214576   5.855   6.325   1.941
 4878TIP3    H114577   5.907   6.250   1.967
 4878TIP3    H214578   5.909   6.401   1.962
 4879TIP3   OH214579   7.005   4.817   2.848
 4879TIP3    H114580   7.070   4.887   2.843
 4879TIP3    H214581   7.034   4.763   2.922
 4880TIP3   OH214582   3.232   7.789   6.007
 4880TIP3    H114583   3.244   7.714   5.949
 4880TIP3    H214584   3.241   7.865   5.949
 4881TIP3   OH214585   4.590   1.270   4.371
 4881TIP3    H114586   4.506   1.257   4.327
 4881TIP3    H214587   4.595   1.364   4.388
 4882TIP3   OH214588   7.810   3.192   2.152
 4882TIP3    H114589   7.767   3.248   2.087
 4882TIP3    H214590   7.777   3.224   2.237
 4883TIP3   OH214591   0.604   7.399   0.342
 4883TIP3    H114592   0.585   7.440   0.258
 4883TIP3    H214593   0.685   7.440   0.371
 4884TIP3   OH214594   6.729   4.612   0.325
 4884TIP3    H114595   6.708   4.652   0.410
 4884TIP3    H214596   6.817   4.575   0.338
 4885TIP3   OH214597   2.948   3.349   5.885
 4885TIP3    H114598   2.945   3.439   5.852
 4885TIP3    H214599   2.942   3.294   5.806
 4886TIP3   OH214600   0.405   4.721   3.209
 4886TIP3    H114601   0.314   4.696   3.224
 4886TIP3    H214602   0.400   4.813   3.184
 4887TIP3   OH214603   3.728   6.722   2.146
 4887TIP3    H114604   3.776   6.768   2.216
 4887TIP3    H214605   3.685   6.650   2.191
 4888TIP3   OH214606   2.243   7.777   1.069
 4888TIP3    H114607   2.204   7.786   0.983
 4888TIP3    H214608   2.313   7.843   1.071
 4889TIP3   OH214609   0.215   4.954   4.382
 4889TIP3    H114610   0.199   5.019   4.450
 4889TIP3    H214611   0.310   4.939   4.385
 4890TIP3   OH214612   4.975   4.619   3.960
 4890TIP3    H114613   5.006   4.683   3.896
 4890TIP3    H214614   5.054   4.581   3.997
 4891TIP3   OH214615   7.667   3.965   0.962
 4891TIP3    H114616   7.586   4.010   0.987
 4891TIP3    H214617   7.698   3.925   1.043
 4892TIP3   OH214618   5.225   1.714   2.576
 4892TIP3    H114619   5.206   1.725   2.669
 4892TIP3    H214620   5.171   1.781   2.532
 4893TIP3   OH214621   6.483   7.052   6.537
 4893TIP3    H114622   6.391   7.057   6.565
 4893TIP3    H214623   6.478   7.029   6.444
 4894TIP3   OH214624   2.950   3.772   6.400
 4894TIP3    H114625   3.032   3.782   6.450
 4894TIP3    H214626   2.911   3.860   6.400
 4895TIP3   OH214627   7.626   6.536   3.931
 4895TIP3    H114628   7.563   6.488   3.877
 4895TIP3    H214629   7.679   6.467   3.972
 4896TIP3   OH214630   4.280   7.725   2.813
 4896TIP3    H114631   4.233   7.656   2.859
 4896TIP3    H214632   4.252   7.806   2.856
 4897TIP3   OH214633   2.964   2.498   5.206
 4897TIP3    H114634   3.029   2.497   5.136
 4897TIP3    H214635   2.880   2.492   5.161
 4898TIP3   OH214636   6.176   1.315   3.892
 4898TIP3    H114637   6.169   1.273   3.806
 4898TIP3    H214638   6.247   1.378   3.882
 4899TIP3   OH214639   7.927   6.249   2.059
 4899TIP3    H114640   8.020   6.262   2.037
 4899TIP3    H214641   7.928   6.178   2.122
 4900TIP3   OH214642   1.178   6.412   1.283
 4900TIP3    H114643   1.145   6.492   1.324
 4900TIP3    H214644   1.103   6.376   1.237
 4901TIP3   OH214645   1.515   7.006   0.125
 4901TIP3    H114646   1.538   6.927   0.174
 4901TIP3    H214647   1.594   7.030   0.077
 4902TIP3   OH214648   4.977   5.513   2.018
 4902TIP3    H114649   4.996   5.593   2.066
 4902TIP3    H214650   5.018   5.525   1.933
 4903TIP3   OH214651   0.552   6.198   1.686
 4903TIP3    H114652   0.584   6.217   1.774
 4903TIP3    H214653   0.522   6.107   1.690
 4904TIP3   OH214654   2.151   0.689   6.506
 4904TIP3    H114655   2.142   0.781   6.480
 4904TIP3    H214656   2.182   0.645   6.427
 4905TIP3   OH214657   6.705   5.339   1.976
 4905TIP3    H114658   6.615   5.324   2.005
 4905TIP3    H214659   6.757   5.274   2.023
 4906TIP3   OH214660   7.068   0.600   4.684
 4906TIP3    H114661   7.093   0.691   4.671
 4906TIP3    H214662   6.984   0.591   4.638
 4907TIP3   OH214663   3.292   0.125   2.082
 4907TIP3    H114664   3.338   0.207   2.097
 4907TIP3    H214665   3.200   0.149   2.079
 4908TIP3   OH214666   4.134   3.130   0.137
 4908TIP3    H114667   4.122   3.206   0.079
 4908TIP3    H214668   4.213   3.087   0.105
 4909TIP3   OH214669   2.261   1.604   5.878
 4909TIP3    H114670   2.221   1.675   5.828
 4909TIP3    H214671   2.233   1.619   5.968
 4910TIP3   OH214672   6.370   3.032   4.363
 4910TIP3    H114673   6.391   3.116   4.321
 4910TIP3    H214674   6.358   3.055   4.455
 4911TIP3   OH214675   5.673   0.125   3.510
 4911TIP3    H114676   5.753   0.074   3.521
 4911TIP3    H214677   5.638   0.098   3.425
 4912TIP3   OH214678   2.389   5.830   2.172
 4912TIP3    H114679   2.470   5.797   2.211
 4912TIP3    H214680   2.410   5.920   2.146
 4913TIP3   OH214681   6.327   6.605   6.732
 4913TIP3    H114682   6.273   6.632   6.658
 4913TIP3    H214683   6.319   6.677   6.796
 4914TIP3   OH214684   7.299   4.751   6.313
 4914TIP3    H114685   7.374   4.702   6.280
 4914TIP3    H214686   7.299   4.831   6.261
 4915TIP3   OH214687   7.069   0.050   3.169
 4915TIP3    H114688   6.984   0.070   3.206
 4915TIP3    H214689   7.082  -0.044   3.187
 4916TIP3   OH214690   1.887   4.857   3.930
 4916TIP3    H114691   1.925   4.882   3.846
 4916TIP3    H214692   1.939   4.782   3.959
 4917TIP3   OH214693   2.959   3.335   0.995
 4917TIP3    H114694   3.031   3.346   1.057
 4917TIP3    H214695   2.923   3.249   1.014
 4918TIP3   OH214696   2.201   4.448   4.822
 4918TIP3    H114697   2.187   4.511   4.893
 4918TIP3    H214698   2.249   4.497   4.756
 4919TIP3   OH214699   5.109   3.308   4.468
 4919TIP3    H114700   5.150   3.312   4.554
 4919TIP3    H214701   5.172   3.260   4.414
 4920TIP3   OH214702   3.766   0.418   6.555
 4920TIP3    H114703   3.772   0.510   6.580
 4920TIP3    H214704   3.693   0.415   6.493
 4921TIP3   OH214705   3.753   3.017   4.668
 4921TIP3    H114706   3.669   3.059   4.682
 4921TIP3    H214707   3.810   3.086   4.634
 4922TIP3   OH214708   6.767   4.221   5.675
 4922TIP3    H114709   6.676   4.192   5.664
 4922TIP3    H214710   6.805   4.211   5.588
 4923TIP3   OH214711   1.144   6.973   0.759
 4923TIP3    H114712   1.091   7.053   0.766
 4923TIP3    H214713   1.230   7.003   0.729
 4924TIP3   OH214714   2.879   1.361   1.940
 4924TIP3    H114715   2.841   1.346   2.026
 4924TIP3    H214716   2.971   1.384   1.957
 4925TIP3   OH214717   7.569   2.111   4.731
 4925TIP3    H114718   7.495   2.171   4.730
 4925TIP3    H214719   7.581   2.090   4.824
 4926TIP3   OH214720   8.223   1.734   4.873
 4926TIP3    H114721   8.261   1.758   4.958
 4926TIP3    H214722   8.248   1.642   4.861
 4927TIP3   OH214723   2.209   1.461   6.316
 4927TIP3    H114724   2.180   1.457   6.407
 4927TIP3    H214725   2.153   1.527   6.276
 4928TIP3   OH214726   4.482   4.723   0.776
 4928TIP3    H114727   4.473   4.628   0.764
 4928TIP3    H214728   4.398   4.759   0.748
 4929TIP3   OH214729   4.262   0.924   3.650
 4929TIP3    H114730   4.221   0.949   3.567
 4929TIP3    H214731   4.188   0.901   3.706
 4930TIP3   OH214732   6.570   0.677   5.449
 4930TIP3    H114733   6.563   0.718   5.363
 4930TIP3    H214734   6.576   0.750   5.510
 4931TIP3   OH214735   6.638   6.564   3.607
 4931TIP3    H114736   6.634   6.532   3.517
 4931TIP3    H214737   6.629   6.486   3.662
 4932TIP3   OH214738   7.929   6.774   2.180
 4932TIP3    H114739   7.902   6.828   2.106
 4932TIP3    H214740   7.946   6.688   2.143
 4933TIP3   OH214741   8.197   2.002   4.196
 4933TIP3    H114742   8.251   1.958   4.261
 4933TIP3    H214743   8.152   2.071   4.245
 4934TIP3   OH214744   8.204   2.217   1.779
 4934TIP3    H114745   8.161   2.171   1.706
 4934TIP3    H214746   8.138   2.217   1.848
 4935TIP3   OH214747   3.533   6.691   0.638
 4935TIP3    H114748   3.590   6.687   0.561
 4935TIP3    H214749   3.581   6.643   0.706
 4936TIP3   OH214750   7.418   1.771   3.478
 4936TIP3    H114751   7.410   1.862   3.448
 4936TIP3    H214752   7.497   1.771   3.533
 4937TIP3   OH214753   5.312   4.510   5.180
 4937TIP3    H114754   5.287   4.572   5.248
 4937TIP3    H214755   5.246   4.519   5.112
 4938TIP3   OH214756   6.880   4.824   5.554
 4938TIP3    H114757   6.888   4.863   5.468
 4938TIP3    H214758   6.937   4.877   5.610
 4939TIP3   OH214759   1.026   4.918   4.449
 4939TIP3    H114760   1.114   4.890   4.475
 4939TIP3    H214761   0.976   4.917   4.530
 4940TIP3   OH214762   7.847   1.236   4.182
 4940TIP3    H114763   7.814   1.146   4.182
 4940TIP3    H214764   7.873   1.253   4.092
 4941TIP3   OH214765   4.027   2.429   6.722
 4941TIP3    H114766   4.021   2.421   6.627
 4941TIP3    H214767   3.995   2.345   6.755
 4942TIP3   OH214768   2.450   5.576   0.376
 4942TIP3    H114769   2.458   5.569   0.472
 4942TIP3    H214770   2.367   5.533   0.356
 4943TIP3   OH214771   4.157   4.991   1.338
 4943TIP3    H114772   4.239   4.964   1.297
 4943TIP3    H214773   4.152   5.085   1.322
 4944TIP3   OH214774   0.308   3.073   0.522
 4944TIP3    H114775   0.370   3.137   0.556
 4944TIP3    H214776   0.332   2.991   0.565
 4945TIP3   OH214777   4.234  -0.055   5.091
 4945TIP3    H114778   4.250   0.029   5.134
 4945TIP3    H214779   4.221  -0.116   5.163
 4946TIP3   OH214780   8.337   1.643   3.731
 4946TIP3    H114781   8.301   1.684   3.810
 4946TIP3    H214782   8.428   1.623   3.754
 4947TIP3   OH214783   0.950   6.490   4.332
 4947TIP3    H114784   0.943   6.557   4.265
 4947TIP3    H214785   0.886   6.423   4.307
 4948TIP3   OH214786   6.159   6.571   5.942
 4948TIP3    H114787   6.076   6.532   5.915
 4948TIP3    H214788   6.184   6.629   5.870
 4949TIP3   OH214789   6.719   1.224   6.686
 4949TIP3    H114790   6.642   1.209   6.742
 4949TIP3    H214791   6.716   1.153   6.622
 4950TIP3   OH214792   6.675   0.978   5.064
 4950TIP3    H114793   6.663   0.968   4.969
 4950TIP3    H214794   6.761   0.940   5.082
 4951TIP3   OH214795   3.558   1.215   3.996
 4951TIP3    H114796   3.504   1.289   4.023
 4951TIP3    H214797   3.557   1.156   4.071
 4952TIP3   OH214798   4.283   2.740   3.044
 4952TIP3    H114799   4.300   2.666   2.986
 4952TIP3    H214800   4.315   2.712   3.130
 4953TIP3   OH214801   7.524   3.484   3.684
 4953TIP3    H114802   7.613   3.491   3.720
 4953TIP3    H214803   7.467   3.487   3.761
 4954TIP3   OH214804   6.665   4.730   5.981
 4954TIP3    H114805   6.733   4.780   6.025
 4954TIP3    H214806   6.660   4.769   5.893
 4955TIP3   OH214807   0.803   1.802   5.064
 4955TIP3    H114808   0.715   1.770   5.084
 4955TIP3    H214809   0.837   1.834   5.147
 4956TIP3   OH214810   0.974   7.741   5.793
 4956TIP3    H114811   1.065   7.760   5.818
 4956TIP3    H214812   0.976   7.741   5.697
 4957TIP3   OH214813   6.394   5.335   1.179
 4957TIP3    H114814   6.343   5.360   1.102
 4957TIP3    H214815   6.329   5.301   1.240
 4958TIP3   OH214816   0.075   6.000   4.406
 4958TIP3    H114817   0.157   6.000   4.357
 4958TIP3    H214818   0.087   5.933   4.474
 4959TIP3   OH214819   4.287   1.018   2.862
 4959TIP3    H114820   4.248   0.946   2.813
 4959TIP3    H214821   4.338   1.067   2.798
 4960TIP3   OH214822   4.618   4.991   1.146
 4960TIP3    H114823   4.618   5.053   1.219
 4960TIP3    H214824   4.710   4.967   1.135
 4961TIP3   OH214825   3.038   7.499   1.852
 4961TIP3    H114826   3.086   7.581   1.839
 4961TIP3    H214827   3.107   7.434   1.869
 4962TIP3   OH214828   3.926   6.690   1.873
 4962TIP3    H114829   3.868   6.614   1.875
 4962TIP3    H214830   3.966   6.691   1.960
 4963TIP3   OH214831   4.230   6.305   2.240
 4963TIP3    H114832   4.160   6.252   2.277
 4963TIP3    H214833   4.291   6.241   2.202
 4964TIP3   OH214834   6.615   1.350   3.817
 4964TIP3    H114835   6.679   1.374   3.750
 4964TIP3    H214836   6.629   1.413   3.888
 4965TIP3   OH214837   5.607   3.970   5.350
 4965TIP3    H114838   5.528   3.973   5.296
 4965TIP3    H214839   5.679   3.984   5.288
 4966TIP3   OH214840   5.817   2.457   0.931
 4966TIP3    H114841   5.870   2.463   0.852
 4966TIP3    H214842   5.730   2.485   0.904
 4967TIP3   OH214843   1.850   1.854   0.033
 4967TIP3    H114844   1.928   1.823  -0.013
 4967TIP3    H214845   1.777   1.812  -0.013
 4968TIP3   OH214846   2.362   6.881   0.945
 4968TIP3    H114847   2.379   6.923   0.861
 4968TIP3    H214848   2.373   6.951   1.009
 4969TIP3   OH214849   2.314   4.337   1.061
 4969TIP3    H114850   2.374   4.283   1.111
 4969TIP3    H214851   2.267   4.388   1.127
 4970TIP3   OH214852   0.079   5.188   2.013
 4970TIP3    H114853   0.068   5.234   1.930
 4970TIP3    H214854  -0.009   5.156   2.034
 4971TIP3   OH214855   4.264   5.585   2.299
 4971TIP3    H114856   4.268   5.586   2.395
 4971TIP3    H214857   4.210   5.660   2.276
 4972TIP3   OH214858   3.751   0.430   0.793
 4972TIP3    H114859   3.724   0.485   0.866
 4972TIP3    H214860   3.780   0.492   0.726
 4973TIP3   OH214861   3.614   5.803   5.879
 4973TIP3    H114862   3.659   5.883   5.904
 4973TIP3    H214863   3.632   5.742   5.950
 4974TIP3   OH214864   1.247   4.005   2.841
 4974TIP3    H114865   1.185   4.008   2.767
 4974TIP3    H214866   1.258   4.096   2.867
 4975TIP3   OH214867   2.481   2.537   4.659
 4975TIP3    H114868   2.462   2.631   4.656
 4975TIP3    H214869   2.492   2.513   4.567
 4976TIP3   OH214870   1.218   1.144   0.312
 4976TIP3    H114871   1.252   1.199   0.383
 4976TIP3    H214872   1.289   1.143   0.247
 4977TIP3   OH214873   4.927   5.436   2.619
 4977TIP3    H114874   4.970   5.452   2.535
 4977TIP3    H214875   4.949   5.345   2.640
 4978TIP3   OH214876   8.151   7.369   2.380
 4978TIP3    H114877   8.098   7.435   2.425
 4978TIP3    H214878   8.229   7.417   2.351
 4979TIP3   OH214879   1.863   6.514   0.387
 4979TIP3    H114880   1.882   6.607   0.381
 4979TIP3    H214881   1.947   6.471   0.370
 4980TIP3   OH214882   1.164   6.782   4.448
 4980TIP3    H114883   1.101   6.718   4.415
 4980TIP3    H214884   1.115   6.864   4.454
 4981TIP3   OH214885   0.478   6.045   5.363
 4981TIP3    H114886   0.539   6.118   5.357
 4981TIP3    H214887   0.517   5.986   5.428
 4982TIP3   OH214888   5.347   6.898   6.389
 4982TIP3    H114889   5.283   6.854   6.445
 4982TIP3    H214890   5.311   6.986   6.375
 4983TIP3   OH214891   2.124   3.246   5.089
 4983TIP3    H114892   2.057   3.222   5.153
 4983TIP3    H214893   2.087   3.322   5.043
 4984TIP3   OH214894   5.162   0.605   6.592
 4984TIP3    H114895   5.235   0.665   6.609
 4984TIP3    H214896   5.112   0.606   6.673
 4985TIP3   OH214897   5.679   2.310   5.334
 4985TIP3    H114898   5.686   2.216   5.348
 4985TIP3    H214899   5.750   2.331   5.273
 4986TIP3   OH214900   7.656   2.353   6.536
 4986TIP3    H114901   7.731   2.410   6.520
 4986TIP3    H214902   7.688   2.265   6.517
 4987TIP3   OH214903   7.415   6.378   6.634
 4987TIP3    H114904   7.389   6.386   6.726
 4987TIP3    H214905   7.510   6.389   6.635
 4988TIP3   OH214906   7.444   6.929   0.769
 4988TIP3    H114907   7.465   6.907   0.678
 4988TIP3    H214908   7.418   6.846   0.809
 4989TIP3   OH214909   5.041   5.347   1.494
 4989TIP3    H114910   5.017   5.417   1.555
 4989TIP3    H214911   5.040   5.267   1.547
 4990TIP3   OH214912   3.521   0.977   2.965
 4990TIP3    H114913   3.522   1.014   2.877
 4990TIP3    H214914   3.540   1.052   3.022
 4991TIP3   OH214915   3.204   7.014   1.367
 4991TIP3    H114916   3.272   7.071   1.402
 4991TIP3    H214917   3.248   6.963   1.299
 4992TIP3   OH214918   1.485   0.499   5.383
 4992TIP3    H114919   1.557   0.480   5.444
 4992TIP3    H214920   1.478   0.594   5.383
 4993TIP3   OH214921   5.845   5.106   5.865
 4993TIP3    H114922   5.755   5.090   5.894
 4993TIP3    H214923   5.899   5.058   5.927
 4994TIP3   OH214924   2.427   7.119   3.963
 4994TIP3    H114925   2.428   7.138   3.869
 4994TIP3    H214926   2.391   7.198   4.003
 4995TIP3   OH214927   3.918   3.224   6.483
 4995TIP3    H114928   3.828   3.202   6.507
 4995TIP3    H214929   3.962   3.140   6.471
 4996TIP3   OH214930   2.356   1.892   5.377
 4996TIP3    H114931   2.421   1.905   5.447
 4996TIP3    H214932   2.360   1.972   5.325
 4997TIP3   OH214933   4.387   5.232   0.103
 4997TIP3    H114934   4.369   5.146   0.141
 4997TIP3    H214935   4.317   5.288   0.137
 4998TIP3   OH214936   7.991   2.925   2.349
 4998TIP3    H114937   7.991   2.993   2.416
 4998TIP3    H214938   8.071   2.876   2.364
 4999TIP3   OH214939   7.021   3.811   1.179
 4999TIP3    H114940   7.084   3.797   1.250
 4999TIP3    H214941   7.043   3.744   1.114
 5000TIP3   OH214942   4.291   5.400   2.087
 5000TIP3    H114943   4.227   5.447   2.140
 5000TIP3    H214944   4.256   5.403   1.998
 5001TIP3   OH214945   3.395   4.462   1.054
 5001TIP3    H114946   3.311   4.466   1.099
 5001TIP3    H214947   3.451   4.524   1.101
 5002TIP3   OH214948   2.119   5.875   3.185
 5002TIP3    H114949   2.203   5.889   3.142
 5002TIP3    H214950   2.056   5.921   3.130
 5003TIP3   OH214951   5.806   6.706   5.338
 5003TIP3    H114952   5.851   6.621   5.338
 5003TIP3    H214953   5.728   6.691   5.392
 5004TIP3   OH214954   7.431   1.114   4.465
 5004TIP3    H114955   7.368   1.180   4.435
 5004TIP3    H214956   7.440   1.054   4.391
 5005TIP3   OH214957   3.930   0.677   0.985
 5005TIP3    H114958   3.959   0.590   1.011
 5005TIP3    H214959   3.960   0.685   0.894
 5006TIP3   OH214960   7.255   7.051   6.108
 5006TIP3    H114961   7.277   6.989   6.039
 5006TIP3    H214962   7.307   7.023   6.184
 5007TIP3   OH214963   1.733   5.444   3.207
 5007TIP3    H114964   1.648   5.401   3.198
 5007TIP3    H214965   1.796   5.381   3.174
 5008TIP3   OH214966   8.122   0.006   6.473
 5008TIP3    H114967   8.189  -0.023   6.412
 5008TIP3    H214968   8.160   0.083   6.516
 5009TIP3   OH214969   6.613   4.961   2.626
 5009TIP3    H114970   6.674   4.973   2.554
 5009TIP3    H214971   6.655   5.005   2.700
 5010TIP3   OH214972   4.768   7.202   4.748
 5010TIP3    H114973   4.857   7.195   4.714
 5010TIP3    H214974   4.752   7.296   4.756
 5011TIP3   OH214975   2.524   5.828   1.707
 5011TIP3    H114976   2.448   5.882   1.729
 5011TIP3    H214977   2.509   5.745   1.753
 5012TIP3   OH214978   0.936   0.395   0.191
 5012TIP3    H114979   0.995   0.349   0.132
 5012TIP3    H214980   0.946   0.351   0.275
 5013TIP3   OH214981   2.324   6.287   5.179
 5013TIP3    H114982   2.410   6.324   5.159
 5013TIP3    H214983   2.314   6.296   5.273
 5014TIP3   OH214984   5.627   6.946   4.700
 5014TIP3    H114985   5.551   6.946   4.641
 5014TIP3    H214986   5.690   6.888   4.658
 5015TIP3   OH214987   7.235   3.641   4.504
 5015TIP3    H114988   7.164   3.690   4.463
 5015TIP3    H214989   7.262   3.578   4.438
 5016TIP3   OH214990   5.677   4.891   6.660
 5016TIP3    H114991   5.714   4.914   6.575
 5016TIP3    H214992   5.748   4.847   6.706
 5017TIP3   OH214993   0.447   7.191   4.257
 5017TIP3    H114994   0.522   7.139   4.290
 5017TIP3    H214995   0.487   7.257   4.201
 5018TIP3   OH214996   3.989   3.416   0.388
 5018TIP3    H114997   3.960   3.413   0.479
 5018TIP3    H214998   3.982   3.326   0.358
 5019TIP3   OH214999   2.857   7.311   0.131
 5019TIP3    H115000   2.873   7.247   0.061
 5019TIP3    H215001   2.852   7.258   0.210
 5020TIP3   OH215002   2.752   5.502   6.230
 5020TIP3    H115003   2.694   5.519   6.156
 5020TIP3    H215004   2.707   5.434   6.280
 5021TIP3   OH215005   4.919   0.646   4.401
 5021TIP3    H115006   4.933   0.702   4.324
 5021TIP3    H215007   4.838   0.678   4.440
 5022TIP3   OH215008   2.133   6.243   2.268
 5022TIP3    H115009   2.223   6.212   2.267
 5022TIP3    H215010   2.138   6.334   2.299
 5023TIP3   OH215011   3.717   6.905   3.478
 5023TIP3    H115012   3.685   6.992   3.454
 5023TIP3    H215013   3.729   6.910   3.573
 5024TIP3   OH215014   0.831   4.669   6.642
 5024TIP3    H115015   0.802   4.618   6.566
 5024TIP3    H215016   0.804   4.759   6.622
 5025TIP3   OH215017   7.149   4.501   3.342
 5025TIP3    H115018   7.069   4.495   3.289
 5025TIP3    H215019   7.168   4.410   3.367
 5026TIP3   OH215020   0.660   6.706   2.930
 5026TIP3    H115021   0.722   6.752   2.873
 5026TIP3    H215022   0.646   6.621   2.888
 5027TIP3   OH215023   7.504   5.693   5.916
 5027TIP3    H115024   7.409   5.700   5.905
 5027TIP3    H215025   7.540   5.766   5.865
 5028TIP3   OH215026   7.292   6.064   4.955
 5028TIP3    H115027   7.362   6.053   5.019
 5028TIP3    H215028   7.283   6.158   4.945
 5029TIP3   OH215029   6.638   2.406   3.319
 5029TIP3    H115030   6.547   2.419   3.290
 5029TIP3    H215031   6.690   2.428   3.242
 5030TIP3   OH215032   6.427   4.037   4.366
 5030TIP3    H115033   6.468   4.065   4.284
 5030TIP3    H215034   6.440   4.111   4.426
 5031TIP3   OH215035   2.202   2.829   5.156
 5031TIP3    H115036   2.210   2.833   5.252
 5031TIP3    H215037   2.266   2.762   5.130
 5032TIP3   OH215038   3.337   1.238   2.824
 5032TIP3    H115039   3.272   1.299   2.788
 5032TIP3    H215040   3.390   1.213   2.749
 5033TIP3   OH215041   6.483   2.747   3.822
 5033TIP3    H115042   6.392   2.727   3.843
 5033TIP3    H215043   6.522   2.661   3.803
 5034TIP3   OH215044   1.025   7.047   3.871
 5034TIP3    H115045   0.944   7.022   3.916
 5034TIP3    H215046   1.038   6.979   3.805
 5035TIP3   OH215047   0.298   6.607   3.863
 5035TIP3    H115048   0.265   6.600   3.952
 5035TIP3    H215049   0.380   6.557   3.864
 5036TIP3   OH215050   7.502   5.417   3.019
 5036TIP3    H115051   7.594   5.428   2.995
 5036TIP3    H215052   7.483   5.493   3.074
 5037TIP3   OH215053   6.185   4.200   4.594
 5037TIP3    H115054   6.222   4.235   4.513
 5037TIP3    H215055   6.206   4.106   4.591
 5038TIP3   OH215056   2.426   1.591   6.175
 5038TIP3    H115057   2.387   1.670   6.139
 5038TIP3    H215058   2.374   1.571   6.253
 5039TIP3   OH215059   7.687   2.884   5.800
 5039TIP3    H115060   7.600   2.855   5.772
 5039TIP3    H215061   7.683   2.883   5.896
 5040TIP3   OH215062   3.821   7.780   2.022
 5040TIP3    H115063   3.788   7.719   1.956
 5040TIP3    H215064   3.833   7.726   2.100
 5041TIP3   OH215065   2.722   4.380   5.072
 5041TIP3    H115066   2.722   4.472   5.097
 5041TIP3    H215067   2.810   4.349   5.095
 5042TIP3   OH215068   4.787   6.132   5.093
 5042TIP3    H115069   4.848   6.150   5.022
 5042TIP3    H215070   4.700   6.146   5.054
 5043TIP3   OH215071   7.223   2.274   4.332
 5043TIP3    H115072   7.224   2.369   4.338
 5043TIP3    H215073   7.302   2.245   4.379
 5044TIP3   OH215074   3.611   5.154   4.004
 5044TIP3    H115075   3.645   5.223   4.060
 5044TIP3    H215076   3.585   5.199   3.924
 5045TIP3   OH215077   6.829   3.967   4.717
 5045TIP3    H115078   6.832   4.034   4.649
 5045TIP3    H215079   6.915   3.926   4.715
 5046TIP3   OH215080   2.526   2.900   5.166
 5046TIP3    H115081   2.605   2.937   5.204
 5046TIP3    H215082   2.472   2.875   5.241
 5047TIP3   OH215083   2.702   5.905   5.819
 5047TIP3    H115084   2.731   5.938   5.904
 5047TIP3    H215085   2.744   5.819   5.812
 5048TIP3   OH215086   4.091   6.950   1.787
 5048TIP3    H115087   4.120   6.875   1.839
 5048TIP3    H215088   4.172   6.996   1.764
 5049TIP3   OH215089   2.218   2.692   6.669
 5049TIP3    H115090   2.300   2.644   6.654
 5049TIP3    H215091   2.245   2.784   6.670
 5050TIP3   OH215092   3.143   5.256   1.617
 5050TIP3    H115093   3.063   5.209   1.639
 5050TIP3    H215094   3.189   5.198   1.556
 5051TIP3   OH215095   6.453   1.998   0.739
 5051TIP3    H115096   6.371   1.950   0.746
 5051TIP3    H215097   6.456   2.054   0.816
 5052TIP3   OH215098   1.788   4.091   0.779
 5052TIP3    H115099   1.715   4.046   0.822
 5052TIP3    H215100   1.859   4.026   0.779
 5053TIP3   OH215101   6.825   3.851   0.264
 5053TIP3    H115102   6.750   3.805   0.302
 5053TIP3    H215103   6.864   3.899   0.338
 5054TIP3   OH215104   7.188   7.073   1.819
 5054TIP3    H115105   7.141   7.041   1.741
 5054TIP3    H215106   7.220   7.159   1.794
 5055TIP3   OH215107   1.533   4.933   3.729
 5055TIP3    H115108   1.455   4.966   3.685
 5055TIP3    H215109   1.602   4.993   3.703
 5056TIP3   OH215110   3.972   1.245   3.885
 5056TIP3    H115111   3.883   1.212   3.871
 5056TIP3    H215112   4.024   1.201   3.818
 5057TIP3   OH215113   2.319   5.482   5.503
 5057TIP3    H115114   2.235   5.527   5.512
 5057TIP3    H215115   2.374   5.544   5.455
 5058TIP3   OH215116   4.180   0.399   0.817
 5058TIP3    H115117   4.154   0.488   0.793
 5058TIP3    H215118   4.185   0.401   0.912
 5059TIP3   OH215119   2.063   6.574   1.403
 5059TIP3    H115120   2.134   6.637   1.410
 5059TIP3    H215121   2.043   6.549   1.493
 5060TIP3   OH215122   3.508   2.856   1.208
 5060TIP3    H115123   3.515   2.794   1.280
 5060TIP3    H215124   3.582   2.916   1.221
 5061TIP3   OH215125   2.780   3.195   6.390
 5061TIP3    H115126   2.860   3.183   6.442
 5061TIP3    H215127   2.749   3.283   6.415
 5062TIP3   OH215128   7.241   6.025   3.638
 5062TIP3    H115129   7.187   6.097   3.668
 5062TIP3    H215130   7.210   5.949   3.686
 5063TIP3   OH215131   6.343   1.705   5.665
 5063TIP3    H115132   6.282   1.699   5.592
 5063TIP3    H215133   6.402   1.777   5.642
 5064TIP3   OH215134   2.192   6.875   3.714
 5064TIP3    H115135   2.160   6.917   3.794
 5064TIP3    H215136   2.150   6.924   3.643
 5065TIP3   OH215137   4.187   6.112   1.266
 5065TIP3    H115138   4.099   6.083   1.290
 5065TIP3    H215139   4.172   6.194   1.217
 5066TIP3   OH215140   6.821   6.640   0.898
 5066TIP3    H115141   6.760   6.696   0.947
 5066TIP3    H215142   6.796   6.651   0.806
 5067TIP3   OH215143   2.361   4.705   4.024
 5067TIP3    H115144   2.356   4.647   4.100
 5067TIP3    H215145   2.377   4.792   4.060
 5068TIP3   OH215146   1.502   1.897   3.740
 5068TIP3    H115147   1.588   1.936   3.753
 5068TIP3    H215148   1.509   1.849   3.657
 5069TIP3   OH215149   5.102   7.147   2.111
 5069TIP3    H115150   5.179   7.163   2.057
 5069TIP3    H215151   5.046   7.224   2.097
 5070TIP3   OH215152   6.218   7.089   2.480
 5070TIP3    H115153   6.212   7.070   2.387
 5070TIP3    H215154   6.173   7.173   2.491
 5071TIP3   OH215155   3.081   3.332   3.944
 5071TIP3    H115156   3.060   3.326   3.851
 5071TIP3    H215157   3.176   3.343   3.947
 5072TIP3   OH215158   2.917   7.074   1.863
 5072TIP3    H115159   2.944   6.986   1.886
 5072TIP3    H215160   2.945   7.128   1.937
 5073TIP3   OH215161   5.941   5.096   3.685
 5073TIP3    H115162   6.018   5.137   3.644
 5073TIP3    H215163   5.932   5.142   3.769
 5074TIP3   OH215164   5.034   3.890   0.485
 5074TIP3    H115165   5.121   3.929   0.486
 5074TIP3    H215166   5.029   3.845   0.401
 5075TIP3   OH215167   0.256   1.943   6.157
 5075TIP3    H115168   0.201   1.964   6.081
 5075TIP3    H215169   0.305   2.023   6.174
 5076TIP3   OH215170   2.986   4.055   6.152
 5076TIP3    H115171   2.942   3.978   6.187
 5076TIP3    H215172   2.964   4.055   6.059
 5077TIP3   OH215173   2.794   0.883   1.825
 5077TIP3    H115174   2.713   0.862   1.780
 5077TIP3    H215175   2.828   0.961   1.779
 5078TIP3   OH215176   2.984   6.804   1.116
 5078TIP3    H115177   2.964   6.714   1.140
 5078TIP3    H215178   3.080   6.807   1.113
 5079TIP3   OH215179   0.158   7.425   5.303
 5079TIP3    H115180   0.237   7.417   5.249
 5079TIP3    H215181   0.181   7.382   5.385
 5080TIP3   OH215182   2.244   1.958   2.195
 5080TIP3    H115183   2.179   1.951   2.264
 5080TIP3    H215184   2.224   2.041   2.152
 5081TIP3   OH215185   3.918   5.302   0.126
 5081TIP3    H115186   3.928   5.385   0.081
 5081TIP3    H215187   3.992   5.249   0.095
 5082TIP3   OH215188   4.332   1.900   0.071
 5082TIP3    H115189   4.426   1.919   0.069
 5082TIP3    H215190   4.323   1.819   0.020
 5083TIP3   OH215191   1.185   3.358   1.872
 5083TIP3    H115192   1.215   3.424   1.809
 5083TIP3    H215193   1.206   3.395   1.957
 5084TIP3   OH215194   0.372   3.570   4.558
 5084TIP3    H115195   0.297   3.601   4.507
 5084TIP3    H215196   0.336   3.501   4.614
 5085TIP3   OH215197   6.213   4.996   1.877
 5085TIP3    H115198   6.165   5.074   1.907
 5085TIP3    H215199   6.237   4.950   1.957
 5086TIP3   OH215200   7.245   7.813   6.156
 5086TIP3    H115201   7.284   7.735   6.118
 5086TIP3    H215202   7.160   7.783   6.190
 5087TIP3   OH215203   4.992   0.399   5.025
 5087TIP3    H115204   5.005   0.310   4.992
 5087TIP3    H215205   5.042   0.403   5.106
 5088TIP3   OH215206   6.483   0.561   3.447
 5088TIP3    H115207   6.485   0.517   3.532
 5088TIP3    H215208   6.391   0.584   3.435
 5089TIP3   OH215209   5.508   0.925   2.356
 5089TIP3    H115210   5.591   0.938   2.312
 5089TIP3    H215211   5.515   0.837   2.394
 5090TIP3   OH215212   2.321   4.339   5.906
 5090TIP3    H115213   2.293   4.355   5.816
 5090TIP3    H215214   2.241   4.317   5.953
 5091TIP3   OH215215   3.180   4.019   0.448
 5091TIP3    H115216   3.111   3.963   0.412
 5091TIP3    H215217   3.206   3.977   0.530
 5092TIP3   OH215218   2.224   1.343   5.659
 5092TIP3    H115219   2.220   1.331   5.564
 5092TIP3    H215220   2.313   1.315   5.682
 5093TIP3   OH215221   5.523   5.056   6.221
 5093TIP3    H115222   5.569   5.016   6.295
 5093TIP3    H215223   5.439   5.009   6.217
 5094TIP3   OH215224   0.843   1.183   3.078
 5094TIP3    H115225   0.807   1.157   3.162
 5094TIP3    H215226   0.923   1.131   3.069
 5095TIP3   OH215227   1.456   6.490   0.114
 5095TIP3    H115228   1.526   6.471   0.176
 5095TIP3    H215229   1.461   6.420   0.049
 5096TIP3   OH215230   7.707   5.253   3.197
 5096TIP3    H115231   7.737   5.297   3.276
 5096TIP3    H215232   7.739   5.307   3.125
 5097TIP3   OH215233   7.719   2.508   6.075
 5097TIP3    H115234   7.802   2.545   6.043
 5097TIP3    H215235   7.693   2.566   6.147
 5098TIP3   OH215236   3.437   0.235   0.536
 5098TIP3    H115237   3.399   0.315   0.498
 5098TIP3    H215238   3.394   0.164   0.489
 5099TIP3   OH215239   1.519   5.349   5.088
 5099TIP3    H115240   1.483   5.437   5.102
 5099TIP3    H215241   1.497   5.328   4.998
 5100TIP3   OH215242   2.439   7.191   0.789
 5100TIP3    H115243   2.520   7.146   0.765
 5100TIP3    H215244   2.439   7.190   0.885
 5101TIP3   OH215245   1.622   6.406   0.328
 5101TIP3    H115246   1.632   6.318   0.363
 5101TIP3    H215247   1.686   6.459   0.375
 5102TIP3   OH215248   1.674   0.319   6.027
 5102TIP3    H115249   1.645   0.408   6.007
 5102TIP3    H215250   1.601   0.279   6.073
 5103TIP3   OH215251   2.239   4.039   0.717
 5103TIP3    H115252   2.151   4.004   0.735
 5103TIP3    H215253   2.233   4.073   0.627
 5104TIP3   OH215254   7.658   5.572   5.435
 5104TIP3    H115255   7.724   5.604   5.496
 5104TIP3    H215256   7.594   5.528   5.491
 5105TIP3   OH215257   2.165   3.939   5.668
 5105TIP3    H115258   2.249   3.973   5.636
 5105TIP3    H215259   2.100   3.972   5.605
 5106TIP3   OH215260   7.908   5.123   1.116
 5106TIP3    H115261   7.826   5.158   1.151
 5106TIP3    H215262   7.977   5.172   1.161
 5107TIP3   OH215263   2.131   2.361   3.415
 5107TIP3    H115264   2.203   2.401   3.366
 5107TIP3    H215265   2.127   2.411   3.497
 5108TIP3   OH215266   1.792   0.499   6.229
 5108TIP3    H115267   1.834   0.581   6.201
 5108TIP3    H215268   1.822   0.434   6.166
 5109TIP3   OH215269   8.187   6.781   0.488
 5109TIP3    H115270   8.269   6.832   0.492
 5109TIP3    H215271   8.214   6.694   0.459
 5110TIP3   OH215272   4.352   5.553   3.052
 5110TIP3    H115273   4.305   5.622   3.005
 5110TIP3    H215274   4.376   5.490   2.984
 5111TIP3   OH215275   8.109   5.257   1.250
 5111TIP3    H115276   8.124   5.215   1.334
 5111TIP3    H215277   8.086   5.347   1.272
 5112TIP3   OH215278   4.875   2.335   2.959
 5112TIP3    H115279   4.877   2.314   2.866
 5112TIP3    H215280   4.894   2.251   3.002
 5113TIP3   OH215281   7.342   5.641   1.634
 5113TIP3    H115282   7.336   5.568   1.695
 5113TIP3    H215283   7.309   5.716   1.683
 5114TIP3   OH215284   4.347   4.588   1.363
 5114TIP3    H115285   4.267   4.636   1.343
 5114TIP3    H215286   4.317   4.510   1.410
 5115TIP3   OH215287   4.273   6.772   0.898
 5115TIP3    H115288   4.365   6.772   0.873
 5115TIP3    H215289   4.249   6.865   0.902
 5116TIP3   OH215290   8.290   0.321   1.212
 5116TIP3    H115291   8.278   0.333   1.306
 5116TIP3    H215292   8.271   0.228   1.196
 5117TIP3   OH215293   6.940   4.073   2.916
 5117TIP3    H115294   7.012   4.114   2.867
 5117TIP3    H215295   6.890   4.024   2.851
 5118TIP3   OH215296   3.728   6.601   5.967
 5118TIP3    H115297   3.681   6.652   5.901
 5118TIP3    H215298   3.782   6.664   6.014
 5119TIP3   OH215299   3.894   7.171   1.621
 5119TIP3    H115300   3.890   7.151   1.714
 5119TIP3    H215301   3.845   7.252   1.611
 5120TIP3   OH215302   4.917   7.401   0.018
 5120TIP3    H115303   4.962   7.480   0.047
 5120TIP3    H215304   4.898   7.352   0.098
 5121TIP3   OH215305   0.464   2.404   5.402
 5121TIP3    H115306   0.409   2.482   5.401
 5121TIP3    H215307   0.407   2.335   5.435
 5122TIP3   OH215308   2.541   3.139   4.745
 5122TIP3    H115309   2.567   3.185   4.666
 5122TIP3    H215310   2.471   3.193   4.782
 5123TIP3   OH215311   5.951   1.186   2.245
 5123TIP3    H115312   6.034   1.194   2.199
 5123TIP3    H215313   5.939   1.271   2.288
 5124TIP3   OH215314   3.651   4.904   2.989
 5124TIP3    H115315   3.585   4.854   2.941
 5124TIP3    H215316   3.618   4.906   3.079
 5125TIP3   OH215317   2.969   4.245   6.373
 5125TIP3    H115318   3.000   4.221   6.286
 5125TIP3    H215319   3.024   4.319   6.399
 5126TIP3   OH215320   4.076   2.189   6.487
 5126TIP3    H115321   4.079   2.280   6.515
 5126TIP3    H215322   4.161   2.153   6.512
 5127TIP3   OH215323   2.249   3.986   2.129
 5127TIP3    H115324   2.307   3.942   2.190
 5127TIP3    H215325   2.306   4.044   2.079
 5128TIP3   OH215326   0.597   1.156   2.031
 5128TIP3    H115327   0.676   1.210   2.030
 5128TIP3    H215328   0.584   1.135   2.123
 5129TIP3   OH215329   1.468   2.511   1.743
 5129TIP3    H115330   1.476   2.526   1.649
 5129TIP3    H215331   1.393   2.452   1.752
 5130TIP3   OH215332   6.054   7.470   3.859
 5130TIP3    H115333   6.026   7.408   3.791
 5130TIP3    H215334   5.990   7.458   3.929
 5131TIP3   OH215335   6.768   3.463   2.908
 5131TIP3    H115336   6.861   3.443   2.914
 5131TIP3    H215337   6.765   3.555   2.881
 5132TIP3   OH215338   5.044   4.249   4.100
 5132TIP3    H115339   4.960   4.265   4.142
 5132TIP3    H215340   5.026   4.256   4.006
 5133TIP3   OH215341   3.511   1.608   1.476
 5133TIP3    H115342   3.475   1.593   1.388
 5133TIP3    H215343   3.601   1.635   1.460
 5134TIP3   OH215344   3.987   0.456   1.318
 5134TIP3    H115345   4.062   0.435   1.374
 5134TIP3    H215346   3.974   0.551   1.329
 5135TIP3   OH215347   2.183   1.007   3.847
 5135TIP3    H115348   2.149   0.997   3.936
 5135TIP3    H215349   2.256   0.945   3.842
 5136TIP3   OH215350   1.234   0.048   1.378
 5136TIP3    H115351   1.181   0.111   1.426
 5136TIP3    H215352   1.324   0.063   1.408
 5137TIP3   OH215353   7.085   4.175   5.160
 5137TIP3    H115354   7.035   4.161   5.240
 5137TIP3    H215355   7.021   4.167   5.089
 5138TIP3   OH215356   4.931   6.320   5.307
 5138TIP3    H115357   4.871   6.283   5.242
 5138TIP3    H215358   5.013   6.273   5.294
 5139TIP3   OH215359   3.786   1.791   1.121
 5139TIP3    H115360   3.699   1.823   1.098
 5139TIP3    H215361   3.847   1.848   1.073
 5140TIP3   OH215362   2.104   5.752   4.173
 5140TIP3    H115363   2.038   5.807   4.130
 5140TIP3    H215364   2.187   5.776   4.131
 5141TIP3   OH215365   7.969   5.846   6.615
 5141TIP3    H115366   7.946   5.837   6.522
 5141TIP3    H215367   7.978   5.755   6.646
 5142TIP3   OH215368   4.145   3.521   6.189
 5142TIP3    H115369   4.230   3.500   6.228
 5142TIP3    H215370   4.167   3.570   6.110
 5143TIP3   OH215371   0.559   5.272   4.352
 5143TIP3    H115372   0.538   5.310   4.437
 5143TIP3    H215373   0.613   5.339   4.309
 5144TIP3   OH215374   2.819   1.132   4.035
 5144TIP3    H115375   2.903   1.178   4.032
 5144TIP3    H215376   2.755   1.200   4.055
 5145TIP3   OH215377   5.573   3.060   5.329
 5145TIP3    H115378   5.634   3.091   5.396
 5145TIP3    H215379   5.628   3.041   5.254
 5146TIP3   OH215380   6.613   2.853   4.379
 5146TIP3    H115381   6.629   2.855   4.284
 5146TIP3    H215382   6.556   2.928   4.395
 5147TIP3   OH215383   4.711   5.630   0.030
 5147TIP3    H115384   4.741   5.593   0.113
 5147TIP3    H215385   4.760   5.712   0.020
 5148TIP3   OH215386   0.324   1.457   5.547
 5148TIP3    H115387   0.333   1.548   5.576
 5148TIP3    H215388   0.261   1.419   5.608
 5149TIP3   OH215389   1.005   2.438   6.621
 5149TIP3    H115390   1.029   2.521   6.661
 5149TIP3    H215391   0.936   2.403   6.677
 5150TIP3   OH215392   3.282   5.583   5.492
 5150TIP3    H115393   3.187   5.596   5.486
 5150TIP3    H215394   3.299   5.580   5.586
 5151TIP3   OH215395   3.704   7.104   1.013
 5151TIP3    H115396   3.754   7.055   0.948
 5151TIP3    H215397   3.755   7.184   1.026
 5152TIP3   OH215398   7.798   1.484   0.536
 5152TIP3    H115399   7.808   1.517   0.625
 5152TIP3    H215400   7.715   1.436   0.537
 5153TIP3   OH215401   5.277   7.286   5.013
 5153TIP3    H115402   5.209   7.332   5.062
 5153TIP3    H215403   5.352   7.346   5.013
 5154TIP3   OH215404   1.133   6.950   4.776
 5154TIP3    H115405   1.061   6.910   4.728
 5154TIP3    H215406   1.136   6.903   4.859
 5155TIP3   OH215407   2.350   4.059   1.831
 5155TIP3    H115408   2.290   3.987   1.809
 5155TIP3    H215409   2.333   4.125   1.764
 5156TIP3   OH215410   4.241   1.454   1.550
 5156TIP3    H115411   4.154   1.489   1.532
 5156TIP3    H215412   4.227   1.361   1.567
 5157TIP3   OH215413   6.864   6.232   3.242
 5157TIP3    H115414   6.937   6.241   3.180
 5157TIP3    H215415   6.885   6.154   3.293
 5158TIP3   OH215416   6.985   7.176   6.112
 5158TIP3    H115417   6.995   7.160   6.018
 5158TIP3    H215418   7.033   7.257   6.128
 5159TIP3   OH215419   6.626   1.284   3.343
 5159TIP3    H115420   6.600   1.321   3.259
 5159TIP3    H215421   6.545   1.256   3.384
 5160TIP3   OH215422   2.616   5.223   0.599
 5160TIP3    H115423   2.642   5.184   0.683
 5160TIP3    H215424   2.693   5.273   0.571
 5161TIP3   OH215425   7.809   7.434   3.382
 5161TIP3    H115426   7.814   7.349   3.425
 5161TIP3    H215427   7.716   7.444   3.359
 5162TIP3   OH215428   3.089   0.906   4.878
 5162TIP3    H115429   3.093   0.923   4.784
 5162TIP3    H215430   3.168   0.948   4.913
 5163TIP3   OH215431   5.241   2.228   5.973
 5163TIP3    H115432   5.225   2.320   5.952
 5163TIP3    H215433   5.313   2.202   5.916
 5164TIP3   OH215434   1.317   3.457   2.925
 5164TIP3    H115435   1.357   3.398   2.861
 5164TIP3    H215436   1.225   3.433   2.926
 5165TIP3   OH215437   4.655   7.240   4.116
 5165TIP3    H115438   4.581   7.292   4.147
 5165TIP3    H215439   4.617   7.183   4.049
 5166TIP3   OH215440   1.332   4.823   4.751
 5166TIP3    H115441   1.319   4.773   4.670
 5166TIP3    H215442   1.427   4.836   4.756
 5167TIP3   OH215443   2.482   2.659   0.267
 5167TIP3    H115444   2.398   2.694   0.236
 5167TIP3    H215445   2.544   2.682   0.198
 5168TIP3   OH215446   1.509   1.304   1.451
 5168TIP3    H115447   1.545   1.222   1.415
 5168TIP3    H215448   1.567   1.324   1.525
 5169TIP3   OH215449   3.966   1.792   1.837
 5169TIP3    H115450   3.912   1.838   1.773
 5169TIP3    H215451   3.931   1.818   1.922
 5170TIP3   OH215452   5.713   5.688   1.807
 5170TIP3    H115453   5.621   5.695   1.781
 5170TIP3    H215454   5.735   5.596   1.792
 5171TIP3   OH215455   1.346   2.004   2.698
 5171TIP3    H115456   1.425   2.047   2.729
 5171TIP3    H215457   1.371   1.964   2.615
 5172TIP3   OH215458   2.088   0.971   6.151
 5172TIP3    H115459   1.997   0.993   6.131
 5172TIP3    H215460   2.138   1.005   6.077
 5173TIP3   OH215461   6.726   5.328   2.802
 5173TIP3    H115462   6.631   5.330   2.797
 5173TIP3    H215463   6.755   5.378   2.725
 5174TIP3   OH215464   1.537   1.749   3.522
 5174TIP3    H115465   1.504   1.683   3.462
 5174TIP3    H215466   1.628   1.762   3.495
 5175TIP3   OH215467   2.503   6.142   5.836
 5175TIP3    H115468   2.575   6.205   5.846
 5175TIP3    H215469   2.543   6.057   5.855
 5176TIP3   OH215470   8.206   4.656   5.840
 5176TIP3    H115471   8.117   4.675   5.808
 5176TIP3    H215472   8.224   4.725   5.902
 5177TIP3   OH215473   4.626   6.136   4.433
 5177TIP3    H115474   4.557   6.194   4.465
 5177TIP3    H215475   4.689   6.194   4.391
 5178TIP3   OH215476   0.970   5.663   0.837
 5178TIP3    H115477   0.947   5.735   0.896
 5178TIP3    H215478   0.973   5.704   0.750
 5179TIP3   OH215479   4.803   6.010   0.385
 5179TIP3    H115480   4.751   5.974   0.458
 5179TIP3    H215481   4.862   6.073   0.427
 5180TIP3   OH215482   0.607   7.117   3.000
 5180TIP3    H115483   0.605   7.068   2.917
 5180TIP3    H215484   0.564   7.059   3.062
 5181TIP3   OH215485   4.720   5.152   4.505
 5181TIP3    H115486   4.701   5.227   4.449
 5181TIP3    H215487   4.816   5.152   4.513
 5182TIP3   OH215488   0.812   6.209   4.702
 5182TIP3    H115489   0.829   6.219   4.796
 5182TIP3    H215490   0.719   6.185   4.698
 5183TIP3   OH215491   2.490   0.397   0.656
 5183TIP3    H115492   2.517   0.305   0.665
 5183TIP3    H215493   2.500   0.434   0.744
 5184TIP3   OH215494   7.672   5.418   6.527
 5184TIP3    H115495   7.593   5.375   6.494
 5184TIP3    H215496   7.664   5.509   6.498
 5185TIP3   OH215497   5.609   4.519   6.607
 5185TIP3    H115498   5.588   4.512   6.514
 5185TIP3    H215499   5.704   4.519   6.610
 5186TIP3   OH215500   3.096   4.659   3.583
 5186TIP3    H115501   3.180   4.694   3.554
 5186TIP3    H215502   3.115   4.614   3.666
 5187TIP3   OH215503   3.921   3.798   1.427
 5187TIP3    H115504   3.851   3.862   1.416
 5187TIP3    H215505   3.986   3.842   1.482
 5188TIP3   OH215506   0.874   1.022   2.757
 5188TIP3    H115507   0.801   1.083   2.748
 5188TIP3    H215508   0.849   0.965   2.829
 5189TIP3   OH215509   4.651   0.347   4.848
 5189TIP3    H115510   4.713   0.410   4.810
 5189TIP3    H215511   4.655   0.271   4.790
 5190TIP3   OH215512   7.597   4.982   2.250
 5190TIP3    H115513   7.688   4.951   2.257
 5190TIP3    H215514   7.602   5.056   2.190
 5191TIP3   OH215515   4.485   4.415   0.467
 5191TIP3    H115516   4.439   4.389   0.547
 5191TIP3    H215517   4.545   4.484   0.495
 5192TIP3   OH215518   3.354   5.130   1.417
 5192TIP3    H115519   3.430   5.085   1.453
 5192TIP3    H215520   3.379   5.222   1.416
 5193TIP3   OH215521   1.053   0.264   6.587
 5193TIP3    H115522   0.965   0.229   6.601
 5193TIP3    H215523   1.076   0.306   6.670
 5194TIP3   OH215524   7.516   1.626   2.619
 5194TIP3    H115525   7.461   1.699   2.591
 5194TIP3    H215526   7.484   1.605   2.707
 5195TIP3   OH215527   7.145   0.660   2.459
 5195TIP3    H115528   7.145   0.593   2.527
 5195TIP3    H215529   7.054   0.687   2.451
 5196TIP3   OH215530   6.786   3.083   1.381
 5196TIP3    H115531   6.756   3.128   1.302
 5196TIP3    H215532   6.725   3.111   1.449
 5197TIP3   OH215533   3.716   0.012   1.723
 5197TIP3    H115534   3.696  -0.078   1.750
 5197TIP3    H215535   3.631   0.054   1.712
 5198TIP3   OH215536   2.618   2.235   6.721
 5198TIP3    H115537   2.641   2.315   6.769
 5198TIP3    H215538   2.533   2.255   6.682
 5199TIP3   OH215539   7.263   6.590   6.247
 5199TIP3    H115540   7.271   6.644   6.326
 5199TIP3    H215541   7.182   6.620   6.206
 5200TIP3   OH215542   2.737   7.337   4.196
 5200TIP3    H115543   2.717   7.259   4.143
 5200TIP3    H215544   2.682   7.328   4.274
 5201TIP3   OH215545   6.557   4.349   0.648
 5201TIP3    H115546   6.612   4.386   0.717
 5201TIP3    H215547   6.618   4.329   0.577
 5202TIP3   OH215548   6.091   7.739   3.062
 5202TIP3    H115549   6.063   7.824   3.095
 5202TIP3    H215550   6.113   7.689   3.141
 5203TIP3   OH215551   3.453   0.873   5.055
 5203TIP3    H115552   3.542   0.872   5.089
 5203TIP3    H215553   3.447   0.796   4.999
 5204TIP3   OH215554   6.426   6.888   2.085
 5204TIP3    H115555   6.464   6.844   2.161
 5204TIP3    H215556   6.465   6.976   2.087
 5205TIP3   OH215557   3.392   6.227   5.555
 5205TIP3    H115558   3.414   6.311   5.597
 5205TIP3    H215559   3.469   6.208   5.500
 5206TIP3   OH215560   5.437   3.141   5.921
 5206TIP3    H115561   5.413   3.063   5.871
 5206TIP3    H215562   5.398   3.214   5.871
 5207TIP3   OH215563   2.270   5.526   2.095
 5207TIP3    H115564   2.279   5.580   2.174
 5207TIP3    H215565   2.227   5.583   2.032
 5208TIP3   OH215566   2.929   4.181   5.011
 5208TIP3    H115567   2.836   4.171   5.029
 5208TIP3    H215568   2.970   4.107   5.055
 5209TIP3   OH215569   7.415   1.820   3.146
 5209TIP3    H115570   7.465   1.865   3.078
 5209TIP3    H215571   7.424   1.875   3.224
 5210TIP3   OH215572   3.290   4.803   0.003
 5210TIP3    H115573   3.353   4.869  -0.025
 5210TIP3    H215574   3.342   4.740   0.053
 5211TIP3   OH215575   1.309   1.925   4.847
 5211TIP3    H115576   1.394   1.907   4.887
 5211TIP3    H215577   1.246   1.878   4.902
 5212TIP3   OH215578   7.564   6.000   6.417
 5212TIP3    H115579   7.629   5.974   6.352
 5212TIP3    H215580   7.550   6.093   6.401
 5213TIP3   OH215581   3.731   2.419   1.320
 5213TIP3    H115582   3.796   2.459   1.262
 5213TIP3    H215583   3.745   2.461   1.404
 5214TIP3   OH215584   1.379   1.782   2.532
 5214TIP3    H115585   1.436   1.756   2.604
 5214TIP3    H215586   1.295   1.741   2.551
 5215TIP3   OH215587   6.742   1.561   4.608
 5215TIP3    H115588   6.756   1.643   4.561
 5215TIP3    H215589   6.692   1.507   4.547
 5216TIP3   OH215590   6.068   3.295   4.545
 5216TIP3    H115591   6.036   3.229   4.607
 5216TIP3    H215592   5.989   3.340   4.515
 5217TIP3   OH215593   2.488   1.891   5.627
 5217TIP3    H115594   2.495   1.802   5.662
 5217TIP3    H215595   2.450   1.941   5.698
 5218TIP3   OH215596   3.947   4.984   3.043
 5218TIP3    H115597   3.885   4.925   3.000
 5218TIP3    H215598   3.976   5.043   2.973
 5219TIP3   OH215599   8.107   5.098   3.897
 5219TIP3    H115600   8.012   5.091   3.907
 5219TIP3    H215601   8.134   5.159   3.965
 5220TIP3   OH215602   5.585   2.005   2.901
 5220TIP3    H115603   5.555   2.075   2.959
 5220TIP3    H215604   5.533   1.928   2.928
 5221TIP3   OH215605   0.249   6.567   0.225
 5221TIP3    H115606   0.253   6.503   0.154
 5221TIP3    H215607   0.209   6.644   0.185
 5222TIP3   OH215608   7.685   4.182   3.030
 5222TIP3    H115609   7.756   4.119   3.038
 5222TIP3    H215610   7.638   4.156   2.950
 5223TIP3   OH215611   6.815   5.293   0.140
 5223TIP3    H115612   6.846   5.204   0.159
 5223TIP3    H215613   6.820   5.338   0.224
 5224TIP3   OH215614   3.012   2.576   0.225
 5224TIP3    H115615   2.964   2.562   0.306
 5224TIP3    H215616   2.959   2.638   0.175
 5225TIP3   OH215617   5.637   0.916   5.263
 5225TIP3    H115618   5.708   0.968   5.299
 5225TIP3    H215619   5.635   0.837   5.317
 5226TIP3   OH215620   7.199   1.178   3.103
 5226TIP3    H115621   7.121   1.232   3.116
 5226TIP3    H215622   7.173   1.114   3.038
 5227TIP3   OH215623   2.814   0.065   3.804
 5227TIP3    H115624   2.778   0.047   3.891
 5227TIP3    H215625   2.756   0.133   3.768
 5228TIP3   OH215626   3.659   1.825   1.699
 5228TIP3    H115627   3.568   1.825   1.670
 5228TIP3    H215628   3.672   1.911   1.739
 5229TIP3   OH215629   7.707   3.573   5.523
 5229TIP3    H115630   7.704   3.604   5.614
 5229TIP3    H215631   7.681   3.649   5.471
 5230TIP3   OH215632   5.386   4.429   5.739
 5230TIP3    H115633   5.445   4.375   5.792
 5230TIP3    H215634   5.304   4.430   5.788
 5231TIP3   OH215635   5.585   5.621   5.626
 5231TIP3    H115636   5.539   5.657   5.702
 5231TIP3    H215637   5.540   5.539   5.608
 5232TIP3   OH215638   3.094   3.797   5.026
 5232TIP3    H115639   3.018   3.854   5.036
 5232TIP3    H215640   3.071   3.717   5.074
 5233TIP3   OH215641   0.888   0.622   4.593
 5233TIP3    H115642   0.847   0.599   4.510
 5233TIP3    H215643   0.831   0.582   4.660
 5234TIP3   OH215644   7.318   4.022   1.726
 5234TIP3    H115645   7.273   3.968   1.662
 5234TIP3    H215646   7.250   4.079   1.762
 5235TIP3   OH215647   1.825   0.633   5.503
 5235TIP3    H115648   1.761   0.645   5.573
 5235TIP3    H215649   1.882   0.563   5.534
 5236TIP3   OH215650   4.142   5.678   4.761
 5236TIP3    H115651   4.122   5.630   4.681
 5236TIP3    H215652   4.237   5.670   4.770
 5237TIP3   OH215653   2.699   4.559   4.724
 5237TIP3    H115654   2.738   4.573   4.637
 5237TIP3    H215655   2.759   4.499   4.768
 5238TIP3   OH215656   2.456   0.952   5.497
 5238TIP3    H115657   2.445   1.021   5.432
 5238TIP3    H215658   2.402   0.978   5.571
 5239TIP3   OH215659   3.482   5.577   2.350
 5239TIP3    H115660   3.424   5.508   2.382
 5239TIP3    H215661   3.570   5.542   2.363
 5240TIP3   OH215662   8.177   4.457   5.365
 5240TIP3    H115663   8.240   4.528   5.372
 5240TIP3    H215664   8.215   4.398   5.300
 5241TIP3   OH215665   4.399   1.843   5.112
 5241TIP3    H115666   4.431   1.863   5.200
 5241TIP3    H215667   4.371   1.927   5.076
 5242TIP3   OH215668   7.940   0.636   5.188
 5242TIP3    H115669   7.966   0.640   5.096
 5242TIP3    H215670   7.987   0.561   5.223
 5243TIP3   OH215671   3.454   0.262   3.073
 5243TIP3    H115672   3.526   0.251   3.010
 5243TIP3    H215673   3.394   0.190   3.054
 5244TIP3   OH215674   1.142   1.202   6.140
 5244TIP3    H115675   1.192   1.177   6.217
 5244TIP3    H215676   1.089   1.124   6.120
 5245TIP3   OH215677   4.385   4.117   1.538
 5245TIP3    H115678   4.324   4.190   1.533
 5245TIP3    H215679   4.337   4.049   1.585
 5246TIP3   OH215680   1.443   0.383   1.593
 5246TIP3    H115681   1.358   0.348   1.620
 5246TIP3    H215682   1.459   0.455   1.654
 5247TIP3   OH215683   2.612   4.057   6.108
 5247TIP3    H115684   2.533   4.008   6.129
 5247TIP3    H215685   2.683   3.995   6.125
 5248TIP3   OH215686   5.251   4.742   2.608
 5248TIP3    H115687   5.226   4.673   2.546
 5248TIP3    H215688   5.335   4.712   2.644
 5249TIP3   OH215689   0.245   2.219   2.098
 5249TIP3    H115690   0.193   2.295   2.071
 5249TIP3    H215691   0.287   2.189   2.017
 5250TIP3   OH215692   6.045   2.441   1.333
 5250TIP3    H115693   6.120   2.414   1.385
 5250TIP3    H215694   6.059   2.534   1.318
 5251TIP3   OH215695   7.704   5.368   5.209
 5251TIP3    H115696   7.699   5.433   5.279
 5251TIP3    H215697   7.615   5.365   5.173
 5252TIP3   OH215698   2.391   1.667   4.931
 5252TIP3    H115699   2.443   1.611   4.989
 5252TIP3    H215700   2.453   1.697   4.864
 5253TIP3   OH215701   2.184   6.053   4.165
 5253TIP3    H115702   2.100   6.031   4.123
 5253TIP3    H215703   2.231   6.105   4.100
 5254TIP3   OH215704   4.569   2.577   1.136
 5254TIP3    H115705   4.583   2.671   1.135
 5254TIP3    H215706   4.584   2.550   1.045
 5255TIP3   OH215707   6.832   4.811   1.727
 5255TIP3    H115708   6.737   4.820   1.722
 5255TIP3    H215709   6.864   4.901   1.739
 5256TIP3   OH215710   1.631   0.651   5.675
 5256TIP3    H115711   1.549   0.692   5.646
 5256TIP3    H215712   1.607   0.602   5.753
 5257TIP3   OH215713   4.822   4.368   4.401
 5257TIP3    H115714   4.737   4.403   4.425
 5257TIP3    H215715   4.806   4.321   4.319
 5258TIP3   OH215716   4.320   0.890   1.500
 5258TIP3    H115717   4.276   0.944   1.566
 5258TIP3    H215718   4.399   0.858   1.544
 5259TIP3   OH215719   1.415   1.439   4.327
 5259TIP3    H115720   1.336   1.392   4.300
 5259TIP3    H215721   1.452   1.384   4.396
 5260TIP3   OH215722   7.685   4.028   0.285
 5260TIP3    H115723   7.705   3.938   0.258
 5260TIP3    H215724   7.700   4.081   0.207
 5261TIP3   OH215725   5.699   4.773   6.309
 5261TIP3    H115726   5.751   4.845   6.344
 5261TIP3    H215727   5.763   4.710   6.277
 5262TIP3   OH215728   6.571   3.093   2.394
 5262TIP3    H115729   6.530   3.019   2.350
 5262TIP3    H215730   6.645   3.055   2.441
 5263TIP3   OH215731   4.338   2.466   4.340
 5263TIP3    H115732   4.375   2.384   4.371
 5263TIP3    H215733   4.374   2.533   4.399
 5264TIP3   OH215734   1.161   2.981   1.991
 5264TIP3    H115735   1.202   3.037   2.056
 5264TIP3    H215736   1.225   2.912   1.974
 5265TIP3   OH215737   6.050   6.760   3.823
 5265TIP3    H115738   6.058   6.856   3.822
 5265TIP3    H215739   6.068   6.736   3.914
 5266TIP3   OH215740   3.266   0.437   5.648
 5266TIP3    H115741   3.301   0.473   5.729
 5266TIP3    H215742   3.200   0.374   5.676
 5267TIP3   OH215743   2.994   1.010   1.270
 5267TIP3    H115744   3.059   0.942   1.285
 5267TIP3    H215745   2.978   1.008   1.176
 5268TIP3   OH215746   4.930   4.997   0.497
 5268TIP3    H115747   5.012   4.987   0.545
 5268TIP3    H215748   4.906   4.908   0.472
 5269TIP3   OH215749   7.980   1.518   6.600
 5269TIP3    H115750   7.895   1.474   6.600
 5269TIP3    H215751   7.979   1.573   6.678
 5270TIP3   OH215752   7.886   1.249   1.741
 5270TIP3    H115753   7.858   1.296   1.662
 5270TIP3    H215754   7.825   1.278   1.809
 5271TIP3   OH215755   3.602   1.227   4.855
 5271TIP3    H115756   3.637   1.295   4.798
 5271TIP3    H215757   3.576   1.274   4.934
 5272TIP3   OH215758   0.073   6.557   3.694
 5272TIP3    H115759   0.134   6.565   3.768
 5272TIP3    H215760  -0.011   6.585   3.730
 5273TIP3   OH215761   4.086   3.078   5.689
 5273TIP3    H115762   4.161   3.127   5.724
 5273TIP3    H215763   4.120   2.989   5.678
 5274TIP3   OH215764   0.574   5.317   2.931
 5274TIP3    H115765   0.626   5.353   2.859
 5274TIP3    H215766   0.607   5.228   2.942
 5275TIP3   OH215767   6.207   7.064   2.211
 5275TIP3    H115768   6.132   7.093   2.159
 5275TIP3    H215769   6.248   6.996   2.157
 5276TIP3   OH215770   7.574   5.070   0.601
 5276TIP3    H115771   7.503   5.121   0.562
 5276TIP3    H215772   7.652   5.123   0.591
 5277TIP3   OH215773   2.301   2.271   4.862
 5277TIP3    H115774   2.246   2.272   4.941
 5277TIP3    H215775   2.318   2.178   4.846
 5278TIP3   OH215776   5.010   5.168   1.088
 5278TIP3    H115777   4.980   5.119   1.011
 5278TIP3    H215778   5.069   5.107   1.133
 5279TIP3   OH215779   0.228   3.802   1.660
 5279TIP3    H115780   0.136   3.779   1.673
 5279TIP3    H215781   0.227   3.877   1.601
 5280TIP3   OH215782   5.522   3.988   1.716
 5280TIP3    H115783   5.446   4.036   1.750
 5280TIP3    H215784   5.598   4.038   1.748
 5281TIP3   OH215785   2.666   6.341   4.933
 5281TIP3    H115786   2.637   6.384   5.014
 5281TIP3    H215787   2.585   6.326   4.884
 5282TIP3   OH215788   4.012   5.274   0.703
 5282TIP3    H115789   3.959   5.335   0.651
 5282TIP3    H215790   4.051   5.329   0.771
 5283TIP3   OH215791   8.025   7.717   1.656
 5283TIP3    H115792   8.054   7.632   1.689
 5283TIP3    H215793   8.054   7.780   1.721
 5284TIP3   OH215794   4.689   4.899   0.810
 5284TIP3    H115795   4.722   4.867   0.894
 5284TIP3    H215796   4.610   4.847   0.793
 5285TIP3   OH215797   2.393   3.945   2.654
 5285TIP3    H115798   2.370   4.003   2.727
 5285TIP3    H215799   2.360   3.859   2.680
 5286TIP3   OH215800   2.761   6.656   5.142
 5286TIP3    H115801   2.819   6.731   5.155
 5286TIP3    H215802   2.750   6.650   5.047
 5287TIP3   OH215803   3.195   1.224   1.675
 5287TIP3    H115804   3.142   1.240   1.597
 5287TIP3    H215805   3.259   1.295   1.676
 5288TIP3   OH215806   6.355   5.861   2.536
 5288TIP3    H115807   6.387   5.777   2.503
 5288TIP3    H215808   6.305   5.838   2.614
 5289TIP3   OH215809   5.773   1.014   0.930
 5289TIP3    H115810   5.711   0.943   0.944
 5289TIP3    H215811   5.838   0.978   0.869
 5290TIP3   OH215812   7.860   3.531   3.422
 5290TIP3    H115813   7.892   3.527   3.512
 5290TIP3    H215814   7.939   3.543   3.369
 5291TIP3   OH215815   2.479   2.172   4.228
 5291TIP3    H115816   2.434   2.109   4.284
 5291TIP3    H215817   2.549   2.207   4.283
 5292TIP3   OH215818   5.171   0.782   5.247
 5292TIP3    H115819   5.188   0.875   5.257
 5292TIP3    H215820   5.257   0.740   5.254
 5293TIP3   OH215821   3.376   6.948   4.597
 5293TIP3    H115822   3.459   6.950   4.646
 5293TIP3    H215823   3.312   6.983   4.659
 5294TIP3   OH215824   5.099   2.260   4.143
 5294TIP3    H115825   5.093   2.238   4.050
 5294TIP3    H215826   5.012   2.240   4.178
 5295TIP3   OH215827   1.744   0.079   5.871
 5295TIP3    H115828   1.781   0.007   5.922
 5295TIP3    H215829   1.746   0.154   5.931
 5296TIP3   OH215830   3.558   4.445   0.252
 5296TIP3    H115831   3.517   4.393   0.321
 5296TIP3    H215832   3.495   4.515   0.235
 5297TIP3   OH215833   1.868   3.599   0.393
 5297TIP3    H115834   1.781   3.635   0.374
 5297TIP3    H215835   1.865   3.510   0.359
 5298TIP3   OH215836   6.351   6.888   4.736
 5298TIP3    H115837   6.436   6.927   4.717
 5298TIP3    H215838   6.354   6.868   4.830
 5299TIP3   OH215839   1.414   6.226   4.042
 5299TIP3    H115840   1.445   6.253   4.128
 5299TIP3    H215841   1.320   6.245   4.043
 5300TIP3   OH215842   0.514   7.222   6.516
 5300TIP3    H115843   0.572   7.294   6.540
 5300TIP3    H215844   0.484   7.244   6.427
 5301TIP3   OH215845   1.675   0.664   1.623
 5301TIP3    H115846   1.726   0.584   1.638
 5301TIP3    H215847   1.611   0.665   1.695
 5302TIP3   OH215848   5.923   1.568   1.964
 5302TIP3    H115849   5.882   1.631   1.905
 5302TIP3    H215850   5.986   1.521   1.911
 5303TIP3   OH215851   2.354   7.299   3.696
 5303TIP3    H115852   2.311   7.291   3.611
 5303TIP3    H215853   2.430   7.355   3.679
 5304TIP3   OH215854   2.446   4.526   5.475
 5304TIP3    H115855   2.489   4.604   5.439
 5304TIP3    H215856   2.513   4.485   5.529
 5305TIP3   OH215857   4.429   5.853   4.642
 5305TIP3    H115858   4.446   5.925   4.704
 5305TIP3    H215859   4.425   5.895   4.557
 5306TIP3   OH215860   6.541   5.712   6.203
 5306TIP3    H115861   6.634   5.693   6.190
 5306TIP3    H215862   6.539   5.773   6.277
 5307TIP3   OH215863   2.951   5.487   5.990
 5307TIP3    H115864   2.928   5.498   6.082
 5307TIP3    H215865   3.042   5.515   5.985
 5308TIP3   OH215866   6.842   2.815   1.440
 5308TIP3    H115867   6.758   2.768   1.435
 5308TIP3    H215868   6.834   2.886   1.377
 5309TIP3   OH215869   2.496   1.068   6.597
 5309TIP3    H115870   2.437   1.052   6.670
 5309TIP3    H215871   2.558   1.133   6.630
 5310TIP3   OH215872   5.810   2.397   4.514
 5310TIP3    H115873   5.895   2.365   4.545
 5310TIP3    H215874   5.748   2.329   4.538
 5311TIP3   OH215875   4.483   5.215   2.296
 5311TIP3    H115876   4.452   5.294   2.252
 5311TIP3    H215877   4.566   5.195   2.253
 5312TIP3   OH215878   4.578   4.937   2.228
 5312TIP3    H115879   4.485   4.960   2.237
 5312TIP3    H215880   4.606   4.986   2.151
 5313TIP3   OH215881   4.633   6.429   1.986
 5313TIP3    H115882   4.587   6.387   2.059
 5313TIP3    H215883   4.642   6.521   2.013
 5314TIP3   OH215884   4.682   4.602   0.517
 5314TIP3    H115885   4.752   4.588   0.580
 5314TIP3    H215886   4.709   4.680   0.469
 5315TIP3   OH215887   4.513   3.480   2.669
 5315TIP3    H115888   4.451   3.488   2.741
 5315TIP3    H215889   4.512   3.565   2.626
 5316TIP3   OH215890   6.335   6.198   2.802
 5316TIP3    H115891   6.337   6.211   2.897
 5316TIP3    H215892   6.245   6.172   2.783
 5317TIP3   OH215893   2.391   4.999   2.995
 5317TIP3    H115894   2.358   4.945   3.067
 5317TIP3    H215895   2.484   5.011   3.015
 5318TIP3   OH215896   1.783   7.698   0.175
 5318TIP3    H115897   1.824   7.756   0.111
 5318TIP3    H215898   1.699   7.674   0.135
 5319TIP3   OH215899   2.328   5.424   5.131
 5319TIP3    H115900   2.258   5.359   5.126
 5319TIP3    H215901   2.313   5.481   5.055
 5320TIP3   OH215902   8.001   2.848   1.289
 5320TIP3    H115903   7.927   2.871   1.346
 5320TIP3    H215904   8.074   2.898   1.324
 5321TIP3   OH215905   0.424   0.857   6.522
 5321TIP3    H115906   0.465   0.842   6.607
 5321TIP3    H215907   0.334   0.827   6.532
 5322TIP3   OH215908   2.196   0.702   3.401
 5322TIP3    H115909   2.181   0.607   3.395
 5322TIP3    H215910   2.119   0.736   3.447
 5323TIP3   OH215911   1.793   1.342   2.028
 5323TIP3    H115912   1.832   1.294   1.955
 5323TIP3    H215913   1.724   1.284   2.061
 5324TIP3   OH215914   1.810   5.598   5.984
 5324TIP3    H115915   1.787   5.522   6.037
 5324TIP3    H215916   1.892   5.630   6.022
 5325TIP3   OH215917   4.963   0.534   3.339
 5325TIP3    H115918   4.978   0.514   3.247
 5325TIP3    H215919   4.872   0.507   3.355
 5326TIP3   OH215920   4.182   7.608   3.665
 5326TIP3    H115921   4.181   7.685   3.609
 5326TIP3    H215922   4.235   7.544   3.618
 5327TIP3   OH215923   5.153   1.057   1.854
 5327TIP3    H115924   5.058   1.068   1.850
 5327TIP3    H215925   5.177   1.086   1.942
 5328TIP3   OH215926   8.223   2.160   1.148
 5328TIP3    H115927   8.142   2.127   1.186
 5328TIP3    H215928   8.264   2.084   1.106
 5329TIP3   OH215929   0.782   6.186   3.360
 5329TIP3    H115930   0.830   6.116   3.316
 5329TIP3    H215931   0.850   6.240   3.402
 5330TIP3   OH215932   4.665   4.272   1.154
 5330TIP3    H115933   4.645   4.310   1.240
 5330TIP3    H215934   4.606   4.196   1.147
 5331TIP3   OH215935   4.268   3.271   3.964
 5331TIP3    H115936   4.329   3.267   4.038
 5331TIP3    H215937   4.224   3.186   3.964
 5332TIP3   OH215938   3.405   5.250   4.887
 5332TIP3    H115939   3.441   5.277   4.971
 5332TIP3    H215940   3.314   5.228   4.906
 5333TIP3   OH215941   4.773   3.400   5.353
 5333TIP3    H115942   4.777   3.487   5.313
 5333TIP3    H215943   4.728   3.414   5.437
 5334TIP3   OH215944   2.167   2.687   4.490
 5334TIP3    H115945   2.243   2.694   4.433
 5334TIP3    H215946   2.179   2.605   4.538
 5335TIP3   OH215947   7.938   4.942   6.290
 5335TIP3    H115948   7.890   4.928   6.372
 5335TIP3    H215949   7.874   4.985   6.233
 5336TIP3   OH215950   5.785   6.731   4.556
 5336TIP3    H115951   5.775   6.645   4.597
 5336TIP3    H215952   5.766   6.717   4.463
 5337TIP3   OH215953   0.092   6.601   3.422
 5337TIP3    H115954  -0.003   6.613   3.413
 5337TIP3    H215955   0.107   6.599   3.517
 5338TIP3   OH215956   5.923   0.245   4.214
 5338TIP3    H115957   5.924   0.154   4.245
 5338TIP3    H215958   5.999   0.251   4.157
 5339TIP3   OH215959   0.109   2.007   2.255
 5339TIP3    H115960   0.161   2.074   2.211
 5339TIP3    H215961   0.173   1.939   2.280
 5340TIP3   OH215962   5.576   1.429   6.566
 5340TIP3    H115963   5.538   1.391   6.487
 5340TIP3    H215964   5.500   1.448   6.622
 5341TIP3   OH215965   1.260   0.914   3.917
 5341TIP3    H115966   1.211   0.834   3.939
 5341TIP3    H215967   1.253   0.921   3.822
 5342TIP3   OH215968   5.615   6.239   4.233
 5342TIP3    H115969   5.648   6.257   4.320
 5342TIP3    H215970   5.693   6.232   4.178
 5343TIP3   OH215971   2.222   5.488   3.303
 5343TIP3    H115972   2.230   5.421   3.236
 5343TIP3    H215973   2.142   5.536   3.280
 5344TIP3   OH215974   1.564   1.732   0.553
 5344TIP3    H115975   1.496   1.670   0.581
 5344TIP3    H215976   1.641   1.707   0.604
 5345TIP3   OH215977   3.333   6.709   6.494
 5345TIP3    H115978   3.327   6.754   6.409
 5345TIP3    H215979   3.387   6.632   6.477
 5346TIP3   OH215980   7.815   0.956   5.959
 5346TIP3    H115981   7.820   0.885   6.023
 5346TIP3    H215982   7.845   1.034   6.006
 5347TIP3   OH215983   5.505   2.409   2.799
 5347TIP3    H115984   5.564   2.438   2.730
 5347TIP3    H215985   5.439   2.356   2.754
 5348TIP3   OH215986   4.537   3.339   6.590
 5348TIP3    H115987   4.589   3.273   6.544
 5348TIP3    H215988   4.601   3.404   6.618
 5349TIP3   OH215989   5.433   1.730   1.007
 5349TIP3    H115990   5.353   1.779   0.986
 5349TIP3    H215991   5.472   1.710   0.921
 5350TIP3   OH215992   3.195   7.075   5.573
 5350TIP3    H115993   3.189   7.034   5.659
 5350TIP3    H215994   3.170   7.006   5.511
 5351TIP3   OH215995   1.324   3.233   1.136
 5351TIP3    H115996   1.276   3.188   1.205
 5351TIP3    H215997   1.258   3.256   1.071
 5352TIP3   OH215998   6.865   4.706   2.332
 5352TIP3    H115999   6.870   4.737   2.423
 5352TIP3    H216000   6.940   4.745   2.289
 5353TIP3   OH216001   4.328   3.498   2.864
 5353TIP3    H116002   4.268   3.425   2.878
 5353TIP3    H216003   4.375   3.508   2.947
 5354TIP3   OH216004   7.624   1.374   5.483
 5354TIP3    H116005   7.672   1.293   5.497
 5354TIP3    H216006   7.631   1.392   5.390
 5355TIP3   OH216007   6.755   6.731   0.180
 5355TIP3    H116008   6.706   6.668   0.233
 5355TIP3    H216009   6.787   6.795   0.243
 5356TIP3   OH216010   5.205   2.473   5.848
 5356TIP3    H116011   5.242   2.547   5.896
 5356TIP3    H216012   5.213   2.498   5.756
 5357TIP3   OH216013   4.224   6.964   5.677
 5357TIP3    H116014   4.186   6.891   5.628
 5357TIP3    H216015   4.242   7.030   5.611
 5358TIP3   OH216016   2.517   4.245   0.460
 5358TIP3    H116017   2.514   4.341   0.458
 5358TIP3    H216018   2.563   4.221   0.379
 5359TIP3   OH216019   6.848   1.948   5.022
 5359TIP3    H116020   6.855   1.853   5.024
 5359TIP3    H216021   6.842   1.970   4.929
 5360TIP3   OH216022   6.620   7.435   4.135
 5360TIP3    H116023   6.645   7.382   4.059
 5360TIP3    H216024   6.693   7.426   4.196
 5361TIP3   OH216025   5.322   3.280   1.292
 5361TIP3    H116026   5.367   3.212   1.242
 5361TIP3    H216027   5.241   3.297   1.244
 5362TIP3   OH216028   1.083   6.413   0.189
 5362TIP3    H116029   1.137   6.450   0.119
 5362TIP3    H216030   1.133   6.338   0.221
 5363TIP3   OH216031   5.767   2.061   3.326
 5363TIP3    H116032   5.719   2.138   3.297
 5363TIP3    H216033   5.713   1.987   3.297
 5364TIP3   OH216034   5.567   0.398   6.205
 5364TIP3    H116035   5.614   0.407   6.288
 5364TIP3    H216036   5.627   0.433   6.139
 5365TIP3   OH216037   3.330   4.422   5.804
 5365TIP3    H116038   3.260   4.440   5.741
 5365TIP3    H216039   3.410   4.442   5.756
 5366TIP3   OH216040   2.323   2.465   6.565
 5366TIP3    H116041   2.391   2.471   6.498
 5366TIP3    H216042   2.241   2.486   6.519
 5367TIP3   OH216043   1.000   6.394   1.916
 5367TIP3    H116044   0.983   6.307   1.881
 5367TIP3    H216045   1.028   6.446   1.840
 5368TIP3   OH216046   7.937   0.307   4.812
 5368TIP3    H116047   7.964   0.397   4.831
 5368TIP3    H216048   7.847   0.302   4.846
 5369TIP3   OH216049   0.944   7.756   5.521
 5369TIP3    H116050   0.867   7.734   5.469
 5369TIP3    H216051   1.006   7.793   5.458
 5370TIP3   OH216052   4.816   6.235   6.434
 5370TIP3    H116053   4.771   6.193   6.507
 5370TIP3    H216054   4.808   6.173   6.362
 5371TIP3   OH216055   4.306   4.313   2.630
 5371TIP3    H116056   4.303   4.336   2.537
 5371TIP3    H216057   4.391   4.344   2.660
 5372TIP3   OH216058   6.188   5.599   0.236
 5372TIP3    H116059   6.209   5.661   0.305
 5372TIP3    H216060   6.117   5.545   0.272
 5373TIP3   OH216061   4.322   3.912   4.844
 5373TIP3    H116062   4.316   3.847   4.914
 5373TIP3    H216063   4.283   3.990   4.882
 5374TIP3   OH216064   5.307   6.645   6.731
 5374TIP3    H116065   5.237   6.705   6.704
 5374TIP3    H216066   5.350   6.620   6.650
 5375TIP3   OH216067   4.431  -0.019   4.158
 5375TIP3    H116068   4.494  -0.041   4.089
 5375TIP3    H216069   4.417   0.075   4.149
 5376TIP3   OH216070   2.782   4.284   4.202
 5376TIP3    H116071   2.707   4.343   4.203
 5376TIP3    H216072   2.858   4.342   4.210
 5377TIP3   OH216073  -0.017   4.295   4.396
 5377TIP3    H116074   0.071   4.327   4.376
 5377TIP3    H216075  -0.044   4.247   4.318
 5378TIP3   OH216076   5.251   4.954   1.773
 5378TIP3    H116077   5.196   4.883   1.806
 5378TIP3    H216078   5.303   4.914   1.703
 5379TIP3   OH216079   3.725   5.754   2.300
 5379TIP3    H116080   3.741   5.770   2.207
 5379TIP3    H216081   3.642   5.707   2.303
 5380TIP3   OH216082   5.629   5.168   4.547
 5380TIP3    H116083   5.633   5.100   4.480
 5380TIP3    H216084   5.553   5.222   4.522
 5381TIP3   OH216085   6.246   6.744   6.503
 5381TIP3    H116086   6.193   6.712   6.429
 5381TIP3    H216087   6.336   6.738   6.472
 5382TIP3   OH216088   0.310   7.290   0.714
 5382TIP3    H116089   0.225   7.333   0.708
 5382TIP3    H216090   0.310   7.247   0.799
 5383TIP3   OH216091   4.916   6.328   0.211
 5383TIP3    H116092   5.007   6.317   0.237
 5383TIP3    H216093   4.871   6.358   0.289
 5384TIP3   OH216094   2.887   0.992   0.396
 5384TIP3    H116095   2.896   0.897   0.408
 5384TIP3    H216096   2.818   1.002   0.331
 5385TIP3   OH216097   5.908   1.563   4.821
 5385TIP3    H116098   5.904   1.487   4.880
 5385TIP3    H216099   5.869   1.533   4.739
 5386TIP3   OH216100   0.895   2.542   2.885
 5386TIP3    H116101   0.806   2.551   2.920
 5386TIP3    H216102   0.893   2.591   2.802
 5387TIP3   OH216103   4.026   0.725   2.263
 5387TIP3    H116104   4.060   0.772   2.339
 5387TIP3    H216105   3.977   0.652   2.300
 5388TIP3   OH216106   0.252   1.763   5.424
 5388TIP3    H116107   0.270   1.724   5.339
 5388TIP3    H216108   0.336   1.760   5.470
 5389TIP3   OH216109   6.552   2.505   2.440
 5389TIP3    H116110   6.625   2.446   2.457
 5389TIP3    H216111   6.592   2.592   2.437
 5390TIP3   OH216112   6.933   0.531   5.157
 5390TIP3    H116113   6.905   0.617   5.189
 5390TIP3    H216114   6.940   0.477   5.235
 5391TIP3   OH216115   7.217   5.475   4.182
 5391TIP3    H116116   7.135   5.500   4.139
 5391TIP3    H216117   7.236   5.547   4.242
 5392TIP3   OH216118   4.866   4.040   3.637
 5392TIP3    H116119   4.864   3.983   3.560
 5392TIP3    H216120   4.830   4.123   3.606
 5393TIP3   OH216121   4.445   0.442   0.680
 5393TIP3    H116122   4.448   0.373   0.613
 5393TIP3    H216123   4.365   0.423   0.729
 5394TIP3   OH216124   4.772   4.278   4.159
 5394TIP3    H116125   4.771   4.366   4.120
 5394TIP3    H216126   4.680   4.255   4.168
 5395TIP3   OH216127   6.602   0.631   6.424
 5395TIP3    H116128   6.587   0.570   6.495
 5395TIP3    H216129   6.527   0.619   6.365
 5396TIP3   OH216130   2.093   4.904   3.751
 5396TIP3    H116131   2.148   4.841   3.798
 5396TIP3    H216132   2.149   4.981   3.741
 5397TIP3   OH216133   0.718   1.811   3.997
 5397TIP3    H116134   0.754   1.723   3.987
 5397TIP3    H216135   0.671   1.828   3.914
 5398TIP3   OH216136   4.363   1.087   6.372
 5398TIP3    H116137   4.441   1.142   6.383
 5398TIP3    H216138   4.311   1.131   6.306
 5399TIP3   OH216139   7.123   4.479   5.251
 5399TIP3    H116140   7.046   4.425   5.235
 5399TIP3    H216141   7.131   4.483   5.346
 5400TIP3   OH216142   6.666   7.050   3.496
 5400TIP3    H116143   6.659   7.090   3.409
 5400TIP3    H216144   6.575   7.028   3.519
 5401TIP3   OH216145   4.595   6.958  -0.020
 5401TIP3    H116146   4.621   7.049  -0.035
 5401TIP3    H216147   4.507   6.952  -0.056
 5402TIP3   OH216148   1.530   6.895   6.043
 5402TIP3    H116149   1.491   6.893   6.130
 5402TIP3    H216150   1.614   6.940   6.055
 5403TIP3   OH216151   7.279   4.630   3.558
 5403TIP3    H116152   7.297   4.723   3.562
 5403TIP3    H216153   7.215   4.620   3.488
 5404TIP3   OH216154   5.523   4.490   4.544
 5404TIP3    H116155   5.582   4.477   4.618
 5404TIP3    H216156   5.513   4.586   4.538
 5405TIP3   OH216157   2.009   1.480   2.246
 5405TIP3    H116158   2.024   1.487   2.340
 5405TIP3    H216159   1.958   1.558   2.224
 5406TIP3   OH216160   2.602   3.956   1.540
 5406TIP3    H116161   2.633   3.875   1.582
 5406TIP3    H216162   2.643   3.955   1.454
 5407TIP3   OH216163   5.689   2.615   1.428
 5407TIP3    H116164   5.735   2.607   1.344
 5407TIP3    H216165   5.597   2.619   1.404
 5408TIP3   OH216166   6.359   4.615   4.286
 5408TIP3    H116167   6.301   4.691   4.278
 5408TIP3    H216168   6.403   4.609   4.202
 5409TIP3   OH216169   8.092   5.167   6.289
 5409TIP3    H116170   8.048   5.088   6.321
 5409TIP3    H216171   8.045   5.240   6.328
 5410TIP3   OH216172   3.393   2.916   3.745
 5410TIP3    H116173   3.424   2.833   3.780
 5410TIP3    H216174   3.347   2.957   3.819
 5411TIP3   OH216175   7.632   4.253   4.167
 5411TIP3    H116176   7.725   4.240   4.152
 5411TIP3    H216177   7.604   4.175   4.215
 5412TIP3   OH216178   1.699   4.064   5.169
 5412TIP3    H116179   1.610   4.088   5.193
 5412TIP3    H216180   1.690   3.984   5.117
 5413TIP3   OH216181   0.381   0.255   0.676
 5413TIP3    H116182   0.458   0.222   0.630
 5413TIP3    H216183   0.310   0.198   0.646
 5414TIP3   OH216184   4.342   5.076   4.330
 5414TIP3    H116185   4.300   4.997   4.362
 5414TIP3    H216186   4.278   5.116   4.270
 5415TIP3   OH216187   5.995   7.303   0.048
 5415TIP3    H116188   5.971   7.357  -0.027
 5415TIP3    H216189   5.935   7.228   0.043
 5416TIP3   OH216190   4.020   7.674   1.545
 5416TIP3    H116191   4.112   7.694   1.530
 5416TIP3    H216192   3.983   7.661   1.457
 5417TIP3   OH216193   0.633   4.705   3.042
 5417TIP3    H116194   0.549   4.728   3.082
 5417TIP3    H216195   0.696   4.715   3.112
 5418TIP3   OH216196   6.793   5.863   6.637
 5418TIP3    H116197   6.843   5.813   6.701
 5418TIP3    H216198   6.852   5.872   6.562
 5419TIP3   OH216199   0.234   5.075   5.506
 5419TIP3    H116200   0.198   5.121   5.430
 5419TIP3    H216201   0.323   5.053   5.481
 5420TIP3   OH216202   8.134   2.267   0.796
 5420TIP3    H116203   8.092   2.183   0.814
 5420TIP3    H216204   8.116   2.321   0.873
 5421TIP3   OH216205   2.652   7.442   1.209
 5421TIP3    H116206   2.617   7.495   1.280
 5421TIP3    H216207   2.593   7.459   1.135
 5422TIP3   OH216208   6.236   1.905   2.017
 5422TIP3    H116209   6.149   1.878   1.987
 5422TIP3    H216210   6.288   1.824   2.013
 5423TIP3   OH216211   7.663   5.194   2.921
 5423TIP3    H116212   7.657   5.113   2.973
 5423TIP3    H216213   7.590   5.247   2.952
 5424TIP3   OH216214   4.738   1.844   6.606
 5424TIP3    H116215   4.734   1.754   6.574
 5424TIP3    H216216   4.724   1.898   6.529
 5425TIP3   OH216217   1.590   4.730   5.085
 5425TIP3    H116218   1.601   4.661   5.150
 5425TIP3    H216219   1.627   4.693   5.004
 5426TIP3   OH216220   1.708   3.241   6.454
 5426TIP3    H116221   1.669   3.256   6.540
 5426TIP3    H216222   1.766   3.316   6.441
 5427TIP3   OH216223   3.450   4.969   0.631
 5427TIP3    H116224   3.408   4.994   0.713
 5427TIP3    H216225   3.380   4.929   0.579
 5428TIP3   OH216226   5.119   4.557   1.268
 5428TIP3    H116227   5.133   4.470   1.306
 5428TIP3    H216228   5.034   4.584   1.303
 5429TIP3   OH216229   2.688   7.084   0.750
 5429TIP3    H116230   2.704   6.990   0.757
 5429TIP3    H216231   2.774   7.123   0.738
 5430TIP3   OH216232   0.322   3.817   1.344
 5430TIP3    H116233   0.250   3.762   1.314
 5430TIP3    H216234   0.309   3.901   1.299
 5431TIP3   OH216235   0.906   6.211   5.676
 5431TIP3    H116236   0.952   6.131   5.652
 5431TIP3    H216237   0.970   6.281   5.663
 5432TIP3   OH216238   5.692   2.302   6.319
 5432TIP3    H116239   5.670   2.289   6.227
 5432TIP3    H216240   5.609   2.326   6.361
 5433TIP3   OH216241   3.486   1.711   2.242
 5433TIP3    H116242   3.454   1.621   2.247
 5433TIP3    H216243   3.432   1.760   2.304
 5434TIP3   OH216244   4.634   6.767   3.818
 5434TIP3    H116245   4.686   6.773   3.738
 5434TIP3    H216246   4.697   6.777   3.889
 5435TIP3   OH216247   0.658   4.046   5.433
 5435TIP3    H116248   0.695   4.051   5.521
 5435TIP3    H216249   0.575   4.093   5.439
 5436TIP3   OH216250   3.090   1.728   3.002
 5436TIP3    H116251   3.183   1.710   2.990
 5436TIP3    H216252   3.085   1.777   3.084
 5437TIP3   OH216253   6.911   2.175   3.960
 5437TIP3    H116254   6.865   2.107   4.010
 5437TIP3    H216255   6.841   2.224   3.917
 5438TIP3   OH216256   3.340   1.111   2.498
 5438TIP3    H116257   3.248   1.123   2.524
 5438TIP3    H216258   3.336   1.085   2.406
 5439TIP3   OH216259   0.948   3.626   0.221
 5439TIP3    H116260   0.964   3.542   0.178
 5439TIP3    H216261   0.927   3.686   0.150
 5440TIP3   OH216262   2.498   5.266   5.376
 5440TIP3    H116263   2.475   5.219   5.296
 5440TIP3    H216264   2.419   5.315   5.398
 5441TIP3   OH216265   3.873   2.609   0.429
 5441TIP3    H116266   3.941   2.663   0.390
 5441TIP3    H216267   3.791   2.655   0.411
 5442TIP3   OH216268   3.962   3.134   4.315
 5442TIP3    H116269   4.052   3.123   4.284
 5442TIP3    H216270   3.970   3.137   4.410
 5443TIP3   OH216271   2.729   5.321   3.682
 5443TIP3    H116272   2.643   5.327   3.640
 5443TIP3    H216273   2.713   5.344   3.773
 5444TIP3   OH216274   8.132   0.798   5.468
 5444TIP3    H116275   8.109   0.847   5.389
 5444TIP3    H216276   8.180   0.861   5.522
 5445TIP3   OH216277   7.295   7.210   3.749
 5445TIP3    H116278   7.263   7.138   3.695
 5445TIP3    H216279   7.372   7.243   3.702
 5446TIP3   OH216280   2.624   7.728   5.449
 5446TIP3    H116281   2.557   7.770   5.502
 5446TIP3    H216282   2.584   7.720   5.362
 5447TIP3   OH216283   3.167   3.957   2.242
 5447TIP3    H116284   3.170   3.863   2.226
 5447TIP3    H216285   3.248   3.976   2.289
 5448TIP3   OH216286   0.356   0.201   2.849
 5448TIP3    H116287   0.298   0.244   2.785
 5448TIP3    H216288   0.299   0.138   2.894
 5449TIP3   OH216289   2.906   0.206   2.776
 5449TIP3    H116290   2.813   0.218   2.756
 5449TIP3    H216291   2.952   0.243   2.700
 5450TIP3   OH216292   0.443   0.804   1.572
 5450TIP3    H116293   0.428   0.887   1.527
 5450TIP3    H216294   0.402   0.738   1.516
 5451TIP3   OH216295   2.626   0.714   3.566
 5451TIP3    H116296   2.591   0.640   3.617
 5451TIP3    H216297   2.552   0.774   3.557
 5452TIP3   OH216298   6.501   0.199   2.202
 5452TIP3    H116299   6.466   0.135   2.140
 5452TIP3    H216300   6.513   0.149   2.283
 5453TIP3   OH216301   6.701   1.616   1.707
 5453TIP3    H116302   6.760   1.679   1.665
 5453TIP3    H216303   6.646   1.670   1.764
 5454TIP3   OH216304   1.919   6.496   1.944
 5454TIP3    H116305   1.888   6.473   1.856
 5454TIP3    H216306   1.911   6.415   1.994
 5455TIP3   OH216307   0.568   4.105   4.663
 5455TIP3    H116308   0.519   4.126   4.743
 5455TIP3    H216309   0.501   4.089   4.597
 5456TIP3   OH216310   7.883   7.014   3.317
 5456TIP3    H116311   7.868   7.085   3.379
 5456TIP3    H216312   7.905   7.057   3.235
 5457TIP3   OH216313   0.267   2.874   3.634
 5457TIP3    H116314   0.183   2.845   3.671
 5457TIP3    H216315   0.248   2.960   3.598
 5458TIP3   OH216316   1.240   0.889   0.869
 5458TIP3    H116317   1.224   0.949   0.796
 5458TIP3    H216318   1.334   0.870   0.864
 5459TIP3   OH216319   5.704   0.083   5.988
 5459TIP3    H116320   5.713   0.027   6.065
 5459TIP3    H216321   5.609   0.090   5.975
 5460TIP3   OH216322   4.720   1.876   4.528
 5460TIP3    H116323   4.769   1.958   4.533
 5460TIP3    H216324   4.630   1.904   4.509
 5461TIP3   OH216325   0.786   0.290   0.761
 5461TIP3    H116326   0.759   0.353   0.695
 5461TIP3    H216327   0.875   0.265   0.736
 5462TIP3   OH216328   0.096   4.570   6.246
 5462TIP3    H116329   0.159   4.546   6.314
 5462TIP3    H216330   0.029   4.501   6.251
 5463TIP3   OH216331   4.325   4.649   4.986
 5463TIP3    H116332   4.334   4.685   4.898
 5463TIP3    H216333   4.233   4.624   4.992
 5464TIP3   OH216334   3.784   5.105   6.662
 5464TIP3    H116335   3.714   5.056   6.619
 5464TIP3    H216336   3.847   5.122   6.593
 5465TIP3   OH216337   6.990   5.643   0.099
 5465TIP3    H116338   6.916   5.586   0.074
 5465TIP3    H216339   6.980   5.720   0.043
 5466TIP3   OH216340   1.959   6.927   4.757
 5466TIP3    H116341   1.926   6.838   4.767
 5466TIP3    H216342   2.008   6.944   4.838
 5467TIP3   OH216343   1.132   3.784   2.285
 5467TIP3    H116344   1.182   3.859   2.319
 5467TIP3    H216345   1.146   3.716   2.351
 5468TIP3   OH216346   4.606   5.845   6.280
 5468TIP3    H116347   4.524   5.892   6.289
 5468TIP3    H216348   4.607   5.784   6.354
 5469TIP3   OH216349   7.441   7.447   1.834
 5469TIP3    H116350   7.481   7.390   1.900
 5469TIP3    H216351   7.417   7.527   1.882
 5470TIP3   OH216352   6.482   3.359   6.680
 5470TIP3    H116353   6.427   3.387   6.606
 5470TIP3    H216354   6.480   3.433   6.741
 5471TIP3   OH216355   1.243   4.944   1.033
 5471TIP3    H116356   1.262   4.979   0.945
 5471TIP3    H216357   1.158   4.980   1.055
 5472TIP3   OH216358   7.630   4.018   0.642
 5472TIP3    H116359   7.629   3.944   0.703
 5472TIP3    H216360   7.563   3.997   0.577
 5473TIP3   OH216361   6.822   7.339   4.298
 5473TIP3    H116362   6.885   7.400   4.260
 5473TIP3    H216363   6.869   7.256   4.303
 5474TIP3   OH216364   3.700   0.163   2.015
 5474TIP3    H116365   3.633   0.145   2.081
 5474TIP3    H216366   3.782   0.134   2.055
 5475TIP3   OH216367   4.671   1.634   0.941
 5475TIP3    H116368   4.661   1.539   0.931
 5475TIP3    H216369   4.616   1.671   0.873
 5476TIP3   OH216370   7.752   2.767   3.205
 5476TIP3    H116371   7.792   2.695   3.157
 5476TIP3    H216372   7.821   2.799   3.263
 5477TIP3   OH216373   7.932   0.406   4.433
 5477TIP3    H116374   8.023   0.400   4.404
 5477TIP3    H216375   7.923   0.338   4.500
 5478TIP3   OH216376   2.379   4.522   3.494
 5478TIP3    H116377   2.408   4.613   3.493
 5478TIP3    H216378   2.442   4.475   3.440
 5479TIP3   OH216379   3.686   3.714   0.340
 5479TIP3    H116380   3.648   3.799   0.318
 5479TIP3    H216381   3.728   3.728   0.425
 5480TIP3   OH216382   6.928   7.795   3.421
 5480TIP3    H116383   6.988   7.735   3.377
 5480TIP3    H216384   6.850   7.796   3.364
 5481TIP3   OH216385   6.237   5.411   2.889
 5481TIP3    H116386   6.324   5.425   2.852
 5481TIP3    H216387   6.202   5.337   2.840
 5482TIP3   OH216388   6.013   6.470   6.645
 5482TIP3    H116389   6.065   6.538   6.602
 5482TIP3    H216390   5.985   6.413   6.574
 5483TIP3   OH216391   0.015   4.200   4.136
 5483TIP3    H116392  -0.008   4.218   4.045
 5483TIP3    H216393   0.023   4.105   4.141
 5484TIP3   OH216394   5.375   6.439   2.849
 5484TIP3    H116395   5.303   6.436   2.787
 5484TIP3    H216396   5.382   6.531   2.875
 5485TIP3   OH216397   1.664   3.354   6.741
 5485TIP3    H116398   1.661   3.342   6.836
 5485TIP3    H216399   1.721   3.430   6.728
 5486TIP3   OH216400   5.508   4.055   1.456
 5486TIP3    H116401   5.526   3.997   1.530
 5486TIP3    H216402   5.442   4.116   1.489
 5487TIP3   OH216403   2.840   4.650   0.871
 5487TIP3    H116404   2.807   4.581   0.927
 5487TIP3    H216405   2.802   4.632   0.785
 5488TIP3   OH216406   0.617   5.535   0.385
 5488TIP3    H116407   0.609   5.625   0.417
 5488TIP3    H216408   0.701   5.504   0.419
 5489TIP3   OH216409   0.887   3.248   4.008
 5489TIP3    H116410   0.858   3.313   3.944
 5489TIP3    H216411   0.810   3.234   4.064
 5490TIP3   OH216412   4.924   4.671   2.404
 5490TIP3    H116413   4.972   4.589   2.390
 5490TIP3    H216414   4.967   4.735   2.348
 5491TIP3   OH216415   0.598   0.579   3.860
 5491TIP3    H116416   0.541   0.530   3.801
 5491TIP3    H216417   0.542   0.604   3.933
 5492TIP3   OH216418   1.864   0.561   3.905
 5492TIP3    H116419   1.775   0.597   3.907
 5492TIP3    H216420   1.916   0.623   3.958
 5493TIP3   OH216421   0.869   1.987   5.982
 5493TIP3    H116422   0.941   1.990   5.920
 5493TIP3    H216423   0.822   1.905   5.961
 5494TIP3   OH216424   7.776   1.907   1.818
 5494TIP3    H116425   7.774   1.901   1.722
 5494TIP3    H216426   7.793   1.817   1.847
 5495TIP3   OH216427   6.682   5.780   4.018
 5495TIP3    H116428   6.694   5.688   4.043
 5495TIP3    H216429   6.596   5.782   3.976
 5496TIP3   OH216430   0.878   4.306   5.283
 5496TIP3    H116431   0.910   4.225   5.243
 5496TIP3    H216432   0.788   4.286   5.309
 5497TIP3   OH216433   4.458   2.710   3.591
 5497TIP3    H116434   4.527   2.713   3.658
 5497TIP3    H216435   4.436   2.801   3.574
 5498TIP3   OH216436   7.390   2.324   1.308
 5498TIP3    H116437   7.408   2.376   1.230
 5498TIP3    H216438   7.448   2.360   1.375
 5499TIP3   OH216439   0.364   3.787   6.774
 5499TIP3    H116440   0.412   3.735   6.709
 5499TIP3    H216441   0.343   3.724   6.843
 5500TIP3   OH216442   5.082   5.608   4.105
 5500TIP3    H116443   5.159   5.664   4.107
 5500TIP3    H216444   5.008   5.669   4.099
 5501TIP3   OH216445   7.132   3.148   1.033
 5501TIP3    H116446   7.126   3.082   1.102
 5501TIP3    H216447   7.066   3.121   0.969
 5502TIP3   OH216448   8.346   0.315   5.065
 5502TIP3    H116449   8.260   0.340   5.097
 5502TIP3    H216450   8.378   0.252   5.129
 5503TIP3   OH216451   4.257   3.291   4.856
 5503TIP3    H116452   4.309   3.335   4.788
 5503TIP3    H216453   4.221   3.362   4.908
 5504TIP3   OH216454   7.160   6.225   3.363
 5504TIP3    H116455   7.140   6.234   3.269
 5504TIP3    H216456   7.084   6.262   3.407
 5505TIP3   OH216457   0.229   4.438   6.486
 5505TIP3    H116458   0.170   4.365   6.505
 5505TIP3    H216459   0.251   4.475   6.571
 5506TIP3   OH216460   4.667   3.331   3.154
 5506TIP3    H116461   4.611   3.399   3.191
 5506TIP3    H216462   4.751   3.343   3.198
 5507TIP3   OH216463   3.680   6.814   1.895
 5507TIP3    H116464   3.761   6.811   1.844
 5507TIP3    H216465   3.698   6.759   1.971
 5508TIP3   OH216466   3.203   6.601   1.614
 5508TIP3    H116467   3.246   6.583   1.697
 5508TIP3    H216468   3.109   6.593   1.633
 5509TIP3   OH216469   7.225   2.344   5.888
 5509TIP3    H116470   7.306   2.332   5.838
 5509TIP3    H216471   7.254   2.346   5.980
 5510TIP3   OH216472   0.241   3.470   1.983
 5510TIP3    H116473   0.305   3.526   1.939
 5510TIP3    H216474   0.226   3.512   2.068
 5511TIP3   OH216475   5.811   0.716   0.058
 5511TIP3    H116476   5.850   0.717   0.146
 5511TIP3    H216477   5.746   0.786   0.059
 5512TIP3   OH216478   7.678   6.894   4.498
 5512TIP3    H116479   7.748   6.868   4.558
 5512TIP3    H216480   7.597   6.873   4.543
 5513TIP3   OH216481   0.813   0.014   0.440
 5513TIP3    H116482   0.732   0.020   0.492
 5513TIP3    H216483   0.880   0.055   0.495
 5514TIP3   OH216484   7.231   7.068   5.480
 5514TIP3    H116485   7.305   7.008   5.480
 5514TIP3    H216486   7.155   7.013   5.459
 5515TIP3   OH216487   6.415   7.651   5.196
 5515TIP3    H116488   6.501   7.614   5.216
 5515TIP3    H216489   6.358   7.621   5.266
 5516TIP3   OH216490   8.025   3.001   0.527
 5516TIP3    H116491   8.108   2.957   0.509
 5516TIP3    H216492   8.028   3.080   0.474
 5517TIP3   OH216493   2.336   6.068   4.400
 5517TIP3    H116494   2.274   6.041   4.332
 5517TIP3    H216495   2.365   6.155   4.373
 5518TIP3   OH216496   0.920   4.284   4.201
 5518TIP3    H116497   0.993   4.251   4.253
 5518TIP3    H216498   0.852   4.217   4.210
 5519TIP3   OH216499   1.120   6.099  -0.025
 5519TIP3    H116500   1.086   6.010  -0.015
 5519TIP3    H216501   1.079   6.148   0.046
 5520TIP3   OH216502   2.692   2.326   3.333
 5520TIP3    H116503   2.779   2.365   3.347
 5520TIP3    H216504   2.674   2.340   3.240
 5521TIP3   OH216505   6.409   6.735   3.546
 5521TIP3    H116506   6.428   6.825   3.570
 5521TIP3    H216507   6.491   6.688   3.559
 5522TIP3   OH216508   4.825   5.741   0.604
 5522TIP3    H116509   4.912   5.779   0.592
 5522TIP3    H216510   4.815   5.736   0.699
 5523TIP3   OH216511   4.976   4.014   1.736
 5523TIP3    H116512   4.897   3.960   1.733
 5523TIP3    H216513   4.952   4.095   1.691
 5524TIP3   OH216514   3.560   1.480   5.305
 5524TIP3    H116515   3.491   1.546   5.304
 5524TIP3    H216516   3.589   1.477   5.397
 5525TIP3   OH216517   7.515   4.946   2.765
 5525TIP3    H116518   7.588   5.003   2.741
 5525TIP3    H216519   7.526   4.931   2.859
 5526TIP3   OH216520   3.814   2.271   4.441
 5526TIP3    H116521   3.869   2.339   4.480
 5526TIP3    H216522   3.873   2.197   4.427
 5527TIP3   OH216523   0.224   0.528   0.225
 5527TIP3    H116524   0.217   0.446   0.273
 5527TIP3    H216525   0.166   0.589   0.271
 5528TIP3   OH216526   4.882   3.730   4.891
 5528TIP3    H116527   4.797   3.744   4.851
 5528TIP3    H216528   4.934   3.807   4.867
 5529TIP3   OH216529   5.512   7.672   6.290
 5529TIP3    H116530   5.570   7.608   6.249
 5529TIP3    H216531   5.554   7.756   6.274
 5530TIP3   OH216532   2.379   1.445   2.439
 5530TIP3    H116533   2.372   1.379   2.370
 5530TIP3    H216534   2.349   1.526   2.398
 5531TIP3   OH216535   0.962   6.000   5.242
 5531TIP3    H116536   1.005   6.050   5.311
 5531TIP3    H216537   0.911   5.933   5.288
 5532TIP3   OH216538   0.215   1.936   4.012
 5532TIP3    H116539   0.266   1.907   3.936
 5532TIP3    H216540   0.243   1.879   4.083
 5533TIP3   OH216541   4.829   1.980   2.695
 5533TIP3    H116542   4.758   1.953   2.753
 5533TIP3    H216543   4.790   2.044   2.636
 5534TIP3   OH216544   0.810   5.960   6.296
 5534TIP3    H116545   0.780   5.934   6.383
 5534TIP3    H216546   0.905   5.946   6.297
 5535TIP3   OH216547   7.202   4.999   1.160
 5535TIP3    H116548   7.160   5.056   1.224
 5535TIP3    H216549   7.201   5.050   1.079
 5536TIP3   OH216550   7.717   3.478   0.211
 5536TIP3    H116551   7.785   3.537   0.243
 5536TIP3    H216552   7.737   3.467   0.118
 5537TIP3   OH216553   6.544   3.320   3.180
 5537TIP3    H116554   6.520   3.247   3.237
 5537TIP3    H216555   6.497   3.303   3.098
 5538TIP3   OH216556   0.152   0.190   0.088
 5538TIP3    H116557   0.205   0.253   0.039
 5538TIP3    H216558   0.063   0.221   0.079
 5539TIP3   OH216559   0.274   4.228   5.140
 5539TIP3    H116560   0.180   4.240   5.129
 5539TIP3    H216561   0.306   4.312   5.174
 5540TIP3   OH216562   5.096   2.878   6.561
 5540TIP3    H116563   5.176   2.922   6.535
 5540TIP3    H216564   5.047   2.866   6.480
 5541TIP3   OH216565   0.308   1.282  -0.012
 5541TIP3    H116566   0.215   1.265  -0.027
 5541TIP3    H216567   0.340   1.203   0.033
 5542TIP3   OH216568   3.099   2.637   2.537
 5542TIP3    H116569   3.177   2.592   2.571
 5542TIP3    H216570   3.069   2.581   2.465
 5543TIP3   OH216571   1.899   6.798   6.052
 5543TIP3    H116572   1.839   6.772   5.982
 5543TIP3    H216573   1.851   6.865   6.101
 5544TIP3   OH216574   6.991   2.357   0.656
 5544TIP3    H116575   7.007   2.279   0.602
 5544TIP3    H216576   6.999   2.326   0.746
 5545TIP3   OH216577   0.459   3.283   0.634
 5545TIP3    H116578   0.423   3.353   0.580
 5545TIP3    H216579   0.468   3.321   0.721
 5546TIP3   OH216580   6.437   1.830   2.660
 5546TIP3    H116581   6.415   1.829   2.753
 5546TIP3    H216582   6.391   1.754   2.624
 5547TIP3   OH216583   8.241   4.266   5.187
 5547TIP3    H116584   8.198   4.237   5.106
 5547TIP3    H216585   8.235   4.190   5.245
 5548TIP3   OH216586   5.567   1.829   0.293
 5548TIP3    H116587   5.577   1.823   0.388
 5548TIP3    H216588   5.538   1.919   0.278
 5549TIP3   OH216589   7.747   2.124   1.360
 5549TIP3    H116590   7.662   2.088   1.336
 5549TIP3    H216591   7.788   2.054   1.411
 5550TIP3   OH216592   3.519   7.457   0.017
 5550TIP3    H116593   3.559   7.402  -0.050
 5550TIP3    H216594   3.490   7.396   0.085
 5551TIP3   OH216595   8.036   1.006   0.431
 5551TIP3    H116596   8.030   1.062   0.354
 5551TIP3    H216597   8.077   1.061   0.498
 5552TIP3   OH216598   6.047   7.730   6.323
 5552TIP3    H116599   6.018   7.643   6.296
 5552TIP3    H216600   6.123   7.714   6.379
 5553TIP3   OH216601   7.706   6.125   3.081
 5553TIP3    H116602   7.622   6.086   3.055
 5553TIP3    H216603   7.768   6.090   3.018
 5554TIP3   OH216604   1.924   7.251   6.161
 5554TIP3    H116605   1.998   7.291   6.206
 5554TIP3    H216606   1.887   7.322   6.108
 5555TIP3   OH216607   4.878   5.207   3.905
 5555TIP3    H116608   4.836   5.293   3.893
 5555TIP3    H216609   4.920   5.189   3.821
 5556TIP3   OH216610   6.164   1.555   0.717
 5556TIP3    H116611   6.112   1.541   0.638
 5556TIP3    H216612   6.249   1.513   0.698
 5557TIP3   OH216613   0.190   0.234   2.630
 5557TIP3    H116614   0.103   0.220   2.669
 5557TIP3    H216615   0.220   0.147   2.605
 5558TIP3   OH216616   0.367   6.895   5.051
 5558TIP3    H116617   0.346   6.939   4.969
 5558TIP3    H216618   0.361   6.963   5.117
 5559TIP3   OH216619   0.074   1.677   4.090
 5559TIP3    H116620   0.159   1.722   4.080
 5559TIP3    H216621   0.016   1.724   4.030
 5560TIP3   OH216622   5.981   6.952   4.106
 5560TIP3    H116623   6.032   7.003   4.042
 5560TIP3    H216624   5.970   7.010   4.181
 5561TIP3   OH216625   6.087   1.124   3.253
 5561TIP3    H116626   6.112   1.125   3.160
 5561TIP3    H216627   6.094   1.215   3.280
 5562TIP3   OH216628   3.005   6.079   3.338
 5562TIP3    H116629   2.917   6.073   3.375
 5562TIP3    H216630   3.054   6.009   3.382
 5563TIP3   OH216631   6.291   6.610   0.140
 5563TIP3    H116632   6.274   6.541   0.076
 5563TIP3    H216633   6.350   6.569   0.204
 5564TIP3   OH216634   4.320   4.187   2.220
 5564TIP3    H116635   4.309   4.096   2.247
 5564TIP3    H216636   4.390   4.184   2.154
 5565TIP3   OH216637   0.418   1.023   0.974
 5565TIP3    H116638   0.450   1.015   0.884
 5565TIP3    H216639   0.341   1.079   0.968
 5566TIP3   OH216640   2.548   2.522   4.392
 5566TIP3    H116641   2.477   2.559   4.341
 5566TIP3    H216642   2.584   2.452   4.337
 5567TIP3   OH216643   4.862   0.125   1.244
 5567TIP3    H116644   4.848   0.069   1.168
 5567TIP3    H216645   4.957   0.135   1.249
 5568TIP3   OH216646   4.619   2.331   0.513
 5568TIP3    H116647   4.540   2.291   0.475
 5568TIP3    H216648   4.685   2.324   0.445
 5569TIP3   OH216649   2.651   3.731   4.242
 5569TIP3    H116650   2.624   3.764   4.328
 5569TIP3    H216651   2.660   3.637   4.253
 5570TIP3   OH216652   0.111   5.562   6.573
 5570TIP3    H116653   0.172   5.511   6.520
 5570TIP3    H216654   0.055   5.497   6.615
 5571TIP3   OH216655   3.360   6.899   3.651
 5571TIP3    H116656   3.312   6.879   3.731
 5571TIP3    H216657   3.396   6.987   3.666
 5572TIP3   OH216658   7.694   1.964   4.257
 5572TIP3    H116659   7.773   1.972   4.204
 5572TIP3    H216660   7.718   2.003   4.341
 5573TIP3   OH216661   5.940   5.699   5.313
 5573TIP3    H116662   5.889   5.706   5.393
 5573TIP3    H216663   6.015   5.756   5.328
 5574TIP3   OH216664   3.136   6.997   2.718
 5574TIP3    H116665   3.140   6.918   2.663
 5574TIP3    H216666   3.124   6.964   2.807
 5575TIP3   OH216667   1.012   0.207   4.670
 5575TIP3    H116668   1.078   0.209   4.739
 5575TIP3    H216669   1.013   0.117   4.637
 5576TIP3   OH216670   3.417   2.746   5.639
 5576TIP3    H116671   3.434   2.834   5.604
 5576TIP3    H216672   3.486   2.734   5.704
 5577TIP3   OH216673   3.710   6.513   1.853
 5577TIP3    H116674   3.677   6.510   1.943
 5577TIP3    H216675   3.727   6.422   1.830
 5578TIP3   OH216676   5.053   2.560   1.924
 5578TIP3    H116677   5.136   2.514   1.940
 5578TIP3    H216678   4.992   2.521   1.987
 5579TIP3   OH216679   4.304   5.852   1.754
 5579TIP3    H116680   4.382   5.908   1.754
 5579TIP3    H216681   4.266   5.863   1.666
 5580TIP3   OH216682   3.132   1.498   2.044
 5580TIP3    H116683   3.174   1.413   2.056
 5580TIP3    H216684   3.186   1.542   1.979
 5581TIP3   OH216685   6.818   2.432   5.517
 5581TIP3    H116686   6.906   2.412   5.550
 5581TIP3    H216687   6.768   2.455   5.595
 5582TIP3   OH216688   7.284   3.227   2.554
 5582TIP3    H116689   7.303   3.153   2.496
 5582TIP3    H216690   7.226   3.283   2.503
 5583TIP3   OH216691   6.947   4.779   3.731
 5583TIP3    H116692   6.978   4.808   3.645
 5583TIP3    H216693   6.916   4.689   3.716
 5584TIP3   OH216694   2.569   0.515   4.136
 5584TIP3    H116695   2.482   0.477   4.124
 5584TIP3    H216696   2.567   0.550   4.225
 5585TIP3   OH216697   1.159   5.345   5.198
 5585TIP3    H116698   1.153   5.278   5.267
 5585TIP3    H216699   1.241   5.325   5.152
 5586TIP3   OH216700   6.143   6.128   3.315
 5586TIP3    H116701   6.173   6.124   3.225
 5586TIP3    H216702   6.085   6.052   3.325
 5587TIP3   OH216703   5.278   4.132   4.201
 5587TIP3    H116704   5.197   4.179   4.184
 5587TIP3    H216705   5.333   4.195   4.249
 5588TIP3   OH216706   4.029   3.572   3.032
 5588TIP3    H116707   4.006   3.633   2.962
 5588TIP3    H216708   3.950   3.520   3.046
 5589TIP3   OH216709   3.352   0.256   4.094
 5589TIP3    H116710   3.317   0.316   4.160
 5589TIP3    H216711   3.438   0.292   4.072
 5590TIP3   OH216712   6.704   2.288   1.872
 5590TIP3    H116713   6.746   2.202   1.865
 5590TIP3    H216714   6.642   2.291   1.800
 5591TIP3   OH216715   0.191   3.948   2.857
 5591TIP3    H116716   0.212   3.858   2.885
 5591TIP3    H216717   0.255   4.003   2.903
 5592TIP3   OH216718   4.549   1.760   3.134
 5592TIP3    H116719   4.458   1.787   3.148
 5592TIP3    H216720   4.552   1.669   3.164
 5593TIP3   OH216721   7.460   1.494   5.233
 5593TIP3    H116722   7.507   1.411   5.226
 5593TIP3    H216723   7.529   1.560   5.232
 5594TIP3   OH216724   6.427   7.830   1.505
 5594TIP3    H116725   6.475   7.749   1.486
 5594TIP3    H216726   6.483   7.900   1.471
 5595TIP3   OH216727   1.526   2.302   3.122
 5595TIP3    H116728   1.541   2.353   3.042
 5595TIP3    H216729   1.551   2.213   3.098
 5596TIP3   OH216730   7.276   6.914   4.376
 5596TIP3    H116731   7.355   6.968   4.373
 5596TIP3    H216732   7.298   6.841   4.433
 5597TIP3   OH216733   6.297   0.281   2.413
 5597TIP3    H116734   6.237   0.306   2.483
 5597TIP3    H216735   6.375   0.335   2.428
 5598TIP3   OH216736   2.703   5.104   2.493
 5598TIP3    H116737   2.713   5.199   2.497
 5598TIP3    H216738   2.785   5.070   2.530
 5599TIP3   OH216739   7.640   0.062   0.262
 5599TIP3    H116740   7.571   0.084   0.325
 5599TIP3    H216741   7.695   0.141   0.258
 5600TIP3   OH216742   4.397   1.493   5.175
 5600TIP3    H116743   4.327   1.559   5.180
 5600TIP3    H216744   4.470   1.538   5.133
 5601TIP3   OH216745   0.804   3.799   0.457
 5601TIP3    H116746   0.861   3.866   0.493
 5601TIP3    H216747   0.826   3.796   0.364
 5602TIP3   OH216748   7.376   3.798   4.136
 5602TIP3    H116749   7.441   3.780   4.204
 5602TIP3    H216750   7.417   3.766   4.056
 5603TIP3   OH216751   4.866   1.377   5.328
 5603TIP3    H116752   4.868   1.409   5.238
 5603TIP3    H216753   4.774   1.360   5.345
 5604TIP3   OH216754   4.437   6.122   1.102
 5604TIP3    H116755   4.356   6.170   1.118
 5604TIP3    H216756   4.426   6.083   1.015
 5605TIP3   OH216757   5.315   5.526   2.545
 5605TIP3    H116758   5.371   5.500   2.618
 5605TIP3    H216759   5.372   5.579   2.489
 5606TIP3   OH216760   6.646   0.773   6.785
 5606TIP3    H116761   6.682   0.823   6.858
 5606TIP3    H216762   6.562   0.741   6.816
 5607TIP3   OH216763   3.670   4.289   2.009
 5607TIP3    H116764   3.730   4.308   2.081
 5607TIP3    H216765   3.651   4.374   1.970
 5608TIP3   OH216766   8.201   5.364   6.704
 5608TIP3    H116767   8.129   5.313   6.667
 5608TIP3    H216768   8.242   5.306   6.768
 5609TIP3   OH216769   7.482   4.704   3.959
 5609TIP3    H116770   7.404   4.757   3.941
 5609TIP3    H216771   7.554   4.767   3.964
 5610TIP3   OH216772   3.575   3.587   5.660
 5610TIP3    H116773   3.590   3.513   5.718
 5610TIP3    H216774   3.491   3.624   5.690
 5611TIP3   OH216775   1.740   0.358   1.376
 5611TIP3    H116776   1.811   0.335   1.315
 5611TIP3    H216777   1.676   0.404   1.321
 5612TIP3   OH216778   7.325   5.773   0.736
 5612TIP3    H116779   7.410   5.800   0.769
 5612TIP3    H216780   7.313   5.824   0.656
 5613TIP3   OH216781   7.569   4.771   0.326
 5613TIP3    H116782   7.562   4.765   0.422
 5613TIP3    H216783   7.544   4.862   0.307
 5614TIP3   OH216784   5.598   1.879   5.699
 5614TIP3    H116785   5.516   1.924   5.719
 5614TIP3    H216786   5.584   1.838   5.614
 5615TIP3   OH216787   4.353   3.290   3.627
 5615TIP3    H116788   4.435   3.292   3.577
 5615TIP3    H216789   4.380   3.268   3.717
 5616TIP3   OH216790   0.167   4.469   5.503
 5616TIP3    H116791   0.154   4.419   5.583
 5616TIP3    H216792   0.171   4.560   5.531
 5617TIP3   OH216793   0.170   6.605   0.711
 5617TIP3    H116794   0.133   6.523   0.679
 5617TIP3    H216795   0.238   6.579   0.773
 5618TIP3   OH216796   4.023   4.980   3.903
 5618TIP3    H116797   3.958   4.928   3.951
 5618TIP3    H216798   4.053   4.922   3.833
 5619TIP3   OH216799   0.868   5.276   3.005
 5619TIP3    H116800   0.890   5.205   2.944
 5619TIP3    H216801   0.826   5.232   3.079
 5620TIP3   OH216802   4.843   1.412   2.414
 5620TIP3    H116803   4.905   1.374   2.351
 5620TIP3    H216804   4.765   1.429   2.363
 5621TIP3   OH216805   3.585   2.396   1.809
 5621TIP3    H116806   3.558   2.441   1.889
 5621TIP3    H216807   3.503   2.369   1.767
 5622TIP3   OH216808   5.570   2.740   0.656
 5622TIP3    H116809   5.665   2.744   0.658
 5622TIP3    H216810   5.542   2.831   0.650
 5623TIP3   OH216811   5.960   2.613   2.853
 5623TIP3    H116812   6.016   2.688   2.833
 5623TIP3    H216813   5.986   2.545   2.790
 5624TIP3   OH216814   5.183   5.078   3.990
 5624TIP3    H116815   5.225   5.061   4.074
 5624TIP3    H216816   5.128   5.155   4.006
 5625TIP3   OH216817   1.955   5.687   1.772
 5625TIP3    H116818   1.892   5.650   1.834
 5625TIP3    H216819   2.033   5.705   1.826
 5626TIP3   OH216820   7.220   0.932   3.994
 5626TIP3    H116821   7.228   0.852   3.943
 5626TIP3    H216822   7.199   0.902   4.082
 5627TIP3   OH216823   6.772   3.990   2.192
 5627TIP3    H116824   6.846   3.931   2.210
 5627TIP3    H216825   6.695   3.933   2.195
 5628TIP3   OH216826   1.451   0.672   2.823
 5628TIP3    H116827   1.485   0.760   2.842
 5628TIP3    H216828   1.490   0.616   2.890
 5629TIP3   OH216829   6.557   7.308   6.586
 5629TIP3    H116830   6.499   7.343   6.654
 5629TIP3    H216831   6.546   7.213   6.592
 5630TIP3   OH216832   0.436   2.361   4.200
 5630TIP3    H116833   0.431   2.325   4.289
 5630TIP3    H216834   0.344   2.377   4.176
 5631TIP3   OH216835   7.961   2.436   0.252
 5631TIP3    H116836   8.035   2.402   0.302
 5631TIP3    H216837   7.884   2.419   0.308
 5632TIP3   OH216838   3.086   0.032   3.732
 5632TIP3    H116839   3.140   0.050   3.809
 5632TIP3    H216840   3.001   0.073   3.752
 5633TIP3   OH216841   2.244   6.292   1.464
 5633TIP3    H116842   2.283   6.379   1.470
 5633TIP3    H216843   2.318   6.234   1.446
 5634TIP3   OH216844   4.358   2.311   3.083
 5634TIP3    H116845   4.336   2.378   3.018
 5634TIP3    H216846   4.369   2.231   3.032
 5635TIP3   OH216847   7.429   6.492   5.191
 5635TIP3    H116848   7.479   6.560   5.237
 5635TIP3    H216849   7.496   6.428   5.164
 5636TIP3   OH216850   3.761   7.329   4.573
 5636TIP3    H116851   3.757   7.265   4.643
 5636TIP3    H216852   3.843   7.377   4.588
 5637TIP3   OH216853   7.961   2.145   0.419
 5637TIP3    H116854   8.044   2.180   0.453
 5637TIP3    H216855   7.967   2.051   0.433
 5638TIP3   OH216856   3.813   0.617   0.581
 5638TIP3    H116857   3.871   0.693   0.588
 5638TIP3    H216858   3.730   0.653   0.551
 5639TIP3   OH216859   1.787   0.402   1.637
 5639TIP3    H116860   1.783   0.391   1.542
 5639TIP3    H216861   1.734   0.330   1.671
 5640TIP3   OH216862   7.555   4.672   2.987
 5640TIP3    H116863   7.553   4.596   3.044
 5640TIP3    H216864   7.486   4.655   2.923
 5641TIP3   OH216865   2.307   7.671   0.242
 5641TIP3    H116866   2.221   7.650   0.205
 5641TIP3    H216867   2.369   7.646   0.174
 5642TIP3   OH216868   2.840   0.555   4.185
 5642TIP3    H116869   2.882   0.495   4.123
 5642TIP3    H216870   2.751   0.564   4.152
 5643TIP3   OH216871   6.575   0.527   2.866
 5643TIP3    H116872   6.586   0.595   2.799
 5643TIP3    H216873   6.663   0.511   2.899
 5644TIP3   OH216874   2.488   5.608   2.661
 5644TIP3    H116875   2.406   5.596   2.613
 5644TIP3    H216876   2.504   5.523   2.702
 5645TIP3   OH216877   6.742   5.323   0.879
 5645TIP3    H116878   6.786   5.381   0.816
 5645TIP3    H216879   6.767   5.357   0.965
 5646TIP3   OH216880   6.995   0.332   5.724
 5646TIP3    H116881   7.086   0.305   5.736
 5646TIP3    H216882   6.971   0.300   5.637
 5647TIP3   OH216883   0.514   0.090   3.715
 5647TIP3    H116884   0.489   0.013   3.767
 5647TIP3    H216885   0.474   0.075   3.629
 5648TIP3   OH216886   6.424   3.901   1.355
 5648TIP3    H116887   6.437   3.936   1.443
 5648TIP3    H216888   6.396   3.811   1.369
 5649TIP3   OH216889   4.365   4.734   2.637
 5649TIP3    H116890   4.360   4.704   2.547
 5649TIP3    H216891   4.412   4.665   2.683
 5650TIP3   OH216892   0.262   1.076   1.678
 5650TIP3    H116893   0.358   1.080   1.682
 5650TIP3    H216894   0.243   1.047   1.589
 5651TIP3   OH216895   3.265   0.809   1.077
 5651TIP3    H116896   3.326   0.843   1.011
 5651TIP3    H216897   3.313   0.737   1.119
 5652TIP3   OH216898   1.720   2.311   4.889
 5652TIP3    H116899   1.727   2.317   4.794
 5652TIP3    H216900   1.716   2.217   4.907
 5653TIP3   OH216901   2.567   0.521   4.428
 5653TIP3    H116902   2.630   0.450   4.425
 5653TIP3    H216903   2.482   0.478   4.421
 5654TIP3   OH216904   4.833   5.833   1.319
 5654TIP3    H116905   4.897   5.828   1.249
 5654TIP3    H216906   4.749   5.819   1.276
 5655TIP3   OH216907   0.770   0.153   6.273
 5655TIP3    H116908   0.781   0.225   6.212
 5655TIP3    H216909   0.766   0.075   6.217
 5656TIP3   OH216910   7.436   0.460   1.692
 5656TIP3    H116911   7.474   0.454   1.779
 5656TIP3    H216912   7.372   0.531   1.698
 5657TIP3   OH216913   0.843   4.720   3.246
 5657TIP3    H116914   0.769   4.711   3.305
 5657TIP3    H216915   0.891   4.796   3.279
 5658TIP3   OH216916   4.668   3.659   5.548
 5658TIP3    H116917   4.612   3.652   5.625
 5658TIP3    H216918   4.610   3.643   5.474
 5659TIP3   OH216919   7.568   7.273   6.059
 5659TIP3    H116920   7.473   7.286   6.058
 5659TIP3    H216921   7.601   7.341   6.117
 5660TIP3   OH216922   4.883   6.768   3.252
 5660TIP3    H116923   4.974   6.774   3.283
 5660TIP3    H216924   4.860   6.676   3.264
 5661TIP3   OH216925   4.322   2.289   3.561
 5661TIP3    H116926   4.231   2.275   3.533
 5661TIP3    H216927   4.370   2.302   3.479
 5662TIP3   OH216928   5.610   7.408   2.456
 5662TIP3    H116929   5.567   7.422   2.372
 5662TIP3    H216930   5.596   7.489   2.505
 5663TIP3   OH216931   4.069   0.107   0.155
 5663TIP3    H116932   4.012   0.085   0.081
 5663TIP3    H216933   4.107   0.191   0.131
 5664TIP3   OH216934   7.912   2.114   0.885
 5664TIP3    H116935   7.852   2.188   0.879
 5664TIP3    H216936   7.885   2.055   0.815
 5665TIP3   OH216937   7.066   0.777   3.387
 5665TIP3    H116938   6.974   0.799   3.406
 5665TIP3    H216939   7.102   0.749   3.472
 5666TIP3   OH216940   4.305   6.686   6.653
 5666TIP3    H116941   4.292   6.618   6.719
 5666TIP3    H216942   4.280   6.767   6.697
 5667TIP3   OH216943   0.461   4.775   0.271
 5667TIP3    H116944   0.411   4.705   0.229
 5667TIP3    H216945   0.439   4.769   0.364
 5668TIP3   OH216946   6.616   0.951   4.173
 5668TIP3    H116947   6.639   1.010   4.101
 5668TIP3    H216948   6.526   0.924   4.155
 5669TIP3   OH216949   6.466   4.748   2.371
 5669TIP3    H116950   6.510   4.723   2.452
 5669TIP3    H216951   6.374   4.731   2.387
 5670TIP3   OH216952   7.381   1.640   6.771
 5670TIP3    H116953   7.372   1.571   6.705
 5670TIP3    H216954   7.293   1.675   6.781
 5671TIP3   OH216955   0.208   0.263   0.366
 5671TIP3    H116956   0.203   0.227   0.455
 5671TIP3    H216957   0.273   0.209   0.322
 5672TIP3   OH216958   3.986   5.520   0.356
 5672TIP3    H116959   3.975   5.549   0.447
 5672TIP3    H216960   4.059   5.459   0.360
 5673TIP3   OH216961   0.418   0.572   1.290
 5673TIP3    H116962   0.367   0.512   1.236
 5673TIP3    H216963   0.383   0.560   1.378
 5674TIP3   OH216964   6.985   2.829   1.069
 5674TIP3    H116965   6.900   2.853   1.106
 5674TIP3    H216966   6.967   2.751   1.017
 5675TIP3   OH216967   5.801   3.335   0.656
 5675TIP3    H116968   5.842   3.256   0.621
 5675TIP3    H216969   5.814   3.401   0.588
 5676TIP3   OH216970   0.093   2.655   0.869
 5676TIP3    H116971   0.000   2.668   0.847
 5676TIP3    H216972   0.102   2.688   0.958
 5677TIP3   OH216973   1.626   2.696   2.309
 5677TIP3    H116974   1.685   2.656   2.245
 5677TIP3    H216975   1.633   2.790   2.292
 5678TIP3   OH216976   7.591   5.590   1.502
 5678TIP3    H116977   7.617   5.522   1.564
 5678TIP3    H216978   7.500   5.610   1.525
 5679TIP3   OH216979   7.668   2.463   2.768
 5679TIP3    H116980   7.611   2.493   2.838
 5679TIP3    H216981   7.734   2.532   2.758
 5680TIP3   OH216982   6.731   5.183   3.983
 5680TIP3    H116983   6.773   5.167   3.899
 5680TIP3    H216984   6.800   5.222   4.038
 5681TIP3   OH216985   2.501   1.331   5.719
 5681TIP3    H116986   2.562   1.373   5.658
 5681TIP3    H216987   2.517   1.374   5.802
 5682TIP3   OH216988   3.688   1.594   0.512
 5682TIP3    H116989   3.655   1.514   0.551
 5682TIP3    H216990   3.714   1.648   0.587
 5683TIP3   OH216991   0.031   7.734   1.953
 5683TIP3    H116992  -0.015   7.760   2.033
 5683TIP3    H216993   0.078   7.813   1.925
 5684TIP3   OH216994   6.628   4.120   3.379
 5684TIP3    H116995   6.670   4.034   3.379
 5684TIP3    H216996   6.573   4.120   3.457
 5685TIP3   OH216997   6.476   7.446   3.129
 5685TIP3    H116998   6.469   7.541   3.125
 5685TIP3    H216999   6.495   7.419   3.039
 5686TIP3   OH217000   7.115   5.790   6.113
 5686TIP3    H117001   7.170   5.839   6.174
 5686TIP3    H217002   7.048   5.852   6.085
 5687TIP3   OH217003   1.931   6.333   3.104
 5687TIP3    H117004   2.024   6.314   3.091
 5687TIP3    H217005   1.892   6.248   3.126
 5688TIP3   OH217006   7.752   6.309   4.054
 5688TIP3    H117007   7.810   6.310   3.977
 5688TIP3    H217008   7.753   6.218   4.083
 5689TIP3   OH217009   4.225   7.631   6.228
 5689TIP3    H117010   4.226   7.541   6.262
 5689TIP3    H217011   4.148   7.634   6.171
 5690TIP3   OH217012   3.156   4.462   1.179
 5690TIP3    H117013   3.089   4.410   1.133
 5690TIP3    H217014   3.106   4.533   1.221
 5691TIP3   OH217015   6.451   2.864   2.235
 5691TIP3    H117016   6.392   2.922   2.187
 5691TIP3    H217017   6.497   2.815   2.167
 5692TIP3   OH217018   5.361   2.641   2.497
 5692TIP3    H117019   5.434   2.684   2.541
 5692TIP3    H217020   5.287   2.654   2.556
 5693TIP3   OH217021   7.461   2.028   1.679
 5693TIP3    H117022   7.517   2.015   1.603
 5693TIP3    H217023   7.456   1.942   1.720
 5694TIP3   OH217024   0.185   6.025   5.446
 5694TIP3    H117025   0.174   6.033   5.541
 5694TIP3    H217026   0.263   6.077   5.427
 5695TIP3   OH217027   4.548   6.906   5.218
 5695TIP3    H117028   4.530   6.997   5.242
 5695TIP3    H217029   4.577   6.911   5.127
 5696TIP3   OH217030   4.243   5.414   5.262
 5696TIP3    H117031   4.172   5.419   5.325
 5696TIP3    H217032   4.220   5.478   5.194
 5697TIP3   OH217033   3.974   6.872   1.096
 5697TIP3    H117034   4.046   6.902   1.152
 5697TIP3    H217035   3.897   6.919   1.130
 5698TIP3   OH217036   0.817   0.610   2.837
 5698TIP3    H117037   0.805   0.684   2.897
 5698TIP3    H217038   0.773   0.537   2.881
 5699TIP3   OH217039   3.718   7.012   3.779
 5699TIP3    H117040   3.702   6.961   3.858
 5699TIP3    H217041   3.653   7.082   3.782
 5700TIP3   OH217042   5.425   3.595   2.774
 5700TIP3    H117043   5.470   3.646   2.841
 5700TIP3    H217044   5.335   3.587   2.807
 5701TIP3   OH217045   0.807   5.807   6.569
 5701TIP3    H117046   0.880   5.847   6.616
 5701TIP3    H217047   0.848   5.746   6.508
 5702TIP3   OH217048   8.222   6.492   6.165
 5702TIP3    H117049   8.310   6.470   6.137
 5702TIP3    H217050   8.175   6.511   6.083
 5703TIP3   OH217051   2.900   0.720   2.019
 5703TIP3    H117052   2.859   0.729   2.105
 5703TIP3    H217053   2.873   0.799   1.972
 5704TIP3   OH217054   6.310   3.429   2.335
 5704TIP3    H117055   6.325   3.473   2.419
 5704TIP3    H217056   6.259   3.352   2.356
 5705TIP3   OH217057   7.984   6.142   1.391
 5705TIP3    H117058   8.078   6.123   1.390
 5705TIP3    H217059   7.976   6.228   1.351
 5706TIP3   OH217060   0.477   5.055   3.450
 5706TIP3    H117061   0.536   5.120   3.487
 5706TIP3    H217062   0.419   5.031   3.522
 5707TIP3   OH217063   7.875   3.716   1.786
 5707TIP3    H117064   7.917   3.758   1.711
 5707TIP3    H217065   7.947   3.693   1.844
 5708TIP3   OH217066   7.475   4.964   6.529
 5708TIP3    H117067   7.460   5.023   6.603
 5708TIP3    H217068   7.401   4.904   6.531
 5709TIP3   OH217069   3.413   3.706   3.656
 5709TIP3    H117070   3.427   3.655   3.576
 5709TIP3    H217071   3.490   3.763   3.661
 5710TIP3   OH217072   5.331   2.541   2.000
 5710TIP3    H117073   5.316   2.515   2.091
 5710TIP3    H217074   5.407   2.489   1.973
 5711TIP3   OH217075   5.848   6.345   6.378
 5711TIP3    H117076   5.930   6.320   6.337
 5711TIP3    H217077   5.805   6.262   6.398
 5712TIP3   OH217078   4.810   4.371   2.876
 5712TIP3    H117079   4.854   4.311   2.935
 5712TIP3    H217080   4.745   4.415   2.931
 5713TIP3   OH217081   7.424   0.915   5.203
 5713TIP3    H117082   7.391   0.884   5.119
 5713TIP3    H217083   7.347   0.919   5.260
 5714TIP3   OH217084   5.734   4.095   5.584
 5714TIP3    H117085   5.682   4.074   5.506
 5714TIP3    H217086   5.678   4.155   5.634
 5715TIP3   OH217087   2.778   3.001   5.558
 5715TIP3    H117088   2.827   3.000   5.641
 5715TIP3    H217089   2.730   2.918   5.558
 5716TIP3   OH217090   0.779   2.548   4.855
 5716TIP3    H117091   0.812   2.498   4.781
 5716TIP3    H217092   0.691   2.574   4.829
 5717TIP3   OH217093   3.135   6.818   2.954
 5717TIP3    H117094   3.138   6.819   3.050
 5717TIP3    H217095   3.041   6.821   2.933
 5718TIP3   OH217096   4.505   5.355   1.707
 5718TIP3    H117097   4.590   5.313   1.717
 5718TIP3    H217098   4.446   5.285   1.678
 5719TIP3   OH217099   8.156   5.787   4.946
 5719TIP3    H117100   8.193   5.829   4.868
 5719TIP3    H217101   8.062   5.788   4.931
 5720TIP3   OH217102   1.641   2.228   1.509
 5720TIP3    H117103   1.552   2.262   1.513
 5720TIP3    H217104   1.640   2.167   1.434
 5721TIP3   OH217105   5.422   0.662   2.413
 5721TIP3    H117106   5.437   0.622   2.499
 5721TIP3    H217107   5.469   0.606   2.352
 5722TIP3   OH217108   1.018   6.370   5.334
 5722TIP3    H117109   1.054   6.367   5.422
 5722TIP3    H217110   1.087   6.335   5.278
 5723TIP3   OH217111   0.461   6.932   1.609
 5723TIP3    H117112   0.513   6.990   1.664
 5723TIP3    H217113   0.376   6.977   1.601
 5724TIP3   OH217114   3.022   1.874   4.866
 5724TIP3    H117115   3.021   1.944   4.930
 5724TIP3    H217116   3.005   1.917   4.782
 5725TIP3   OH217117   0.248   1.834  -0.055
 5725TIP3    H117118   0.332   1.848  -0.010
 5725TIP3    H217119   0.189   1.802   0.014
 5726TIP3   OH217120   0.775   5.221   0.122
 5726TIP3    H117121   0.813   5.300   0.160
 5726TIP3    H217122   0.750   5.168   0.198
 5727TIP3   OH217123   4.951   0.824   3.762
 5727TIP3    H117124   4.879   0.876   3.727
 5727TIP3    H217125   4.965   0.756   3.696
 5728TIP3   OH217126   5.945   5.770   4.572
 5728TIP3    H117127   5.988   5.844   4.616
 5728TIP3    H217128   6.015   5.707   4.557
 5729TIP3   OH217129   4.774   0.953   3.613
 5729TIP3    H117130   4.774   1.013   3.538
 5729TIP3    H217131   4.700   0.895   3.598
 5730TIP3   OH217132   5.207   3.125   0.557
 5730TIP3    H117133   5.280   3.064   0.567
 5730TIP3    H217134   5.197   3.136   0.463
 5731TIP3   OH217135   4.363   3.202   0.328
 5731TIP3    H117136   4.351   3.292   0.297
 5731TIP3    H217137   4.279   3.160   0.311
 5732TIP3   OH217138   0.772   1.348   0.315
 5732TIP3    H117139   0.793   1.439   0.296
 5732TIP3    H217140   0.752   1.309   0.230
 5733TIP3   OH217141   0.952   3.502   4.096
 5733TIP3    H117142   0.865   3.529   4.124
 5733TIP3    H217143   0.949   3.406   4.099
 5734TIP3   OH217144   7.354   2.598   4.771
 5734TIP3    H117145   7.309   2.531   4.823
 5734TIP3    H217146   7.283   2.655   4.740
 5735TIP3   OH217147   0.843   2.149   2.997
 5735TIP3    H117148   0.854   2.170   2.904
 5735TIP3    H217149   0.816   2.058   2.998
 5736TIP3   OH217150   7.490   1.089   3.492
 5736TIP3    H117151   7.576   1.115   3.526
 5736TIP3    H217152   7.465   1.161   3.434
 5737TIP3   OH217153   5.151   0.056   3.351
 5737TIP3    H117154   5.114   0.083   3.267
 5737TIP3    H217155   5.171   0.139   3.396
 5738TIP3   OH217156   4.630   1.098   0.259
 5738TIP3    H117157   4.565   1.040   0.299
 5738TIP3    H217158   4.616   1.182   0.302
 5739TIP3   OH217159   1.001   3.589   3.433
 5739TIP3    H117160   0.938   3.569   3.363
 5739TIP3    H217161   0.984   3.523   3.500
 5740TIP3   OH217162   4.379   2.104   2.916
 5740TIP3    H117163   4.425   2.106   2.832
 5740TIP3    H217164   4.288   2.087   2.893
 5741TIP3   OH217165   0.036   4.839   2.053
 5741TIP3    H117166  -0.056   4.820   2.035
 5741TIP3    H217167   0.035   4.924   2.095
 5742TIP3   OH217168   1.169   7.514   2.102
 5742TIP3    H117169   1.105   7.583   2.084
 5742TIP3    H217170   1.116   7.437   2.121
 5743TIP3   OH217171  -0.024   0.635   2.422
 5743TIP3    H117172  -0.012   0.622   2.328
 5743TIP3    H217173   0.059   0.606   2.461
 5744TIP3   OH217174   1.538   3.269   1.480
 5744TIP3    H117175   1.470   3.324   1.517
 5744TIP3    H217176   1.578   3.227   1.556
 5745TIP3   OH217177   1.923   4.211   2.914
 5745TIP3    H117178   1.877   4.295   2.922
 5745TIP3    H217179   1.953   4.192   3.003
 5746TIP3   OH217180   5.454   7.661   0.049
 5746TIP3    H117181   5.449   7.741  -0.003
 5746TIP3    H217182   5.548   7.647   0.063
 5747TIP3   OH217183   3.953   6.455   5.382
 5747TIP3    H117184   4.045   6.479   5.384
 5747TIP3    H217185   3.922   6.486   5.297
 5748TIP3   OH217186   5.142   1.343   3.938
 5748TIP3    H117187   5.105   1.273   3.884
 5748TIP3    H217188   5.229   1.311   3.961
 5749TIP3   OH217189   7.671   2.734   1.837
 5749TIP3    H117190   7.657   2.797   1.907
 5749TIP3    H217191   7.734   2.672   1.873
 5750TIP3   OH217192   5.345   1.403   5.155
 5750TIP3    H117193   5.433   1.421   5.120
 5750TIP3    H217194   5.332   1.310   5.139
 5751TIP3   OH217195   6.856   1.631   6.081
 5751TIP3    H117196   6.945   1.661   6.099
 5751TIP3    H217197   6.814   1.705   6.036
 5752TIP3   OH217198   1.310   1.178   6.372
 5752TIP3    H117199   1.388   1.209   6.326
 5752TIP3    H217200   1.262   1.258   6.394
 5753TIP3   OH217201   4.054   6.163   1.795
 5753TIP3    H117202   4.140   6.130   1.820
 5753TIP3    H217203   4.059   6.258   1.809
 5754TIP3   OH217204   1.998   2.084   1.335
 5754TIP3    H117205   2.065   2.075   1.403
 5754TIP3    H217206   2.025   2.162   1.286
 5755TIP3   OH217207   3.976   7.713   2.371
 5755TIP3    H117208   3.885   7.700   2.346
 5755TIP3    H217209   4.026   7.684   2.295
 5756TIP3   OH217210   2.426   0.420   2.109
 5756TIP3    H117211   2.429   0.503   2.155
 5756TIP3    H217212   2.477   0.434   2.029
 5757TIP3   OH217213   6.984   5.724   1.997
 5757TIP3    H117214   6.904   5.674   1.980
 5757TIP3    H217215   6.960   5.814   1.976
 5758TIP3   OH217216   4.525   6.550   3.690
 5758TIP3    H117217   4.587   6.524   3.622
 5758TIP3    H217218   4.568   6.623   3.735
 5759TIP3   OH217219   0.471   2.372   3.147
 5759TIP3    H117220   0.521   2.431   3.203
 5759TIP3    H217221   0.394   2.347   3.199
 5760TIP3   OH217222   3.437   7.556   0.526
 5760TIP3    H117223   3.378   7.596   0.461
 5760TIP3    H217224   3.503   7.623   0.542
 5761TIP3   OH217225   6.104   5.685   1.753
 5761TIP3    H117226   6.165   5.741   1.705
 5761TIP3    H217227   6.126   5.699   1.845
 5762TIP3   OH217228   4.279   4.403   2.375
 5762TIP3    H117229   4.302   4.326   2.323
 5762TIP3    H217230   4.212   4.448   2.324
 5763TIP3   OH217231   2.512   4.405   4.527
 5763TIP3    H117232   2.435   4.370   4.571
 5763TIP3    H217233   2.550   4.466   4.590
 5764TIP3   OH217234   4.755   2.687   4.138
 5764TIP3    H117235   4.815   2.649   4.075
 5764TIP3    H217236   4.677   2.709   4.087
 5765TIP3   OH217237   2.718   6.570   2.023
 5765TIP3    H117238   2.768   6.536   1.949
 5765TIP3    H217239   2.782   6.617   2.076
 5766TIP3   OH217240   7.395   1.573   2.858
 5766TIP3    H117241   7.455   1.561   2.932
 5766TIP3    H217242   7.331   1.502   2.869
 5767TIP3   OH217243   7.262   7.006   4.689
 5767TIP3    H117244   7.246   7.047   4.774
 5767TIP3    H217245   7.348   7.039   4.663
 5768TIP3   OH217246   2.833   7.316   0.727
 5768TIP3    H117247   2.847   7.269   0.645
 5768TIP3    H217248   2.918   7.312   0.772
 5769TIP3   OH217249   7.641   5.249   0.217
 5769TIP3    H117250   7.568   5.187   0.225
 5769TIP3    H217251   7.706   5.202   0.163
 5770TIP3   OH217252   6.807   1.401   5.311
 5770TIP3    H117253   6.796   1.306   5.307
 5770TIP3    H217254   6.893   1.416   5.273
 5771TIP3   OH217255   1.006   3.917   3.257
 5771TIP3    H117256   1.061   3.863   3.314
 5771TIP3    H217257   0.965   3.855   3.196
 5772TIP3   OH217258   0.950   2.789   4.911
 5772TIP3    H117259   0.895   2.711   4.910
 5772TIP3    H217260   1.005   2.781   4.833
 5773TIP3   OH217261   1.165   6.763   5.649
 5773TIP3    H117262   1.103   6.742   5.719
 5773TIP3    H217263   1.222   6.686   5.643
 5774TIP3   OH217264   5.683   1.772   2.608
 5774TIP3    H117265   5.632   1.704   2.652
 5774TIP3    H217266   5.669   1.755   2.514
 5775TIP3   OH217267   3.780   7.256   6.596
 5775TIP3    H117268   3.843   7.284   6.529
 5775TIP3    H217269   3.803   7.165   6.613
 5776TIP3   OH217270   0.567   4.556   3.705
 5776TIP3    H117271   0.577   4.527   3.795
 5776TIP3    H217272   0.547   4.650   3.712
 5777TIP3   OH217273   4.194   6.489   2.866
 5777TIP3    H117274   4.174   6.434   2.791
 5777TIP3    H217275   4.265   6.444   2.911
 5778TIP3   OH217276   6.954   1.850   6.560
 5778TIP3    H117277   6.995   1.770   6.527
 5778TIP3    H217278   7.002   1.870   6.640
 5779TIP3   OH217279   5.745   0.569   2.982
 5779TIP3    H117280   5.706   0.495   3.029
 5779TIP3    H217281   5.684   0.586   2.910
 5780TIP3   OH217282   4.603   2.820   6.225
 5780TIP3    H117283   4.588   2.745   6.169
 5780TIP3    H217284   4.669   2.872   6.178
 5781TIP3   OH217285   6.223   1.560   2.665
 5781TIP3    H117286   6.250   1.595   2.580
 5781TIP3    H217287   6.197   1.470   2.647
 5782TIP3   OH217288   1.484   0.209   5.270
 5782TIP3    H117289   1.551   0.271   5.300
 5782TIP3    H217290   1.423   0.262   5.219
 5783TIP3   OH217291   0.935   2.380   5.400
 5783TIP3    H117292   1.003   2.422   5.348
 5783TIP3    H217293   0.968   2.292   5.417
 5784TIP3   OH217294   3.411   0.797   0.051
 5784TIP3    H117295   3.435   0.879   0.009
 5784TIP3    H217296   3.429   0.730  -0.016
 5785TIP3   OH217297   1.819   1.780   0.739
 5785TIP3    H117298   1.893   1.733   0.777
 5785TIP3    H217299   1.754   1.782   0.809
 5786TIP3   OH217300   7.215   4.272   4.895
 5786TIP3    H117301   7.120   4.267   4.907
 5786TIP3    H217302   7.243   4.340   4.956
 5787TIP3   OH217303   8.187   4.053   0.734
 5787TIP3    H117304   8.213   4.011   0.816
 5787TIP3    H217305   8.115   4.000   0.701
 5788TIP3   OH217306   1.463   2.088   5.985
 5788TIP3    H117307   1.379   2.063   6.024
 5788TIP3    H217308   1.507   2.005   5.970
 5789TIP3   OH217309   7.204   0.923   5.441
 5789TIP3    H117310   7.210   1.015   5.415
 5789TIP3    H217311   7.149   0.925   5.520
 5790TIP3   OH217312   6.929   7.160   3.105
 5790TIP3    H117313   6.991   7.212   3.054
 5790TIP3    H217314   6.931   7.073   3.065
 5791TIP3   OH217315   1.454   4.957   5.086
 5791TIP3    H117316   1.412   4.990   5.165
 5791TIP3    H217317   1.458   4.862   5.099
 5792TIP3   OH217318   7.868   3.805   4.558
 5792TIP3    H117319   7.937   3.794   4.493
 5792TIP3    H217320   7.889   3.889   4.600
 5793TIP3   OH217321   4.642   3.131   0.257
 5793TIP3    H117322   4.566   3.110   0.311
 5793TIP3    H217323   4.610   3.194   0.194
 5794TIP3   OH217324   2.879   2.837   1.983
 5794TIP3    H117325   2.934   2.830   2.061
 5794TIP3    H217326   2.862   2.931   1.975
 5795TIP3   OH217327   4.283   2.613   0.239
 5795TIP3    H117328   4.240   2.693   0.270
 5795TIP3    H217329   4.314   2.570   0.319
 5796TIP3   OH217330   1.695   2.014   3.380
 5796TIP3    H117331   1.735   2.023   3.467
 5796TIP3    H217332   1.601   2.016   3.396
 5797TIP3   OH217333   0.006   4.118   5.492
 5797TIP3    H117334   0.030   4.030   5.463
 5797TIP3    H217335   0.086   4.169   5.484
 5798TIP3   OH217336   1.811   7.733   5.639
 5798TIP3    H117337   1.765   7.680   5.574
 5798TIP3    H217338   1.750   7.804   5.660
 5799TIP3   OH217339   6.069   5.496   5.433
 5799TIP3    H117340   6.007   5.424   5.436
 5799TIP3    H217341   6.031   5.558   5.370
 5800TIP3   OH217342   4.722   7.038   0.950
 5800TIP3    H117343   4.648   7.065   1.005
 5800TIP3    H217344   4.799   7.078   0.992
 5801TIP3   OH217345   3.091   0.454   2.192
 5801TIP3    H117346   3.148   0.516   2.146
 5801TIP3    H217347   3.016   0.507   2.220
 5802TIP3   OH217348   4.086   7.569   0.925
 5802TIP3    H117349   4.125   7.572   0.838
 5802TIP3    H217350   4.041   7.653   0.935
 5803TIP3   OH217351   7.102   6.157   5.984
 5803TIP3    H117352   7.180   6.113   5.953
 5803TIP3    H217353   7.068   6.101   6.053
 5804TIP3   OH217354   5.218   5.380   4.005
 5804TIP3    H117355   5.293   5.374   4.065
 5804TIP3    H217356   5.162   5.446   4.045
 5805TIP3   OH217357   0.944   0.024   2.508
 5805TIP3    H117358   1.021  -0.031   2.513
 5805TIP3    H217359   0.977   0.110   2.481
 5806TIP3   OH217360   2.898   6.714   3.293
 5806TIP3    H117361   2.874   6.622   3.286
 5806TIP3    H217362   2.821   6.761   3.261
 5807TIP3   OH217363   3.517   6.048   1.088
 5807TIP3    H117364   3.517   5.953   1.083
 5807TIP3    H217365   3.568   6.068   1.166
 5808TIP3   OH217366   6.497   7.130   0.790
 5808TIP3    H117367   6.419   7.106   0.739
 5808TIP3    H217368   6.559   7.161   0.724
 5809TIP3   OH217369   6.077   4.887   6.406
 5809TIP3    H117370   6.124   4.810   6.373
 5809TIP3    H217371   6.084   4.952   6.336
 5810TIP3   OH217372   3.056   7.217   2.367
 5810TIP3    H117373   3.142   7.246   2.338
 5810TIP3    H217374   3.032   7.277   2.437
 5811TIP3   OH217375   6.669   3.995   5.965
 5811TIP3    H117376   6.631   4.077   5.936
 5811TIP3    H217377   6.759   3.997   5.932
 5812TIP3   OH217378   0.313   1.783   5.819
 5812TIP3    H117379   0.350   1.861   5.860
 5812TIP3    H217380   0.377   1.714   5.836
 5813TIP3   OH217381   2.630   2.273   1.384
 5813TIP3    H117382   2.721   2.292   1.359
 5813TIP3    H217383   2.638   2.208   1.454
 5814TIP3   OH217384   5.916   7.028   2.899
 5814TIP3    H117385   5.846   7.043   2.836
 5814TIP3    H217386   5.994   7.065   2.857
 5815TIP3   OH217387   7.914   7.559   6.448
 5815TIP3    H117388   7.921   7.538   6.355
 5815TIP3    H217389   7.903   7.474   6.491
 5816TIP3   OH217390   0.613   7.629   6.710
 5816TIP3    H117391   0.652   7.543   6.693
 5816TIP3    H217392   0.686   7.683   6.741
 5817TIP3   OH217393   6.141   4.530   5.111
 5817TIP3    H117394   6.115   4.612   5.153
 5817TIP3    H217395   6.162   4.554   5.021
 5818TIP3   OH217396   6.261   5.633   0.730
 5818TIP3    H117397   6.217   5.693   0.790
 5818TIP3    H217398   6.250   5.547   0.771
 5819TIP3   OH217399   3.635   5.315   3.550
 5819TIP3    H117400   3.702   5.248   3.543
 5819TIP3    H217401   3.678   5.395   3.517
 5820TIP3   OH217402   3.680   3.117   0.128
 5820TIP3    H117403   3.611   3.171   0.168
 5820TIP3    H217404   3.651   3.104   0.038
 5821TIP3   OH217405   6.807   0.914   5.771
 5821TIP3    H117406   6.856   0.992   5.799
 5821TIP3    H217407   6.765   0.940   5.690
 5822TIP3   OH217408   1.122   2.591   6.407
 5822TIP3    H117409   1.089   2.530   6.474
 5822TIP3    H217410   1.098   2.678   6.441
 5823TIP3   OH217411   3.951   6.771   1.377
 5823TIP3    H117412   3.878   6.808   1.327
 5823TIP3    H217413   3.926   6.784   1.468
 5824TIP3   OH217414   7.783   3.603   6.087
 5824TIP3    H117415   7.725   3.541   6.041
 5824TIP3    H217416   7.869   3.588   6.049
 5825TIP3   OH217417   5.076   3.076   2.959
 5825TIP3    H117418   5.086   2.986   2.990
 5825TIP3    H217419   4.995   3.075   2.907
 5826TIP3   OH217420   0.735   1.314   0.814
 5826TIP3    H117421   0.794   1.276   0.879
 5826TIP3    H217422   0.780   1.393   0.784
 5827TIP3   OH217423   5.367   1.985   2.347
 5827TIP3    H117424   5.377   1.894   2.320
 5827TIP3    H217425   5.394   1.986   2.439
 5828TIP3   OH217426   3.094   1.560   0.272
 5828TIP3    H117427   3.172   1.505   0.282
 5828TIP3    H217428   3.036   1.509   0.215
 5829TIP3   OH217429   2.615   4.404   3.902
 5829TIP3    H117430   2.638   4.317   3.868
 5829TIP3    H217431   2.546   4.435   3.843
 5830TIP3   OH217432   5.402   5.371   1.882
 5830TIP3    H117433   5.369   5.455   1.847
 5830TIP3    H217434   5.376   5.307   1.816
 5831TIP3   OH217435   7.928   7.076   6.270
 5831TIP3    H117436   8.009   7.112   6.233
 5831TIP3    H217437   7.890   7.149   6.318
 5832TIP3   OH217438   7.646   3.453   6.476
 5832TIP3    H117439   7.618   3.431   6.565
 5832TIP3    H217440   7.733   3.491   6.488
 5833TIP3   OH217441   6.111   6.088   4.441
 5833TIP3    H117442   6.135   6.169   4.486
 5833TIP3    H217443   6.195   6.051   4.412
 5834TIP3   OH217444   6.852   6.033   5.822
 5834TIP3    H117445   6.922   6.095   5.841
 5834TIP3    H217446   6.774   6.087   5.813
 5835TIP3   OH217447   5.981   5.691   3.686
 5835TIP3    H117448   6.022   5.776   3.674
 5835TIP3    H217449   6.050   5.636   3.724
 5836TIP3   OH217450   5.959   6.016   1.211
 5836TIP3    H117451   5.985   6.013   1.119
 5836TIP3    H217452   5.938   6.108   1.226
 5837TIP3   OH217453   3.490   1.236   1.853
 5837TIP3    H117454   3.513   1.215   1.763
 5837TIP3    H217455   3.452   1.155   1.887
 5838TIP3   OH217456   2.419   0.881   3.575
 5838TIP3    H117457   2.354   0.896   3.506
 5838TIP3    H217458   2.419   0.962   3.626
 5839TIP3   OH217459   4.158   5.665   1.095
 5839TIP3    H117460   4.097   5.738   1.106
 5839TIP3    H217461   4.119   5.593   1.145
 5840TIP3   OH217462   6.182   6.235   3.045
 5840TIP3    H117463   6.252   6.271   3.098
 5840TIP3    H217464   6.104   6.286   3.069
 5841TIP3   OH217465   0.759   1.066   4.307
 5841TIP3    H117466   0.711   0.987   4.329
 5841TIP3    H217467   0.850   1.047   4.331
 5842TIP3   OH217468   7.371   4.719   5.940
 5842TIP3    H117469   7.411   4.806   5.944
 5842TIP3    H217470   7.429   4.664   5.992
 5843TIP3   OH217471   1.790   5.760   2.158
 5843TIP3    H117472   1.799   5.750   2.253
 5843TIP3    H217473   1.699   5.787   2.145
 5844TIP3   OH217474   0.328   6.469   1.448
 5844TIP3    H117475   0.256   6.470   1.385
 5844TIP3    H217476   0.308   6.539   1.509
 5845TIP3   OH217477   4.620   6.243   1.788
 5845TIP3    H117478   4.678   6.286   1.726
 5845TIP3    H217479   4.612   6.304   1.861
 5846TIP3   OH217480   8.268   4.148   4.615
 5846TIP3    H117481   8.267   4.219   4.551
 5846TIP3    H217482   8.339   4.172   4.675
 5847TIP3   OH217483   3.711   0.841   3.380
 5847TIP3    H117484   3.777   0.875   3.440
 5847TIP3    H217485   3.734   0.879   3.295
 5848TIP3   OH217486   2.434   6.324   4.335
 5848TIP3    H117487   2.485   6.386   4.387
 5848TIP3    H217488   2.473   6.330   4.247
 5849TIP3   OH217489   2.539   3.831   1.859
 5849TIP3    H117490   2.514   3.789   1.941
 5849TIP3    H217491   2.461   3.824   1.804
 5850TIP3   OH217492   4.038   7.617   0.014
 5850TIP3    H117493   4.071   7.602   0.103
 5850TIP3    H217494   4.015   7.709   0.012
 5851TIP3   OH217495   6.588   3.211   1.521
 5851TIP3    H117496   6.508   3.224   1.571
 5851TIP3    H217497   6.604   3.294   1.478
 5852TIP3   OH217498   3.555   6.130   2.988
 5852TIP3    H117499   3.607   6.167   2.917
 5852TIP3    H217500   3.612   6.135   3.064
 5853TIP3   OH217501   0.566   7.017   2.558
 5853TIP3    H117502   0.496   7.080   2.574
 5853TIP3    H217503   0.643   7.071   2.537
 5854TIP3   OH217504   6.370   1.600   0.376
 5854TIP3    H117505   6.284   1.593   0.336
 5854TIP3    H217506   6.364   1.545   0.455
 5855TIP3   OH217507   5.711   1.971   2.067
 5855TIP3    H117508   5.681   2.032   2.134
 5855TIP3    H217509   5.732   1.891   2.115
 5856TIP3   OH217510   3.055   7.767   1.120
 5856TIP3    H117511   3.140   7.771   1.076
 5856TIP3    H217512   3.037   7.673   1.128
 5857TIP3   OH217513   0.972   5.195   0.404
 5857TIP3    H117514   1.045   5.141   0.372
 5857TIP3    H217515   0.894   5.146   0.381
 5858TIP3   OH217516   4.001   7.137   4.545
 5858TIP3    H117517   4.061   7.064   4.531
 5858TIP3    H217518   3.976   7.129   4.637
 5859TIP3   OH217519   4.347   2.785   0.672
 5859TIP3    H117520   4.411   2.715   0.675
 5859TIP3    H217521   4.384   2.850   0.612
 5860TIP3   OH217522   8.213   0.529   0.594
 5860TIP3    H117523   8.144   0.577   0.547
 5860TIP3    H217524   8.289   0.587   0.590
 5861TIP3   OH217525   5.328   6.686   3.801
 5861TIP3    H117526   5.419   6.660   3.785
 5861TIP3    H217527   5.281   6.603   3.812
 5862TIP3   OH217528   4.821   1.234   6.687
 5862TIP3    H117529   4.772   1.214   6.608
 5862TIP3    H217530   4.879   1.159   6.700
 5863TIP3   OH217531   5.180   6.846   3.331
 5863TIP3    H117532   5.253   6.792   3.360
 5863TIP3    H217533   5.164   6.906   3.404
 5864TIP3   OH217534   2.715   5.947   1.543
 5864TIP3    H117535   2.783   5.885   1.515
 5864TIP3    H217536   2.670   5.902   1.614
 5865TIP3   OH217537   1.394   6.497   1.772
 5865TIP3    H117538   1.417   6.453   1.691
 5865TIP3    H217539   1.379   6.427   1.835
 5866TIP3   OH217540  -0.036   3.254   5.503
 5866TIP3    H117541  -0.009   3.162   5.505
 5866TIP3    H217542  -0.030   3.282   5.594
 5867TIP3   OH217543   7.827   6.809   1.472
 5867TIP3    H117544   7.756   6.854   1.426
 5867TIP3    H217545   7.906   6.852   1.441
 5868TIP3   OH217546   6.430   7.211   1.575
 5868TIP3    H117547   6.339   7.219   1.605
 5868TIP3    H217548   6.448   7.293   1.529
 5869TIP3   OH217549   2.269   4.148   0.470
 5869TIP3    H117550   2.355   4.181   0.497
 5869TIP3    H217551   2.285   4.110   0.383
 5870TIP3   OH217552   1.669   0.377   0.071
 5870TIP3    H117553   1.597   0.438   0.058
 5870TIP3    H217554   1.737   0.429   0.115
 5871TIP3   OH217555   5.173   4.339   3.088
 5871TIP3    H117556   5.188   4.432   3.069
 5871TIP3    H217557   5.233   4.320   3.160
 5872TIP3   OH217558   0.506   2.490   0.828
 5872TIP3    H117559   0.436   2.502   0.763
 5872TIP3    H217560   0.577   2.449   0.779
 5873TIP3   OH217561   5.082   6.610   0.712
 5873TIP3    H117562   5.020   6.537   0.715
 5873TIP3    H217563   5.168   6.570   0.723
 5874TIP3   OH217564   3.931   7.459   2.995
 5874TIP3    H117565   3.950   7.390   3.058
 5874TIP3    H217566   3.837   7.473   3.001
 5875TIP3   OH217567   2.054   2.468   1.036
 5875TIP3    H117568   2.004   2.549   1.038
 5875TIP3    H217569   2.035   2.426   1.121
 5876TIP3   OH217570   1.600   5.323   4.448
 5876TIP3    H117571   1.646   5.244   4.420
 5876TIP3    H217572   1.564   5.360   4.367
 5877TIP3   OH217573   6.453   5.576   0.355
 5877TIP3    H117574   6.415   5.637   0.418
 5877TIP3    H217575   6.383   5.561   0.291
 5878TIP3   OH217576   2.609   1.666   4.267
 5878TIP3    H117577   2.572   1.720   4.197
 5878TIP3    H217578   2.656   1.728   4.323
 5879TIP3   OH217579   0.829   4.206   4.967
 5879TIP3    H117580   0.835   4.141   5.037
 5879TIP3    H217581   0.750   4.183   4.919
 5880TIP3   OH217582   0.173   6.726   6.460
 5880TIP3    H117583   0.085   6.752   6.487
 5880TIP3    H217584   0.210   6.804   6.419
 5881TIP3   OH217585   4.211   6.269   5.604
 5881TIP3    H117586   4.283   6.214   5.575
 5881TIP3    H217587   4.237   6.358   5.580
 5882TIP3   OH217588   0.019   5.767   2.277
 5882TIP3    H117589   0.062   5.685   2.304
 5882TIP3    H217590   0.090   5.821   2.244
 5883TIP3   OH217591   0.528   2.836   3.725
 5883TIP3    H117592   0.546   2.756   3.774
 5883TIP3    H217593   0.437   2.827   3.698
 5884TIP3   OH217594   1.300   3.408   3.849
 5884TIP3    H117595   1.325   3.479   3.907
 5884TIP3    H217596   1.229   3.443   3.796
 5885TIP3   OH217597   4.549   3.689   2.202
 5885TIP3    H117598   4.571   3.597   2.186
 5885TIP3    H217599   4.633   3.735   2.201
 5886TIP3   OH217600   5.222   6.368   1.984
 5886TIP3    H117601   5.259   6.445   2.027
 5886TIP3    H217602   5.243   6.296   2.043
 5887TIP3   OH217603   5.435   7.179   1.492
 5887TIP3    H117604   5.391   7.255   1.530
 5887TIP3    H217605   5.528   7.197   1.502
 5888TIP3   OH217606   0.499   6.110   3.997
 5888TIP3    H117607   0.470   6.125   3.907
 5888TIP3    H217608   0.435   6.048   4.033
 5889TIP3   OH217609   5.483   6.742   2.375
 5889TIP3    H117610   5.531   6.819   2.346
 5889TIP3    H217611   5.515   6.671   2.319
 5890TIP3   OH217612   2.112   0.705   1.210
 5890TIP3    H117613   2.116   0.656   1.128
 5890TIP3    H217614   2.187   0.764   1.207
 5891TIP3   OH217615   0.346   5.368   2.346
 5891TIP3    H117616   0.287   5.295   2.330
 5891TIP3    H217617   0.300   5.424   2.409
 5892TIP3   OH217618   5.435   2.400   1.332
 5892TIP3    H117619   5.437   2.491   1.303
 5892TIP3    H217620   5.455   2.405   1.425
 5893TIP3   OH217621   1.724   7.426   0.391
 5893TIP3    H117622   1.716   7.522   0.396
 5893TIP3    H217623   1.790   7.404   0.456
 5894TIP3   OH217624   5.814   5.539   6.108
 5894TIP3    H117625   5.801   5.615   6.052
 5894TIP3    H217626   5.831   5.576   6.195
 5895TIP3   OH217627   7.649   6.368   5.015
 5895TIP3    H117628   7.631   6.397   4.925
 5895TIP3    H217629   7.731   6.320   5.008
 5896TIP3   OH217630   3.242   1.730   1.076
 5896TIP3    H117631   3.201   1.666   1.018
 5896TIP3    H217632   3.264   1.804   1.019
 5897TIP3   OH217633   6.432   1.404   0.937
 5897TIP3    H117634   6.420   1.443   0.850
 5897TIP3    H217635   6.361   1.340   0.944
 5898TIP3   OH217636   8.064   2.734   5.725
 5898TIP3    H117637   8.023   2.736   5.638
 5898TIP3    H217638   8.147   2.690   5.711
 5899TIP3   OH217639   7.710   4.927   1.845
 5899TIP3    H117640   7.675   4.956   1.930
 5899TIP3    H217641   7.697   4.833   1.845
 5900TIP3   OH217642   2.654   5.816   2.514
 5900TIP3    H117643   2.643   5.749   2.446
 5900TIP3    H217644   2.604   5.782   2.589
 5901TIP3   OH217645   7.810   5.218   3.661
 5901TIP3    H117646   7.818   5.297   3.715
 5901TIP3    H217647   7.898   5.180   3.661
 5902TIP3   OH217648   3.208   4.985   1.130
 5902TIP3    H117649   3.233   4.930   1.204
 5902TIP3    H217650   3.141   5.044   1.166
 5903TIP3   OH217651   0.511   5.949   5.640
 5903TIP3    H117652   0.477   5.927   5.727
 5903TIP3    H217653   0.606   5.940   5.648
 5904TIP3   OH217654   5.164   7.778   6.706
 5904TIP3    H117655   5.201   7.739   6.627
 5904TIP3    H217656   5.197   7.868   6.706
 5905TIP3   OH217657   3.644   6.175   2.160
 5905TIP3    H117658   3.598   6.105   2.207
 5905TIP3    H217659   3.687   6.130   2.087
 5906TIP3   OH217660   6.188   3.876   4.343
 5906TIP3    H117661   6.250   3.945   4.320
 5906TIP3    H217662   6.141   3.911   4.419
 5907TIP3   OH217663   0.296   5.349   3.550
 5907TIP3    H117664   0.288   5.308   3.636
 5907TIP3    H217665   0.276   5.441   3.565
 5908TIP3   OH217666   3.554   4.758   4.571
 5908TIP3    H117667   3.554   4.854   4.572
 5908TIP3    H217668   3.647   4.734   4.568
 5909TIP3   OH217669   4.351   7.316   4.202
 5909TIP3    H117670   4.292   7.263   4.256
 5909TIP3    H217671   4.353   7.270   4.118
 5910TIP3   OH217672   3.533   4.644   0.669
 5910TIP3    H117673   3.467   4.696   0.715
 5910TIP3    H217674   3.617   4.674   0.705
 5911TIP3   OH217675   3.371   1.347   3.134
 5911TIP3    H117676   3.384   1.395   3.052
 5911TIP3    H217677   3.321   1.269   3.109
 5912TIP3   OH217678   6.744   0.709   3.552
 5912TIP3    H117679   6.785   0.623   3.548
 5912TIP3    H217680   6.650   0.691   3.546
 5913TIP3   OH217681   2.885   2.434   6.085
 5913TIP3    H117682   2.956   2.484   6.126
 5913TIP3    H217683   2.805   2.473   6.121
 5914TIP3   OH217684   7.133   1.944   1.716
 5914TIP3    H117685   7.140   2.039   1.706
 5914TIP3    H217686   7.196   1.923   1.785
 5915TIP3   OH217687   6.816   4.135   6.457
 5915TIP3    H117688   6.790   4.056   6.409
 5915TIP3    H217689   6.767   4.130   6.539
 5916TIP3   OH217690   5.301   5.271   1.646
 5916TIP3    H117691   5.269   5.334   1.581
 5916TIP3    H217692   5.224   5.220   1.670
 5917TIP3   OH217693   1.904   1.746   4.847
 5917TIP3    H117694   1.993   1.728   4.875
 5917TIP3    H217695   1.850   1.686   4.899
 5918TIP3   OH217696   3.242   4.384   4.278
 5918TIP3    H117697   3.259   4.312   4.339
 5918TIP3    H217698   3.149   4.375   4.257
 5919TIP3   OH217699   4.520   6.231   6.339
 5919TIP3    H117700   4.540   6.202   6.427
 5919TIP3    H217701   4.480   6.155   6.296
 5920TIP3   OH217702   7.911   5.387   4.606
 5920TIP3    H117703   7.939   5.357   4.519
 5920TIP3    H217704   7.829   5.433   4.590
 5921TIP3   OH217705   7.331   0.049   2.184
 5921TIP3    H117706   7.377   0.014   2.260
 5921TIP3    H217707   7.386   0.024   2.110
 5922TIP3   OH217708   2.164   5.169   0.339
 5922TIP3    H117709   2.216   5.209   0.408
 5922TIP3    H217710   2.204   5.201   0.258
 5923TIP3   OH217711   1.055   5.856   6.683
 5923TIP3    H117712   1.100   5.778   6.717
 5923TIP3    H217713   1.057   5.846   6.588
 5924TIP3   OH217714   1.852   7.665   4.926
 5924TIP3    H117715   1.947   7.656   4.930
 5924TIP3    H217716   1.821   7.626   5.008
 5925TIP3   OH217717   6.962   6.644   4.836
 5925TIP3    H117718   7.009   6.686   4.764
 5925TIP3    H217719   6.973   6.550   4.819
 5926TIP3   OH217720   6.353   5.697   4.794
 5926TIP3    H117721   6.305   5.621   4.762
 5926TIP3    H217722   6.423   5.711   4.730
 5927TIP3   OH217723   3.883   6.859   1.618
 5927TIP3    H117724   3.911   6.950   1.626
 5927TIP3    H217725   3.922   6.815   1.694
 5928TIP3   OH217726   5.585   2.366   0.464
 5928TIP3    H117727   5.636   2.422   0.406
 5928TIP3    H217728   5.650   2.306   0.502
 5929TIP3   OH217729   5.890   0.613   4.556
 5929TIP3    H117730   5.980   0.595   4.583
 5929TIP3    H217731   5.885   0.708   4.551
 5930TIP3   OH217732   5.975   3.907   3.541
 5930TIP3    H117733   6.003   3.979   3.598
 5930TIP3    H217734   5.917   3.948   3.477
 5931TIP3   OH217735   6.068   7.227   5.338
 5931TIP3    H117736   6.157   7.235   5.304
 5931TIP3    H217737   6.051   7.312   5.379
 5932TIP3   OH217738   5.377   1.985   5.204
 5932TIP3    H117739   5.390   2.023   5.117
 5932TIP3    H217740   5.306   2.036   5.243
 5933TIP3   OH217741   1.911   0.164   6.248
 5933TIP3    H117742   1.918   0.240   6.189
 5933TIP3    H217743   1.829   0.121   6.223
 5934TIP3   OH217744   6.848   5.225   6.461
 5934TIP3    H117745   6.772   5.270   6.426
 5934TIP3    H217746   6.917   5.292   6.461
 5935TIP3   OH217747   0.858   7.805   3.828
 5935TIP3    H117748   0.919   7.854   3.883
 5935TIP3    H217749   0.908   7.729   3.798
 5936TIP3   OH217750   6.867   0.498   1.296
 5936TIP3    H117751   6.906   0.485   1.209
 5936TIP3    H217752   6.823   0.415   1.315
 5937TIP3   OH217753   1.694   6.319   5.368
 5937TIP3    H117754   1.730   6.234   5.393
 5937TIP3    H217755   1.738   6.382   5.425
 5938TIP3   OH217756   0.972   5.003   0.093
 5938TIP3    H117757   0.897   5.063   0.096
 5938TIP3    H217758   1.019   5.018   0.175
 5939TIP3   OH217759   7.763   3.321   3.019
 5939TIP3    H117760   7.725   3.405   2.993
 5939TIP3    H217761   7.799   3.285   2.938
 5940TIP3   OH217762   0.634  -0.010   1.463
 5940TIP3    H117763   0.724   0.022   1.475
 5940TIP3    H217764   0.617   0.002   1.369
 5941TIP3   OH217765   2.905   6.464   1.529
 5941TIP3    H117766   2.865   6.478   1.444
 5941TIP3    H217767   2.849   6.398   1.572
 5942TIP3   OH217768   4.507   4.999   5.206
 5942TIP3    H117769   4.478   4.963   5.290
 5942TIP3    H217770   4.432   5.049   5.174
 5943TIP3   OH217771   0.346   0.856   5.478
 5943TIP3    H117772   0.363   0.805   5.399
 5943TIP3    H217773   0.294   0.798   5.533
 5944TIP3   OH217774   0.034   3.396   2.762
 5944TIP3    H117775   0.058   3.378   2.853
 5944TIP3    H217776   0.118   3.405   2.717
 5945TIP3   OH217777   4.247   6.391   4.839
 5945TIP3    H117778   4.225   6.439   4.919
 5945TIP3    H217779   4.190   6.429   4.772
 5946TIP3   OH217780   1.349   0.612   2.569
 5946TIP3    H117781   1.419   0.553   2.543
 5946TIP3    H217782   1.380   0.654   2.649
 5947TIP3   OH217783   0.106   6.884   0.273
 5947TIP3    H117784   0.166   6.955   0.250
 5947TIP3    H217785   0.136   6.854   0.359
 5948TIP3   OH217786   8.094   4.181   4.956
 5948TIP3    H117787   8.105   4.245   4.886
 5948TIP3    H217788   8.007   4.200   4.993
 5949TIP3   OH217789   7.644   2.925   4.370
 5949TIP3    H117790   7.717   2.865   4.356
 5949TIP3    H217791   7.599   2.890   4.447
 5950TIP3   OH217792   7.171   5.766   1.481
 5950TIP3    H117793   7.233   5.837   1.459
 5950TIP3    H217794   7.227   5.695   1.513
 5951TIP3   OH217795   4.949   3.723   2.561
 5951TIP3    H117796   4.936   3.664   2.635
 5951TIP3    H217797   5.031   3.693   2.521
 5952TIP3   OH217798   4.941   1.397   0.486
 5952TIP3    H117799   4.909   1.485   0.505
 5952TIP3    H217800   4.936   1.351   0.570
 5953TIP3   OH217801   1.132   0.373   4.347
 5953TIP3    H117802   1.117   0.468   4.342
 5953TIP3    H217803   1.049   0.335   4.316
 5954TIP3   OH217804   7.291   3.333   5.762
 5954TIP3    H117805   7.358   3.270   5.737
 5954TIP3    H217806   7.329   3.418   5.742
 5955TIP3   OH217807   2.743   5.044   4.037
 5955TIP3    H117808   2.736   5.067   3.944
 5955TIP3    H217809   2.802   4.969   4.038
 5956TIP3   OH217810   0.471   7.231   0.062
 5956TIP3    H117811   0.503   7.141   0.056
 5956TIP3    H217812   0.540   7.283   0.020
 5957TIP3   OH217813   8.086   1.553   5.093
 5957TIP3    H117814   8.174   1.559   5.057
 5957TIP3    H217815   8.036   1.621   5.046
 5958TIP3   OH217816   7.419   2.687   2.270
 5958TIP3    H117817   7.325   2.674   2.268
 5958TIP3    H217818   7.441   2.717   2.181
 5959TIP3   OH217819   2.239   3.706   0.110
 5959TIP3    H117820   2.269   3.734   0.197
 5959TIP3    H217821   2.271   3.775   0.051
 5960TIP3   OH217822   3.502   4.633   1.249
 5960TIP3    H117823   3.429   4.694   1.251
 5960TIP3    H217824   3.520   4.614   1.342
 5961TIP3   OH217825   5.558   0.734   0.889
 5961TIP3    H117826   5.503   0.656   0.879
 5961TIP3    H217827   5.498   0.808   0.877
 5962TIP3   OH217828   6.748   7.198   4.595
 5962TIP3    H117829   6.674   7.256   4.577
 5962TIP3    H217830   6.774   7.165   4.508
 5963TIP3   OH217831   6.544   1.103   2.970
 5963TIP3    H117832   6.623   1.057   2.940
 5963TIP3    H217833   6.573   1.150   3.049
 5964TIP3   OH217834   0.491   6.721   4.214
 5964TIP3    H117835   0.530   6.645   4.256
 5964TIP3    H217836   0.423   6.750   4.275
 5965TIP3   OH217837   4.682   2.189   2.594
 5965TIP3    H117838   4.679   2.234   2.510
 5965TIP3    H217839   4.710   2.257   2.656
 5966TIP3   OH217840   0.605   5.564   3.585
 5966TIP3    H117841   0.533   5.624   3.604
 5966TIP3    H217842   0.660   5.566   3.663
 5967TIP3   OH217843   4.948   1.839   0.714
 5967TIP3    H117844   4.922   1.869   0.627
 5967TIP3    H217845   5.043   1.826   0.708
 5968TIP3   OH217846   0.718   3.382   3.758
 5968TIP3    H117847   0.670   3.301   3.740
 5968TIP3    H217848   0.655   3.452   3.741
 5969TIP3   OH217849   1.758   7.457   5.115
 5969TIP3    H117850   1.814   7.419   5.182
 5969TIP3    H217851   1.684   7.396   5.107
 5970TIP3   OH217852   7.717   2.324   2.093
 5970TIP3    H117853   7.791   2.363   2.140
 5970TIP3    H217854   7.723   2.360   2.005
 5971TIP3   OH217855   4.736   4.803   3.202
 5971TIP3    H117856   4.661   4.860   3.216
 5971TIP3    H217857   4.810   4.863   3.192
 5972TIP3   OH217858   4.476   2.395   3.329
 5972TIP3    H117859   4.427   2.398   3.247
 5972TIP3    H217860   4.562   2.359   3.304
 5973TIP3   OH217861   4.855   7.534   1.427
 5973TIP3    H117862   4.778   7.587   1.447
 5973TIP3    H217863   4.832   7.487   1.346
 5974TIP3   OH217864   1.451   1.974   0.405
 5974TIP3    H117865   1.538   1.963   0.367
 5974TIP3    H217866   1.444   1.904   0.470
 5975TIP3   OH217867   1.100   5.761   5.006
 5975TIP3    H117868   1.147   5.798   4.932
 5975TIP3    H217869   1.124   5.668   5.006
 5976TIP3   OH217870   2.373   7.309   2.122
 5976TIP3    H117871   2.314   7.355   2.182
 5976TIP3    H217872   2.320   7.292   2.044
 5977TIP3   OH217873   0.384   3.506   5.059
 5977TIP3    H117874   0.423   3.536   5.142
 5977TIP3    H217875   0.317   3.444   5.086
 5978TIP3   OH217876   5.327   6.251   4.358
 5978TIP3    H117877   5.355   6.160   4.367
 5978TIP3    H217878   5.394   6.302   4.404
 5979TIP3   OH217879   7.756   4.288   1.198
 5979TIP3    H117880   7.789   4.360   1.253
 5979TIP3    H217881   7.661   4.301   1.197
 5980TIP3   OH217882   1.736   5.370   0.784
 5980TIP3    H117883   1.693   5.317   0.851
 5980TIP3    H217884   1.668   5.387   0.719
 5981TIP3   OH217885   1.496   6.524   3.741
 5981TIP3    H117886   1.490   6.619   3.750
 5981TIP3    H217887   1.566   6.511   3.677
 5982TIP3   OH217888   5.229   7.052   0.836
 5982TIP3    H117889   5.155   7.108   0.810
 5982TIP3    H217890   5.191   6.965   0.847
 5983TIP3   OH217891   0.366   4.450   0.802
 5983TIP3    H117892   0.425   4.428   0.729
 5983TIP3    H217893   0.280   4.456   0.762
 5984TIP3   OH217894   0.485   5.475   4.935
 5984TIP3    H117895   0.401   5.449   4.972
 5984TIP3    H217896   0.542   5.485   5.011
 5985TIP3   OH217897   4.815   4.688   5.004
 5985TIP3    H117898   4.772   4.682   4.919
 5985TIP3    H217899   4.841   4.779   5.011
 5986TIP3   OH217900   1.750   5.957   6.210
 5986TIP3    H117901   1.791   6.040   6.184
 5986TIP3    H217902   1.717   5.920   6.128
 5987TIP3   OH217903   6.967   6.683   6.344
 5987TIP3    H117904   6.987   6.775   6.363
 5987TIP3    H217905   6.897   6.687   6.279
 5988TIP3   OH217906   4.695   2.267   0.772
 5988TIP3    H117907   4.616   2.286   0.824
 5988TIP3    H217908   4.670   2.290   0.682
 5989TIP3   OH217909   1.767   7.002   3.726
 5989TIP3    H117910   1.701   7.071   3.722
 5989TIP3    H217911   1.802   7.007   3.815
 5990TIP3   OH217912   7.546   3.851   2.698
 5990TIP3    H117913   7.568   3.759   2.684
 5990TIP3    H217914   7.575   3.895   2.618
 5991TIP3   OH217915   3.923   5.441   2.159
 5991TIP3    H117916   3.891   5.439   2.250
 5991TIP3    H217917   3.952   5.351   2.143
 5992TIP3   OH217918   1.420   1.176   0.949
 5992TIP3    H117919   1.489   1.240   0.964
 5992TIP3    H217920   1.368   1.177   1.030
 5993TIP3   OH217921   3.241   6.873   5.393
 5993TIP3    H117922   3.208   6.785   5.414
 5993TIP3    H217923   3.307   6.858   5.325
 5994TIP3   OH217924   8.223   4.059   2.890
 5994TIP3    H117925   8.300   4.003   2.896
 5994TIP3    H217926   8.220   4.086   2.798
 5995TIP3   OH217927   8.100   0.623   6.384
 5995TIP3    H117928   8.163   0.680   6.429
 5995TIP3    H217929   8.142   0.600   6.301
 5996TIP3   OH217930   0.937   1.883   5.413
 5996TIP3    H117931   0.927   1.937   5.335
 5996TIP3    H217932   0.991   1.809   5.385
 5997TIP3   OH217933   0.630   4.510   1.941
 5997TIP3    H117934   0.714   4.484   1.979
 5997TIP3    H217935   0.635   4.605   1.934
 5998TIP3   OH217936   0.909   2.291   6.407
 5998TIP3    H117937   0.854   2.220   6.441
 5998TIP3    H217938   0.946   2.332   6.486
 5999TIP3   OH217939   3.272   0.403   2.412
 5999TIP3    H117940   3.332   0.337   2.379
 5999TIP3    H217941   3.209   0.415   2.342
 6000TIP3   OH217942   1.670   0.638   5.975
 6000TIP3    H117943   1.679   0.655   6.069
 6000TIP3    H217944   1.628   0.717   5.940
 6001TIP3   OH217945   3.348   4.599   4.485
 6001TIP3    H117946   3.390   4.530   4.435
 6001TIP3    H217947   3.419   4.642   4.533
 6002TIP3   OH217948   3.953   5.866   1.144
 6002TIP3    H117949   3.909   5.820   1.215
 6002TIP3    H217950   3.886   5.922   1.105
 6003TIP3   OH217951   5.218   5.301   3.637
 6003TIP3    H117952   5.258   5.216   3.648
 6003TIP3    H217953   5.285   5.355   3.596
 6004TIP3   OH217954   8.225   6.085   0.347
 6004TIP3    H117955   8.167   6.033   0.292
 6004TIP3    H217956   8.249   6.160   0.293
 6005TIP3   OH217957   6.191   7.254   0.876
 6005TIP3    H117958   6.139   7.333   0.893
 6005TIP3    H217959   6.208   7.218   0.963
 6006TIP3   OH217960   8.186   7.083   0.615
 6006TIP3    H117961   8.191   7.010   0.677
 6006TIP3    H217962   8.108   7.064   0.562
 6007TIP3   OH217963   1.916   5.655   0.400
 6007TIP3    H117964   1.822   5.660   0.382
 6007TIP3    H217965   1.935   5.733   0.452
 6008TIP3   OH217966   0.858   7.439   0.193
 6008TIP3    H117967   0.848   7.436   0.288
 6008TIP3    H217968   0.919   7.512   0.177
 6009TIP3   OH217969   2.243   0.317   4.969
 6009TIP3    H117970   2.288   0.367   5.037
 6009TIP3    H217971   2.150   0.333   4.985
 6010TIP3   OH217972   0.200   7.286   5.550
 6010TIP3    H117973   0.188   7.194   5.530
 6010TIP3    H217974   0.292   7.293   5.577
 6011TIP3   OH217975   0.090   5.451   5.714
 6011TIP3    H117976   0.153   5.458   5.786
 6011TIP3    H217977   0.144   5.449   5.635
 6012TIP3   OH217978   1.679   6.533   6.199
 6012TIP3    H117979   1.692   6.627   6.204
 6012TIP3    H217980   1.721   6.507   6.117
 6013TIP3   OH217981   7.191   4.724   0.967
 6013TIP3    H117982   7.276   4.761   0.944
 6013TIP3    H217983   7.136   4.800   0.989
 6014TIP3   OH217984   5.983   4.532   0.732
 6014TIP3    H117985   6.059   4.578   0.766
 6014TIP3    H217986   6.006   4.510   0.642
 6015TIP3   OH217987   2.253   0.526   5.321
 6015TIP3    H117988   2.208   0.577   5.254
 6015TIP3    H217989   2.307   0.590   5.368
 6016TIP3   OH217990   2.986   3.740   4.466
 6016TIP3    H117991   2.992   3.832   4.494
 6016TIP3    H217992   2.975   3.745   4.371
 6017TIP3   OH217993   7.463   6.352   1.525
 6017TIP3    H117994   7.526   6.293   1.567
 6017TIP3    H217995   7.480   6.437   1.564
 6018TIP3   OH217996   8.188   5.234   6.033
 6018TIP3    H117997   8.148   5.226   5.946
 6018TIP3    H217998   8.120   5.205   6.093
 6019TIP3   OH217999   0.185   7.642   1.325
 6019TIP3    H118000   0.105   7.627   1.374
 6019TIP3    H218001   0.245   7.574   1.357
 6020TIP3   OH218002   6.502   0.865   5.807
 6020TIP3    H118003   6.555   0.904   5.876
 6020TIP3    H218004   6.549   0.884   5.726
 6021TIP3   OH218005   7.101   3.179   3.321
 6021TIP3    H118006   7.010   3.209   3.329
 6021TIP3    H218007   7.145   3.250   3.273
 6022TIP3   OH218008   6.999   7.432   2.260
 6022TIP3    H118009   7.074   7.413   2.316
 6022TIP3    H218010   6.960   7.511   2.297
 6023TIP3   OH218011   3.111   1.142   4.043
 6023TIP3    H118012   3.139   1.146   3.951
 6023TIP3    H218013   3.151   1.063   4.077
 6024TIP3   OH218014   7.609   6.652   0.889
 6024TIP3    H118015   7.575   6.681   0.974
 6024TIP3    H218016   7.542   6.593   0.854
 6025TIP3   OH218017   2.302   3.652   4.050
 6025TIP3    H118018   2.254   3.577   4.015
 6025TIP3    H218019   2.394   3.627   4.045
 6026TIP3   OH218020   1.871   7.744   6.435
 6026TIP3    H118021   1.862   7.653   6.409
 6026TIP3    H218022   1.921   7.785   6.364
 6027TIP3   OH218023   7.726   7.465   0.662
 6027TIP3    H118024   7.742   7.370   0.659
 6027TIP3    H218025   7.679   7.478   0.744
 6028TIP3   OH218026   5.972   5.231   3.941
 6028TIP3    H118027   5.987   5.325   3.935
 6028TIP3    H218028   6.048   5.197   3.990
 6029TIP3   OH218029   2.128   6.504   4.664
 6029TIP3    H118030   2.080   6.436   4.713
 6029TIP3    H218031   2.177   6.456   4.598
 6030TIP3   OH218032   6.406   0.226   5.324
 6030TIP3    H118033   6.327   0.255   5.369
 6030TIP3    H218034   6.472   0.293   5.344
 6031TIP3   OH218035   0.211   5.390   5.018
 6031TIP3    H118036   0.176   5.365   5.103
 6031TIP3    H218037   0.160   5.467   4.992
 6032TIP3   OH218038   8.123   7.204   4.264
 6032TIP3    H118039   8.196   7.212   4.203
 6032TIP3    H218040   8.046   7.229   4.212
 6033TIP3   OH218041   2.711   2.152   6.296
 6033TIP3    H118042   2.765   2.129   6.372
 6033TIP3    H218043   2.621   2.138   6.326
 6034TIP3   OH218044   2.424   2.217   3.573
 6034TIP3    H118045   2.472   2.208   3.655
 6034TIP3    H218046   2.424   2.311   3.554
 6035TIP3   OH218047   0.801   7.066   3.236
 6035TIP3    H118048   0.801   6.971   3.232
 6035TIP3    H218049   0.753   7.094   3.159
 6036TIP3   OH218050   4.023   2.257   0.713
 6036TIP3    H118051   4.018   2.162   0.702
 6036TIP3    H218052   3.995   2.272   0.803
 6037TIP3   OH218053   1.583   3.769   4.697
 6037TIP3    H118054   1.524   3.732   4.631
 6037TIP3    H218055   1.651   3.703   4.708
 6038TIP3   OH218056   7.901   3.141   0.167
 6038TIP3    H118057   7.890   3.164   0.075
 6038TIP3    H218058   7.946   3.217   0.205
 6039TIP3   OH218059   4.860   1.648   4.415
 6039TIP3    H118060   4.847   1.715   4.482
 6039TIP3    H218061   4.784   1.590   4.424
 6040TIP3   OH218062   7.155   6.700   0.375
 6040TIP3    H118063   7.115   6.750   0.447
 6040TIP3    H218064   7.110   6.616   0.377
 6041TIP3   OH218065   0.444   5.742   4.716
 6041TIP3    H118066   0.484   5.824   4.747
 6041TIP3    H218067   0.473   5.676   4.777
 6042TIP3   OH218068   7.931   4.732   5.769
 6042TIP3    H118069   7.896   4.785   5.842
 6042TIP3    H218070   7.853   4.697   5.726
 6043TIP3   OH218071   3.855   3.852   6.423
 6043TIP3    H118072   3.834   3.853   6.329
 6043TIP3    H218073   3.945   3.884   6.428
 6044TIP3   OH218074   7.692   3.793   4.227
 6044TIP3    H118075   7.642   3.719   4.262
 6044TIP3    H218076   7.778   3.756   4.206
 6045TIP3   OH218077   5.402   4.962   5.258
 6045TIP3    H118078   5.393   5.006   5.343
 6045TIP3    H218079   5.370   5.026   5.194
 6046TIP3   OH218080   4.920   7.070   0.112
 6046TIP3    H118081   4.941   6.977   0.101
 6046TIP3    H218082   4.836   7.081   0.069
 6047TIP3   OH218083   7.681   1.902   2.364
 6047TIP3    H118084   7.740   1.943   2.301
 6047TIP3    H218085   7.612   1.967   2.378
 6048TIP3   OH218086   1.353   6.672   3.175
 6048TIP3    H118087   1.372   6.738   3.108
 6048TIP3    H218088   1.319   6.722   3.249
 6049TIP3   OH218089   5.279   1.409   2.714
 6049TIP3    H118090   5.255   1.400   2.621
 6049TIP3    H218091   5.207   1.367   2.761
 6050TIP3   OH218092   7.830   7.629   3.612
 6050TIP3    H118093   7.784   7.572   3.674
 6050TIP3    H218094   7.846   7.574   3.536
 6051TIP3   OH218095   2.417   3.690   3.694
 6051TIP3    H118096   2.379   3.666   3.610
 6051TIP3    H218097   2.511   3.701   3.676
 6052TIP3   OH218098   0.876   0.995   1.918
 6052TIP3    H118099   0.839   1.077   1.950
 6052TIP3    H218100   0.953   0.979   1.973
 6053TIP3   OH218101   5.244   2.239   2.414
 6053TIP3    H118102   5.289   2.168   2.367
 6053TIP3    H218103   5.152   2.212   2.415
 6054TIP3   OH218104   3.635   2.460   0.149
 6054TIP3    H118105   3.697   2.402   0.105
 6054TIP3    H218106   3.669   2.548   0.132
 6055TIP3   OH218107   3.956   3.290   6.094
 6055TIP3    H118108   4.011   3.361   6.128
 6055TIP3    H218109   3.987   3.212   6.141
 6056TIP3   OH218110   2.021   1.717   3.740
 6056TIP3    H118111   1.928   1.696   3.734
 6056TIP3    H218112   2.057   1.694   3.655
 6057TIP3   OH218113   3.721   6.075   1.338
 6057TIP3    H118114   3.697   6.006   1.400
 6057TIP3    H218115   3.770   6.138   1.390
 6058TIP3   OH218116   2.066   7.025   3.925
 6058TIP3    H118117   2.085   7.100   3.870
 6058TIP3    H218118   2.044   7.063   4.011
 6059TIP3   OH218119   0.517   4.242   6.153
 6059TIP3    H118120   0.490   4.327   6.119
 6059TIP3    H218121   0.474   4.235   6.239
 6060TIP3   OH218122   3.485   3.255   3.154
 6060TIP3    H118123   3.407   3.288   3.199
 6060TIP3    H218124   3.485   3.301   3.070
 6061TIP3   OH218125   0.202   3.789   4.753
 6061TIP3    H118126   0.257   3.771   4.830
 6061TIP3    H218127   0.142   3.715   4.749
 6062TIP3   OH218128   0.797   4.045   0.599
 6062TIP3    H118129   0.703   4.028   0.596
 6062TIP3    H218130   0.805   4.124   0.653
 6063TIP3   OH218131   0.116   1.183   0.253
 6063TIP3    H118132   0.027   1.213   0.237
 6063TIP3    H218133   0.148   1.156   0.167
 6064TIP3   OH218134   1.630   4.619   2.601
 6064TIP3    H118135   1.568   4.555   2.637
 6064TIP3    H218136   1.692   4.566   2.552
 6065TIP3   OH218137   7.965   0.484   5.784
 6065TIP3    H118138   7.971   0.575   5.813
 6065TIP3    H218139   8.045   0.443   5.817
 6066TIP3   OH218140   7.454   6.386   3.771
 6066TIP3    H118141   7.418   6.316   3.826
 6066TIP3    H218142   7.405   6.379   3.689
 6067TIP3   OH218143   1.213   2.362   3.886
 6067TIP3    H118144   1.194   2.450   3.918
 6067TIP3    H218145   1.224   2.309   3.965
 6068TIP3   OH218146   6.722   6.287   1.508
 6068TIP3    H118147   6.631   6.258   1.512
 6068TIP3    H218148   6.748   6.270   1.418
 6069TIP3   OH218149   7.291   2.297   0.601
 6069TIP3    H118150   7.242   2.267   0.524
 6069TIP3    H218151   7.273   2.231   0.668
 6070TIP3   OH218152   6.471   5.032   5.752
 6070TIP3    H118153   6.470   4.966   5.682
 6070TIP3    H218154   6.393   5.085   5.736
 6071TIP3   OH218155   3.874   4.626   5.227
 6071TIP3    H118156   3.948   4.620   5.167
 6071TIP3    H218157   3.836   4.712   5.211
 6072TIP3   OH218158   8.272   4.071   0.281
 6072TIP3    H118159   8.260   4.129   0.206
 6072TIP3    H218160   8.200   4.008   0.274
 6073TIP3   OH218161   8.079   5.362   2.322
 6073TIP3    H118162   8.158   5.336   2.369
 6073TIP3    H218163   8.102   5.444   2.279
 6074TIP3   OH218164   0.506   4.847   5.654
 6074TIP3    H118165   0.449   4.891   5.717
 6074TIP3    H218166   0.528   4.764   5.695
 6075TIP3   OH218167   3.250   0.943   4.616
 6075TIP3    H118168   3.213   1.022   4.577
 6075TIP3    H218169   3.236   0.875   4.549
 6076TIP3   OH218170   1.067   4.590   0.701
 6076TIP3    H118171   1.010   4.648   0.752
 6076TIP3    H218172   1.117   4.649   0.645
 6077TIP3   OH218173   1.565   2.146   2.615
 6077TIP3    H118174   1.541   2.238   2.623
 6077TIP3    H218175   1.505   2.111   2.550
 6078TIP3   OH218176   0.196   0.144   5.284
 6078TIP3    H118177   0.245   0.195   5.348
 6078TIP3    H218178   0.190   0.057   5.321
 6079TIP3   OH218179   7.716   0.192   1.342
 6079TIP3    H118180   7.698   0.182   1.435
 6079TIP3    H218181   7.754   0.107   1.316
 6080TIP3   OH218182   4.380   5.780   2.692
 6080TIP3    H118183   4.475   5.773   2.678
 6080TIP3    H218184   4.354   5.856   2.641
 6081TIP3   OH218185   5.737   6.371   4.967
 6081TIP3    H118186   5.653   6.330   4.947
 6081TIP3    H218187   5.788   6.361   4.886
 6082TIP3   OH218188   7.061   0.991   5.966
 6082TIP3    H118189   7.140   0.938   5.962
 6082TIP3    H218190   7.030   0.982   6.056
 6083TIP3   OH218191   7.050   0.618   5.790
 6083TIP3    H118192   7.127   0.567   5.814
 6083TIP3    H218193   7.084   0.706   5.773
 6084TIP3   OH218194   6.027   5.844   5.795
 6084TIP3    H118195   5.951   5.899   5.776
 6084TIP3    H218196   5.990   5.759   5.818
 6085TIP3   OH218197   2.601   7.722   3.746
 6085TIP3    H118198   2.518   7.689   3.710
 6085TIP3    H218199   2.588   7.817   3.752
 6086TIP3   OH218200   4.482   1.426   2.063
 6086TIP3    H118201   4.519   1.480   2.133
 6086TIP3    H218202   4.487   1.481   1.985
 6087TIP3   OH218203   3.438   4.902   4.976
 6087TIP3    H118204   3.494   4.961   4.925
 6087TIP3    H218205   3.363   4.885   4.918
 6088TIP3   OH218206   5.053   0.582   1.865
 6088TIP3    H118207   4.972   0.631   1.881
 6088TIP3    H218208   5.114   0.614   1.932
 6089TIP3   OH218209   2.263   5.093   3.604
 6089TIP3    H118210   2.204   5.046   3.547
 6089TIP3    H218211   2.235   5.184   3.599
 6090TIP3   OH218212   0.742   2.739   6.159
 6090TIP3    H118213   0.815   2.791   6.192
 6090TIP3    H218214   0.691   2.800   6.106
 6091TIP3   OH218215   1.975   1.326   4.516
 6091TIP3    H118216   2.008   1.394   4.575
 6091TIP3    H218217   2.044   1.315   4.451
 6092TIP3   OH218218   4.587   1.727   5.449
 6092TIP3    H118219   4.501   1.703   5.483
 6092TIP3    H218220   4.588   1.823   5.451
 6093TIP3   OH218221   6.039   4.451   3.647
 6093TIP3    H118222   6.051   4.505   3.570
 6093TIP3    H218223   6.018   4.513   3.717
 6094TIP3   OH218224   4.181   3.931   3.087
 6094TIP3    H118225   4.210   4.008   3.038
 6094TIP3    H218226   4.219   3.857   3.038
 6095TIP3   OH218227   3.763   2.485   1.587
 6095TIP3    H118228   3.714   2.447   1.660
 6095TIP3    H218229   3.784   2.574   1.617
 6096TIP3   OH218230   7.768   0.032   5.729
 6096TIP3    H118231   7.864   0.024   5.726
 6096TIP3    H218232   7.749   0.054   5.820
 6097TIP3   OH218233   2.022   3.777   0.249
 6097TIP3    H118234   2.075   3.734   0.182
 6097TIP3    H218235   1.975   3.705   0.292
 6098TIP3   OH218236   3.942   2.297   1.684
 6098TIP3    H118237   3.875   2.351   1.643
 6098TIP3    H218238   3.992   2.261   1.611
 6099TIP3   OH218239   2.411   7.563   4.966
 6099TIP3    H118240   2.326   7.566   5.010
 6099TIP3    H218241   2.457   7.490   5.006
 6100TIP3   OH218242   7.203   4.109   1.214
 6100TIP3    H118243   7.128   4.161   1.242
 6100TIP3    H218244   7.251   4.091   1.295
 6101TIP3   OH218245   7.827   3.816   3.944
 6101TIP3    H118246   7.793   3.899   3.976
 6101TIP3    H218247   7.917   3.835   3.918
 6102TIP3   OH218248   8.169   4.912   0.492
 6102TIP3    H118249   8.169   4.923   0.397
 6102TIP3    H218250   8.099   4.850   0.509
 6103TIP3   OH218251   1.325   4.449   0.526
 6103TIP3    H118252   1.304   4.369   0.478
 6103TIP3    H218253   1.250   4.463   0.583
 6104TIP3   OH218254   0.788   1.921   0.789
 6104TIP3    H118255   0.875   1.882   0.783
 6104TIP3    H218256   0.758   1.900   0.878
 6105TIP3   OH218257   1.941   3.285   5.327
 6105TIP3    H118258   1.888   3.360   5.299
 6105TIP3    H218259   1.879   3.229   5.375
 6106TIP3   OH218260   6.948   3.975   0.494
 6106TIP3    H118261   6.996   3.893   0.486
 6106TIP3    H218262   7.000   4.027   0.555
 6107TIP3   OH218263   3.988   7.631   1.272
 6107TIP3    H118264   3.899   7.595   1.276
 6107TIP3    H218265   3.981   7.707   1.215
 6108TIP3   OH218266   5.837   3.491   4.523
 6108TIP3    H118267   5.818   3.440   4.444
 6108TIP3    H218268   5.753   3.499   4.568
 6109TIP3   OH218269   0.948   4.903   3.818
 6109TIP3    H118270   1.029   4.853   3.826
 6109TIP3    H218271   0.916   4.913   3.907
 6110TIP3   OH218272   4.800   1.488   4.793
 6110TIP3    H118273   4.832   1.411   4.744
 6110TIP3    H218274   4.874   1.549   4.790
 6111TIP3   OH218275   1.161   0.608   5.538
 6111TIP3    H118276   1.254   0.631   5.543
 6111TIP3    H218277   1.129   0.651   5.458
 6112TIP3   OH218278   1.864   6.257   4.415
 6112TIP3    H118279   1.802   6.316   4.457
 6112TIP3    H218280   1.939   6.313   4.393
 6113TIP3   OH218281   3.540   6.558   4.129
 6113TIP3    H118282   3.520   6.468   4.105
 6113TIP3    H218283   3.548   6.604   4.046
 6114TIP3   OH218284   0.178   5.656   5.159
 6114TIP3    H118285   0.221   5.684   5.240
 6114TIP3    H218286   0.130   5.577   5.184
 6115TIP3   OH218287   4.308   0.764   5.496
 6115TIP3    H118288   4.303   0.669   5.497
 6115TIP3    H218289   4.218   0.793   5.484
 6116TIP3   OH218290   7.914   1.848   3.867
 6116TIP3    H118291   7.866   1.883   3.793
 6116TIP3    H218292   7.859   1.777   3.901
 6117TIP3   OH218293   6.246   7.449   2.147
 6117TIP3    H118294   6.255   7.495   2.063
 6117TIP3    H218295   6.155   7.420   2.148
 6118TIP3   OH218296   7.822   3.609   1.004
 6118TIP3    H118297   7.747   3.553   0.982
 6118TIP3    H218298   7.899   3.556   0.983
 6119TIP3   OH218299   2.033   7.689   4.551
 6119TIP3    H118300   2.004   7.772   4.590
 6119TIP3    H218301   2.128   7.688   4.567
 6120TIP3   OH218302   0.349   5.281   0.228
 6120TIP3    H118303   0.407   5.218   0.184
 6120TIP3    H218304   0.402   5.360   0.237
 6121TIP3   OH218305   6.857   1.484   2.368
 6121TIP3    H118306   6.920   1.414   2.384
 6121TIP3    H218307   6.905   1.564   2.387
 6122TIP3   OH218308   7.516   0.643   1.426
 6122TIP3    H118309   7.473   0.682   1.501
 6122TIP3    H218310   7.585   0.588   1.463
 6123TIP3   OH218311   5.350   0.190   0.318
 6123TIP3    H118312   5.412   0.116   0.318
 6123TIP3    H218313   5.400   0.263   0.354
 6124TIP3   OH218314   2.194   2.447   4.598
 6124TIP3    H118315   2.242   2.435   4.680
 6124TIP3    H218316   2.166   2.359   4.574
 6125TIP3   OH218317   4.250   6.876   2.976
 6125TIP3    H118318   4.186   6.810   3.005
 6125TIP3    H218319   4.197   6.944   2.934
 6126TIP3   OH218320   4.697   6.717   6.493
 6126TIP3    H118321   4.738   6.780   6.435
 6126TIP3    H218322   4.650   6.657   6.435
 6127TIP3   OH218323   0.557   2.915   6.008
 6127TIP3    H118324   0.550   2.979   6.079
 6127TIP3    H218325   0.534   2.964   5.929
 6128TIP3   OH218326   5.936   5.602   5.836
 6128TIP3    H118327   5.848   5.566   5.835
 6128TIP3    H218328   5.977   5.562   5.913
 6129TIP3   OH218329   7.675   1.040   5.193
 6129TIP3    H118330   7.726   0.986   5.253
 6129TIP3    H218331   7.588   1.001   5.194
 6130TIP3   OH218332   5.224   0.624   2.893
 6130TIP3    H118333   5.187   0.712   2.886
 6130TIP3    H218334   5.190   0.576   2.818
 6131TIP3   OH218335   4.643   7.175   6.141
 6131TIP3    H118336   4.666   7.183   6.234
 6131TIP3    H218337   4.727   7.175   6.095
 6132TIP3   OH218338   6.686   6.975   5.836
 6132TIP3    H118339   6.671   7.062   5.872
 6132TIP3    H218340   6.616   6.921   5.872
 6133TIP3   OH218341   3.685   1.770   2.545
 6133TIP3    H118342   3.669   1.808   2.631
 6133TIP3    H218343   3.648   1.682   2.550
 6134TIP3   OH218344   7.600   7.039   1.640
 6134TIP3    H118345   7.670   7.095   1.674
 6134TIP3    H218346   7.588   6.972   1.707
 6135TIP3   OH218347   5.145   3.701   5.877
 6135TIP3    H118348   5.146   3.606   5.876
 6135TIP3    H218349   5.123   3.725   5.787
 6136TIP3   OH218350   1.265   5.988   4.915
 6136TIP3    H118351   1.301   6.006   4.828
 6136TIP3    H218352   1.177   6.025   4.913
 6137TIP3   OH218353   8.138   7.352   3.428
 6137TIP3    H118354   8.090   7.372   3.348
 6137TIP3    H218355   8.203   7.422   3.436
 6138TIP3   OH218356   5.013   2.738   1.176
 6138TIP3    H118357   4.999   2.785   1.094
 6138TIP3    H218358   5.084   2.785   1.219
 6139TIP3   OH218359   6.265   6.812   6.124
 6139TIP3    H118360   6.198   6.878   6.143
 6139TIP3    H218361   6.223   6.729   6.143
 6140TIP3   OH218362   5.819   7.695   4.443
 6140TIP3    H118363   5.825   7.791   4.438
 6140TIP3    H218364   5.869   7.672   4.521
 6141TIP3   OH218365   2.924   4.602   1.367
 6141TIP3    H118366   2.903   4.510   1.378
 6141TIP3    H218367   2.848   4.639   1.323
 6142TIP3   OH218368   2.060   5.594   5.522
 6142TIP3    H118369   2.033   5.530   5.456
 6142TIP3    H218370   2.038   5.679   5.483
 6143TIP3   OH218371   4.237   0.641   6.160
 6143TIP3    H118372   4.183   0.567   6.130
 6143TIP3    H218373   4.196   0.669   6.241
 6144TIP3   OH218374   4.627   5.149   6.333
 6144TIP3    H118375   4.579   5.083   6.283
 6144TIP3    H218376   4.635   5.224   6.274
 6145TIP3   OH218377   7.462   4.611   4.793
 6145TIP3    H118378   7.533   4.548   4.782
 6145TIP3    H218379   7.484   4.658   4.874
 6146TIP3   OH218380   7.443   5.693   1.245
 6146TIP3    H118381   7.351   5.672   1.260
 6146TIP3    H218382   7.491   5.635   1.303
 6147TIP3   OH218383   4.931   3.264   0.581
 6147TIP3    H118384   4.956   3.233   0.668
 6147TIP3    H218385   5.011   3.255   0.529
 6148TIP3   OH218386   2.033   3.152   0.456
 6148TIP3    H118387   2.065   3.162   0.546
 6148TIP3    H218388   2.073   3.224   0.408
 6149TIP3   OH218389   6.534   2.190   0.106
 6149TIP3    H118390   6.549   2.137   0.027
 6149TIP3    H218391   6.523   2.126   0.176
 6150TIP3   OH218392   4.560   5.753   1.408
 6150TIP3    H118393   4.482   5.768   1.355
 6150TIP3    H218394   4.539   5.676   1.461
 6151TIP3   OH218395   0.648   3.190   5.889
 6151TIP3    H118396   0.578   3.242   5.928
 6151TIP3    H218397   0.725   3.207   5.943
 6152TIP3   OH218398   7.658   0.147   6.396
 6152TIP3    H118399   7.696   0.219   6.447
 6152TIP3    H218400   7.717   0.137   6.321
 6153TIP3   OH218401   6.100   4.430   0.509
 6153TIP3    H118402   6.148   4.361   0.554
 6153TIP3    H218403   6.166   4.475   0.456
 6154TIP3   OH218404   5.922   3.190   4.073
 6154TIP3    H118405   5.969   3.248   4.013
 6154TIP3    H218406   5.855   3.149   4.019
 6155TIP3   OH218407   1.120   0.988   5.457
 6155TIP3    H118408   1.137   0.929   5.384
 6155TIP3    H218409   1.034   0.962   5.490
 6156TIP3   OH218410   1.296   7.559   0.551
 6156TIP3    H118411   1.372   7.511   0.583
 6156TIP3    H218412   1.223   7.526   0.603
 6157TIP3   OH218413   2.141   1.743   5.000
 6157TIP3    H118414   2.226   1.713   4.966
 6157TIP3    H218415   2.157   1.764   5.091
 6158TIP3   OH218416   1.864   0.357   2.574
 6158TIP3    H118417   1.819   0.319   2.498
 6158TIP3    H218418   1.807   0.337   2.648
 6159TIP3   OH218419   1.005   1.440   2.354
 6159TIP3    H118420   1.037   1.360   2.312
 6159TIP3    H218421   1.079   1.501   2.351
 6160TIP3   OH218422   3.015   3.237   5.656
 6160TIP3    H118423   3.045   3.161   5.606
 6160TIP3    H218424   2.949   3.278   5.600
 6161TIP3   OH218425   0.809   3.159   5.066
 6161TIP3    H118426   0.824   3.121   4.980
 6161TIP3    H218427   0.844   3.248   5.059
 6162TIP3   OH218428   6.692   5.534   4.154
 6162TIP3    H118429   6.650   5.463   4.106
 6162TIP3    H218430   6.675   5.515   4.246
 6163TIP3   OH218431   1.033   2.738   1.267
 6163TIP3    H118432   1.064   2.657   1.306
 6163TIP3    H218433   0.945   2.750   1.302
 6164TIP3   OH218434   7.586   0.496   3.487
 6164TIP3    H118435   7.578   0.578   3.535
 6164TIP3    H218436   7.669   0.503   3.440
 6165TIP3   OH218437   0.959   7.612   3.084
 6165TIP3    H118438   0.959   7.607   3.180
 6165TIP3    H218439   0.885   7.559   3.058
 6166TIP3   OH218440   5.320   1.327   1.329
 6166TIP3    H118441   5.407   1.351   1.297
 6166TIP3    H218442   5.326   1.234   1.350
 6167TIP3   OH218443   2.538   0.258   6.687
 6167TIP3    H118444   2.625   0.219   6.680
 6167TIP3    H218445   2.496   0.237   6.603
 6168TIP3   OH218446   8.106   3.450   3.270
 6168TIP3    H118447   8.199   3.471   3.275
 6168TIP3    H218448   8.094   3.376   3.329
 6169TIP3   OH218449   3.716   1.105   3.808
 6169TIP3    H118450   3.743   1.024   3.850
 6169TIP3    H218451   3.667   1.152   3.876
 6170TIP3   OH218452   1.264   1.981   3.867
 6170TIP3    H118453   1.277   1.910   3.930
 6170TIP3    H218454   1.338   1.972   3.807
 6171TIP3   OH218455   5.372   4.368   6.055
 6171TIP3    H118456   5.467   4.383   6.053
 6171TIP3    H218457   5.363   4.274   6.034
 6172TIP3   OH218458   3.454   3.921   2.128
 6172TIP3    H118459   3.475   3.835   2.092
 6172TIP3    H218460   3.538   3.955   2.158
 6173TIP3   OH218461   7.941   0.776   3.995
 6173TIP3    H118462   7.867   0.758   4.053
 6173TIP3    H218463   7.903   0.827   3.924
 6174TIP3   OH218464   3.103   7.252   3.189
 6174TIP3    H118465   3.055   7.205   3.121
 6174TIP3    H218466   3.036   7.291   3.244
 6175TIP3   OH218467   1.048   2.150   5.475
 6175TIP3    H118468   1.043   2.058   5.499
 6175TIP3    H218469   1.136   2.161   5.438
 6176TIP3   OH218470   7.322   1.972   5.649
 6176TIP3    H118471   7.228   1.955   5.659
 6176TIP3    H218472   7.328   2.065   5.626
 6177TIP3   OH218473   5.858   7.517   0.678
 6177TIP3    H118474   5.788   7.487   0.620
 6177TIP3    H218475   5.932   7.461   0.656
 6178TIP3   OH218476   4.322   4.851   5.405
 6178TIP3    H118477   4.337   4.769   5.453
 6178TIP3    H218478   4.235   4.840   5.367
 6179TIP3   OH218479   5.835   1.900   1.280
 6179TIP3    H118480   5.813   1.950   1.358
 6179TIP3    H218481   5.758   1.908   1.223
 6180TIP3   OH218482   5.140   3.551   2.813
 6180TIP3    H118483   5.086   3.506   2.878
 6180TIP3    H218484   5.140   3.642   2.841
 6181TIP3   OH218485   4.934   5.275   5.156
 6181TIP3    H118486   4.986   5.355   5.158
 6181TIP3    H218487   4.871   5.289   5.085
 6182TIP3   OH218488   0.823   3.135   0.021
 6182TIP3    H118489   0.882   3.140   0.096
 6182TIP3    H218490   0.800   3.042   0.015
 6183TIP3   OH218491   3.088   2.274   1.558
 6183TIP3    H118492   3.114   2.230   1.477
 6183TIP3    H218493   3.064   2.202   1.617
 6184TIP3   OH218494   2.568   0.551   3.866
 6184TIP3    H118495   2.609   0.550   3.952
 6184TIP3    H218496   2.552   0.459   3.846
 6185TIP3   OH218497   7.646   2.418   5.811
 6185TIP3    H118498   7.672   2.418   5.903
 6185TIP3    H218499   7.677   2.502   5.777
 6186TIP3   OH218500   1.934   4.154   1.564
 6186TIP3    H118501   1.994   4.180   1.493
 6186TIP3    H218502   1.921   4.234   1.614
 6187TIP3   OH218503   5.743   0.890   6.666
 6187TIP3    H118504   5.672   0.847   6.715
 6187TIP3    H218505   5.727   0.983   6.678
 6188TIP3   OH218506   3.687   4.617   5.917
 6188TIP3    H118507   3.773   4.618   5.876
 6188TIP3    H218508   3.676   4.705   5.952
 6189TIP3   OH218509   4.219   4.148   5.209
 6189TIP3    H118510   4.249   4.064   5.244
 6189TIP3    H218511   4.204   4.202   5.287
 6190TIP3   OH218512   3.961   1.768   3.961
 6190TIP3    H118513   3.925   1.722   4.037
 6190TIP3    H218514   4.045   1.724   3.944
 6191TIP3   OH218515   1.548   6.006   0.247
 6191TIP3    H118516   1.629   6.057   0.248
 6191TIP3    H218517   1.497   6.044   0.175
 6192TIP3   OH218518   2.022   0.113   2.696
 6192TIP3    H118519   1.985   0.159   2.620
 6192TIP3    H218520   1.950   0.111   2.759
 6193TIP3   OH218521   6.992   2.839   5.472
 6193TIP3    H118522   7.018   2.887   5.393
 6193TIP3    H218523   6.906   2.802   5.450
 6194TIP3   OH218524   2.856   0.692   0.649
 6194TIP3    H118525   2.803   0.729   0.719
 6194TIP3    H218526   2.803   0.704   0.570
 6195TIP3   OH218527   0.190   3.896   5.435
 6195TIP3    H118528   0.237   3.816   5.457
 6195TIP3    H218529   0.242   3.937   5.366
 6196TIP3   OH218530   0.408   3.115   6.429
 6196TIP3    H118531   0.362   3.172   6.368
 6196TIP3    H218532   0.341   3.057   6.464
 6197TIP3   OH218533   2.572   5.103   3.246
 6197TIP3    H118534   2.620   5.142   3.173
 6197TIP3    H218535   2.482   5.136   3.237
 6198TIP3   OH218536   6.228   2.149   4.144
 6198TIP3    H118537   6.266   2.236   4.129
 6198TIP3    H218538   6.264   2.094   4.075
 6199TIP3   OH218539   8.076   7.352   5.355
 6199TIP3    H118540   8.023   7.421   5.316
 6199TIP3    H218541   8.147   7.398   5.400
 6200TIP3   OH218542   7.856   3.959   3.009
 6200TIP3    H118543   7.894   3.878   3.043
 6200TIP3    H218544   7.830   3.938   2.919
 6201TIP3   OH218545   5.748   1.201   4.501
 6201TIP3    H118546   5.813   1.132   4.515
 6201TIP3    H218547   5.676   1.157   4.455
 6202TIP3   OH218548   3.501   7.227   1.153
 6202TIP3    H118549   3.433   7.171   1.117
 6202TIP3    H218550   3.579   7.207   1.101
 6203TIP3   OH218551   5.861   5.350   5.537
 6203TIP3    H118552   5.851   5.395   5.621
 6203TIP3    H218553   5.794   5.282   5.538
 6204TIP3   OH218554   1.478   6.801   3.771
 6204TIP3    H118555   1.448   6.883   3.732
 6204TIP3    H218556   1.516   6.828   3.855
 6205TIP3   OH218557   3.915   7.222   4.304
 6205TIP3    H118558   3.865   7.303   4.314
 6205TIP3    H218559   3.939   7.198   4.394
 6206TIP3   OH218560   2.517   4.484   6.141
 6206TIP3    H118561   2.564   4.505   6.060
 6206TIP3    H218562   2.425   4.481   6.115
 6207TIP3   OH218563   7.519   7.760   4.368
 6207TIP3    H118564   7.539   7.751   4.275
 6207TIP3    H218565   7.430   7.727   4.376
 6208TIP3   OH218566   5.000   5.208   4.511
 6208TIP3    H118567   5.000   5.244   4.422
 6208TIP3    H218568   5.079   5.153   4.515
 6209TIP3   OH218569   5.689   4.758   3.934
 6209TIP3    H118570   5.667   4.816   3.861
 6209TIP3    H218571   5.612   4.702   3.944
 6210TIP3   OH218572   1.702   3.519   2.371
 6210TIP3    H118573   1.764   3.542   2.439
 6210TIP3    H218574   1.653   3.600   2.354
 6211TIP3   OH218575   4.010   5.167   4.551
 6211TIP3    H118576   4.003   5.118   4.469
 6211TIP3    H218577   3.973   5.254   4.530
 6212TIP3   OH218578   6.554   0.208   6.118
 6212TIP3    H118579   6.525   0.158   6.042
 6212TIP3    H218580   6.527   0.156   6.193
 6213TIP3   OH218581   7.876   5.996   1.185
 6213TIP3    H118582   7.780   6.004   1.190
 6213TIP3    H218583   7.908   6.054   1.254
 6214TIP3   OH218584   4.144   1.489   4.432
 6214TIP3    H118585   4.225   1.476   4.481
 6214TIP3    H218586   4.115   1.576   4.458
 6215TIP3   OH218587   2.403   1.553   1.184
 6215TIP3    H118588   2.476   1.519   1.133
 6215TIP3    H218589   2.331   1.492   1.168
 6216TIP3   OH218590   6.317   0.177   5.002
 6216TIP3    H118591   6.349   0.262   4.973
 6216TIP3    H218592   6.303   0.186   5.096
 6217TIP3   OH218593   0.668   4.319   5.798
 6217TIP3    H118594   0.751   4.287   5.765
 6217TIP3    H218595   0.676   4.415   5.796
 6218TIP3   OH218596   1.961   1.725   6.444
 6218TIP3    H118597   1.915   1.804   6.471
 6218TIP3    H218598   2.049   1.754   6.421
 6219TIP3   OH218599   0.732   1.578   1.879
 6219TIP3    H118600   0.704   1.589   1.788
 6219TIP3    H218601   0.817   1.535   1.872
 6220TIP3   OH218602   4.166   2.785   2.201
 6220TIP3    H118603   4.175   2.735   2.120
 6220TIP3    H218604   4.252   2.825   2.215
 6221TIP3   OH218605   7.971   4.846   2.476
 6221TIP3    H118606   7.934   4.871   2.391
 6221TIP3    H218607   8.044   4.788   2.454
 6222TIP3   OH218608   6.006   1.525   6.188
 6222TIP3    H118609   6.081   1.577   6.160
 6222TIP3    H218610   6.045   1.444   6.223
 6223TIP3   OH218611   4.413   2.388   0.108
 6223TIP3    H118612   4.339   2.327   0.111
 6223TIP3    H218613   4.374   2.473   0.128
 6224TIP3   OH218614   3.831   7.286   0.315
 6224TIP3    H118615   3.758   7.256   0.260
 6224TIP3    H218616   3.791   7.349   0.375
 6225TIP3   OH218617   6.171   3.977   6.224
 6225TIP3    H118618   6.148   4.007   6.312
 6225TIP3    H218619   6.267   3.971   6.225
 6226TIP3   OH218620   6.449   6.439   6.523
 6226TIP3    H118621   6.379   6.374   6.514
 6226TIP3    H218622   6.420   6.496   6.593
 6227TIP3   OH218623   4.389   2.307   2.287
 6227TIP3    H118624   4.338   2.266   2.357
 6227TIP3    H218625   4.453   2.362   2.332
 6228TIP3   OH218626   1.076   4.449   5.427
 6228TIP3    H118627   1.104   4.475   5.339
 6228TIP3    H218628   0.989   4.412   5.415
 6229TIP3   OH218629   5.971   0.701   3.083
 6229TIP3    H118630   5.899   0.652   3.045
 6229TIP3    H218631   6.044   0.639   3.088
 6230TIP3   OH218632   3.909   6.637   0.840
 6230TIP3    H118633   3.948   6.724   0.846
 6230TIP3    H218634   3.979   6.581   0.806
 6231TIP3   OH218635   2.543   4.452   0.801
 6231TIP3    H118636   2.490   4.375   0.781
 6231TIP3    H218637   2.612   4.451   0.734
 6232TIP3   OH218638   5.732   2.191   1.038
 6232TIP3    H118639   5.742   2.116   0.981
 6232TIP3    H218640   5.821   2.212   1.067
 6233TIP3   OH218641   3.102   2.182   5.386
 6233TIP3    H118642   3.143   2.233   5.317
 6233TIP3    H218643   3.078   2.246   5.453
 6234TIP3   OH218644   0.158   0.856   1.875
 6234TIP3    H118645   0.231   0.847   1.937
 6234TIP3    H218646   0.182   0.930   1.820
 6235TIP3   OH218647   7.644   0.329   0.492
 6235TIP3    H118648   7.610   0.412   0.457
 6235TIP3    H218649   7.567   0.273   0.497
 6236TIP3   OH218650   0.167   0.472   6.514
 6236TIP3    H118651   0.128   0.559   6.503
 6236TIP3    H218652   0.238   0.469   6.451
 6237TIP3   OH218653   7.067   4.312   0.985
 6237TIP3    H118654   7.121   4.233   0.977
 6237TIP3    H218655   6.978   4.282   0.964
 6238TIP3   OH218656   3.461   1.058   5.538
 6238TIP3    H118657   3.453   0.971   5.500
 6238TIP3    H218658   3.392   1.109   5.497
 6239TIP3   OH218659   5.501   1.064   0.676
 6239TIP3    H118660   5.452   1.013   0.740
 6239TIP3    H218661   5.560   1.118   0.728
 6240TIP3   OH218662   0.504   2.275   5.978
 6240TIP3    H118663   0.594   2.248   5.959
 6240TIP3    H218664   0.466   2.293   5.892
 6241TIP3   OH218665   7.717   0.498   6.263
 6241TIP3    H118666   7.717   0.422   6.204
 6241TIP3    H218667   7.717   0.574   6.205
 6242TIP3   OH218668   0.541   6.324   4.754
 6242TIP3    H118669   0.471   6.339   4.690
 6242TIP3    H218670   0.525   6.236   4.787
 6243TIP3   OH218671   4.777   4.805   0.346
 6243TIP3    H118672   4.783   4.810   0.251
 6243TIP3    H218673   4.692   4.846   0.367
 6244TIP3   OH218674   1.957   4.418   1.654
 6244TIP3    H118675   1.948   4.485   1.586
 6244TIP3    H218676   2.050   4.419   1.676
 6245TIP3   OH218677   6.499   2.994   1.321
 6245TIP3    H118678   6.407   2.971   1.334
 6245TIP3    H218679   6.512   3.073   1.374
 6246TIP3   OH218680   4.261   5.279   4.542
 6246TIP3    H118681   4.332   5.260   4.481
 6246TIP3    H218682   4.189   5.222   4.514
 6247TIP3   OH218683   1.391   7.774   2.813
 6247TIP3    H118684   1.297   7.784   2.796
 6247TIP3    H218685   1.400   7.683   2.841
 6248TIP3   OH218686   2.832   0.117   2.369
 6248TIP3    H118687   2.794   0.205   2.377
 6248TIP3    H218688   2.900   0.126   2.302
 6249TIP3   OH218689   6.896   4.981   6.347
 6249TIP3    H118690   6.991   4.989   6.360
 6249TIP3    H218691   6.860   5.062   6.383
 6250TIP3   OH218692   3.938   0.060   2.123
 6250TIP3    H118693   4.029   0.054   2.095
 6250TIP3    H218694   3.937   0.015   2.208
 6251TIP3   OH218695   0.244   6.339   3.015
 6251TIP3    H118696   0.253   6.400   3.088
 6251TIP3    H218697   0.328   6.344   2.969
 6252TIP3   OH218698   2.734   4.605   0.619
 6252TIP3    H118699   2.670   4.663   0.577
 6252TIP3    H218700   2.793   4.579   0.549
 6253TIP3   OH218701   1.586   4.416   0.780
 6253TIP3    H118702   1.679   4.402   0.761
 6253TIP3    H218703   1.545   4.331   0.763
 6254TIP3   OH218704   0.358   4.195   2.683
 6254TIP3    H118705   0.310   4.250   2.744
 6254TIP3    H218706   0.312   4.111   2.683
 6255TIP3   OH218707   5.979   4.227   6.524
 6255TIP3    H118708   6.038   4.280   6.469
 6255TIP3    H218709   5.989   4.264   6.611
 6256TIP3   OH218710   0.336   3.308   6.248
 6256TIP3    H118711   0.368   3.398   6.238
 6256TIP3    H218712   0.255   3.305   6.197
 6257TIP3   OH218713   2.049   2.904   2.762
 6257TIP3    H118714   2.131   2.897   2.811
 6257TIP3    H218715   2.021   2.995   2.774
 6258TIP3   OH218716   1.999   3.875   3.461
 6258TIP3    H118717   1.965   3.818   3.392
 6258TIP3    H218718   2.078   3.914   3.423
 6259TIP3   OH218719   7.395   0.500   2.402
 6259TIP3    H118720   7.320   0.554   2.424
 6259TIP3    H218721   7.414   0.452   2.483
 6260TIP3   OH218722   0.983   4.179   0.081
 6260TIP3    H118723   1.061   4.159   0.029
 6260TIP3    H218724   0.971   4.273   0.069
 6261TIP3   OH218725   6.249   5.256   5.743
 6261TIP3    H118726   6.292   5.341   5.748
 6261TIP3    H218727   6.179   5.261   5.808
 6262TIP3   OH218728   6.735   4.756   1.427
 6262TIP3    H118729   6.771   4.744   1.339
 6262TIP3    H218730   6.767   4.842   1.454
 6263TIP3   OH218731   0.749   7.542   3.536
 6263TIP3    H118732   0.748   7.446   3.535
 6263TIP3    H218733   0.666   7.566   3.577
 6264TIP3   OH218734   2.776   3.188   2.296
 6264TIP3    H118735   2.693   3.142   2.293
 6264TIP3    H218736   2.755   3.274   2.332
 6265TIP3   OH218737   6.629   0.658   0.309
 6265TIP3    H118738   6.613   0.748   0.279
 6265TIP3    H218739   6.596   0.603   0.238
 6266TIP3   OH218740   3.353   2.109   0.522
 6266TIP3    H118741   3.346   2.109   0.426
 6266TIP3    H218742   3.431   2.058   0.541
 6267TIP3   OH218743   4.953   4.859   4.252
 6267TIP3    H118744   4.870   4.815   4.271
 6267TIP3    H218745   5.011   4.789   4.223
 6268TIP3   OH218746   5.159   6.456   3.714
 6268TIP3    H118747   5.135   6.536   3.668
 6268TIP3    H218748   5.082   6.399   3.705
 6269TIP3   OH218749   1.541   4.133   4.918
 6269TIP3    H118750   1.472   4.164   4.859
 6269TIP3    H218751   1.500   4.132   5.005
 6270TIP3   OH218752   2.989   6.709   5.627
 6270TIP3    H118753   2.903   6.673   5.607
 6270TIP3    H218754   2.975   6.803   5.635
 6271TIP3   OH218755   7.807   7.176   1.739
 6271TIP3    H118756   7.881   7.134   1.783
 6271TIP3    H218757   7.822   7.270   1.751
 6272TIP3   OH218758   8.231   2.389   4.690
 6272TIP3    H118759   8.205   2.470   4.734
 6272TIP3    H218760   8.191   2.320   4.743
 6273TIP3   OH218761   7.995   4.041   4.648
 6273TIP3    H118762   7.981   3.982   4.722
 6273TIP3    H218763   8.085   4.071   4.657
 6274TIP3   OH218764   0.101   0.754   3.383
 6274TIP3    H118765   0.109   0.847   3.403
 6274TIP3    H218766   0.055   0.717   3.458
 6275TIP3   OH218767   2.752   6.960   6.344
 6275TIP3    H118768   2.709   6.973   6.259
 6275TIP3    H218769   2.693   6.902   6.392
 6276TIP3   OH218770   1.051   5.849   6.384
 6276TIP3    H118771   1.080   5.926   6.432
 6276TIP3    H218772   1.115   5.837   6.314
 6277TIP3   OH218773   7.934   6.814   2.795
 6277TIP3    H118774   7.893   6.771   2.720
 6277TIP3    H218775   7.999   6.752   2.826
 6278TIP3   OH218776   1.055   5.997   2.144
 6278TIP3    H118777   0.967   6.009   2.181
 6278TIP3    H218778   1.052   5.912   2.100
 6279TIP3   OH218779   2.318   4.794   3.473
 6279TIP3    H118780   2.299   4.806   3.566
 6279TIP3    H218781   2.259   4.856   3.429
 6280TIP3   OH218782   4.485   3.236   5.011
 6280TIP3    H118783   4.417   3.259   4.946
 6280TIP3    H218784   4.453   3.156   5.052
 6281TIP3   OH218785   0.351   4.427   4.737
 6281TIP3    H118786   0.329   4.491   4.805
 6281TIP3    H218787   0.294   4.451   4.664
 6282TIP3   OH218788   6.168   7.116   4.315
 6282TIP3    H118789   6.213   7.154   4.391
 6282TIP3    H218790   6.182   7.180   4.245
 6283TIP3   OH218791   2.967   5.937   5.401
 6283TIP3    H118792   2.996   6.028   5.402
 6283TIP3    H218793   2.874   5.941   5.421
 6284TIP3   OH218794   5.105   2.681   2.245
 6284TIP3    H118795   5.140   2.769   2.226
 6284TIP3    H218796   5.183   2.628   2.263
 6285TIP3   OH218797   0.371   6.979   6.154
 6285TIP3    H118798   0.426   7.050   6.123
 6285TIP3    H218799   0.295   7.023   6.193
 6286TIP3   OH218800   5.250   4.682   0.595
 6286TIP3    H118801   5.190   4.707   0.665
 6286TIP3    H218802   5.197   4.627   0.537
 6287TIP3   OH218803   7.805   1.736   2.894
 6287TIP3    H118804   7.760   1.652   2.902
 6287TIP3    H218805   7.811   1.752   2.800
 6288TIP3   OH218806   0.311   4.213   1.416
 6288TIP3    H118807   0.271   4.264   1.346
 6288TIP3    H218808   0.238   4.169   1.459
 6289TIP3   OH218809   3.923   5.518   1.888
 6289TIP3    H118810   3.903   5.480   1.974
 6289TIP3    H218811   3.970   5.449   1.842
 6290TIP3   OH218812   0.464   1.992   5.882
 6290TIP3    H118813   0.460   2.086   5.864
 6290TIP3    H218814   0.550   1.978   5.923
 6291TIP3   OH218815   3.284   0.052   3.530
 6291TIP3    H118816   3.215   0.044   3.595
 6291TIP3    H218817   3.290   0.146   3.513
 6292TIP3   OH218818   3.850   1.506   4.059
 6292TIP3    H118819   3.798   1.503   3.979
 6292TIP3    H218820   3.818   1.432   4.111
 6293TIP3   OH218821   3.672   1.415   3.048
 6293TIP3    H118822   3.643   1.502   3.020
 6293TIP3    H218823   3.698   1.427   3.139
 6294TIP3   OH218824   7.278   4.368   0.706
 6294TIP3    H118825   7.280   4.398   0.797
 6294TIP3    H218826   7.228   4.286   0.710
 6295TIP3   OH218827   1.814   2.737   2.926
 6295TIP3    H118828   1.910   2.736   2.922
 6295TIP3    H218829   1.787   2.725   2.836
 6296TIP3   OH218830   7.392   5.995   2.752
 6296TIP3    H118831   7.308   5.948   2.755
 6296TIP3    H218832   7.405   6.027   2.841
 6297TIP3   OH218833   3.602   0.034   5.054
 6297TIP3    H118834   3.508   0.033   5.075
 6297TIP3    H218835   3.618   0.124   5.026
 6298TIP3   OH218836   2.813   1.071   1.486
 6298TIP3    H118837   2.845   1.133   1.550
 6298TIP3    H218838   2.891   1.046   1.436
 6299TIP3   OH218839   2.577   5.506   5.995
 6299TIP3    H118840   2.586   5.470   5.907
 6299TIP3    H218841   2.539   5.593   5.982
 6300TIP3   OH218842   6.526   1.997   6.097
 6300TIP3    H118843   6.477   1.915   6.103
 6300TIP3    H218844   6.485   2.055   6.161
 6301TIP3   OH218845   0.305   2.733   4.524
 6301TIP3    H118846   0.272   2.721   4.613
 6301TIP3    H218847   0.377   2.670   4.517
 6302TIP3   OH218848   3.792   5.875   1.754
 6302TIP3    H118849   3.701   5.852   1.737
 6302TIP3    H218850   3.791   5.913   1.841
 6303TIP3   OH218851   3.783   6.550   1.425
 6303TIP3    H118852   3.722   6.607   1.472
 6303TIP3    H218853   3.843   6.519   1.493
 6304TIP3   OH218854   5.647   4.301   3.660
 6304TIP3    H118855   5.700   4.269   3.588
 6304TIP3    H218856   5.558   4.272   3.639
 6305TIP3   OH218857   1.537   7.302   5.138
 6305TIP3    H118858   1.500   7.300   5.226
 6305TIP3    H218859   1.483   7.365   5.091
 6306TIP3   OH218860   8.070   4.350   2.999
 6306TIP3    H118861   8.028   4.285   3.056
 6306TIP3    H218862   8.013   4.426   3.003
 6307TIP3   OH218863   4.098   1.592   3.211
 6307TIP3    H118864   4.147   1.674   3.207
 6307TIP3    H218865   4.126   1.551   3.293
 6308TIP3   OH218866   0.168   3.955   2.586
 6308TIP3    H118867   0.160   3.937   2.679
 6308TIP3    H218868   0.132   3.878   2.543
 6309TIP3   OH218869   5.218   0.697   2.068
 6309TIP3    H118870   5.198   0.675   2.159
 6309TIP3    H218871   5.237   0.791   2.069
 6310TIP3   OH218872   0.183   0.869   6.088
 6310TIP3    H118873   0.108   0.893   6.033
 6310TIP3    H218874   0.240   0.818   6.030
 6311TIP3   OH218875   4.527   4.268   0.256
 6311TIP3    H118876   4.520   4.326   0.332
 6311TIP3    H218877   4.557   4.324   0.185
 6312TIP3   OH218878   4.463   2.552   0.666
 6312TIP3    H118879   4.477   2.491   0.738
 6312TIP3    H218880   4.539   2.540   0.609
 6313TIP3   OH218881   3.876   5.129   6.407
 6313TIP3    H118882   3.803   5.119   6.346
 6313TIP3    H218883   3.921   5.044   6.405
 6314TIP3   OH218884   1.509   6.768   0.253
 6314TIP3    H118885   1.489   6.814   0.335
 6314TIP3    H218886   1.432   6.713   0.237
 6315TIP3   OH218887   1.334   3.130   6.323
 6315TIP3    H118888   1.347   3.173   6.407
 6315TIP3    H218889   1.362   3.194   6.258
 6316TIP3   OH218890   4.164   0.719   4.229
 6316TIP3    H118891   4.172   0.776   4.305
 6316TIP3    H218892   4.103   0.651   4.256
 6317TIP3   OH218893   2.683   7.188   5.070
 6317TIP3    H118894   2.682   7.139   5.152
 6317TIP3    H218895   2.742   7.138   5.013
 6318TIP3   OH218896   5.953   2.175   0.107
 6318TIP3    H118897   6.003   2.252   0.082
 6318TIP3    H218898   5.864   2.193   0.076
 6319TIP3   OH218899   5.768   1.498   3.800
 6319TIP3    H118900   5.751   1.590   3.781
 6319TIP3    H218901   5.685   1.465   3.835
 6320TIP3   OH218902   5.478   6.939   3.840
 6320TIP3    H118903   5.425   6.872   3.882
 6320TIP3    H218904   5.427   6.966   3.763
 6321TIP3   OH218905   5.941   5.437   4.573
 6321TIP3    H118906   6.003   5.506   4.551
 6321TIP3    H218907   5.960   5.367   4.510
 6322TIP3   OH218908   3.493   2.559   0.830
 6322TIP3    H118909   3.430   2.628   0.850
 6322TIP3    H218910   3.519   2.575   0.740
 6323TIP3   OH218911   4.018   6.838   3.250
 6323TIP3    H118912   4.030   6.759   3.199
 6323TIP3    H218913   3.992   6.905   3.186
 6324TIP3   OH218914   0.399   2.303  -0.023
 6324TIP3    H118915   0.330   2.270   0.034
 6324TIP3    H218916   0.353   2.339  -0.098
 6325TIP3   OH218917   0.857   5.035   2.899
 6325TIP3    H118918   0.901   4.952   2.915
 6325TIP3    H218919   0.772   5.027   2.943
 6326TIP3   OH218920   8.312   6.676   4.527
 6326TIP3    H118921   8.247   6.720   4.582
 6326TIP3    H218922   8.289   6.702   4.438
 6327TIP3   OH218923   6.671   5.422   4.402
 6327TIP3    H118924   6.576   5.426   4.393
 6327TIP3    H218925   6.689   5.332   4.429
 6328TIP3   OH218926   5.828   2.326   1.708
 6328TIP3    H118927   5.840   2.315   1.614
 6328TIP3    H218928   5.811   2.419   1.719
 6329TIP3   OH218929   2.495   1.270   2.897
 6329TIP3    H118930   2.446   1.207   2.950
 6329TIP3    H218931   2.563   1.302   2.955
 6330TIP3   OH218932   4.528   7.302   0.628
 6330TIP3    H118933   4.552   7.219   0.669
 6330TIP3    H218934   4.516   7.281   0.535
 6331TIP3   OH218935   6.174   4.042   4.983
 6331TIP3    H118936   6.105   4.108   4.976
 6331TIP3    H218937   6.152   3.992   5.062
 6332TIP3   OH218938   2.646   3.961   1.259
 6332TIP3    H118939   2.739   3.980   1.254
 6332TIP3    H218940   2.636   3.874   1.221
 6333TIP3   OH218941   1.668   1.652   1.202
 6333TIP3    H118942   1.653   1.696   1.286
 6333TIP3    H218943   1.681   1.723   1.139
 6334TIP3   OH218944   1.854   7.142   5.029
 6334TIP3    H118945   1.856   7.204   5.102
 6334TIP3    H218946   1.781   7.171   4.974
 6335TIP3   OH218947   1.357   5.571   1.028
 6335TIP3    H118948   1.262   5.578   1.032
 6335TIP3    H218949   1.383   5.634   0.961
 6336TIP3   OH218950   7.854   0.575   6.497
 6336TIP3    H118951   7.802   0.533   6.428
 6336TIP3    H218952   7.940   0.589   6.457
 6337TIP3   OH218953   3.685   7.553   3.061
 6337TIP3    H118954   3.690   7.639   3.103
 6337TIP3    H218955   3.640   7.498   3.125
 6338TIP3   OH218956   6.266   6.401   2.386
 6338TIP3    H118957   6.182   6.382   2.344
 6338TIP3    H218958   6.307   6.316   2.397
 6339TIP3   OH218959   8.093   2.112   3.215
 6339TIP3    H118960   8.104   2.138   3.124
 6339TIP3    H218961   8.081   2.017   3.212
 6340TIP3   OH218962   0.755   3.392   5.559
 6340TIP3    H118963   0.806   3.409   5.639
 6340TIP3    H218964   0.819   3.401   5.488
 6341TIP3   OH218965   5.866   2.028   5.193
 6341TIP3    H118966   5.921   1.960   5.231
 6341TIP3    H218967   5.802   2.048   5.261
 6342TIP3   OH218968   5.448   7.052   2.050
 6342TIP3    H118969   5.481   7.037   1.961
 6342TIP3    H218970   5.419   7.143   2.050
 6343TIP3   OH218971   5.337   0.047   1.015
 6343TIP3    H118972   5.355   0.031   1.107
 6343TIP3    H218973   5.419   0.079   0.979
 6344TIP3   OH218974   1.910   6.760   4.376
 6344TIP3    H118975   1.859   6.832   4.339
 6344TIP3    H218976   1.981   6.802   4.423
 6345TIP3   OH218977   0.711   1.380   5.107
 6345TIP3    H118978   0.782   1.387   5.043
 6345TIP3    H218979   0.751   1.333   5.181
 6346TIP3   OH218980   1.147   1.616   3.693
 6346TIP3    H118981   1.186   1.560   3.626
 6346TIP3    H218982   1.174   1.704   3.669
 6347TIP3   OH218983   3.893   6.536   1.160
 6347TIP3    H118984   3.866   6.544   1.251
 6347TIP3    H218985   3.907   6.627   1.131
 6348TIP3   OH218986   0.234   7.139   2.155
 6348TIP3    H118987   0.229   7.142   2.250
 6348TIP3    H218988   0.152   7.096   2.128
 6349TIP3   OH218989   3.444   4.278   2.722
 6349TIP3    H118990   3.468   4.218   2.792
 6349TIP3    H218991   3.371   4.234   2.677
 6350TIP3   OH218992   5.522   3.102   4.992
 6350TIP3    H118993   5.473   3.175   5.029
 6350TIP3    H218994   5.455   3.046   4.952
 6351TIP3   OH218995   8.211   6.420   4.633
 6351TIP3    H118996   8.230   6.513   4.623
 6351TIP3    H218997   8.252   6.395   4.716
 6352TIP3   OH218998   6.098   0.728   2.603
 6352TIP3    H118999   6.017   0.682   2.627
 6352TIP3    H219000   6.122   0.776   2.682
 6353TIP3   OH219001   2.732   1.685   4.008
 6353TIP3    H119002   2.820   1.720   3.997
 6353TIP3    H219003   2.682   1.722   3.936
 6354TIP3   OH219004   1.641   5.733   0.273
 6354TIP3    H119005   1.558   5.709   0.314
 6354TIP3    H219006   1.641   5.829   0.275
 6355TIP3   OH219007   5.512   6.820   5.914
 6355TIP3    H119008   5.584   6.815   5.850
 6355TIP3    H219009   5.436   6.787   5.866
 6356TIP3   OH219010   0.688   3.589   5.870
 6356TIP3    H119011   0.693   3.530   5.945
 6356TIP3    H219012   0.617   3.554   5.816
 6357TIP3   OH219013   4.335   2.544   2.895
 6357TIP3    H119014   4.277   2.511   2.827
 6357TIP3    H219015   4.419   2.502   2.878
 6358TIP3   OH219016   4.544   5.477   2.461
 6358TIP3    H119017   4.563   5.390   2.497
 6358TIP3    H219018   4.560   5.537   2.534
 6359TIP3   OH219019   8.215   4.147   2.620
 6359TIP3    H119020   8.278   4.206   2.578
 6359TIP3    H219021   8.130   4.187   2.602
 6360TIP3   OH219022   0.518   1.072   1.706
 6360TIP3    H119023   0.535   0.980   1.688
 6360TIP3    H219024   0.506   1.077   1.800
 6361TIP3   OH219025   5.688   2.260   5.787
 6361TIP3    H119026   5.662   2.334   5.732
 6361TIP3    H219027   5.629   2.189   5.762
 6362TIP3   OH219028   4.515   4.555   3.894
 6362TIP3    H119029   4.584   4.607   3.854
 6362TIP3    H219030   4.437   4.610   3.888
 6363TIP3   OH219031   5.012   3.899   2.010
 6363TIP3    H119032   4.963   3.817   1.998
 6363TIP3    H219033   5.020   3.935   1.922
 6364TIP3   OH219034   4.366   5.238   3.447
 6364TIP3    H119035   4.385   5.149   3.475
 6364TIP3    H219036   4.380   5.236   3.352
 6365TIP3   OH219037   8.018   2.847   1.668
 6365TIP3    H119038   8.098   2.883   1.630
 6365TIP3    H219039   7.960   2.922   1.677
 6366TIP3   OH219040   6.765   5.600   1.922
 6366TIP3    H119041   6.766   5.505   1.936
 6366TIP3    H219042   6.711   5.612   1.844
 6367TIP3   OH219043   6.553   0.261   4.323
 6367TIP3    H119044   6.470   0.223   4.349
 6367TIP3    H219045   6.536   0.355   4.316
 6368TIP3   OH219046   7.255   6.395   3.606
 6368TIP3    H119047   7.308   6.367   3.531
 6368TIP3    H219048   7.190   6.326   3.617
 6369TIP3   OH219049   1.755   3.894   6.627
 6369TIP3    H119050   1.722   3.943   6.702
 6369TIP3    H219051   1.712   3.809   6.632
 6370TIP3   OH219052   2.756   0.415   6.373
 6370TIP3    H119053   2.766   0.392   6.465
 6370TIP3    H219054   2.806   0.349   6.325
 6371TIP3   OH219055   6.633   1.306   1.235
 6371TIP3    H119056   6.623   1.400   1.219
 6371TIP3    H219057   6.565   1.266   1.182
 6372TIP3   OH219058   2.953   0.723   0.383
 6372TIP3    H119059   3.024   0.712   0.321
 6372TIP3    H219060   2.990   0.698   0.468
 6373TIP3   OH219061   6.968   4.345   3.233
 6373TIP3    H119062   6.901   4.363   3.166
 6373TIP3    H219063   6.975   4.250   3.236
 6374TIP3   OH219064   6.543   4.274   6.422
 6374TIP3    H119065   6.485   4.232   6.359
 6374TIP3    H219066   6.631   4.259   6.388
 6375TIP3   OH219067   4.066   0.009   1.245
 6375TIP3    H119068   4.094   0.074   1.310
 6375TIP3    H219069   4.134  -0.059   1.249
 6376TIP3   OH219070   3.323   5.639   5.760
 6376TIP3    H119071   3.286   5.604   5.840
 6376TIP3    H219072   3.345   5.730   5.781
 6377TIP3   OH219073   5.189   1.075   5.213
 6377TIP3    H119074   5.117   1.106   5.159
 6377TIP3    H219075   5.258   1.053   5.150
 6378TIP3   OH219076   7.305   1.605   1.970
 6378TIP3    H119077   7.225   1.602   2.023
 6378TIP3    H219078   7.370   1.557   2.023
 6379TIP3   OH219079   5.292   3.524   1.881
 6379TIP3    H119080   5.349   3.595   1.851
 6379TIP3    H219081   5.278   3.470   1.803
 6380TIP3   OH219082   6.359   1.114   5.005
 6380TIP3    H119083   6.413   1.098   5.082
 6380TIP3    H219084   6.414   1.086   4.931
 6381TIP3   OH219085   4.944   0.913   4.913
 6381TIP3    H119086   4.965   0.831   4.956
 6381TIP3    H219087   4.962   0.981   4.979
 6382TIP3   OH219088   0.446   5.295   5.836
 6382TIP3    H119089   0.354   5.316   5.820
 6382TIP3    H219090   0.458   5.311   5.930
 6383TIP3   OH219091   5.868   1.711   3.158
 6383TIP3    H119092   5.962   1.693   3.155
 6383TIP3    H219093   5.827   1.632   3.123
 6384TIP3   OH219094   2.948   7.685   2.143
 6384TIP3    H119095   2.996   7.703   2.223
 6384TIP3    H219096   3.001   7.620   2.096
 6385TIP3   OH219097   7.131   0.962   0.143
 6385TIP3    H119098   7.038   0.943   0.158
 6385TIP3    H219099   7.137   1.057   0.145
 6386TIP3   OH219100   4.236   7.709   1.759
 6386TIP3    H119101   4.262   7.617   1.749
 6386TIP3    H219102   4.236   7.724   1.853
 6387TIP3   OH219103   7.238   0.779   5.980
 6387TIP3    H119104   7.197   0.709   6.031
 6387TIP3    H219105   7.332   0.763   5.987
 6388TIP3   OH219106   4.965   7.007   6.518
 6388TIP3    H119107   5.017   7.086   6.507
 6388TIP3    H219108   4.915   6.999   6.437
 6389TIP3   OH219109   8.050   1.448   0.476
 6389TIP3    H119110   7.954   1.445   0.479
 6389TIP3    H219111   8.072   1.539   0.497
 6390TIP3   OH219112   0.497   1.080   2.279
 6390TIP3    H119113   0.407   1.053   2.258
 6390TIP3    H219114   0.487   1.166   2.318
 6391TIP3   OH219115   5.113   5.638   5.835
 6391TIP3    H119116   5.114   5.730   5.807
 6391TIP3    H219117   5.050   5.637   5.908
 6392TIP3   OH219118   7.732   1.162   4.548
 6392TIP3    H119119   7.642   1.176   4.519
 6392TIP3    H219120   7.743   1.223   4.621
 6393TIP3   OH219121   2.550   5.810   1.377
 6393TIP3    H119122   2.596   5.777   1.455
 6393TIP3    H219123   2.557   5.905   1.383
 6394TIP3   OH219124   0.572   3.661   1.677
 6394TIP3    H119125   0.608   3.582   1.716
 6394TIP3    H219126   0.554   3.719   1.752
 6395TIP3   OH219127   3.030   6.147   5.954
 6395TIP3    H119128   3.001   6.056   5.961
 6395TIP3    H219129   3.012   6.185   6.040
 6396TIP3   OH219130   1.972   5.629   3.292
 6396TIP3    H119131   2.017   5.708   3.263
 6396TIP3    H219132   1.881   5.643   3.266
 6397TIP3   OH219133   3.657   2.196   0.776
 6397TIP3    H119134   3.724   2.150   0.827
 6397TIP3    H219135   3.576   2.180   0.824
 6398TIP3   OH219136   2.413   2.620   2.686
 6398TIP3    H119137   2.481   2.686   2.671
 6398TIP3    H219138   2.433   2.550   2.623
 6399TIP3   OH219139   1.023   1.174   2.258
 6399TIP3    H119140   1.047   1.082   2.246
 6399TIP3    H219141   0.985   1.178   2.346
 6400TIP3   OH219142   6.331   4.419   1.867
 6400TIP3    H119143   6.245   4.392   1.835
 6400TIP3    H219144   6.344   4.506   1.827
 6401TIP3   OH219145   6.664   5.715   5.585
 6401TIP3    H119146   6.608   5.786   5.551
 6401TIP3    H219147   6.731   5.759   5.637
 6402TIP3   OH219148   4.975   2.600   3.999
 6402TIP3    H119149   5.058   2.565   3.968
 6402TIP3    H219150   4.983   2.695   3.987
 6403TIP3   OH219151   1.113   5.194   3.813
 6403TIP3    H119152   1.020   5.179   3.797
 6403TIP3    H219153   1.132   5.276   3.768
 6404TIP3   OH219154   5.637   7.588   6.776
 6404TIP3    H119155   5.727   7.622   6.782
 6404TIP3    H219156   5.625   7.568   6.684
 6405TIP3   OH219157   1.101   3.136   3.663
 6405TIP3    H119158   1.131   3.063   3.609
 6405TIP3    H219159   1.114   3.106   3.753
 6406TIP3   OH219160   2.423   6.843   5.157
 6406TIP3    H119161   2.414   6.884   5.071
 6406TIP3    H219162   2.496   6.889   5.198
 6407TIP3   OH219163   2.187   6.733   5.349
 6407TIP3    H119164   2.270   6.736   5.300
 6407TIP3    H219165   2.176   6.822   5.382
 6408TIP3   OH219166   1.632   7.580   2.317
 6408TIP3    H119167   1.584   7.643   2.371
 6408TIP3    H219168   1.679   7.634   2.253
 6409TIP3   OH219169   4.783   5.058   5.312
 6409TIP3    H119170   4.703   5.051   5.259
 6409TIP3    H219171   4.847   5.098   5.252
 6410TIP3   OH219172   2.143   7.140   1.627
 6410TIP3    H119173   2.185   7.217   1.589
 6410TIP3    H219174   2.112   7.090   1.551
 6411TIP3   OH219175   4.232   0.608   3.519
 6411TIP3    H119176   4.247   0.697   3.551
 6411TIP3    H219177   4.241   0.553   3.596
 6412TIP3   OH219178   7.362   6.478   0.320
 6412TIP3    H119179   7.440   6.424   0.309
 6412TIP3    H219180   7.346   6.479   0.415
 6413TIP3   OH219181   0.178   6.309   1.008
 6413TIP3    H119182   0.089   6.318   0.973
 6413TIP3    H219183   0.183   6.219   1.040
 6414TIP3   OH219184   3.510   6.434   2.052
 6414TIP3    H119185   3.457   6.444   2.131
 6414TIP3    H219186   3.524   6.340   2.045
 6415TIP3   OH219187   2.914   1.925   2.121
 6415TIP3    H119188   2.925   1.993   2.054
 6415TIP3    H219189   2.875   1.972   2.195
 6416TIP3   OH219190   2.454   0.204   3.950
 6416TIP3    H119191   2.514   0.134   3.979
 6416TIP3    H219192   2.495   0.239   3.872
 6417TIP3   OH219193   1.874   3.723   4.336
 6417TIP3    H119194   1.914   3.656   4.391
 6417TIP3    H219195   1.901   3.806   4.375
 6418TIP3   OH219196   3.708   5.648   0.682
 6418TIP3    H119197   3.711   5.686   0.594
 6418TIP3    H219198   3.680   5.720   0.739
 6419TIP3   OH219199   2.632   0.254   0.253
 6419TIP3    H119200   2.570   0.326   0.239
 6419TIP3    H219201   2.577   0.176   0.260
 6420TIP3   OH219202   2.122   2.489   2.013
 6420TIP3    H119203   2.114   2.584   2.006
 6420TIP3    H219204   2.038   2.456   1.979
 6421TIP3   OH219205   2.861   5.200   6.182
 6421TIP3    H119206   2.784   5.175   6.131
 6421TIP3    H219207   2.933   5.200   6.119
 6422TIP3   OH219208   7.470   3.783   4.392
 6422TIP3    H119209   7.533   3.715   4.414
 6422TIP3    H219210   7.386   3.750   4.424
 6423TIP3   OH219211   1.559   1.808   1.878
 6423TIP3    H119212   1.628   1.825   1.943
 6423TIP3    H219213   1.486   1.862   1.906
 6424TIP3   OH219214   4.547   2.196   4.026
 6424TIP3    H119215   4.633   2.182   4.065
 6424TIP3    H219216   4.544   2.136   3.951
 6425TIP3   OH219217   8.238   3.201   6.407
 6425TIP3    H119218   8.250   3.286   6.365
 6425TIP3    H219219   8.301   3.143   6.364
 6426TIP3   OH219220   7.224   0.653   5.343
 6426TIP3    H119221   7.192   0.725   5.397
 6426TIP3    H219222   7.202   0.679   5.254
 6427TIP3   OH219223   2.151   0.716   5.146
 6427TIP3    H119224   2.161   0.781   5.215
 6427TIP3    H219225   2.224   0.733   5.086
 6428TIP3   OH219226   7.380   0.069   2.885
 6428TIP3    H119227   7.330   0.149   2.871
 6428TIP3    H219228   7.459   0.080   2.833
 6429TIP3   OH219229   6.146   6.717   3.458
 6429TIP3    H119230   6.231   6.739   3.497
 6429TIP3    H219231   6.157   6.627   3.427
 6430TIP3   OH219232   0.407   2.979   2.203
 6430TIP3    H119233   0.485   2.942   2.163
 6430TIP3    H219234   0.408   3.071   2.176
 6431TIP3   OH219235   1.135   5.931   0.345
 6431TIP3    H119236   1.123   5.868   0.416
 6431TIP3    H219237   1.098   6.012   0.379
 6432TIP3   OH219238   2.336   0.053   2.907
 6432TIP3    H119239   2.407   0.012   2.957
 6432TIP3    H219240   2.304   0.123   2.965
 6433TIP3   OH219241   4.929   7.368   6.338
 6433TIP3    H119242   4.856   7.307   6.346
 6433TIP3    H219243   4.896   7.437   6.280
 6434TIP3   OH219244   2.408   0.537   5.074
 6434TIP3    H119245   2.398   0.579   4.989
 6434TIP3    H219246   2.486   0.578   5.112
 6435TIP3   OH219247   7.475   5.239   1.307
 6435TIP3    H119248   7.407   5.264   1.243
 6435TIP3    H219249   7.551   5.291   1.283
 6436TIP3   OH219250   5.085   0.788   5.929
 6436TIP3    H119251   5.125   0.725   5.989
 6436TIP3    H219252   5.018   0.832   5.982
 6437TIP3   OH219253   2.832   3.204   6.738
 6437TIP3    H119254   2.774   3.246   6.675
 6437TIP3    H219255   2.801   3.236   6.823
 6438TIP3   OH219256   4.205   3.257   2.959
 6438TIP3    H119257   4.178   3.166   2.946
 6438TIP3    H219258   4.227   3.262   3.052
 6439TIP3   OH219259   3.645   6.190   0.036
 6439TIP3    H119260   3.723   6.151   0.074
 6439TIP3    H219261   3.572   6.141   0.073
 6440TIP3   OH219262   7.074   2.405   2.518
 6440TIP3    H119263   7.102   2.319   2.550
 6440TIP3    H219264   7.090   2.402   2.424
 6441TIP3   OH219265   1.591   0.329   4.736
 6441TIP3    H119266   1.684   0.353   4.735
 6441TIP3    H219267   1.544   0.412   4.735
 6442TIP3   OH219268   2.026   2.040   4.980
 6442TIP3    H119269   2.004   1.964   5.033
 6442TIP3    H219270   2.104   2.013   4.931
 6443TIP3   OH219271   6.100   6.076   2.407
 6443TIP3    H119272   6.179   6.125   2.429
 6443TIP3    H219273   6.089   6.015   2.479
 6444TIP3   OH219274   4.281   0.306   2.678
 6444TIP3    H119275   4.326   0.263   2.605
 6444TIP3    H219276   4.286   0.243   2.750
 6445TIP3   OH219277   3.873   6.109   0.160
 6445TIP3    H119278   3.896   6.053   0.234
 6445TIP3    H219279   3.900   6.196   0.187
 6446TIP3   OH219280   7.935   5.182   0.421
 6446TIP3    H119281   7.887   5.202   0.341
 6446TIP3    H219282   8.022   5.157   0.391
 6447TIP3   OH219283   6.831   2.437   1.599
 6447TIP3    H119284   6.812   2.478   1.683
 6447TIP3    H219285   6.926   2.444   1.589
 6448TIP3   OH219286   6.171   6.247   5.931
 6448TIP3    H119287   6.253   6.286   5.900
 6448TIP3    H219288   6.112   6.322   5.942
 6449TIP3   OH219289   6.070   4.565   4.763
 6449TIP3    H119290   6.040   4.488   4.714
 6449TIP3    H219291   6.040   4.640   4.711
 6450TIP3   OH219292   7.332   5.255   0.087
 6450TIP3    H119293   7.384   5.300   0.021
 6450TIP3    H219294   7.248   5.301   0.087
 6451TIP3   OH219295   4.067   4.304   3.925
 6451TIP3    H119296   4.126   4.374   3.954
 6451TIP3    H219297   4.098   4.282   3.838
 6452TIP3   OH219298   5.018   5.863   6.234
 6452TIP3    H119299   5.028   5.907   6.318
 6452TIP3    H219300   5.102   5.820   6.219
 6453TIP3   OH219301   7.645   6.135   2.709
 6453TIP3    H119302   7.574   6.072   2.697
 6453TIP3    H219303   7.722   6.091   2.673
 6454TIP3   OH219304   6.347   7.252   4.479
 6454TIP3    H119305   6.440   7.274   4.471
 6454TIP3    H219306   6.301   7.331   4.450
 6455TIP3   OH219307   1.399   5.089   0.402
 6455TIP3    H119308   1.446   5.014   0.439
 6455TIP3    H219309   1.463   5.132   0.346
 6456TIP3   OH219310   4.105   5.900   5.709
 6456TIP3    H119311   4.196   5.930   5.714
 6456TIP3    H219312   4.054   5.979   5.724
 6457TIP3   OH219313   1.288   2.094   1.029
 6457TIP3    H119314   1.306   2.094   1.123
 6457TIP3    H219315   1.254   2.182   1.011
 6458TIP3   OH219316   4.425   4.609   0.252
 6458TIP3    H119317   4.443   4.558   0.331
 6458TIP3    H219318   4.470   4.562   0.182
 6459TIP3   OH219319   7.530   6.264   0.347
 6459TIP3    H119320   7.610   6.291   0.393
 6459TIP3    H219321   7.550   6.178   0.311
 6460TIP3   OH219322   1.280   5.908   4.433
 6460TIP3    H119323   1.313   5.821   4.457
 6460TIP3    H219324   1.300   5.962   4.510
 6461TIP3   OH219325   0.172   6.082   6.789
 6461TIP3    H119326   0.118   6.151   6.750
 6461TIP3    H219327   0.110   6.031   6.843
 6462TIP3   OH219328   5.648   3.695   3.688
 6462TIP3    H119329   5.681   3.729   3.605
 6462TIP3    H219330   5.641   3.773   3.744
 6463TIP3   OH219331   7.744   2.193   2.897
 6463TIP3    H119332   7.777   2.146   2.821
 6463TIP3    H219333   7.816   2.189   2.960
 6464TIP3   OH219334   4.135   1.089   2.029
 6464TIP3    H119335   4.096   1.010   2.066
 6464TIP3    H219336   4.229   1.079   2.043
 6465TIP3   OH219337   4.374   6.446   4.052
 6465TIP3    H119338   4.327   6.372   4.089
 6465TIP3    H219339   4.322   6.471   3.975
 6466TIP3   OH219340   7.353   3.564   5.584
 6466TIP3    H119341   7.373   3.611   5.503
 6466TIP3    H219342   7.354   3.631   5.652
 6467TIP3   OH219343   2.661   3.262   6.162
 6467TIP3    H119344   2.691   3.348   6.134
 6467TIP3    H219345   2.725   3.233   6.227
 6468TIP3   OH219346   7.312   4.953   5.329
 6468TIP3    H119347   7.407   4.966   5.331
 6468TIP3    H219348   7.288   4.935   5.420
 6469TIP3   OH219349   6.330   0.806   0.370
 6469TIP3    H119350   6.402   0.864   0.348
 6469TIP3    H219351   6.283   0.794   0.287
 6470TIP3   OH219352   1.854   1.721   2.394
 6470TIP3    H119353   1.852   1.691   2.485
 6470TIP3    H219354   1.766   1.754   2.377
 6471TIP3   OH219355   6.498   5.485   2.532
 6471TIP3    H119356   6.520   5.392   2.528
 6471TIP3    H219357   6.461   5.505   2.446
 6472TIP3   OH219358   1.648   1.571   2.106
 6472TIP3    H119359   1.696   1.493   2.077
 6472TIP3    H219360   1.712   1.642   2.099
 6473TIP3   OH219361   0.890   1.364   4.870
 6473TIP3    H119362   0.893   1.453   4.833
 6473TIP3    H219363   0.829   1.316   4.813
 6474TIP3   OH219364   3.093   1.099   6.442
 6474TIP3    H119365   3.017   1.097   6.500
 6474TIP3    H219366   3.164   1.064   6.496
 6475TIP3   OH219367   5.393   3.741   1.509
 6475TIP3    H119368   5.475   3.770   1.470
 6475TIP3    H219369   5.366   3.665   1.457
 6476TIP3   OH219370   5.848   6.450   3.495
 6476TIP3    H119371   5.757   6.423   3.483
 6476TIP3    H219372   5.845   6.546   3.496
 6477TIP3   OH219373   0.099   1.523   5.964
 6477TIP3    H119374   0.153   1.557   6.035
 6477TIP3    H219375   0.030   1.587   5.952
 6478TIP3   OH219376   2.544   7.481   0.199
 6478TIP3    H119377   2.560   7.389   0.177
 6478TIP3    H219378   2.610   7.529   0.150
 6479TIP3   OH219379   4.284   6.740   4.323
 6479TIP3    H119380   4.240   6.657   4.339
 6479TIP3    H219381   4.246   6.771   4.241
 6480TIP3   OH219382   0.168   2.167   0.081
 6480TIP3    H119383   0.119   2.085   0.072
 6480TIP3    H219384   0.102   2.235   0.064
 6481TIP3   OH219385   2.386   0.287   3.628
 6481TIP3    H119386   2.373   0.266   3.535
 6481TIP3    H219387   2.337   0.368   3.641
 6482TIP3   OH219388   2.928   2.344   2.583
 6482TIP3    H119389   2.878   2.264   2.597
 6482TIP3    H219390   3.015   2.325   2.617
 6483TIP3   OH219391   6.627   5.165   5.955
 6483TIP3    H119392   6.618   5.257   5.931
 6483TIP3    H219393   6.549   5.123   5.918
 6484TIP3   OH219394   2.630   3.806   0.185
 6484TIP3    H119395   2.581   3.766   0.114
 6484TIP3    H219396   2.686   3.871   0.142
 6485TIP3   OH219397   3.082   1.469   6.341
 6485TIP3    H119398   3.020   1.405   6.375
 6485TIP3    H219399   3.031   1.518   6.276
 6486TIP3   OH219400   1.177   2.073   3.358
 6486TIP3    H119401   1.146   2.142   3.416
 6486TIP3    H219402   1.140   2.095   3.272
 6487TIP3   OH219403   4.133   3.637   6.442
 6487TIP3    H119404   4.054   3.619   6.493
 6487TIP3    H219405   4.113   3.606   6.354
 6488TIP3   OH219406   1.603   3.624   0.337
 6488TIP3    H119407   1.532   3.561   0.344
 6488TIP3    H219408   1.572   3.689   0.274
 6489TIP3   OH219409   2.286   5.051   0.665
 6489TIP3    H119410   2.303   5.073   0.757
 6489TIP3    H219411   2.355   4.989   0.642
 6490TIP3   OH219412   4.982   6.624   4.372
 6490TIP3    H119413   4.886   6.625   4.372
 6490TIP3    H219414   5.006   6.680   4.446
 6491TIP3   OH219415   1.232   6.586   3.860
 6491TIP3    H119416   1.161   6.522   3.866
 6491TIP3    H219417   1.307   6.535   3.829
 6492TIP3   OH219418   7.607   5.684   6.171
 6492TIP3    H119419   7.577   5.706   6.083
 6492TIP3    H219420   7.586   5.591   6.181
 6493TIP3   OH219421   6.907   5.608   3.817
 6493TIP3    H119422   6.974   5.597   3.750
 6493TIP3    H219423   6.844   5.538   3.800
 6494TIP3   OH219424   1.814   5.298   6.409
 6494TIP3    H119425   1.808   5.295   6.504
 6494TIP3    H219426   1.789   5.210   6.381
 6495TIP3   OH219427   2.768   7.072   3.173
 6495TIP3    H119428   2.764   7.036   3.262
 6495TIP3    H219429   2.852   7.041   3.139
 6496TIP3   OH219430   6.602   5.385   5.287
 6496TIP3    H119431   6.508   5.368   5.281
 6496TIP3    H219432   6.617   5.404   5.380
 6497TIP3   OH219433   7.574   3.233   6.682
 6497TIP3    H119434   7.608   3.178   6.612
 6497TIP3    H219435   7.488   3.196   6.703
 6498TIP3   OH219436   7.660   0.809   0.198
 6498TIP3    H119437   7.607   0.736   0.165
 6498TIP3    H219438   7.737   0.767   0.235
 6499TIP3   OH219439   0.389   5.070   6.569
 6499TIP3    H119440   0.310   5.020   6.549
 6499TIP3    H219441   0.461   5.010   6.551
 6500TIP3   OH219442   7.735  -0.006   5.398
 6500TIP3    H119443   7.767  -0.049   5.477
 6500TIP3    H219444   7.765  -0.062   5.326
 6501TIP3   OH219445   2.362   2.005   2.560
 6501TIP3    H119446   2.396   1.921   2.592
 6501TIP3    H219447   2.279   2.016   2.607
 6502TIP3   OH219448   8.050   1.765   0.868
 6502TIP3    H119449   8.085   1.838   0.818
 6502TIP3    H219450   7.955   1.771   0.857
 6503TIP3   OH219451   6.937   3.084   3.894
 6503TIP3    H119452   6.861   3.033   3.920
 6503TIP3    H219453   6.941   3.156   3.957
 6504TIP3   OH219454   3.640   2.961   5.844
 6504TIP3    H119455   3.648   2.970   5.749
 6504TIP3    H219456   3.715   3.009   5.879
 6505TIP3   OH219457   5.715   2.811   5.517
 6505TIP3    H119458   5.623   2.809   5.490
 6505TIP3    H219459   5.711   2.824   5.612
 6506TIP3   OH219460   6.996   4.563   1.258
 6506TIP3    H119461   6.940   4.495   1.220
 6506TIP3    H219462   6.955   4.645   1.233
 6507TIP3   OH219463   0.341   1.584   4.555
 6507TIP3    H119464   0.248   1.605   4.563
 6507TIP3    H219465   0.359   1.530   4.632
 6508TIP3   OH219466   6.581   5.313   4.751
 6508TIP3    H119467   6.675   5.295   4.749
 6508TIP3    H219468   6.542   5.244   4.697
 6509TIP3   OH219469   6.441   2.616   4.260
 6509TIP3    H119470   6.347   2.606   4.275
 6509TIP3    H219471   6.482   2.567   4.332
 6510TIP3   OH219472   4.055   7.571   3.922
 6510TIP3    H119473   4.102   7.561   4.004
 6510TIP3    H219474   4.122   7.567   3.854
 6511TIP3   OH219475   1.012   6.061   4.961
 6511TIP3    H119476   0.920   6.084   4.948
 6511TIP3    H219477   1.017   6.031   5.052
 6512TIP3   OH219478   3.093   1.890   3.235
 6512TIP3    H119479   3.179   1.874   3.273
 6512TIP3    H219480   3.089   1.985   3.224
 6513TIP3   OH219481   5.391   4.827   3.167
 6513TIP3    H119482   5.485   4.815   3.152
 6513TIP3    H219483   5.385   4.911   3.213
 6514TIP3   OH219484   6.048   1.370   5.610
 6514TIP3    H119485   5.989   1.327   5.672
 6514TIP3    H219486   6.043   1.463   5.633
 6515TIP3   OH219487   6.562   3.772   5.477
 6515TIP3    H119488   6.617   3.817   5.413
 6515TIP3    H219489   6.598   3.683   5.481
 6516TIP3   OH219490   6.712   6.689   1.395
 6516TIP3    H119491   6.617   6.686   1.410
 6516TIP3    H219492   6.722   6.738   1.314
 6517TIP3   OH219493   3.654   3.621   1.497
 6517TIP3    H119494   3.682   3.707   1.465
 6517TIP3    H219495   3.716   3.600   1.567
 6518TIP3   OH219496   3.714   5.048   2.152
 6518TIP3    H119497   3.801   5.089   2.152
 6518TIP3    H219498   3.732   4.954   2.154
 6519TIP3   OH219499   4.911   2.659   4.687
 6519TIP3    H119500   4.959   2.741   4.695
 6519TIP3    H219501   4.922   2.634   4.595
 6520TIP3   OH219502   6.582   3.936   3.041
 6520TIP3    H119503   6.548   3.860   2.993
 6520TIP3    H219504   6.671   3.910   3.066
 6521TIP3   OH219505   6.823   5.810   4.299
 6521TIP3    H119506   6.774   5.775   4.225
 6521TIP3    H219507   6.850   5.734   4.349
 6522TIP3   OH219508   6.003   1.537   0.450
 6522TIP3    H119509   5.972   1.453   0.418
 6522TIP3    H219510   6.055   1.573   0.377
 6523TIP3   OH219511   3.356   4.540   4.087
 6523TIP3    H119512   3.402   4.615   4.123
 6523TIP3    H219513   3.328   4.489   4.163
 6524TIP3   OH219514   2.397   0.003   0.685
 6524TIP3    H119515   2.435   0.046   0.761
 6524TIP3    H219516   2.365  -0.081   0.718
 6525TIP3   OH219517   4.723   6.356   4.264
 6525TIP3    H119518   4.804   6.370   4.215
 6525TIP3    H219519   4.668   6.430   4.241
 6526TIP3   OH219520   0.804   1.517   4.033
 6526TIP3    H119521   0.863   1.575   3.985
 6526TIP3    H219522   0.858   1.443   4.059
 6527TIP3   OH219523   4.775   4.474   1.913
 6527TIP3    H119524   4.763   4.404   1.977
 6527TIP3    H219525   4.691   4.480   1.867
 6528TIP3   OH219526   5.323   5.699   6.573
 6528TIP3    H119527   5.267   5.758   6.622
 6528TIP3    H219528   5.308   5.613   6.612
 6529TIP3   OH219529   0.943   5.406   5.051
 6529TIP3    H119530   0.967   5.328   5.001
 6529TIP3    H219531   1.002   5.406   5.126
 6530TIP3   OH219532   6.742   2.047   1.189
 6530TIP3    H119533   6.695   2.130   1.180
 6530TIP3    H219534   6.821   2.059   1.136
 6531TIP3   OH219535   1.643   6.511   2.088
 6531TIP3    H119536   1.718   6.477   2.041
 6531TIP3    H219537   1.612   6.585   2.035
 6532TIP3   OH219538   1.858   7.382   5.371
 6532TIP3    H119539   1.946   7.414   5.387
 6532TIP3    H219540   1.853   7.300   5.421
 6533TIP3   OH219541   3.054   1.347   3.182
 6533TIP3    H119542   3.054   1.402   3.103
 6533TIP3    H219543   3.044   1.258   3.149
 6534TIP3   OH219544   1.925   2.757   6.484
 6534TIP3    H119545   1.969   2.693   6.428
 6534TIP3    H219546   1.974   2.755   6.566
 6535TIP3   OH219547   7.743   6.898   5.447
 6535TIP3    H119548   7.710   6.809   5.433
 6535TIP3    H219549   7.669   6.955   5.427
 6536TIP3   OH219550   2.401   1.266   1.309
 6536TIP3    H119551   2.339   1.282   1.238
 6536TIP3    H219552   2.478   1.229   1.265
 6537TIP3   OH219553   1.869   6.301   4.839
 6537TIP3    H119554   1.931   6.247   4.790
 6537TIP3    H219555   1.902   6.300   4.929
 6538TIP3   OH219556   1.833   1.103   5.290
 6538TIP3    H119557   1.771   1.127   5.359
 6538TIP3    H219558   1.801   1.149   5.212
 6539TIP3   OH219559   4.751   3.856   1.653
 6539TIP3    H119560   4.664   3.841   1.615
 6539TIP3    H219561   4.801   3.778   1.628
 6540TIP3   OH219562   7.527   1.930   6.418
 6540TIP3    H119563   7.609   1.972   6.393
 6540TIP3    H219564   7.538   1.908   6.511
 6541TIP3   OH219565   4.423   5.241   3.162
 6541TIP3    H119566   4.502   5.295   3.155
 6541TIP3    H219567   4.416   5.198   3.077
 6542TIP3   OH219568   5.934   6.447   5.862
 6542TIP3    H119569   5.895   6.419   5.779
 6542TIP3    H219570   5.868   6.427   5.928
 6543TIP3   OH219571   5.351   5.128   5.539
 6543TIP3    H119572   5.264   5.088   5.533
 6543TIP3    H219573   5.397   5.077   5.605
 6544TIP3   OH219574   5.827   4.992   6.449
 6544TIP3    H119575   5.831   5.079   6.489
 6544TIP3    H219576   5.918   4.964   6.444
 6545TIP3   OH219577   7.316   2.816   1.811
 6545TIP3    H119578   7.367   2.892   1.838
 6545TIP3    H219579   7.227   2.835   1.843
 6546TIP3   OH219580   4.930   3.832   6.012
 6546TIP3    H119581   4.997   3.774   5.974
 6546TIP3    H219582   4.964   3.854   6.099
 6547TIP3   OH219583   3.136   1.655   2.262
 6547TIP3    H119584   3.115   1.598   2.188
 6547TIP3    H219585   3.140   1.596   2.337
 6548TIP3   OH219586   0.429   1.753   6.503
 6548TIP3    H119587   0.361   1.687   6.490
 6548TIP3    H219588   0.412   1.818   6.435
 6549TIP3   OH219589   5.549   2.387   1.893
 6549TIP3    H119590   5.523   2.297   1.916
 6549TIP3    H219591   5.645   2.385   1.894
 6550TIP3   OH219592   5.629   5.396   6.508
 6550TIP3    H119593   5.644   5.373   6.416
 6550TIP3    H219594   5.595   5.316   6.548
 6551TIP3   OH219595   0.755   1.465   6.326
 6551TIP3    H119596   0.681   1.519   6.298
 6551TIP3    H219597   0.813   1.461   6.250
 6552TIP3   OH219598   3.316   1.466   5.697
 6552TIP3    H119599   3.341   1.380   5.733
 6552TIP3    H219600   3.223   1.456   5.675
 6553TIP3   OH219601   4.120   3.374   4.452
 6553TIP3    H119602   4.185   3.398   4.518
 6553TIP3    H219603   4.166   3.384   4.368
 6554TIP3   OH219604   4.092   6.385   1.309
 6554TIP3    H119605   4.151   6.418   1.241
 6554TIP3    H219606   4.006   6.418   1.284
 6555TIP3   OH219607   6.827   5.001   4.948
 6555TIP3    H119608   6.862   5.089   4.957
 6555TIP3    H219609   6.754   4.997   5.009
 6556TIP3   OH219610   5.902   3.902   2.448
 6556TIP3    H119611   5.878   3.858   2.367
 6556TIP3    H219612   5.924   3.831   2.508
 6557TIP3   OH219613   2.309   4.511   4.358
 6557TIP3    H119614   2.313   4.607   4.367
 6557TIP3    H219615   2.388   4.480   4.403
 6558TIP3   OH219616   5.442   0.939   0.171
 6558TIP3    H119617   5.354   0.931   0.135
 6558TIP3    H219618   5.436   1.007   0.237
 6559TIP3   OH219619   1.726   0.193   4.266
 6559TIP3    H119620   1.682   0.227   4.344
 6559TIP3    H219621   1.760   0.108   4.293
 6560TIP3   OH219622   6.033   7.725   5.898
 6560TIP3    H119623   6.125   7.711   5.922
 6560TIP3    H219624   6.037   7.761   5.809
 6561TIP3   OH219625   1.392   5.984   5.373
 6561TIP3    H119626   1.308   5.946   5.348
 6561TIP3    H219627   1.421   6.033   5.296
 6562TIP3   OH219628   1.212   0.670   3.708
 6562TIP3    H119629   1.165   0.622   3.640
 6562TIP3    H219630   1.156   0.662   3.785
 6563TIP3   OH219631   6.478   5.094   1.750
 6563TIP3    H119632   6.461   5.157   1.680
 6563TIP3    H219633   6.392   5.076   1.787
 6564TIP3   OH219634   2.968   0.599   6.222
 6564TIP3    H119635   2.892   0.656   6.233
 6564TIP3    H219636   3.036   0.655   6.186
 6565TIP3   OH219637   6.166   0.875   3.679
 6565TIP3    H119638   6.253   0.913   3.695
 6565TIP3    H219639   6.170   0.790   3.724
 6566TIP3   OH219640   8.199   6.371   0.545
 6566TIP3    H119641   8.107   6.394   0.561
 6566TIP3    H219642   8.219   6.408   0.460
 6567TIP3   OH219643   6.097   5.794   1.135
 6567TIP3    H119644   6.031   5.738   1.176
 6567TIP3    H219645   6.082   5.880   1.173
 6568TIP3   OH219646   7.839   6.206   0.938
 6568TIP3    H119647   7.851   6.115   0.965
 6568TIP3    H219648   7.752   6.230   0.971
 6569TIP3   OH219649   5.853   5.734   5.563
 6569TIP3    H119650   5.884   5.681   5.636
 6569TIP3    H219651   5.762   5.708   5.551
 6570TIP3   OH219652   3.133   3.528   0.493
 6570TIP3    H119653   3.164   3.447   0.452
 6570TIP3    H219654   3.152   3.596   0.429
 6571TIP3   OH219655   1.863  -0.044   3.946
 6571TIP3    H119656   1.881   0.049   3.966
 6571TIP3    H219657   1.818  -0.042   3.862
 6572TIP3   OH219658   7.588   1.985   2.989
 6572TIP3    H119659   7.674   1.955   3.020
 6572TIP3    H219660   7.599   2.079   2.976
 6573TIP3   OH219661   7.639   0.452   3.886
 6573TIP3    H119662   7.588   0.379   3.849
 6573TIP3    H219663   7.713   0.409   3.930
 6574TIP3   OH219664   7.843   2.026   3.376
 6574TIP3    H119665   7.847   1.991   3.287
 6574TIP3    H219666   7.758   2.071   3.379
 6575TIP3   OH219667   4.188   2.552   1.497
 6575TIP3    H119668   4.283   2.553   1.510
 6575TIP3    H219669   4.158   2.637   1.529
 6576TIP3   OH219670   1.365   2.508   6.278
 6576TIP3    H119671   1.431   2.472   6.336
 6576TIP3    H219672   1.284   2.509   6.330
 6577TIP3   OH219673   6.690   6.511   5.870
 6577TIP3    H119674   6.653   6.581   5.924
 6577TIP3    H219675   6.718   6.445   5.933
 6578TIP3   OH219676   4.088   0.992   3.403
 6578TIP3    H119677   4.035   0.916   3.382
 6578TIP3    H219678   4.104   1.035   3.319
 6579TIP3   OH219679   0.940   4.580   3.742
 6579TIP3    H119680   0.985   4.614   3.819
 6579TIP3    H219681   0.879   4.515   3.776
 6580TIP3   OH219682   1.647   1.205   0.534
 6580TIP3    H119683   1.711   1.144   0.570
 6580TIP3    H219684   1.570   1.196   0.590
 6581TIP3   OH219685   7.711   6.557   6.398
 6581TIP3    H119686   7.667   6.502   6.333
 6581TIP3    H219687   7.671   6.643   6.388
 6582TIP3   OH219688   0.367   3.749   1.890
 6582TIP3    H119689   0.394   3.839   1.907
 6582TIP3    H219690   0.312   3.754   1.812
 6583TIP3   OH219691   5.000   4.000   2.426
 6583TIP3    H119692   4.981   3.958   2.511
 6583TIP3    H219693   4.934   3.964   2.367
 6584TIP3   OH219694   4.105   7.461   2.578
 6584TIP3    H119695   4.082   7.443   2.487
 6584TIP3    H219696   4.050   7.535   2.602
 6585TIP3   OH219697   7.022   1.643   5.799
 6585TIP3    H119698   6.934   1.657   5.834
 6585TIP3    H219699   7.009   1.587   5.722
 6586TIP3   OH219700   2.213   0.496   1.804
 6586TIP3    H119701   2.269   0.418   1.809
 6586TIP3    H219702   2.141   0.477   1.865
 6587TIP3   OH219703   3.845   4.283   2.684
 6587TIP3    H119704   3.786   4.332   2.742
 6587TIP3    H219705   3.787   4.239   2.622
 6588TIP3   OH219706   1.382   0.566   5.938
 6588TIP3    H119707   1.416   0.533   6.020
 6588TIP3    H219708   1.418   0.654   5.930
 6589TIP3   OH219709   6.436   3.549   0.064
 6589TIP3    H119710   6.483   3.564  -0.018
 6589TIP3    H219711   6.348   3.584   0.048
 6590TIP3   OH219712   0.430   7.710   2.544
 6590TIP3    H119713   0.413   7.774   2.612
 6590TIP3    H219714   0.345   7.669   2.527
 6591TIP3   OH219715   6.213   6.453   5.404
 6591TIP3    H119716   6.290   6.504   5.428
 6591TIP3    H219717   6.232   6.421   5.316
 6592TIP3   OH219718   2.922   1.590   5.596
 6592TIP3    H119719   2.862   1.638   5.539
 6592TIP3    H219720   3.008   1.627   5.577
 6593TIP3   OH219721   0.610   4.204   1.249
 6593TIP3    H119722   0.521   4.198   1.284
 6593TIP3    H219723   0.600   4.251   1.167
 6594TIP3   OH219724   3.998   2.880   5.275
 6594TIP3    H119725   3.968   2.948   5.214
 6594TIP3    H219726   3.926   2.818   5.279
 6595TIP3   OH219727   4.708   7.454   0.345
 6595TIP3    H119728   4.766   7.509   0.397
 6595TIP3    H219729   4.764   7.381   0.317
 6596TIP3   OH219730   0.775   2.893   0.179
 6596TIP3    H119731   0.681   2.876   0.175
 6596TIP3    H219732   0.816   2.814   0.143
 6597TIP3   OH219733   2.858   7.076   4.893
 6597TIP3    H119734   2.843   7.136   4.820
 6597TIP3    H219735   2.896   6.998   4.854
 6598TIP3   OH219736   2.008   5.959   5.632
 6598TIP3    H119737   2.095   5.995   5.615
 6598TIP3    H219738   2.018   5.865   5.620
 6599TIP3   OH219739   1.683   7.020   0.406
 6599TIP3    H119740   1.620   7.075   0.360
 6599TIP3    H219741   1.637   6.994   0.487
 6600TIP3   OH219742   1.936   0.350   5.616
 6600TIP3    H119743   1.972   0.342   5.704
 6600TIP3    H219744   2.013   0.350   5.558
 6601TIP3   OH219745   3.998   1.162   5.105
 6601TIP3    H119746   3.955   1.197   5.182
 6601TIP3    H219747   4.092   1.164   5.127
 6602TIP3   OH219748   7.743   5.719   0.917
 6602TIP3    H119749   7.720   5.635   0.958
 6602TIP3    H219750   7.837   5.713   0.899
 6603TIP3   OH219751   4.831   5.740   4.629
 6603TIP3    H119752   4.783   5.818   4.657
 6603TIP3    H219753   4.922   5.770   4.618
 6604TIP3   OH219754   2.191   4.683   5.551
 6604TIP3    H119755   2.268   4.631   5.529
 6604TIP3    H219756   2.200   4.701   5.645
 6605TIP3   OH219757   4.104   5.169   3.511
 6605TIP3    H119758   4.191   5.207   3.496
 6605TIP3    H219759   4.100   5.095   3.451
 6606TIP3   OH219760   2.601   3.912   3.003
 6606TIP3    H119761   2.574   3.860   2.927
 6606TIP3    H219762   2.694   3.930   2.988
 6607TIP3   OH219763   3.522   1.671   3.917
 6607TIP3    H119764   3.588   1.676   3.849
 6607TIP3    H219765   3.570   1.646   3.996
 6608TIP3   OH219766   3.716   3.118   4.175
 6608TIP3    H119767   3.702   3.199   4.126
 6608TIP3    H219768   3.795   3.134   4.227
 6609TIP3   OH219769   7.157   0.355   3.246
 6609TIP3    H119770   7.129   0.395   3.164
 6609TIP3    H219771   7.251   0.371   3.251
 6610TIP3   OH219772   3.861   0.628   2.756
 6610TIP3    H119773   3.893   0.624   2.846
 6610TIP3    H219774   3.879   0.541   2.720
 6611TIP3   OH219775   2.938   7.544   0.186
 6611TIP3    H119776   2.883   7.618   0.165
 6611TIP3    H219777   2.882   7.467   0.173
 6612TIP3   OH219778   2.637   5.407   0.269
 6612TIP3    H119779   2.704   5.380   0.332
 6612TIP3    H219780   2.578   5.462   0.320
 6613TIP3   OH219781   7.682   6.403   5.913
 6613TIP3    H119782   7.727   6.414   5.997
 6613TIP3    H219783   7.597   6.365   5.936
 6614TIP3   OH219784   3.283   7.387   3.352
 6614TIP3    H119785   3.226   7.322   3.310
 6614TIP3    H219786   3.290   7.358   3.443
 6615TIP3   OH219787   3.342   4.074   3.275
 6615TIP3    H119788   3.423   4.038   3.311
 6615TIP3    H219789   3.273   4.037   3.331
 6616TIP3   OH219790   7.002   1.287   4.033
 6616TIP3    H119791   6.914   1.270   4.068
 6616TIP3    H219792   6.996   1.265   3.940
 6617TIP3   OH219793   6.974   4.584   6.008
 6617TIP3    H119794   7.069   4.577   6.014
 6617TIP3    H219795   6.941   4.529   6.079
 6618TIP3   OH219796   6.679   6.945   0.586
 6618TIP3    H119797   6.725   6.942   0.670
 6618TIP3    H219798   6.713   7.025   0.544
 6619TIP3   OH219799   0.474   1.883   3.011
 6619TIP3    H119800   0.484   1.795   3.047
 6619TIP3    H219801   0.489   1.873   2.917
 6620TIP3   OH219802   7.510   3.799   5.004
 6620TIP3    H119803   7.487   3.891   5.016
 6620TIP3    H219804   7.606   3.799   5.002
 6621TIP3   OH219805   7.205   7.527   0.786
 6621TIP3    H119806   7.136   7.461   0.786
 6621TIP3    H219807   7.165   7.603   0.828
 6622TIP3   OH219808   1.970   2.719   1.409
 6622TIP3    H119809   2.055   2.676   1.402
 6622TIP3    H219810   1.991   2.811   1.424
 6623TIP3   OH219811   5.037   1.965   2.878
 6623TIP3    H119812   4.965   1.969   2.815
 6623TIP3    H219813   4.997   1.990   2.961
 6624TIP3   OH219814   5.998   6.178   1.653
 6624TIP3    H119815   5.992   6.091   1.614
 6624TIP3    H219816   5.915   6.220   1.632
 6625TIP3   OH219817   7.414   3.901   2.307
 6625TIP3    H119818   7.322   3.892   2.281
 6625TIP3    H219819   7.447   3.811   2.312
 6626TIP3   OH219820   6.697   7.356   6.104
 6626TIP3    H119821   6.777   7.351   6.157
 6626TIP3    H219822   6.728   7.346   6.014
 6627TIP3   OH219823   7.268   4.009   3.094
 6627TIP3    H119824   7.276   4.103   3.077
 6627TIP3    H219825   7.201   4.002   3.162
 6628TIP3   OH219826   2.472   6.993   4.941
 6628TIP3    H119827   2.514   7.056   5.000
 6628TIP3    H219828   2.454   7.043   4.861
 6629TIP3   OH219829   0.664   1.651   1.615
 6629TIP3    H119830   0.744   1.662   1.563
 6629TIP3    H219831   0.593   1.649   1.550
 6630TIP3   OH219832   5.331   3.096   2.644
 6630TIP3    H119833   5.423   3.109   2.667
 6630TIP3    H219834   5.283   3.156   2.701
 6631TIP3   OH219835   0.683   6.620   0.561
 6631TIP3    H119836   0.632   6.593   0.484
 6631TIP3    H219837   0.674   6.547   0.622
 6632TIP3   OH219838   7.626   6.898   3.171
 6632TIP3    H119839   7.709   6.851   3.171
 6632TIP3    H219840   7.561   6.831   3.193
 6633TIP3   OH219841   1.991   6.017   5.180
 6633TIP3    H119842   2.001   6.100   5.133
 6633TIP3    H219843   1.921   5.972   5.134
 6634TIP3   OH219844   7.265   7.682   6.425
 6634TIP3    H119845   7.339   7.735   6.396
 6634TIP3    H219846   7.192   7.743   6.429
 6635TIP3   OH219847   6.112   1.272   2.670
 6635TIP3    H119848   6.098   1.335   2.741
 6635TIP3    H219849   6.049   1.202   2.688
 6636TIP3   OH219850   5.345   1.448   2.135
 6636TIP3    H119851   5.429   1.495   2.138
 6636TIP3    H219852   5.291   1.491   2.202
 6637TIP3   OH219853   2.988   4.737   5.766
 6637TIP3    H119854   2.997   4.659   5.821
 6637TIP3    H219855   3.001   4.811   5.827
 6638TIP3   OH219856   5.849   2.914   2.562
 6638TIP3    H119857   5.783   2.927   2.494
 6638TIP3    H219858   5.799   2.894   2.641
 6639TIP3   OH219859   7.164   6.828   1.110
 6639TIP3    H119860   7.079   6.822   1.155
 6639TIP3    H219861   7.168   6.748   1.058
 6640TIP3   OH219862   2.249   2.045   1.058
 6640TIP3    H119863   2.188   1.971   1.055
 6640TIP3    H219864   2.283   2.045   1.148
 6641TIP3   OH219865   0.673   0.268   2.101
 6641TIP3    H119866   0.710   0.352   2.128
 6641TIP3    H219867   0.614   0.243   2.172
 6642TIP3   OH219868   0.581   7.803   5.136
 6642TIP3    H119869   0.509   7.761   5.090
 6642TIP3    H219870   0.586   7.759   5.220
 6643TIP3   OH219871   3.209   3.416   3.334
 6643TIP3    H119872   3.147   3.350   3.364
 6643TIP3    H219873   3.163   3.462   3.264
 6644TIP3   OH219874   7.037   4.924   6.712
 6644TIP3    H119875   7.030   4.962   6.624
 6644TIP3    H219876   6.949   4.893   6.732
 6645TIP3   OH219877   1.923   0.759   0.806
 6645TIP3    H119878   1.928   0.820   0.880
 6645TIP3    H219879   1.986   0.690   0.828
 6646TIP3   OH219880   2.642   2.750   5.560
 6646TIP3    H119881   2.630   2.709   5.474
 6646TIP3    H219882   2.682   2.681   5.613
 6647TIP3   OH219883   0.866   6.095   2.510
 6647TIP3    H119884   0.791   6.153   2.520
 6647TIP3    H219885   0.899   6.113   2.422
 6648TIP3   OH219886   7.616   0.882   3.962
 6648TIP3    H119887   7.547   0.816   3.968
 6648TIP3    H219888   7.677   0.860   4.033
 6649TIP3   OH219889   3.548   3.925   3.362
 6649TIP3    H119890   3.561   3.831   3.351
 6649TIP3    H219891   3.634   3.963   3.348
 6650TIP3   OH219892   2.709   5.181   4.300
 6650TIP3    H119893   2.756   5.098   4.307
 6650TIP3    H219894   2.700   5.196   4.206
 6651TIP3   OH219895   5.648   4.795   4.223
 6651TIP3    H119896   5.670   4.817   4.133
 6651TIP3    H219897   5.724   4.747   4.256
 6652TIP3   OH219898   2.470   4.369   3.045
 6652TIP3    H119899   2.411   4.295   3.031
 6652TIP3    H219900   2.422   4.428   3.102
 6653TIP3   OH219901   0.427   3.231   1.519
 6653TIP3    H119902   0.432   3.324   1.539
 6653TIP3    H219903   0.508   3.194   1.554
 6654TIP3   OH219904   3.966   3.426   3.766
 6654TIP3    H119905   3.999   3.341   3.794
 6654TIP3    H219906   3.912   3.407   3.689
 6655TIP3   OH219907   4.400   7.581   4.071
 6655TIP3    H119908   4.434   7.641   4.004
 6655TIP3    H219909   4.450   7.500   4.057
 6656TIP3   OH219910   0.201   6.823   1.956
 6656TIP3    H119911   0.114   6.789   1.974
 6656TIP3    H219912   0.258   6.746   1.960
 6657TIP3   OH219913   6.213   5.825   2.256
 6657TIP3    H119914   6.170   5.778   2.327
 6657TIP3    H219915   6.237   5.909   2.295
 6658TIP3   OH219916   4.513   3.737   2.568
 6658TIP3    H119917   4.556   3.821   2.587
 6658TIP3    H219918   4.457   3.756   2.492
 6659TIP3   OH219919   0.299   3.597  -0.029
 6659TIP3    H119920   0.318   3.677  -0.076
 6659TIP3    H219921   0.377   3.581   0.024
 6660TIP3   OH219922   6.956   1.472   1.047
 6660TIP3    H119923   6.879   1.436   1.003
 6660TIP3    H219924   6.977   1.408   1.115
 6661TIP3   OH219925   0.518   5.489   0.121
 6661TIP3    H119926   0.580   5.484   0.193
 6661TIP3    H219927   0.555   5.432   0.053
 6662TIP3   OH219928   6.339   3.228   5.848
 6662TIP3    H119929   6.311   3.182   5.769
 6662TIP3    H219930   6.429   3.197   5.863
 6663TIP3   OH219931   0.409   0.062   3.463
 6663TIP3    H119932   0.446   0.046   3.376
 6663TIP3    H219933   0.330   0.112   3.447
 6664TIP3   OH219934   7.396   2.486   0.184
 6664TIP3    H119935   7.319   2.506   0.236
 6664TIP3    H219936   7.381   2.396   0.153
 6665TIP3   OH219937   2.442   0.677   2.175
 6665TIP3    H119938   2.498   0.751   2.151
 6665TIP3    H219939   2.438   0.681   2.271
 6666TIP3   OH219940   3.447   0.964   6.487
 6666TIP3    H119941   3.436   1.046   6.437
 6666TIP3    H219942   3.368   0.959   6.541
 6667TIP3   OH219943   3.447   0.764   4.143
 6667TIP3    H119944   3.471   0.681   4.184
 6667TIP3    H219945   3.401   0.739   4.062
 6668TIP3   OH219946   5.425   3.508   6.707
 6668TIP3    H119947   5.371   3.432   6.686
 6668TIP3    H219948   5.366   3.569   6.751
 6669TIP3   OH219949   3.249   7.012   1.668
 6669TIP3    H119950   3.311   6.954   1.711
 6669TIP3    H219951   3.211   6.959   1.597
 6670TIP3   OH219952   3.827   6.148   6.741
 6670TIP3    H119953   3.821   6.213   6.811
 6670TIP3    H219954   3.751   6.165   6.686
 6671TIP3   OH219955   4.270   0.500   1.269
 6671TIP3    H119956   4.284   0.587   1.233
 6671TIP3    H219957   4.257   0.444   1.193
 6672TIP3   OH219958   1.405   0.727   5.511
 6672TIP3    H119959   1.378   0.804   5.562
 6672TIP3    H219960   1.471   0.761   5.451
 6673TIP3   OH219961   5.256   4.369   4.680
 6673TIP3    H119962   5.181   4.311   4.671
 6673TIP3    H219963   5.316   4.321   4.737
 6674TIP3   OH219964   2.624   2.798   2.601
 6674TIP3    H119965   2.687   2.727   2.597
 6674TIP3    H219966   2.677   2.876   2.619
 6675TIP3   OH219967   8.065   5.914   2.050
 6675TIP3    H119968   8.108   5.998   2.035
 6675TIP3    H219969   7.972   5.932   2.037
 6676TIP3   OH219970   5.006   1.328   2.837
 6676TIP3    H119971   5.012   1.365   2.925
 6676TIP3    H219972   5.017   1.403   2.778
 6677TIP3   OH219973   4.517   6.643   4.838
 6677TIP3    H119974   4.539   6.558   4.875
 6677TIP3    H219975   4.499   6.625   4.745
 6678TIP3   OH219976   0.995   2.607   0.539
 6678TIP3    H119977   0.901   2.603   0.559
 6678TIP3    H219978   1.038   2.619   0.623
 6679TIP3   OH219979   7.382   6.266   4.223
 6679TIP3    H119980   7.423   6.353   4.222
 6679TIP3    H219981   7.425   6.221   4.295
 6680TIP3   OH219982   7.881   3.244   1.026
 6680TIP3    H119983   7.954   3.190   0.995
 6680TIP3    H219984   7.805   3.211   0.976
 6681TIP3   OH219985   3.825   6.454   0.559
 6681TIP3    H119986   3.757   6.407   0.607
 6681TIP3    H219987   3.784   6.536   0.533
 6682TIP3   OH219988   4.397   0.668   0.457
 6682TIP3    H119989   4.363   0.585   0.490
 6682TIP3    H219990   4.407   0.723   0.535
 6683TIP3   OH219991   6.751   0.948   2.889
 6683TIP3    H119992   6.761   0.923   2.797
 6683TIP3    H219993   6.775   0.870   2.938
 6684TIP3   OH219994   7.118   0.328   4.502
 6684TIP3    H119995   7.172   0.401   4.533
 6684TIP3    H219996   7.081   0.290   4.582
 6685TIP3   OH219997   2.237   3.752   1.381
 6685TIP3    H119998   2.204   3.740   1.470
 6685TIP3    H219999   2.177   3.702   1.326
 6686TIP3   OH220000   1.206   1.247   4.870
 6686TIP3    H120001   1.118   1.213   4.882
 6686TIP3    H220002   1.215   1.256   4.775
 6687TIP3   OH220003   1.204   2.199   4.155
 6687TIP3    H120004   1.150   2.181   4.232
 6687TIP3    H220005   1.264   2.124   4.150
 6688TIP3   OH220006   7.601   7.631   5.870
 6688TIP3    H120007   7.669   7.666   5.928
 6688TIP3    H220008   7.628   7.541   5.852
 6689TIP3   OH220009   7.274   2.003   1.081
 6689TIP3    H120010   7.324   2.074   1.040
 6689TIP3    H220011   7.325   1.924   1.062
 6690TIP3   OH220012   2.533   0.924   2.059
 6690TIP3    H120013   2.438   0.922   2.071
 6690TIP3    H220014   2.556   1.016   2.072
 6691TIP3   OH220015   2.279   4.085   5.328
 6691TIP3    H120016   2.325   4.101   5.410
 6691TIP3    H220017   2.282   4.169   5.282
 6692TIP3   OH220018   6.401   3.547   4.074
 6692TIP3    H120019   6.320   3.595   4.092
 6692TIP3    H220020   6.468   3.596   4.122
 6693TIP3   OH220021   0.329   4.189   4.157
 6693TIP3    H120022   0.379   4.226   4.084
 6693TIP3    H220023   0.283   4.264   4.194
 6694TIP3   OH220024   5.390   5.572   0.249
 6694TIP3    H120025   5.331   5.584   0.175
 6694TIP3    H220026   5.411   5.661   0.277
 6695TIP3   OH220027   5.432   7.270   0.831
 6695TIP3    H120028   5.370   7.197   0.835
 6695TIP3    H220029   5.408   7.325   0.905
 6696TIP3   OH220030   6.405   1.308   6.620
 6696TIP3    H120031   6.448   1.235   6.575
 6696TIP3    H220032   6.379   1.272   6.705
 6697TIP3   OH220033   0.546   0.292   5.887
 6697TIP3    H120034   0.507   0.370   5.850
 6697TIP3    H220035   0.548   0.229   5.815
 6698TIP3   OH220036   6.196   7.205   6.384
 6698TIP3    H120037   6.280   7.223   6.343
 6698TIP3    H220038   6.135   7.196   6.311
 6699TIP3   OH220039   0.691   5.382   2.682
 6699TIP3    H120040   0.773   5.333   2.675
 6699TIP3    H220041   0.673   5.411   2.593
 6700TIP3   OH220042   1.561   5.894   2.782
 6700TIP3    H120043   1.593   5.811   2.817
 6700TIP3    H220044   1.629   5.924   2.723
 6701TIP3   OH220045   7.991   3.652   1.277
 6701TIP3    H120046   8.084   3.655   1.251
 6701TIP3    H220047   7.961   3.567   1.245
 6702TIP3   OH220048   7.778   4.781   6.006
 6702TIP3    H120049   7.785   4.876   6.000
 6702TIP3    H220050   7.712   4.767   6.075
 6703TIP3   OH220051   7.194   5.654   4.418
 6703TIP3    H120052   7.121   5.713   4.435
 6703TIP3    H220053   7.175   5.576   4.471
 6704TIP3   OH220054   0.368   2.975   4.432
 6704TIP3    H120055   0.352   2.888   4.468
 6704TIP3    H220056   0.449   2.965   4.381
 6705TIP3   OH220057   1.211   3.553   6.564
 6705TIP3    H120058   1.236   3.461   6.566
 6705TIP3    H220059   1.266   3.594   6.631
 6706TIP3   OH220060   5.060   1.971   4.902
 6706TIP3    H120061   5.027   2.024   4.830
 6706TIP3    H220062   5.117   1.907   4.861
 6707TIP3   OH220063   3.510   2.472   3.232
 6707TIP3    H120064   3.425   2.502   3.266
 6707TIP3    H220065   3.574   2.517   3.287
 6708TIP3   OH220066   3.545   1.104   2.672
 6708TIP3    H120067   3.468   1.096   2.615
 6708TIP3    H220068   3.610   1.045   2.634
 6709TIP3   OH220069   2.325   1.816   1.628
 6709TIP3    H120070   2.412   1.809   1.670
 6709TIP3    H220071   2.267   1.769   1.688
 6710TIP3   OH220072   0.448   5.524   1.076
 6710TIP3    H120073   0.488   5.466   1.011
 6710TIP3    H220074   0.499   5.604   1.072
 6711TIP3   OH220075   8.020   2.204   1.972
 6711TIP3    H120076   7.932   2.220   1.937
 6711TIP3    H220077   8.018   2.241   2.060
 6712TIP3   OH220078   3.000   5.699   0.604
 6712TIP3    H120079   2.954   5.663   0.680
 6712TIP3    H220080   2.939   5.761   0.565
 6713TIP3   OH220081   1.209   6.165   1.947
 6713TIP3    H120082   1.203   6.175   2.042
 6713TIP3    H220083   1.125   6.125   1.922
 6714TIP3   OH220084   5.941   0.546   5.869
 6714TIP3    H120085   5.861   0.519   5.915
 6714TIP3    H220086   6.003   0.476   5.886
 6715TIP3   OH220087   7.139   4.446   2.187
 6715TIP3    H120088   7.212   4.481   2.137
 6715TIP3    H220089   7.162   4.462   2.279
 6716TIP3   OH220090   1.702   5.698   2.946
 6716TIP3    H120091   1.795   5.676   2.941
 6716TIP3    H220092   1.696   5.757   3.022
 6717TIP3   OH220093   8.184   7.186   6.190
 6717TIP3    H120094   8.248   7.257   6.184
 6717TIP3    H220095   8.162   7.165   6.099
 6718TIP3   OH220096   6.702   5.126   4.412
 6718TIP3    H120097   6.656   5.076   4.479
 6718TIP3    H220098   6.728   5.061   4.347
 6719TIP3   OH220099   6.948   3.685   2.814
 6719TIP3    H120100   7.018   3.750   2.813
 6719TIP3    H220101   6.962   3.632   2.735
 6720TIP3   OH220102   1.175   7.767   1.017
 6720TIP3    H120103   1.219   7.798   1.096
 6720TIP3    H220104   1.165   7.672   1.030
 6721TIP3   OH220105   6.307   7.211   5.210
 6721TIP3    H120106   6.378   7.271   5.186
 6721TIP3    H220107   6.306   7.146   5.140
 6722TIP3   OH220108   4.939   3.312   2.692
 6722TIP3    H120109   4.998   3.292   2.619
 6722TIP3    H220110   4.997   3.319   2.768
 6723TIP3   OH220111   4.243   0.536   1.832
 6723TIP3    H120112   4.169   0.478   1.848
 6723TIP3    H220113   4.314   0.478   1.805
 6724TIP3   OH220114   4.822   0.943   0.063
 6724TIP3    H120115   4.885   0.914  -0.003
 6724TIP3    H220116   4.752   0.878   0.059
 6725TIP3   OH220117   2.321   5.984   6.159
 6725TIP3    H120118   2.309   5.893   6.186
 6725TIP3    H220119   2.415   6.000   6.168
 6726TIP3   OH220120   2.731   7.625   6.005
 6726TIP3    H120121   2.687   7.698   5.962
 6726TIP3    H220122   2.731   7.555   5.940
 6727TIP3   OH220123   7.564   2.332   3.555
 6727TIP3    H120124   7.485   2.379   3.579
 6727TIP3    H220125   7.635   2.386   3.590
 6728TIP3   OH220126   2.253   1.104   3.015
 6728TIP3    H120127   2.300   1.020   3.019
 6728TIP3    H220128   2.212   1.103   2.928
 6729TIP3   OH220129   7.561   4.458   5.571
 6729TIP3    H120130   7.640   4.411   5.597
 6729TIP3    H220131   7.575   4.547   5.603
 6730TIP3   OH220132   0.919   0.976   3.482
 6730TIP3    H120133   0.885   0.924   3.556
 6730TIP3    H220134   0.847   0.977   3.419
 6731TIP3   OH220135   0.620   3.163   2.526
 6731TIP3    H120136   0.572   3.215   2.462
 6731TIP3    H220137   0.685   3.115   2.474
 6732TIP3   OH220138   7.424   7.023   3.444
 6732TIP3    H120139   7.366   6.950   3.422
 6732TIP3    H220140   7.485   7.028   3.370
 6733TIP3   OH220141   6.845   6.753   1.896
 6733TIP3    H120142   6.823   6.781   1.807
 6733TIP3    H220143   6.905   6.679   1.883
 6734TIP3   OH220144   1.154   0.336   1.606
 6734TIP3    H120145   1.124   0.316   1.517
 6734TIP3    H220146   1.084   0.389   1.644
 6735TIP3   OH220147   1.804   2.072   0.219
 6735TIP3    H120148   1.747   2.126   0.163
 6735TIP3    H220149   1.826   1.997   0.164
 6736TIP3   OH220150   2.368   3.429   6.464
 6736TIP3    H120151   2.299   3.470   6.412
 6736TIP3    H220152   2.378   3.342   6.425
 6737TIP3   OH220153   3.500   5.474   0.047
 6737TIP3    H120154   3.475   5.402   0.105
 6737TIP3    H220155   3.579   5.510   0.087
 6738TIP3   OH220156   2.774   4.937   1.778
 6738TIP3    H120157   2.734   4.961   1.695
 6738TIP3    H220158   2.744   5.004   1.840
 6739TIP3   OH220159   5.094   6.188   2.690
 6739TIP3    H120160   5.097   6.133   2.768
 6739TIP3    H220161   5.184   6.189   2.658
 6740TIP3   OH220162   3.297   3.905   1.203
 6740TIP3    H120163   3.330   3.928   1.116
 6740TIP3    H220164   3.211   3.948   1.209
 6741TIP3   OH220165   5.783   3.776   2.235
 6741TIP3    H120166   5.694   3.740   2.243
 6741TIP3    H220167   5.790   3.802   2.144
 6742TIP3   OH220168   5.452   4.009   0.094
 6742TIP3    H120169   5.384   4.076   0.094
 6742TIP3    H220170   5.527   4.051   0.135
 6743TIP3   OH220171   1.838   0.625   2.779
 6743TIP3    H120172   1.907   0.563   2.802
 6743TIP3    H220173   1.786   0.633   2.859
 6744TIP3   OH220174   6.784   1.976   3.306
 6744TIP3    H120175   6.712   2.019   3.352
 6744TIP3    H220176   6.767   1.993   3.213
 6745TIP3   OH220177   1.782   2.084   5.611
 6745TIP3    H120178   1.719   2.011   5.617
 6745TIP3    H220179   1.815   2.079   5.521
 6746TIP3   OH220180   5.022   1.701   3.435
 6746TIP3    H120181   5.096   1.759   3.452
 6746TIP3    H220182   5.058   1.613   3.442
 6747TIP3   OH220183   6.110   1.144   4.840
 6747TIP3    H120184   6.050   1.069   4.837
 6747TIP3    H220185   6.192   1.108   4.872
 6748TIP3   OH220186   2.057   6.950   3.436
 6748TIP3    H120187   1.995   7.015   3.401
 6748TIP3    H220188   2.007   6.869   3.440
 6749TIP3   OH220189   5.464   1.764   2.991
 6749TIP3    H120190   5.374   1.746   2.965
 6749TIP3    H220191   5.510   1.681   2.975
 6750TIP3   OH220192   0.590   7.613   3.831
 6750TIP3    H120193   0.663   7.583   3.884
 6750TIP3    H220194   0.582   7.706   3.852
 6751TIP3   OH220195   2.550   4.997   3.530
 6751TIP3    H120196   2.574   5.000   3.437
 6751TIP3    H220197   2.486   4.927   3.536
 6752TIP3   OH220198   2.788   0.971   4.269
 6752TIP3    H120199   2.703   0.934   4.242
 6752TIP3    H220200   2.816   1.024   4.194
 6753TIP3   OH220201   4.950   1.989   6.310
 6753TIP3    H120202   4.900   2.071   6.311
 6753TIP3    H220203   5.020   2.005   6.247
 6754TIP3   OH220204   7.084   0.232   6.071
 6754TIP3    H120205   7.029   0.235   6.150
 6754TIP3    H220206   7.034   0.281   6.006
 6755TIP3   OH220207   5.320   3.595   3.946
 6755TIP3    H120208   5.274   3.588   4.029
 6755TIP3    H220209   5.251   3.598   3.880
 6756TIP3   OH220210   0.690   3.845   4.639
 6756TIP3    H120211   0.650   3.927   4.667
 6756TIP3    H220212   0.713   3.860   4.547
 6757TIP3   OH220213   6.917   1.508   5.574
 6757TIP3    H120214   6.930   1.438   5.638
 6757TIP3    H220215   6.857   1.469   5.509
 6758TIP3   OH220216   2.167   7.376   6.248
 6758TIP3    H120217   2.239   7.336   6.199
 6758TIP3    H220218   2.191   7.469   6.254
 6759TIP3   OH220219   0.395   5.010   3.178
 6759TIP3    H120220   0.328   5.077   3.170
 6759TIP3    H220221   0.416   5.006   3.271
 6760TIP3   OH220222   1.075   5.069   3.113
 6760TIP3    H120223   1.039   4.992   3.069
 6760TIP3    H220224   1.005   5.097   3.173
 6761TIP3   OH220225   0.939   6.438   0.448
 6761TIP3    H120226   0.988   6.418   0.368
 6761TIP3    H220227   0.955   6.531   0.463
 6762TIP3   OH220228   3.163   6.550   5.205
 6762TIP3    H120229   3.101   6.503   5.262
 6762TIP3    H220230   3.232   6.579   5.265
 6763TIP3   OH220231   5.145   6.100   0.232
 6763TIP3    H120232   5.230   6.073   0.264
 6763TIP3    H220233   5.103   6.019   0.203
 6764TIP3   OH220234   1.388   4.569   4.004
 6764TIP3    H120235   1.387   4.577   3.909
 6764TIP3    H220236   1.461   4.625   4.032
 6765TIP3   OH220237   0.950   2.858   2.839
 6765TIP3    H120238   0.857   2.861   2.816
 6765TIP3    H220239   0.953   2.893   2.928
 6766TIP3   OH220240   6.371   6.188   2.529
 6766TIP3    H120241   6.380   6.226   2.616
 6766TIP3    H220242   6.386   6.094   2.542
 6767TIP3   OH220243   7.216   7.512   5.335
 6767TIP3    H120244   7.294   7.466   5.369
 6767TIP3    H220245   7.173   7.547   5.413
 6768TIP3   OH220246   5.710   6.673   6.669
 6768TIP3    H120247   5.649   6.617   6.717
 6768TIP3    H220248   5.669   6.759   6.670
 6769TIP3   OH220249   4.256   0.739   6.785
 6769TIP3    H120250   4.255   0.656   6.737
 6769TIP3    H220251   4.273   0.806   6.718
 6770TIP3   OH220252   3.013   4.007   4.513
 6770TIP3    H120253   2.992   4.100   4.506
 6770TIP3    H220254   3.106   4.002   4.490
 6771TIP3   OH220255   5.994   5.937   3.173
 6771TIP3    H120256   5.929   5.898   3.114
 6771TIP3    H220257   6.078   5.902   3.144
 6772TIP3   OH220258   4.651   6.981   1.866
 6772TIP3    H120259   4.706   7.037   1.921
 6772TIP3    H220260   4.665   7.012   1.777
 6773TIP3   OH220261   4.079   3.865   2.207
 6773TIP3    H120262   4.062   3.890   2.116
 6773TIP3    H220263   4.018   3.920   2.258
 6774TIP3   OH220264   6.944   0.213   1.311
 6774TIP3    H120265   7.031   0.254   1.312
 6774TIP3    H220266   6.941   0.160   1.390
 6775TIP3   OH220267   6.192   1.600   2.205
 6775TIP3    H120268   6.129   1.551   2.152
 6775TIP3    H220269   6.276   1.558   2.188
 6776TIP3   OH220270   5.437   7.656   1.673
 6776TIP3    H120271   5.451   7.634   1.581
 6776TIP3    H220272   5.454   7.750   1.678
 6777TIP3   OH220273   5.803   4.381   2.569
 6777TIP3    H120274   5.778   4.390   2.477
 6777TIP3    H220275   5.879   4.438   2.580
 6778TIP3   OH220276   6.511   2.717   3.073
 6778TIP3    H120277   6.425   2.695   3.038
 6778TIP3    H220278   6.502   2.706   3.168
 6779TIP3   OH220279   8.075   0.191   1.723
 6779TIP3    H120280   8.010   0.160   1.786
 6779TIP3    H220281   8.028   0.254   1.669
 6780TIP3   OH220282   4.083   3.231   5.167
 6780TIP3    H120283   4.102   3.299   5.103
 6780TIP3    H220284   4.168   3.189   5.182
 6781TIP3   OH220285   0.521   0.821   4.739
 6781TIP3    H120286   0.457   0.764   4.696
 6781TIP3    H220287   0.559   0.767   4.808
 6782TIP3   OH220288   1.205   7.428   1.491
 6782TIP3    H120289   1.188   7.458   1.402
 6782TIP3    H220290   1.253   7.500   1.531
 6783TIP3   OH220291   4.349   6.147   1.793
 6783TIP3    H120292   4.314   6.185   1.712
 6783TIP3    H220293   4.444   6.157   1.785
 6784TIP3   OH220294   6.076   5.604   4.844
 6784TIP3    H120295   6.142   5.672   4.830
 6784TIP3    H220296   6.103   5.532   4.788
 6785TIP3   OH220297   2.001   4.821   1.189
 6785TIP3    H120298   2.064   4.774   1.134
 6785TIP3    H220299   1.920   4.769   1.182
 6786TIP3   OH220300   7.326   2.026   0.492
 6786TIP3    H120301   7.294   2.014   0.582
 6786TIP3    H220302   7.376   2.108   0.496
 6787TIP3   OH220303   3.296   7.568   3.703
 6787TIP3    H120304   3.382   7.578   3.664
 6787TIP3    H220305   3.297   7.624   3.780
 6788TIP3   OH220306   0.507   6.260   6.642
 6788TIP3    H120307   0.570   6.305   6.586
 6788TIP3    H220308   0.526   6.167   6.631
 6789TIP3   OH220309   6.716   0.886   2.097
 6789TIP3    H120310   6.670   0.853   2.175
 6789TIP3    H220311   6.764   0.962   2.128
 6790TIP3   OH220312   2.397   1.933   0.016
 6790TIP3    H120313   2.308   1.947  -0.016
 6790TIP3    H220314   2.439   2.019   0.012
 6791TIP3   OH220315   0.442   1.352   1.831
 6791TIP3    H120316   0.536   1.346   1.812
 6791TIP3    H220317   0.429   1.444   1.854
 6792TIP3   OH220318   2.006   7.579   1.210
 6792TIP3    H120319   2.019   7.555   1.118
 6792TIP3    H220320   2.093   7.601   1.242
 6793TIP3   OH220321   7.359   6.094   5.273
 6793TIP3    H120322   7.376   6.004   5.299
 6793TIP3    H220323   7.446   6.136   5.274
 6794TIP3   OH220324   6.122   7.775   0.938
 6794TIP3    H120325   6.152   7.815   1.019
 6794TIP3    H220326   6.202   7.742   0.897
 6795TIP3   OH220327   6.222   1.842   5.413
 6795TIP3    H120328   6.218   1.843   5.317
 6795TIP3    H220329   6.130   1.842   5.441
 6796TIP3   OH220330   8.073   3.368   2.425
 6796TIP3    H120331   8.071   3.401   2.515
 6796TIP3    H220332   8.052   3.275   2.433
 6797TIP3   OH220333   0.359   1.836   3.816
 6797TIP3    H120334   0.340   1.755   3.768
 6797TIP3    H220335   0.426   1.880   3.763
 6798TIP3   OH220336   7.545   3.891   6.445
 6798TIP3    H120337   7.528   3.812   6.394
 6798TIP3    H220338   7.477   3.953   6.417
 6799TIP3   OH220339   6.422   6.239   0.142
 6799TIP3    H120340   6.425   6.307   0.208
 6799TIP3    H220341   6.476   6.168   0.178
 6800TIP3   OH220342   1.686   0.353   5.502
 6800TIP3    H120343   1.771   0.359   5.546
 6800TIP3    H220344   1.641   0.281   5.545
 6801TIP3   OH220345   0.481   4.079   4.937
 6801TIP3    H120346   0.497   3.995   4.978
 6801TIP3    H220347   0.438   4.131   5.005
 6802TIP3   OH220348   4.137   0.679   0.763
 6802TIP3    H120349   4.087   0.703   0.685
 6802TIP3    H220350   4.174   0.762   0.794
 6803TIP3   OH220351   1.405   3.333   5.397
 6803TIP3    H120352   1.340   3.402   5.403
 6803TIP3    H220353   1.483   3.370   5.438
 6804TIP3   OH220354   1.743   5.048   3.228
 6804TIP3    H120355   1.764   5.117   3.166
 6804TIP3    H220356   1.655   5.019   3.203
 6805TIP3   OH220357   6.137   0.419   3.584
 6805TIP3    H120358   6.174   0.465   3.659
 6805TIP3    H220359   6.049   0.456   3.574
 6806TIP3   OH220360   5.256   7.362   1.625
 6806TIP3    H120361   5.206   7.435   1.663
 6806TIP3    H220362   5.192   7.316   1.571
 6807TIP3   OH220363   5.765   5.376   5.839
 6807TIP3    H120364   5.823   5.302   5.857
 6807TIP3    H220365   5.678   5.337   5.834
 6808TIP3   OH220366   4.083   5.084   2.456
 6808TIP3    H120367   4.030   5.009   2.483
 6808TIP3    H220368   4.030   5.161   2.479
 6809TIP3   OH220369   6.212   3.895   3.745
 6809TIP3    H120370   6.137   3.839   3.724
 6809TIP3    H220371   6.277   3.875   3.678
 6810TIP3   OH220372   0.174   0.460   3.661
 6810TIP3    H120373   0.257   0.441   3.705
 6810TIP3    H220374   0.192   0.444   3.568
 6811TIP3   OH220375   1.675   1.677   6.747
 6811TIP3    H120376   1.653   1.751   6.804
 6811TIP3    H220377   1.769   1.684   6.733
 6812TIP3   OH220378   5.214   0.638   4.390
 6812TIP3    H120379   5.276   0.627   4.462
 6812TIP3    H220380   5.129   0.641   4.433
 6813TIP3   OH220381   3.024   7.275   2.054
 6813TIP3    H120382   3.089   7.333   2.094
 6813TIP3    H220383   2.972   7.244   2.128
 6814TIP3   OH220384   2.017   1.974   1.699
 6814TIP3    H120385   2.060   1.904   1.748
 6814TIP3    H220386   2.043   2.055   1.744
 6815TIP3   OH220387   1.534   4.885   0.850
 6815TIP3    H120388   1.474   4.814   0.830
 6815TIP3    H220389   1.566   4.866   0.939
 6816TIP3   OH220390   2.850   5.166   5.441
 6816TIP3    H120391   2.818   5.119   5.518
 6816TIP3    H220392   2.803   5.125   5.368
 6817TIP3   OH220393   4.522   1.993   6.709
 6817TIP3    H120394   4.483   2.017   6.625
 6817TIP3    H220395   4.587   1.926   6.687
 6818TIP3   OH220396   2.109   2.289   3.024
 6818TIP3    H120397   2.092   2.350   2.953
 6818TIP3    H220398   2.204   2.281   3.027
 6819TIP3   OH220399   3.557   3.654   3.330
 6819TIP3    H120400   3.517   3.582   3.378
 6819TIP3    H220401   3.651   3.645   3.347
 6820TIP3   OH220402   1.163   7.142   6.314
 6820TIP3    H120403   1.090   7.104   6.363
 6820TIP3    H220404   1.128   7.223   6.277
 6821TIP3   OH220405   1.724   2.242   4.603
 6821TIP3    H120406   1.728   2.324   4.554
 6821TIP3    H220407   1.773   2.180   4.549
 6822TIP3   OH220408   2.956   5.518   3.722
 6822TIP3    H120409   2.944   5.564   3.805
 6822TIP3    H220410   2.880   5.459   3.716
 6823TIP3   OH220411   3.973   2.038   3.859
 6823TIP3    H120412   4.015   2.068   3.939
 6823TIP3    H220413   3.954   1.945   3.875
 6824TIP3   OH220414   6.509   2.491   6.320
 6824TIP3    H120415   6.571   2.442   6.373
 6824TIP3    H220416   6.453   2.536   6.383
 6825TIP3   OH220417   2.720   7.297   6.395
 6825TIP3    H120418   2.652   7.244   6.438
 6825TIP3    H220419   2.797   7.287   6.451
 6826TIP3   OH220420   2.671   4.280   6.561
 6826TIP3    H120421   2.651   4.316   6.475
 6826TIP3    H220422   2.755   4.319   6.585
 6827TIP3   OH220423   3.305   2.389   4.718
 6827TIP3    H120424   3.400   2.388   4.727
 6827TIP3    H220425   3.283   2.303   4.682
 6828TIP3   OH220426   7.367   3.209   4.466
 6828TIP3    H120427   7.397   3.259   4.542
 6828TIP3    H220428   7.437   3.222   4.401
 6829TIP3   OH220429   5.427   5.999   5.911
 6829TIP3    H120430   5.398   5.915   5.874
 6829TIP3    H220431   5.507   6.020   5.863
 6830TIP3   OH220432   1.730   5.239   1.694
 6830TIP3    H120433   1.814   5.237   1.649
 6830TIP3    H220434   1.677   5.173   1.648
 6831TIP3   OH220435   0.555   2.495   3.385
 6831TIP3    H120436   0.486   2.470   3.446
 6831TIP3    H220437   0.599   2.569   3.427
 6832TIP3   OH220438   3.261   7.739   5.233
 6832TIP3    H120439   3.285   7.787   5.154
 6832TIP3    H220440   3.252   7.806   5.301
 6833TIP3   OH220441   1.843   3.459   6.231
 6833TIP3    H120442   1.884   3.425   6.152
 6833TIP3    H220443   1.753   3.480   6.204
 6834TIP3   OH220444   6.306   7.751   6.073
 6834TIP3    H120445   6.333   7.674   6.123
 6834TIP3    H220446   6.364   7.752   5.997
 6835TIP3   OH220447   6.725   4.600   0.060
 6835TIP3    H120448   6.764   4.513   0.066
 6835TIP3    H220449   6.708   4.625   0.151
 6836TIP3   OH220450   7.279   1.218   1.493
 6836TIP3    H120451   7.248   1.213   1.403
 6836TIP3    H220452   7.280   1.311   1.514
 6837TIP3   OH220453   1.645   1.842   0.978
 6837TIP3    H120454   1.723   1.897   0.993
 6837TIP3    H220455   1.586   1.899   0.929
 6838TIP3   OH220456   3.162   5.570   3.548
 6838TIP3    H120457   3.092   5.567   3.614
 6838TIP3    H220458   3.243   5.570   3.600
 6839TIP3   OH220459   2.042   7.585   2.437
 6839TIP3    H120460   2.128   7.600   2.477
 6839TIP3    H220461   1.979   7.615   2.502
 6840TIP3   OH220462   6.398   1.652   3.172
 6840TIP3    H120463   6.377   1.724   3.113
 6840TIP3    H220464   6.448   1.693   3.243
 6841TIP3   OH220465   6.422   6.469   5.707
 6841TIP3    H120466   6.431   6.427   5.792
 6841TIP3    H220467   6.378   6.403   5.652
 6842TIP3   OH220468   4.135   1.992   2.638
 6842TIP3    H120469   4.219   1.947   2.647
 6842TIP3    H220470   4.077   1.927   2.599
 6843TIP3   OH220471   0.788   4.230   1.723
 6843TIP3    H120472   0.772   4.168   1.652
 6843TIP3    H220473   0.725   4.300   1.708
 6844TIP3   OH220474   4.042   5.316   1.697
 6844TIP3    H120475   4.119   5.370   1.709
 6844TIP3    H220476   4.075   5.233   1.663
 6845TIP3   OH220477   6.408   1.738   0.956
 6845TIP3    H120478   6.360   1.771   0.880
 6845TIP3    H220479   6.351   1.757   1.030
 6846TIP3   OH220480   4.439   6.945   4.078
 6846TIP3    H120481   4.385   6.872   4.110
 6846TIP3    H220482   4.388   6.983   4.007
 6847TIP3   OH220483   0.566   4.618   5.821
 6847TIP3    H120484   0.490   4.562   5.839
 6847TIP3    H220485   0.607   4.630   5.907
 6848TIP3   OH220486   8.214   7.610   5.116
 6848TIP3    H120487   8.306   7.621   5.092
 6848TIP3    H220488   8.167   7.673   5.063
 6849TIP3   OH220489   2.141   0.547   2.137
 6849TIP3    H120490   2.105   0.462   2.162
 6849TIP3    H220491   2.226   0.527   2.097
 6850TIP3   OH220492   2.980   2.656   4.776
 6850TIP3    H120493   2.995   2.751   4.777
 6850TIP3    H220494   3.066   2.619   4.755
 6851TIP3   OH220495   3.640   1.570   0.982
 6851TIP3    H120496   3.557   1.542   1.020
 6851TIP3    H220497   3.689   1.607   1.056
 6852TIP3   OH220498   2.377   2.243   1.761
 6852TIP3    H120499   2.396   2.285   1.677
 6852TIP3    H220500   2.462   2.212   1.792
 6853TIP3   OH220501   7.204   6.532   5.850
 6853TIP3    H120502   7.143   6.559   5.919
 6853TIP3    H220503   7.284   6.580   5.869
 6854TIP3   OH220504   0.635   4.942   2.265
 6854TIP3    H120505   0.553   4.910   2.304
 6854TIP3    H220506   0.638   4.899   2.179
 6855TIP3   OH220507   8.211   1.560   0.951
 6855TIP3    H120508   8.157   1.544   1.029
 6855TIP3    H220509   8.183   1.646   0.920
 6856TIP3   OH220510  -0.047   2.037   0.436
 6856TIP3    H120511   0.037   2.083   0.444
 6856TIP3    H220512  -0.062   2.029   0.342
 6857TIP3   OH220513   1.144   7.580   5.062
 6857TIP3    H120514   1.097   7.603   4.982
 6857TIP3    H220515   1.229   7.547   5.032
 6858TIP3   OH220516   3.081   5.856   2.882
 6858TIP3    H120517   3.027   5.877   2.806
 6858TIP3    H220518   3.169   5.883   2.856
 6859TIP3   OH220519   2.405   7.562   3.955
 6859TIP3    H120520   2.487   7.543   3.908
 6859TIP3    H220521   2.357   7.620   3.897
 6860TIP3   OH220522   4.796   2.357   5.034
 6860TIP3    H120523   4.754   2.348   4.948
 6860TIP3    H220524   4.848   2.437   5.026
 6861TIP3   OH220525   0.357   6.587   1.930
 6861TIP3    H120526   0.399   6.611   1.847
 6861TIP3    H220527   0.404   6.509   1.959
 6862TIP3   OH220528   4.949   6.000   6.675
 6862TIP3    H120529   4.932   6.077   6.730
 6862TIP3    H220530   4.880   6.003   6.608
 6863TIP3   OH220531   7.749   3.987   5.146
 6863TIP3    H120532   7.723   3.992   5.238
 6863TIP3    H220533   7.784   4.074   5.126
 6864TIP3   OH220534   6.457   6.606   0.665
 6864TIP3    H120535   6.531   6.632   0.719
 6864TIP3    H220536   6.475   6.645   0.579
 6865TIP3   OH220537   6.502   7.533   6.174
 6865TIP3    H120538   6.548   7.616   6.167
 6865TIP3    H220539   6.568   7.467   6.148
 6866TIP3   OH220540   7.499   5.883   5.734
 6866TIP3    H120541   7.574   5.930   5.699
 6866TIP3    H220542   7.435   5.883   5.663
 6867TIP3   OH220543   0.534   6.137   4.377
 6867TIP3    H120544   0.579   6.065   4.420
 6867TIP3    H220545   0.480   6.095   4.309
 6868TIP3   OH220546   2.254   3.269   1.621
 6868TIP3    H120547   2.201   3.264   1.701
 6868TIP3    H220548   2.196   3.307   1.556
 6869TIP3   OH220549   3.217   4.126   4.911
 6869TIP3    H120550   3.250   4.065   4.845
 6869TIP3    H220551   3.127   4.145   4.884
 6870TIP3   OH220552   5.193   5.878   4.835
 6870TIP3    H120553   5.145   5.803   4.868
 6870TIP3    H220554   5.167   5.884   4.743
 6871TIP3   OH220555   4.610   3.332   3.476
 6871TIP3    H120556   4.693   3.339   3.524
 6871TIP3    H220557   4.607   3.242   3.446
 6872TIP3   OH220558   3.611   0.381   4.558
 6872TIP3    H120559   3.590   0.300   4.513
 6872TIP3    H220560   3.706   0.389   4.551
 6873TIP3   OH220561   4.397   0.111   1.750
 6873TIP3    H120562   4.417   0.115   1.657
 6873TIP3    H220563   4.481   0.090   1.792
 6874TIP3   OH220564   3.609   6.219   6.573
 6874TIP3    H120565   3.537   6.279   6.554
 6874TIP3    H220566   3.618   6.166   6.495
 6875TIP3   OH220567   4.532   5.313   4.760
 6875TIP3    H120568   4.482   5.237   4.731
 6875TIP3    H220569   4.617   5.304   4.718
 6876TIP3   OH220570   2.297   7.606   2.541
 6876TIP3    H120571   2.382   7.638   2.510
 6876TIP3    H220572   2.319   7.533   2.599
 6877TIP3   OH220573   0.492   1.189   0.358
 6877TIP3    H120574   0.557   1.196   0.427
 6877TIP3    H220575   0.413   1.226   0.396
 6878TIP3   OH220576   3.290   7.397   1.956
 6878TIP3    H120577   3.297   7.305   1.932
 6878TIP3    H220578   3.344   7.443   1.891
 6879TIP3   OH220579   1.155   0.720   1.076
 6879TIP3    H120580   1.194   0.785   1.017
 6879TIP3    H220581   1.121   0.652   1.018
 6880TIP3   OH220582   3.553   4.133   5.736
 6880TIP3    H120583   3.500   4.205   5.701
 6880TIP3    H220584   3.492   4.081   5.788
 6881TIP3   OH220585   4.992   1.527   3.020
 6881TIP3    H120586   5.019   1.606   3.067
 6881TIP3    H220587   4.956   1.470   3.089
 6882TIP3   OH220588   7.106   2.140   2.656
 6882TIP3    H120589   7.037   2.148   2.722
 6882TIP3    H220590   7.188   2.146   2.705
 6883TIP3   OH220591   6.096   5.211   6.666
 6883TIP3    H120592   6.110   5.303   6.689
 6883TIP3    H220593   6.018   5.186   6.716
 6884TIP3   OH220594   6.498   6.006   3.752
 6884TIP3    H120595   6.433   6.042   3.692
 6884TIP3    H220596   6.506   6.072   3.821
 6885TIP3   OH220597   0.506   0.771   5.232
 6885TIP3    H120598   0.598   0.798   5.225
 6885TIP3    H220599   0.510   0.677   5.247
 6886TIP3   OH220600   7.057   1.579   3.728
 6886TIP3    H120601   6.985   1.641   3.722
 6886TIP3    H220602   7.073   1.569   3.822
 6887TIP3   OH220603   0.830   6.841   2.484
 6887TIP3    H120604   0.852   6.886   2.402
 6887TIP3    H220605   0.803   6.912   2.543
 6888TIP3   OH220606   6.692   2.919   0.889
 6888TIP3    H120607   6.672   2.933   0.796
 6888TIP3    H220608   6.681   2.825   0.901
 6889TIP3   OH220609   5.074   6.108   1.126
 6889TIP3    H120610   5.079   6.203   1.125
 6889TIP3    H220611   4.993   6.087   1.080
 6890TIP3   OH220612   0.767   4.106   5.951
 6890TIP3    H120613   0.843   4.122   6.007
 6890TIP3    H220614   0.733   4.193   5.931
 6891TIP3   OH220615   5.375   1.058   1.403
 6891TIP3    H120616   5.364   1.079   1.496
 6891TIP3    H220617   5.316   0.984   1.388
 6892TIP3   OH220618   0.506   1.431   1.440
 6892TIP3    H120619   0.557   1.457   1.364
 6892TIP3    H220620   0.570   1.419   1.509
 6893TIP3   OH220621   5.852   0.953   1.259
 6893TIP3    H120622   5.786   0.996   1.206
 6893TIP3    H220623   5.804   0.886   1.307
 6894TIP3   OH220624   1.394   6.199   0.625
 6894TIP3    H120625   1.476   6.165   0.661
 6894TIP3    H220626   1.416   6.286   0.592
 6895TIP3   OH220627   3.271   7.475   2.595
 6895TIP3    H120628   3.320   7.516   2.523
 6895TIP3    H220629   3.295   7.527   2.672
 6896TIP3   OH220630   6.277   1.751   1.203
 6896TIP3    H120631   6.276   1.753   1.298
 6896TIP3    H220632   6.200   1.700   1.179
 6897TIP3   OH220633   0.316   5.870   0.992
 6897TIP3    H120634   0.229   5.861   1.029
 6897TIP3    H220635   0.303   5.922   0.913
 6898TIP3   OH220636   1.215   3.153   5.492
 6898TIP3    H120637   1.280   3.220   5.475
 6898TIP3    H220638   1.228   3.129   5.584
 6899TIP3   OH220639   7.942   3.314   0.490
 6899TIP3    H120640   7.960   3.386   0.429
 6899TIP3    H220641   7.981   3.343   0.573
 6900TIP3   OH220642   7.029   5.650   2.816
 6900TIP3    H120643   7.049   5.561   2.787
 6900TIP3    H220644   6.940   5.643   2.853
 6901TIP3   OH220645   1.203   3.370   3.210
 6901TIP3    H120646   1.185   3.456   3.172
 6901TIP3    H220647   1.119   3.325   3.210
 6902TIP3   OH220648   7.331   3.756   3.381
 6902TIP3    H120649   7.344   3.671   3.423
 6902TIP3    H220650   7.375   3.748   3.296
 6903TIP3   OH220651   1.105   6.074   6.525
 6903TIP3    H120652   1.055   6.136   6.578
 6903TIP3    H220653   1.196   6.102   6.534
 6904TIP3   OH220654   4.595   5.911   3.928
 6904TIP3    H120655   4.591   5.951   3.841
 6904TIP3    H220656   4.565   5.980   3.987
 6905TIP3   OH220657   2.547   3.753   6.411
 6905TIP3    H120658   2.527   3.724   6.500
 6905TIP3    H220659   2.579   3.674   6.367
 6906TIP3   OH220660   4.116   4.672   2.886
 6906TIP3    H120661   4.100   4.601   2.824
 6906TIP3    H220662   4.116   4.751   2.832
 6907TIP3   OH220663   4.497   6.415   6.067
 6907TIP3    H120664   4.485   6.414   5.972
 6907TIP3    H220665   4.435   6.349   6.100
 6908TIP3   OH220666   5.385   2.264   0.336
 6908TIP3    H120667   5.365   2.182   0.381
 6908TIP3    H220668   5.458   2.301   0.385
 6909TIP3   OH220669   1.738   3.659   6.426
 6909TIP3    H120670   1.822   3.678   6.384
 6909TIP3    H220671   1.682   3.628   6.356
 6910TIP3   OH220672   0.817   3.517   4.761
 6910TIP3    H120673   0.737   3.570   4.751
 6910TIP3    H220674   0.829   3.509   4.855
 6911TIP3   OH220675   4.128   4.977   5.954
 6911TIP3    H120676   4.056   5.020   6.001
 6911TIP3    H220677   4.106   4.986   5.862
 6912TIP3   OH220678   3.787   1.555   1.697
 6912TIP3    H120679   3.747   1.618   1.636
 6912TIP3    H220680   3.746   1.575   1.782
 6913TIP3   OH220681   3.433   7.049   2.462
 6913TIP3    H120682   3.490   6.987   2.507
 6913TIP3    H220683   3.397   7.104   2.532
 6914TIP3   OH220684   4.851   3.181   3.558
 6914TIP3    H120685   4.902   3.126   3.617
 6914TIP3    H220686   4.777   3.127   3.533
 6915TIP3   OH220687   8.083   3.801   2.947
 6915TIP3    H120688   8.153   3.766   3.002
 6915TIP3    H220689   8.109   3.891   2.928
 6916TIP3   OH220690   0.357   4.072   3.036
 6916TIP3    H120691   0.418   3.999   3.039
 6916TIP3    H220692   0.410   4.149   3.058
 6917TIP3   OH220693   7.412   2.710   1.297
 6917TIP3    H120694   7.354   2.649   1.342
 6917TIP3    H220695   7.476   2.737   1.363
 6918TIP3   OH220696   5.288   5.207   2.718
 6918TIP3    H120697   5.365   5.191   2.663
 6918TIP3    H220698   5.301   5.152   2.795
 6919TIP3   OH220699   8.004   6.453   1.713
 6919TIP3    H120700   7.945   6.527   1.704
 6919TIP3    H220701   8.065   6.462   1.640
 6920TIP3   OH220702   5.445   5.521   0.513
 6920TIP3    H120703   5.431   5.548   0.422
 6920TIP3    H220704   5.388   5.445   0.525
 6921TIP3   OH220705   7.452   6.770   1.433
 6921TIP3    H120706   7.455   6.866   1.440
 6921TIP3    H220707   7.360   6.751   1.414
 6922TIP3   OH220708   6.099   5.570   6.078
 6922TIP3    H120709   6.191   5.582   6.051
 6922TIP3    H220710   6.078   5.651   6.124
 6923TIP3   OH220711   3.806   7.844   6.318
 6923TIP3    H120712   3.781   7.756   6.293
 6923TIP3    H220713   3.902   7.842   6.323
 6924TIP3   OH220714   4.565   3.672   6.100
 6924TIP3    H120715   4.602   3.667   6.189
 6924TIP3    H220716   4.553   3.765   6.084
 6925TIP3   OH220717   2.917   0.952   4.611
 6925TIP3    H120718   2.960   0.983   4.532
 6925TIP3    H220719   2.943   0.860   4.618
 6926TIP3   OH220720   5.341   1.989   4.006
 6926TIP3    H120721   5.423   1.985   3.956
 6926TIP3    H220722   5.367   1.969   4.096
 6927TIP3   OH220723   6.549   5.916   4.428
 6927TIP3    H120724   6.467   5.893   4.472
 6927TIP3    H220725   6.583   5.833   4.395
 6928TIP3   OH220726   6.959   2.550   0.956
 6928TIP3    H120727   6.932   2.552   1.048
 6928TIP3    H220728   6.969   2.457   0.936
 6929TIP3   OH220729   4.552   7.220   2.112
 6929TIP3    H120730   4.549   7.315   2.104
 6929TIP3    H220731   4.541   7.204   2.206
 6930TIP3   OH220732   0.717   3.600   1.356
 6930TIP3    H120733   0.809   3.583   1.373
 6930TIP3    H220734   0.716   3.645   1.271
 6931TIP3   OH220735   3.410   1.858   6.224
 6931TIP3    H120736   3.367   1.940   6.246
 6931TIP3    H220737   3.446   1.827   6.307
 6932TIP3   OH220738   0.493   3.461   5.465
 6932TIP3    H120739   0.579   3.436   5.499
 6932TIP3    H220740   0.443   3.380   5.461
 6933TIP3   OH220741   3.378   7.785   0.707
 6933TIP3    H120742   3.299   7.734   0.689
 6933TIP3    H220743   3.403   7.822   0.623
 6934TIP3   OH220744   6.877   5.998   3.393
 6934TIP3    H120745   6.960   5.969   3.354
 6934TIP3    H220746   6.839   5.919   3.431
 6935TIP3   OH220747   2.242   0.840   1.549
 6935TIP3    H120748   2.147   0.839   1.555
 6935TIP3    H220749   2.262   0.915   1.493
 6936TIP3   OH220750   6.700   1.348   0.894
 6936TIP3    H120751   6.610   1.357   0.925
 6936TIP3    H220752   6.699   1.268   0.841
 6937TIP3   OH220753   2.733   2.368   0.160
 6937TIP3    H120754   2.792   2.321   0.219
 6937TIP3    H220755   2.675   2.416   0.219
 6938TIP3   OH220756   0.566   4.028   6.619
 6938TIP3    H120757   0.497   3.989   6.672
 6938TIP3    H220758   0.630   4.062   6.682
 6939TIP3   OH220759   2.377   1.953   3.846
 6939TIP3    H120760   2.447   2.006   3.809
 6939TIP3    H220761   2.313   1.943   3.775
 6940TIP3   OH220762   5.603   6.300   2.212
 6940TIP3    H120763   5.645   6.370   2.163
 6940TIP3    H220764   5.671   6.233   2.221
 6941TIP3   OH220765   1.738   6.707   5.523
 6941TIP3    H120766   1.781   6.641   5.578
 6941TIP3    H220767   1.775   6.693   5.436
 6942TIP3   OH220768   2.253   2.965   6.593
 6942TIP3    H120769   2.303   2.979   6.674
 6942TIP3    H220770   2.220   3.052   6.570
 6943TIP3   OH220771   7.663   0.102   1.917
 6943TIP3    H120772   7.736   0.101   1.856
 6943TIP3    H220773   7.618   0.184   1.900
 6944TIP3   OH220774   5.620   2.029   5.367
 6944TIP3    H120775   5.532   2.036   5.330
 6944TIP3    H220776   5.627   1.939   5.397
 6945TIP3   OH220777   1.698   5.233   5.268
 6945TIP3    H120778   1.635   5.277   5.212
 6945TIP3    H220779   1.773   5.215   5.211
 6946TIP3   OH220780   4.176   5.082   6.241
 6946TIP3    H120781   4.107   5.138   6.204
 6946TIP3    H220782   4.161   4.996   6.202
 6947TIP3   OH220783   1.765   4.852   4.488
 6947TIP3    H120784   1.794   4.940   4.464
 6947TIP3    H220785   1.733   4.814   4.405
 6948TIP3   OH220786   0.207   0.151   4.166
 6948TIP3    H120787   0.227   0.065   4.205
 6948TIP3    H220788   0.276   0.165   4.102
 6949TIP3   OH220789   0.981   2.520   1.027
 6949TIP3    H120790   0.885   2.524   1.021
 6949TIP3    H220791   1.011   2.599   0.982
 6950TIP3   OH220792   2.245   5.255   1.172
 6950TIP3    H120793   2.157   5.223   1.150
 6950TIP3    H220794   2.232   5.349   1.188
 6951TIP3   OH220795   0.708   7.419   6.509
 6951TIP3    H120796   0.781   7.358   6.506
 6951TIP3    H220797   0.692   7.442   6.417
 6952TIP3   OH220798   3.546   1.884   1.107
 6952TIP3    H120799   3.480   1.878   1.037
 6952TIP3    H220800   3.500   1.926   1.180
 6953TIP3   OH220801   6.390   4.225   5.021
 6953TIP3    H120802   6.395   4.269   4.936
 6953TIP3    H220803   6.332   4.151   5.007
 6954TIP3   OH220804   6.803   3.776   2.554
 6954TIP3    H120805   6.849   3.693   2.567
 6954TIP3    H220806   6.738   3.757   2.487
 6955TIP3   OH220807   7.312   4.252   3.715
 6955TIP3    H120808   7.314   4.317   3.785
 6955TIP3    H220809   7.225   4.213   3.720
 6956TIP3   OH220810   2.475   4.266   2.299
 6956TIP3    H120811   2.561   4.308   2.306
 6956TIP3    H220812   2.491   4.188   2.246
 6957TIP3   OH220813   1.747   1.264   6.628
 6957TIP3    H120814   1.824   1.320   6.616
 6957TIP3    H220815   1.709   1.292   6.711
 6958TIP3   OH220816   0.616   0.846   1.860
 6958TIP3    H120817   0.681   0.901   1.905
 6958TIP3    H220818   0.543   0.840   1.920
 6959TIP3   OH220819   3.520   2.651   6.216
 6959TIP3    H120820   3.448   2.627   6.274
 6959TIP3    H220821   3.477   2.698   6.144
 6960TIP3   OH220822   0.667   7.022   4.323
 6960TIP3    H120823   0.623   6.941   4.300
 6960TIP3    H220824   0.679   7.017   4.417
 6961TIP3   OH220825   5.418   4.684   2.926
 6961TIP3    H120826   5.352   4.678   2.995
 6961TIP3    H220827   5.484   4.744   2.961
 6962TIP3   OH220828   5.734   0.869   3.070
 6962TIP3    H120829   5.667   0.821   3.119
 6962TIP3    H220830   5.811   0.812   3.074
 6963TIP3   OH220831   7.158   7.599   4.774
 6963TIP3    H120832   7.218   7.551   4.716
 6963TIP3    H220833   7.075   7.601   4.725
 6964TIP3   OH220834   2.299   3.316   4.529
 6964TIP3    H120835   2.210   3.340   4.502
 6964TIP3    H220836   2.297   3.323   4.625
 6965TIP3   OH220837   7.239   0.495   4.880
 6965TIP3    H120838   7.325   0.524   4.849
 6965TIP3    H220839   7.179   0.520   4.809
 6966TIP3   OH220840   1.994   3.002   1.438
 6966TIP3    H120841   1.938   3.047   1.375
 6966TIP3    H220842   1.991   3.055   1.517
 6967TIP3   OH220843   3.546   7.449   3.289
 6967TIP3    H120844   3.458   7.413   3.299
 6967TIP3    H220845   3.537   7.541   3.315
 6968TIP3   OH220846   6.216   5.846   5.296
 6968TIP3    H120847   6.280   5.781   5.265
 6968TIP3    H220848   6.213   5.833   5.390
 6969TIP3   OH220849   1.656   4.528   3.502
 6969TIP3    H120850   1.609   4.611   3.495
 6969TIP3    H220851   1.689   4.512   3.414
 6970TIP3   OH220852   0.774   5.915   0.715
 6970TIP3    H120853   0.751   5.914   0.808
 6970TIP3    H220854   0.727   5.990   0.679
 6971TIP3   OH220855   6.503   4.594   6.196
 6971TIP3    H120856   6.572   4.565   6.256
 6971TIP3    H220857   6.532   4.565   6.110
 6972TIP3   OH220858   1.069   7.371   6.170
 6972TIP3    H120859   1.103   7.347   6.084
 6972TIP3    H220860   1.062   7.467   6.167
 6973TIP3   OH220861   2.635   5.720   2.149
 6973TIP3    H120862   2.594   5.697   2.065
 6973TIP3    H220863   2.715   5.766   2.125
 6974TIP3   OH220864   4.718   7.466   6.108
 6974TIP3    H120865   4.770   7.400   6.063
 6974TIP3    H220866   4.649   7.417   6.152
 6975TIP3   OH220867   6.224   0.182   0.098
 6975TIP3    H120868   6.142   0.143   0.129
 6975TIP3    H220869   6.289   0.112   0.106
 6976TIP3   OH220870   8.072   4.484   4.359
 6976TIP3    H120871   8.124   4.564   4.357
 6976TIP3    H220872   8.135   4.414   4.374
 6977TIP3   OH220873   4.161   5.755   0.772
 6977TIP3    H120874   4.116   5.821   0.719
 6977TIP3    H220875   4.160   5.791   0.861
 6978TIP3   OH220876   0.298   5.622   2.819
 6978TIP3    H120877   0.333   5.620   2.730
 6978TIP3    H220878   0.239   5.697   2.821
 6979TIP3   OH220879   6.780   3.273   2.659
 6979TIP3    H120880   6.708   3.336   2.649
 6979TIP3    H220881   6.749   3.210   2.724
 6980TIP3   OH220882   0.658   1.228   2.551
 6980TIP3    H120883   0.664   1.255   2.459
 6980TIP3    H220884   0.587   1.280   2.587
 6981TIP3   OH220885   1.681   6.361   1.782
 6981TIP3    H120886   1.589   6.335   1.790
 6981TIP3    H220887   1.725   6.285   1.744
 6982TIP3   OH220888   3.773   2.498   6.166
 6982TIP3    H120889   3.707   2.563   6.188
 6982TIP3    H220890   3.822   2.485   6.247
 6983TIP3   OH220891   4.518   3.083   3.140
 6983TIP3    H120892   4.506   3.112   3.050
 6983TIP3    H220893   4.575   3.150   3.179
 6984TIP3   OH220894   2.040   0.122   6.778
 6984TIP3    H120895   2.115   0.178   6.759
 6984TIP3    H220896   2.022   0.075   6.696
 6985TIP3   OH220897   0.356   2.627   2.696
 6985TIP3    H120898   0.427   2.658   2.753
 6985TIP3    H220899   0.326   2.546   2.737
 6986TIP3   OH220900   6.598   0.145   1.613
 6986TIP3    H120901   6.608   0.180   1.525
 6986TIP3    H220902   6.681   0.165   1.656
 6987TIP3   OH220903   6.204   7.556   1.579
 6987TIP3    H120904   6.196   7.651   1.568
 6987TIP3    H220905   6.290   7.535   1.543
 6988TIP3   OH220906   4.841   1.249   1.206
 6988TIP3    H120907   4.935   1.264   1.191
 6988TIP3    H220908   4.835   1.233   1.301
 6989TIP3   OH220909   3.254   6.908   4.364
 6989TIP3    H120910   3.302   6.907   4.447
 6989TIP3    H220911   3.218   6.997   4.359
 6990TIP3   OH220912   0.766   1.566   2.753
 6990TIP3    H120913   0.741   1.512   2.827
 6990TIP3    H220914   0.821   1.509   2.699
 6991TIP3   OH220915   4.370   2.098   2.069
 6991TIP3    H120916   4.390   2.148   2.148
 6991TIP3    H220917   4.278   2.073   2.079
 6992TIP3   OH220918   6.482   0.784   4.409
 6992TIP3    H120919   6.450   0.867   4.444
 6992TIP3    H220920   6.521   0.807   4.325
 6993TIP3   OH220921   4.027   1.263   4.379
 6993TIP3    H120922   4.046   1.346   4.423
 6993TIP3    H220923   4.087   1.200   4.418
 6994TIP3   OH220924   5.291   1.001   4.070
 6994TIP3    H120925   5.260   0.911   4.076
 6994TIP3    H220926   5.379   0.993   4.032
 6995TIP3   OH220927   0.635   3.432   3.083
 6995TIP3    H120928   0.571   3.365   3.105
 6995TIP3    H220929   0.692   3.391   3.018
 6996TIP3   OH220930   7.709   5.363   1.211
 6996TIP3    H120931   7.692   5.415   1.133
 6996TIP3    H220932   7.753   5.423   1.271
 6997TIP3   OH220933   3.135   6.596   6.017
 6997TIP3    H120934   3.202   6.541   6.058
 6997TIP3    H220935   3.181   6.642   5.947
 6998TIP3   OH220936   0.500   1.380   2.681
 6998TIP3    H120937   0.516   1.463   2.727
 6998TIP3    H220938   0.418   1.348   2.717
 6999TIP3   OH220939   8.129   1.943   2.343
 6999TIP3    H120940   8.194   1.920   2.410
 6999TIP3    H220941   8.181   1.971   2.268
 7000TIP3   OH220942   4.047   3.842   5.438
 7000TIP3    H120943   3.998   3.897   5.377
 7000TIP3    H220944   3.986   3.826   5.510
 7001TIP3   OH220945   3.553   2.490   4.028
 7001TIP3    H120946   3.508   2.406   4.032
 7001TIP3    H220947   3.617   2.487   4.099
 7002TIP3   OH220948   0.385   7.458   3.165
 7002TIP3    H120949   0.336   7.426   3.241
 7002TIP3    H220950   0.345   7.543   3.145
 7003TIP3   OH220951   4.723   0.067   2.886
 7003TIP3    H120952   4.680  -0.016   2.864
 7003TIP3    H220953   4.778   0.086   2.811
 7004TIP3   OH220954   8.074   2.355   2.453
 7004TIP3    H120955   8.062   2.260   2.453
 7004TIP3    H220956   8.027   2.385   2.375
 7005TIP3   OH220957   6.073   2.422   0.241
 7005TIP3    H120958   6.166   2.417   0.219
 7005TIP3    H220959   6.038   2.491   0.184
 7006TIP3   OH220960   3.888   3.177   3.909
 7006TIP3    H120961   3.907   3.107   3.848
 7006TIP3    H220962   3.872   3.133   3.992
 7007TIP3   OH220963   3.756   1.809   4.813
 7007TIP3    H120964   3.791   1.799   4.725
 7007TIP3    H220965   3.665   1.781   4.807
 7008TIP3   OH220966   1.275   4.187   2.112
 7008TIP3    H120967   1.285   4.092   2.114
 7008TIP3    H220968   1.197   4.203   2.166
 7009TIP3   OH220969   0.149   3.951   0.512
 7009TIP3    H120970   0.175   4.010   0.583
 7009TIP3    H220971   0.076   3.996   0.469
 7010TIP3   OH220972   3.162   1.569   2.554
 7010TIP3    H120973   3.227   1.594   2.619
 7010TIP3    H220974   3.091   1.633   2.565
 7011TIP3   OH220975   6.098   3.936   2.041
 7011TIP3    H120976   6.071   3.958   2.130
 7011TIP3    H220977   6.191   3.958   2.038
 7012TIP3   OH220978   4.731   5.162   5.606
 7012TIP3    H120979   4.799   5.165   5.673
 7012TIP3    H220980   4.778   5.152   5.524
 7013TIP3   OH220981   7.515   2.080   3.658
 7013TIP3    H120982   7.544   2.146   3.595
 7013TIP3    H220983   7.468   2.129   3.725
 7014TIP3   OH220984   7.969   6.289   4.750
 7014TIP3    H120985   8.058   6.326   4.755
 7014TIP3    H220986   7.963   6.253   4.661
 7015TIP3   OH220987   5.169   7.289   0.362
 7015TIP3    H120988   5.213   7.204   0.374
 7015TIP3    H220989   5.227   7.338   0.304
 7016TIP3   OH220990   3.655   2.041   5.161
 7016TIP3    H120991   3.722   2.025   5.095
 7016TIP3    H220992   3.694   2.005   5.242
 7017TIP3   OH220993   4.574   7.490   5.855
 7017TIP3    H120994   4.650   7.437   5.877
 7017TIP3    H220995   4.610   7.567   5.811
 7018TIP3   OH220996   6.184   0.048   1.651
 7018TIP3    H120997   6.128   0.051   1.573
 7018TIP3    H220998   6.189   0.139   1.680
 7019TIP3   OH220999   5.927   4.290   5.853
 7019TIP3    H121000   5.899   4.337   5.774
 7019TIP3    H221001   5.954   4.204   5.822
 7020TIP3   OH221002   1.148   0.166   5.651
 7020TIP3    H121003   1.163   0.252   5.689
 7020TIP3    H221004   1.053   0.156   5.653
 7021TIP3   OH221005   4.293   1.865   3.811
 7021TIP3    H121006   4.231   1.865   3.738
 7021TIP3    H221007   4.374   1.831   3.773
 7022TIP3   OH221008   1.792   3.101   0.330
 7022TIP3    H121009   1.830   3.102   0.418
 7022TIP3    H221010   1.863   3.128   0.273
 7023TIP3   OH221011   2.221   2.447   5.275
 7023TIP3    H121012   2.159   2.388   5.232
 7023TIP3    H221013   2.268   2.489   5.202
 7024TIP3   OH221014   7.300   4.884   4.795
 7024TIP3    H121015   7.286   4.875   4.890
 7024TIP3    H221016   7.319   4.795   4.765
 7025TIP3   OH221017   0.978   3.722   5.582
 7025TIP3    H121018   1.065   3.698   5.550
 7025TIP3    H221019   0.925   3.732   5.503
 7026TIP3   OH221020   7.627   1.717   5.474
 7026TIP3    H121021   7.652   1.712   5.382
 7026TIP3    H221022   7.645   1.808   5.499
 7027TIP3   OH221023   2.577   3.949   5.451
 7027TIP3    H121024   2.607   4.040   5.438
 7027TIP3    H221025   2.612   3.902   5.376
 7028TIP3   OH221026   4.064   4.194   6.314
 7028TIP3    H121027   4.107   4.182   6.229
 7028TIP3    H221028   3.971   4.190   6.294
 7029TIP3   OH221029   1.771   0.827   0.427
 7029TIP3    H121030   1.838   0.775   0.382
 7029TIP3    H221031   1.696   0.826   0.368
 7030TIP3   OH221032   7.974   4.952   1.737
 7030TIP3    H121033   7.999   5.033   1.693
 7030TIP3    H221034   7.879   4.955   1.740
 7031TIP3   OH221035   1.777   3.752   6.144
 7031TIP3    H121036   1.866   3.744   6.179
 7031TIP3    H221037   1.735   3.818   6.199
 7032TIP3   OH221038   1.426   6.287   2.144
 7032TIP3    H121039   1.506   6.336   2.124
 7032TIP3    H221040   1.444   6.199   2.113
 7033TIP3   OH221041   3.322   0.767   5.742
 7033TIP3    H121042   3.304   0.859   5.763
 7033TIP3    H221043   3.236   0.726   5.738
 7034TIP3   OH221044   5.290   2.308   1.003
 7034TIP3    H121045   5.361   2.302   0.939
 7034TIP3    H221046   5.311   2.385   1.056
 7035TIP3   OH221047   1.264   6.906   3.378
 7035TIP3    H121048   1.233   6.995   3.395
 7035TIP3    H221049   1.253   6.860   3.461
 7036TIP3   OH221050   4.620   1.160   5.991
 7036TIP3    H121051   4.555   1.132   6.055
 7036TIP3    H221052   4.582   1.238   5.951
 7037TIP3   OH221053   0.527   0.735   3.549
 7037TIP3    H121054   0.453   0.711   3.604
 7037TIP3    H221055   0.507   0.823   3.518
 7038TIP3   OH221056   3.346   3.858   0.000
 7038TIP3    H121057   3.253   3.878  -0.003
 7038TIP3    H221058   3.372   3.877   0.090
 7039TIP3   OH221059   4.660   5.395   4.318
 7039TIP3    H121060   4.644   5.450   4.394
 7039TIP3    H221061   4.750   5.416   4.292
 7040TIP3   OH221062   7.892   5.835   4.968
 7040TIP3    H121063   7.876   5.779   5.044
 7040TIP3    H221064   7.866   5.923   4.998
 7041TIP3   OH221065   3.962   5.871   0.621
 7041TIP3    H121066   3.897   5.867   0.551
 7041TIP3    H221067   4.020   5.943   0.596
 7042TIP3   OH221068   6.809   5.968   4.508
 7042TIP3    H121069   6.816   5.904   4.437
 7042TIP3    H221070   6.723   6.008   4.495
 7043TIP3   OH221071   5.384   7.742   5.361
 7043TIP3    H121072   5.403   7.740   5.268
 7043TIP3    H221073   5.301   7.695   5.370
 7044TIP3   OH221074   7.076   6.799   4.649
 7044TIP3    H121075   7.143   6.867   4.641
 7044TIP3    H221076   7.112   6.725   4.599
 7045TIP3   OH221077   7.069   6.531   2.998
 7045TIP3    H121078   7.067   6.443   3.035
 7045TIP3    H221079   7.018   6.524   2.917
 7046TIP3   OH221080   1.761   0.488   2.183
 7046TIP3    H121081   1.752   0.473   2.089
 7046TIP3    H221082   1.819   0.419   2.214
 7047TIP3   OH221083   7.221   6.005   4.487
 7047TIP3    H121084   7.150   5.980   4.545
 7047TIP3    H221085   7.290   5.941   4.505
 7048TIP3   OH221086   6.694   0.964   3.626
 7048TIP3    H121087   6.709   0.870   3.621
 7048TIP3    H221088   6.750   0.994   3.697
 7049TIP3   OH221089   0.609   0.075   0.609
 7049TIP3    H121090   0.544   0.058   0.677
 7049TIP3    H221091   0.690   0.090   0.657
 7050TIP3   OH221092   2.207   2.302   5.731
 7050TIP3    H121093   2.294   2.300   5.771
 7050TIP3    H221094   2.168   2.383   5.763
 7051TIP3   OH221095   1.844   7.731   1.602
 7051TIP3    H121096   1.779   7.667   1.572
 7051TIP3    H221097   1.859   7.708   1.694
 7052TIP3   OH221098   2.885   4.510   0.425
 7052TIP3    H121099   2.836   4.530   0.346
 7052TIP3    H221100   2.976   4.528   0.402
 7053TIP3   OH221101   6.261   7.689   2.622
 7053TIP3    H121102   6.337   7.744   2.601
 7053TIP3    H221103   6.221   7.670   2.537
 7054TIP3   OH221104   3.219   1.587   4.243
 7054TIP3    H121105   3.200   1.493   4.245
 7054TIP3    H221106   3.245   1.609   4.332
 7055TIP3   OH221107   4.071   3.067   0.466
 7055TIP3    H121108   4.021   3.024   0.536
 7055TIP3    H221109   4.006   3.088   0.399
 7056TIP3   OH221110   7.200   4.182   1.908
 7056TIP3    H121111   7.220   4.275   1.909
 7056TIP3    H221112   7.196   4.157   2.001
 7057TIP3   OH221113   4.887   3.642   3.610
 7057TIP3    H121114   4.872   3.563   3.661
 7057TIP3    H221115   4.825   3.705   3.644
 7058TIP3   OH221116   7.681   4.370   1.458
 7058TIP3    H121117   7.683   4.311   1.533
 7058TIP3    H221118   7.773   4.392   1.442
 7059TIP3   OH221119   1.081   7.015   0.041
 7059TIP3    H121120   1.004   7.071   0.055
 7059TIP3    H221121   1.156   7.076   0.047
 7060TIP3   OH221122   2.841   1.368   6.472
 7060TIP3    H121123   2.759   1.357   6.423
 7060TIP3    H221124   2.847   1.291   6.528
 7061TIP3   OH221125   6.282   0.167   0.865
 7061TIP3    H121126   6.227   0.117   0.805
 7061TIP3    H221127   6.263   0.258   0.845
 7062TIP3   OH221128   3.457   4.478   2.312
 7062TIP3    H121129   3.387   4.427   2.271
 7062TIP3    H221130   3.487   4.424   2.385
 7063TIP3   OH221131   7.059   6.367   4.870
 7063TIP3    H121132   7.151   6.354   4.893
 7063TIP3    H221133   7.058   6.362   4.774
 7064TIP3   OH221134   7.884   1.465   6.105
 7064TIP3    H121135   7.800   1.459   6.150
 7064TIP3    H221136   7.886   1.555   6.071
 7065TIP3   OH221137   6.746   1.350   1.730
 7065TIP3    H121138   6.755   1.349   1.635
 7065TIP3    H221139   6.736   1.442   1.753
 7066TIP3   OH221140   7.823   3.013   6.593
 7066TIP3    H121141   7.728   3.015   6.584
 7066TIP3    H221142   7.855   3.071   6.524
 7067TIP3   OH221143   1.824   1.811   3.940
 7067TIP3    H121144   1.752   1.764   3.983
 7067TIP3    H221145   1.894   1.746   3.934
 7068TIP3   OH221146   6.707   3.177   4.491
 7068TIP3    H121147   6.786   3.219   4.457
 7068TIP3    H221148   6.739   3.098   4.535
 7069TIP3   OH221149   4.781   5.721   3.986
 7069TIP3    H121150   4.713   5.787   3.969
 7069TIP3    H221151   4.860   5.757   3.946
 7070TIP3   OH221152   8.053   2.945   5.901
 7070TIP3    H121153   8.028   2.885   5.830
 7070TIP3    H221154   8.148   2.947   5.898
 7071TIP3   OH221155   0.840   3.048   1.694
 7071TIP3    H121156   0.871   3.075   1.781
 7071TIP3    H221157   0.889   3.103   1.633
 7072TIP3   OH221158   6.111   4.393   3.993
 7072TIP3    H121159   6.088   4.368   4.083
 7072TIP3    H221160   6.047   4.347   3.939
 7073TIP3   OH221161   1.219   7.380   1.122
 7073TIP3    H121162   1.124   7.386   1.111
 7073TIP3    H221163   1.240   7.289   1.103
 7074TIP3   OH221164   5.504   6.507   4.510
 7074TIP3    H121165   5.422   6.472   4.544
 7074TIP3    H221166   5.549   6.542   4.587
 7075TIP3   OH221167   1.634   6.539   4.296
 7075TIP3    H121168   1.690   6.465   4.319
 7075TIP3    H221169   1.642   6.546   4.201
 7076TIP3   OH221170   3.930   5.951   3.141
 7076TIP3    H121171   3.933   6.021   3.205
 7076TIP3    H221172   4.022   5.928   3.127
 7077TIP3   OH221173   6.067   0.126   5.763
 7077TIP3    H121174   6.022   0.197   5.718
 7077TIP3    H221175   6.107   0.075   5.693
 7078TIP3   OH221176   0.818   7.589   4.909
 7078TIP3    H121177   0.844   7.679   4.929
 7078TIP3    H221178   0.887   7.556   4.852
 7079TIP3   OH221179   6.296   7.791   3.369
 7079TIP3    H121180   6.215   7.743   3.348
 7079TIP3    H221181   6.320   7.760   3.456
 7080TIP3   OH221182   1.042   5.139   4.291
 7080TIP3    H121183   1.027   5.045   4.302
 7080TIP3    H221184   1.115   5.145   4.229
 7081TIP3   OH221185   2.539   6.788   5.485
 7081TIP3    H121186   2.562   6.697   5.469
 7081TIP3    H221187   2.536   6.796   5.580
 7082TIP3   OH221188   7.946   6.018   5.850
 7082TIP3    H121189   7.870   6.048   5.899
 7082TIP3    H221190   7.949   5.923   5.865
 7083TIP3   OH221191   1.727   5.240   2.831
 7083TIP3    H121192   1.635   5.238   2.859
 7083TIP3    H221193   1.732   5.177   2.759
 7084TIP3   OH221194   2.502   3.923   2.221
 7084TIP3    H121195   2.549   3.840   2.226
 7084TIP3    H221196   2.522   3.966   2.305
 7085TIP3   OH221197   7.055   4.523   3.881
 7085TIP3    H121198   6.998   4.478   3.819
 7085TIP3    H221199   7.142   4.518   3.843
 7086TIP3   OH221200   5.544   6.992   2.288
 7086TIP3    H121201   5.638   7.000   2.272
 7086TIP3    H221202   5.503   7.032   2.210
 7087TIP3   OH221203   0.030   2.528   2.391
 7087TIP3    H121204  -0.012   2.454   2.436
 7087TIP3    H221205   0.064   2.583   2.461
 7088TIP3   OH221206   6.211   1.409   4.565
 7088TIP3    H121207   6.181   1.319   4.558
 7088TIP3    H221208   6.182   1.451   4.483
 7089TIP3   OH221209   1.302   0.182   4.332
 7089TIP3    H121210   1.244   0.257   4.346
 7089TIP3    H221211   1.274   0.117   4.397
 7090TIP3   OH221212   1.204   5.822   5.277
 7090TIP3    H121213   1.164   5.745   5.318
 7090TIP3    H221214   1.158   5.831   5.194
 7091TIP3   OH221215   3.409   1.014   1.954
 7091TIP3    H121216   3.337   0.981   1.900
 7091TIP3    H221217   3.485   0.962   1.928
 7092TIP3   OH221218   0.660   0.457   6.273
 7092TIP3    H121219   0.673   0.408   6.192
 7092TIP3    H221220   0.731   0.428   6.330
 7093TIP3   OH221221   1.836   0.083   2.902
 7093TIP3    H121222   1.774   0.155   2.908
 7093TIP3    H221223   1.893   0.093   2.978
 7094TIP3   OH221224   6.637   5.378   0.413
 7094TIP3    H121225   6.564   5.439   0.402
 7094TIP3    H221226   6.621   5.336   0.498
 7095TIP3   OH221227   0.702   3.563   5.252
 7095TIP3    H121228   0.736   3.641   5.295
 7095TIP3    H221229   0.621   3.542   5.299
 7096TIP3   OH221230   2.329   0.601   3.634
 7096TIP3    H121231   2.323   0.695   3.653
 7096TIP3    H221232   2.285   0.590   3.550
 7097TIP3   OH221233   3.223   7.613   1.384
 7097TIP3    H121234   3.260   7.566   1.310
 7097TIP3    H221235   3.201   7.545   1.448
 7098TIP3   OH221236   2.999   2.320   2.109
 7098TIP3    H121237   2.961   2.373   2.039
 7098TIP3    H221238   3.017   2.235   2.069
 7099TIP3   OH221239   7.125   2.308   1.372
 7099TIP3    H121240   7.106   2.289   1.464
 7099TIP3    H221241   7.221   2.309   1.367
 7100TIP3   OH221242   1.800   5.482   4.814
 7100TIP3    H121243   1.781   5.410   4.753
 7100TIP3    H221244   1.887   5.462   4.848
 7101TIP3   OH221245   3.222   7.620   0.337
 7101TIP3    H121246   3.201   7.699   0.387
 7101TIP3    H221247   3.148   7.562   0.352
 7102TIP3   OH221248   7.006   4.764   1.547
 7102TIP3    H121249   7.051   4.847   1.564
 7102TIP3    H221250   6.937   4.760   1.613
 7103TIP3   OH221251   0.761   7.799   5.943
 7103TIP3    H121252   0.689   7.824   5.885
 7103TIP3    H221253   0.833   7.776   5.884
 7104TIP3   OH221254   5.538   7.280   5.331
 7104TIP3    H121255   5.590   7.303   5.408
 7104TIP3    H221256   5.447   7.295   5.359
 7105TIP3   OH221257   6.710   1.626   1.348
 7105TIP3    H121258   6.678   1.596   1.263
 7105TIP3    H221259   6.694   1.720   1.348
 7106TIP3   OH221260   5.975   2.100   1.560
 7106TIP3    H121261   6.042   2.091   1.493
 7106TIP3    H221262   5.900   2.138   1.514
 7107TIP3   OH221263   1.683   7.287   4.216
 7107TIP3    H121264   1.708   7.226   4.286
 7107TIP3    H221265   1.674   7.371   4.260
 7108TIP3   OH221266   4.135   5.165   4.170
 7108TIP3    H121267   4.052   5.147   4.214
 7108TIP3    H221268   4.116   5.153   4.077
 7109TIP3   OH221269   0.269   6.440   5.524
 7109TIP3    H121270   0.175   6.422   5.522
 7109TIP3    H221271   0.300   6.398   5.604
 7110TIP3   OH221272   7.028   6.329   4.564
 7110TIP3    H121273   6.979   6.348   4.484
 7110TIP3    H221274   7.120   6.328   4.536
 7111TIP3   OH221275   2.488   7.392   1.502
 7111TIP3    H121276   2.496   7.348   1.586
 7111TIP3    H221277   2.394   7.391   1.483
 7112TIP3   OH221278   4.020   0.987   4.851
 7112TIP3    H121279   4.021   1.028   4.937
 7112TIP3    H221280   3.933   1.008   4.816
 7113TIP3   OH221281   6.374   3.513   3.295
 7113TIP3    H121282   6.446   3.457   3.266
 7113TIP3    H221283   6.393   3.531   3.387
 7114TIP3   OH221284   1.517   7.209   1.657
 7114TIP3    H121285   1.509   7.115   1.642
 7114TIP3    H221286   1.525   7.217   1.752
 7115TIP3   OH221287   7.887   1.806   1.593
 7115TIP3    H121288   7.879   1.804   1.498
 7115TIP3    H221289   7.896   1.715   1.619
 7116TIP3   OH221290   6.004   1.145   1.882
 7116TIP3    H121291   5.948   1.110   1.813
 7116TIP3    H221292   5.997   1.081   1.953
 7117TIP3   OH221293   3.543   4.079   2.899
 7117TIP3    H121294   3.457   4.039   2.886
 7117TIP3    H221295   3.604   4.005   2.905
 7118TIP3   OH221296   5.468   5.365   3.482
 7118TIP3    H121297   5.470   5.461   3.489
 7118TIP3    H221298   5.414   5.349   3.404
 7119TIP3   OH221299   0.789   5.702   4.620
 7119TIP3    H121300   0.858   5.748   4.668
 7119TIP3    H221301   0.776   5.621   4.670
 7120TIP3   OH221302   7.885   5.736   3.264
 7120TIP3    H121303   7.965   5.760   3.311
 7120TIP3    H221304   7.892   5.641   3.252
 7121TIP3   OH221305   2.733   5.368   2.549
 7121TIP3    H121306   2.707   5.428   2.480
 7121TIP3    H221307   2.822   5.396   2.573
 7122TIP3   OH221308   5.712   6.780   5.689
 7122TIP3    H121309   5.796   6.818   5.716
 7122TIP3    H221310   5.735   6.692   5.658
 7123TIP3   OH221311   5.531   1.606   1.474
 7123TIP3    H121312   5.588   1.663   1.525
 7123TIP3    H221313   5.573   1.599   1.389
 7124TIP3   OH221314   4.750   2.142   4.461
 7124TIP3    H121315   4.667   2.145   4.413
 7124TIP3    H221316   4.768   2.234   4.484
 7125TIP3   OH221317   7.957   6.473   6.407
 7125TIP3    H121318   7.877   6.522   6.423
 7125TIP3    H221319   7.941   6.387   6.447
 7126TIP3   OH221320   4.394   0.696   4.050
 7126TIP3    H121321   4.453   0.763   4.084
 7126TIP3    H221322   4.320   0.696   4.110
 7127TIP3   OH221323   4.591   3.086   5.509
 7127TIP3    H121324   4.511   3.087   5.563
 7127TIP3    H221325   4.646   3.154   5.548
 7128TIP3   OH221326   6.241   3.094   5.625
 7128TIP3    H121327   6.151   3.062   5.631
 7128TIP3    H221328   6.294   3.024   5.663
 7129TIP3   OH221329   5.349   1.465   1.592
 7129TIP3    H121330   5.414   1.529   1.563
 7129TIP3    H221331   5.330   1.413   1.514
 7130TIP3   OH221332   6.671   6.574   3.320
 7130TIP3    H121333   6.596   6.627   3.291
 7130TIP3    H221334   6.704   6.533   3.241
 7131TIP3   OH221335   2.242   4.375   3.213
 7131TIP3    H121336   2.284   4.352   3.296
 7131TIP3    H221337   2.237   4.292   3.166
 7132TIP3   OH221338   2.405   3.560   2.514
 7132TIP3    H121339   2.393   3.521   2.600
 7132TIP3    H221340   2.350   3.508   2.456
 7133TIP3   OH221341   7.317   5.040   3.870
 7133TIP3    H121342   7.294   5.097   3.943
 7133TIP3    H221343   7.236   4.992   3.850
 7134TIP3   OH221344   0.489   0.805   6.084
 7134TIP3    H121345   0.448   0.873   6.137
 7134TIP3    H221346   0.563   0.774   6.136
 7135TIP3   OH221347   4.367   3.885   2.284
 7135TIP3    H121348   4.282   3.871   2.243
 7135TIP3    H221349   4.420   3.810   2.255
 7136TIP3   OH221350   6.584   0.954   0.314
 7136TIP3    H121351   6.562   0.997   0.231
 7136TIP3    H221352   6.572   1.021   0.380
 7137TIP3   OH221353   2.706   4.198   4.453
 7137TIP3    H121354   2.754   4.237   4.380
 7137TIP3    H221355   2.662   4.272   4.495
 7138TIP3   OH221356   2.863   3.462   4.603
 7138TIP3    H121357   2.890   3.545   4.563
 7138TIP3    H221358   2.892   3.468   4.694
 7139TIP3   OH221359   2.065   5.675   6.088
 7139TIP3    H121360   2.102   5.708   6.006
 7139TIP3    H221361   2.140   5.644   6.138
 7140TIP3   OH221362   3.173   6.181   2.015
 7140TIP3    H121363   3.089   6.154   2.051
 7140TIP3    H221364   3.238   6.149   2.078
 7141TIP3   OH221365   7.650   6.431   2.059
 7141TIP3    H121366   7.594   6.409   1.985
 7141TIP3    H221367   7.596   6.488   2.114
 7142TIP3   OH221368   5.711   4.848   2.242
 7142TIP3    H121369   5.638   4.791   2.267
 7142TIP3    H221370   5.694   4.930   2.288
 7143TIP3   OH221371   0.530   2.731   4.823
 7143TIP3    H121372   0.436   2.712   4.828
 7143TIP3    H221373   0.553   2.759   4.912
 7144TIP3   OH221374   1.317   5.077   2.381
 7144TIP3    H121375   1.304   5.077   2.286
 7144TIP3    H221376   1.247   5.021   2.415
 7145TIP3   OH221377   6.691   5.855   2.306
 7145TIP3    H121378   6.780   5.874   2.280
 7145TIP3    H221379   6.636   5.910   2.250
 7146TIP3   OH221380   0.078   1.563   5.293
 7146TIP3    H121381   0.151   1.610   5.253
 7146TIP3    H221382   0.001   1.593   5.247
 7147TIP3   OH221383   1.180   2.748   2.753
 7147TIP3    H121384   1.179   2.664   2.800
 7147TIP3    H221385   1.102   2.793   2.784
 7148TIP3   OH221386   4.980   6.668   0.258
 7148TIP3    H121387   4.942   6.716   0.184
 7148TIP3    H221388   5.044   6.729   0.296
 7149TIP3   OH221389   4.813   5.852   3.097
 7149TIP3    H121390   4.771   5.809   3.023
 7149TIP3    H221391   4.841   5.937   3.064
 7150TIP3   OH221392   6.821   4.157   0.961
 7150TIP3    H121393   6.750   4.093   0.956
 7150TIP3    H221394   6.858   4.146   1.048
 7151TIP3   OH221395   5.653   7.624   1.052
 7151TIP3    H121396   5.585   7.690   1.036
 7151TIP3    H221397   5.646   7.605   1.146
 7152TIP3   OH221398   5.699   5.444   2.239
 7152TIP3    H121399   5.753   5.374   2.277
 7152TIP3    H221400   5.644   5.399   2.175
 7153TIP3   OH221401   7.054   5.706   4.728
 7153TIP3    H121402   7.035   5.798   4.714
 7153TIP3    H221403   7.097   5.702   4.813
 7154TIP3   OH221404   0.644   6.699   5.449
 7154TIP3    H121405   0.588   6.664   5.380
 7154TIP3    H221406   0.724   6.648   5.443
 7155TIP3   OH221407   2.878   4.800   3.676
 7155TIP3    H121408   2.973   4.790   3.665
 7155TIP3    H221409   2.845   4.710   3.678
 7156TIP3   OH221410   5.465   7.159   6.639
 7156TIP3    H121411   5.481   7.245   6.678
 7156TIP3    H221412   5.371   7.159   6.618
 7157TIP3   OH221413   4.186   0.782   2.068
 7157TIP3    H121414   4.135   0.756   2.144
 7157TIP3    H221415   4.122   0.792   1.998
 7158TIP3   OH221416   2.638   0.197   5.694
 7158TIP3    H121417   2.715   0.253   5.691
 7158TIP3    H221418   2.663   0.119   5.646
 7159TIP3   OH221419   5.183   4.331   3.444
 7159TIP3    H121420   5.109   4.384   3.414
 7159TIP3    H221421   5.258   4.365   3.395
 7160TIP3   OH221422   1.004   1.753   3.366
 7160TIP3    H121423   1.030   1.677   3.314
 7160TIP3    H221424   1.085   1.782   3.408
 7161TIP3   OH221425   5.533   1.419   4.723
 7161TIP3    H121426   5.488   1.344   4.684
 7161TIP3    H221427   5.617   1.423   4.677
 7162TIP3   OH221428   7.229   6.093   5.634
 7162TIP3    H121429   7.243   6.027   5.567
 7162TIP3    H221430   7.316   6.126   5.654
 7163TIP3   OH221431   4.074   5.202   4.867
 7163TIP3    H121432   4.012   5.202   4.795
 7163TIP3    H221433   4.130   5.278   4.851
 7164TIP3   OH221434   1.804   6.511   0.060
 7164TIP3    H121435   1.885   6.468   0.085
 7164TIP3    H221436   1.797   6.586   0.119
 7165TIP3   OH221437   2.042   0.946   2.083
 7165TIP3    H121438   2.029   0.879   2.149
 7165TIP3    H221439   2.064   0.898   2.003
 7166TIP3   OH221440   3.685   2.826   0.439
 7166TIP3    H121441   3.644   2.750   0.479
 7166TIP3    H221442   3.612   2.885   0.417
 7167TIP3   OH221443   7.274   4.461   0.957
 7167TIP3    H121444   7.189   4.422   0.980
 7167TIP3    H221445   7.258   4.555   0.962
 7168TIP3   OH221446   0.822   3.832   4.243
 7168TIP3    H121447   0.858   3.839   4.331
 7168TIP3    H221448   0.782   3.918   4.227
 7169TIP3   OH221449   2.475   2.240   0.782
 7169TIP3    H121450   2.498   2.147   0.779
 7169TIP3    H221451   2.390   2.243   0.825
 7170TIP3   OH221452   0.446   5.420   5.324
 7170TIP3    H121453   0.518   5.463   5.279
 7170TIP3    H221454   0.484   5.341   5.361
 7171TIP3   OH221455   1.323   3.599   1.799
 7171TIP3    H121456   1.320   3.694   1.788
 7171TIP3    H221457   1.415   3.580   1.818
 7172TIP3   OH221458   0.595   0.432   2.918
 7172TIP3    H121459   0.528   0.378   2.877
 7172TIP3    H221460   0.644   0.371   2.973
 7173TIP3   OH221461   4.047   4.198   1.826
 7173TIP3    H121462   3.952   4.183   1.824
 7173TIP3    H221463   4.081   4.151   1.750
 7174TIP3   OH221464   3.423   3.394   4.711
 7174TIP3    H121465   3.516   3.399   4.693
 7174TIP3    H221466   3.385   3.468   4.663
 7175TIP3   OH221467   6.606   0.407   0.484
 7175TIP3    H121468   6.532   0.366   0.439
 7175TIP3    H221469   6.632   0.479   0.427
 7176TIP3   OH221470   2.174   0.487   0.721
 7176TIP3    H121471   2.100   0.508   0.664
 7176TIP3    H221472   2.183   0.392   0.714
 7177TIP3   OH221473   2.504   3.601   6.162
 7177TIP3    H121474   2.496   3.667   6.092
 7177TIP3    H221475   2.571   3.540   6.131
 7178TIP3   OH221476   6.224   3.350   6.235
 7178TIP3    H121477   6.161   3.402   6.283
 7178TIP3    H221478   6.180   3.266   6.219
 7179TIP3   OH221479   7.646   2.740   4.145
 7179TIP3    H121480   7.576   2.711   4.086
 7179TIP3    H221481   7.688   2.659   4.174
 7180TIP3   OH221482   2.328   5.244   0.876
 7180TIP3    H121483   2.413   5.287   0.874
 7180TIP3    H221484   2.292   5.266   0.961
 7181TIP3   OH221485   0.922   1.407   2.610
 7181TIP3    H121486   0.921   1.417   2.514
 7181TIP3    H221487   1.013   1.383   2.631
 7182TIP3   OH221488   0.338   4.095   0.220
 7182TIP3    H121489   0.382   4.017   0.254
 7182TIP3    H221490   0.296   4.135   0.296
 7183TIP3   OH221491   7.951   2.489   4.984
 7183TIP3    H121492   8.036   2.532   4.974
 7183TIP3    H221493   7.900   2.517   4.908
 7184TIP3   OH221494   3.629   3.348   2.242
 7184TIP3    H121495   3.709   3.340   2.294
 7184TIP3    H221496   3.613   3.442   2.237
 7185TIP3   OH221497   7.206   7.658   2.861
 7185TIP3    H121498   7.262   7.732   2.834
 7185TIP3    H221499   7.164   7.689   2.941
 7186TIP3   OH221500   2.906   7.708   6.192
 7186TIP3    H121501   2.851   7.664   6.127
 7186TIP3    H221502   2.934   7.637   6.250
 7187TIP3   OH221503   2.988   0.873   5.552
 7187TIP3    H121504   2.924   0.888   5.482
 7187TIP3    H221505   3.030   0.791   5.529
 7188TIP3   OH221506   4.307   3.603   1.937
 7188TIP3    H121507   4.283   3.592   2.029
 7188TIP3    H221508   4.400   3.624   1.939
 7189TIP3   OH221509   0.304   5.553   5.905
 7189TIP3    H121510   0.331   5.615   5.837
 7189TIP3    H221511   0.324   5.597   5.987
 7190TIP3   OH221512   6.870   7.660   2.351
 7190TIP3    H121513   6.832   7.702   2.274
 7190TIP3    H221514   6.796   7.647   2.410
 7191TIP3   OH221515   6.024   7.464   0.929
 7191TIP3    H121516   5.932   7.443   0.911
 7191TIP3    H221517   6.025   7.558   0.944
 7192TIP3   OH221518   3.291   1.915   4.250
 7192TIP3    H121519   3.309   2.002   4.287
 7192TIP3    H221520   3.353   1.857   4.294
 7193TIP3   OH221521   4.055   3.891   2.632
 7193TIP3    H121522   4.003   3.834   2.687
 7193TIP3    H221523   4.145   3.880   2.664
 7194TIP3   OH221524   8.115   5.236   5.276
 7194TIP3    H121525   8.106   5.243   5.181
 7194TIP3    H221526   8.055   5.164   5.300
 7195TIP3   OH221527   0.702   4.619   0.749
 7195TIP3    H121528   0.724   4.552   0.684
 7195TIP3    H221529   0.707   4.574   0.833
 7196TIP3   OH221530   5.497   4.598   1.109
 7196TIP3    H121531   5.501   4.608   1.014
 7196TIP3    H221532   5.588   4.605   1.138
 7197TIP3   OH221533   6.663   3.959   0.524
 7197TIP3    H121534   6.613   3.975   0.444
 7197TIP3    H221535   6.748   4.000   0.507
 7198TIP3   OH221536   2.152   3.309   1.294
 7198TIP3    H121537   2.227   3.253   1.276
 7198TIP3    H221538   2.077   3.262   1.259
 7199TIP3   OH221539   6.355   0.874   1.999
 7199TIP3    H121540   6.428   0.821   2.031
 7199TIP3    H221541   6.277   0.824   2.023
 7200TIP3   OH221542   3.703   5.570   3.214
 7200TIP3    H121543   3.620   5.608   3.185
 7200TIP3    H221544   3.702   5.481   3.178
 7201TIP3   OH221545   6.001   0.856   3.313
 7201TIP3    H121546   6.045   0.940   3.299
 7201TIP3    H221547   5.966   0.832   3.228
 7202TIP3   OH221548   5.461   0.597   0.508
 7202TIP3    H121549   5.496   0.515   0.471
 7202TIP3    H221550   5.534   0.658   0.505
 7203TIP3   OH221551   0.811   1.820   3.560
 7203TIP3    H121552   0.805   1.826   3.465
 7203TIP3    H221553   0.905   1.825   3.578
 7204TIP3   OH221554   5.077   5.820   1.748
 7204TIP3    H121555   5.002   5.864   1.789
 7204TIP3    H221556   5.144   5.820   1.816
 7205TIP3   OH221557   2.539   5.568   1.218
 7205TIP3    H121558   2.579   5.497   1.268
 7205TIP3    H221559   2.547   5.645   1.275
 7206TIP3   OH221560   2.740   3.490   6.051
 7206TIP3    H121561   2.830   3.491   6.018
 7206TIP3    H221562   2.688   3.521   5.977
 7207TIP3   OH221563   4.418   5.508   5.922
 7207TIP3    H121564   4.363   5.534   5.849
 7207TIP3    H221565   4.395   5.416   5.939
 7208TIP3   OH221566   6.525   2.055   0.340
 7208TIP3    H121567   6.463   2.110   0.388
 7208TIP3    H221568   6.547   1.985   0.402
 7209TIP3   OH221569   4.599   7.019   6.779
 7209TIP3    H121570   4.560   7.006   6.693
 7209TIP3    H221571   4.610   7.114   6.787
 7210TIP3   OH221572   3.891   1.043   4.457
 7210TIP3    H121573   3.936   1.113   4.410
 7210TIP3    H221574   3.889   1.073   4.548
 7211TIP3   OH221575   1.393   5.583   5.075
 7211TIP3    H121576   1.456   5.649   5.048
 7211TIP3    H221577   1.326   5.584   5.007
 7212TIP3   OH221578   5.096   7.425   1.958
 7212TIP3    H121579   5.184   7.447   1.986
 7212TIP3    H221580   5.041   7.496   1.993
 7213TIP3   OH221581   2.701   3.060   5.320
 7213TIP3    H121582   2.680   3.152   5.338
 7213TIP3    H221583   2.737   3.027   5.402
 7214TIP3   OH221584   6.857   4.457   5.159
 7214TIP3    H121585   6.765   4.435   5.145
 7214TIP3    H221586   6.889   4.479   5.071
 7215TIP3   OH221587   0.641   1.300   1.631
 7215TIP3    H121588   0.592   1.223   1.661
 7215TIP3    H221589   0.696   1.267   1.559
 7216TIP3   OH221590   1.519   7.165   4.549
 7216TIP3    H121591   1.511   7.072   4.569
 7216TIP3    H221592   1.476   7.175   4.463
 7217TIP3   OH221593   3.581   6.216   6.181
 7217TIP3    H121594   3.567   6.309   6.199
 7217TIP3    H221595   3.568   6.173   6.266
 7218TIP3   OH221596   2.162   2.714   5.651
 7218TIP3    H121597   2.232   2.655   5.622
 7218TIP3    H221598   2.084   2.659   5.658
 7219TIP3   OH221599   3.844   6.289   6.310
 7219TIP3    H121600   3.765   6.286   6.257
 7219TIP3    H221601   3.878   6.199   6.306
 7220TIP3   OH221602   1.997   5.958   6.305
 7220TIP3    H121603   1.938   5.890   6.273
 7220TIP3    H221604   2.061   5.969   6.235
 7221TIP3   OH221605   0.999   0.727   0.496
 7221TIP3    H121606   0.935   0.763   0.557
 7221TIP3    H221607   1.074   0.702   0.551
 7222TIP3   OH221608   2.223   1.872   3.575
 7222TIP3    H121609   2.206   1.801   3.513
 7222TIP3    H221610   2.316   1.893   3.563
 7223TIP3   OH221611   1.984   6.482   1.655
 7223TIP3    H121612   1.914   6.475   1.590
 7223TIP3    H221613   1.989   6.396   1.695
 7224TIP3   OH221614   7.624   2.949   0.221
 7224TIP3    H121615   7.600   3.026   0.273
 7224TIP3    H221616   7.579   2.877   0.265
 7225TIP3   OH221617   2.244   4.836   0.004
 7225TIP3    H121618   2.326   4.884   0.012
 7225TIP3    H221619   2.234   4.791   0.088
 7226TIP3   OH221620   6.851   4.480   3.673
 7226TIP3    H121621   6.802   4.547   3.625
 7226TIP3    H221622   6.847   4.403   3.617
 7227TIP3   OH221623   5.024   0.327   6.260
 7227TIP3    H121624   5.004   0.244   6.303
 7227TIP3    H221625   5.115   0.345   6.284
 7228TIP3   OH221626   2.699   1.535   0.613
 7228TIP3    H121627   2.735   1.452   0.581
 7228TIP3    H221628   2.650   1.570   0.538
 7229TIP3   OH221629   2.546   6.208   1.693
 7229TIP3    H121630   2.631   6.241   1.667
 7229TIP3    H221631   2.513   6.271   1.756
 7230TIP3   OH221632   4.014   4.193   6.574
 7230TIP3    H121633   4.042   4.180   6.483
 7230TIP3    H221634   4.012   4.104   6.611
 7231TIP3   OH221635   7.708   1.615   1.916
 7231TIP3    H121636   7.639   1.567   1.871
 7231TIP3    H221637   7.662   1.684   1.964
 7232TIP3   OH221638   7.063   6.546   0.964
 7232TIP3    H121639   7.040   6.465   1.009
 7232TIP3    H221640   6.982   6.573   0.921
 7233TIP3   OH221641   1.922   6.881   1.006
 7233TIP3    H121642   1.886   6.952   1.059
 7233TIP3    H221643   1.934   6.809   1.069
 7234TIP3   OH221644   6.743   5.857   4.767
 7234TIP3    H121645   6.656   5.872   4.804
 7234TIP3    H221646   6.742   5.904   4.684
 7235TIP3   OH221647   3.255   2.654   4.693
 7235TIP3    H121648   3.262   2.559   4.702
 7235TIP3    H221649   3.328   2.677   4.635
 7236TIP3   OH221650   7.102   5.477   0.748
 7236TIP3    H121651   7.027   5.445   0.699
 7236TIP3    H221652   7.154   5.525   0.683
 7237TIP3   OH221653   2.506   6.486   3.084
 7237TIP3    H121654   2.511   6.491   3.179
 7237TIP3    H221655   2.413   6.499   3.065
 7238TIP3   OH221656   3.158   3.014   6.002
 7238TIP3    H121657   3.250   3.039   5.996
 7238TIP3    H221658   3.158   2.919   5.991
 7239TIP3   OH221659   1.624   3.290   0.134
 7239TIP3    H121660   1.698   3.272   0.193
 7239TIP3    H221661   1.652   3.367   0.084
 7240TIP3   OH221662   4.382   5.085   5.532
 7240TIP3    H121663   4.384   4.996   5.495
 7240TIP3    H221664   4.294   5.116   5.514
 7241TIP3   OH221665   6.348   7.637   3.914
 7241TIP3    H121666   6.329   7.726   3.887
 7241TIP3    H221667   6.326   7.583   3.837
 7242TIP3   OH221668   0.106   5.724   0.442
 7242TIP3    H121669   0.099   5.805   0.391
 7242TIP3    H221670   0.197   5.720   0.469
 7243TIP3   OH221671   1.602   0.599   3.947
 7243TIP3    H121672   1.535   0.566   4.007
 7243TIP3    H221673   1.572   0.572   3.860
 7244TIP3   OH221674   8.024   6.518   1.443
 7244TIP3    H121675   8.086   6.588   1.461
 7244TIP3    H221676   8.075   6.452   1.396
 7245TIP3   OH221677   3.729   6.988   5.113
 7245TIP3    H121678   3.648   7.030   5.083
 7245TIP3    H221679   3.798   7.051   5.092
 7246TIP3   OH221680   1.380   1.323   5.081
 7246TIP3    H121681   1.366   1.261   5.153
 7246TIP3    H221682   1.353   1.275   5.002
 7247TIP3   OH221683   7.519   2.036   5.345
 7247TIP3    H121684   7.594   2.004   5.395
 7247TIP3    H221685   7.526   2.131   5.351
 7248TIP3   OH221686   2.364   5.843   4.148
 7248TIP3    H121687   2.362   5.935   4.124
 7248TIP3    H221688   2.349   5.842   4.242
 7249TIP3   OH221689   6.032   5.704   2.422
 7249TIP3    H121690   5.975   5.771   2.459
 7249TIP3    H221691   6.070   5.659   2.498
 7250TIP3   OH221692   5.210   5.063   2.031
 7250TIP3    H121693   5.249   5.050   1.944
 7250TIP3    H221694   5.131   5.114   2.014
 7251TIP3   OH221695   5.398   7.615   2.888
 7251TIP3    H121696   5.361   7.703   2.877
 7251TIP3    H221697   5.373   7.569   2.808
 7252TIP3   OH221698   6.447   6.973   6.262
 7252TIP3    H121699   6.429   6.899   6.205
 7252TIP3    H221700   6.434   7.050   6.207
 7253TIP3   OH221701   7.700   5.922   2.061
 7253TIP3    H121702   7.666   5.902   1.974
 7253TIP3    H221703   7.621   5.942   2.113
 7254TIP3   OH221704   0.386   0.811   2.602
 7254TIP3    H121705   0.350   0.835   2.687
 7254TIP3    H221706   0.478   0.837   2.605
 7255TIP3   OH221707   1.873   7.440   5.850
 7255TIP3    H121708   1.863   7.466   5.941
 7255TIP3    H221709   1.784   7.429   5.818
 7256TIP3   OH221710   3.793   3.448   0.924
 7256TIP3    H121711   3.853   3.374   0.919
 7256TIP3    H221712   3.845   3.520   0.958
 7257TIP3   OH221713   5.805   7.350   5.910
 7257TIP3    H121714   5.830   7.278   5.968
 7257TIP3    H221715   5.721   7.324   5.873
 7258TIP3   OH221716   4.162   5.865   4.966
 7258TIP3    H121717   4.231   5.832   5.023
 7258TIP3    H221718   4.151   5.798   4.899
 7259TIP3   OH221719   2.994   2.463   2.340
 7259TIP3    H121720   2.959   2.386   2.384
 7259TIP3    H221721   3.021   2.431   2.254
 7260TIP3   OH221722   4.956   6.591   5.325
 7260TIP3    H121723   4.937   6.499   5.308
 7260TIP3    H221724   4.870   6.634   5.318
 7261TIP3   OH221725   6.960   1.312   4.363
 7261TIP3    H121726   6.994   1.402   4.365
 7261TIP3    H221727   7.014   1.267   4.298
 7262TIP3   OH221728   4.032   4.687   1.622
 7262TIP3    H121729   4.077   4.614   1.664
 7262TIP3    H221730   4.088   4.763   1.639
 7263TIP3   OH221731   5.740   7.150   4.846
 7263TIP3    H121732   5.707   7.084   4.785
 7263TIP3    H221733   5.806   7.198   4.795
 7264TIP3   OH221734   3.379   4.569   3.191
 7264TIP3    H121735   3.287   4.553   3.214
 7264TIP3    H221736   3.426   4.551   3.272
 7265TIP3   OH221737   7.122   6.626   3.863
 7265TIP3    H121738   7.177   6.567   3.914
 7265TIP3    H221739   7.039   6.629   3.911
 7266TIP3   OH221740   1.179   0.662   6.248
 7266TIP3    H121741   1.249   0.639   6.187
 7266TIP3    H221742   1.193   0.754   6.269
 7267TIP3   OH221743   1.372   5.612   1.480
 7267TIP3    H121744   1.449   5.569   1.443
 7267TIP3    H221745   1.385   5.607   1.574
 7268TIP3   OH221746   0.498   0.160   3.214
 7268TIP3    H121747   0.413   0.176   3.173
 7268TIP3    H221748   0.543   0.244   3.208
 7269TIP3   OH221749   2.860   5.207   1.651
 7269TIP3    H121750   2.764   5.214   1.649
 7269TIP3    H221751   2.886   5.264   1.724
 7270TIP3   OH221752   5.556   3.743   1.011
 7270TIP3    H121753   5.501   3.795   1.070
 7270TIP3    H221754   5.527   3.652   1.025
 7271TIP3   OH221755   1.008   0.562   0.891
 7271TIP3    H121756   1.083   0.530   0.842
 7271TIP3    H221757   0.932   0.528   0.844
 7272TIP3   OH221758   5.843   3.713   0.651
 7272TIP3    H121759   5.791   3.790   0.677
 7272TIP3    H221760   5.934   3.739   0.669
 7273TIP3   OH221761   7.208   4.748   1.285
 7273TIP3    H121762   7.182   4.729   1.195
 7273TIP3    H221763   7.223   4.843   1.286
 7274TIP3   OH221764   0.481   2.470   0.193
 7274TIP3    H121765   0.437   2.552   0.216
 7274TIP3    H221766   0.428   2.432   0.123
 7275TIP3   OH221767   1.299   7.598   3.100
 7275TIP3    H121768   1.217   7.615   3.054
 7275TIP3    H221769   1.273   7.552   3.180
 7276TIP3   OH221770   5.892   4.539   0.362
 7276TIP3    H121771   5.944   4.480   0.417
 7276TIP3    H221772   5.951   4.564   0.291
 7277TIP3   OH221773   6.007   4.286   0.037
 7277TIP3    H121774   5.930   4.341   0.048
 7277TIP3    H221775   6.080   4.348   0.026
 7278TIP3   OH221776   4.651   3.078   1.784
 7278TIP3    H121777   4.651   3.072   1.879
 7278TIP3    H221778   4.736   3.043   1.757
 7279TIP3   OH221779   7.935   6.667   6.744
 7279TIP3    H121780   8.002   6.679   6.812
 7279TIP3    H221781   7.928   6.753   6.702
 7280TIP3   OH221782   1.672   4.821   0.238
 7280TIP3    H121783   1.699   4.856   0.323
 7280TIP3    H221784   1.637   4.896   0.191
 7281TIP3   OH221785   3.314   0.865   0.310
 7281TIP3    H121786   3.393   0.876   0.362
 7281TIP3    H221787   3.345   0.830   0.226
 7282TIP3   OH221788   2.405   5.571   3.773
 7282TIP3    H121789   2.486   5.552   3.820
 7282TIP3    H221790   2.432   5.623   3.698
 7283TIP3   OH221791   2.421   1.213   0.553
 7283TIP3    H121792   2.338   1.242   0.515
 7283TIP3    H221793   2.455   1.150   0.491
 7284TIP3   OH221794   1.762   4.968   5.142
 7284TIP3    H121795   1.747   5.005   5.229
 7284TIP3    H221796   1.688   4.909   5.128
 7285TIP3   OH221797   5.254   2.779   2.821
 7285TIP3    H121798   5.220   2.813   2.904
 7285TIP3    H221799   5.347   2.801   2.822
 7286TIP3   OH221800   6.388   2.021   4.804
 7286TIP3    H121801   6.304   2.058   4.776
 7286TIP3    H221802   6.391   1.934   4.764
 7287TIP3   OH221803   0.572   4.026   0.352
 7287TIP3    H121804   0.659   3.988   0.368
 7287TIP3    H221805   0.591   4.105   0.301
 7288TIP3   OH221806   7.843   1.135   1.431
 7288TIP3    H121807   7.858   1.075   1.504
 7288TIP3    H221808   7.824   1.078   1.356
 7289TIP3   OH221809   8.155   4.639   1.261
 7289TIP3    H121810   8.180   4.714   1.207
 7289TIP3    H221811   8.152   4.566   1.199
 7290TIP3   OH221812   4.051   0.104   5.652
 7290TIP3    H121813   3.981   0.145   5.601
 7290TIP3    H221814   4.130   0.123   5.603
 7291TIP3   OH221815   0.236   7.352   0.346
 7291TIP3    H121816   0.328   7.339   0.321
 7291TIP3    H221817   0.200   7.264   0.350
 7292TIP3   OH221818   8.308   6.556   0.048
 7292TIP3    H121819   8.352   6.500  -0.017
 7292TIP3    H221820   8.287   6.636   0.001
 7293TIP3   OH221821   4.608   5.045   4.191
 7293TIP3    H121822   4.552   5.053   4.268
 7293TIP3    H221823   4.697   5.036   4.226
 7294TIP3   OH221824   4.128   5.446   0.901
 7294TIP3    H121825   4.151   5.536   0.920
 7294TIP3    H221826   4.083   5.415   0.979
 7295TIP3   OH221827   2.418   5.874   5.154
 7295TIP3    H121828   2.348   5.922   5.110
 7295TIP3    H221829   2.372   5.811   5.211
 7296TIP3   OH221830   6.308   1.729   6.744
 7296TIP3    H121831   6.305   1.798   6.810
 7296TIP3    H221832   6.265   1.767   6.667
 7297TIP3   OH221833   4.512   2.028   1.059
 7297TIP3    H121834   4.452   1.978   1.114
 7297TIP3    H221835   4.520   2.113   1.102
 7298TIP3   OH221836   5.443   4.764   6.477
 7298TIP3    H121837   5.501   4.741   6.404
 7298TIP3    H221838   5.501   4.774   6.552
 7299TIP3   OH221839   6.654   5.813   3.203
 7299TIP3    H121840   6.612   5.846   3.283
 7299TIP3    H221841   6.581   5.792   3.145
 7300TIP3   OH221842   3.681   1.056   6.000
 7300TIP3    H121843   3.729   1.048   6.082
 7300TIP3    H221844   3.748   1.055   5.932
 7301TIP3   OH221845   0.712   1.008   3.293
 7301TIP3    H121846   0.738   0.923   3.257
 7301TIP3    H221847   0.618   1.014   3.276
 7302TIP3   OH221848   0.636   3.953   1.754
 7302TIP3    H121849   0.583   3.950   1.674
 7302TIP3    H221850   0.573   3.942   1.825
 7303TIP3   OH221851   3.960   2.027   0.148
 7303TIP3    H121852   3.875   1.999   0.182
 7303TIP3    H221853   3.943   2.047   0.056
 7304TIP3   OH221854   3.809   4.659   2.038
 7304TIP3    H121855   3.724   4.643   1.996
 7304TIP3    H221856   3.793   4.644   2.131
 7305TIP3   OH221857   4.726   7.427   1.213
 7305TIP3    H121858   4.633   7.423   1.237
 7305TIP3    H221859   4.731   7.493   1.144
 7306TIP3   OH221860   7.312   1.374   4.053
 7306TIP3    H121861   7.219   1.393   4.039
 7306TIP3    H221862   7.335   1.316   3.981
 7307TIP3   OH221863   4.958   7.245   1.776
 7307TIP3    H121864   5.017   7.298   1.830
 7307TIP3    H221865   4.895   7.207   1.838
 7308TIP3   OH221866   1.816   2.523   4.076
 7308TIP3    H121867   1.731   2.532   4.119
 7308TIP3    H221868   1.878   2.564   4.136
 7309TIP3   OH221869   6.598   4.444   5.038
 7309TIP3    H121870   6.594   4.501   4.961
 7309TIP3    H221871   6.581   4.356   5.005
 7310TIP3   OH221872   2.290   4.735   6.634
 7310TIP3    H121873   2.197   4.743   6.655
 7310TIP3    H221874   2.330   4.813   6.673
 7311TIP3   OH221875   4.575   3.260   2.899
 7311TIP3    H121876   4.603   3.288   2.986
 7311TIP3    H221877   4.546   3.341   2.857
 7312TIP3   OH221878   2.695   6.362   5.840
 7312TIP3    H121879   2.641   6.440   5.853
 7312TIP3    H221880   2.760   6.389   5.776
 7313TIP3   OH221881   0.046   1.606   1.283
 7313TIP3    H121882  -0.005   1.602   1.365
 7313TIP3    H221883   0.137   1.604   1.312
 7314TIP3   OH221884   2.490   5.452   6.361
 7314TIP3    H121885   2.428   5.445   6.288
 7314TIP3    H221886   2.458   5.527   6.412
 7315TIP3   OH221887   6.613   5.586   4.674
 7315TIP3    H121888   6.700   5.621   4.654
 7315TIP3    H221889   6.629   5.524   4.745
 7316TIP3   OH221890   4.731   3.375   5.041
 7316TIP3    H121891   4.737   3.438   5.113
 7316TIP3    H221892   4.648   3.330   5.055
 7317TIP3   OH221893   1.956   6.117   0.788
 7317TIP3    H121894   1.937   6.176   0.715
 7317TIP3    H221895   1.927   6.165   0.866
 7318TIP3   OH221896   5.645   1.342   2.696
 7318TIP3    H121897   5.617   1.424   2.656
 7318TIP3    H221898   5.664   1.284   2.622
 7319TIP3   OH221899   1.408   7.073   3.677
 7319TIP3    H121900   1.331   7.129   3.685
 7319TIP3    H221901   1.481   7.128   3.703
 7320TIP3   OH221902   1.565   1.837   6.237
 7320TIP3    H121903   1.622   1.777   6.285
 7320TIP3    H221904   1.485   1.841   6.291
 7321TIP3   OH221905   5.788   6.255   6.034
 7321TIP3    H121906   5.852   6.184   6.027
 7321TIP3    H221907   5.725   6.226   6.099
 7322TIP3   OH221908   6.319   7.229   1.884
 7322TIP3    H121909   6.341   7.136   1.875
 7322TIP3    H221910   6.241   7.241   1.829
 7323TIP3   OH221911   2.971   6.039   0.756
 7323TIP3    H121912   3.018   6.117   0.786
 7323TIP3    H221913   2.900   6.029   0.819
 7324TIP3   OH221914   1.039   2.281   2.173
 7324TIP3    H121915   0.958   2.332   2.183
 7324TIP3    H221916   1.030   2.210   2.236
 7325TIP3   OH221917   5.973   1.070   0.401
 7325TIP3    H121918   6.026   1.114   0.467
 7325TIP3    H221919   5.929   1.142   0.355
 7326TIP3   OH221920   3.424   6.571   5.632
 7326TIP3    H121921   3.444   6.505   5.699
 7326TIP3    H221922   3.487   6.554   5.562
 7327TIP3   OH221923   5.820   1.311   0.342
 7327TIP3    H121924   5.745   1.370   0.341
 7327TIP3    H221925   5.834   1.289   0.249
 7328TIP3   OH221926   0.739   3.569   0.580
 7328TIP3    H121927   0.656   3.566   0.628
 7328TIP3    H221928   0.749   3.660   0.555
 7329TIP3   OH221929   1.608   7.112   5.819
 7329TIP3    H121930   1.640   7.110   5.729
 7329TIP3    H221931   1.532   7.054   5.818
 7330TIP3   OH221932   3.903   2.694   3.524
 7330TIP3    H121933   3.869   2.624   3.468
 7330TIP3    H221934   3.957   2.649   3.588
 7331TIP3   OH221935   4.627   7.287   5.494
 7331TIP3    H121936   4.613   7.195   5.517
 7331TIP3    H221937   4.544   7.314   5.454
 7332TIP3   OH221938   8.055   3.493   4.386
 7332TIP3    H121939   7.986   3.428   4.400
 7332TIP3    H221940   8.136   3.445   4.400
 7333TIP3   OH221941   5.820   2.518   1.202
 7333TIP3    H121942   5.899   2.490   1.247
 7333TIP3    H221943   5.843   2.518   1.109
 7334TIP3   OH221944   0.122   0.176   6.563
 7334TIP3    H121945   0.170   0.113   6.509
 7334TIP3    H221946   0.152   0.262   6.532
 7335TIP3   OH221947   4.907   4.102   4.574
 7335TIP3    H121948   4.994   4.136   4.597
 7335TIP3    H221949   4.923   4.045   4.499
 7336TIP3   OH221950   0.006   7.698   6.053
 7336TIP3    H121951  -0.069   7.655   6.013
 7336TIP3    H221952   0.059   7.626   6.087
 7337TIP3   OH221953   3.153   2.843   1.820
 7337TIP3    H121954   3.088   2.892   1.770
 7337TIP3    H221955   3.205   2.910   1.864
 7338TIP3   OH221956   8.097   7.681   2.469
 7338TIP3    H121957   8.097   7.747   2.538
 7338TIP3    H221958   8.093   7.598   2.515
 7339TIP3   OH221959   6.643   7.187   2.672
 7339TIP3    H121960   6.702   7.206   2.600
 7339TIP3    H221961   6.556   7.213   2.641
 7340TIP3   OH221962   6.727   2.707   2.585
 7340TIP3    H121963   6.692   2.688   2.672
 7340TIP3    H221964   6.761   2.623   2.555
 7341TIP3   OH221965   5.055   3.390   1.202
 7341TIP3    H121966   5.070   3.453   1.131
 7341TIP3    H221967   4.967   3.409   1.232
 7342TIP3   OH221968   5.097   4.707   6.271
 7342TIP3    H121969   5.039   4.779   6.296
 7342TIP3    H221970   5.040   4.631   6.261
 7343TIP3   OH221971   1.990   4.598   2.728
 7343TIP3    H121972   1.915   4.589   2.787
 7343TIP3    H221973   1.963   4.551   2.649
 7344TIP3   OH221974   3.540   0.894   1.556
 7344TIP3    H121975   3.608   0.838   1.595
 7344TIP3    H221976   3.473   0.834   1.525
 7345TIP3   OH221977   3.854   1.192   4.678
 7345TIP3    H121978   3.913   1.263   4.656
 7345TIP3    H221979   3.807   1.222   4.756
 7346TIP3   OH221980   2.423   1.152   5.302
 7346TIP3    H121981   2.449   1.174   5.213
 7346TIP3    H221982   2.383   1.231   5.336
 7347TIP3   OH221983   2.337   4.219   5.556
 7347TIP3    H121984   2.271   4.262   5.610
 7347TIP3    H221985   2.407   4.283   5.548
 7348TIP3   OH221986   0.440   1.290   6.736
 7348TIP3    H121987   0.437   1.222   6.669
 7348TIP3    H221988   0.435   1.372   6.686
 7349TIP3   OH221989   4.589   0.580   2.933
 7349TIP3    H121990   4.522   0.643   2.904
 7349TIP3    H221991   4.539   0.506   2.967
 7350TIP3   OH221992   2.088   4.679   0.415
 7350TIP3    H121993   2.133   4.745   0.363
 7350TIP3    H221994   2.117   4.695   0.505
 7351TIP3   OH221995   0.535   3.588   4.814
 7351TIP3    H121996   0.490   3.540   4.884
 7351TIP3    H221997   0.475   3.584   4.739
 7352TIP3   OH221998   7.805   3.861   5.661
 7352TIP3    H121999   7.747   3.800   5.707
 7352TIP3    H222000   7.858   3.900   5.730
 7353TIP3   OH222001   0.541   4.082   0.765
 7353TIP3    H122002   0.614   4.128   0.806
 7353TIP3    H222003   0.550   3.991   0.795
 7354TIP3   OH222004   2.969   0.747   3.431
 7354TIP3    H122005   2.972   0.675   3.493
 7354TIP3    H222006   3.019   0.817   3.473
 7355TIP3   OH222007   3.074   0.580   3.206
 7355TIP3    H122008   3.002   0.614   3.260
 7355TIP3    H222009   3.153   0.606   3.252
 7356TIP3   OH222010   8.106   4.713   1.709
 7356TIP3    H122011   8.200   4.730   1.704
 7356TIP3    H222012   8.066   4.799   1.701
 7357TIP3   OH222013   0.139   0.654   2.731
 7357TIP3    H122014   0.165   0.595   2.801
 7357TIP3    H222015   0.174   0.613   2.651
 7358TIP3   OH222016   2.102   6.375   0.312
 7358TIP3    H122017   2.159   6.314   0.358
 7358TIP3    H222018   2.132   6.373   0.222
 7359TIP3   OH222019   2.257   6.532   2.998
 7359TIP3    H122020   2.230   6.533   2.906
 7359TIP3    H222021   2.178   6.554   3.047
 7360TIP3   OH222022   5.712   0.539   6.004
 7360TIP3    H122023   5.688   0.626   6.038
 7360TIP3    H222024   5.651   0.524   5.932
 7361TIP3   OH222025   7.195   6.581   4.521
 7361TIP3    H122026   7.139   6.554   4.448
 7361TIP3    H222027   7.201   6.504   4.577
 7362TIP3   OH222028   5.201   0.271   4.774
 7362TIP3    H122029   5.132   0.226   4.824
 7362TIP3    H222030   5.228   0.208   4.708
 7363TIP3   OH222031   3.473   0.428   3.823
 7363TIP3    H122032   3.378   0.441   3.827
 7363TIP3    H222033   3.500   0.473   3.743
 7364TIP3   OH222034   0.976   4.792   2.981
 7364TIP3    H122035   1.033   4.732   2.932
 7364TIP3    H222036   0.907   4.736   3.016
 7365TIP3   OH222037   4.440   1.453   0.610
 7365TIP3    H122038   4.458   1.537   0.568
 7365TIP3    H222039   4.352   1.430   0.580
 7366TIP3   OH222040   7.780   2.067   2.160
 7366TIP3    H122041   7.735   2.017   2.092
 7366TIP3    H222042   7.743   2.155   2.154
 7367TIP3   OH222043   5.948   4.630   6.231
 7367TIP3    H122044   5.957   4.536   6.212
 7367TIP3    H222045   6.038   4.663   6.231
 7368TIP3   OH222046   2.569   7.212   3.483
 7368TIP3    H122047   2.571   7.303   3.511
 7368TIP3    H222048   2.512   7.211   3.406
 7369TIP3   OH222049   7.870   1.734   6.086
 7369TIP3    H122050   7.864   1.810   6.144
 7369TIP3    H222051   7.863   1.771   5.998
 7370TIP3   OH222052   5.828   5.476   3.599
 7370TIP3    H122053   5.801   5.527   3.523
 7370TIP3    H222054   5.910   5.516   3.627
 7371TIP3   OH222055   2.463   6.625   4.927
 7371TIP3    H122056   2.520   6.660   4.995
 7371TIP3    H222057   2.385   6.595   4.974
 7372TIP3   OH222058   0.541   2.844   1.587
 7372TIP3    H122059   0.578   2.764   1.625
 7372TIP3    H222060   0.511   2.894   1.662
 7373TIP3   OH222061   3.876   6.117   5.335
 7373TIP3    H122062   3.952   6.084   5.383
 7373TIP3    H222063   3.849   6.195   5.383
 7374TIP3   OH222064   0.425   6.856   2.799
 7374TIP3    H122065   0.484   6.872   2.726
 7374TIP3    H222066   0.476   6.802   2.860
 7375TIP3   OH222067   1.204   6.734   0.477
 7375TIP3    H122068   1.115   6.734   0.512
 7375TIP3    H222069   1.241   6.650   0.505
 7376TIP3   OH222070   6.224   5.352   0.723
 7376TIP3    H122071   6.287   5.324   0.657
 7376TIP3    H222072   6.139   5.345   0.679
 7377TIP3   OH222073   4.370   1.673   5.967
 7377TIP3    H122074   4.439   1.738   5.951
 7377TIP3    H222075   4.328   1.661   5.882
 7378TIP3   OH222076   1.201   2.461   1.647
 7378TIP3    H122077   1.115   2.456   1.605
 7378TIP3    H222078   1.260   2.421   1.583
 7379TIP3   OH222079   3.749   5.223   4.762
 7379TIP3    H122080   3.812   5.282   4.720
 7379TIP3    H222081   3.664   5.260   4.738
 7380TIP3   OH222082   4.422   3.436   5.218
 7380TIP3    H122083   4.364   3.370   5.256
 7380TIP3    H222084   4.469   3.389   5.149
 7381TIP3   OH222085   1.438   0.520   3.729
 7381TIP3    H122086   1.356   0.570   3.727
 7381TIP3    H222087   1.413   0.433   3.698
 7382TIP3   OH222088   3.846   3.407   4.225
 7382TIP3    H122089   3.862   3.434   4.315
 7382TIP3    H222090   3.915   3.343   4.207
 7383TIP3   OH222091   0.657   3.783   3.274
 7383TIP3    H122092   0.647   3.851   3.208
 7383TIP3    H222093   0.741   3.741   3.252
 7384TIP3   OH222094   3.766   5.732   1.282
 7384TIP3    H122095   3.714   5.783   1.344
 7384TIP3    H222096   3.798   5.658   1.333
 7385TIP3   OH222097   7.598   4.288   1.811
 7385TIP3    H122098   7.665   4.248   1.757
 7385TIP3    H222099   7.520   4.293   1.755
 7386TIP3   OH222100   3.349   1.550   0.060
 7386TIP3    H122101   3.439   1.581   0.048
 7386TIP3    H222102   3.350   1.507   0.145
 7387TIP3   OH222103   2.236   1.724   6.679
 7387TIP3    H122104   2.175   1.784   6.722
 7387TIP3    H222105   2.202   1.636   6.700
 7388TIP3   OH222106   6.106   4.779   0.471
 7388TIP3    H122107   6.066   4.732   0.399
 7388TIP3    H222108   6.188   4.733   0.488
 7389TIP3   OH222109  -0.027   2.349   1.339
 7389TIP3    H122110  -0.021   2.273   1.281
 7389TIP3    H222111  -0.120   2.356   1.359
 7390TIP3   OH222112   2.972   3.532   0.807
 7390TIP3    H122113   2.942   3.463   0.866
 7390TIP3    H222114   3.052   3.496   0.767
 7391TIP3   OH222115   3.409   2.134   5.359
 7391TIP3    H122116   3.403   2.049   5.316
 7391TIP3    H222117   3.329   2.179   5.332
 7392TIP3   OH222118   7.532   4.091   5.322
 7392TIP3    H122119   7.605   4.079   5.384
 7392TIP3    H222120   7.467   4.140   5.372
 7393TIP3   OH222121   3.801   3.823   1.684
 7393TIP3    H122122   3.876   3.870   1.721
 7393TIP3    H222123   3.838   3.739   1.656
 7394TIP3   OH222124   0.869   2.876   0.716
 7394TIP3    H122125   0.795   2.901   0.661
 7394TIP3    H222126   0.829   2.846   0.798
 7395TIP3   OH222127   7.000   2.313   4.827
 7395TIP3    H122128   7.062   2.335   4.897
 7395TIP3    H222129   6.938   2.253   4.867
 7396TIP3   OH222130   2.977   6.277   4.015
 7396TIP3    H122131   3.021   6.195   4.037
 7396TIP3    H222132   3.020   6.307   3.935
 7397TIP3   OH222133   7.490   2.318   5.326
 7397TIP3    H122134   7.430   2.393   5.324
 7397TIP3    H222135   7.575   2.356   5.304
 7398TIP3   OH222136   1.266   0.374   5.783
 7398TIP3    H122137   1.286   0.441   5.848
 7398TIP3    H222138   1.352   0.337   5.760
 7399TIP3   OH222139   5.274   6.699   5.777
 7399TIP3    H122140   5.231   6.656   5.703
 7399TIP3    H222141   5.202   6.743   5.823
 7400TIP3   OH222142   6.292   2.710   1.060
 7400TIP3    H122143   6.346   2.695   0.983
 7400TIP3    H222144   6.207   2.672   1.039
 7401TIP3   OH222145   6.819   3.189   5.697
 7401TIP3    H122146   6.789   3.099   5.712
 7401TIP3    H222147   6.777   3.215   5.615
 7402TIP3   OH222148   4.180   4.208   3.033
 7402TIP3    H122149   4.217   4.296   3.034
 7402TIP3    H222150   4.177   4.184   2.940
 7403TIP3   OH222151   8.098   6.829   6.138
 7403TIP3    H122152   8.117   6.806   6.229
 7403TIP3    H222153   8.184   6.849   6.100
 7404TIP3   OH222154   0.751   3.783   5.422
 7404TIP3    H122155   0.695   3.762   5.496
 7404TIP3    H222156   0.715   3.864   5.386
 7405TIP3   OH222157   1.607   0.756   1.914
 7405TIP3    H122158   1.531   0.772   1.968
 7405TIP3    H222159   1.619   0.836   1.863
 7406TIP3   OH222160   7.978   7.228   0.183
 7406TIP3    H122161   8.049   7.251   0.243
 7406TIP3    H222162   7.949   7.311   0.147
 7407TIP3   OH222163   1.328   5.756   1.236
 7407TIP3    H122164   1.356   5.722   1.321
 7407TIP3    H222165   1.355   5.690   1.173
 7408TIP3   OH222166   6.422   7.434   0.875
 7408TIP3    H122167   6.443   7.411   0.966
 7408TIP3    H222168   6.408   7.350   0.832
 7409TIP3   OH222169   4.793   4.979   4.989
 7409TIP3    H122170   4.822   5.004   4.902
 7409TIP3    H222171   4.707   4.939   4.974
 7410TIP3   OH222172   4.996   7.736   4.227
 7410TIP3    H122173   4.911   7.738   4.271
 7410TIP3    H222174   4.985   7.670   4.158
 7411TIP3   OH222175   1.920   6.103   6.517
 7411TIP3    H122176   1.968   6.049   6.454
 7411TIP3    H222177   1.836   6.058   6.528
 7412TIP3   OH222178   6.359   5.145   2.422
 7412TIP3    H122179   6.296   5.178   2.358
 7412TIP3    H222180   6.438   5.127   2.372
 7413TIP3   OH222181   2.110   4.232   4.007
 7413TIP3    H122182   2.114   4.296   3.936
 7413TIP3    H222183   2.122   4.148   3.963
 7414TIP3   OH222184   8.088   6.182   4.492
 7414TIP3    H122185   8.079   6.189   4.397
 7414TIP3    H222186   8.174   6.219   4.510
 7415TIP3   OH222187   3.319   6.194   4.579
 7415TIP3    H122188   3.309   6.102   4.553
 7415TIP3    H222189   3.405   6.219   4.544
 7416TIP3   OH222190   6.899   6.389   4.107
 7416TIP3    H122191   6.938   6.399   4.020
 7416TIP3    H222192   6.818   6.441   4.103
 7417TIP3   OH222193   6.121   0.853   6.805
 7417TIP3    H122194   6.068   0.863   6.884
 7417TIP3    H222195   6.077   0.906   6.739
 7418TIP3   OH222196   3.690   6.679   2.788
 7418TIP3    H122197   3.778   6.673   2.824
 7418TIP3    H222198   3.634   6.635   2.853
 7419TIP3   OH222199   3.345   5.044   0.892
 7419TIP3    H122200   3.297   4.998   0.961
 7419TIP3    H222201   3.384   5.120   0.936
 7420TIP3   OH222202   7.074   6.603   3.562
 7420TIP3    H122203   7.126   6.534   3.601
 7420TIP3    H222204   7.032   6.647   3.636
 7421TIP3   OH222205   5.354   3.998   2.683
 7421TIP3    H122206   5.443   4.016   2.654
 7421TIP3    H222207   5.365   3.954   2.767
 7422TIP3   OH222208   4.681   0.658   6.058
 7422TIP3    H122209   4.710   0.748   6.044
 7422TIP3    H222210   4.762   0.610   6.078
 7423TIP3   OH222211   3.533   0.492   6.193
 7423TIP3    H122212   3.516   0.418   6.134
 7423TIP3    H222213   3.473   0.478   6.266
 7424TIP3   OH222214   0.014   7.266   4.058
 7424TIP3    H122215   0.047   7.176   4.058
 7424TIP3    H222216   0.092   7.319   4.041
 7425TIP3   OH222217   5.733   7.427   4.308
 7425TIP3    H122218   5.711   7.502   4.363
 7425TIP3    H222219   5.660   7.367   4.318
 7426TIP3   OH222220   7.227   0.650   3.860
 7426TIP3    H122221   7.190   0.614   3.940
 7426TIP3    H222222   7.153   0.659   3.801
 7427TIP3   OH222223   2.658   4.119   0.862
 7427TIP3    H122224   2.587   4.174   0.829
 7427TIP3    H222225   2.618   4.032   0.871
 7428TIP3   OH222226   2.362   2.745   6.106
 7428TIP3    H122227   2.268   2.730   6.109
 7428TIP3    H222228   2.380   2.803   6.180
 7429TIP3   OH222229   8.233   7.689   4.249
 7429TIP3    H122230   8.269   7.689   4.338
 7429TIP3    H222231   8.286   7.625   4.201
 7430TIP3   OH222232   8.026   4.828   4.772
 7430TIP3    H122233   8.083   4.757   4.803
 7430TIP3    H222234   8.083   4.904   4.768
 7431TIP3   OH222235   2.901   5.187   3.066
 7431TIP3    H122236   2.976   5.240   3.039
 7431TIP3    H222237   2.845   5.183   2.989
 7432TIP3   OH222238   5.039   1.620   4.839
 7432TIP3    H122239   5.060   1.591   4.928
 7432TIP3    H222240   5.095   1.567   4.782
 7433TIP3   OH222241   7.290   6.009   0.499
 7433TIP3    H122242   7.373   5.985   0.458
 7433TIP3    H222243   7.227   5.947   0.462
 7434TIP3   OH222244   4.817   0.200   4.629
 7434TIP3    H122245   4.888   0.156   4.676
 7434TIP3    H222246   4.860   0.257   4.567
 7435TIP3   OH222247   7.094   0.889   5.691
 7435TIP3    H122248   7.181   0.916   5.723
 7435TIP3    H222249   7.037   0.898   5.768
 7436TIP3   OH222250   3.837   3.539   4.490
 7436TIP3    H122251   3.857   3.628   4.459
 7436TIP3    H222252   3.848   3.544   4.585
 7437TIP3   OH222253   4.933   4.824   5.335
 7437TIP3    H122254   4.992   4.847   5.264
 7437TIP3    H222255   4.867   4.892   5.335
 7438TIP3   OH222256   4.608   6.561   4.143
 7438TIP3    H122257   4.523   6.530   4.109
 7438TIP3    H222258   4.627   6.639   4.092
 7439TIP3   OH222259   5.890   3.240   0.210
 7439TIP3    H122260   5.933   3.317   0.248
 7439TIP3    H222261   5.881   3.260   0.117
 7440TIP3   OH222262   1.225   6.400   5.119
 7440TIP3    H122263   1.274   6.478   5.144
 7440TIP3    H222264   1.166   6.429   5.050
 7441TIP3   OH222265   0.080   3.654   1.290
 7441TIP3    H122266   0.108   3.576   1.242
 7441TIP3    H222267   0.064   3.624   1.379
 7442TIP3   OH222268   7.785   2.483   3.095
 7442TIP3    H122269   7.804   2.428   3.171
 7442TIP3    H222270   7.694   2.464   3.073
 7443TIP3   OH222271   4.817   2.776   3.625
 7443TIP3    H122272   4.813   2.683   3.602
 7443TIP3    H222273   4.778   2.781   3.712
 7444TIP3   OH222274   6.530   3.390   1.266
 7444TIP3    H122275   6.543   3.436   1.349
 7444TIP3    H222276   6.454   3.334   1.281
 7445TIP3   OH222277   5.499   5.494   3.890
 7445TIP3    H122278   5.582   5.514   3.933
 7445TIP3    H222279   5.482   5.568   3.833
 7446TIP3   OH222280   6.397   1.766   4.675
 7446TIP3    H122281   6.463   1.780   4.607
 7446TIP3    H222282   6.437   1.703   4.735
 7447TIP3   OH222283   0.193   6.685   2.638
 7447TIP3    H122284   0.103   6.670   2.667
 7447TIP3    H222285   0.223   6.760   2.690
 7448TIP3   OH222286   4.470   6.623   4.564
 7448TIP3    H122287   4.454   6.681   4.489
 7448TIP3    H222288   4.516   6.547   4.527
 7449TIP3   OH222289   1.549   6.533   2.745
 7449TIP3    H122290   1.546   6.563   2.836
 7449TIP3    H222291   1.479   6.467   2.740
 7450TIP3   OH222292   6.903   6.144   4.865
 7450TIP3    H122293   6.973   6.207   4.847
 7450TIP3    H222294   6.883   6.156   4.957
 7451TIP3   OH222295   5.825   7.684   2.958
 7451TIP3    H122296   5.916   7.716   2.954
 7451TIP3    H222297   5.804   7.685   3.051
 7452TIP3   OH222298   2.573   0.325   6.143
 7452TIP3    H122299   2.532   0.366   6.220
 7452TIP3    H222300   2.636   0.390   6.112
 7453TIP3   OH222301   1.612   3.448   3.862
 7453TIP3    H122302   1.579   3.535   3.837
 7453TIP3    H222303   1.605   3.396   3.781
 7454TIP3   OH222304   3.369   3.635   1.283
 7454TIP3    H122305   3.353   3.726   1.310
 7454TIP3    H222306   3.424   3.599   1.353
 7455TIP3   OH222307   7.981   5.726   0.094
 7455TIP3    H122308   7.972   5.818   0.115
 7455TIP3    H222309   7.973   5.681   0.178
 7456TIP3   OH222310   2.846   1.272   1.072
 7456TIP3    H122311   2.901   1.349   1.060
 7456TIP3    H222312   2.902   1.198   1.050
 7457TIP3   OH222313   8.084   7.516   0.374
 7457TIP3    H122314   8.176   7.508   0.397
 7457TIP3    H222315   8.037   7.490   0.453
 7458TIP3   OH222316   6.975   3.660   5.102
 7458TIP3    H122317   6.900   3.661   5.160
 7458TIP3    H222318   7.049   3.685   5.157
 7459TIP3   OH222319   5.355   1.533   4.212
 7459TIP3    H122320   5.323   1.607   4.264
 7459TIP3    H222321   5.450   1.537   4.221
 7460TIP3   OH222322   0.219   2.488   0.664
 7460TIP3    H122323   0.227   2.392   0.670
 7460TIP3    H222324   0.161   2.511   0.736
 7461TIP3   OH222325   0.638   3.124   5.311
 7461TIP3    H122326   0.562   3.119   5.253
 7461TIP3    H222327   0.712   3.138   5.252
 7462TIP3   OH222328   2.671   6.984   1.113
 7462TIP3    H122329   2.596   7.041   1.094
 7462TIP3    H222330   2.744   7.045   1.127
 7463TIP3   OH222331   4.013   7.332   1.105
 7463TIP3    H122332   3.981   7.304   1.020
 7463TIP3    H222333   4.067   7.409   1.087
 7464TIP3   OH222334   3.209   7.225   4.241
 7464TIP3    H122335   3.186   7.310   4.279
 7464TIP3    H222336   3.126   7.189   4.212
 7465TIP3   OH222337   1.877   5.709   5.710
 7465TIP3    H122338   1.871   5.690   5.804
 7465TIP3    H222339   1.936   5.641   5.676
 7466TIP3   OH222340   4.623   2.803   1.965
 7466TIP3    H122341   4.685   2.853   2.018
 7466TIP3    H222342   4.677   2.742   1.915
 7467TIP3   OH222343   4.747   7.343   1.630
 7467TIP3    H122344   4.830   7.339   1.676
 7467TIP3    H222345   4.707   7.425   1.659
 7468TIP3   OH222346   1.332   3.412   1.594
 7468TIP3    H122347   1.255   3.424   1.538
 7468TIP3    H222348   1.336   3.493   1.645
 7469TIP3   OH222349   4.283   1.393   0.020
 7469TIP3    H122350   4.363   1.341   0.016
 7469TIP3    H222351   4.225   1.344   0.078
 7470TIP3   OH222352   6.243   1.684   4.441
 7470TIP3    H122353   6.251   1.713   4.532
 7470TIP3    H222354   6.299   1.743   4.391
 7471TIP3   OH222355   4.929   4.329   1.652
 7471TIP3    H122356   4.937   4.400   1.715
 7471TIP3    H222357   4.840   4.337   1.618
 7472TIP3   OH222358   6.201   1.325   5.128
 7472TIP3    H122359   6.164   1.400   5.082
 7472TIP3    H222360   6.226   1.264   5.059
 7473TIP3   OH222361   5.511   1.028   3.527
 7473TIP3    H122362   5.607   1.034   3.528
 7473TIP3    H222363   5.483   1.085   3.599
 7474TIP3   OH222364   6.452   1.225   4.291
 7474TIP3    H122365   6.540   1.211   4.254
 7474TIP3    H222366   6.393   1.213   4.216
 7475TIP3   OH222367   1.863   3.348   4.798
 7475TIP3    H122368   1.940   3.368   4.744
 7475TIP3    H222369   1.847   3.255   4.783
 7476TIP3   OH222370   1.056   7.819   5.213
 7476TIP3    H122371   1.077   7.728   5.191
 7476TIP3    H222372   0.979   7.839   5.160
 7477TIP3   OH222373   7.509   4.805   1.673
 7477TIP3    H122374   7.516   4.900   1.671
 7477TIP3    H222375   7.583   4.774   1.621
 7478TIP3   OH222376   0.437   7.008   1.999
 7478TIP3    H122377   0.416   6.915   1.989
 7478TIP3    H222378   0.358   7.046   2.038
 7479TIP3   OH222379   7.047   2.139   1.147
 7479TIP3    H122380   7.126   2.085   1.147
 7479TIP3    H222381   7.062   2.203   1.217
 7480TIP3   OH222382   5.617   7.097   0.710
 7480TIP3    H122383   5.573   7.153   0.773
 7480TIP3    H222384   5.602   7.008   0.741
 7481TIP3   OH222385   2.543   2.801   1.206
 7481TIP3    H122386   2.568   2.848   1.126
 7481TIP3    H222387   2.463   2.754   1.182
 7482TIP3   OH222388   5.351   2.382   3.781
 7482TIP3    H122389   5.367   2.471   3.812
 7482TIP3    H222390   5.361   2.326   3.858
 7483TIP3   OH222391   4.340   7.065   1.759
 7483TIP3    H122392   4.433   7.044   1.758
 7483TIP3    H222393   4.329   7.128   1.687
 7484TIP3   OH222394   4.993   3.405   5.140
 7484TIP3    H122395   5.082   3.431   5.164
 7484TIP3    H222396   4.937   3.469   5.185
 7485TIP3   OH222397   0.918   5.156   1.437
 7485TIP3    H122398   0.995   5.212   1.430
 7485TIP3    H222399   0.952   5.070   1.461
 7486TIP3   OH222400   3.884   3.032   3.085
 7486TIP3    H122401   3.820   3.033   3.013
 7486TIP3    H222402   3.969   3.022   3.042
 7487TIP3   OH222403   3.423   4.633   5.554
 7487TIP3    H122404   3.462   4.557   5.597
 7487TIP3    H222405   3.477   4.648   5.477
 7488TIP3   OH222406   3.143   0.368   3.916
 7488TIP3    H122407   3.149   0.283   3.871
 7488TIP3    H222408   3.182   0.351   4.002
 7489TIP3   OH222409   4.418   2.897   2.212
 7489TIP3    H122410   4.456   2.868   2.129
 7489TIP3    H222411   4.428   2.992   2.211
 7490TIP3   OH222412   3.569   0.060   3.563
 7490TIP3    H122413   3.475   0.045   3.557
 7490TIP3    H222414   3.588   0.058   3.657
 7491TIP3   OH222415   1.531   7.315   6.370
 7491TIP3    H122416   1.548   7.365   6.450
 7491TIP3    H222417   1.510   7.381   6.304
 7492TIP3   OH222418   4.089   1.146   3.665
 7492TIP3    H122419   4.137   1.228   3.657
 7492TIP3    H222420   4.155   1.081   3.688
 7493TIP3   OH222421   0.911   4.471   2.452
 7493TIP3    H122422   0.824   4.488   2.417
 7493TIP3    H222423   0.895   4.421   2.532
 7494TIP3   OH222424   3.801   4.121   5.563
 7494TIP3    H122425   3.729   4.116   5.625
 7494TIP3    H222426   3.788   4.046   5.504
 7495TIP3   OH222427   4.211   5.717   3.369
 7495TIP3    H122428   4.186   5.659   3.441
 7495TIP3    H222429   4.140   5.707   3.305
 7496TIP3   OH222430   3.140   0.150   3.018
 7496TIP3    H122431   3.104   0.238   3.034
 7496TIP3    H222432   3.192   0.132   3.097
 7497TIP3   OH222433   3.853   3.037   1.526
 7497TIP3    H122434   3.873   2.989   1.446
 7497TIP3    H222435   3.922   3.103   1.533
 7498TIP3   OH222436   0.185   3.789   6.129
 7498TIP3    H122437   0.185   3.753   6.218
 7498TIP3    H222438   0.269   3.833   6.120
 7499TIP3   OH222439   7.780   5.572   4.898
 7499TIP3    H122440   7.788   5.577   4.993
 7499TIP3    H222441   7.860   5.612   4.864
 7500TIP3   OH222442   5.318   6.753   6.103
 7500TIP3    H122443   5.398   6.756   6.050
 7500TIP3    H222444   5.342   6.795   6.186
 7501TIP3   OH222445   7.879   0.539   0.575
 7501TIP3    H122446   7.844   0.466   0.523
 7501TIP3    H222447   7.948   0.576   0.519
 7502TIP3   OH222448   6.653   1.532   4.002
 7502TIP3    H122449   6.584   1.598   3.990
 7502TIP3    H222450   6.679   1.541   4.093
 7503TIP3   OH222451   6.719   3.879   3.489
 7503TIP3    H122452   6.692   3.787   3.486
 7503TIP3    H222453   6.810   3.876   3.520
 7504TIP3   OH222454   2.952   0.766   3.872
 7504TIP3    H122455   2.875   0.818   3.849
 7504TIP3    H222456   2.963   0.778   3.966
 7505TIP3   OH222457   0.624   3.970   3.062
 7505TIP3    H122458   0.659   4.047   3.108
 7505TIP3    H222459   0.690   3.949   2.996
 7506TIP3   OH222460   0.533   0.494   2.529
 7506TIP3    H122461   0.444   0.508   2.562
 7506TIP3    H222462   0.570   0.582   2.523
 7507TIP3   OH222463   1.296   4.387   3.530
 7507TIP3    H122464   1.304   4.301   3.488
 7507TIP3    H222465   1.246   4.370   3.610
 7508TIP3   OH222466   6.006   2.702   0.482
 7508TIP3    H122467   5.985   2.668   0.395
 7508TIP3    H222468   6.070   2.772   0.465
 7509TIP3   OH222469   0.813   3.216   4.631
 7509TIP3    H122470   0.779   3.156   4.566
 7509TIP3    H222471   0.835   3.161   4.706
 7510TIP3   OH222472   3.807   6.542   0.066
 7510TIP3    H122473   3.885   6.528   0.012
 7510TIP3    H222474   3.817   6.480   0.139
 7511TIP3   OH222475   1.607   3.307   0.556
 7511TIP3    H122476   1.618   3.213   0.544
 7511TIP3    H222477   1.552   3.334   0.482
 7512TIP3   OH222478   6.704   0.681   2.673
 7512TIP3    H122479   6.777   0.744   2.680
 7512TIP3    H222480   6.647   0.718   2.606
 7513TIP3   OH222481   5.558   7.385   3.700
 7513TIP3    H122482   5.476   7.337   3.685
 7513TIP3    H222483   5.553   7.413   3.791
 7514TIP3   OH222484   2.324   2.183   6.684
 7514TIP3    H122485   2.310   2.275   6.660
 7514TIP3    H222486   2.314   2.182   6.780
 7515TIP3   OH222487   3.332   4.363   0.813
 7515TIP3    H122488   3.378   4.389   0.893
 7515TIP3    H222489   3.250   4.413   0.814
 7516TIP3   OH222490   8.099   3.752   0.152
 7516TIP3    H122491   8.111   3.761   0.057
 7516TIP3    H222492   8.089   3.658   0.166
 7517TIP3   OH222493   4.431   6.753   0.174
 7517TIP3    H122494   4.448   6.847   0.163
 7517TIP3    H222495   4.504   6.722   0.228
 7518TIP3   OH222496   7.785   4.839   3.692
 7518TIP3    H122497   7.771   4.880   3.606
 7518TIP3    H222498   7.783   4.912   3.754
 7519TIP3   OH222499   5.587   3.399   4.810
 7519TIP3    H122500   5.603   3.442   4.894
 7519TIP3    H222501   5.569   3.470   4.750
 7520TIP3   OH222502   0.307   5.749   3.064
 7520TIP3    H122503   0.259   5.827   3.037
 7520TIP3    H222504   0.339   5.711   2.982
 7521TIP3   OH222505   2.954   1.594   1.067
 7521TIP3    H122506   2.879   1.616   1.011
 7521TIP3    H222507   3.020   1.661   1.046
 7522TIP3   OH222508   3.356   6.775   4.132
 7522TIP3    H122509   3.316   6.791   4.217
 7522TIP3    H222510   3.425   6.711   4.149
 7523TIP3   OH222511   3.907   5.787   3.523
 7523TIP3    H122512   3.870   5.729   3.589
 7523TIP3    H222513   4.002   5.772   3.528
 7524TIP3   OH222514   7.343   7.535   6.674
 7524TIP3    H122515   7.271   7.491   6.630
 7524TIP3    H222516   7.333   7.627   6.651
 7525TIP3   OH222517   4.865   2.435   2.089
 7525TIP3    H122518   4.784   2.487   2.086
 7525TIP3    H222519   4.881   2.422   2.182
 7526TIP3   OH222520   1.188   4.557   2.175
 7526TIP3    H122521   1.180   4.461   2.176
 7526TIP3    H222522   1.279   4.574   2.200
 7527TIP3   OH222523   3.340   3.629   4.610
 7527TIP3    H122524   3.298   3.637   4.524
 7527TIP3    H222525   3.418   3.684   4.603
 7528TIP3   OH222526   0.685   2.041   4.927
 7528TIP3    H122527   0.656   2.102   4.996
 7528TIP3    H222528   0.756   1.992   4.967
 7529TIP3   OH222529   6.670   7.549   4.815
 7529TIP3    H122530   6.588   7.588   4.784
 7529TIP3    H222531   6.712   7.619   4.865
 7530TIP3   OH222532   8.082   1.893   5.602
 7530TIP3    H122533   8.032   1.829   5.553
 7530TIP3    H222534   8.173   1.879   5.575
 7531TIP3   OH222535   2.861   0.245   5.973
 7531TIP3    H122536   2.850   0.337   5.997
 7531TIP3    H222537   2.950   0.224   6.002
 7532TIP3   OH222538   5.087   6.103   5.634
 7532TIP3    H122539   5.075   6.148   5.551
 7532TIP3    H222540   5.168   6.139   5.670
 7533TIP3   OH222541   5.086   2.847   1.924
 7533TIP3    H122542   5.090   2.754   1.902
 7533TIP3    H222543   5.174   2.869   1.951
 7534TIP3   OH222544  -0.013   7.477   5.509
 7534TIP3    H122545   0.060   7.448   5.564
 7534TIP3    H222546   0.027   7.495   5.424
 7535TIP3   OH222547   0.993   4.574   4.951
 7535TIP3    H122548   0.937   4.639   4.909
 7535TIP3    H222549   1.072   4.622   4.974
 7536TIP3   OH222550   5.974   2.379   6.355
 7536TIP3    H122551   5.884   2.353   6.336
 7536TIP3    H222552   6.027   2.328   6.294
 7537TIP3   OH222553   4.646   7.778   1.940
 7537TIP3    H122554   4.583   7.787   1.869
 7537TIP3    H222555   4.731   7.790   1.899
 7538TIP3   OH222556   3.893  -0.001   0.746
 7538TIP3    H122557   3.801   0.023   0.738
 7538TIP3    H222558   3.906  -0.014   0.840
 7539TIP3   OH222559   5.233   5.653   3.517
 7539TIP3    H122560   5.216   5.635   3.610
 7539TIP3    H222561   5.328   5.645   3.508
 7540TIP3   OH222562   2.064   6.329   6.725
 7540TIP3    H122563   2.040   6.383   6.649
 7540TIP3    H222564   2.031   6.378   6.800
 7541TIP3   OH222565   0.439   0.165   6.151
 7541TIP3    H122566   0.500   0.124   6.213
 7541TIP3    H222567   0.473   0.141   6.065
 7542TIP3   OH222568   5.272   3.261   3.504
 7542TIP3    H122569   5.203   3.308   3.459
 7542TIP3    H222570   5.308   3.324   3.567
 7543TIP3   OH222571   7.369   3.610   0.658
 7543TIP3    H122572   7.401   3.570   0.577
 7543TIP3    H222573   7.444   3.659   0.692
 7544TIP3   OH222574   1.310   4.833   4.450
 7544TIP3    H122575   1.335   4.922   4.475
 7544TIP3    H222576   1.308   4.835   4.354
 7545TIP3   OH222577   1.617   5.573   3.615
 7545TIP3    H122578   1.689   5.520   3.581
 7545TIP3    H222579   1.595   5.632   3.543
 7546TIP3   OH222580   1.060   2.375   1.279
 7546TIP3    H122581   1.059   2.279   1.274
 7546TIP3    H222582   1.032   2.404   1.192
 7547TIP3   OH222583   2.020   2.843   0.346
 7547TIP3    H122584   2.021   2.839   0.442
 7547TIP3    H222585   1.953   2.908   0.325
 7548TIP3   OH222586   1.908   2.364   0.827
 7548TIP3    H122587   1.946   2.278   0.847
 7548TIP3    H222588   1.965   2.426   0.873
 7549TIP3   OH222589   4.474   2.015   2.648
 7549TIP3    H122590   4.432   2.012   2.562
 7549TIP3    H222591   4.554   2.066   2.633
 7550TIP3   OH222592   6.802   7.214   6.721
 7550TIP3    H122593   6.718   7.253   6.698
 7550TIP3    H222594   6.867   7.274   6.684
 7551TIP3   OH222595   0.071   4.686   0.470
 7551TIP3    H122596  -0.008   4.736   0.491
 7551TIP3    H222597   0.103   4.725   0.388
 7552TIP3   OH222598   1.842   2.858   1.676
 7552TIP3    H122599   1.780   2.850   1.604
 7552TIP3    H222600   1.928   2.847   1.635
 7553TIP3   OH222601   1.093   1.279   5.538
 7553TIP3    H122602   1.163   1.284   5.603
 7553TIP3    H222603   1.105   1.193   5.497
 7554TIP3   OH222604   3.691   3.841   4.291
 7554TIP3    H122605   3.690   3.935   4.307
 7554TIP3    H222606   3.783   3.818   4.287
 7555TIP3   OH222607   2.475   4.740   1.840
 7555TIP3    H122608   2.435   4.824   1.859
 7555TIP3    H222609   2.479   4.736   1.744
 7556TIP3   OH222610   2.272   4.802   4.359
 7556TIP3    H122611   2.208   4.842   4.301
 7556TIP3    H222612   2.356   4.840   4.332
 7557TIP3   OH222613   4.316   6.231   0.060
 7557TIP3    H122614   4.268   6.149   0.069
 7557TIP3    H222615   4.290   6.265  -0.026
 7558TIP3   OH222616   3.970   6.317   3.850
 7558TIP3    H122617   3.923   6.329   3.933
 7558TIP3    H222618   4.034   6.248   3.868
 7559TIP3   OH222619   7.900   2.495   6.481
 7559TIP3    H122620   7.988   2.529   6.498
 7559TIP3    H222621   7.915   2.417   6.427
 7560TIP3   OH222622   4.194   4.131   2.759
 7560TIP3    H122623   4.115   4.103   2.714
 7560TIP3    H222624   4.243   4.180   2.693
 7561TIP3   OH222625   5.517   5.635   3.488
 7561TIP3    H122626   5.549   5.649   3.577
 7561TIP3    H222627   5.507   5.723   3.451
 7562TIP3   OH222628   6.311   6.897   4.234
 7562TIP3    H122629   6.350   6.844   4.303
 7562TIP3    H222630   6.250   6.955   4.279
 7563TIP3   OH222631   3.044   6.784   4.494
 7563TIP3    H122632   3.009   6.872   4.505
 7563TIP3    H222633   3.122   6.796   4.439
 7564TIP3   OH222634   2.110   0.973   6.450
 7564TIP3    H122635   2.053   0.944   6.379
 7564TIP3    H222636   2.171   1.034   6.408
 7565TIP3   OH222637   0.329   1.031   4.129
 7565TIP3    H122638   0.398   1.096   4.139
 7565TIP3    H222639   0.260   1.060   4.189
 7566TIP3   OH222640   0.615   1.804   2.793
 7566TIP3    H122641   0.541   1.797   2.732
 7566TIP3    H222642   0.635   1.713   2.817
 7567TIP3   OH222643   6.083   4.026   2.624
 7567TIP3    H122644   6.006   3.997   2.574
 7567TIP3    H222645   6.133   3.945   2.638
 7568TIP3   OH222646   8.110   0.305   0.780
 7568TIP3    H122647   8.169   0.355   0.723
 7568TIP3    H222648   8.041   0.273   0.721
 7569TIP3   OH222649   2.654   4.482   1.570
 7569TIP3    H122650   2.645   4.415   1.638
 7569TIP3    H222651   2.726   4.452   1.515
 7570TIP3   OH222652   0.542   5.372   6.558
 7570TIP3    H122653   0.455   5.408   6.574
 7570TIP3    H222654   0.598   5.414   6.625
 7571TIP3   OH222655   0.111   7.009   5.500
 7571TIP3    H122656   0.166   6.937   5.470
 7571TIP3    H222657   0.064   6.974   5.576
 7572TIP3   OH222658   4.542   0.939   4.709
 7572TIP3    H122659   4.576   0.868   4.763
 7572TIP3    H222660   4.516   1.007   4.771
 7573TIP3   OH222661   0.247   7.408   3.411
 7573TIP3    H122662   0.290   7.471   3.469
 7573TIP3    H222663   0.161   7.446   3.394
 7574TIP3   OH222664   2.533   0.690   3.269
 7574TIP3    H122665   2.556   0.763   3.327
 7574TIP3    H222666   2.538   0.613   3.325
 7575TIP3   OH222667   3.880   6.965   5.657
 7575TIP3    H122668   3.919   6.878   5.655
 7575TIP3    H222669   3.862   6.986   5.565
 7576TIP3   OH222670   7.768   2.179   1.850
 7576TIP3    H122671   7.746   2.210   1.762
 7576TIP3    H222672   7.754   2.085   1.846
 7577TIP3   OH222673   0.954   2.980   3.096
 7577TIP3    H122674   0.929   2.938   3.178
 7577TIP3    H222675   0.882   3.040   3.076
 7578TIP3   OH222676   7.615   7.599   1.541
 7578TIP3    H122677   7.554   7.673   1.536
 7578TIP3    H222678   7.605   7.566   1.630
 7579TIP3   OH222679   3.979   2.589   0.744
 7579TIP3    H122680   4.044   2.646   0.785
 7579TIP3    H222681   3.895   2.630   0.764
 7580TIP3   OH222682   4.377   6.498   1.555
 7580TIP3    H122683   4.352   6.407   1.544
 7580TIP3    H222684   4.416   6.502   1.642
 7581TIP3   OH222685   4.956   0.207   3.765
 7581TIP3    H122686   4.878   0.174   3.809
 7581TIP3    H222687   4.946   0.303   3.768
 7582TIP3   OH222688   3.413   2.141   4.334
 7582TIP3    H122689   3.420   2.234   4.315
 7582TIP3    H222690   3.352   2.136   4.408
 7583TIP3   OH222691   6.544   5.419   0.672
 7583TIP3    H122692   6.538   5.514   0.673
 7583TIP3    H222693   6.539   5.394   0.764
 7584TIP3   OH222694   3.078   2.096   1.098
 7584TIP3    H122695   3.131   2.109   1.019
 7584TIP3    H222696   3.041   2.182   1.117
 7585TIP3   OH222697   4.710   7.676   2.390
 7585TIP3    H122698   4.794   7.636   2.366
 7585TIP3    H222699   4.706   7.667   2.485
 7586TIP3   OH222700   5.396   2.549   0.553
 7586TIP3    H122701   5.444   2.611   0.608
 7586TIP3    H222702   5.462   2.487   0.523
 7587TIP3   OH222703   5.650   5.775   6.208
 7587TIP3    H122704   5.631   5.754   6.300
 7587TIP3    H222705   5.598   5.712   6.158
 7588TIP3   OH222706   6.539   6.262   1.228
 7588TIP3    H122707   6.619   6.287   1.181
 7588TIP3    H222708   6.487   6.342   1.230
 7589TIP3   OH222709   3.486   6.925   5.577
 7589TIP3    H122710   3.406   6.956   5.533
 7589TIP3    H222711   3.542   7.003   5.582
 7590TIP3   OH222712   6.477   4.687   4.050
 7590TIP3    H122713   6.513   4.771   4.021
 7590TIP3    H222714   6.423   4.657   3.977
 7591TIP3   OH222715   1.532   3.952   1.640
 7591TIP3    H122716   1.451   3.906   1.618
 7591TIP3    H222717   1.572   3.972   1.556
 7592TIP3   OH222718   7.836   5.692   2.169
 7592TIP3    H122719   7.804   5.775   2.134
 7592TIP3    H222720   7.791   5.682   2.253
 7593TIP3   OH222721   3.021   0.585   1.534
 7593TIP3    H122722   3.042   0.674   1.505
 7593TIP3    H222723   3.073   0.528   1.478
 7594TIP3   OH222724   5.117   2.298   0.294
 7594TIP3    H122725   5.127   2.387   0.259
 7594TIP3    H222726   5.201   2.278   0.334
 7595TIP3   OH222727   3.312   2.342   2.178
 7595TIP3    H122728   3.280   2.257   2.207
 7595TIP3    H222729   3.241   2.378   2.126
 7596TIP3   OH222730   0.006   0.406   3.196
 7596TIP3    H122731  -0.085   0.381   3.180
 7596TIP3    H222732   0.008   0.500   3.182
 7597TIP3   OH222733   5.353   2.089   4.941
 7597TIP3    H122734   5.261   2.116   4.934
 7597TIP3    H222735   5.351   1.995   4.927
 7598TIP3   OH222736   7.450   0.542   1.080
 7598TIP3    H122737   7.401   0.581   1.008
 7598TIP3    H222738   7.537   0.582   1.074
 7599TIP3   OH222739   5.743   0.444   0.059
 7599TIP3    H122740   5.768   0.409   0.145
 7599TIP3    H222741   5.803   0.517   0.044
 7600TIP3   OH222742   3.067   0.410   2.979
 7600TIP3    H122743   3.052   0.468   3.054
 7600TIP3    H222744   2.979   0.381   2.954
 7601TIP3   OH222745   2.272   1.065   0.889
 7601TIP3    H122746   2.357   1.102   0.867
 7601TIP3    H222747   2.254   1.001   0.820
 7602TIP3   OH222748   4.381   1.025   2.116
 7602TIP3    H122749   4.418   0.943   2.148
 7602TIP3    H222750   4.456   1.074   2.083
 7603TIP3   OH222751   3.227   7.321   5.963
 7603TIP3    H122752   3.255   7.320   6.054
 7603TIP3    H222753   3.303   7.292   5.913
 7604TIP3   OH222754   5.569   0.617   5.017
 7604TIP3    H122755   5.607   0.603   4.930
 7604TIP3    H222756   5.606   0.548   5.071
 7605TIP3   OH222757   4.836   6.943   6.274
 7605TIP3    H122758   4.789   6.940   6.191
 7605TIP3    H222759   4.914   6.889   6.259
 7606TIP3   OH222760   1.755   2.762   0.498
 7606TIP3    H122761   1.767   2.719   0.413
 7606TIP3    H222762   1.742   2.690   0.560
 7607TIP3   OH222763   4.617   1.525   3.543
 7607TIP3    H122764   4.595   1.597   3.602
 7607TIP3    H222765   4.693   1.556   3.495
 7608TIP3   OH222766   5.391   0.950   0.876
 7608TIP3    H122767   5.299   0.929   0.864
 7608TIP3    H222768   5.392   1.013   0.948
 7609TIP3   OH222769   2.460   3.215   1.287
 7609TIP3    H122770   2.554   3.199   1.287
 7609TIP3    H222771   2.423   3.148   1.344
 7610TIP3   OH222772   3.208   6.620   5.497
 7610TIP3    H122773   3.283   6.621   5.556
 7610TIP3    H222774   3.137   6.657   5.549
 7611TIP3   OH222775   1.155   6.819   5.026
 7611TIP3    H122776   1.185   6.887   5.086
 7611TIP3    H222777   1.235   6.773   5.000
 7612TIP3   OH222778   3.030   4.005   0.683
 7612TIP3    H122779   2.991   4.069   0.624
 7612TIP3    H222780   2.966   3.995   0.754
 7613TIP3   OH222781   6.903   2.576   3.300
 7613TIP3    H122782   6.852   2.635   3.245
 7613TIP3    H222783   6.994   2.600   3.282
 7614TIP3   OH222784   2.788   3.969   1.833
 7614TIP3    H122785   2.706   3.924   1.818
 7614TIP3    H222786   2.767   4.037   1.897
 7615TIP3   OH222787   4.340   4.371   1.063
 7615TIP3    H122788   4.329   4.466   1.069
 7615TIP3    H222789   4.259   4.335   1.100
 7616TIP3   OH222790   7.722   5.505   5.796
 7616TIP3    H122791   7.769   5.512   5.879
 7616TIP3    H222792   7.641   5.554   5.809
 7617TIP3   OH222793   8.067   0.946   1.817
 7617TIP3    H122794   8.093   0.993   1.738
 7617TIP3    H222795   8.082   1.008   1.888
 7618TIP3   OH222796   6.275   6.946   6.676
 7618TIP3    H122797   6.283   6.870   6.619
 7618TIP3    H222798   6.186   6.978   6.661
 7619TIP3   OH222799   6.332   7.229   3.740
 7619TIP3    H122800   6.343   7.316   3.701
 7619TIP3    H222801   6.237   7.221   3.754
 7620TIP3   OH222802   5.552   6.952   1.052
 7620TIP3    H122803   5.634   6.997   1.067
 7620TIP3    H222804   5.577   6.864   1.024
 7621TIP3   OH222805   1.550   6.806   5.242
 7621TIP3    H122806   1.520   6.858   5.316
 7621TIP3    H222807   1.563   6.870   5.172
 7622TIP3   OH222808   5.011   1.517   2.630
 7622TIP3    H122809   5.089   1.552   2.587
 7622TIP3    H222810   4.962   1.474   2.559
 7623TIP3   OH222811   7.559   5.121   4.973
 7623TIP3    H122812   7.602   5.136   4.889
 7623TIP3    H222813   7.515   5.204   4.993
 7624TIP3   OH222814   1.854   1.050   1.930
 7624TIP3    H122815   1.894   1.013   1.851
 7624TIP3    H222816   1.905   1.014   2.002
 7625TIP3   OH222817   3.865   1.288   1.263
 7625TIP3    H122818   3.779   1.317   1.295
 7625TIP3    H222819   3.928   1.342   1.311
 7626TIP3   OH222820   4.325   4.739   3.905
 7626TIP3    H122821   4.243   4.715   3.862
 7626TIP3    H222822   4.331   4.834   3.894
 7627TIP3   OH222823   3.542   5.285   6.614
 7627TIP3    H122824   3.619   5.235   6.586
 7627TIP3    H222825   3.502   5.232   6.683
 7628TIP3   OH222826   3.636   5.195   0.575
 7628TIP3    H122827   3.578   5.121   0.557
 7628TIP3    H222828   3.655   5.232   0.489
 7629TIP3   OH222829   2.990   5.905   1.031
 7629TIP3    H122830   2.939   5.824   1.035
 7629TIP3    H222831   2.940   5.968   1.083
 7630TIP3   OH222832   1.426   2.424   2.167
 7630TIP3    H122833   1.447   2.421   2.260
 7630TIP3    H222834   1.509   2.446   2.125
 7631TIP3   OH222835   2.007   6.498   5.237
 7631TIP3    H122836   2.080   6.559   5.245
 7631TIP3    H222837   1.929   6.553   5.249
 7632TIP3   OH222838   3.265   2.093   6.273
 7632TIP3    H122839   3.170   2.108   6.277
 7632TIP3    H222840   3.303   2.158   6.331
 7633TIP3   OH222841   5.388   6.454   6.286
 7633TIP3    H122842   5.378   6.361   6.266
 7633TIP3    H222843   5.479   6.473   6.264
 7634TIP3   OH222844   7.261   5.338   4.788
 7634TIP3    H122845   7.201   5.279   4.834
 7634TIP3    H222846   7.319   5.280   4.739
 7635TIP3   OH222847   4.260   7.380   6.283
 7635TIP3    H122848   4.337   7.335   6.318
 7635TIP3    H222849   4.218   7.315   6.227
 7636TIP3   OH222850   6.499   7.433   5.404
 7636TIP3    H122851   6.570   7.447   5.341
 7636TIP3    H222852   6.526   7.356   5.454
 7637TIP3   OH222853   7.998   4.494   0.373
 7637TIP3    H122854   8.014   4.407   0.410
 7637TIP3    H222855   7.999   4.553   0.449
 7638TIP3   OH222856   3.233   0.940   4.195
 7638TIP3    H122857   3.179   0.861   4.207
 7638TIP3    H222858   3.316   0.907   4.161
 7639TIP3   OH222859   3.756   3.116   2.837
 7639TIP3    H122860   3.846   3.141   2.816
 7639TIP3    H222861   3.705   3.196   2.821
 7640TIP3   OH222862   3.305   1.057   1.160
 7640TIP3    H122863   3.241   0.986   1.152
 7640TIP3    H222864   3.390   1.012   1.162
 7641TIP3   OH222865   7.875   5.772   0.449
 7641TIP3    H122866   7.871   5.859   0.411
 7641TIP3    H222867   7.794   5.763   0.498
 7642TIP3   OH222868   5.105   4.624   4.230
 7642TIP3    H122869   5.075   4.548   4.280
 7642TIP3    H222870   5.201   4.622   4.237
 7643TIP3   OH222871   2.003   6.239   5.676
 7643TIP3    H122872   1.978   6.150   5.651
 7643TIP3    H222873   2.098   6.236   5.687
 7644TIP3   OH222874   1.905   2.733   3.687
 7644TIP3    H122875   1.934   2.781   3.765
 7644TIP3    H222876   1.889   2.801   3.622
 7645TIP3   OH222877   1.136   1.118   5.189
 7645TIP3    H122878   1.199   1.076   5.130
 7645TIP3    H222879   1.174   1.107   5.276
 7646TIP3   OH222880   3.300   7.320   5.465
 7646TIP3    H122881   3.247   7.397   5.488
 7646TIP3    H222882   3.264   7.250   5.520
 7647TIP3   OH222883   1.326   4.808   2.726
 7647TIP3    H122884   1.401   4.867   2.718
 7647TIP3    H222885   1.364   4.720   2.733
 7648TIP3   OH222886   5.673   4.680   0.485
 7648TIP3    H122887   5.729   4.610   0.453
 7648TIP3    H222888   5.720   4.715   0.561
 7649TIP3   OH222889   6.479   5.623   3.048
 7649TIP3    H122890   6.408   5.569   3.084
 7649TIP3    H222891   6.468   5.617   2.953
 7650TIP3   OH222892   0.541   7.384   0.624
 7650TIP3    H122893   0.520   7.409   0.535
 7650TIP3    H222894   0.473   7.321   0.649
 7651TIP3   OH222895   0.894   6.573   6.122
 7651TIP3    H122896   0.937   6.653   6.092
 7651TIP3    H222897   0.953   6.538   6.189
 7652TIP3   OH222898   3.824   2.014   4.964
 7652TIP3    H122899   3.784   1.979   4.885
 7652TIP3    H222900   3.890   1.948   4.989
 7653TIP3   OH222901   1.550   4.452   4.339
 7653TIP3    H122902   1.623   4.468   4.399
 7653TIP3    H222903   1.586   4.395   4.272
 7654TIP3   OH222904   0.079   5.363   3.883
 7654TIP3    H122905   0.039   5.349   3.968
 7654TIP3    H222906   0.075   5.457   3.869
 7655TIP3   OH222907   4.338   4.727   6.485
 7655TIP3    H122908   4.256   4.678   6.478
 7655TIP3    H222909   4.312   4.819   6.480
 7656TIP3   OH222910   0.532   2.787   0.677
 7656TIP3    H122911   0.543   2.873   0.636
 7656TIP3    H222912   0.569   2.797   0.764
 7657TIP3   OH222913   2.346   5.268   3.088
 7657TIP3    H122914   2.348   5.237   2.998
 7657TIP3    H222915   2.433   5.307   3.102
 7658TIP3   OH222916   2.955   4.259   3.245
 7658TIP3    H122917   2.866   4.237   3.220
 7658TIP3    H222918   2.968   4.349   3.213
 7659TIP3   OH222919   7.310   1.725   4.096
 7659TIP3    H122920   7.396   1.747   4.133
 7659TIP3    H222921   7.260   1.806   4.100
 7660TIP3   OH222922   5.631   1.709   2.347
 7660TIP3    H122923   5.704   1.722   2.286
 7660TIP3    H222924   5.553   1.710   2.291
 7661TIP3   OH222925   6.356   0.840   4.125
 7661TIP3    H122926   6.339   0.748   4.144
 7661TIP3    H222927   6.296   0.888   4.182
 7662TIP3   OH222928   2.685   1.284   4.222
 7662TIP3    H122929   2.627   1.211   4.244
 7662TIP3    H222930   2.728   1.306   4.304
 7663TIP3   OH222931   5.856   7.655   3.644
 7663TIP3    H122932   5.860   7.560   3.649
 7663TIP3    H222933   5.902   7.677   3.563
 7664TIP3   OH222934   7.535   5.826   1.853
 7664TIP3    H122935   7.441   5.831   1.871
 7664TIP3    H222936   7.551   5.733   1.838
 7665TIP3   OH222937   0.307   4.976   6.213
 7665TIP3    H122938   0.360   4.898   6.230
 7665TIP3    H222939   0.217   4.947   6.229
 7666TIP3   OH222940   2.394   7.201   6.404
 7666TIP3    H122941   2.307   7.239   6.390
 7666TIP3    H222942   2.412   7.153   6.324
 7667TIP3   OH222943   3.796   1.286   4.186
 7667TIP3    H122944   3.733   1.214   4.184
 7667TIP3    H222945   3.838   1.279   4.272
 7668TIP3   OH222946   6.915   1.156   4.589
 7668TIP3    H122947   6.938   1.201   4.508
 7668TIP3    H222948   6.939   1.217   4.658
 7669TIP3   OH222949   7.280   2.400   1.860
 7669TIP3    H122950   7.345   2.465   1.885
 7669TIP3    H222951   7.305   2.321   1.906
 7670TIP3   OH222952   7.050   3.813   6.046
 7670TIP3    H122953   7.018   3.903   6.060
 7670TIP3    H222954   7.010   3.763   6.117
 7671TIP3   OH222955   6.244   6.450   0.516
 7671TIP3    H122956   6.260   6.536   0.555
 7671TIP3    H222957   6.202   6.400   0.586
 7672TIP3   OH222958   5.451   6.399   1.533
 7672TIP3    H122959   5.411   6.414   1.618
 7672TIP3    H222960   5.534   6.354   1.552
 7673TIP3   OH222961   0.181   5.988   0.782
 7673TIP3    H122962   0.156   5.896   0.788
 7673TIP3    H222963   0.104   6.033   0.747
 7674TIP3   OH222964   3.214   6.043   1.170
 7674TIP3    H122965   3.279   6.076   1.108
 7674TIP3    H222966   3.160   5.984   1.119
 7675TIP3   OH222967   4.344   2.361   5.056
 7675TIP3    H122968   4.399   2.427   5.013
 7675TIP3    H222969   4.403   2.288   5.074
 7676TIP3   OH222970   6.059   6.319   2.207
 7676TIP3    H122971   5.997   6.247   2.202
 7676TIP3    H222972   6.071   6.348   2.117
 7677TIP3   OH222973   5.453   7.637   0.622
 7677TIP3    H122974   5.382   7.655   0.560
 7677TIP3    H222975   5.425   7.678   0.703
 7678TIP3   OH222976   0.504   1.825   4.519
 7678TIP3    H122977   0.415   1.810   4.553
 7678TIP3    H222978   0.491   1.841   4.426
 7679TIP3   OH222979   3.570   2.211   3.725
 7679TIP3    H122980   3.551   2.262   3.646
 7679TIP3    H222981   3.665   2.198   3.722
 7680TIP3   OH222982   7.589   1.876   2.041
 7680TIP3    H122983   7.549   1.885   1.955
 7680TIP3    H222984   7.535   1.931   2.098
 7681TIP3   OH222985   7.448   2.435   1.050
 7681TIP3    H122986   7.417   2.478   0.970
 7681TIP3    H222987   7.542   2.425   1.037
 7682TIP3   OH222988   1.870   6.188   6.173
 7682TIP3    H122989   1.899   6.247   6.103
 7682TIP3    H222990   1.951   6.161   6.215
 7683TIP3   OH222991   6.441   5.288   2.036
 7683TIP3    H122992   6.385   5.228   2.086
 7683TIP3    H222993   6.380   5.349   1.996
 7684TIP3   OH222994   1.502   4.742   3.468
 7684TIP3    H122995   1.437   4.804   3.433
 7684TIP3    H222996   1.544   4.788   3.540
 7685TIP3   OH222997   4.357   3.384   4.607
 7685TIP3    H122998   4.442   3.399   4.650
 7685TIP3    H222999   4.370   3.303   4.556
 7686TIP3   OH223000   1.187   3.266   0.729
 7686TIP3    H123001   1.197   3.327   0.801
 7686TIP3    H223002   1.179   3.322   0.651
 7687TIP3   OH223003   6.995   1.174   1.496
 7687TIP3    H123004   7.054   1.163   1.421
 7687TIP3    H223005   6.931   1.239   1.467
 7688TIP3   OH223006   1.915   3.558   5.817
 7688TIP3    H123007   2.011   3.568   5.821
 7688TIP3    H223008   1.900   3.467   5.845
 7689TIP3   OH223009   4.367   5.773   0.156
 7689TIP3    H123010   4.447   5.817   0.184
 7689TIP3    H223011   4.317   5.762   0.237
 7690TIP3   OH223012   2.863   6.524   0.330
 7690TIP3    H123013   2.804   6.595   0.356
 7690TIP3    H223014   2.932   6.525   0.396
 7691TIP3   OH223015   1.587   6.027   0.801
 7691TIP3    H123016   1.628   6.112   0.820
 7691TIP3    H223017   1.570   5.989   0.888
 7692TIP3   OH223018   2.910   4.404   3.559
 7692TIP3    H123019   2.902   4.453   3.641
 7692TIP3    H223020   2.909   4.312   3.586
 7693TIP3   OH223021   5.514   2.828   2.661
 7693TIP3    H123022   5.597   2.784   2.682
 7693TIP3    H223023   5.522   2.914   2.702
 7694TIP3   OH223024   3.006   4.505   3.102
 7694TIP3    H123025   2.912   4.513   3.088
 7694TIP3    H223026   3.032   4.589   3.139
 7695TIP3   OH223027   3.208   0.375   4.299
 7695TIP3    H123028   3.122   0.353   4.336
 7695TIP3    H223029   3.255   0.417   4.371
 7696TIP3   OH223030   4.226   7.258   2.732
 7696TIP3    H123031   4.195   7.332   2.681
 7696TIP3    H223032   4.284   7.210   2.673
 7697TIP3   OH223033   2.606   4.343   2.635
 7697TIP3    H123034   2.668   4.270   2.645
 7697TIP3    H223035   2.613   4.368   2.543
 7698TIP3   OH223036   2.684   4.694   4.155
 7698TIP3    H123037   2.771   4.659   4.175
 7698TIP3    H223038   2.695   4.742   4.073
 7699TIP3   OH223039   2.095   5.002   2.950
 7699TIP3    H123040   2.126   4.953   3.026
 7699TIP3    H223041   2.021   5.053   2.983
 7700TIP3   OH223042   1.205   4.130   1.788
 7700TIP3    H123043   1.285   4.170   1.822
 7700TIP3    H223044   1.135   4.166   1.842
 7701TIP3   OH223045   1.660   7.116   5.514
 7701TIP3    H123046   1.724   7.061   5.467
 7701TIP3    H223047   1.606   7.155   5.445
 7702TIP3   OH223048   4.143   7.101   0.721
 7702TIP3    H123049   4.091   7.179   0.702
 7702TIP3    H223050   4.175   7.114   0.810
 7703TIP3   OH223051   0.129   3.893   2.159
 7703TIP3    H123052   0.144   3.920   2.068
 7703TIP3    H223053   0.144   3.973   2.210
 7704TIP3   OH223054   1.078   3.351   2.902
 7704TIP3    H123055   1.085   3.259   2.929
 7704TIP3    H223056   0.984   3.366   2.894
 7705TIP3   OH223057   2.832   4.173   0.509
 7705TIP3    H123058   2.745   4.203   0.481
 7705TIP3    H223059   2.858   4.236   0.576
 7706TIP3   OH223060   7.846   7.746   0.061
 7706TIP3    H123061   7.882   7.822   0.017
 7706TIP3    H223062   7.758   7.773   0.088
 7707TIP3   OH223063   2.102   1.356   0.665
 7707TIP3    H123064   2.111   1.373   0.571
 7707TIP3    H223065   2.098   1.261   0.672
 7708TIP3   OH223066   3.586   0.057   0.364
 7708TIP3    H123067   3.660   0.014   0.408
 7708TIP3    H223068   3.596   0.149   0.385
 7709TIP3   OH223069   6.074   1.047   6.429
 7709TIP3    H123070   6.160   1.006   6.425
 7709TIP3    H223071   6.070   1.087   6.516
 7710TIP3   OH223072   1.681   7.252   4.836
 7710TIP3    H123073   1.643   7.171   4.800
 7710TIP3    H223074   1.764   7.262   4.788
 7711TIP3   OH223075   7.917   0.618   0.849
 7711TIP3    H123076   7.921   0.611   0.753
 7711TIP3    H223077   7.991   0.566   0.880
 7712TIP3   OH223078   4.953   2.456   0.525
 7712TIP3    H123079   4.908   2.449   0.609
 7712TIP3    H223080   4.958   2.550   0.507
 7713TIP3   OH223081   7.627   1.043   6.552
 7713TIP3    H123082   7.682   1.015   6.479
 7713TIP3    H223083   7.633   0.971   6.615
 7714TIP3   OH223084   3.839   7.725   3.450
 7714TIP3    H123085   3.815   7.651   3.506
 7714TIP3    H223086   3.928   7.706   3.422
 7715TIP3   OH223087   2.644   1.997   2.822
 7715TIP3    H123088   2.636   2.003   2.918
 7715TIP3    H223089   2.650   1.904   2.804
 7716TIP3   OH223090   1.252   7.446   5.669
 7716TIP3    H123091   1.221   7.525   5.625
 7716TIP3    H223092   1.238   7.462   5.762
 7717TIP3   OH223093   4.522   5.939   1.625
 7717TIP3    H123094   4.547   5.910   1.538
 7717TIP3    H223095   4.569   5.880   1.684
 7718TIP3   OH223096   5.214   7.406   4.214
 7718TIP3    H123097   5.296   7.356   4.211
 7718TIP3    H223098   5.216   7.450   4.299
 7719TIP3   OH223099   3.254   0.046   3.937
 7719TIP3    H123100   3.312   0.113   3.973
 7719TIP3    H223101   3.251  -0.022   4.005
 7720TIP3   OH223102   1.811   0.663   5.064
 7720TIP3    H123103   1.787   0.592   5.123
 7720TIP3    H223104   1.864   0.722   5.118
 7721TIP3   OH223105   2.168   5.756   1.963
 7721TIP3    H123106   2.192   5.815   1.892
 7721TIP3    H223107   2.208   5.795   2.041
 7722TIP3   OH223108   3.460   4.236   6.694
 7722TIP3    H123109   3.467   4.275   6.607
 7722TIP3    H223110   3.503   4.151   6.685
 7723TIP3   OH223111   7.411   6.954   0.046
 7723TIP3    H123112   7.464   6.875   0.038
 7723TIP3    H223113   7.474   7.022   0.070
 7724TIP3   OH223114   7.053   6.955   6.285
 7724TIP3    H123115   7.140   6.945   6.323
 7724TIP3    H223116   7.066   7.011   6.209
 7725TIP3   OH223117   3.883   5.107   5.241
 7725TIP3    H123118   3.856   5.165   5.169
 7725TIP3    H223119   3.859   5.156   5.320
 7726TIP3   OH223120   6.515   4.335   4.513
 7726TIP3    H123121   6.446   4.377   4.565
 7726TIP3    H223122   6.575   4.406   4.491
 7727TIP3   OH223123   5.312   2.749   6.186
 7727TIP3    H123124   5.222   2.742   6.217
 7727TIP3    H223125   5.305   2.750   6.091
 7728TIP3   OH223126   3.307   4.096   0.717
 7728TIP3    H123127   3.212   4.094   0.707
 7728TIP3    H223128   3.325   4.182   0.756
 7729TIP3   OH223129   7.338   0.505   4.565
 7729TIP3    H123130   7.321   0.599   4.570
 7729TIP3    H223131   7.382   0.484   4.647
 7730TIP3   OH223132   4.567   6.553   2.464
 7730TIP3    H123133   4.512   6.630   2.448
 7730TIP3    H223134   4.628   6.552   2.391
 7731TIP3   OH223135   5.803   4.194   4.384
 7731TIP3    H123136   5.886   4.231   4.353
 7731TIP3    H223137   5.784   4.124   4.322
 7732TIP3   OH223138   5.086   4.066   2.715
 7732TIP3    H123139   5.092   4.032   2.804
 7732TIP3    H223140   5.169   4.042   2.674
 7733TIP3   OH223141   1.985   5.291   2.579
 7733TIP3    H123142   1.907   5.236   2.588
 7733TIP3    H223143   2.052   5.246   2.630
 7734TIP3   OH223144   3.311   1.102   4.992
 7734TIP3    H123145   3.357   1.167   5.043
 7734TIP3    H223146   3.354   1.019   5.013
 7735TIP3   OH223147   8.062   3.646   4.999
 7735TIP3    H123148   8.104   3.707   4.939
 7735TIP3    H223149   8.051   3.696   5.080
 7736TIP3   OH223150   1.870   0.032   0.285
 7736TIP3    H123151   1.880   0.127   0.295
 7736TIP3    H223152   1.790   0.012   0.334
 7737TIP3   OH223153   7.444   2.553   2.511
 7737TIP3    H123154   7.448   2.619   2.580
 7737TIP3    H223155   7.451   2.603   2.429
 7738TIP3   OH223156   0.794   4.367   2.696
 7738TIP3    H123157   0.778   4.458   2.723
 7738TIP3    H223158   0.799   4.318   2.778
 7739TIP3   OH223159   5.837   7.062   1.346
 7739TIP3    H123160   5.767   6.996   1.344
 7739TIP3    H223161   5.844   7.092   1.256
 7740TIP3   OH223162   2.038   4.304   0.465
 7740TIP3    H123163   2.021   4.285   0.372
 7740TIP3    H223164   2.112   4.248   0.488
 7741TIP3   OH223165   6.373   5.575   2.301
 7741TIP3    H123166   6.296   5.541   2.255
 7741TIP3    H223167   6.399   5.652   2.251
 7742TIP3   OH223168   4.813   0.143   1.520
 7742TIP3    H123169   4.832   0.154   1.427
 7742TIP3    H223170   4.758   0.064   1.523
 7743TIP3   OH223171   6.847   5.171   5.270
 7743TIP3    H123172   6.789   5.114   5.219
 7743TIP3    H223173   6.788   5.224   5.324
 7744TIP3   OH223174   3.048   5.688   4.906
 7744TIP3    H123175   3.072   5.775   4.939
 7744TIP3    H223176   2.958   5.698   4.875
 7745TIP3   OH223177   4.604   2.444   2.890
 7745TIP3    H123178   4.646   2.462   2.807
 7745TIP3    H223179   4.666   2.388   2.937
 7746TIP3   OH223180   5.058   3.491   3.447
 7746TIP3    H123181   5.012   3.467   3.366
 7746TIP3    H223182   4.990   3.526   3.504
 7747TIP3   OH223183   5.924   2.321   3.663
 7747TIP3    H123184   5.897   2.404   3.625
 7747TIP3    H223185   5.845   2.266   3.657
 7748TIP3   OH223186   5.846   2.592   3.625
 7748TIP3    H123187   5.784   2.643   3.677
 7748TIP3    H223188   5.852   2.640   3.542
 7749TIP3   OH223189   5.390   6.578   0.821
 7749TIP3    H123190   5.390   6.533   0.906
 7749TIP3    H223191   5.373   6.509   0.758
 7750TIP3   OH223192   5.713   3.966   2.855
 7750TIP3    H123193   5.748   4.051   2.828
 7750TIP3    H223194   5.668   3.932   2.778
 7751TIP3   OH223195   3.294   6.413   6.155
 7751TIP3    H123196   3.327   6.355   6.086
 7751TIP3    H223197   3.367   6.474   6.171
 7752TIP3   OH223198   5.260   6.466   6.018
 7752TIP3    H123199   5.296   6.495   6.102
 7752TIP3    H223200   5.220   6.545   5.981
 7753TIP3   OH223201   2.333   4.698   3.755
 7753TIP3    H123202   2.349   4.605   3.736
 7753TIP3    H223203   2.378   4.714   3.838
 7754TIP3   OH223204   5.216   5.155   5.160
 7754TIP3    H123205   5.163   5.218   5.210
 7754TIP3    H223206   5.294   5.205   5.134
 7755TIP3   OH223207   4.237   2.134   2.418
 7755TIP3    H123208   4.217   2.093   2.502
 7755TIP3    H223209   4.157   2.123   2.367
 7756TIP3   OH223210   0.901   0.550   1.156
 7756TIP3    H123211   0.948   0.571   1.076
 7756TIP3    H223212   0.809   0.557   1.133
 7757TIP3   OH223213   0.350   3.996   5.252
 7757TIP3    H123214   0.309   4.063   5.198
 7757TIP3    H223215   0.396   4.045   5.320
 7758TIP3   OH223216   3.886   4.620   3.031
 7758TIP3    H123217   3.969   4.639   2.987
 7758TIP3    H223218   3.908   4.555   3.097
 7759TIP3   OH223219   1.408   5.454   5.370
 7759TIP3    H123220   1.413   5.376   5.314
 7759TIP3    H223221   1.324   5.445   5.415
 7760TIP3   OH223222   5.815   4.276   0.988
 7760TIP3    H123223   5.823   4.303   0.896
 7760TIP3    H223224   5.906   4.276   1.020
 7761TIP3   OH223225   4.441   7.656   4.323
 7761TIP3    H123226   4.395   7.729   4.364
 7761TIP3    H223227   4.438   7.676   4.229
 7762TIP3   OH223228   6.162   0.427   4.905
 7762TIP3    H123229   6.151   0.396   4.995
 7762TIP3    H223230   6.254   0.407   4.885
 7763TIP3   OH223231   6.675   5.088   3.358
 7763TIP3    H123232   6.751   5.135   3.322
 7763TIP3    H223233   6.713   5.008   3.395
 7764TIP3   OH223234   5.033   2.381   4.696
 7764TIP3    H123235   4.997   2.470   4.694
 7764TIP3    H223236   5.106   2.384   4.635
 7765TIP3   OH223237   1.901   2.336   0.552
 7765TIP3    H123238   1.853   2.253   0.550
 7765TIP3    H223239   1.908   2.357   0.645
 7766TIP3   OH223240   5.640   3.336   5.970
 7766TIP3    H123241   5.579   3.406   5.947
 7766TIP3    H223242   5.593   3.255   5.951
 7767TIP3   OH223243   7.216   4.686   0.625
 7767TIP3    H123244   7.137   4.671   0.677
 7767TIP3    H223245   7.288   4.679   0.688
 7768TIP3   OH223246   1.989   5.125   1.076
 7768TIP3    H123247   1.992   5.039   1.118
 7768TIP3    H223248   1.989   5.106   0.982
 7769TIP3   OH223249   7.680   0.242   3.290
 7769TIP3    H123250   7.723   0.287   3.218
 7769TIP3    H223251   7.717   0.281   3.369
 7770TIP3   OH223252   8.091   5.900   2.410
 7770TIP3    H123253   8.145   5.834   2.366
 7770TIP3    H223254   8.074   5.965   2.343
 7771TIP3   OH223255   6.042   0.353   4.430
 7771TIP3    H123256   6.007   0.355   4.341
 7771TIP3    H223257   5.965   0.364   4.486
 7772TIP3   OH223258   4.478   5.074   4.643
 7772TIP3    H123259   4.522   4.989   4.653
 7772TIP3    H223260   4.519   5.113   4.565
 7773TIP3   OH223261   7.413   4.368   3.450
 7773TIP3    H123262   7.350   4.363   3.522
 7773TIP3    H223263   7.461   4.449   3.465
 7774TIP3   OH223264   5.625   7.345   5.670
 7774TIP3    H123265   5.648   7.252   5.661
 7774TIP3    H223266   5.539   7.344   5.712
 7775TIP3   OH223267   7.975   6.796   4.039
 7775TIP3    H123268   7.932   6.807   4.124
 7775TIP3    H223269   7.908   6.818   3.975
 7776TIP3   OH223270   0.994   5.352   6.128
 7776TIP3    H123271   0.981   5.282   6.063
 7776TIP3    H223272   0.906   5.384   6.145
 7777TIP3   OH223273   1.623   5.553   1.353
 7777TIP3    H123274   1.666   5.468   1.358
 7777TIP3    H223275   1.681   5.613   1.400
 7778TIP3   OH223276   5.628   0.773   5.513
 7778TIP3    H123277   5.690   0.839   5.544
 7778TIP3    H223278   5.661   0.690   5.549
 7779TIP3   OH223279   1.701   5.053   0.687
 7779TIP3    H123280   1.646   5.114   0.638
 7779TIP3    H223281   1.643   5.018   0.755
 7780TIP3   OH223282   2.492   2.601   5.889
 7780TIP3    H123283   2.423   2.606   5.955
 7780TIP3    H223284   2.486   2.684   5.842
 7781TIP3   OH223285   4.460   7.279   1.605
 7781TIP3    H123286   4.457   7.370   1.577
 7781TIP3    H223287   4.553   7.257   1.604
 7782TIP3   OH223288   4.534   4.879   4.950
 7782TIP3    H123289   4.512   4.931   5.028
 7782TIP3    H223290   4.451   4.864   4.907
 7783TIP3   OH223291   2.560   3.482   2.925
 7783TIP3    H123292   2.581   3.394   2.958
 7783TIP3    H223293   2.500   3.466   2.853
 7784TIP3   OH223294   4.530   4.206   0.734
 7784TIP3    H123295   4.502   4.120   0.766
 7784TIP3    H223296   4.449   4.246   0.702
 7785TIP3   OH223297   0.866   2.215   3.728
 7785TIP3    H123298   0.959   2.219   3.706
 7785TIP3    H223299   0.821   2.243   3.648
 7786TIP3   OH223300   0.605   2.218   2.492
 7786TIP3    H123301   0.636   2.135   2.455
 7786TIP3    H223302   0.552   2.257   2.422
 7787TIP3   OH223303   2.836   3.742   0.704
 7787TIP3    H123304   2.901   3.679   0.734
 7787TIP3    H223305   2.848   3.747   0.610
 7788TIP3   OH223306   6.028   3.906   5.200
 7788TIP3    H123307   5.978   3.986   5.215
 7788TIP3    H223308   6.037   3.867   5.287
 7789TIP3   OH223309   3.748   4.698   2.770
 7789TIP3    H123310   3.745   4.751   2.850
 7789TIP3    H223311   3.755   4.608   2.801
 7790TIP3   OH223312   5.715   4.726   5.085
 7790TIP3    H123313   5.687   4.812   5.115
 7790TIP3    H223314   5.781   4.699   5.148
 7791TIP3   OH223315   2.144   2.793   1.611
 7791TIP3    H123316   2.099   2.709   1.606
 7791TIP3    H223317   2.236   2.770   1.626
 7792TIP3   OH223318   6.150   2.996   5.310
 7792TIP3    H123319   6.062   2.969   5.285
 7792TIP3    H223320   6.138   3.080   5.354
 7793TIP3   OH223321   3.263   6.907   3.919
 7793TIP3    H123322   3.182   6.951   3.947
 7793TIP3    H223323   3.299   6.870   3.999
 7794TIP3   OH223324   1.892   3.462   2.905
 7794TIP3    H123325   1.909   3.433   2.816
 7794TIP3    H223326   1.825   3.402   2.938
 7795TIP3   OH223327   5.010   5.341   6.013
 7795TIP3    H123328   5.028   5.249   6.031
 7795TIP3    H223329   5.004   5.382   6.099
 7796TIP3   OH223330   0.872   2.893   3.680
 7796TIP3    H123331   0.852   2.902   3.773
 7796TIP3    H223332   0.954   2.842   3.678
 7797TIP3   OH223333   3.459   0.682   6.556
 7797TIP3    H123334   3.549   0.654   6.575
 7797TIP3    H223335   3.468   0.770   6.521
 7798TIP3   OH223336   2.541   0.188   0.869
 7798TIP3    H123337   2.543   0.227   0.956
 7798TIP3    H223338   2.632   0.194   0.838
 7799TIP3   OH223339   2.951   3.911   2.467
 7799TIP3    H123340   2.994   3.995   2.486
 7799TIP3    H223341   2.999   3.877   2.391
 7800TIP3   OH223342   4.737   4.615   6.668
 7800TIP3    H123343   4.802   4.546   6.679
 7800TIP3    H223344   4.669   4.575   6.614
 7801TIP3   OH223345   3.089   7.169   5.275
 7801TIP3    H123346   3.139   7.127   5.345
 7801TIP3    H223347   3.060   7.096   5.219
 7802TIP3   OH223348   8.114   1.729   0.539
 7802TIP3    H123349   8.048   1.755   0.474
 7802TIP3    H223350   8.110   1.796   0.606
 7803TIP3   OH223351   6.084   6.593   4.430
 7803TIP3    H123352   6.122   6.660   4.486
 7803TIP3    H223353   6.093   6.512   4.481
 7804TIP3   OH223354   4.714   5.481   3.861
 7804TIP3    H123355   4.674   5.441   3.938
 7804TIP3    H223356   4.754   5.562   3.893
 7805TIP3   OH223357   6.132   5.049   5.610
 7805TIP3    H123358   6.144   5.121   5.672
 7805TIP3    H223359   6.038   5.030   5.613
 7806TIP3   OH223360   3.732   2.416   2.524
 7806TIP3    H123361   3.687   2.442   2.444
 7806TIP3    H223362   3.719   2.491   2.583
 7807TIP3   OH223363   0.156   1.789   1.989
 7807TIP3    H123364   0.140   1.867   1.937
 7807TIP3    H223365   0.090   1.792   2.059
 7808TIP3   OH223366   7.452   5.766   4.450
 7808TIP3    H123367   7.376   5.707   4.445
 7808TIP3    H223368   7.442   5.823   4.374
 7809TIP3   OH223369   8.156   3.319   0.232
 7809TIP3    H123370   8.178   3.392   0.291
 7809TIP3    H223371   8.233   3.262   0.236
 7810TIP3   OH223372   1.935   4.807   0.863
 7810TIP3    H123373   1.932   4.749   0.787
 7810TIP3    H223374   1.939   4.895   0.826
 7811TIP3   OH223375   5.069   0.801   3.243
 7811TIP3    H123376   4.996   0.741   3.259
 7811TIP3    H223377   5.122   0.757   3.177
 7812TIP3   OH223378   6.992   6.242   2.733
 7812TIP3    H123379   7.039   6.313   2.690
 7812TIP3    H223380   7.032   6.236   2.820
 7813TIP3   OH223381   6.606   5.294   2.300
 7813TIP3    H123382   6.562   5.309   2.216
 7813TIP3    H223383   6.667   5.222   2.283
 7814TIP3   OH223384   0.784   1.095   6.453
 7814TIP3    H123385   0.858   1.152   6.473
 7814TIP3    H223386   0.751   1.067   6.539
 7815TIP3   OH223387   0.345   7.102   0.959
 7815TIP3    H123388   0.279   7.153   1.007
 7815TIP3    H223389   0.297   7.025   0.929
 7816TIP3   OH223390   0.266   2.243   5.510
 7816TIP3    H123391   0.187   2.294   5.490
 7816TIP3    H223392   0.235   2.153   5.520
 7817TIP3   OH223393   2.556   6.234   3.461
 7817TIP3    H123394   2.550   6.328   3.446
 7817TIP3    H223395   2.465   6.204   3.462
 7818TIP3   OH223396   6.213   1.847   5.105
 7818TIP3    H123397   6.296   1.803   5.122
 7818TIP3    H223398   6.173   1.795   5.035
 7819TIP3   OH223399   3.414   0.111   5.727
 7819TIP3    H123400   3.331   0.154   5.744
 7819TIP3    H223401   3.480   0.180   5.739
 7820TIP3   OH223402   2.208   2.867   4.038
 7820TIP3    H123403   2.225   2.946   4.090
 7820TIP3    H223404   2.255   2.881   3.957
 7821TIP3   OH223405   2.398   6.685   6.291
 7821TIP3    H123406   2.412   6.756   6.229
 7821TIP3    H223407   2.442   6.714   6.371
 7822TIP3   OH223408   0.586   5.003   6.044
 7822TIP3    H123409   0.533   4.936   6.002
 7822TIP3    H223410   0.536   5.084   6.032
 7823TIP3   OH223411   5.660   5.676   5.180
 7823TIP3    H123412   5.662   5.598   5.236
 7823TIP3    H223413   5.745   5.717   5.194
 7824TIP3   OH223414   6.567   3.293   4.288
 7824TIP3    H123415   6.606   3.252   4.364
 7824TIP3    H223416   6.551   3.384   4.314
 7825TIP3   OH223417   1.800   5.609   3.896
 7825TIP3    H123418   1.744   5.666   3.843
 7825TIP3    H223419   1.889   5.632   3.869
 7826TIP3   OH223420   1.198   6.507   3.533
 7826TIP3    H123421   1.151   6.450   3.473
 7826TIP3    H223422   1.221   6.450   3.607
 7827TIP3   OH223423   7.434   3.501   3.409
 7827TIP3    H123424   7.494   3.441   3.365
 7827TIP3    H223425   7.460   3.497   3.501
 7828TIP3   OH223426   3.138   4.720   4.048
 7828TIP3    H123427   3.204   4.661   4.012
 7828TIP3    H223428   3.083   4.665   4.104
 7829TIP3   OH223429   4.025   0.213   3.049
 7829TIP3    H123430   4.005   0.157   3.124
 7829TIP3    H223431   4.114   0.188   3.023
 7830TIP3   OH223432   4.264   2.844   5.670
 7830TIP3    H123433   4.195   2.791   5.709
 7830TIP3    H223434   4.271   2.813   5.580
 7831TIP3   OH223435   2.883   1.961   0.697
 7831TIP3    H123436   2.977   1.974   0.683
 7831TIP3    H223437   2.857   2.034   0.753
 7832TIP3   OH223438   3.922   6.216   2.920
 7832TIP3    H123439   3.900   6.154   2.851
 7832TIP3    H223440   3.889   6.175   3.000
 7833TIP3   OH223441   7.117   5.203   4.358
 7833TIP3    H123442   7.154   5.117   4.380
 7833TIP3    H223443   7.190   5.251   4.319
 7834TIP3   OH223444   1.413   7.067   0.694
 7834TIP3    H123445   1.435   7.000   0.629
 7834TIP3    H223446   1.439   7.149   0.652
 7835TIP3   OH223447   6.846   2.016   4.749
 7835TIP3    H123448   6.785   1.943   4.745
 7835TIP3    H223449   6.887   2.020   4.663
 7836TIP3   OH223450   0.404   5.773   3.594
 7836TIP3    H123451   0.411   5.858   3.636
 7836TIP3    H223452   0.434   5.787   3.504
 7837TIP3   OH223453   2.903   4.074   0.941
 7837TIP3    H123454   2.891   3.981   0.959
 7837TIP3    H223455   2.818   4.103   0.909
 7838TIP3   OH223456   7.699   3.438   0.686
 7838TIP3    H123457   7.654   3.477   0.761
 7838TIP3    H223458   7.658   3.352   0.675
 7839TIP3   OH223459   7.348   5.438   3.491
 7839TIP3    H123460   7.355   5.361   3.548
 7839TIP3    H223461   7.436   5.474   3.489
 7840TIP3   OH223462   3.747   7.560   2.202
 7840TIP3    H123463   3.670   7.615   2.184
 7840TIP3    H223464   3.725   7.476   2.162
 7841TIP3   OH223465   3.577   2.937   3.213
 7841TIP3    H123466   3.610   3.024   3.191
 7841TIP3    H223467   3.625   2.913   3.292
 7842TIP3   OH223468   1.566   2.574   4.238
 7842TIP3    H123469   1.495   2.515   4.262
 7842TIP3    H223470   1.567   2.640   4.308
 7843TIP3   OH223471   0.163   2.388   5.122
 7843TIP3    H123472   0.225   2.319   5.100
 7843TIP3    H223473   0.078   2.343   5.128
 7844TIP3   OH223474   5.353   0.870   5.446
 7844TIP3    H123475   5.344   0.827   5.531
 7844TIP3    H223476   5.448   0.875   5.431
 7845TIP3   OH223477   6.135   1.016   0.184
 7845TIP3    H123478   6.153   0.924   0.165
 7845TIP3    H223479   6.080   1.014   0.262
 7846TIP3   OH223480   5.670   0.946   0.031
 7846TIP3    H123481   5.588   0.946   0.081
 7846TIP3    H223482   5.670   1.030  -0.015
 7847TIP3   OH223483   5.481   5.324   1.398
 7847TIP3    H123484   5.495   5.262   1.470
 7847TIP3    H223485   5.418   5.280   1.341
 7848TIP3   OH223486   4.482   0.652   1.509
 7848TIP3    H123487   4.464   0.671   1.417
 7848TIP3    H223488   4.541   0.576   1.506
 7849TIP3   OH223489   8.239   0.453   4.017
 7849TIP3    H123490   8.194   0.414   4.092
 7849TIP3    H223491   8.237   0.547   4.033
 7850TIP3   OH223492   1.999   4.237   1.223
 7850TIP3    H123493   1.997   4.333   1.222
 7850TIP3    H223494   2.077   4.215   1.274
 7851TIP3   OH223495   4.302   0.376   5.685
 7851TIP3    H123496   4.341   0.453   5.727
 7851TIP3    H223497   4.227   0.354   5.741
 7852TIP3   OH223498   2.173   4.867   4.601
 7852TIP3    H123499   2.242   4.871   4.535
 7852TIP3    H223500   2.140   4.778   4.595
 7853TIP3   OH223501   1.042   6.921   5.463
 7853TIP3    H123502   1.095   6.875   5.528
 7853TIP3    H223503   1.054   6.871   5.383
 7854TIP3   OH223504   4.408   0.147   5.852
 7854TIP3    H123505   4.410   0.233   5.810
 7854TIP3    H223506   4.318   0.138   5.883
 7855TIP3   OH223507   0.513   4.907   4.097
 7855TIP3    H123508   0.552   4.895   4.011
 7855TIP3    H223509   0.559   4.845   4.153
 7856TIP3   OH223510   1.459   4.602   3.744
 7856TIP3    H123511   1.450   4.656   3.666
 7856TIP3    H223512   1.490   4.518   3.712
 7857TIP3   OH223513   7.430   4.777   1.957
 7857TIP3    H123514   7.432   4.811   1.868
 7857TIP3    H223515   7.484   4.698   1.954
 7858TIP3   OH223516   1.312   5.049   3.646
 7858TIP3    H123517   1.271   5.030   3.562
 7858TIP3    H223518   1.248   5.103   3.693
 7859TIP3   OH223519   4.819   7.139   1.990
 7859TIP3    H123520   4.848   7.060   2.036
 7859TIP3    H223521   4.796   7.200   2.060
 7860TIP3   OH223522   1.336   4.783   5.329
 7860TIP3    H123523   1.369   4.708   5.377
 7860TIP3    H223524   1.240   4.774   5.334
 7861TIP3   OH223525   4.117   4.739   2.341
 7861TIP3    H123526   4.106   4.657   2.292
 7861TIP3    H223527   4.212   4.748   2.352
 7862TIP3   OH223528   6.738   2.601   1.138
 7862TIP3    H123529   6.725   2.696   1.145
 7862TIP3    H223530   6.714   2.567   1.224
 7863TIP3   OH223531   5.439   7.247   4.221
 7863TIP3    H123532   5.450   7.220   4.129
 7863TIP3    H223533   5.523   7.226   4.262
 7864TIP3   OH223534   2.733   1.567   6.717
 7864TIP3    H123535   2.728   1.538   6.626
 7864TIP3    H223536   2.642   1.584   6.742
 7865TIP3   OH223537   5.716   5.451   0.955
 7865TIP3    H123538   5.731   5.484   0.866
 7865TIP3    H223539   5.799   5.412   0.981
 7866TIP3   OH223540   1.316   3.365   5.127
 7866TIP3    H123541   1.374   3.328   5.193
 7866TIP3    H223542   1.275   3.290   5.085
 7867TIP3   OH223543   0.845   2.250   4.789
 7867TIP3    H123544   0.857   2.155   4.785
 7867TIP3    H223545   0.751   2.262   4.803
 7868TIP3   OH223546   1.839   3.648   4.781
 7868TIP3    H123547   1.894   3.571   4.765
 7868TIP3    H223548   1.900   3.721   4.780
 7869TIP3   OH223549   6.388   0.292   4.040
 7869TIP3    H123550   6.418   0.236   3.968
 7869TIP3    H223551   6.468   0.323   4.082
 7870TIP3   OH223552   0.859   5.107   3.264
 7870TIP3    H123553   0.807   5.029   3.281
 7870TIP3    H223554   0.878   5.143   3.350
 7871TIP3   OH223555   7.737   6.859   6.330
 7871TIP3    H123556   7.765   6.879   6.419
 7871TIP3    H223557   7.803   6.900   6.274
 7872TIP3   OH223558   3.276   1.575   4.537
 7872TIP3    H123559   3.222   1.540   4.608
 7872TIP3    H223560   3.337   1.504   4.516
 7873TIP3   OH223561   6.660   1.570   4.284
 7873TIP3    H123562   6.593   1.530   4.340
 7873TIP3    H223563   6.689   1.647   4.332
 7874TIP3   OH223564   3.675   2.045   5.427
 7874TIP3    H123565   3.668   1.954   5.458
 7874TIP3    H223566   3.585   2.076   5.426
 7875TIP3   OH223567   5.410   1.183   1.029
 7875TIP3    H123568   5.315   1.184   1.018
 7875TIP3    H223569   5.442   1.247   0.966
 7876TIP3   OH223570   2.060   3.805   4.769
 7876TIP3    H123571   2.148   3.770   4.771
 7876TIP3    H223572   2.049   3.846   4.855
 7877TIP3   OH223573   4.492   5.003   2.614
 7877TIP3    H123574   4.465   4.911   2.618
 7877TIP3    H223575   4.411   5.050   2.592
 7878TIP3   OH223576   1.362   7.180   0.270
 7878TIP3    H123577   1.379   7.118   0.199
 7878TIP3    H223578   1.401   7.262   0.240
 7879TIP3   OH223579   5.649   2.406   4.296
 7879TIP3    H123580   5.603   2.487   4.276
 7879TIP3    H223581   5.710   2.429   4.366
 7880TIP3   OH223582   3.783   5.831   2.970
 7880TIP3    H123583   3.847   5.865   3.032
 7880TIP3    H223584   3.768   5.903   2.909
 7881TIP3   OH223585   0.767   7.022   0.674
 7881TIP3    H123586   0.713   7.098   0.695
 7881TIP3    H223587   0.822   7.052   0.602
 7882TIP3   OH223588   7.430   4.905   1.041
 7882TIP3    H123589   7.460   4.972   0.979
 7882TIP3    H223590   7.355   4.945   1.085
 7883TIP3   OH223591   0.512   1.375   3.842
 7883TIP3    H123592   0.603   1.405   3.841
 7883TIP3    H223593   0.517   1.282   3.819
 7884TIP3   OH223594   5.461   6.102   5.403
 7884TIP3    H123595   5.455   6.009   5.380
 7884TIP3    H223596   5.493   6.144   5.323
 7885TIP3   OH223597   4.405   1.011   1.055
 7885TIP3    H123598   4.473   0.968   1.004
 7885TIP3    H223599   4.451   1.071   1.112
 7886TIP3   OH223600   6.589   0.085   4.945
 7886TIP3    H123601   6.517   0.048   4.996
 7886TIP3    H223602   6.590   0.178   4.969
 7887TIP3   OH223603   6.039   4.085   2.257
 7887TIP3    H123604   6.013   4.035   2.334
 7887TIP3    H223605   6.081   4.163   2.294
 7888TIP3   OH223606   0.645   4.328   3.589
 7888TIP3    H123607   0.561   4.288   3.567
 7888TIP3    H223608   0.621   4.404   3.643
 7889TIP3   OH223609   5.169   0.665   2.344
 7889TIP3    H123610   5.108   0.632   2.409
 7889TIP3    H223611   5.252   0.622   2.365
 7890TIP3   OH223612   7.363   3.376   4.885
 7890TIP3    H123613   7.276   3.411   4.867
 7890TIP3    H223614   7.348   3.302   4.944
 7891TIP3   OH223615   1.367   5.348   6.195
 7891TIP3    H123616   1.299   5.283   6.211
 7891TIP3    H223617   1.322   5.419   6.149
 7892TIP3   OH223618   1.802   0.196   3.629
 7892TIP3    H123619   1.725   0.249   3.647
 7892TIP3    H223620   1.783   0.112   3.672
 7893TIP3   OH223621   4.474   7.392   4.483
 7893TIP3    H123622   4.425   7.364   4.405
 7893TIP3    H223623   4.470   7.488   4.480
 7894TIP3   OH223624   6.268   3.677   6.390
 7894TIP3    H123625   6.322   3.601   6.410
 7894TIP3    H223626   6.321   3.730   6.330
 7895TIP3   OH223627   0.260   6.467   3.239
 7895TIP3    H123628   0.201   6.519   3.293
 7895TIP3    H223629   0.340   6.461   3.290
 7896TIP3   OH223630   1.389   0.879   1.525
 7896TIP3    H123631   1.420   0.898   1.613
 7896TIP3    H223632   1.341   0.796   1.533
 7897TIP3   OH223633   7.591   7.638   0.211
 7897TIP3    H123634   7.561   7.714   0.160
 7897TIP3    H223635   7.585   7.666   0.302
 7898TIP3   OH223636   1.671   2.974   2.811
 7898TIP3    H123637   1.742   2.934   2.862
 7898TIP3    H223638   1.592   2.930   2.841
 7899TIP3   OH223639   7.379   1.809   5.270
 7899TIP3    H123640   7.464   1.767   5.265
 7899TIP3    H223641   7.396   1.896   5.305
 7900TIP3   OH223642   3.762   2.423   3.837
 7900TIP3    H123643   3.669   2.432   3.857
 7900TIP3    H223644   3.774   2.472   3.755
 7901TIP3   OH223645   3.260   0.926   5.254
 7901TIP3    H123646   3.328   0.896   5.194
 7901TIP3    H223647   3.186   0.868   5.236
 7902TIP3   OH223648   3.341   5.647   6.273
 7902TIP3    H123649   3.268   5.586   6.274
 7902TIP3    H223650   3.356   5.668   6.365
 7903TIP3   OH223651   6.661   0.800   1.822
 7903TIP3    H123652   6.739   0.745   1.813
 7903TIP3    H223653   6.661   0.828   1.913
 7904TIP3   OH223654   2.815   4.177   2.586
 7904TIP3    H123655   2.874   4.174   2.661
 7904TIP3    H223656   2.874   4.184   2.510
 7905TIP3   OH223657   7.280   7.601   0.533
 7905TIP3    H123658   7.236   7.574   0.613
 7905TIP3    H223659   7.281   7.697   0.537
 7906TIP3   OH223660   2.839   1.990   3.324
 7906TIP3    H123661   2.909   1.924   3.318
 7906TIP3    H223662   2.828   2.005   3.417
 7907TIP3   OH223663   4.732   5.185   0.379
 7907TIP3    H123664   4.786   5.108   0.399
 7907TIP3    H223665   4.737   5.239   0.458
 7908TIP3   OH223666   1.095   6.897   3.161
 7908TIP3    H123667   1.025   6.834   3.175
 7908TIP3    H223668   1.143   6.898   3.244
 7909TIP3   OH223669   4.018   6.195   2.388
 7909TIP3    H123670   4.056   6.120   2.434
 7909TIP3    H223671   3.927   6.198   2.418
 7910TIP3   OH223672   3.017   6.503   0.562
 7910TIP3    H123673   3.082   6.437   0.586
 7910TIP3    H223674   2.959   6.508   0.638
 7911TIP3   OH223675   7.265   5.938   6.318
 7911TIP3    H123676   7.259   6.003   6.388
 7911TIP3    H223677   7.327   5.976   6.256
 7912TIP3   OH223678   3.608   1.340   1.241
 7912TIP3    H123679   3.533   1.298   1.283
 7912TIP3    H223680   3.582   1.432   1.231
 7913TIP3   OH223681   3.740   1.526   2.262
 7913TIP3    H123682   3.688   1.605   2.277
 7913TIP3    H223683   3.824   1.545   2.303
 7914TIP3   OH223684   8.109   6.604   5.417
 7914TIP3    H123685   8.048   6.593   5.343
 7914TIP3    H223686   8.059   6.576   5.493
 7915TIP3   OH223687   5.172   1.184   0.593
 7915TIP3    H123688   5.092   1.207   0.640
 7915TIP3    H223689   5.151   1.198   0.501
 7916TIP3   OH223690   7.375   3.369   1.892
 7916TIP3    H123691   7.395   3.451   1.847
 7916TIP3    H223692   7.289   3.382   1.931
 7917TIP3   OH223693   2.084   4.421   4.263
 7917TIP3    H123694   2.115   4.376   4.185
 7917TIP3    H223695   2.162   4.462   4.300
 7918TIP3   OH223696   0.874   7.537   2.372
 7918TIP3    H123697   0.949   7.497   2.328
 7918TIP3    H223698   0.862   7.486   2.452
 7919TIP3   OH223699   7.838   5.262   1.447
 7919TIP3    H123700   7.774   5.258   1.376
 7919TIP3    H223701   7.795   5.219   1.520
 7920TIP3   OH223702   6.343   3.660   2.542
 7920TIP3    H123703   6.292   3.703   2.611
 7920TIP3    H223704   6.427   3.639   2.583
 7921TIP3   OH223705   7.488   6.616   1.658
 7921TIP3    H123706   7.492   6.662   1.574
 7921TIP3    H223707   7.468   6.685   1.721
 7922TIP3   OH223708   1.814   1.760   5.801
 7922TIP3    H123709   1.792   1.832   5.861
 7922TIP3    H223710   1.730   1.732   5.766
 7923TIP3   OH223711   2.841   0.539   1.826
 7923TIP3    H123712   2.891   0.605   1.873
 7923TIP3    H223713   2.750   0.557   1.848
 7924TIP3   OH223714   4.861   1.674   2.106
 7924TIP3    H123715   4.816   1.678   2.021
 7924TIP3    H223716   4.803   1.620   2.161
 7925TIP3   OH223717   7.321   1.838   4.780
 7925TIP3    H123718   7.311   1.887   4.862
 7925TIP3    H223719   7.341   1.905   4.715
 7926TIP3   OH223720   3.857   4.095   0.443
 7926TIP3    H123721   3.765   4.114   0.459
 7926TIP3    H223722   3.904   4.169   0.481
 7927TIP3   OH223723   3.646   6.271   3.606
 7927TIP3    H123724   3.705   6.342   3.578
 7927TIP3    H223725   3.702   6.194   3.614
 7928TIP3   OH223726   4.282   2.743   6.203
 7928TIP3    H123727   4.191   2.757   6.175
 7928TIP3    H223728   4.327   2.717   6.123
 7929TIP3   OH223729   6.318   3.195   2.086
 7929TIP3    H123730   6.289   3.111   2.050
 7929TIP3    H223731   6.244   3.228   2.136
 7930TIP3   OH223732   6.223   1.855   0.749
 7930TIP3    H123733   6.195   1.767   0.726
 7930TIP3    H223734   6.146   1.895   0.790
 7931TIP3   OH223735   2.045   7.589   5.430
 7931TIP3    H123736   2.057   7.673   5.385
 7931TIP3    H223737   2.056   7.610   5.523
 7932TIP3   OH223738   0.048   4.729   4.148
 7932TIP3    H123739   0.013   4.817   4.155
 7932TIP3    H223740   0.030   4.689   4.233
 7933TIP3   OH223741   4.427   5.775   3.219
 7933TIP3    H123742   4.365   5.756   3.290
 7933TIP3    H223743   4.403   5.713   3.150
 7934TIP3   OH223744   1.070   7.032   1.227
 7934TIP3    H123745   1.025   7.053   1.309
 7934TIP3    H223746   1.018   7.075   1.159
 7935TIP3   OH223747   6.455   6.037   3.049
 7935TIP3    H123748   6.513   6.103   3.087
 7935TIP3    H223749   6.372   6.083   3.035
 7936TIP3   OH223750   6.491   3.441   0.513
 7936TIP3    H123751   6.448   3.451   0.598
 7936TIP3    H223752   6.506   3.347   0.504
 7937TIP3   OH223753   2.314  -0.013   2.374
 7937TIP3    H123754   2.410  -0.007   2.370
 7937TIP3    H223755   2.295  -0.032   2.465
 7938TIP3   OH223756   2.412   0.753   2.445
 7938TIP3    H123757   2.462   0.832   2.427
 7938TIP3    H223758   2.366   0.771   2.527
 7939TIP3   OH223759   2.914   4.316   6.058
 7939TIP3    H123760   2.837   4.318   6.116
 7939TIP3    H223761   2.954   4.231   6.074
 7940TIP3   OH223762   8.274   1.268   2.250
 7940TIP3    H123763   8.339   1.285   2.182
 7940TIP3    H223764   8.209   1.338   2.239
 7941TIP3   OH223765   0.320   6.738   3.354
 7941TIP3    H123766   0.340   6.741   3.447
 7941TIP3    H223767   0.224   6.735   3.350
 7942TIP3   OH223768   6.129   2.452   5.309
 7942TIP3    H123769   6.108   2.474   5.218
 7942TIP3    H223770   6.192   2.379   5.302
 7943TIP3   OH223771   5.312   5.736   0.810
 7943TIP3    H123772   5.271   5.664   0.858
 7943TIP3    H223773   5.405   5.714   0.807
 7944TIP3   OH223774   6.064   3.364   1.311
 7944TIP3    H123775   6.037   3.406   1.229
 7944TIP3    H223776   5.984   3.320   1.342
 7945TIP3   OH223777   4.202   6.533   2.455
 7945TIP3    H123778   4.241   6.477   2.388
 7945TIP3    H223779   4.115   6.553   2.421
 7946TIP3   OH223780   6.302   6.454   1.184
 7946TIP3    H123781   6.214   6.478   1.214
 7946TIP3    H223782   6.317   6.511   1.108
 7947TIP3   OH223783   8.172   7.113   5.909
 7947TIP3    H123784   8.079   7.103   5.888
 7947TIP3    H223785   8.215   7.041   5.862
 7948TIP3   OH223786   2.314   1.174   4.443
 7948TIP3    H123787   2.246   1.110   4.466
 7948TIP3    H223788   2.396   1.135   4.473
 7949TIP3   OH223789   6.781   0.084   5.685
 7949TIP3    H123790   6.747   0.125   5.765
 7949TIP3    H223791   6.736   0.129   5.614
 7950TIP3   OH223792   0.361   3.335   3.693
 7950TIP3    H123793   0.295   3.369   3.753
 7950TIP3    H223794   0.392   3.412   3.645
 7951TIP3   OH223795   0.987   3.384   3.616
 7951TIP3    H123796   0.903   3.376   3.660
 7951TIP3    H223797   1.029   3.298   3.629
 7952TIP3   OH223798   7.105   1.076   3.371
 7952TIP3    H123799   7.091   1.008   3.305
 7952TIP3    H223800   7.019   1.090   3.411
 7953TIP3   OH223801   4.663   6.458   4.969
 7953TIP3    H123802   4.729   6.525   4.982
 7953TIP3    H223803   4.709   6.386   4.926
 7954TIP3   OH223804   4.678   0.205   0.147
 7954TIP3    H123805   4.661   0.163   0.063
 7954TIP3    H223806   4.597   0.251   0.168
 7955TIP3   OH223807  -0.036   2.752   5.185
 7955TIP3    H123808   0.049   2.794   5.201
 7955TIP3    H223809  -0.058   2.776   5.095
 7956TIP3   OH223810   2.572   5.881   1.095
 7956TIP3    H123811   2.570   5.892   1.190
 7956TIP3    H223812   2.489   5.838   1.074
 7957TIP3   OH223813   6.161   2.541   4.755
 7957TIP3    H123814   6.116   2.618   4.789
 7957TIP3    H223815   6.245   2.540   4.800
 7958TIP3   OH223816   4.764   0.100   5.060
 7958TIP3    H123817   4.724   0.144   4.985
 7958TIP3    H223818   4.698   0.037   5.089
 7959TIP3   OH223819   6.293   2.019   3.292
 7959TIP3    H123820   6.254   1.934   3.314
 7959TIP3    H223821   6.293   2.067   3.375
 7960TIP3   OH223822   7.877   7.569   2.174
 7960TIP3    H123823   7.827   7.488   2.186
 7960TIP3    H223824   7.888   7.604   2.262
 7961TIP3   OH223825   5.353   4.578   1.815
 7961TIP3    H123826   5.302   4.623   1.883
 7961TIP3    H223827   5.308   4.601   1.734
 7962TIP3   OH223828   7.944   7.181   3.119
 7962TIP3    H123829   8.016   7.199   3.058
 7962TIP3    H223830   7.881   7.251   3.103
 7963TIP3   OH223831   5.802   7.288   3.346
 7963TIP3    H123832   5.743   7.342   3.292
 7963TIP3    H223833   5.820   7.212   3.291
 7964TIP3   OH223834   1.227   0.139   4.845
 7964TIP3    H123835   1.185   0.103   4.923
 7964TIP3    H223836   1.300   0.190   4.879
 7965TIP3   OH223837   7.304   0.330   2.175
 7965TIP3    H123838   7.327   0.248   2.219
 7965TIP3    H223839   7.334   0.398   2.234
 7966TIP3   OH223840   1.582   3.474   2.083
 7966TIP3    H123841   1.596   3.380   2.082
 7966TIP3    H223842   1.518   3.489   2.152
 7967TIP3   OH223843   1.031   7.562   0.886
 7967TIP3    H123844   1.033   7.510   0.966
 7967TIP3    H223845   0.938   7.576   0.868
 7968TIP3   OH223846   1.580   4.189   4.273
 7968TIP3    H123847   1.676   4.199   4.278
 7968TIP3    H223848   1.566   4.095   4.267
 7969TIP3   OH223849   5.000   7.275   4.614
 7969TIP3    H123850   4.958   7.312   4.536
 7969TIP3    H223851   5.072   7.222   4.580
 7970TIP3   OH223852   2.727   6.477   6.470
 7970TIP3    H123853   2.806   6.528   6.457
 7970TIP3    H223854   2.712   6.478   6.565
 7971TIP3   OH223855   2.074   1.171   5.421
 7971TIP3    H123856   2.142   1.174   5.354
 7971TIP3    H223857   2.006   1.231   5.389
 7972TIP3   OH223858   6.587   2.917   6.261
 7972TIP3    H123859   6.668   2.954   6.296
 7972TIP3    H223860   6.596   2.823   6.276
 7973TIP3   OH223861   1.793   6.234   0.170
 7973TIP3    H123862   1.850   6.220   0.095
 7973TIP3    H223863   1.763   6.325   0.160
 7974TIP3   OH223864   1.068   0.849   4.755
 7974TIP3    H123865   1.020   0.806   4.685
 7974TIP3    H223866   1.160   0.834   4.734
 7975TIP3   OH223867   5.116   3.222   6.469
 7975TIP3    H123868   5.173   3.249   6.542
 7975TIP3    H223869   5.070   3.303   6.444
 7976TIP3   OH223870   3.220   1.020   0.664
 7976TIP3    H123871   3.167   1.097   0.644
 7976TIP3    H223872   3.302   1.034   0.616
 7977TIP3   OH223873   5.703   6.066   4.862
 7977TIP3    H123874   5.703   6.103   4.774
 7977TIP3    H223875   5.659   5.982   4.853
 7978TIP3   OH223876   2.340   1.321   6.684
 7978TIP3    H123877   2.422   1.295   6.725
 7978TIP3    H223878   2.284   1.243   6.691
 7979TIP3   OH223879   1.420   3.205   5.700
 7979TIP3    H123880   1.340   3.180   5.747
 7979TIP3    H223881   1.490   3.198   5.765
 7980TIP3   OH223882   6.201   3.815   0.491
 7980TIP3    H123883   6.232   3.883   0.431
 7980TIP3    H223884   6.219   3.733   0.445
 7981TIP3   OH223885   2.509   1.622   5.723
 7981TIP3    H123886   2.424   1.610   5.767
 7981TIP3    H223887   2.573   1.596   5.789
 7982TIP3   OH223888   4.777   7.510   1.870
 7982TIP3    H123889   4.690   7.484   1.900
 7982TIP3    H223890   4.824   7.533   1.950
 7983TIP3   OH223891   5.774   6.987   2.125
 7983TIP3    H123892   5.779   6.892   2.134
 7983TIP3    H223893   5.716   7.002   2.051
 7984TIP3   OH223894   2.328   3.150   3.119
 7984TIP3    H123895   2.385   3.077   3.145
 7984TIP3    H223896   2.289   3.181   3.201
 7985TIP3   OH223897   1.294   1.223   1.210
 7985TIP3    H123898   1.340   1.284   1.268
 7985TIP3    H223899   1.236   1.174   1.268
 7986TIP3   OH223900   3.058   5.505   1.534
 7986TIP3    H123901   3.139   5.521   1.486
 7986TIP3    H223902   3.064   5.413   1.561
 7987TIP3   OH223903   5.420   4.278   2.280
 7987TIP3    H123904   5.484   4.226   2.231
 7987TIP3    H223905   5.359   4.214   2.316
 7988TIP3   OH223906   6.415   4.595   2.138
 7988TIP3    H123907   6.443   4.666   2.196
 7988TIP3    H223908   6.400   4.637   2.053
 7989TIP3   OH223909   3.748   7.371   5.986
 7989TIP3    H123910   3.774   7.461   5.964
 7989TIP3    H223911   3.794   7.352   6.068
 7990TIP3   OH223912   1.350   2.669   3.637
 7990TIP3    H123913   1.296   2.590   3.630
 7990TIP3    H223914   1.435   2.643   3.603
 7991TIP3   OH223915   7.083   2.851   2.483
 7991TIP3    H123916   7.043   2.877   2.566
 7991TIP3    H223917   7.161   2.906   2.477
 7992TIP3   OH223918   6.277   4.138   2.452
 7992TIP3    H123919   6.304   4.052   2.420
 7992TIP3    H223920   6.206   4.119   2.513
 7993TIP3   OH223921   1.485   7.066   3.071
 7993TIP3    H123922   1.561   7.106   3.028
 7993TIP3    H223923   1.426   7.140   3.086
 7994TIP3   OH223924   4.116   0.400   4.784
 7994TIP3    H123925   4.202   0.427   4.818
 7994TIP3    H223926   4.054   0.457   4.829
 7995TIP3   OH223927   7.986   1.629   1.899
 7995TIP3    H123928   7.895   1.600   1.897
 7995TIP3    H223929   7.984   1.710   1.950
 7996TIP3   OH223930   4.732   1.827   2.929
 7996TIP3    H123931   4.766   1.754   2.878
 7996TIP3    H223932   4.659   1.789   2.978
 7997TIP3   OH223933   1.602   6.829   1.192
 7997TIP3    H123934   1.658   6.906   1.193
 7997TIP3    H223935   1.534   6.850   1.127
 7998TIP3   OH223936   8.053   3.378   3.008
 7998TIP3    H123937   8.060   3.406   3.099
 7998TIP3    H223938   7.994   3.442   2.968
 7999TIP3   OH223939   0.724   4.505   1.389
 7999TIP3    H123940   0.676   4.479   1.468
 7999TIP3    H223941   0.683   4.453   1.319
 8000TIP3   OH223942   4.306   6.737   5.252
 8000TIP3    H123943   4.384   6.792   5.248
 8000TIP3    H223944   4.278   6.729   5.160
 8001TIP3   OH223945   7.462   1.287   3.003
 8001TIP3    H123946   7.369   1.288   3.028
 8001TIP3    H223947   7.497   1.209   3.046
 8002TIP3   OH223948   4.981   5.634   6.441
 8002TIP3    H123949   4.899   5.632   6.393
 8002TIP3    H223950   5.047   5.652   6.373
 8003TIP3   OH223951   5.178   5.882   5.126
 8003TIP3    H123952   5.164   5.922   5.040
 8003TIP3    H223953   5.265   5.841   5.119
 8004TIP3   OH223954   4.186   5.844   2.250
 8004TIP3    H123955   4.160   5.868   2.161
 8004TIP3    H223956   4.168   5.922   2.302
 8005TIP3   OH223957   4.805   6.372   2.581
 8005TIP3    H123958   4.813   6.349   2.488
 8005TIP3    H223959   4.803   6.287   2.626
 8006TIP3   OH223960   0.060   0.093   1.637
 8006TIP3    H123961  -0.016   0.151   1.638
 8006TIP3    H223962   0.107   0.116   1.557
 8007TIP3   OH223963   3.087   6.216   5.414
 8007TIP3    H123964   3.178   6.221   5.445
 8007TIP3    H223965   3.034   6.240   5.490
 8008TIP3   OH223966   7.946   7.491   6.194
 8008TIP3    H123967   7.866   7.511   6.146
 8008TIP3    H223968   8.000   7.443   6.131
 8009TIP3   OH223969   4.597   5.827   0.294
 8009TIP3    H123970   4.583   5.801   0.385
 8009TIP3    H223971   4.661   5.899   0.299
 8010TIP3   OH223972   1.230   1.325   5.913
 8010TIP3    H123973   1.147   1.357   5.878
 8010TIP3    H223974   1.208   1.292   6.000
 8011TIP3   OH223975   5.611   4.637   1.390
 8011TIP3    H123976   5.614   4.612   1.482
 8011TIP3    H223977   5.702   4.649   1.365
 8012TIP3   OH223978   4.001   0.400   1.908
 8012TIP3    H123979   4.021   0.308   1.887
 8012TIP3    H223980   3.920   0.418   1.860
 8013TIP3   OH223981   5.573   6.275   0.233
 8013TIP3    H123982   5.501   6.332   0.207
 8013TIP3    H223983   5.652   6.322   0.204
 8014TIP3   OH223984   0.012   3.291   5.775
 8014TIP3    H123985  -0.069   3.266   5.819
 8014TIP3    H223986   0.081   3.263   5.836
 8015TIP3   OH223987   5.930   1.449   3.579
 8015TIP3    H123988   5.940   1.354   3.593
 8015TIP3    H223989   5.882   1.479   3.655
 8016TIP3   OH223990   5.079   7.482   3.728
 8016TIP3    H123991   5.013   7.552   3.727
 8016TIP3    H223992   5.147   7.513   3.668
 8017TIP3   OH223993   6.463   6.828   0.462
 8017TIP3    H123994   6.508   6.884   0.526
 8017TIP3    H223995   6.446   6.886   0.388
 8018TIP3   OH223996   6.419   2.145   5.819
 8018TIP3    H123997   6.367   2.214   5.778
 8018TIP3    H223998   6.407   2.160   5.913
 8019TIP3   OH223999   3.480   6.689   4.961
 8019TIP3    H124000   3.547   6.758   4.965
 8019TIP3    H224001   3.520   6.620   4.908
 8020TIP3   OH224002   7.900   5.880   2.776
 8020TIP3    H124003   7.969   5.815   2.781
 8020TIP3    H224004   7.916   5.925   2.693
 8021TIP3   OH224005   0.928   5.645   1.790
 8021TIP3    H124006   0.963   5.653   1.701
 8021TIP3    H224007   0.910   5.552   1.800
 8022TIP3   OH224008   8.175   1.097   2.431
 8022TIP3    H124009   8.215   1.149   2.361
 8022TIP3    H224010   8.168   1.159   2.504
 8023TIP3   OH224011   2.121   6.721   2.493
 8023TIP3    H124012   2.041   6.770   2.476
 8023TIP3    H224013   2.191   6.785   2.484
 8024TIP3   OH224014   8.283   3.474   5.321
 8024TIP3    H124015   8.228   3.550   5.341
 8024TIP3    H224016   8.304   3.437   5.407
 8025TIP3   OH224017   4.816   4.214   6.257
 8025TIP3    H124018   4.818   4.121   6.281
 8025TIP3    H224019   4.806   4.214   6.162
 8026TIP3   OH224020   3.854   1.781   2.110
 8026TIP3    H124021   3.862   1.729   2.190
 8026TIP3    H224022   3.860   1.872   2.139
 8027TIP3   OH224023   2.521   3.770   5.666
 8027TIP3    H124024   2.472   3.697   5.630
 8027TIP3    H224025   2.531   3.832   5.594
 8028TIP3   OH224026   3.850   2.785   4.778
 8028TIP3    H124027   3.771   2.740   4.808
 8028TIP3    H224028   3.818   2.859   4.727
 8029TIP3   OH224029   2.315   3.999   4.899
 8029TIP3    H124030   2.262   3.966   4.971
 8029TIP3    H224031   2.402   3.963   4.914
 8030TIP3   OH224032   5.873   7.040   2.451
 8030TIP3    H124033   5.950   6.990   2.479
 8030TIP3    H224034   5.876   7.037   2.355
 8031TIP3   OH224035   1.588   1.456   3.542
 8031TIP3    H124036   1.595   1.487   3.632
 8031TIP3    H224037   1.665   1.492   3.498
 8032TIP3   OH224038   0.612   7.642   4.115
 8032TIP3    H124039   0.629   7.723   4.163
 8032TIP3    H224040   0.699   7.612   4.087
 8033TIP3   OH224041   2.213   3.600   5.779
 8033TIP3    H124042   2.238   3.640   5.695
 8033TIP3    H224043   2.230   3.507   5.768
 8034TIP3   OH224044   6.025   1.176   6.190
 8034TIP3    H124045   6.095   1.150   6.129
 8034TIP3    H224046   6.041   1.125   6.269
 8035TIP3   OH224047   6.697   1.049   1.560
 8035TIP3    H124048   6.747   1.130   1.569
 8035TIP3    H224049   6.688   1.037   1.465
 8036TIP3   OH224050   5.955   6.845   5.778
 8036TIP3    H124051   6.027   6.819   5.720
 8036TIP3    H224052   5.996   6.904   5.841
 8037TIP3   OH224053   4.854   4.491   1.082
 8037TIP3    H124054   4.838   4.553   1.153
 8037TIP3    H224055   4.788   4.422   1.094
 8038TIP3   OH224056   2.582   6.505   4.560
 8038TIP3    H124057   2.524   6.574   4.591
 8038TIP3    H224058   2.652   6.551   4.513
 8039TIP3   OH224059   3.069   5.974   0.513
 8039TIP3    H124060   3.099   5.894   0.555
 8039TIP3    H224061   3.043   6.031   0.586
 8040TIP3   OH224062   4.074   4.274   2.084
 8040TIP3    H124063   4.061   4.237   1.997
 8040TIP3    H224064   4.132   4.212   2.128
 8041TIP3   OH224065   6.399   4.723   1.857
 8041TIP3    H124066   6.406   4.790   1.925
 8041TIP3    H224067   6.447   4.758   1.783
 8042TIP3   OH224068   6.412   3.638   2.085
 8042TIP3    H124069   6.364   3.586   2.149
 8042TIP3    H224070   6.397   3.593   2.002
 8043TIP3   OH224071   2.515   3.611   5.210
 8043TIP3    H124072   2.463   3.677   5.255
 8043TIP3    H224073   2.477   3.527   5.238
 8044TIP3   OH224074   0.622   5.296   3.484
 8044TIP3    H124075   0.705   5.321   3.444
 8044TIP3    H224076   0.600   5.371   3.540
 8045TIP3   OH224077   2.877   3.406   3.636
 8045TIP3    H124078   2.916   3.479   3.588
 8045TIP3    H224079   2.948   3.343   3.647
 8046TIP3   OH224080   2.783   4.014   6.378
 8046TIP3    H124081   2.828   4.088   6.419
 8046TIP3    H224082   2.696   4.048   6.357
 8047TIP3   OH224083   6.736   6.818   5.033
 8047TIP3    H124084   6.820   6.841   5.073
 8047TIP3    H224085   6.743   6.851   4.943
 8048TIP3   OH224086   7.643   3.160   4.694
 8048TIP3    H124087   7.614   3.246   4.724
 8048TIP3    H224088   7.611   3.099   4.760
 8049TIP3   OH224089   5.015   2.768   6.305
 8049TIP3    H124090   4.961   2.841   6.276
 8049TIP3    H224091   4.997   2.698   6.243
 8050TIP3   OH224092   7.199   5.001   6.168
 8050TIP3    H124093   7.258   4.979   6.095
 8050TIP3    H224094   7.116   5.023   6.125
 8051TIP3   OH224095   4.871   1.424   5.059
 8051TIP3    H124096   4.926   1.388   4.990
 8051TIP3    H224097   4.803   1.473   5.013
 8052TIP3   OH224098   6.804   0.751   0.839
 8052TIP3    H124099   6.771   0.679   0.786
 8052TIP3    H224100   6.854   0.805   0.778
 8053TIP3   OH224101   6.428   5.616   5.200
 8053TIP3    H124102   6.474   5.570   5.130
 8053TIP3    H224103   6.383   5.547   5.249
 8054TIP3   OH224104   1.229   2.102   0.327
 8054TIP3    H124105   1.164   2.069   0.389
 8054TIP3    H224106   1.306   2.047   0.341
 8055TIP3   OH224107   2.322   0.050   5.205
 8055TIP3    H124108   2.309   0.143   5.226
 8055TIP3    H224109   2.233   0.015   5.195
 8056TIP3   OH224110   5.077   7.038   5.180
 8056TIP3    H124111   4.997   7.066   5.224
 8056TIP3    H224112   5.060   7.054   5.087
 8057TIP3   OH224113   1.147   4.075   5.189
 8057TIP3    H124114   1.148   3.992   5.141
 8057TIP3    H224115   1.139   4.142   5.122
 8058TIP3   OH224116   4.571   1.833   4.137
 8058TIP3    H124117   4.560   1.851   4.230
 8058TIP3    H224118   4.491   1.867   4.097
 8059TIP3   OH224119   5.543   4.104   3.062
 8059TIP3    H124120   5.600   4.044   3.014
 8059TIP3    H224121   5.544   4.185   3.010
 8060TIP3   OH224122   0.408   2.826   2.427
 8060TIP3    H124123   0.386   2.878   2.349
 8060TIP3    H224124   0.412   2.735   2.395
 8061TIP3   OH224125   5.952   0.325   5.605
 8061TIP3    H124126   5.881   0.321   5.669
 8061TIP3    H224127   5.912   0.368   5.528
 8062TIP3   OH224128   4.280   4.985   6.484
 8062TIP3    H124129   4.340   5.042   6.533
 8062TIP3    H224130   4.226   5.045   6.434
 8063TIP3   OH224131   2.352   0.345   4.365
 8063TIP3    H124132   2.328   0.360   4.273
 8063TIP3    H224133   2.391   0.258   4.366
 8064TIP3   OH224134   0.702   4.032   5.701
 8064TIP3    H124135   0.637   4.098   5.723
 8064TIP3    H224136   0.768   4.039   5.771
 8065TIP3   OH224137   6.436   2.924   5.740
 8065TIP3    H124138   6.513   2.951   5.790
 8065TIP3    H224139   6.380   2.880   5.805
 8066TIP3   OH224140   4.373   4.983   3.502
 8066TIP3    H124141   4.279   4.972   3.515
 8066TIP3    H224142   4.407   4.893   3.503
 8067TIP3   OH224143   5.970   1.385   1.478
 8067TIP3    H124144   5.883   1.343   1.473
 8067TIP3    H224145   5.953   1.477   1.457
 8068TIP3   OH224146   7.069   5.253   6.179
 8068TIP3    H124147   7.149   5.214   6.213
 8068TIP3    H224148   7.088   5.346   6.171
 8069TIP3   OH224149   8.040   7.796   5.009
 8069TIP3    H124150   7.974   7.791   5.078
 8069TIP3    H224151   8.061   7.889   5.002
 8070TIP3   OH224152   1.608   1.384   4.091
 8070TIP3    H124153   1.521   1.383   4.051
 8070TIP3    H224154   1.601   1.322   4.164
 8071TIP3   OH224155   5.896   6.098   2.144
 8071TIP3    H124156   5.955   6.023   2.140
 8071TIP3    H224157   5.809   6.060   2.155
 8072TIP3   OH224158   7.834   4.634   2.027
 8072TIP3    H124159   7.910   4.600   2.076
 8072TIP3    H224160   7.760   4.618   2.085
 8073TIP3   OH224161   1.116   0.173   3.839
 8073TIP3    H124162   1.143   0.254   3.882
 8073TIP3    H224163   1.113   0.108   3.909
 8074TIP3   OH224164   1.061   6.388   3.323
 8074TIP3    H124165   1.051   6.451   3.252
 8074TIP3    H224166   1.115   6.319   3.286
 8075TIP3   OH224167   3.003   6.931   6.387
 8075TIP3    H124168   2.915   6.966   6.378
 8075TIP3    H224169   2.992   6.837   6.381
 8076TIP3   OH224170   4.348   2.958   3.565
 8076TIP3    H124171   4.276   2.905   3.601
 8076TIP3    H224172   4.311   2.998   3.486
 8077TIP3   OH224173   2.929   4.465   5.430
 8077TIP3    H124174   2.870   4.518   5.483
 8077TIP3    H224175   3.001   4.524   5.407
 8078TIP3   OH224176   3.156   3.772   0.328
 8078TIP3    H124177   3.243   3.802   0.301
 8078TIP3    H224178   3.112   3.749   0.247
 8079TIP3   OH224179   7.846   7.794   0.980
 8079TIP3    H124180   7.893   7.711   0.968
 8079TIP3    H224181   7.914   7.859   0.994
 8080TIP3   OH224182   2.818   6.856   0.916
 8080TIP3    H124183   2.885   6.828   0.978
 8080TIP3    H224184   2.737   6.855   0.966
 8081TIP3   OH224185   6.733   4.579   5.486
 8081TIP3    H124186   6.791   4.544   5.554
 8081TIP3    H224187   6.782   4.651   5.448
 8082TIP3   OH224188   7.135   6.127   4.225
 8082TIP3    H124189   7.197   6.199   4.223
 8082TIP3    H224190   7.135   6.098   4.316
 8083TIP3   OH224191   7.324   2.833   6.097
 8083TIP3    H124192   7.290   2.790   6.018
 8083TIP3    H224193   7.311   2.927   6.080
 8084TIP3   OH224194   1.231   6.936   1.440
 8084TIP3    H124195   1.160   6.969   1.494
 8084TIP3    H224196   1.198   6.941   1.350
 8085TIP3   OH224197   0.515   7.637   5.370
 8085TIP3    H124198   0.580   7.583   5.414
 8085TIP3    H224199   0.481   7.580   5.300
 8086TIP3   OH224200   0.099   0.355   1.778
 8086TIP3    H124201   0.100   0.450   1.788
 8086TIP3    H224202   0.156   0.338   1.704
 8087TIP3   OH224203   1.695   4.636   6.104
 8087TIP3    H124204   1.644   4.585   6.041
 8087TIP3    H224205   1.721   4.572   6.170
 8088TIP3   OH224206   1.993   6.355   2.739
 8088TIP3    H124207   1.939   6.281   2.711
 8088TIP3    H224208   1.938   6.402   2.802
 8089TIP3   OH224209   2.653   2.939   4.212
 8089TIP3    H124210   2.661   2.927   4.306
 8089TIP3    H224211   2.687   2.858   4.174
 8090TIP3   OH224212   3.922   7.218   6.162
 8090TIP3    H124213   3.865   7.144   6.140
 8090TIP3    H224214   4.010   7.188   6.139
 8091TIP3   OH224215   4.269   6.942   0.526
 8091TIP3    H124216   4.251   6.850   0.542
 8091TIP3    H224217   4.220   6.988   0.594
 8092TIP3   OH224218   2.286   4.162   2.467
 8092TIP3    H124219   2.360   4.187   2.412
 8092TIP3    H224220   2.322   4.095   2.525
 8093TIP3   OH224221   0.615   4.357   6.546
 8093TIP3    H124222   0.702   4.329   6.573
 8093TIP3    H224223   0.580   4.404   6.621
 8094TIP3   OH224224   7.531   4.160   5.785
 8094TIP3    H124225   7.605   4.178   5.727
 8094TIP3    H224226   7.454   4.182   5.732
 8095TIP3   OH224227   7.121   4.760   5.315
 8095TIP3    H124228   7.140   4.669   5.291
 8095TIP3    H224229   7.203   4.806   5.298
 8096TIP3   OH224230   0.062   7.519   0.477
 8096TIP3    H124231   0.143   7.475   0.450
 8096TIP3    H224232   0.088   7.578   0.548
 8097TIP3   OH224233   1.457   2.212   5.092
 8097TIP3    H124234   1.417   2.292   5.128
 8097TIP3    H224235   1.496   2.169   5.168
 8098TIP3   OH224236   3.077   0.400   6.371
 8098TIP3    H124237   3.027   0.470   6.328
 8098TIP3    H224238   3.080   0.329   6.306
 8099TIP3   OH224239   4.590   4.446   4.845
 8099TIP3    H124240   4.529   4.397   4.900
 8099TIP3    H224241   4.654   4.380   4.817
 8100TIP3   OH224242   3.382   1.993   3.706
 8100TIP3    H124243   3.424   2.074   3.735
 8100TIP3    H224244   3.293   2.019   3.681
 8101TIP3   OH224245   7.748   1.167   0.739
 8101TIP3    H124246   7.759   1.085   0.690
 8101TIP3    H224247   7.833   1.210   0.734
 8102TIP3   OH224248   3.307   0.499   2.841
 8102TIP3    H124249   3.312   0.581   2.890
 8102TIP3    H224250   3.224   0.460   2.866
 8103TIP3   OH224251   5.417   5.100   1.007
 8103TIP3    H124252   5.489   5.062   0.958
 8103TIP3    H224253   5.353   5.029   1.016
 8104TIP3   OH224254   6.297   5.404   4.712
 8104TIP3    H124255   6.391   5.404   4.698
 8104TIP3    H224256   6.260   5.422   4.626
 8105TIP3   OH224257   5.041   4.463   2.293
 8105TIP3    H124258   5.003   4.397   2.351
 8105TIP3    H224259   5.008   4.441   2.206
 8106TIP3   OH224260   6.932   7.207   3.768
 8106TIP3    H124261   6.966   7.204   3.857
 8106TIP3    H224262   6.963   7.126   3.728
 8107TIP3   OH224263   5.782   6.444   1.016
 8107TIP3    H124264   5.782   6.376   0.948
 8107TIP3    H224265   5.875   6.459   1.033
 8108TIP3   OH224266   2.736   5.296   2.204
 8108TIP3    H124267   2.811   5.267   2.151
 8108TIP3    H224268   2.660   5.254   2.163
 8109TIP3   OH224269   1.929   1.755   4.356
 8109TIP3    H124270   1.856   1.693   4.352
 8109TIP3    H224271   1.994   1.720   4.295
 8110TIP3   OH224272   1.312   7.670   1.601
 8110TIP3    H124273   1.331   7.757   1.565
 8110TIP3    H224274   1.374   7.661   1.673
 8111TIP3   OH224275   7.456   3.836   1.253
 8111TIP3    H124276   7.464   3.932   1.257
 8111TIP3    H224277   7.538   3.807   1.214
 8112TIP3   OH224278   6.943   3.439   4.685
 8112TIP3    H124279   6.912   3.529   4.693
 8112TIP3    H224280   6.880   3.388   4.737
 8113TIP3   OH224281   8.302   2.795   3.101
 8113TIP3    H124282   8.236   2.750   3.153
 8113TIP3    H224283   8.297   2.887   3.129
 8114TIP3   OH224284   6.111   6.429   3.432
 8114TIP3    H124285   6.018   6.443   3.448
 8114TIP3    H224286   6.114   6.349   3.378
 8115TIP3   OH224287   2.406   3.002   2.637
 8115TIP3    H124288   2.482   3.061   2.633
 8115TIP3    H224289   2.439   2.923   2.679
 8116TIP3   OH224290   1.249   0.440   5.270
 8116TIP3    H124291   1.174   0.399   5.313
 8116TIP3    H224292   1.309   0.462   5.341
 8117TIP3   OH224293   3.603   1.995   6.813
 8117TIP3    H124294   3.570   2.083   6.796
 8117TIP3    H224295   3.534   1.937   6.780
 8118TIP3   OH224296   5.733   0.065   4.003
 8118TIP3    H124297   5.698   0.068   3.913
 8118TIP3    H224298   5.655   0.073   4.058
 8119TIP3   OH224299   4.110   2.464   6.384
 8119TIP3    H124300   4.187   2.518   6.366
 8119TIP3    H224301   4.083   2.431   6.299
 8120TIP3   OH224302   7.948   0.387   0.307
 8120TIP3    H124303   8.039   0.384   0.337
 8120TIP3    H224304   7.946   0.324   0.235
 8121TIP3   OH224305   6.356   0.514   6.720
 8121TIP3    H124306   6.386   0.464   6.644
 8121TIP3    H224307   6.261   0.521   6.708
 8122TIP3   OH224308   2.706   2.042   1.031
 8122TIP3    H124309   2.725   2.007   1.118
 8122TIP3    H224310   2.782   2.097   1.010
 8123TIP3   OH224311   7.939   4.461   5.793
 8123TIP3    H124312   7.869   4.483   5.855
 8123TIP3    H224313   7.982   4.544   5.775
 8124TIP3   OH224314   4.567   7.126   4.542
 8124TIP3    H124315   4.633   7.139   4.610
 8124TIP3    H224316   4.537   7.215   4.521
 8125TIP3   OH224317   4.302   4.460   4.532
 8125TIP3    H124318   4.385   4.413   4.527
 8125TIP3    H224319   4.314   4.523   4.603
 8126TIP3   OH224320   2.231   3.183   2.555
 8126TIP3    H124321   2.216   3.138   2.471
 8126TIP3    H224322   2.272   3.118   2.610
 8127TIP3   OH224323   4.783   5.123   6.775
 8127TIP3    H124324   4.798   5.057   6.707
 8127TIP3    H224325   4.852   5.188   6.762
 8128TIP3   OH224326   8.226   2.277   6.256
 8128TIP3    H124327   8.195   2.367   6.265
 8128TIP3    H224328   8.201   2.252   6.167
 8129TIP3   OH224329   8.228   7.083   4.729
 8129TIP3    H124330   8.133   7.089   4.742
 8129TIP3    H224331   8.239   7.019   4.659
 8130TIP3   OH224332   4.204   7.803   6.643
 8130TIP3    H124333   4.240   7.784   6.730
 8130TIP3    H224334   4.110   7.785   6.651
 8131TIP3   OH224335   0.747   3.581   6.434
 8131TIP3    H124336   0.831   3.605   6.474
 8131TIP3    H224337   0.731   3.650   6.369
 8132TIP3   OH224338   2.070   3.477   1.601
 8132TIP3    H124339   2.050   3.459   1.693
 8132TIP3    H224340   2.093   3.570   1.600
 8133TIP3   OH224341   3.627   4.656   3.521
 8133TIP3    H124342   3.556   4.595   3.539
 8133TIP3    H224343   3.585   4.728   3.475
 8134TIP3   OH224344   6.197   6.726   0.711
 8134TIP3    H124345   6.276   6.712   0.658
 8134TIP3    H224346   6.177   6.819   0.700
 8135TIP3   OH224347   8.102   0.238   3.356
 8135TIP3    H124348   8.184   0.272   3.393
 8135TIP3    H224349   8.084   0.158   3.406
 8136TIP3   OH224350   7.375   0.380   6.037
 8136TIP3    H124351   7.388   0.318   6.109
 8136TIP3    H224352   7.414   0.337   5.961
 8137TIP3   OH224353   5.782   2.907   3.046
 8137TIP3    H124354   5.758   2.988   3.091
 8137TIP3    H224355   5.860   2.929   2.995
 8138TIP3   OH224356   1.614   3.990   5.789
 8138TIP3    H124357   1.635   3.897   5.797
 8138TIP3    H224358   1.659   4.019   5.710
 8139TIP3   OH224359   4.264   6.919   5.936
 8139TIP3    H124360   4.300   7.007   5.952
 8139TIP3    H224361   4.216   6.929   5.854
 8140TIP3   OH224362   7.974   4.951   3.194
 8140TIP3    H124363   7.970   4.915   3.106
 8140TIP3    H224364   8.064   4.933   3.223
 8141TIP3   OH224365   0.809   5.258   0.746
 8141TIP3    H124366   0.848   5.172   0.732
 8141TIP3    H224367   0.739   5.264   0.681
 8142TIP3   OH224368   2.053   1.742   4.605
 8142TIP3    H124369   2.009   1.786   4.678
 8142TIP3    H224370   1.996   1.758   4.530
 8143TIP3   OH224371   4.083   3.219   2.466
 8143TIP3    H124372   4.079   3.304   2.510
 8143TIP3    H224373   4.108   3.240   2.376
 8144TIP3   OH224374   8.130   0.895   4.801
 8144TIP3    H124375   8.192   0.963   4.825
 8144TIP3    H224376   8.046   0.940   4.793
 8145TIP3   OH224377   5.570   4.201   2.662
 8145TIP3    H124378   5.642   4.259   2.636
 8145TIP3    H224379   5.506   4.260   2.703
 8146TIP3   OH224380   4.116   6.019   6.173
 8146TIP3    H124381   4.050   6.028   6.241
 8146TIP3    H224382   4.145   5.928   6.177
 8147TIP3   OH224383   5.775   4.107   1.755
 8147TIP3    H124384   5.829   4.140   1.827
 8147TIP3    H224385   5.758   4.185   1.701
 8148TIP3   OH224386   7.910   7.198   3.522
 8148TIP3    H124387   7.912   7.142   3.599
 8148TIP3    H224388   7.972   7.268   3.541
 8149TIP3   OH224389   7.782   4.218   2.013
 8149TIP3    H124390   7.754   4.145   2.069
 8149TIP3    H224391   7.700   4.251   1.975
 8150TIP3   OH224392   0.258   5.470   0.866
 8150TIP3    H124393   0.338   5.421   0.889
 8150TIP3    H224394   0.205   5.468   0.946
 8151TIP3   OH224395   6.631   1.559   2.514
 8151TIP3    H124396   6.708   1.524   2.468
 8151TIP3    H224397   6.604   1.488   2.572
 8152TIP3   OH224398   3.629   6.684   6.461
 8152TIP3    H124399   3.724   6.674   6.449
 8152TIP3    H224400   3.617   6.778   6.478
 8153TIP3   OH224401   7.610   7.298   2.484
 8153TIP3    H124402   7.632   7.231   2.550
 8153TIP3    H224403   7.524   7.271   2.452
 8154TIP3   OH224404   5.313   2.823   1.511
 8154TIP3    H124405   5.375   2.805   1.581
 8154TIP3    H224406   5.227   2.812   1.552
 8155TIP3   OH224407   6.140   2.524   5.586
 8155TIP3    H124408   6.132   2.619   5.580
 8155TIP3    H224409   6.109   2.492   5.502
 8156TIP3   OH224410   3.347   5.458   3.185
 8156TIP3    H124411   3.289   5.496   3.251
 8156TIP3    H224412   3.394   5.389   3.232
 8157TIP3   OH224413   7.436   7.431  -0.013
 8157TIP3    H124414   7.418   7.521   0.014
 8157TIP3    H224415   7.402   7.377   0.058
 8158TIP3   OH224416   3.390   1.573   1.877
 8158TIP3    H124417   3.387   1.659   1.834
 8158TIP3    H224418   3.458   1.582   1.943
 8159TIP3   OH224419   1.401   7.507   4.204
 8159TIP3    H124420   1.490   7.531   4.228
 8159TIP3    H224421   1.410   7.428   4.150
 8160TIP3   OH224422   2.757   5.909   1.988
 8160TIP3    H124423   2.682   5.967   2.001
 8160TIP3    H224424   2.729   5.850   1.918
 8161TIP3   OH224425   5.458   4.727   0.254
 8161TIP3    H124426   5.449   4.794   0.322
 8161TIP3    H224427   5.399   4.657   0.282
 8162TIP3   OH224428   6.508   0.478   2.497
 8162TIP3    H124429   6.487   0.536   2.570
 8162TIP3    H224430   6.601   0.459   2.507
 8163TIP3   OH224431   7.033   0.160   4.715
 8163TIP3    H124432   7.024   0.065   4.722
 8163TIP3    H224433   7.052   0.189   4.804
 8164TIP3   OH224434   7.748   5.592   0.040
 8164TIP3    H124435   7.737   5.511  -0.009
 8164TIP3    H224436   7.838   5.619   0.022
 8165TIP3   OH224437   0.848   0.165   3.855
 8165TIP3    H124438   0.841   0.253   3.893
 8165TIP3    H224439   0.941   0.155   3.834
 8166TIP3   OH224440   3.875   0.683   0.187
 8166TIP3    H124441   3.787   0.710   0.211
 8166TIP3    H224442   3.864   0.632   0.107
 8167TIP3   OH224443   5.127   6.604   5.105
 8167TIP3    H124444   5.086   6.622   5.190
 8167TIP3    H224445   5.215   6.641   5.112
 8168TIP3   OH224446   4.185   2.696   3.905
 8168TIP3    H124447   4.259   2.645   3.873
 8168TIP3    H224448   4.178   2.672   3.998
 8169TIP3   OH224449   3.047   4.892   6.406
 8169TIP3    H124450   3.096   4.845   6.473
 8169TIP3    H224451   3.086   4.863   6.323
 8170TIP3   OH224452   3.858   6.486   3.663
 8170TIP3    H124453   3.849   6.560   3.722
 8170TIP3    H224454   3.890   6.415   3.718
 8171TIP3   OH224455   0.276   2.359   1.463
 8171TIP3    H124456   0.185   2.376   1.437
 8171TIP3    H224457   0.304   2.286   1.408
 8172TIP3   OH224458   6.215   4.683   6.264
 8172TIP3    H124459   6.270   4.608   6.288
 8172TIP3    H224460   6.268   4.733   6.202
 8173TIP3   OH224461   6.343   1.315   2.868
 8173TIP3    H124462   6.401   1.248   2.905
 8173TIP3    H224463   6.361   1.312   2.774
 8174TIP3   OH224464   0.533   5.899   6.204
 8174TIP3    H124465   0.495   5.935   6.284
 8174TIP3    H224466   0.626   5.890   6.223
 8175TIP3   OH224467   7.204   5.190   5.807
 8175TIP3    H124468   7.114   5.161   5.817
 8175TIP3    H224469   7.240   5.135   5.738
 8176TIP3   OH224470   6.035   3.536   5.238
 8176TIP3    H124471   6.035   3.596   5.312
 8176TIP3    H224472   6.001   3.587   5.165
 8177TIP3   OH224473   7.921   7.581   5.336
 8177TIP3    H124474   7.910   7.661   5.389
 8177TIP3    H224475   7.900   7.608   5.247
 8178TIP3   OH224476   5.037   7.727   1.337
 8178TIP3    H124477   5.033   7.696   1.246
 8178TIP3    H224478   5.001   7.655   1.388
 8179TIP3   OH224479   6.243   3.552   4.894
 8179TIP3    H124480   6.303   3.613   4.852
 8179TIP3    H224481   6.194   3.605   4.957
 8180TIP3   OH224482   1.726   6.900   0.833
 8180TIP3    H124483   1.784   6.870   0.904
 8180TIP3    H224484   1.753   6.847   0.757
 8181TIP3   OH224485   4.940   3.032   3.186
 8181TIP3    H124486   4.898   2.949   3.212
 8181TIP3    H224487   4.965   3.019   3.095
 8182TIP3   OH224488   2.480   1.039   0.374
 8182TIP3    H124489   2.514   1.104   0.313
 8182TIP3    H224490   2.411   0.995   0.325
 8183TIP3   OH224491   2.277   2.901   0.969
 8183TIP3    H124492   2.221   2.978   0.962
 8183TIP3    H224493   2.219   2.828   0.945
 8184TIP3   OH224494   3.907   4.883   6.260
 8184TIP3    H124495   3.818   4.868   6.227
 8184TIP3    H224496   3.962   4.825   6.207
 8185TIP3   OH224497   3.939   2.103   6.168
 8185TIP3    H124498   3.859   2.139   6.129
 8185TIP3    H224499   3.929   2.117   6.262
 8186TIP3   OH224500   3.503   5.805   2.131
 8186TIP3    H124501   3.442   5.741   2.092
 8186TIP3    H224502   3.477   5.810   2.223
 8187TIP3   OH224503   0.059   5.083   6.678
 8187TIP3    H124504  -0.026   5.041   6.668
 8187TIP3    H224505   0.097   5.083   6.590
 8188TIP3   OH224506   2.487   6.272   5.441
 8188TIP3    H124507   2.403   6.315   5.456
 8188TIP3    H224508   2.474   6.183   5.473
 8189TIP3   OH224509   6.838   4.715   0.720
 8189TIP3    H124510   6.871   4.715   0.630
 8189TIP3    H224511   6.868   4.633   0.758
 8190TIP3   OH224512   3.507   7.714   2.171
 8190TIP3    H124513   3.490   7.690   2.080
 8190TIP3    H224514   3.440   7.779   2.191
 8191TIP3   OH224515   5.991   2.707   0.169
 8191TIP3    H124516   6.078   2.745   0.172
 8191TIP3    H224517   5.950   2.745   0.091
 8192TIP3   OH224518   5.842   2.498   3.084
 8192TIP3    H124519   5.802   2.420   3.046
 8192TIP3    H224520   5.904   2.528   3.018
 8193TIP3   OH224521   7.532   3.745   3.908
 8193TIP3    H124522   7.515   3.656   3.878
 8193TIP3    H224523   7.628   3.751   3.914
 8194TIP3   OH224524   7.551   3.431   4.127
 8194TIP3    H124525   7.492   3.357   4.143
 8194TIP3    H224526   7.547   3.483   4.207
 8195TIP3   OH224527   6.276   6.693   5.738
 8195TIP3    H124528   6.208   6.706   5.672
 8195TIP3    H224529   6.319   6.611   5.713
 8196TIP3   OH224530   1.755   2.729   4.441
 8196TIP3    H124531   1.703   2.799   4.402
 8196TIP3    H224532   1.829   2.718   4.381
 8197TIP3   OH224533   4.273   5.839   0.419
 8197TIP3    H124534   4.220   5.917   0.435
 8197TIP3    H224535   4.264   5.788   0.500
 8198TIP3   OH224536   0.323   6.056   2.887
 8198TIP3    H124537   0.362   6.121   2.946
 8198TIP3    H224538   0.376   6.062   2.807
 8199TIP3   OH224539   2.990   3.714   5.398
 8199TIP3    H124540   3.043   3.793   5.413
 8199TIP3    H224541   3.043   3.661   5.339
 8200TIP3   OH224542   1.445   6.607   3.459
 8200TIP3    H124543   1.444   6.595   3.364
 8200TIP3    H224544   1.358   6.581   3.487
 8201TIP3   OH224545   1.675   6.645   1.682
 8201TIP3    H124546   1.628   6.631   1.600
 8201TIP3    H224547   1.715   6.560   1.701
 8202TIP3   OH224548   3.120   7.624   4.600
 8202TIP3    H124549   3.090   7.693   4.659
 8202TIP3    H224550   3.057   7.624   4.528
 8203TIP3   OH224551   0.462   5.926   5.933
 8203TIP3    H124552   0.514   5.924   6.013
 8203TIP3    H224553   0.372   5.908   5.962
 8204TIP3   OH224554   5.720   7.467   2.051
 8204TIP3    H124555   5.661   7.536   2.021
 8204TIP3    H224556   5.709   7.397   1.986
 8205TIP3   OH224557   4.036   2.748   2.445
 8205TIP3    H124558   3.988   2.706   2.374
 8205TIP3    H224559   4.119   2.776   2.404
 8206TIP3   OH224560   3.836   6.671   3.851
 8206TIP3    H124561   3.871   6.714   3.929
 8206TIP3    H224562   3.744   6.697   3.848
 8207TIP3   OH224563   8.164   2.208   4.900
 8207TIP3    H124564   8.242   2.153   4.887
 8207TIP3    H224565   8.091   2.146   4.898
 8208TIP3   OH224566   2.930   5.136   0.193
 8208TIP3    H124567   2.903   5.220   0.230
 8208TIP3    H224568   2.910   5.143   0.100
 8209TIP3   OH224569   3.387   7.400   6.187
 8209TIP3    H124570   3.403   7.318   6.234
 8209TIP3    H224571   3.463   7.455   6.208
 8210TIP3   OH224572   2.532   1.143   1.809
 8210TIP3    H124573   2.438   1.127   1.810
 8210TIP3    H224574   2.555   1.163   1.900
 8211TIP3   OH224575   4.877   0.014   5.299
 8211TIP3    H124576   4.850   0.019   5.208
 8211TIP3    H224577   4.917   0.099   5.317
 8212TIP3   OH224578   5.201   4.664   1.049
 8212TIP3    H124579   5.163   4.608   1.117
 8212TIP3    H224580   5.295   4.663   1.066
 8213TIP3   OH224581   6.991   7.158   0.530
 8213TIP3    H124582   6.954   7.172   0.617
 8213TIP3    H224583   7.070   7.106   0.546
 8214TIP3   OH224584   6.082   1.553   5.051
 8214TIP3    H124585   5.995   1.568   5.016
 8214TIP3    H224586   6.139   1.550   4.974
 8215TIP3   OH224587   0.045   6.308   4.862
 8215TIP3    H124588  -0.009   6.234   4.889
 8215TIP3    H224589   0.083   6.341   4.944
 8216TIP3   OH224590   4.732   5.796   5.265
 8216TIP3    H124591   4.761   5.806   5.175
 8216TIP3    H224592   4.799   5.741   5.306
 8217TIP3   OH224593   3.800   0.149   3.992
 8217TIP3    H124594   3.801   0.056   4.017
 8217TIP3    H224595   3.890   0.167   3.965
 8218TIP3   OH224596   3.497   5.118   3.152
 8218TIP3    H124597   3.477   5.175   3.225
 8218TIP3    H224598   3.588   5.092   3.165
 8219TIP3   OH224599   6.671   1.822   0.950
 8219TIP3    H124600   6.579   1.799   0.941
 8219TIP3    H224601   6.674   1.879   1.027
 8220TIP3   OH224602   2.874   5.977   0.311
 8220TIP3    H124603   2.936   5.970   0.384
 8220TIP3    H224604   2.793   6.007   0.350
 8221TIP3   OH224605   6.195   4.753   5.306
 8221TIP3    H124606   6.278   4.708   5.325
 8221TIP3    H224607   6.218   4.820   5.242
 8222TIP3   OH224608   0.108   3.240   3.772
 8222TIP3    H124609   0.160   3.244   3.692
 8222TIP3    H224610   0.049   3.166   3.759
 8223TIP3   OH224611   7.059   7.468   6.470
 8223TIP3    H124612   6.966   7.450   6.458
 8223TIP3    H224613   7.062   7.540   6.533
 8224TIP3   OH224614   6.314   6.268   1.812
 8224TIP3    H124615   6.241   6.211   1.835
 8224TIP3    H224616   6.337   6.313   1.893
 8225TIP3   OH224617   2.433   1.972   3.158
 8225TIP3    H124618   2.350   1.991   3.202
 8225TIP3    H224619   2.423   1.883   3.125
 8226TIP3   OH224620   2.782   2.623   0.055
 8226TIP3    H124621   2.701   2.647   0.009
 8226TIP3    H224622   2.770   2.531   0.078
 8227TIP3   OH224623   0.725   2.661   1.656
 8227TIP3    H124624   0.764   2.676   1.743
 8227TIP3    H224625   0.800   2.654   1.598
 8228TIP3   OH224626   2.366   4.089   0.224
 8228TIP3    H124627   2.411   4.160   0.179
 8228TIP3    H224628   2.415   4.010   0.199
 8229TIP3   OH224629   2.756   0.770   6.175
 8229TIP3    H124630   2.791   0.858   6.184
 8229TIP3    H224631   2.703   0.757   6.253
 8230TIP3   OH224632   3.533   7.575   5.725
 8230TIP3    H124633   3.557   7.533   5.643
 8230TIP3    H224634   3.613   7.572   5.778
 8231TIP3   OH224635   1.488   0.503   5.111
 8231TIP3    H124636   1.429   0.509   5.186
 8231TIP3    H224637   1.575   0.499   5.149
 8232TIP3   OH224638   3.380   1.404   4.058
 8232TIP3    H124639   3.318   1.350   4.108
 8232TIP3    H224640   3.334   1.486   4.043
 8233TIP3   OH224641   8.039   0.716   0.445
 8233TIP3    H124642   8.019   0.716   0.351
 8233TIP3    H224643   8.042   0.808   0.469
 8234TIP3   OH224644   3.777   2.092   2.151
 8234TIP3    H124645   3.743   2.175   2.119
 8234TIP3    H224646   3.824   2.115   2.232
 8235TIP3   OH224647   7.158   1.411   5.965
 8235TIP3    H124648   7.189   1.335   5.915
 8235TIP3    H224649   7.102   1.458   5.903
 8236TIP3   OH224650   6.339   1.483   5.392
 8236TIP3    H124651   6.346   1.436   5.308
 8236TIP3    H224652   6.380   1.424   5.455
 8237TIP3   OH224653   4.803   3.707   0.314
 8237TIP3    H124654   4.847   3.684   0.395
 8237TIP3    H224655   4.817   3.801   0.304
 8238TIP3   OH224656   7.127   4.930   0.431
 8238TIP3    H124657   7.088   5.008   0.392
 8238TIP3    H224658   7.175   4.888   0.360
 8239TIP3   OH224659   4.710   3.655   1.956
 8239TIP3    H124660   4.641   3.599   1.920
 8239TIP3    H224661   4.770   3.594   1.999
 8240TIP3   OH224662   8.077   3.050   1.067
 8240TIP3    H124663   8.125   3.017   0.991
 8240TIP3    H224664   8.062   2.973   1.121
 8241TIP3   OH224665   4.319   7.599   5.943
 8241TIP3    H124666   4.308   7.550   6.025
 8241TIP3    H224667   4.394   7.557   5.901
 8242TIP3   OH224668   3.050   0.733   2.535
 8242TIP3    H124669   2.995   0.726   2.613
 8242TIP3    H224670   3.133   0.692   2.560
 8243TIP3   OH224671   5.710   5.391   1.831
 8243TIP3    H124672   5.623   5.406   1.870
 8243TIP3    H224673   5.714   5.296   1.817
 8244TIP3   OH224674   1.050   4.339   2.259
 8244TIP3    H124675   0.983   4.273   2.240
 8244TIP3    H224676   1.014   4.387   2.334
 8245TIP3   OH224677   0.119   5.549   2.477
 8245TIP3    H124678   0.204   5.593   2.487
 8245TIP3    H224679   0.065   5.587   2.546
 8246TIP3   OH224680   2.194   6.337   5.419
 8246TIP3    H124681   2.153   6.326   5.505
 8246TIP3    H224682   2.125   6.374   5.364
 8247TIP3   OH224683   1.114   3.538   1.505
 8247TIP3    H124684   1.044   3.498   1.557
 8247TIP3    H224685   1.086   3.629   1.493
 8248TIP3   OH224686   6.058   3.198   1.568
 8248TIP3    H124687   5.986   3.211   1.506
 8248TIP3    H224688   6.023   3.136   1.632
 8249TIP3   OH224689   0.912   0.550   6.738
 8249TIP3    H124690   0.864   0.584   6.813
 8249TIP3    H224691   0.992   0.512   6.775
 8250TIP3   OH224692   0.555   1.655   5.322
 8250TIP3    H124693   0.560   1.580   5.263
 8250TIP3    H224694   0.478   1.703   5.293
 8251TIP3   OH224695   2.162   1.960   4.041
 8251TIP3    H124696   2.167   1.865   4.044
 8251TIP3    H224697   2.225   1.985   3.973
 8252TIP3   OH224698   3.178   2.869   0.374
 8252TIP3    H124699   3.270   2.888   0.354
 8252TIP3    H224700   3.155   2.795   0.319
 8253TIP3   OH224701   1.423   5.667   6.448
 8253TIP3    H124702   1.433   5.735   6.515
 8253TIP3    H224703   1.391   5.591   6.496
 8254TIP3   OH224704   2.434   0.594   3.036
 8254TIP3    H124705   2.467   0.622   3.122
 8254TIP3    H224706   2.470   0.507   3.024
 8255TIP3   OH224707   1.320   6.237   5.954
 8255TIP3    H124708   1.385   6.171   5.979
 8255TIP3    H224709   1.326   6.242   5.858
 8256TIP3   OH224710   3.094   0.576   0.152
 8256TIP3    H124711   3.029   0.509   0.171
 8256TIP3    H224712   3.162   0.531   0.103
 8257TIP3   OH224713   7.300   6.339   4.966
 8257TIP3    H124714   7.335   6.418   4.927
 8257TIP3    H224715   7.319   6.348   5.060
 8258TIP3   OH224716   2.370   3.239   6.702
 8258TIP3    H124717   2.330   3.312   6.654
 8258TIP3    H224718   2.308   3.221   6.773
 8259TIP3   OH224719   0.080   1.591   0.478
 8259TIP3    H124720  -0.005   1.565   0.514
 8259TIP3    H224721   0.059   1.654   0.410
 8260TIP3   OH224722   1.802   3.772   1.004
 8260TIP3    H124723   1.711   3.791   0.982
 8260TIP3    H224724   1.836   3.856   1.036
 8261TIP3   OH224725   2.047   5.883   2.178
 8261TIP3    H124726   2.100   5.931   2.115
 8261TIP3    H224727   1.975   5.846   2.126
 8262TIP3   OH224728   7.643   5.690   2.368
 8262TIP3    H124729   7.589   5.743   2.309
 8262TIP3    H224730   7.624   5.726   2.455
 8263TIP3   OH224731   3.506   5.373   4.654
 8263TIP3    H124732   3.476   5.462   4.673
 8263TIP3    H224733   3.461   5.319   4.719
 8264TIP3   OH224734  -0.064   1.274   5.621
 8264TIP3    H124735   0.021   1.304   5.651
 8264TIP3    H224736  -0.054   1.259   5.527
 8265TIP3   OH224737   2.382   1.913   5.880
 8265TIP3    H124738   2.307   1.966   5.905
 8265TIP3    H224739   2.441   1.917   5.955
 8266TIP3   OH224740   3.199   2.968   6.361
 8266TIP3    H124741   3.180   2.978   6.267
 8266TIP3    H224742   3.163   3.048   6.401
 8267TIP3   OH224743   6.421   0.153   1.101
 8267TIP3    H124744   6.387   0.067   1.126
 8267TIP3    H224745   6.360   0.184   1.033
 8268TIP3   OH224746   6.494   0.931   2.624
 8268TIP3    H124747   6.562   0.942   2.558
 8268TIP3    H224748   6.436   1.006   2.612
 8269TIP3   OH224749   1.460   5.094   1.146
 8269TIP3    H124750   1.397   5.161   1.174
 8269TIP3    H224751   1.418   5.011   1.170
 8270TIP3   OH224752   4.324   6.327   4.517
 8270TIP3    H124753   4.404   6.325   4.569
 8270TIP3    H224754   4.268   6.260   4.556
 8271TIP3   OH224755   2.528   1.065   6.291
 8271TIP3    H124756   2.439   1.088   6.264
 8271TIP3    H224757   2.524   1.063   6.387
 8272TIP3   OH224758   0.771   7.485   5.386
 8272TIP3    H124759   0.838   7.429   5.423
 8272TIP3    H224760   0.756   7.552   5.453
 8273TIP3   OH224761   0.337   0.441   2.103
 8273TIP3    H124762   0.275   0.416   2.171
 8273TIP3    H224763   0.422   0.446   2.148
 8274TIP3   OH224764   7.095   5.068   5.177
 8274TIP3    H124765   7.027   5.111   5.230
 8274TIP3    H224766   7.164   5.046   5.240
 8275TIP3   OH224767   8.053   1.905   3.479
 8275TIP3    H124768   8.099   1.874   3.401
 8275TIP3    H224769   7.970   1.940   3.446
 8276TIP3   OH224770   4.168   5.996   0.091
 8276TIP3    H124771   4.083   5.955   0.108
 8276TIP3    H224772   4.229   5.923   0.084
 8277TIP3   OH224773   3.253   0.723   4.426
 8277TIP3    H124774   3.290   0.640   4.457
 8277TIP3    H224775   3.236   0.708   4.333
 8278TIP3   OH224776   6.912   5.165   3.763
 8278TIP3    H124777   6.978   5.149   3.695
 8278TIP3    H224778   6.889   5.257   3.754
 8279TIP3   OH224779   4.996   5.369   6.280
 8279TIP3    H124780   4.919   5.425   6.273
 8279TIP3    H224781   4.979   5.315   6.357
 8280TIP3   OH224782   4.974   5.304   2.367
 8280TIP3    H124783   4.928   5.227   2.401
 8280TIP3    H224784   4.907   5.351   2.317
 8281TIP3   OH224785   5.096   0.092   0.424
 8281TIP3    H124786   5.091   0.028   0.353
 8281TIP3    H224787   5.182   0.134   0.413
 8282TIP3   OH224788   4.252   3.950   4.213
 8282TIP3    H124789   4.207   3.872   4.181
 8282TIP3    H224790   4.287   3.992   4.134
 8283TIP3   OH224791   6.097   4.120   3.848
 8283TIP3    H124792   6.027   4.130   3.784
 8283TIP3    H224793   6.159   4.059   3.807
 8284TIP3   OH224794   1.723   7.806   2.132
 8284TIP3    H124795   1.775   7.886   2.128
 8284TIP3    H224796   1.641   7.834   2.175
 8285TIP3   OH224797   0.704   6.890   0.387
 8285TIP3    H124798   0.761   6.946   0.333
 8285TIP3    H224799   0.661   6.951   0.447
 8286TIP3   OH224800   0.689   0.669   1.555
 8286TIP3    H124801   0.734   0.751   1.540
 8286TIP3    H224802   0.621   0.690   1.619
 8287TIP3   OH224803   1.293   3.097   4.993
 8287TIP3    H124804   1.353   3.022   4.985
 8287TIP3    H224805   1.212   3.058   5.027
 8288TIP3   OH224806   5.697   4.676   2.534
 8288TIP3    H124807   5.601   4.675   2.536
 8288TIP3    H224808   5.723   4.622   2.609
 8289TIP3   OH224809   3.439   5.555   1.603
 8289TIP3    H124810   3.386   5.620   1.558
 8289TIP3    H224811   3.388   5.531   1.680
 8290TIP3   OH224812   8.215   6.093   5.605
 8290TIP3    H124813   8.216   6.189   5.606
 8290TIP3    H224814   8.285   6.067   5.665
 8291TIP3   OH224815   0.506   4.693   6.631
 8291TIP3    H124816   0.421   4.719   6.598
 8291TIP3    H224817   0.490   4.668   6.722
 8292TIP3   OH224818   8.162   1.951   0.694
 8292TIP3    H124819   8.184   2.012   0.623
 8292TIP3    H224820   8.241   1.898   0.706
 8293TIP3   OH224821   5.214   3.258   2.056
 8293TIP3    H124822   5.214   3.302   2.141
 8293TIP3    H224823   5.282   3.303   2.006
 8294TIP3   OH224824   1.786   2.950   2.298
 8294TIP3    H124825   1.845   3.001   2.243
 8294TIP3    H224826   1.743   3.015   2.354
 8295TIP3   OH224827   0.371   2.924   2.973
 8295TIP3    H124828   0.350   2.925   2.879
 8295TIP3    H224829   0.313   2.858   3.010
 8296TIP3   OH224830   1.957   3.296   6.712
 8296TIP3    H124831   1.951   3.329   6.623
 8296TIP3    H224832   2.012   3.359   6.758
 8297TIP3   OH224833   1.880   3.894   1.604
 8297TIP3    H124834   1.816   3.875   1.536
 8297TIP3    H224835   1.906   3.985   1.588
 8298TIP3   OH224836   3.140   2.994   5.553
 8298TIP3    H124837   3.160   2.918   5.608
 8298TIP3    H224838   3.087   2.958   5.481
 8299TIP3   OH224839   2.820   7.112   6.749
 8299TIP3    H124840   2.846   7.118   6.657
 8299TIP3    H224841   2.866   7.184   6.792
 8300TIP3   OH224842   2.712   7.078   4.062
 8300TIP3    H124843   2.632   7.104   4.016
 8300TIP3    H224844   2.682   7.047   4.147
 8301TIP3   OH224845   5.306   3.862   6.019
 8301TIP3    H124846   5.243   3.806   5.975
 8301TIP3    H224847   5.316   3.937   5.960
 8302TIP3   OH224848   4.537   5.673   0.576
 8302TIP3    H124849   4.621   5.649   0.613
 8302TIP3    H224850   4.507   5.593   0.532
 8303TIP3   OH224851   5.586   7.150   5.964
 8303TIP3    H124852   5.490   7.149   5.969
 8303TIP3    H224853   5.607   7.096   5.888
 8304TIP3   OH224854   7.050   4.494   0.273
 8304TIP3    H124855   7.033   4.546   0.194
 8304TIP3    H224856   7.073   4.407   0.239
 8305TIP3   OH224857   5.927   0.542   3.867
 8305TIP3    H124858   5.989   0.606   3.833
 8305TIP3    H224859   5.923   0.475   3.799
 8306TIP3   OH224860   3.622   1.783   5.509
 8306TIP3    H124861   3.533   1.807   5.532
 8306TIP3    H224862   3.637   1.701   5.556
 8307TIP3   OH224863   8.055   2.149   2.956
 8307TIP3    H124864   8.105   2.100   2.890
 8307TIP3    H224865   8.031   2.230   2.912
 8308TIP3   OH224866   1.442   4.990   6.332
 8308TIP3    H124867   1.358   5.032   6.312
 8308TIP3    H224868   1.429   4.897   6.312
 8309TIP3   OH224869   6.209   3.054   2.421
 8309TIP3    H124870   6.185   2.963   2.406
 8309TIP3    H224871   6.148   3.104   2.366
 8310TIP3   OH224872   2.945   4.034   1.622
 8310TIP3    H124873   2.887   4.025   1.698
 8310TIP3    H224874   2.965   4.127   1.619
 8311TIP3   OH224875   5.345   5.633   1.889
 8311TIP3    H124876   5.370   5.602   1.976
 8311TIP3    H224877   5.325   5.725   1.901
 8312TIP3   OH224878   4.607   3.559   3.332
 8312TIP3    H124879   4.587   3.634   3.389
 8312TIP3    H224880   4.607   3.484   3.391
 8313TIP3   OH224881   1.113   7.260   5.173
 8313TIP3    H124882   1.148   7.299   5.093
 8313TIP3    H224883   1.019   7.276   5.168
 8314TIP3   OH224884   4.899   2.465   5.824
 8314TIP3    H124885   4.877   2.390   5.880
 8314TIP3    H224886   4.926   2.425   5.741
 8315TIP3   OH224887   2.103   1.476   2.504
 8315TIP3    H124888   2.189   1.435   2.513
 8315TIP3    H224889   2.107   1.552   2.562
 8316TIP3   OH224890   4.606   2.286   6.787
 8316TIP3    H124891   4.613   2.307   6.694
 8316TIP3    H224892   4.563   2.201   6.789
 8317TIP3   OH224893   0.725   5.828   1.834
 8317TIP3    H124894   0.664   5.778   1.780
 8317TIP3    H224895   0.799   5.769   1.848
 8318TIP3   OH224896   4.097   4.248   0.273
 8318TIP3    H124897   4.170   4.202   0.314
 8318TIP3    H224898   4.106   4.228   0.180
 8319TIP3   OH224899   0.542   2.099   4.113
 8319TIP3    H124900   0.482   2.166   4.081
 8319TIP3    H224901   0.589   2.070   4.035
 8320TIP3   OH224902   4.586   0.665   1.863
 8320TIP3    H124903   4.546   0.748   1.839
 8320TIP3    H224904   4.535   0.599   1.817
 8321TIP3   OH224905   7.199   1.309   4.541
 8321TIP3    H124906   7.139   1.383   4.534
 8321TIP3    H224907   7.205   1.274   4.452
 8322TIP3   OH224908   7.509   3.461   2.446
 8322TIP3    H124909   7.440   3.464   2.512
 8322TIP3    H224910   7.496   3.377   2.402
 8323TIP3   OH224911   0.148   0.928   2.491
 8323TIP3    H124912   0.226   0.880   2.517
 8323TIP3    H224913   0.179   1.018   2.477
 8324TIP3   OH224914   3.532   4.105   1.844
 8324TIP3    H124915   3.492   4.159   1.777
 8324TIP3    H224916   3.577   4.167   1.901
 8325TIP3   OH224917   7.045   4.453   2.803
 8325TIP3    H124918   6.978   4.429   2.739
 8325TIP3    H224919   6.995   4.477   2.881
 8326TIP3   OH224920   4.410   1.336   5.859
 8326TIP3    H124921   4.402   1.245   5.830
 8326TIP3    H224922   4.322   1.371   5.854
 8327TIP3   OH224923   3.906   0.703   1.473
 8327TIP3    H124924   3.894   0.794   1.448
 8327TIP3    H224925   3.985   0.703   1.528
 8328TIP3   OH224926   2.762   4.872   4.592
 8328TIP3    H124927   2.820   4.930   4.542
 8328TIP3    H224928   2.786   4.784   4.565
 8329TIP3   OH224929   6.998   5.318   2.902
 8329TIP3    H124930   7.062   5.307   2.832
 8329TIP3    H224931   6.915   5.332   2.857
 8330TIP3   OH224932   1.926   5.668   5.265
 8330TIP3    H124933   1.908   5.670   5.171
 8330TIP3    H224934   1.893   5.583   5.294
 8331TIP3   OH224935   6.643   0.010   1.067
 8331TIP3    H124936   6.721   0.056   1.096
 8331TIP3    H224937   6.571   0.070   1.088
 8332TIP3   OH224938   1.184   0.143   1.961
 8332TIP3    H124939   1.091   0.135   1.940
 8332TIP3    H224940   1.220   0.200   1.893
 8333TIP3   OH224941   7.845   7.328   4.679
 8333TIP3    H124942   7.889   7.410   4.653
 8333TIP3    H224943   7.793   7.352   4.756
 8334TIP3   OH224944   0.496   7.358   5.330
 8334TIP3    H124945   0.539   7.311   5.401
 8334TIP3    H224946   0.521   7.310   5.251
 8335TIP3   OH224947   4.873   3.120   4.374
 8335TIP3    H124948   4.852   3.029   4.393
 8335TIP3    H224949   4.969   3.123   4.372
 8336TIP3   OH224950   5.928   2.503   0.675
 8336TIP3    H124951   5.933   2.434   0.608
 8336TIP3    H224952   5.937   2.584   0.625
 8337TIP3   OH224953   4.031   7.728   5.382
 8337TIP3    H124954   4.107   7.734   5.440
 8337TIP3    H224955   3.988   7.813   5.390
 8338TIP3   OH224956   7.317   5.044   2.010
 8338TIP3    H124957   7.330   4.950   1.997
 8338TIP3    H224958   7.405   5.081   2.005
 8339TIP3   OH224959   5.433   4.280   0.194
 8339TIP3    H124960   5.469   4.358   0.152
 8339TIP3    H224961   5.409   4.310   0.282
 8340TIP3   OH224962   4.732   2.185   6.358
 8340TIP3    H124963   4.726   2.206   6.452
 8340TIP3    H224964   4.660   2.232   6.318
 8341TIP3   OH224965   1.193   2.241   2.638
 8341TIP3    H124966   1.231   2.165   2.681
 8341TIP3    H224967   1.267   2.300   2.623
 8342TIP3   OH224968   2.532   5.922   3.302
 8342TIP3    H124969   2.498   5.833   3.305
 8342TIP3    H224970   2.478   5.966   3.237
 8343TIP3   OH224971   8.126   6.301   2.963
 8343TIP3    H124972   8.074   6.220   2.958
 8343TIP3    H224973   8.130   6.321   3.056
 8344TIP3   OH224974   4.841   5.971   1.778
 8344TIP3    H124975   4.794   6.052   1.798
 8344TIP3    H224976   4.868   5.981   1.687
 8345TIP3   OH224977   0.017   4.012   6.210
 8345TIP3    H124978   0.089   3.952   6.192
 8345TIP3    H224979  -0.019   4.033   6.124
 8346TIP3   OH224980   0.766   3.481   2.521
 8346TIP3    H124981   0.728   3.520   2.442
 8346TIP3    H224982   0.808   3.401   2.491
 8347TIP3   OH224983   2.269   5.925   1.748
 8347TIP3    H124984   2.282   6.007   1.795
 8347TIP3    H224985   2.195   5.942   1.690
 8348TIP3   OH224986   4.538   4.298   4.525
 8348TIP3    H124987   4.529   4.206   4.501
 8348TIP3    H224988   4.569   4.297   4.615
 8349TIP3   OH224989   7.930   2.012   4.097
 8349TIP3    H124990   8.020   1.992   4.124
 8349TIP3    H224991   7.920   1.967   4.013
 8350TIP3   OH224992   0.691   4.899   1.996
 8350TIP3    H124993   0.635   4.822   2.008
 8350TIP3    H224994   0.711   4.900   1.902
 8351TIP3   OH224995   4.140   1.459   6.281
 8351TIP3    H124996   4.166   1.523   6.347
 8351TIP3    H224997   4.091   1.393   6.330
 8352TIP3   OH224998   4.970   1.137   6.015
 8352TIP3    H124999   5.010   1.081   6.082
 8352TIP3    H225000   5.042   1.156   5.954
 8353TIP3   OH225001   5.903   5.241   2.322
 8353TIP3    H125002   5.949   5.223   2.240
 8353TIP3    H225003   5.887   5.155   2.360
 8354TIP3   OH225004   0.397   4.478   2.541
 8354TIP3    H125005   0.454   4.538   2.588
 8354TIP3    H225006   0.421   4.391   2.574
 8355TIP3   OH225007   4.443   0.390   0.272
 8355TIP3    H125008   4.484   0.464   0.228
 8355TIP3    H225009   4.367   0.369   0.218
 8356TIP3   OH225010   0.588   4.605   3.404
 8356TIP3    H125011   0.505   4.634   3.366
 8356TIP3    H225012   0.569   4.594   3.497
 8357TIP3   OH225013   0.937   3.495   5.764
 8357TIP3    H125014   0.888   3.526   5.840
 8357TIP3    H225015   0.928   3.566   5.699
 8358TIP3   OH225016   2.066   4.897   4.193
 8358TIP3    H125017   2.030   4.808   4.198
 8358TIP3    H225018   1.992   4.954   4.211
 8359TIP3   OH225019   3.373   1.239   1.366
 8359TIP3    H125020   3.290   1.267   1.406
 8359TIP3    H225021   3.348   1.176   1.299
 8360TIP3   OH225022   0.038   6.567   5.806
 8360TIP3    H125023   0.074   6.517   5.879
 8360TIP3    H225024  -0.034   6.617   5.845
 8361TIP3   OH225025   5.869   6.717   3.403
 8361TIP3    H125026   5.944   6.734   3.460
 8361TIP3    H225027   5.908   6.692   3.319
 8362TIP3   OH225028   4.282   2.700   4.975
 8362TIP3    H125029   4.211   2.758   4.948
 8362TIP3    H225030   4.353   2.759   5.001
 8363TIP3   OH225031   1.482   4.619   0.261
 8363TIP3    H125032   1.528   4.583   0.336
 8363TIP3    H225033   1.546   4.674   0.217
 8364TIP3   OH225034   6.842   0.759   6.123
 8364TIP3    H125035   6.803   0.706   6.192
 8364TIP3    H225036   6.919   0.798   6.164
 8365TIP3   OH225037   7.617   3.795   4.710
 8365TIP3    H125038   7.658   3.773   4.626
 8365TIP3    H225039   7.688   3.835   4.761
 8366TIP3   OH225040   1.007   5.592   5.907
 8366TIP3    H125041   1.012   5.520   5.969
 8366TIP3    H225042   1.024   5.670   5.959
 8367TIP3   OH225043   5.557   5.005   1.509
 8367TIP3    H125044   5.478   4.955   1.530
 8367TIP3    H225045   5.581   4.975   1.421
 8368TIP3   OH225046   0.975   6.505   4.609
 8368TIP3    H125047   0.982   6.509   4.513
 8368TIP3    H225048   0.977   6.596   4.637
 8369TIP3   OH225049   1.975   5.019   6.452
 8369TIP3    H125050   1.886   4.982   6.450
 8369TIP3    H225051   1.967   5.098   6.506
 8370TIP3   OH225052   8.084   1.762   5.327
 8370TIP3    H125053   8.115   1.849   5.301
 8370TIP3    H225054   8.052   1.723   5.246
 8371TIP3   OH225055   4.375   2.741   6.650
 8371TIP3    H125056   4.375   2.794   6.730
 8371TIP3    H225057   4.325   2.663   6.674
 8372TIP3   OH225058   3.855   7.177   4.783
 8372TIP3    H125059   3.848   7.170   4.878
 8372TIP3    H225060   3.912   7.253   4.769
 8373TIP3   OH225061   3.684   0.284   5.944
 8373TIP3    H125062   3.744   0.218   5.978
 8373TIP3    H225063   3.600   0.264   5.984
 8374TIP3   OH225064   3.624   5.697   2.781
 8374TIP3    H125065   3.561   5.652   2.836
 8374TIP3    H225066   3.683   5.741   2.842
 8375TIP3   OH225067   5.834   0.170   1.658
 8375TIP3    H125068   5.774   0.121   1.714
 8375TIP3    H225069   5.840   0.256   1.700
 8376TIP3   OH225070   4.254   6.771   2.610
 8376TIP3    H125071   4.176   6.806   2.652
 8376TIP3    H225072   4.239   6.677   2.606
 8377TIP3   OH225073   2.474   6.988   3.650
 8377TIP3    H125074   2.492   7.025   3.564
 8377TIP3    H225075   2.392   6.938   3.638
 8378TIP3   OH225076   2.415   1.188   2.330
 8378TIP3    H125077   2.364   1.175   2.410
 8378TIP3    H225078   2.383   1.121   2.270
 8379TIP3   OH225079   1.920   5.539   2.416
 8379TIP3    H125080   1.956   5.469   2.470
 8379TIP3    H225081   1.838   5.503   2.381
 8380TIP3   OH225082   6.630   2.068   2.830
 8380TIP3    H125083   6.548   2.110   2.857
 8380TIP3    H225084   6.655   2.113   2.749
 8381TIP3   OH225085   1.536   5.664   6.176
 8381TIP3    H125086   1.499   5.631   6.258
 8381TIP3    H225087   1.600   5.730   6.204
 8382TIP3   OH225088   6.875   0.616   6.750
 8382TIP3    H125089   6.903   0.625   6.841
 8382TIP3    H225090   6.807   0.682   6.739
 8383TIP3   OH225091   7.691   6.582   2.307
 8383TIP3    H125092   7.766   6.589   2.249
 8383TIP3    H225093   7.633   6.653   2.280
 8384TIP3   OH225094   2.519   4.807   3.200
 8384TIP3    H125095   2.431   4.800   3.237
 8384TIP3    H225096   2.577   4.806   3.277
 8385TIP3   OH225097   2.370   1.801   2.027
 8385TIP3    H125098   2.327   1.856   2.093
 8385TIP3    H225099   2.439   1.858   1.991
 8386TIP3   OH225100   6.277   6.692   5.008
 8386TIP3    H125101   6.281   6.643   4.926
 8386TIP3    H225102   6.287   6.625   5.076
 8387TIP3   OH225103   2.531   1.428   2.677
 8387TIP3    H125104   2.518   1.364   2.747
 8387TIP3    H225105   2.450   1.422   2.625
 8388TIP3   OH225106   1.513   2.561   4.623
 8388TIP3    H125107   1.503   2.486   4.565
 8388TIP3    H225108   1.500   2.525   4.711
 8389TIP3   OH225109   3.702   4.955   4.842
 8389TIP3    H125110   3.737   5.044   4.848
 8389TIP3    H225111   3.773   4.903   4.805
 8390TIP3   OH225112   2.569   3.611   3.180
 8390TIP3    H125113   2.562   3.582   3.089
 8390TIP3    H225114   2.482   3.643   3.202
 8391TIP3   OH225115   8.092   6.563   4.210
 8391TIP3    H125116   8.009   6.575   4.256
 8391TIP3    H225117   8.148   6.634   4.243
 8392TIP3   OH225118   2.626   2.272   6.069
 8392TIP3    H125119   2.660   2.227   6.147
 8392TIP3    H225120   2.700   2.273   6.008
 8393TIP3   OH225121   6.370   1.044   4.484
 8393TIP3    H125122   6.405   1.119   4.437
 8393TIP3    H225123   6.284   1.072   4.515
 8394TIP3   OH225124   1.693   2.463   1.002
 8394TIP3    H125125   1.728   2.422   0.923
 8394TIP3    H225126   1.614   2.509   0.973
 8395TIP3   OH225127   0.231   5.054   5.166
 8395TIP3    H125128   0.322   5.069   5.191
 8395TIP3    H225129   0.181   5.117   5.217
 8396TIP3   OH225130   7.913   1.418   4.790
 8396TIP3    H125131   7.865   1.384   4.866
 8396TIP3    H225132   7.933   1.508   4.813
 8397TIP3   OH225133   0.549   3.122   3.697
 8397TIP3    H125134   0.512   3.034   3.694
 8397TIP3    H225135   0.479   3.176   3.734
 8398TIP3   OH225136   2.923   1.089   3.759
 8398TIP3    H125137   2.857   1.089   3.689
 8398TIP3    H225138   2.873   1.099   3.840
 8399TIP3   OH225139   7.136   3.254   4.648
 8399TIP3    H125140   7.203   3.318   4.671
 8399TIP3    H225141   7.056   3.307   4.639
 8400TIP3   OH225142   1.718   3.265   3.008
 8400TIP3    H125143   1.740   3.272   3.101
 8400TIP3    H225144   1.655   3.194   3.004
 8401TIP3   OH225145   1.740   0.987   6.672
 8401TIP3    H125146   1.779   0.938   6.599
 8401TIP3    H225147   1.730   1.076   6.638
 8402TIP3   OH225148   7.972   4.174   6.107
 8402TIP3    H125149   7.896   4.228   6.126
 8402TIP3    H225150   7.936   4.089   6.083
 8403TIP3   OH225151   1.823   3.607   0.687
 8403TIP3    H125152   1.743   3.661   0.684
 8403TIP3    H225153   1.830   3.570   0.599
 8404TIP3   OH225154   5.491   0.534   4.141
 8404TIP3    H125155   5.553   0.506   4.209
 8404TIP3    H225156   5.460   0.452   4.102
 8405TIP3   OH225157   4.936   4.064   5.105
 8405TIP3    H125158   4.922   4.008   5.181
 8405TIP3    H225159   4.850   4.067   5.062
 8406TIP3   OH225160   3.854   6.989   2.287
 8406TIP3    H125161   3.884   7.010   2.375
 8406TIP3    H225162   3.931   7.001   2.231
 8407TIP3   OH225163   6.494   4.446   1.262
 8407TIP3    H125164   6.520   4.510   1.196
 8407TIP3    H225165   6.456   4.374   1.212
 8408TIP3   OH225166   2.264   6.740   5.863
 8408TIP3    H125167   2.321   6.699   5.798
 8408TIP3    H225168   2.199   6.673   5.883
 8409TIP3   OH225169   0.230   6.891   0.812
 8409TIP3    H125170   0.325   6.887   0.803
 8409TIP3    H225171   0.200   6.802   0.792
 8410TIP3   OH225172   2.525   1.269   5.060
 8410TIP3    H125173   2.620   1.271   5.068
 8410TIP3    H225174   2.509   1.267   4.966
 8411TIP3   OH225175   5.032   0.759   5.503
 8411TIP3    H125176   5.090   0.740   5.577
 8411TIP3    H225177   5.090   0.797   5.437
 8412TIP3   OH225178   7.664   1.600   4.951
 8412TIP3    H125179   7.657   1.505   4.944
 8412TIP3    H225180   7.606   1.634   4.882
 8413TIP3   OH225181   3.245   7.309   6.448
 8413TIP3    H125182   3.258   7.398   6.480
 8413TIP3    H225183   3.333   7.271   6.445
 8414TIP3   OH225184   3.192   2.303   2.809
 8414TIP3    H125185   3.272   2.310   2.862
 8414TIP3    H225186   3.121   2.322   2.870
 8415TIP3   OH225187   4.818   1.625   0.544
 8415TIP3    H125188   4.724   1.644   0.545
 8415TIP3    H225189   4.857   1.701   0.503
 8416TIP3   OH225190   7.621   1.058   2.635
 8416TIP3    H125191   7.713   1.083   2.644
 8416TIP3    H225192   7.572   1.135   2.664
 8417TIP3   OH225193   1.472   3.197   2.755
 8417TIP3    H125194   1.543   3.143   2.720
 8417TIP3    H225195   1.453   3.159   2.840
 8418TIP3   OH225196   6.938   5.857   5.643
 8418TIP3    H125197   6.953   5.898   5.558
 8418TIP3    H225198   6.925   5.930   5.703
 8419TIP3   OH225199   4.147   7.108   4.233
 8419TIP3    H125200   4.156   7.092   4.139
 8419TIP3    H225201   4.065   7.157   4.242
 8420TIP3   OH225202   5.054   7.031   1.270
 8420TIP3    H125203   5.080   6.956   1.323
 8420TIP3    H225204   5.116   7.031   1.197
 8421TIP3   OH225205   3.859   6.861   4.054
 8421TIP3    H125206   3.783   6.822   4.097
 8421TIP3    H225207   3.839   6.954   4.049
 8422TIP3   OH225208   6.583   3.845   4.544
 8422TIP3    H125209   6.616   3.910   4.608
 8422TIP3    H225210   6.530   3.897   4.484
 8423TIP3   OH225211   5.479   1.949   1.401
 8423TIP3    H125212   5.546   1.970   1.466
 8423TIP3    H225213   5.474   2.027   1.346
 8424TIP3   OH225214   6.820   1.157   2.187
 8424TIP3    H125215   6.800   1.153   2.093
 8424TIP3    H225216   6.897   1.214   2.192
 8425TIP3   OH225217   2.752   6.974   6.051
 8425TIP3    H125218   2.844   6.993   6.031
 8425TIP3    H225219   2.705   7.050   6.018
 8426TIP3   OH225220   3.317   4.987   5.937
 8426TIP3    H125221   3.407   5.020   5.935
 8426TIP3    H225222   3.308   4.936   5.857
 8427TIP3   OH225223   4.028   6.822   2.757
 8427TIP3    H125224   3.987   6.905   2.782
 8427TIP3    H225225   3.990   6.758   2.817
 8428TIP3   OH225226   7.448   6.771   1.865
 8428TIP3    H125227   7.463   6.849   1.919
 8428TIP3    H225228   7.427   6.702   1.928
 8429TIP3   OH225229   4.377  -0.025   0.685
 8429TIP3    H125230   4.388   0.063   0.720
 8429TIP3    H225231   4.291  -0.053   0.717
 8430TIP3   OH225232   7.894   6.249   3.820
 8430TIP3    H125233   7.877   6.332   3.775
 8430TIP3    H225234   7.857   6.182   3.763
 8431TIP3   OH225235   7.282   2.660   4.000
 8431TIP3    H125236   7.287   2.739   3.946
 8431TIP3    H225237   7.316   2.591   3.943
 8432TIP3   OH225238   7.814   6.085   4.545
 8432TIP3    H125239   7.905   6.099   4.520
 8432TIP3    H225240   7.799   5.991   4.532
 8433TIP3   OH225241   6.695   7.278   3.636
 8433TIP3    H125242   6.788   7.276   3.660
 8433TIP3    H225243   6.675   7.187   3.614
 8434TIP3   OH225244   5.192   3.707   2.432
 8434TIP3    H125245   5.198   3.773   2.363
 8434TIP3    H225246   5.280   3.705   2.470
 8435TIP3   OH225247   0.913   7.702   3.347
 8435TIP3    H125248   0.861   7.635   3.391
 8435TIP3    H225249   0.889   7.783   3.391
 8436TIP3   OH225250   6.730   4.439   3.377
 8436TIP3    H125251   6.820   4.412   3.357
 8436TIP3    H225252   6.676   4.388   3.318
 8437TIP3   OH225253   4.465   7.136   3.203
 8437TIP3    H125254   4.551   7.115   3.169
 8437TIP3    H225255   4.435   7.056   3.246
 8438TIP3   OH225256   0.119   3.897   4.519
 8438TIP3    H125257   0.073   3.982   4.519
 8438TIP3    H225258   0.129   3.875   4.612
 8439TIP3   OH225259   0.457   5.659   6.548
 8439TIP3    H125260   0.405   5.740   6.543
 8439TIP3    H225261   0.511   5.670   6.626
 8440TIP3   OH225262   6.478   3.151   0.870
 8440TIP3    H125263   6.537   3.198   0.811
 8440TIP3    H225264   6.535   3.093   0.920
 8441TIP3   OH225265   3.070   2.374   5.591
 8441TIP3    H125266   3.088   2.384   5.684
 8441TIP3    H225267   3.136   2.428   5.548
 8442TIP3   OH225268   2.051   4.627   4.491
 8442TIP3    H125269   2.124   4.581   4.451
 8442TIP3    H225270   1.988   4.638   4.420
 8443TIP3   OH225271   6.638   3.685   0.985
 8443TIP3    H125272   6.702   3.617   0.967
 8443TIP3    H225273   6.638   3.694   1.080
 8444TIP3   OH225274   3.973   3.263   2.778
 8444TIP3    H125275   4.032   3.308   2.718
 8444TIP3    H225276   3.968   3.320   2.854
 8445TIP3   OH225277   7.841   5.603   2.630
 8445TIP3    H125278   7.770   5.668   2.626
 8445TIP3    H225279   7.918   5.654   2.653
 8446TIP3   OH225280   6.788   2.748   3.149
 8446TIP3    H125281   6.819   2.832   3.183
 8446TIP3    H225282   6.695   2.762   3.131
 8447TIP3   OH225283   0.017   0.486   4.831
 8447TIP3    H125284   0.097   0.442   4.800
 8447TIP3    H225285   0.008   0.459   4.922
 8448TIP3   OH225286   1.644   4.782   4.245
 8448TIP3    H125287   1.702   4.841   4.197
 8448TIP3    H225288   1.561   4.785   4.197
 8449TIP3   OH225289   2.036   6.619   3.124
 8449TIP3    H125290   1.967   6.553   3.115
 8449TIP3    H225291   1.991   6.696   3.158
 8450TIP3   OH225292   3.552   6.931   0.813
 8450TIP3    H125293   3.545   6.869   0.740
 8450TIP3    H225294   3.502   7.007   0.785
 8451TIP3   OH225295   5.012   5.886   5.776
 8451TIP3    H125296   4.922   5.903   5.804
 8451TIP3    H225297   5.041   5.970   5.741
 8452TIP3   OH225298   4.178   1.487   5.811
 8452TIP3    H125299   4.131   1.569   5.794
 8452TIP3    H225300   4.115   1.434   5.861
 8453TIP3   OH225301   0.399   5.174   1.360
 8453TIP3    H125302   0.492   5.190   1.345
 8453TIP3    H225303   0.364   5.153   1.273
 8454TIP3   OH225304   4.246   4.397   1.542
 8454TIP3    H125305   4.254   4.402   1.638
 8454TIP3    H225306   4.163   4.352   1.528
 8455TIP3   OH225307   7.826   0.580   0.128
 8455TIP3    H125308   7.799   0.548   0.042
 8455TIP3    H225309   7.839   0.500   0.180
 8456TIP3   OH225310   2.111   3.667   2.331
 8456TIP3    H125311   2.128   3.722   2.407
 8456TIP3    H225312   2.151   3.582   2.353
 8457TIP3   OH225313   0.158   0.423   4.260
 8457TIP3    H125314   0.209   0.476   4.198
 8457TIP3    H225315   0.163   0.334   4.225
 8458TIP3   OH225316   2.031   4.132   3.193
 8458TIP3    H125317   2.014   4.194   3.263
 8458TIP3    H225318   2.090   4.067   3.232
 8459TIP3   OH225319   0.833   1.768   2.570
 8459TIP3    H125320   0.828   1.751   2.476
 8459TIP3    H225321   0.779   1.700   2.610
 8460TIP3   OH225322   6.244   2.686   3.983
 8460TIP3    H125323   6.178   2.653   3.921
 8460TIP3    H225324   6.214   2.654   4.068
 8461TIP3   OH225325   6.458   6.233   1.562
 8461TIP3    H125326   6.375   6.212   1.518
 8461TIP3    H225327   6.435   6.239   1.655
 8462TIP3   OH225328   3.884   5.409   4.534
 8462TIP3    H125329   3.822   5.384   4.465
 8462TIP3    H225330   3.845   5.488   4.573
 8463TIP3   OH225331   0.221   4.287   0.400
 8463TIP3    H125332   0.153   4.314   0.338
 8463TIP3    H225333   0.176   4.282   0.484
 8464TIP3   OH225334   1.388   6.508   0.398
 8464TIP3    H125335   1.481   6.488   0.392
 8464TIP3    H225336   1.355   6.495   0.309
 8465TIP3   OH225337   0.574   3.610   3.475
 8465TIP3    H125338   0.482   3.595   3.454
 8465TIP3    H225339   0.599   3.684   3.419
 8466TIP3   OH225340   5.919   4.004   0.884
 8466TIP3    H125341   5.881   4.092   0.885
 8466TIP3    H225342   6.009   4.018   0.855
 8467TIP3   OH225343   1.743   7.383   3.920
 8467TIP3    H125344   1.727   7.393   4.014
 8467TIP3    H225345   1.675   7.436   3.879
 8468TIP3   OH225346   2.161   5.874   4.711
 8468TIP3    H125347   2.147   5.833   4.797
 8468TIP3    H225348   2.146   5.803   4.649
 8469TIP3   OH225349   7.284   3.839   0.841
 8469TIP3    H125350   7.235   3.761   0.818
 8469TIP3    H225351   7.307   3.879   0.757
 8470TIP3   OH225352   5.131   4.698   1.680
 8470TIP3    H125353   5.126   4.657   1.766
 8470TIP3    H225354   5.047   4.678   1.639
 8471TIP3   OH225355   0.953   6.742   1.448
 8471TIP3    H125356   0.930   6.649   1.446
 8471TIP3    H225357   1.044   6.743   1.480
 8472TIP3   OH225358   1.284   3.730   4.482
 8472TIP3    H125359   1.232   3.649   4.484
 8472TIP3    H225360   1.258   3.774   4.401
 8473TIP3   OH225361   6.529   3.127  -0.010
 8473TIP3    H125362   6.618   3.137  -0.045
 8473TIP3    H225363   6.494   3.049  -0.054
 8474TIP3   OH225364   6.671   7.183   0.408
 8474TIP3    H125365   6.586   7.138   0.409
 8474TIP3    H225366   6.669   7.240   0.485
 8475TIP3   OH225367   3.349   6.745   3.431
 8475TIP3    H125368   3.368   6.791   3.513
 8475TIP3    H225369   3.254   6.735   3.431
 8476TIP3   OH225370   5.488   7.563   4.819
 8476TIP3    H125371   5.531   7.503   4.879
 8476TIP3    H225372   5.553   7.630   4.800
 8477TIP3   OH225373   0.987   6.396   0.726
 8477TIP3    H125374   1.074   6.426   0.698
 8477TIP3    H225375   0.930   6.419   0.653
 8478TIP3   OH225376   5.284   7.341   5.337
 8478TIP3    H125377   5.230   7.339   5.258
 8478TIP3    H225378   5.246   7.410   5.391
 8479TIP3   OH225379   6.781   5.811   5.997
 8479TIP3    H125380   6.832   5.791   5.918
 8479TIP3    H225381   6.695   5.836   5.965
 8480TIP3   OH225382   1.422   4.904   5.778
 8480TIP3    H125383   1.341   4.854   5.771
 8480TIP3    H225384   1.481   4.848   5.827
 8481TIP3   OH225385   7.994   7.191   3.980
 8481TIP3    H125386   7.984   7.165   3.888
 8481TIP3    H225387   8.088   7.184   3.997
 8482TIP3   OH225388   5.933   2.560   4.021
 8482TIP3    H125389   5.992   2.541   3.948
 8482TIP3    H225390   5.918   2.474   4.061
 8483TIP3   OH225391   7.971   7.590   4.623
 8483TIP3    H125392   7.977   7.631   4.537
 8483TIP3    H225393   8.059   7.599   4.660
 8484TIP3   OH225394   0.534   5.520   3.994
 8484TIP3    H125395   0.445   5.544   4.020
 8484TIP3    H225396   0.583   5.519   4.076
 8485TIP3   OH225397   2.188   3.150   3.344
 8485TIP3    H125398   2.208   3.165   3.436
 8485TIP3    H225399   2.208   3.057   3.330
 8486TIP3   OH225400   6.382   0.351   2.790
 8486TIP3    H125401   6.468   0.320   2.762
 8486TIP3    H225402   6.399   0.439   2.824
 8487TIP3   OH225403   2.220   4.626   5.842
 8487TIP3    H125404   2.284   4.671   5.897
 8487TIP3    H225405   2.239   4.533   5.853
 8488TIP3   OH225406   4.223   4.301   5.421
 8488TIP3    H125407   4.226   4.389   5.383
 8488TIP3    H225408   4.315   4.276   5.433
 8489TIP3   OH225409   6.590   0.321   1.352
 8489TIP3    H125410   6.538   0.265   1.295
 8489TIP3    H225411   6.600   0.402   1.304
 8490TIP3   OH225412   5.404   6.543   3.314
 8490TIP3    H125413   5.486   6.538   3.265
 8490TIP3    H225414   5.428   6.586   3.396
 8491TIP3   OH225415   3.888   7.775   0.387
 8491TIP3    H125416   3.935   7.842   0.436
 8491TIP3    H225417   3.811   7.755   0.440
 8492TIP3   OH225418   1.287   7.632   0.256
 8492TIP3    H125419   1.310   7.596   0.342
 8492TIP3    H225420   1.318   7.722   0.258
 8493TIP3   OH225421   7.486   0.655   3.968
 8493TIP3    H125422   7.403   0.643   3.921
 8493TIP3    H225423   7.538   0.578   3.945
 8494TIP3   OH225424   3.339   0.473   4.526
 8494TIP3    H125425   3.420   0.448   4.571
 8494TIP3    H225426   3.270   0.438   4.581
 8495TIP3   OH225427   0.854   4.122   4.542
 8495TIP3    H125428   0.763   4.115   4.571
 8495TIP3    H225429   0.886   4.203   4.581
 8496TIP3   OH225430   5.839   4.834   1.428
 8496TIP3    H125431   5.829   4.897   1.356
 8496TIP3    H225432   5.793   4.874   1.502
 8497TIP3   OH225433   1.738   7.074   4.001
 8497TIP3    H125434   1.722   7.155   3.954
 8497TIP3    H225435   1.801   7.097   4.069
 8498TIP3   OH225436   0.259   4.095   0.719
 8498TIP3    H125437   0.223   4.091   0.808
 8498TIP3    H225438   0.354   4.091   0.732
 8499TIP3   OH225439   5.542   5.999   2.135
 8499TIP3    H125440   5.460   5.951   2.123
 8499TIP3    H225441   5.566   6.027   2.046
 8500TIP3   OH225442   4.549   5.528   2.202
 8500TIP3    H125443   4.456   5.515   2.188
 8500TIP3    H225444   4.560   5.519   2.297
 8501TIP3   OH225445   5.819   1.744   5.756
 8501TIP3    H125446   5.739   1.782   5.720
 8501TIP3    H225447   5.836   1.795   5.835
 8502TIP3   OH225448   2.599   6.394   1.191
 8502TIP3    H125449   2.557   6.417   1.275
 8502TIP3    H225450   2.533   6.344   1.144
 8503TIP3   OH225451   7.892   2.298   4.110
 8503TIP3    H125452   7.904   2.203   4.109
 8503TIP3    H225453   7.844   2.316   4.030
 8504TIP3   OH225454   6.997   1.868   3.484
 8504TIP3    H125455   7.046   1.798   3.440
 8504TIP3    H225456   6.939   1.903   3.416
 8505TIP3   OH225457   2.667   2.931   6.751
 8505TIP3    H125458   2.748   2.978   6.730
 8505TIP3    H225459   2.663   2.860   6.687
 8506TIP3   OH225460   8.101   5.600   6.334
 8506TIP3    H125461   8.059   5.648   6.262
 8506TIP3    H225462   8.183   5.647   6.349
 8507TIP3   OH225463   0.561   2.323   0.428
 8507TIP3    H125464   0.535   2.365   0.346
 8507TIP3    H225465   0.649   2.356   0.445
 8508TIP3   OH225466   2.350   5.000   1.864
 8508TIP3    H125467   2.319   5.045   1.942
 8508TIP3    H225468   2.277   5.003   1.803
 8509TIP3   OH225469   2.494   2.208   4.644
 8509TIP3    H125470   2.426   2.149   4.676
 8509TIP3    H225471   2.452   2.294   4.642
 8510TIP3   OH225472   2.823   7.460   6.608
 8510TIP3    H125473   2.837   7.499   6.521
 8510TIP3    H225474   2.901   7.483   6.658
 8511TIP3   OH225475   3.721   1.251   6.350
 8511TIP3    H125476   3.705   1.321   6.287
 8511TIP3    H225477   3.649   1.259   6.413
 8512TIP3   OH225478   8.149   5.806   3.659
 8512TIP3    H125479   8.210   5.776   3.727
 8512TIP3    H225480   8.149   5.902   3.667
 8513TIP3   OH225481   5.977   2.010   0.764
 8513TIP3    H125482   5.957   1.966   0.682
 8513TIP3    H225483   5.892   2.025   0.805
 8514TIP3   OH225484   1.161   2.851   1.525
 8514TIP3    H125485   1.194   2.920   1.582
 8514TIP3    H225486   1.082   2.889   1.485
 8515TIP3   OH225487   7.591   1.880   0.673
 8515TIP3    H125488   7.518   1.821   0.695
 8515TIP3    H225489   7.650   1.875   0.748
 8516TIP3   OH225490   7.452   5.144   4.176
 8516TIP3    H125491   7.485   5.228   4.208
 8516TIP3    H225492   7.443   5.089   4.254
 8517TIP3   OH225493   8.211   4.564   6.646
 8517TIP3    H125494   8.226   4.574   6.740
 8517TIP3    H225495   8.147   4.493   6.639
 8518TIP3   OH225496   3.145   0.211   1.611
 8518TIP3    H125497   3.128   0.117   1.599
 8518TIP3    H225498   3.103   0.253   1.536
 8519TIP3   OH225499   1.172   2.521   2.930
 8519TIP3    H125500   1.183   2.479   3.015
 8519TIP3    H225501   1.077   2.528   2.919
 8520TIP3   OH225502   0.968   2.422   0.175
 8520TIP3    H125503   0.887   2.394   0.133
 8520TIP3    H225504   0.954   2.407   0.268
 8521TIP3   OH225505   3.102   5.853   5.945
 8521TIP3    H125506   3.188   5.829   5.979
 8521TIP3    H225507   3.041   5.803   5.998
 8522TIP3   OH225508   2.189   2.259   2.516
 8522TIP3    H125509   2.230   2.234   2.599
 8522TIP3    H225510   2.150   2.178   2.483
 8523TIP3   OH225511   1.285   5.989   2.291
 8523TIP3    H125512   1.200   6.010   2.251
 8523TIP3    H225513   1.272   6.003   2.385
 8524TIP3   OH225514   2.268   5.598   4.935
 8524TIP3    H125515   2.337   5.657   4.905
 8524TIP3    H225516   2.199   5.656   4.967
 8525TIP3   OH225517   6.264   5.644   1.525
 8525TIP3    H125518   6.286   5.588   1.599
 8525TIP3    H225519   6.343   5.644   1.470
 8526TIP3   OH225520   4.209   4.526   3.313
 8526TIP3    H125521   4.121   4.504   3.341
 8526TIP3    H225522   4.212   4.502   3.220
 8527TIP3   OH225523   1.503   0.848   0.291
 8527TIP3    H125524   1.558   0.905   0.236
 8527TIP3    H225525   1.414   0.867   0.264
 8528TIP3   OH225526   1.185   0.425   3.959
 8528TIP3    H125527   1.133   0.505   3.956
 8528TIP3    H225528   1.251   0.442   4.025
 8529TIP3   OH225529   1.356   0.657   2.180
 8529TIP3    H125530   1.320   0.697   2.259
 8529TIP3    H225531   1.340   0.721   2.111
 8530TIP3   OH225532   1.731   5.038   5.442
 8530TIP3    H125533   1.716   5.068   5.531
 8530TIP3    H225534   1.701   5.110   5.387
 8531TIP3   OH225535   3.214   2.600   1.683
 8531TIP3    H125536   3.202   2.607   1.777
 8531TIP3    H225537   3.291   2.545   1.672
 8532TIP3   OH225538   5.737   4.498   5.271
 8532TIP3    H125539   5.660   4.521   5.322
 8532TIP3    H225540   5.802   4.564   5.295
 8533TIP3   OH225541   5.708   3.968   4.934
 8533TIP3    H125542   5.698   3.883   4.977
 8533TIP3    H225543   5.765   4.018   4.993
 8534TIP3   OH225544   0.276   1.344   4.012
 8534TIP3    H125545   0.237   1.295   3.940
 8534TIP3    H225546   0.351   1.389   3.972
 8535TIP3   OH225547   6.799   6.139   1.300
 8535TIP3    H125548   6.833   6.056   1.332
 8535TIP3    H225549   6.723   6.115   1.247
 8536TIP3   OH225550   8.120   5.232   0.044
 8536TIP3    H125551   8.063   5.222   0.120
 8536TIP3    H225552   8.208   5.220   0.079
 8537TIP3   OH225553   3.075   4.274   4.599
 8537TIP3    H125554   3.057   4.364   4.573
 8537TIP3    H225555   3.161   4.254   4.563
 8538TIP3   OH225556   2.408   5.973   0.567
 8538TIP3    H125557   2.338   6.009   0.622
 8538TIP3    H225558   2.401   5.878   0.578
 8539TIP3   OH225559   3.528   2.353   3.505
 8539TIP3    H125560   3.453   2.365   3.448
 8539TIP3    H225561   3.588   2.299   3.454
 8540TIP3   OH225562   2.480   7.587   1.033
 8540TIP3    H125563   2.536   7.561   0.960
 8540TIP3    H225564   2.490   7.682   1.038
 8541TIP3   OH225565   1.786   3.000   6.282
 8541TIP3    H125566   1.695   2.973   6.275
 8541TIP3    H225567   1.784   3.083   6.329
 8542TIP3   OH225568   1.594   0.157   5.637
 8542TIP3    H125569   1.515   0.103   5.647
 8542TIP3    H225570   1.659   0.113   5.691
 8543TIP3   OH225571   0.512   6.977   0.094
 8543TIP3    H125572   0.607   6.972   0.108
 8543TIP3    H225573   0.487   6.890   0.063
 8544TIP3   OH225574   0.871   5.795   3.996
 8544TIP3    H125575   0.907   5.876   3.962
 8544TIP3    H225576   0.864   5.810   4.091
 8545TIP3   OH225577   2.026   3.491   3.572
 8545TIP3    H125578   1.938   3.455   3.565
 8545TIP3    H225579   2.067   3.472   3.488
 8546TIP3   OH225580   0.007   1.020   3.964
 8546TIP3    H125581   0.095   1.019   3.925
 8546TIP3    H225582  -0.012   1.113   3.976
 8547TIP3   OH225583   1.959   5.348   4.298
 8547TIP3    H125584   2.045   5.367   4.260
 8547TIP3    H225585   1.897   5.390   4.239
 8548TIP3   OH225586   4.719   2.323   3.255
 8548TIP3    H125587   4.693   2.279   3.174
 8548TIP3    H225588   4.745   2.251   3.313
 8549TIP3   OH225589   7.123   0.325   6.345
 8549TIP3    H125590   7.148   0.377   6.421
 8549TIP3    H225591   7.185   0.352   6.277
 8550TIP3   OH225592   6.110   4.630   0.186
 8550TIP3    H125593   6.171   4.698   0.157
 8550TIP3    H225594   6.064   4.603   0.107
 8551TIP3   OH225595   1.704   5.881   3.837
 8551TIP3    H125596   1.719   5.930   3.756
 8551TIP3    H225597   1.677   5.947   3.901
 8552TIP3   OH225598   6.491   5.924   3.406
 8552TIP3    H125599   6.405   5.898   3.373
 8552TIP3    H225600   6.496   5.883   3.493
 8553TIP3   OH225601   2.855   5.713   3.530
 8553TIP3    H125602   2.890   5.654   3.596
 8553TIP3    H225603   2.895   5.683   3.448
 8554TIP3   OH225604   1.963   3.184   2.841
 8554TIP3    H125605   1.920   3.201   2.924
 8554TIP3    H225606   2.057   3.191   2.860
 8555TIP3   OH225607   2.378   5.798   4.428
 8555TIP3    H125608   2.361   5.888   4.454
 8555TIP3    H225609   2.295   5.753   4.441
 8556TIP3   OH225610   0.473   3.689   0.199
 8556TIP3    H125611   0.425   3.754   0.249
 8556TIP3    H225612   0.533   3.649   0.262
 8557TIP3   OH225613   0.028   6.217   5.312
 8557TIP3    H125614   0.030   6.273   5.390
 8557TIP3    H225615   0.089   6.146   5.333
 8558TIP3   OH225616   3.031   1.473   5.813
 8558TIP3    H125617   2.980   1.392   5.817
 8558TIP3    H225618   2.992   1.522   5.740
 8559TIP3   OH225619   7.354   5.962   1.464
 8559TIP3    H125620   7.422   6.000   1.520
 8559TIP3    H225621   7.392   5.963   1.376
 8560TIP3   OH225622   5.520   2.625   3.944
 8560TIP3    H125623   5.546   2.542   3.983
 8560TIP3    H225624   5.555   2.692   4.003
 8561TIP3   OH225625   0.280   2.690   3.120
 8561TIP3    H125626   0.191   2.725   3.122
 8561TIP3    H225627   0.282   2.627   3.193
 8562TIP3   OH225628   0.920   0.224   3.395
 8562TIP3    H125629   0.850   0.159   3.393
 8562TIP3    H225630   0.953   0.226   3.305
 8563TIP3   OH225631   6.563   4.911   3.905
 8563TIP3    H125632   6.500   4.888   3.837
 8563TIP3    H225633   6.647   4.913   3.860
 8564TIP3   OH225634   8.049   6.228   4.231
 8564TIP3    H125635   8.100   6.265   4.159
 8564TIP3    H225636   7.964   6.272   4.224
 8565TIP3   OH225637   3.875   0.215   0.417
 8565TIP3    H125638   3.882   0.122   0.399
 8565TIP3    H225639   3.951   0.235   0.471
 8566TIP3   OH225640   4.019   5.473   5.422
 8566TIP3    H125641   4.037   5.536   5.492
 8566TIP3    H225642   3.933   5.498   5.388
 8567TIP3   OH225643   0.152   4.652   3.531
 8567TIP3    H125644   0.157   4.728   3.589
 8567TIP3    H225645   0.073   4.605   3.561
 8568TIP3   OH225646   6.737   1.733   0.306
 8568TIP3    H125647   6.712   1.720   0.397
 8568TIP3    H225648   6.654   1.730   0.258
 8569TIP3   OH225649   0.318   0.012   5.517
 8569TIP3    H125650   0.282   0.056   5.594
 8569TIP3    H225651   0.292  -0.080   5.528
 8570TIP3   OH225652   1.769   4.347   2.292
 8570TIP3    H125653   1.761   4.412   2.222
 8570TIP3    H225654   1.831   4.282   2.258
 8571TIP3   OH225655   4.271   1.842   4.071
 8571TIP3    H125656   4.279   1.925   4.119
 8571TIP3    H225657   4.262   1.868   3.979
 8572TIP3   OH225658   6.531   4.172   4.135
 8572TIP3    H125659   6.444   4.205   4.111
 8572TIP3    H225660   6.574   4.153   4.051
 8573TIP3   OH225661   2.751   3.817   6.072
 8573TIP3    H125662   2.787   3.733   6.101
 8573TIP3    H225663   2.822   3.856   6.020
 8574TIP3   OH225664   3.893   1.104   2.227
 8574TIP3    H125665   3.970   1.059   2.261
 8574TIP3    H225666   3.848   1.039   2.173
 8575TIP3   OH225667   4.622   5.610   4.486
 8575TIP3    H125668   4.642   5.667   4.412
 8575TIP3    H225669   4.675   5.645   4.558
 8576TIP3   OH225670   5.491   6.919   4.447
 8576TIP3    H125671   5.553   6.870   4.394
 8576TIP3    H225672   5.408   6.874   4.434
 8577TIP3   OH225673   8.182   2.463   3.037
 8577TIP3    H125674   8.154   2.446   2.947
 8577TIP3    H225675   8.233   2.385   3.061
 8578TIP3   OH225676   0.352   0.814   3.249
 8578TIP3    H125677   0.333   0.905   3.271
 8578TIP3    H225678   0.275   0.765   3.277
 8579TIP3   OH225679   5.145   7.090   4.862
 8579TIP3    H125680   5.173   7.104   4.771
 8579TIP3    H225681   5.193   7.156   4.912
 8580TIP3   OH225682   3.416   4.169   4.080
 8580TIP3    H125683   3.321   4.174   4.081
 8580TIP3    H225684   3.443   4.242   4.024
 8581TIP3   OH225685   3.155   1.087   5.668
 8581TIP3    H125686   3.185   1.143   5.596
 8581TIP3    H225687   3.067   1.060   5.641
 8582TIP3   OH225688   0.461   6.471   5.328
 8582TIP3    H125689   0.423   6.433   5.249
 8582TIP3    H225690   0.410   6.434   5.400
 8583TIP3   OH225691   3.796   1.048   1.185
 8583TIP3    H125692   3.819   1.138   1.207
 8583TIP3    H225693   3.878   1.007   1.158
 8584TIP3   OH225694   5.525   1.805   5.979
 8584TIP3    H125695   5.517   1.783   6.072
 8584TIP3    H225696   5.566   1.891   5.978
 8585TIP3   OH225697   1.356   6.322   6.224
 8585TIP3    H125698   1.438   6.294   6.263
 8585TIP3    H225699   1.344   6.264   6.149
 8586TIP3   OH225700   6.659   5.284   1.201
 8586TIP3    H125701   6.572   5.317   1.177
 8586TIP3    H225702   6.644   5.234   1.281
 8587TIP3   OH225703   4.017   2.421   4.599
 8587TIP3    H125704   3.997   2.394   4.689
 8587TIP3    H225705   4.112   2.420   4.594
 8588TIP3   OH225706   4.540   7.542   2.012
 8588TIP3    H125707   4.486   7.521   1.935
 8588TIP3    H225708   4.574   7.629   1.993
 8589TIP3   OH225709   2.770   7.368   6.114
 8589TIP3    H125710   2.762   7.353   6.209
 8589TIP3    H225711   2.755   7.462   6.103
 8590TIP3   OH225712   2.242   6.467   6.083
 8590TIP3    H125713   2.191   6.395   6.121
 8590TIP3    H225714   2.202   6.546   6.119
 8591TIP3   OH225715   3.246   3.822   4.201
 8591TIP3    H125716   3.164   3.773   4.201
 8591TIP3    H225717   3.300   3.777   4.136
 8592TIP3   OH225718   2.358   4.948   6.407
 8592TIP3    H125719   2.278   4.923   6.362
 8592TIP3    H225720   2.330   5.014   6.471
 8593TIP3   OH225721   4.341   5.671   4.275
 8593TIP3    H125722   4.408   5.667   4.343
 8593TIP3    H225723   4.388   5.650   4.194
 8594TIP3   OH225724   6.492   5.925   5.488
 8594TIP3    H125725   6.500   5.929   5.393
 8594TIP3    H225726   6.409   5.880   5.504
 8595TIP3   OH225727   7.539   5.224   2.608
 8595TIP3    H125728   7.627   5.188   2.608
 8595TIP3    H225729   7.551   5.319   2.599
 8596TIP3   OH225730   2.483   7.130   2.332
 8596TIP3    H125731   2.441   7.188   2.269
 8596TIP3    H225732   2.520   7.059   2.279
 8597TIP3   OH225733   0.140   0.114   1.905
 8597TIP3    H125734   0.145   0.086   1.814
 8597TIP3    H225735   0.100   0.200   1.902
 8598TIP3   OH225736   2.303   6.975   0.107
 8598TIP3    H125737   2.284   7.067   0.127
 8598TIP3    H225738   2.277   6.964   0.016
 8599TIP3   OH225739   0.373   5.791   0.195
 8599TIP3    H125740   0.394   5.884   0.192
 8599TIP3    H225741   0.394   5.764   0.285
 8600TIP3   OH225742   5.309   1.369   0.338
 8600TIP3    H125743   5.247   1.383   0.266
 8600TIP3    H225744   5.278   1.426   0.408
 8601TIP3   OH225745   0.816   7.608   4.324
 8601TIP3    H125746   0.736   7.655   4.349
 8601TIP3    H225747   0.796   7.516   4.343
 8602TIP3   OH225748   4.750   0.253   5.874
 8602TIP3    H125749   4.760   0.202   5.793
 8602TIP3    H225750   4.810   0.212   5.936
 8603TIP3   OH225751   7.644   0.082   5.948
 8603TIP3    H125752   7.602   0.046   6.026
 8603TIP3    H225753   7.572   0.101   5.888
 8604TIP3   OH225754   7.184   5.799   4.968
 8604TIP3    H125755   7.218   5.888   4.974
 8604TIP3    H225756   7.239   5.749   5.028
 8605TIP3   OH225757   7.897   4.315   4.149
 8605TIP3    H125758   7.977   4.317   4.202
 8605TIP3    H225759   7.883   4.406   4.123
 8606TIP3   OH225760   3.913   1.043   6.182
 8606TIP3    H125761   3.982   1.003   6.129
 8606TIP3    H225762   3.953   1.122   6.218
 8607TIP3   OH225763   0.531   3.821   0.851
 8607TIP3    H125764   0.570   3.740   0.817
 8607TIP3    H225765   0.436   3.805   0.846
 8608TIP3   OH225766   7.979   2.660   2.130
 8608TIP3    H125767   8.070   2.633   2.142
 8608TIP3    H225768   7.983   2.755   2.121
 8609TIP3   OH225769   5.714   1.484   2.936
 8609TIP3    H125770   5.675   1.441   2.860
 8609TIP3    H225771   5.705   1.421   3.007
 8610TIP3   OH225772   1.429   0.065   3.866
 8610TIP3    H125773   1.443   0.062   3.961
 8610TIP3    H225774   1.346   0.019   3.853
 8611TIP3   OH225775   3.303   2.650   6.626
 8611TIP3    H125776   3.380   2.602   6.658
 8611TIP3    H225777   3.297   2.726   6.684
 8612TIP3   OH225778   4.323   4.384   3.835
 8612TIP3    H125779   4.333   4.430   3.751
 8612TIP3    H225780   4.397   4.413   3.888
 8613TIP3   OH225781   6.465   4.145   3.629
 8613TIP3    H125782   6.379   4.182   3.607
 8613TIP3    H225783   6.445   4.055   3.656
 8614TIP3   OH225784   1.920   5.149   0.186
 8614TIP3    H125785   1.999   5.113   0.226
 8614TIP3    H225786   1.929   5.244   0.195
 8615TIP3   OH225787   2.634   1.774   6.473
 8615TIP3    H125788   2.612   1.849   6.528
 8615TIP3    H225789   2.568   1.708   6.496
 8616TIP3   OH225790   3.395   6.474   2.291
 8616TIP3    H125791   3.319   6.441   2.340
 8616TIP3    H225792   3.431   6.542   2.347
 8617TIP3   OH225793   4.943   2.219   0.076
 8617TIP3    H125794   4.856   2.253   0.057
 8617TIP3    H225795   4.953   2.230   0.171
 8618TIP3   OH225796   6.072   2.218   5.175
 8618TIP3    H125797   6.008   2.147   5.171
 8618TIP3    H225798   6.127   2.197   5.251
 8619TIP3   OH225799   6.112   4.493   6.617
 8619TIP3    H125800   6.032   4.522   6.573
 8619TIP3    H225801   6.173   4.474   6.546
 8620TIP3   OH225802   8.124   3.057   6.685
 8620TIP3    H125803   8.169   3.003   6.750
 8620TIP3    H225804   8.033   3.030   6.691
 8621TIP3   OH225805   7.347   4.154   1.449
 8621TIP3    H125806   7.339   4.133   1.543
 8621TIP3    H225807   7.429   4.112   1.423
 8622TIP3   OH225808   6.247   0.529   3.205
 8622TIP3    H125809   6.232   0.558   3.295
 8622TIP3    H225810   6.319   0.584   3.174
 8623TIP3   OH225811   4.622   3.053   3.513
 8623TIP3    H125812   4.641   2.967   3.475
 8623TIP3    H225813   4.538   3.043   3.556
 8624TIP3   OH225814   0.856   5.325   3.773
 8624TIP3    H125815   0.789   5.288   3.830
 8624TIP3    H225816   0.823   5.412   3.749
 8625TIP3   OH225817   6.888   5.129   0.530
 8625TIP3    H125818   6.842   5.078   0.463
 8625TIP3    H225819   6.979   5.132   0.500
 8626TIP3   OH225820   1.780   3.223   2.634
 8626TIP3    H125821   1.854   3.228   2.573
 8626TIP3    H225822   1.819   3.194   2.716
 8627TIP3   OH225823   7.782   2.912   1.081
 8627TIP3    H125824   7.749   2.992   1.039
 8627TIP3    H225825   7.806   2.939   1.169
 8628TIP3   OH225826   4.855   6.912   5.506
 8628TIP3    H125827   4.806   6.840   5.546
 8628TIP3    H225828   4.853   6.982   5.572
 8629TIP3   OH225829   0.591   3.839   2.606
 8629TIP3    H125830   0.574   3.829   2.512
 8629TIP3    H225831   0.598   3.933   2.619
 8630TIP3   OH225832   0.761   2.076   0.134
 8630TIP3    H125833   0.786   2.148   0.192
 8630TIP3    H225834   0.717   2.118   0.061
 8631TIP3   OH225835   5.163   5.579   3.784
 8631TIP3    H125836   5.181   5.490   3.813
 8631TIP3    H225837   5.189   5.634   3.858
 8632TIP3   OH225838   1.758   5.097   3.684
 8632TIP3    H125839   1.802   5.153   3.749
 8632TIP3    H225840   1.742   5.154   3.610
 8633TIP3   OH225841   4.004   0.390   6.411
 8633TIP3    H125842   3.928   0.379   6.468
 8633TIP3    H225843   4.079   0.390   6.471
 8634TIP3   OH225844   2.854   2.180   5.251
 8634TIP3    H125845   2.941   2.158   5.283
 8634TIP3    H225846   2.812   2.227   5.323
 8635TIP3   OH225847   5.204   2.362   0.632
 8635TIP3    H125848   5.135   2.386   0.571
 8635TIP3    H225849   5.265   2.436   0.630
 8636TIP3   OH225850   1.270   7.493   3.863
 8636TIP3    H125851   1.354   7.452   3.887
 8636TIP3    H225852   1.265   7.570   3.920
 8637TIP3   OH225853   2.577   6.896   2.655
 8637TIP3    H125854   2.590   6.908   2.749
 8637TIP3    H225855   2.649   6.946   2.615
 8638TIP3   OH225856   5.931   3.334   3.603
 8638TIP3    H125857   5.910   3.278   3.528
 8638TIP3    H225858   5.998   3.286   3.651
 8639TIP3   OH225859   7.456   3.030   4.844
 8639TIP3    H125860   7.389   2.975   4.804
 8639TIP3    H225861   7.407   3.099   4.889
 8640TIP3   OH225862   4.968   6.084   4.465
 8640TIP3    H125863   4.886   6.122   4.498
 8640TIP3    H225864   5.022   6.160   4.443
 8641TIP3   OH225865   5.193   6.139   3.094
 8641TIP3    H125866   5.204   6.176   3.182
 8641TIP3    H225867   5.259   6.185   3.041
 8642TIP3   OH225868   5.970   5.383   0.623
 8642TIP3    H125869   5.881   5.348   0.618
 8642TIP3    H225870   5.961   5.463   0.676
 8643TIP3   OH225871   3.587   5.530   1.094
 8643TIP3    H125872   3.504   5.521   1.046
 8643TIP3    H225873   3.593   5.449   1.145
 8644TIP3   OH225874   7.448   4.348   0.493
 8644TIP3    H125875   7.468   4.441   0.481
 8644TIP3    H225876   7.364   4.346   0.539
 8645TIP3   OH225877   4.473   7.802   5.600
 8645TIP3    H125878   4.412   7.732   5.577
 8645TIP3    H225879   4.435   7.842   5.679
 8646TIP3   OH225880   7.484   7.809   5.688
 8646TIP3    H125881   7.524   7.761   5.761
 8646TIP3    H225882   7.400   7.840   5.722
 8647TIP3   OH225883   1.770   4.762   3.275
 8647TIP3    H125884   1.777   4.838   3.216
 8647TIP3    H225885   1.753   4.801   3.361
 8648TIP3   OH225886   4.590   0.080   0.927
 8648TIP3    H125887   4.583   0.094   0.833
 8648TIP3    H225888   4.512   0.030   0.950
 8649TIP3   OH225889   7.558   3.702   1.971
 8649TIP3    H125890   7.517   3.727   1.889
 8649TIP3    H225891   7.652   3.713   1.956
 8650TIP3   OH225892   6.427   0.905   1.445
 8650TIP3    H125893   6.377   0.835   1.403
 8650TIP3    H225894   6.495   0.927   1.382
 8651TIP3   OH225895   5.463   2.543   4.546
 8651TIP3    H125896   5.528   2.537   4.617
 8651TIP3    H225897   5.460   2.637   4.525
 8652TIP3   OH225898   7.238   3.978   6.298
 8652TIP3    H125899   7.302   3.940   6.239
 8652TIP3    H225900   7.160   3.991   6.244
 8653TIP3   OH225901   5.615   1.397   5.066
 8653TIP3    H125902   5.676   1.336   5.024
 8653TIP3    H225903   5.639   1.393   5.159
 8654TIP3   OH225904   6.872   4.395   2.096
 8654TIP3    H125905   6.952   4.441   2.119
 8654TIP3    H225906   6.836   4.445   2.022
 8655TIP3   OH225907   7.102   0.459   2.634
 8655TIP3    H125908   7.076   0.473   2.725
 8655TIP3    H225909   7.121   0.366   2.628
 8656TIP3   OH225910   7.473   7.098   4.388
 8656TIP3    H125911   7.457   7.163   4.457
 8656TIP3    H225912   7.543   7.043   4.423
 8657TIP3   OH225913   6.632   6.934   1.250
 8657TIP3    H125914   6.542   6.950   1.279
 8657TIP3    H225915   6.667   7.021   1.231
 8658TIP3   OH225916   5.195   5.835   1.512
 8658TIP3    H125917   5.268   5.773   1.519
 8658TIP3    H225918   5.153   5.833   1.598
 8659TIP3   OH225919   7.926   3.805   6.678
 8659TIP3    H125920   7.950   3.878   6.734
 8659TIP3    H225921   7.906   3.845   6.593
 8660TIP3   OH225922   4.581   3.304   0.051
 8660TIP3    H125923   4.541   3.270  -0.029
 8660TIP3    H225924   4.519   3.368   0.084
 8661TIP3   OH225925   8.020   4.453   2.110
 8661TIP3    H125926   8.113   4.476   2.116
 8661TIP3    H225927   8.013   4.370   2.156
 8662TIP3   OH225928   6.975   5.998   5.400
 8662TIP3    H125929   6.989   5.917   5.350
 8662TIP3    H225930   7.016   6.066   5.346
 8663TIP3   OH225931   2.559   3.675   5.919
 8663TIP3    H125932   2.616   3.742   5.958
 8663TIP3    H225933   2.541   3.708   5.831
 8664TIP3   OH225934   2.672   1.821   3.567
 8664TIP3    H125935   2.611   1.886   3.533
 8664TIP3    H225936   2.630   1.786   3.645
 8665TIP3   OH225937   2.478   4.133   6.373
 8665TIP3    H125938   2.393   4.177   6.369
 8665TIP3    H225939   2.466   4.053   6.322
 8666TIP3   OH225940   5.838   2.555   5.486
 8666TIP3    H125941   5.788   2.637   5.486
 8666TIP3    H225942   5.924   2.579   5.453
 8667TIP3   OH225943   4.102   1.374   4.119
 8667TIP3    H125944   4.029   1.363   4.059
 8667TIP3    H225945   4.062   1.375   4.206
 8668TIP3   OH225946   4.132   7.394   4.449
 8668TIP3    H125947   4.116   7.308   4.487
 8668TIP3    H225948   4.069   7.452   4.492
 8669TIP3   OH225949   5.597   7.415   0.644
 8669TIP3    H125950   5.553   7.498   0.663
 8669TIP3    H225951   5.564   7.354   0.710
 8670TIP3   OH225952   0.229   3.381   2.556
 8670TIP3    H125953   0.206   3.290   2.537
 8670TIP3    H225954   0.317   3.392   2.522
 8671TIP3   OH225955   6.624   5.964   2.570
 8671TIP3    H125956   6.620   5.913   2.490
 8671TIP3    H225957   6.565   5.919   2.630
 8672TIP3   OH225958   1.108   2.642   0.075
 8672TIP3    H125959   1.034   2.595   0.111
 8672TIP3    H225960   1.182   2.583   0.086
 8673TIP3   OH225961   0.897   3.450   1.622
 8673TIP3    H125962   0.918   3.374   1.675
 8673TIP3    H225963   0.801   3.450   1.617
 8674TIP3   OH225964   3.128   3.998   3.515
 8674TIP3    H125965   3.148   3.911   3.548
 8674TIP3    H225966   3.172   4.058   3.575
 8675TIP3   OH225967   1.110   0.064   5.141
 8675TIP3    H125968   1.015   0.076   5.145
 8675TIP3    H225969   1.138   0.063   5.232
 8676TIP3   OH225970   2.743   2.023   4.102
 8676TIP3    H125971   2.750   2.114   4.076
 8676TIP3    H225972   2.782   1.973   4.030
 8677TIP3   OH225973   3.230   1.921   5.841
 8677TIP3    H125974   3.196   1.934   5.753
 8677TIP3    H225975   3.302   1.983   5.849
 8678TIP3   OH225976   5.239   1.383   5.419
 8678TIP3    H125977   5.258   1.414   5.331
 8678TIP3    H225978   5.228   1.463   5.471
 8679TIP3   OH225979   2.239   0.389   1.364
 8679TIP3    H125980   2.290   0.458   1.321
 8679TIP3    H225981   2.191   0.434   1.433
 8680TIP3   OH225982   1.843   4.288   5.773
 8680TIP3    H125983   1.897   4.216   5.740
 8680TIP3    H225984   1.848   4.355   5.705
 8681TIP3   OH225985   4.668   2.006   0.302
 8681TIP3    H125986   4.622   1.962   0.230
 8681TIP3    H225987   4.711   2.081   0.261
 8682TIP3   OH225988   3.608   7.508   6.674
 8682TIP3    H125989   3.702   7.513   6.657
 8682TIP3    H225990   3.581   7.427   6.631
 8683TIP3   OH225991   5.854   7.220   0.801
 8683TIP3    H125992   5.775   7.218   0.746
 8683TIP3    H225993   5.927   7.221   0.738
 8684TIP3   OH225994   7.385   7.316   4.622
 8684TIP3    H125995   7.460   7.371   4.645
 8684TIP3    H225996   7.377   7.325   4.528
 8685TIP3   OH225997   6.753   3.647   1.937
 8685TIP3    H125998   6.710   3.731   1.922
 8685TIP3    H225999   6.844   3.663   1.912
 8686TIP3   OH226000   5.557   6.589   2.170
 8686TIP3    H126001   5.634   6.628   2.129
 8686TIP3    H226002   5.493   6.584   2.100
 8687TIP3   OH226003   2.158   1.767   0.271
 8687TIP3    H126004   2.101   1.691   0.257
 8687TIP3    H226005   2.098   1.839   0.290
 8688TIP3   OH226006   5.063  -0.040   0.647
 8688TIP3    H126007   5.005   0.014   0.701
 8688TIP3    H226008   5.068   0.007   0.563
 8689TIP3   OH226009   2.290   1.391   1.515
 8689TIP3    H126010   2.204   1.424   1.486
 8689TIP3    H226011   2.333   1.364   1.434
 8690TIP3   OH226012   1.717   3.843   2.492
 8690TIP3    H126013   1.629   3.879   2.479
 8690TIP3    H226014   1.774   3.902   2.443
 8691TIP3   OH226015   1.016   7.692   4.169
 8691TIP3    H126016   0.928   7.668   4.199
 8691TIP3    H226017   1.072   7.675   4.245
 8692TIP3   OH226018   0.404   6.421   3.499
 8692TIP3    H126019   0.385   6.364   3.574
 8692TIP3    H226020   0.404   6.363   3.424
 8693TIP3   OH226021   4.128   3.677   0.370
 8693TIP3    H126022   4.088   3.600   0.331
 8693TIP3    H226023   4.077   3.751   0.336
 8694TIP3   OH226024   2.748   1.923   4.371
 8694TIP3    H126025   2.705   1.953   4.292
 8694TIP3    H226026   2.842   1.930   4.353
 8695TIP3   OH226027   1.510   4.404   2.780
 8695TIP3    H126028   1.585   4.355   2.746
 8695TIP3    H226029   1.478   4.352   2.854
 8696TIP3   OH226030   1.687   4.407   0.271
 8696TIP3    H126031   1.757   4.472   0.272
 8696TIP3    H226032   1.648   4.412   0.359
 8697TIP3   OH226033   4.517   4.462   2.662
 8697TIP3    H126034   4.577   4.524   2.704
 8697TIP3    H226035   4.574   4.402   2.615
 8698TIP3   OH226036   3.798   2.749   5.867
 8698TIP3    H126037   3.781   2.767   5.960
 8698TIP3    H226038   3.767   2.827   5.821
 8699TIP3   OH226039   7.633   2.792   1.575
 8699TIP3    H126040   7.642   2.767   1.667
 8699TIP3    H226041   7.622   2.888   1.578
 8700TIP3   OH226042   1.732   2.960   1.067
 8700TIP3    H126043   1.665   2.892   1.074
 8700TIP3    H226044   1.712   3.020   1.139
 8701TIP3   OH226045   5.975   6.472   5.085
 8701TIP3    H126046   5.886   6.444   5.105
 8701TIP3    H226047   5.966   6.527   5.007
 8702TIP3   OH226048   0.374   6.034   1.393
 8702TIP3    H126049   0.425   6.022   1.473
 8702TIP3    H226050   0.305   5.968   1.398
 8703TIP3   OH226051   7.727   3.801   1.177
 8703TIP3    H126052   7.791   3.831   1.241
 8703TIP3    H226053   7.763   3.719   1.143
 8704TIP3   OH226054   5.924   6.041   3.933
 8704TIP3    H126055   5.854   5.979   3.913
 8704TIP3    H226056   5.923   6.104   3.861
 8705TIP3   OH226057   1.043   7.667   1.290
 8705TIP3    H126058   1.115   7.728   1.272
 8705TIP3    H226059   1.019   7.686   1.381
 8706TIP3   OH226060   3.693   6.208   3.210
 8706TIP3    H126061   3.635   6.269   3.255
 8706TIP3    H226062   3.766   6.195   3.270
 8707TIP3   OH226063   6.325   4.348   0.942
 8707TIP3    H126064   6.413   4.311   0.940
 8707TIP3    H226065   6.335   4.437   0.911
 8708TIP3   OH226066   2.297   3.671   5.512
 8708TIP3    H126067   2.313   3.732   5.440
 8708TIP3    H226068   2.308   3.585   5.473
 8709TIP3   OH226069   2.041   3.456   1.856
 8709TIP3    H126070   2.012   3.365   1.862
 8709TIP3    H226071   1.986   3.503   1.919
 8710TIP3   OH226072   6.028   1.897   4.512
 8710TIP3    H126073   6.115   1.935   4.503
 8710TIP3    H226074   5.995   1.930   4.596
 8711TIP3   OH226075   0.975   3.906   1.981
 8711TIP3    H126076   0.895   3.908   2.033
 8711TIP3    H226077   0.978   3.816   1.947
 8712TIP3   OH226078   5.486   4.901   0.039
 8712TIP3    H126079   5.399   4.908   0.000
 8712TIP3    H226080   5.480   4.826   0.099
 8713TIP3   OH226081   2.739   4.890   5.924
 8713TIP3    H126082   2.719   4.797   5.923
 8713TIP3    H226083   2.828   4.896   5.961
 8714TIP3   OH226084   4.465   1.866   4.413
 8714TIP3    H126085   4.405   1.825   4.475
 8714TIP3    H226086   4.449   1.960   4.420
 8715TIP3   OH226087   5.377   3.935   6.586
 8715TIP3    H126088   5.315   4.000   6.619
 8715TIP3    H226089   5.432   3.914   6.662
 8716TIP3   OH226090   2.087   5.803   4.983
 8716TIP3    H126091   2.080   5.886   5.031
 8716TIP3    H226092   2.006   5.757   5.003
 8717TIP3   OH226093   5.690   5.369   0.563
 8717TIP3    H126094   5.632   5.437   0.598
 8717TIP3    H226095   5.678   5.374   0.468
 8718TIP3   OH226096   1.280   1.329   2.290
 8718TIP3    H126097   1.213   1.291   2.233
 8718TIP3    H226098   1.258   1.422   2.294
 8719TIP3   OH226099   4.646   2.455   4.235
 8719TIP3    H126100   4.689   2.539   4.217
 8719TIP3    H226101   4.588   2.442   4.160
 8720TIP3   OH226102   6.943   7.706   5.333
 8720TIP3    H126103   6.986   7.788   5.308
 8720TIP3    H226104   7.012   7.655   5.375
 8721TIP3   OH226105   7.139   7.343   2.022
 8721TIP3    H126106   7.200   7.418   2.027
 8721TIP3    H226107   7.083   7.354   2.099
 8722TIP3   OH226108   0.584   5.034   0.575
 8722TIP3    H126109   0.495   5.009   0.599
 8722TIP3    H226110   0.635   4.954   0.587
 8723TIP3   OH226111   5.662   2.637   2.387
 8723TIP3    H126112   5.583   2.610   2.340
 8723TIP3    H226113   5.667   2.731   2.373
 8724TIP3   OH226114   0.257   6.911   4.188
 8724TIP3    H126115   0.339   6.950   4.218
 8724TIP3    H226116   0.259   6.922   4.093
 8725TIP3   OH226117   2.947   2.607   4.441
 8725TIP3    H126118   3.000   2.529   4.455
 8725TIP3    H226119   2.859   2.582   4.468
 8726TIP3   OH226120   0.082   3.413   3.034
 8726TIP3    H126121  -0.009   3.415   3.062
 8726TIP3    H226122   0.111   3.504   3.038
 8727TIP3   OH226123   6.822   4.360   0.491
 8727TIP3    H126124   6.883   4.430   0.468
 8727TIP3    H226125   6.844   4.288   0.432
 8728TIP3   OH226126   5.381   5.527   5.158
 8728TIP3    H126127   5.348   5.550   5.245
 8728TIP3    H226128   5.406   5.610   5.119
 8729TIP3   OH226129   3.040   6.347   3.120
 8729TIP3    H126130   3.006   6.258   3.131
 8729TIP3    H226131   3.021   6.391   3.203
 8730TIP3   OH226132   4.123   3.270   2.208
 8730TIP3    H126133   4.043   3.276   2.157
 8730TIP3    H226134   4.141   3.176   2.214
 8731TIP3   OH226135   2.722   4.622   5.170
 8731TIP3    H126136   2.660   4.681   5.126
 8731TIP3    H226137   2.751   4.672   5.246
 8732TIP3   OH226138   0.738   0.516   5.316
 8732TIP3    H126139   0.778   0.467   5.244
 8732TIP3    H226140   0.644   0.511   5.298
 8733TIP3   OH226141   6.138   1.708   0.272
 8733TIP3    H126142   6.109   1.729   0.184
 8733TIP3    H226143   6.148   1.793   0.315
 8734TIP3   OH226144   6.274   6.522   1.704
 8734TIP3    H126145   6.271   6.441   1.755
 8734TIP3    H226146   6.367   6.545   1.701
 8735TIP3   OH226147   3.704   0.872   3.981
 8735TIP3    H126148   3.686   0.925   4.058
 8735TIP3    H226149   3.743   0.791   4.015
 8736TIP3   OH226150   6.287   7.422   0.035
 8736TIP3    H126151   6.200   7.382   0.036
 8736TIP3    H226152   6.338   7.367  -0.025
 8737TIP3   OH226153   6.287   5.394   5.310
 8737TIP3    H126154   6.207   5.444   5.329
 8737TIP3    H226155   6.261   5.302   5.317
 8738TIP3   OH226156   4.763   1.132   2.144
 8738TIP3    H126157   4.763   1.036   2.145
 8738TIP3    H226158   4.702   1.156   2.075
 8739TIP3   OH226159   7.374   3.089   3.690
 8739TIP3    H126160   7.333   3.152   3.751
 8739TIP3    H226161   7.305   3.070   3.627
 8740TIP3   OH226162   8.067   2.430   4.472
 8740TIP3    H126163   8.097   2.484   4.399
 8740TIP3    H226164   8.147   2.401   4.515
 8741TIP3   OH226165   4.149   2.764   0.859
 8741TIP3    H126166   4.095   2.842   0.876
 8741TIP3    H226167   4.208   2.791   0.789
 8742TIP3   OH226168   7.156   7.217   2.715
 8742TIP3    H126169   7.071   7.173   2.715
 8742TIP3    H226170   7.138   7.304   2.750
 8743TIP3   OH226171   3.953   6.281   4.149
 8743TIP3    H126172   3.962   6.187   4.168
 8743TIP3    H226173   3.881   6.310   4.205
 8744TIP3   OH226174   3.422   6.896   1.848
 8744TIP3    H126175   3.365   6.874   1.922
 8744TIP3    H226176   3.509   6.864   1.873
 8745TIP3   OH226177   0.786   0.172   6.543
 8745TIP3    H126178   0.751   0.259   6.564
 8745TIP3    H226179   0.787   0.169   6.447
 8746TIP3   OH226180   4.163   2.597   4.170
 8746TIP3    H126181   4.223   2.541   4.220
 8746TIP3    H226182   4.129   2.540   4.101
 8747TIP3   OH226183   1.457   7.757   3.852
 8747TIP3    H126184   1.453   7.840   3.806
 8747TIP3    H226185   1.371   7.748   3.893
 8748TIP3   OH226186   7.311   0.319   6.587
 8748TIP3    H126187   7.307   0.243   6.529
 8748TIP3    H226188   7.352   0.388   6.534
 8749TIP3   OH226189   5.528   7.218   0.252
 8749TIP3    H126190   5.606   7.180   0.292
 8749TIP3    H226191   5.527   7.309   0.282
 8750TIP3   OH226192   5.135   2.570   0.194
 8750TIP3    H126193   5.106   2.604   0.109
 8750TIP3    H226194   5.065   2.594   0.255
 8751TIP3   OH226195   1.271   2.785   6.052
 8751TIP3    H126196   1.293   2.819   6.139
 8751TIP3    H226197   1.222   2.705   6.070
 8752TIP3   OH226198   5.256   2.811   0.528
 8752TIP3    H126199   5.341   2.855   0.538
 8752TIP3    H226200   5.276   2.718   0.535
 8753TIP3   OH226201   7.387   7.155   2.396
 8753TIP3    H126202   7.392   7.063   2.422
 8753TIP3    H226203   7.384   7.152   2.300
 8754TIP3   OH226204   4.024   1.455   0.827
 8754TIP3    H126205   3.980   1.396   0.766
 8754TIP3    H226206   3.977   1.443   0.910
 8755TIP3   OH226207   0.636   6.671   6.074
 8755TIP3    H126208   0.641   6.736   6.144
 8755TIP3    H226209   0.723   6.630   6.073
 8756TIP3   OH226210   3.302   0.685   3.677
 8756TIP3    H126211   3.340   0.727   3.753
 8756TIP3    H226212   3.329   0.739   3.603
 8757TIP3   OH226213   3.960   4.313   4.209
 8757TIP3    H126214   3.909   4.290   4.132
 8757TIP3    H226215   3.944   4.406   4.222
 8758TIP3   OH226216   1.327   3.611   4.031
 8758TIP3    H126217   1.305   3.580   4.119
 8758TIP3    H226218   1.321   3.706   4.038
 8759TIP3   OH226219   6.973   3.027   2.722
 8759TIP3    H126220   6.980   3.014   2.816
 8759TIP3    H226221   6.984   3.121   2.709
 8760TIP3   OH226222   7.720   7.772   3.225
 8760TIP3    H126223   7.676   7.712   3.285
 8760TIP3    H226224   7.650   7.823   3.186
 8761TIP3   OH226225   6.954   6.757   2.747
 8761TIP3    H126226   7.043   6.749   2.711
 8761TIP3    H226227   6.925   6.667   2.760
 8762TIP3   OH226228   1.132   6.690   0.119
 8762TIP3    H126229   1.085   6.771   0.135
 8762TIP3    H226230   1.130   6.644   0.203
 8763TIP3   OH226231   2.160   5.857   5.328
 8763TIP3    H126232   2.158   5.947   5.293
 8763TIP3    H226233   2.070   5.827   5.320
 8764TIP3   OH226234   1.238   7.274   3.713
 8764TIP3    H126235   1.301   7.328   3.665
 8764TIP3    H226236   1.221   7.323   3.794
 8765TIP3   OH226237   5.253   1.840   3.416
 8765TIP3    H126238   5.289   1.767   3.366
 8765TIP3    H226239   5.315   1.853   3.488
 8766TIP3   OH226240   0.920   0.423   5.618
 8766TIP3    H126241   0.969   0.373   5.554
 8766TIP3    H226242   0.979   0.493   5.645
 8767TIP3   OH226243   3.252   5.629   2.795
 8767TIP3    H126244   3.190   5.690   2.835
 8767TIP3    H226245   3.323   5.622   2.858
 8768TIP3   OH226246   0.312   6.070   4.213
 8768TIP3    H126247   0.283   6.152   4.254
 8768TIP3    H226248   0.248   6.055   4.143
 8769TIP3   OH226249   5.766   5.018   3.288
 8769TIP3    H126250   5.832   5.085   3.304
 8769TIP3    H226251   5.693   5.066   3.248
 8770TIP3   OH226252   7.314   6.962   2.682
 8770TIP3    H126253   7.296   7.056   2.673
 8770TIP3    H226254   7.333   6.950   2.775
 8771TIP3   OH226255   0.218   0.718   1.438
 8771TIP3    H126256   0.139   0.741   1.389
 8771TIP3    H226257   0.186   0.666   1.511
 8772TIP3   OH226258   4.805   3.472   1.205
 8772TIP3    H126259   4.717   3.452   1.238
 8772TIP3    H226260   4.790   3.525   1.127
 8773TIP3   OH226261   0.773   0.811   5.115
 8773TIP3    H126262   0.850   0.764   5.083
 8773TIP3    H226263   0.774   0.894   5.067
 8774TIP3   OH226264   4.826   6.063   6.214
 8774TIP3    H126265   4.891   5.991   6.212
 8774TIP3    H226266   4.743   6.019   6.230
 8775TIP3   OH226267   3.895   2.016   0.538
 8775TIP3    H126268   3.892   1.937   0.485
 8775TIP3    H226269   3.811   2.017   0.584
 8776TIP3   OH226270   0.234   1.214   2.761
 8776TIP3    H126271   0.248   1.218   2.666
 8776TIP3    H226272   0.143   1.239   2.773
 8777TIP3   OH226273   0.952   3.798   4.754
 8777TIP3    H126274   0.939   3.716   4.803
 8777TIP3    H226275   0.864   3.825   4.729
 8778TIP3   OH226276   2.510   6.873   1.290
 8778TIP3    H126277   2.435   6.928   1.267
 8778TIP3    H226278   2.581   6.905   1.234
 8779TIP3   OH226279   4.981   7.695   2.603
 8779TIP3    H126280   4.970   7.779   2.647
 8779TIP3    H226281   4.975   7.630   2.673
 8780TIP3   OH226282   5.582   5.056   0.651
 8780TIP3    H126283   5.610   5.146   0.632
 8780TIP3    H226284   5.540   5.027   0.570
 8781TIP3   OH226285   2.724   3.190   1.314
 8781TIP3    H126286   2.715   3.129   1.387
 8781TIP3    H226287   2.748   3.135   1.240
 8782TIP3   OH226288   2.352   7.703   6.030
 8782TIP3    H126289   2.348   7.700   5.934
 8782TIP3    H226290   2.397   7.785   6.049
 8783TIP3   OH226291   5.588   7.624   2.593
 8783TIP3    H126292   5.500   7.659   2.607
 8783TIP3    H226293   5.647   7.695   2.619
 8784TIP3   OH226294   6.219   4.745   3.709
 8784TIP3    H126295   6.288   4.810   3.694
 8784TIP3    H226296   6.196   4.715   3.621
 8785TIP3   OH226297   1.808   1.103   0.155
 8785TIP3    H126298   1.844   1.015   0.168
 8785TIP3    H226299   1.877   1.151   0.110
 8786TIP3   OH226300   6.617   3.468   6.051
 8786TIP3    H126301   6.523   3.472   6.031
 8786TIP3    H226302   6.632   3.376   6.074
 8787TIP3   OH226303   5.517   1.522   1.195
 8787TIP3    H126304   5.466   1.579   1.138
 8787TIP3    H226305   5.606   1.555   1.190
 8788TIP3   OH226306   3.974   7.734   2.939
 8788TIP3    H126307   3.993   7.726   2.845
 8788TIP3    H226308   3.944   7.647   2.965
 8789TIP3   OH226309   6.561   6.937   5.450
 8789TIP3    H126310   6.566   6.879   5.527
 8789TIP3    H226311   6.584   6.880   5.377
 8790TIP3   OH226312   4.718   2.840   5.561
 8790TIP3    H126313   4.776   2.790   5.503
 8790TIP3    H226314   4.685   2.911   5.507
 8791TIP3   OH226315   7.055   0.043   4.444
 8791TIP3    H126316   7.088   0.105   4.509
 8791TIP3    H226317   6.973   0.081   4.414
 8792TIP3   OH226318   7.273   5.346   5.329
 8792TIP3    H126319   7.209   5.298   5.381
 8792TIP3    H226320   7.227   5.367   5.248
 8793TIP3   OH226321   0.108   4.350   1.799
 8793TIP3    H126322   0.202   4.357   1.813
 8793TIP3    H226323   0.070   4.413   1.861
 8794TIP3   OH226324   7.078   1.752   6.205
 8794TIP3    H126325   7.063   1.836   6.162
 8794TIP3    H226326   7.108   1.775   6.293
 8795TIP3   OH226327   5.012   2.003   5.176
 8795TIP3    H126328   4.925   2.041   5.169
 8795TIP3    H226329   5.045   2.002   5.086
 8796TIP3   OH226330   5.989   6.654   1.687
 8796TIP3    H126331   6.065   6.703   1.655
 8796TIP3    H226332   5.919   6.720   1.693
 8797TIP3   OH226333   4.854   5.252   1.813
 8797TIP3    H126334   4.776   5.198   1.800
 8797TIP3    H226335   4.828   5.340   1.785
 8798TIP3   OH226336   7.933   1.394   3.684
 8798TIP3    H126337   7.913   1.300   3.683
 8798TIP3    H226338   7.918   1.422   3.594
 8799TIP3   OH226339   0.605   6.232   1.948
 8799TIP3    H126340   0.646   6.188   2.023
 8799TIP3    H226341   0.527   6.274   1.985
 8800TIP3   OH226342   3.633   3.208   1.651
 8800TIP3    H126343   3.620   3.257   1.570
 8800TIP3    H226344   3.706   3.149   1.632
 8801TIP3   OH226345   1.368   3.883   3.471
 8801TIP3    H126346   1.412   3.809   3.429
 8801TIP3    H226347   1.440   3.942   3.497
 8802TIP3   OH226348   4.351   7.720   1.359
 8802TIP3    H126349   4.309   7.777   1.423
 8802TIP3    H226350   4.398   7.780   1.301
 8803TIP3   OH226351   3.278   3.581  -0.015
 8803TIP3    H126352   3.240   3.563   0.071
 8803TIP3    H226353   3.273   3.676  -0.024
 8804TIP3   OH226354   7.085   5.357   0.048
 8804TIP3    H126355   6.996   5.377   0.077
 8804TIP3    H226356   7.077   5.340  -0.046
 8805TIP3   OH226357   6.063   4.589   5.876
 8805TIP3    H126358   5.976   4.553   5.895
 8805TIP3    H226359   6.102   4.527   5.815
 8806TIP3   OH226360   7.303   1.622   2.352
 8806TIP3    H126361   7.314   1.704   2.401
 8806TIP3    H226362   7.293   1.555   2.420
 8807TIP3   OH226363   5.626   2.698   3.067
 8807TIP3    H126364   5.684   2.774   3.060
 8807TIP3    H226365   5.686   2.623   3.075
 8808TIP3   OH226366   1.358   4.947   6.716
 8808TIP3    H126367   1.330   4.857   6.729
 8808TIP3    H226368   1.294   5.000   6.763
 8809TIP3   OH226369   2.556   1.941   6.116
 8809TIP3    H126370   2.606   2.000   6.059
 8809TIP3    H226371   2.622   1.895   6.167
 8810TIP3   OH226372   7.829   6.881   6.021
 8810TIP3    H126373   7.910   6.882   6.071
 8810TIP3    H226374   7.856   6.885   5.929
 8811TIP3   OH226375   1.207   4.132   0.901
 8811TIP3    H126376   1.141   4.063   0.908
 8811TIP3    H226377   1.266   4.116   0.975
 8812TIP3   OH226378   0.952   6.965   6.440
 8812TIP3    H126379   0.870   6.939   6.399
 8812TIP3    H226380   0.986   6.884   6.479
 8813TIP3   OH226381   2.242   3.437   0.406
 8813TIP3    H126382   2.222   3.357   0.358
 8813TIP3    H226383   2.320   3.473   0.364
 8814TIP3   OH226384   6.431   4.945   4.252
 8814TIP3    H126385   6.366   4.877   4.235
 8814TIP3    H226386   6.514   4.908   4.220
 8815TIP3   OH226387   5.957   4.222   5.462
 8815TIP3    H126388   5.975   4.302   5.511
 8815TIP3    H226389   5.884   4.181   5.509
 8816TIP3   OH226390   0.065   6.734   5.555
 8816TIP3    H126391  -0.012   6.704   5.507
 8816TIP3    H226392   0.067   6.679   5.633
 8817TIP3   OH226393   3.083   6.365   3.767
 8817TIP3    H126394   3.123   6.436   3.817
 8817TIP3    H226395   3.069   6.402   3.680
 8818TIP3   OH226396   3.473   0.849   6.056
 8818TIP3    H126397   3.536   0.920   6.048
 8818TIP3    H226398   3.413   0.862   5.982
 8819TIP3   OH226399   7.624   6.055   0.234
 8819TIP3    H126400   7.672   6.112   0.174
 8819TIP3    H226401   7.625   5.969   0.192
 8820TIP3   OH226402   7.373   4.253   6.295
 8820TIP3    H126403   7.285   4.218   6.311
 8820TIP3    H226404   7.384   4.246   6.201
 8821TIP3   OH226405   7.310   7.322   6.043
 8821TIP3    H126406   7.284   7.233   6.065
 8821TIP3    H226407   7.255   7.377   6.099
 8822TIP3   OH226408   4.842   3.389   3.726
 8822TIP3    H126409   4.905   3.384   3.797
 8822TIP3    H226410   4.857   3.310   3.675
 8823TIP3   OH226411   6.810   2.383   2.498
 8823TIP3    H126412   6.901   2.411   2.483
 8823TIP3    H226413   6.801   2.302   2.448
 8824TIP3   OH226414   3.841   4.238   5.824
 8824TIP3    H126415   3.746   4.226   5.824
 8824TIP3    H226416   3.867   4.223   5.733
 8825TIP3   OH226417   0.800   5.452   4.814
 8825TIP3    H126418   0.812   5.357   4.807
 8825TIP3    H226419   0.851   5.477   4.891
 8826TIP3   OH226420   5.039   2.564   6.512
 8826TIP3    H126421   4.987   2.607   6.444
 8826TIP3    H226422   4.975   2.542   6.580
 8827TIP3   OH226423   7.121   3.209   4.335
 8827TIP3    H126424   7.094   3.301   4.332
 8827TIP3    H226425   7.206   3.211   4.378
 8828TIP3   OH226426   2.409   4.188   4.264
 8828TIP3    H126427   2.467   4.149   4.329
 8828TIP3    H226428   2.445   4.275   4.248
 8829TIP3   OH226429   4.841   4.853   1.060
 8829TIP3    H126430   4.839   4.776   1.116
 8829TIP3    H226431   4.927   4.891   1.074
 8830TIP3   OH226432   0.612   5.987   6.617
 8830TIP3    H126433   0.544   5.944   6.565
 8830TIP3    H226434   0.691   5.935   6.601
 8831TIP3   OH226435   7.393   2.049   4.235
 8831TIP3    H126436   7.484   2.033   4.208
 8831TIP3    H226437   7.357   2.105   4.166
 8832TIP3   OH226438   5.816   5.687   4.789
 8832TIP3    H126439   5.895   5.673   4.842
 8832TIP3    H226440   5.848   5.717   4.705
 8833TIP3   OH226441   5.448   4.629   4.982
 8833TIP3    H126442   5.535   4.663   5.004
 8833TIP3    H226443   5.409   4.607   5.066
 8834TIP3   OH226444   7.518   2.666   3.693
 8834TIP3    H126445   7.533   2.710   3.609
 8834TIP3    H226446   7.459   2.726   3.740
 8835TIP3   OH226447   7.907   1.295   2.854
 8835TIP3    H126448   7.844   1.361   2.882
 8835TIP3    H226449   7.856   1.214   2.849
 8836TIP3   OH226450   3.793   6.770   4.862
 8836TIP3    H126451   3.834   6.825   4.929
 8836TIP3    H226452   3.829   6.802   4.780
 8837TIP3   OH226453   4.465   2.319   0.927
 8837TIP3    H126454   4.486   2.277   1.010
 8837TIP3    H226455   4.384   2.366   0.943
 8838TIP3   OH226456   5.393   4.628   3.670
 8838TIP3    H126457   5.463   4.584   3.622
 8838TIP3    H226458   5.434   4.658   3.751
 8839TIP3   OH226459   5.927   4.195   3.106
 8839TIP3    H126460   5.912   4.192   3.012
 8839TIP3    H226461   5.846   4.232   3.142
 8840TIP3   OH226462   5.558   6.278   6.542
 8840TIP3    H126463   5.545   6.371   6.523
 8840TIP3    H226464   5.478   6.253   6.589
 8841TIP3   OH226465   1.106   6.792   2.407
 8841TIP3    H126466   1.121   6.770   2.315
 8841TIP3    H226467   1.012   6.812   2.412
 8842TIP3   OH226468   4.099   6.996   3.951
 8842TIP3    H126469   4.086   7.026   3.861
 8842TIP3    H226470   4.010   6.987   3.986
 8843TIP3   OH226471   1.236   0.910   6.355
 8843TIP3    H126472   1.174   0.930   6.425
 8843TIP3    H226473   1.294   0.986   6.352
 8844TIP3   OH226474   6.464   1.020   4.773
 8844TIP3    H126475   6.546   0.989   4.734
 8844TIP3    H226476   6.402   0.949   4.756
 8845TIP3   OH226477   7.671   6.851  -0.002
 8845TIP3    H126478   7.746   6.834  -0.059
 8845TIP3    H226479   7.624   6.768   0.000
 8846TIP3   OH226480   5.724   3.488   5.042
 8846TIP3    H126481   5.662   3.438   5.094
 8846TIP3    H226482   5.806   3.440   5.050
 8847TIP3   OH226483   6.161   0.464   0.118
 8847TIP3    H126484   6.172   0.471   0.212
 8847TIP3    H226485   6.184   0.373   0.098
 8848TIP3   OH226486   5.970   0.804   6.547
 8848TIP3    H126487   5.983   0.880   6.491
 8848TIP3    H226488   5.888   0.822   6.594
 8849TIP3   OH226489   0.193   0.623   1.740
 8849TIP3    H126490   0.156   0.692   1.796
 8849TIP3    H226491   0.280   0.607   1.776
 8850TIP3   OH226492   3.420   3.900   0.303
 8850TIP3    H126493   3.458   3.987   0.288
 8850TIP3    H226494   3.422   3.889   0.398
 8851TIP3   OH226495   1.706   4.551   4.857
 8851TIP3    H126496   1.795   4.523   4.839
 8851TIP3    H226497   1.666   4.564   4.771
 8852TIP3   OH226498   0.867   6.523   0.931
 8852TIP3    H126499   0.902   6.471   0.859
 8852TIP3    H226500   0.943   6.540   0.987
 8853TIP3   OH226501   1.451   7.767   6.204
 8853TIP3    H126502   1.394   7.825   6.255
 8853TIP3    H226503   1.533   7.815   6.194
 8854TIP3   OH226504   5.026   2.874   3.921
 8854TIP3    H126505   5.033   2.950   3.978
 8854TIP3    H226506   5.017   2.911   3.833
 8855TIP3   OH226507   5.106   0.518   2.624
 8855TIP3    H126508   5.125   0.424   2.617
 8855TIP3    H226509   5.021   0.528   2.581
 8856TIP3   OH226510   2.652   5.517   2.332
 8856TIP3    H126511   2.683   5.442   2.281
 8856TIP3    H226512   2.632   5.584   2.266
 8857TIP3   OH226513   2.868   0.311   1.640
 8857TIP3    H126514   2.903   0.397   1.617
 8857TIP3    H226515   2.881   0.258   1.562
 8858TIP3   OH226516   4.359   3.745   1.184
 8858TIP3    H126517   4.439   3.762   1.234
 8858TIP3    H226518   4.315   3.830   1.179
 8859TIP3   OH226519   0.200   5.471   6.205
 8859TIP3    H126520   0.279   5.525   6.212
 8859TIP3    H226521   0.201   5.417   6.284
 8860TIP3   OH226522   4.631   5.293   6.086
 8860TIP3    H126523   4.582   5.242   6.021
 8860TIP3    H226524   4.713   5.315   6.042
 8861TIP3   OH226525   3.304   4.280   3.087
 8861TIP3    H126526   3.318   4.213   3.155
 8861TIP3    H226527   3.260   4.351   3.133
 8862TIP3   OH226528   3.954   6.609   2.324
 8862TIP3    H126529   3.962   6.544   2.254
 8862TIP3    H226530   3.874   6.584   2.371
 8863TIP3   OH226531   8.316   7.406   4.456
 8863TIP3    H126532   8.247   7.349   4.422
 8863TIP3    H226533   8.375   7.418   4.382
 8864TIP3   OH226534   6.868   7.746   6.428
 8864TIP3    H126535   6.807   7.688   6.474
 8864TIP3    H226536   6.831   7.834   6.440
 8865TIP3   OH226537   8.023   7.119   2.106
 8865TIP3    H126538   8.081   7.046   2.129
 8865TIP3    H226539   7.960   7.122   2.177
 8866TIP3   OH226540   7.750   4.370   4.894
 8866TIP3    H126541   7.732   4.378   4.800
 8866TIP3    H226542   7.695   4.436   4.935
 8867TIP3   OH226543   1.845   1.798   2.760
 8867TIP3    H126544   1.928   1.751   2.770
 8867TIP3    H226545   1.795   1.777   2.839
 8868TIP3   OH226546   7.951   4.206   2.552
 8868TIP3    H126547   7.882   4.252   2.600
 8868TIP3    H226548   7.928   4.218   2.460
 8869TIP3   OH226549   2.950   2.985   3.419
 8869TIP3    H126550   2.987   2.923   3.356
 8869TIP3    H226551   2.968   2.946   3.505
 8870TIP3   OH226552   8.151   7.702   5.653
 8870TIP3    H126553   8.161   7.621   5.702
 8870TIP3    H226554   8.177   7.680   5.564
 8871TIP3   OH226555   4.345   2.553   5.288
 8871TIP3    H126556   4.330   2.578   5.197
 8871TIP3    H226557   4.372   2.461   5.284
 8872TIP3   OH226558   7.788   3.264   2.744
 8872TIP3    H126559   7.784   3.357   2.720
 8872TIP3    H226560   7.696   3.237   2.751
 8873TIP3   OH226561   4.182   3.697   0.974
 8873TIP3    H126562   4.252   3.726   1.032
 8873TIP3    H226563   4.113   3.667   1.032
 8874TIP3   OH226564   4.139   2.770   6.479
 8874TIP3    H126565   4.097   2.726   6.552
 8874TIP3    H226566   4.224   2.797   6.513
 8875TIP3   OH226567  -0.008   5.466   2.714
 8875TIP3    H126568  -0.007   5.374   2.687
 8875TIP3    H226569   0.060   5.472   2.781
 8876TIP3   OH226570   1.031   1.965   6.566
 8876TIP3    H126571   0.991   1.953   6.652
 8876TIP3    H226572   1.116   1.922   6.573
 8877TIP3   OH226573   0.845   1.448   6.592
 8877TIP3    H126574   0.805   1.514   6.649
 8877TIP3    H226575   0.801   1.461   6.508
 8878TIP3   OH226576   5.414   1.091   0.394
 8878TIP3    H126577   5.367   1.019   0.438
 8878TIP3    H226578   5.425   1.157   0.463
 8879TIP3   OH226579   6.796   0.529   5.582
 8879TIP3    H126580   6.831   0.484   5.505
 8879TIP3    H226581   6.718   0.573   5.551
 8880TIP3   OH226582   1.047   3.461   6.368
 8880TIP3    H126583   1.088   3.521   6.430
 8880TIP3    H226584   1.058   3.503   6.282
 8881TIP3   OH226585   4.133   6.627   3.100
 8881TIP3    H126586   4.080   6.558   3.139
 8881TIP3    H226587   4.140   6.603   3.007
 8882TIP3   OH226588   5.522   2.058   3.795
 8882TIP3    H126589   5.563   2.032   3.713
 8882TIP3    H226590   5.570   2.135   3.823
 8883TIP3   OH226591   8.050   4.025   1.367
 8883TIP3    H126592   8.003   4.059   1.291
 8883TIP3    H226593   8.074   4.102   1.417
 8884TIP3   OH226594   4.678   0.522   5.709
 8884TIP3    H126595   4.763   0.551   5.744
 8884TIP3    H226596   4.670   0.431   5.739
 8885TIP3   OH226597   1.466   4.980   3.151
 8885TIP3    H126598   1.392   4.966   3.210
 8885TIP3    H226599   1.445   4.929   3.073
 8886TIP3   OH226600   3.166   6.455   2.456
 8886TIP3    H126601   3.196   6.510   2.529
 8886TIP3    H226602   3.076   6.433   2.478
 8887TIP3   OH226603   2.668   0.057   4.043
 8887TIP3    H126604   2.663  -0.032   4.079
 8887TIP3    H226605   2.723   0.105   4.105
 8888TIP3   OH226606   3.464   5.369   5.413
 8888TIP3    H126607   3.530   5.349   5.479
 8888TIP3    H226608   3.432   5.456   5.437
 8889TIP3   OH226609   5.409   5.448   4.205
 8889TIP3    H126610   5.434   5.461   4.114
 8889TIP3    H226611   5.432   5.530   4.248
 8890TIP3   OH226612   8.109   3.172   4.370
 8890TIP3    H126613   8.024   3.145   4.406
 8890TIP3    H226614   8.171   3.109   4.406
 8891TIP3   OH226615   6.086   2.280   2.444
 8891TIP3    H126616   6.009   2.245   2.398
 8891TIP3    H226617   6.050   2.346   2.503
 8892TIP3   OH226618   6.647   0.603   3.210
 8892TIP3    H126619   6.578   0.606   3.277
 8892TIP3    H226620   6.659   0.510   3.192
 8893TIP3   OH226621   5.076   6.140   1.629
 8893TIP3    H126622   4.986   6.128   1.599
 8893TIP3    H226623   5.100   6.055   1.666
 8894TIP3   OH226624   4.316   7.707   5.182
 8894TIP3    H126625   4.297   7.614   5.197
 8894TIP3    H226626   4.232   7.751   5.199
 8895TIP3   OH226627   8.082   6.984   5.597
 8895TIP3    H126628   8.060   6.945   5.512
 8895TIP3    H226629   8.073   7.078   5.582
 8896TIP3   OH226630   8.240   0.343   2.873
 8896TIP3    H126631   8.185   0.370   2.947
 8896TIP3    H226632   8.177   0.312   2.807
 8897TIP3   OH226633   4.227   0.717   0.199
 8897TIP3    H126634   4.313   0.724   0.239
 8897TIP3    H226635   4.172   0.673   0.264
 8898TIP3   OH226636   0.814   6.604   1.699
 8898TIP3    H126637   0.845   6.690   1.725
 8898TIP3    H226638   0.892   6.559   1.666
 8899TIP3   OH226639   3.672   4.412   3.305
 8899TIP3    H126640   3.666   4.363   3.223
 8899TIP3    H226641   3.581   4.420   3.335
 8900TIP3   OH226642   3.999   5.263   6.135
 8900TIP3    H126643   3.930   5.241   6.196
 8900TIP3    H226644   3.965   5.338   6.086
 8901TIP3   OH226645   0.711   5.478   5.497
 8901TIP3    H126646   0.638   5.417   5.505
 8901TIP3    H226647   0.674   5.554   5.453
 8902TIP3   OH226648   1.250   1.656   2.841
 8902TIP3    H126649   1.220   1.689   2.757
 8902TIP3    H226650   1.338   1.623   2.825
 8903TIP3   OH226651   1.667   0.943   4.483
 8903TIP3    H126652   1.751   0.937   4.529
 8903TIP3    H226653   1.602   0.919   4.548
 8904TIP3   OH226654   2.361   4.240   2.753
 8904TIP3    H126655   2.275   4.277   2.734
 8904TIP3    H226656   2.422   4.294   2.703
 8905TIP3   OH226657   5.168   0.191   0.844
 8905TIP3    H126658   5.229   0.129   0.885
 8905TIP3    H226659   5.122   0.231   0.917
 8906TIP3   OH226660   6.288   7.583   5.430
 8906TIP3    H126661   6.358   7.517   5.427
 8906TIP3    H226662   6.323   7.652   5.486
 8907TIP3   OH226663   3.605   1.997   3.950
 8907TIP3    H126664   3.560   1.913   3.943
 8907TIP3    H226665   3.671   1.995   3.880
 8908TIP3   OH226666   0.887   6.474   1.423
 8908TIP3    H126667   0.896   6.394   1.371
 8908TIP3    H226668   0.799   6.470   1.459
 8909TIP3   OH226669   4.760   1.190   2.955
 8909TIP3    H126670   4.843   1.146   2.968
 8909TIP3    H226671   4.772   1.243   2.876
 8910TIP3   OH226672   1.868   6.448   5.561
 8910TIP3    H126673   1.877   6.353   5.570
 8910TIP3    H226674   1.937   6.484   5.618
 8911TIP3   OH226675   6.455   4.575   5.380
 8911TIP3    H126676   6.550   4.581   5.391
 8911TIP3    H226677   6.443   4.510   5.310
 8912TIP3   OH226678   2.956   6.151   0.110
 8912TIP3    H126679   2.896   6.203   0.163
 8912TIP3    H226680   2.935   6.060   0.132
 8913TIP3   OH226681   7.022   0.248   3.951
 8913TIP3    H126682   7.072   0.194   4.013
 8913TIP3    H226683   6.934   0.252   3.988
 8914TIP3   OH226684   8.180   4.999   2.643
 8914TIP3    H126685   8.162   5.049   2.723
 8914TIP3    H226686   8.101   5.011   2.590
 8915TIP3   OH226687   2.716   4.157   3.977
 8915TIP3    H126688   2.740   4.201   4.059
 8915TIP3    H226689   2.647   4.095   4.003
 8916TIP3   OH226690   5.962   5.051   0.951
 8916TIP3    H126691   5.876   5.013   0.967
 8916TIP3    H226692   6.007   4.986   0.897
 8917TIP3   OH226693   6.663   6.543   6.438
 8917TIP3    H126694   6.593   6.481   6.458
 8917TIP3    H226695   6.619   6.628   6.433
 8918TIP3   OH226696   6.125   4.935   4.917
 8918TIP3    H126697   6.052   4.935   4.854
 8918TIP3    H226698   6.090   4.979   4.994
 8919TIP3   OH226699   7.561   5.372   1.672
 8919TIP3    H126700   7.469   5.359   1.695
 8919TIP3    H226701   7.592   5.285   1.647
 8920TIP3   OH226702   0.276   2.840   3.975
 8920TIP3    H126703   0.273   2.827   4.070
 8920TIP3    H226704   0.300   2.932   3.963
 8921TIP3   OH226705   6.436   2.321   5.409
 8921TIP3    H126706   6.428   2.340   5.316
 8921TIP3    H226707   6.515   2.266   5.416
 8922TIP3   OH226708   3.846   7.389   3.987
 8922TIP3    H126709   3.866   7.337   3.909
 8922TIP3    H226710   3.921   7.447   3.997
 8923TIP3   OH226711   0.561   5.302   3.197
 8923TIP3    H126712   0.564   5.320   3.103
 8923TIP3    H226713   0.652   5.311   3.226
 8924TIP3   OH226714   3.131   6.578   2.194
 8924TIP3    H126715   3.128   6.522   2.271
 8924TIP3    H226716   3.097   6.524   2.123
 8925TIP3   OH226717   1.313   2.190   2.153
 8925TIP3    H126718   1.355   2.276   2.156
 8925TIP3    H226719   1.219   2.209   2.151
 8926TIP3   OH226720   5.574   3.146   6.570
 8926TIP3    H126721   5.589   3.203   6.495
 8926TIP3    H226722   5.640   3.172   6.635
 8927TIP3   OH226723   3.131   0.779   6.134
 8927TIP3    H126724   3.097   0.867   6.149
 8927TIP3    H226725   3.221   0.783   6.165
 8928TIP3   OH226726   3.355   3.232   1.364
 8928TIP3    H126727   3.293   3.193   1.302
 8928TIP3    H226728   3.300   3.278   1.427
 8929TIP3   OH226729   7.369   1.840   2.520
 8929TIP3    H126730   7.300   1.906   2.514
 8929TIP3    H226731   7.439   1.883   2.568
 8930TIP3   OH226732   0.538   4.839   0.857
 8930TIP3    H126733   0.585   4.773   0.806
 8930TIP3    H226734   0.503   4.791   0.933
 8931TIP3   OH226735   4.721   2.566   5.236
 8931TIP3    H126736   4.740   2.549   5.144
 8931TIP3    H226737   4.728   2.661   5.244
 8932TIP3   OH226738   5.103   1.377   1.156
 8932TIP3    H126739   5.103   1.463   1.198
 8932TIP3    H226740   5.180   1.333   1.191
 8933TIP3   OH226741   4.550   4.018   4.407
 8933TIP3    H126742   4.624   3.961   4.384
 8933TIP3    H226743   4.498   3.967   4.468
 8934TIP3   OH226744   7.503   3.249   2.286
 8934TIP3    H126745   7.429   3.211   2.238
 8934TIP3    H226746   7.547   3.304   2.222
 8935TIP3   OH226747   0.630   4.143   2.645
 8935TIP3    H126748   0.541   4.171   2.668
 8935TIP3    H226749   0.684   4.220   2.664
 8936TIP3   OH226750   3.960   6.683   5.601
 8936TIP3    H126751   3.869   6.667   5.575
 8936TIP3    H226752   4.006   6.702   5.519
 8937TIP3   OH226753   0.230   5.381   4.229
 8937TIP3    H126754   0.147   5.341   4.203
 8937TIP3    H226755   0.287   5.306   4.249
 8938TIP3   OH226756   3.024   6.978   0.579
 8938TIP3    H126757   2.949   6.940   0.624
 8938TIP3    H226758   3.045   6.915   0.510
 8939TIP3   OH226759   7.317   1.620   1.294
 8939TIP3    H126760   7.304   1.696   1.350
 8939TIP3    H226761   7.229   1.594   1.267
 8940TIP3   OH226762   0.291   2.656   5.423
 8940TIP3    H126763   0.358   2.719   5.394
 8940TIP3    H226764   0.318   2.634   5.512
 8941TIP3   OH226765   2.885   3.008   5.829
 8941TIP3    H126766   2.858   3.048   5.912
 8941TIP3    H226767   2.980   3.016   5.827
 8942TIP3   OH226768   4.032   1.509   1.821
 8942TIP3    H126769   4.036   1.603   1.802
 8942TIP3    H226770   3.952   1.480   1.778
 8943TIP3   OH226771   2.133   6.070   5.983
 8943TIP3    H126772   2.196   6.034   6.046
 8943TIP3    H226773   2.179   6.144   5.944
 8944TIP3   OH226774   2.598   2.962   1.427
 8944TIP3    H126775   2.512   2.989   1.459
 8944TIP3    H226776   2.580   2.920   1.342
 8945TIP3   OH226777   3.782   1.328   5.259
 8945TIP3    H126778   3.707   1.387   5.254
 8945TIP3    H226779   3.750   1.251   5.307
 8946TIP3   OH226780   7.906   4.938   0.675
 8946TIP3    H126781   7.933   4.980   0.593
 8946TIP3    H226782   7.936   4.997   0.743
 8947TIP3   OH226783   7.778   4.915   1.002
 8947TIP3    H126784   7.823   4.993   1.035
 8947TIP3    H226785   7.790   4.920   0.907
 8948TIP3   OH226786   2.241   2.275   4.147
 8948TIP3    H126787   2.330   2.246   4.167
 8948TIP3    H226788   2.238   2.281   4.052
 8949TIP3   OH226789   6.239   2.177   1.968
 8949TIP3    H126790   6.318   2.208   2.013
 8949TIP3    H226791   6.238   2.083   1.983
 8950TIP3   OH226792   0.560   1.154   2.856
 8950TIP3    H126793   0.526   1.065   2.850
 8950TIP3    H226794   0.545   1.192   2.770
 8951TIP3   OH226795   7.288   1.063   2.649
 8951TIP3    H126796   7.360   1.047   2.587
 8951TIP3    H226797   7.307   1.150   2.684
 8952TIP3   OH226798   6.201   0.932   0.630
 8952TIP3    H126799   6.232   0.892   0.549
 8952TIP3    H226800   6.218   1.026   0.618
 8953TIP3   OH226801   7.570   2.319   3.064
 8953TIP3    H126802   7.625   2.297   2.988
 8953TIP3    H226803   7.488   2.350   3.025
 8954TIP3   OH226804   0.951   6.157   3.747
 8954TIP3    H126805   0.985   6.123   3.830
 8954TIP3    H226806   1.011   6.121   3.681
 8955TIP3   OH226807   0.591   4.337   2.910
 8955TIP3    H126808   0.548   4.388   2.841
 8955TIP3    H226809   0.567   4.382   2.991
 8956TIP3   OH226810   1.754   6.499   3.600
 8956TIP3    H126811   1.766   6.419   3.550
 8956TIP3    H226812   1.832   6.505   3.656
 8957TIP3   OH226813   4.690   0.606   4.077
 8957TIP3    H126814   4.623   0.652   4.126
 8957TIP3    H226815   4.760   0.670   4.064
 8958TIP3   OH226816   5.531   3.821   6.351
 8958TIP3    H126817   5.493   3.826   6.438
 8958TIP3    H226818   5.490   3.893   6.302
 8959TIP3   OH226819   5.331   4.382   0.450
 8959TIP3    H126820   5.330   4.374   0.545
 8959TIP3    H226821   5.243   4.412   0.428
 8960TIP3   OH226822   3.846   1.335   0.621
 8960TIP3    H126823   3.843   1.383   0.538
 8960TIP3    H226824   3.755   1.309   0.637
 8961TIP3   OH226825   4.431   4.119   1.184
 8961TIP3    H126826   4.400   4.209   1.181
 8961TIP3    H226827   4.362   4.072   1.230
 8962TIP3   OH226828   3.912   3.610   0.172
 8962TIP3    H126829   3.940   3.524   0.203
 8962TIP3    H226830   3.829   3.626   0.217
 8963TIP3   OH226831   7.637   2.639   5.257
 8963TIP3    H126832   7.611   2.570   5.196
 8963TIP3    H226833   7.617   2.604   5.344
 8964TIP3   OH226834   0.004   6.967   2.158
 8964TIP3    H126835   0.063   6.933   2.225
 8964TIP3    H226836   0.007   6.902   2.088
 8965TIP3   OH226837   4.350   1.011   0.644
 8965TIP3    H126838   4.297   1.087   0.619
 8965TIP3    H226839   4.441   1.042   0.638
 8966TIP3   OH226840   4.202   5.971   3.149
 8966TIP3    H126841   4.229   6.029   3.220
 8966TIP3    H226842   4.269   5.902   3.149
 8967TIP3   OH226843   4.254   4.517   6.187
 8967TIP3    H126844   4.247   4.450   6.120
 8967TIP3    H226845   4.325   4.487   6.244
 8968TIP3   OH226846   3.039   1.634   6.737
 8968TIP3    H126847   2.944   1.642   6.727
 8968TIP3    H226848   3.074   1.712   6.695
 8969TIP3   OH226849   6.748   2.114   5.837
 8969TIP3    H126850   6.783   2.203   5.829
 8969TIP3    H226851   6.653   2.125   5.835
 8970TIP3   OH226852   5.785   5.499   2.544
 8970TIP3    H126853   5.818   5.419   2.586
 8970TIP3    H226854   5.864   5.545   2.515
 8971TIP3   OH226855   8.163   7.249   2.942
 8971TIP3    H126856   8.111   7.177   2.906
 8971TIP3    H226857   8.239   7.254   2.885
 8972TIP3   OH226858   6.602   7.256   3.908
 8972TIP3    H126859   6.599   7.302   3.825
 8972TIP3    H226860   6.668   7.187   3.895
 8973TIP3   OH226861   5.309   3.797   4.831
 8973TIP3    H126862   5.327   3.814   4.738
 8973TIP3    H226863   5.354   3.868   4.877
 8974TIP3   OH226864   4.917   5.395   4.257
 8974TIP3    H126865   4.921   5.320   4.198
 8974TIP3    H226866   5.002   5.437   4.248
 8975TIP3   OH226867   7.715   1.635   2.413
 8975TIP3    H126868   7.649   1.598   2.471
 8975TIP3    H226869   7.693   1.728   2.406
 8976TIP3   OH226870   6.778   6.109   6.361
 8976TIP3    H126871   6.829   6.082   6.437
 8976TIP3    H226872   6.806   6.199   6.344
 8977TIP3   OH226873   1.635   4.675   3.064
 8977TIP3    H126874   1.543   4.647   3.059
 8977TIP3    H226875   1.653   4.679   3.158
 8978TIP3   OH226876   1.239   7.735   3.543
 8978TIP3    H126877   1.171   7.690   3.594
 8978TIP3    H226878   1.319   7.722   3.592
 8979TIP3   OH226879   5.725   1.273   4.222
 8979TIP3    H126880   5.780   1.310   4.154
 8979TIP3    H226881   5.786   1.233   4.284
 8980TIP3   OH226882   2.253   4.517   0.227
 8980TIP3    H126883   2.177   4.563   0.263
 8980TIP3    H226884   2.231   4.424   0.234
 8981TIP3   OH226885   4.907   1.989   2.159
 8981TIP3    H126886   4.827   2.026   2.121
 8981TIP3    H226887   4.896   1.894   2.150
 8982TIP3   OH226888   7.615   7.170   0.100
 8982TIP3    H126889   7.603   7.244   0.159
 8982TIP3    H226890   7.691   7.194   0.047
 8983TIP3   OH226891   4.254   6.518   3.821
 8983TIP3    H126892   4.344   6.534   3.792
 8983TIP3    H226893   4.201   6.580   3.771
 8984TIP3   OH226894   0.491   2.875   0.148
 8984TIP3    H126895   0.448   2.920   0.075
 8984TIP3    H226896   0.426   2.810   0.177
 8985TIP3   OH226897   1.481   5.241   4.691
 8985TIP3    H126898   1.542   5.279   4.628
 8985TIP3    H226899   1.536   5.213   4.764
 8986TIP3   OH226900   5.215   2.016   0.129
 8986TIP3    H126901   5.139   1.979   0.173
 8986TIP3    H226902   5.187   2.027   0.038
 8987TIP3   OH226903   5.981   3.783   6.390
 8987TIP3    H126904   6.075   3.783   6.405
 8987TIP3    H226905   5.947   3.849   6.450
 8988TIP3   OH226906   0.480   4.265   3.945
 8988TIP3    H126907   0.558   4.226   3.907
 8988TIP3    H226908   0.507   4.353   3.972
 8989TIP3   OH226909   6.778   7.528   0.321
 8989TIP3    H126910   6.752   7.515   0.412
 8989TIP3    H226911   6.702   7.500   0.270
 8990TIP3   OH226912   3.247   2.248   5.172
 8990TIP3    H126913   3.318   2.213   5.119
 8990TIP3    H226914   3.209   2.318   5.119
 8991TIP3   OH226915   5.473   4.621   0.808
 8991TIP3    H126916   5.403   4.606   0.744
 8991TIP3    H226917   5.533   4.548   0.796
 8992TIP3   OH226918   1.329   1.569   0.715
 8992TIP3    H126919   1.422   1.553   0.735
 8992TIP3    H226920   1.286   1.486   0.732
 8993TIP3   OH226921   3.089   1.734   4.047
 8993TIP3    H126922   3.142   1.737   3.968
 8993TIP3    H226923   3.149   1.702   4.115
 8994TIP3   OH226924   0.726   6.497   1.172
 8994TIP3    H126925   0.746   6.533   1.085
 8994TIP3    H226926   0.783   6.421   1.180
 8995TIP3   OH226927   6.744   7.708   4.510
 8995TIP3    H126928   6.787   7.623   4.502
 8995TIP3    H226929   6.654   7.693   4.481
 8996TIP3   OH226930   2.280   3.831   5.956
 8996TIP3    H126931   2.286   3.888   5.880
 8996TIP3    H226932   2.240   3.750   5.922
 8997TIP3   OH226933   1.406   0.790   0.558
 8997TIP3    H126934   1.451   0.794   0.474
 8997TIP3    H226935   1.475   0.780   0.623
 8998TIP3   OH226936   0.166   2.559   6.230
 8998TIP3    H126937   0.260   2.544   6.236
 8998TIP3    H226938   0.150   2.636   6.284
 8999TIP3   OH226939   0.113   3.056   6.205
 8999TIP3    H126940   0.154   2.974   6.233
 8999TIP3    H226941   0.105   3.047   6.110
 9000TIP3   OH226942   7.231   2.001   4.995
 9000TIP3    H126943   7.273   2.052   5.064
 9000TIP3    H226944   7.138   2.002   5.018
 9001TIP3   OH226945   6.055   0.776   5.387
 9001TIP3    H126946   6.120   0.715   5.420
 9001TIP3    H226947   6.103   0.832   5.326
 9002TIP3   OH226948   1.991   2.667   3.383
 9002TIP3    H126949   2.063   2.629   3.433
 9002TIP3    H226950   1.981   2.609   3.308
 9003TIP3   OH226951   0.863   4.073   6.361
 9003TIP3    H126952   0.792   4.014   6.334
 9003TIP3    H226953   0.898   4.107   6.279
 9004TIP3   OH226954   3.654   0.550   2.036
 9004TIP3    H126955   3.627   0.498   1.960
 9004TIP3    H226956   3.747   0.568   2.021
 9005TIP3   OH226957   7.489   2.059   1.332
 9005TIP3    H126958   7.426   1.990   1.311
 9005TIP3    H226959   7.448   2.140   1.299
 9006TIP3   OH226960   8.308   0.209   3.892
 9006TIP3    H126961   8.297   0.248   3.805
 9006TIP3    H226962   8.280   0.277   3.953
 9007TIP3   OH226963   5.281   5.295   0.253
 9007TIP3    H126964   5.196   5.295   0.296
 9007TIP3    H226965   5.314   5.384   0.264
 9008TIP3   OH226966   4.410   5.076   0.714
 9008TIP3    H126967   4.447   5.151   0.668
 9008TIP3    H226968   4.430   5.092   0.807
 9009TIP3   OH226969   4.848   4.150   5.637
 9009TIP3    H126970   4.828   4.057   5.627
 9009TIP3    H226971   4.843   4.165   5.731
 9010TIP3   OH226972   5.033   0.893   2.295
 9010TIP3    H126973   5.105   0.830   2.300
 9010TIP3    H226974   4.993   0.890   2.382
 9011TIP3   OH226975   4.501   0.445   1.737
 9011TIP3    H126976   4.434   0.413   1.677
 9011TIP3    H226977   4.569   0.377   1.734
 9012TIP3   OH226978   5.674   6.742   2.925
 9012TIP3    H126979   5.608   6.768   2.861
 9012TIP3    H226980   5.666   6.806   2.995
 9013TIP3   OH226981   3.879   5.282   3.373
 9013TIP3    H126982   3.938   5.270   3.298
 9013TIP3    H226983   3.914   5.223   3.440
 9014TIP3   OH226984   0.689   2.127   3.307
 9014TIP3    H126985   0.729   2.040   3.305
 9014TIP3    H226986   0.704   2.162   3.219
 9015TIP3   OH226987   6.521   1.433   4.453
 9015TIP3    H126988   6.456   1.428   4.523
 9015TIP3    H226989   6.489   1.372   4.386
 9016TIP3   OH226990   0.286   3.748   5.004
 9016TIP3    H126991   0.331   3.665   4.990
 9016TIP3    H226992   0.288   3.761   5.099
 9017TIP3   OH226993   4.477   7.405   1.279
 9017TIP3    H126994   4.417   7.360   1.338
 9017TIP3    H226995   4.434   7.400   1.193
 9018TIP3   OH226996   7.087   4.949   5.674
 9018TIP3    H126997   7.052   4.904   5.751
 9018TIP3    H226998   7.167   4.902   5.653
 9019TIP3   OH226999   2.085   6.712   0.856
 9019TIP3    H127000   2.026   6.778   0.890
 9019TIP3    H227001   2.165   6.759   0.834
 9020TIP3   OH227002   4.592   3.915   1.117
 9020TIP3    H127003   4.535   3.989   1.138
 9020TIP3    H227004   4.658   3.915   1.186
 9021TIP3   OH227005   7.292   4.980   4.418
 9021TIP3    H127006   7.293   4.955   4.325
 9021TIP3    H227007   7.353   4.919   4.459
 9022TIP3   OH227008   4.369   7.032   2.028
 9022TIP3    H127009   4.358   7.044   1.934
 9022TIP3    H227010   4.446   7.084   2.051
 9023TIP3   OH227011   6.393   1.312   3.653
 9023TIP3    H127012   6.472   1.327   3.703
 9023TIP3    H227013   6.405   1.226   3.613
 9024TIP3   OH227014   4.162   5.968   0.974
 9024TIP3    H127015   4.187   6.056   0.946
 9024TIP3    H227016   4.106   5.983   1.050
 9025TIP3   OH227017   2.441   5.155   4.296
 9025TIP3    H127018   2.398   5.133   4.378
 9025TIP3    H227019   2.533   5.170   4.321
 9026TIP3   OH227020   5.424   7.428   3.316
 9026TIP3    H127021   5.419   7.423   3.221
 9026TIP3    H227022   5.463   7.345   3.343
 9027TIP3   OH227023   0.366   6.082   0.189
 9027TIP3    H127024   0.334   6.088   0.278
 9027TIP3    H227025   0.437   6.147   0.184
 9028TIP3   OH227026   5.353   0.821   6.666
 9028TIP3    H127027   5.424   0.885   6.663
 9028TIP3    H227028   5.302   0.845   6.744
 9029TIP3   OH227029   4.934   6.566   5.832
 9029TIP3    H127030   4.922   6.601   5.921
 9029TIP3    H227031   4.960   6.475   5.845
 9030TIP3   OH227032   1.154   3.878   3.709
 9030TIP3    H127033   1.156   3.782   3.711
 9030TIP3    H227034   1.235   3.903   3.665
 9031TIP3   OH227035   2.376   3.997   3.677
 9031TIP3    H127036   2.414   4.082   3.699
 9031TIP3    H227037   2.432   3.933   3.723
 9032TIP3   OH227038   3.778   4.908   4.026
 9032TIP3    H127039   3.720   4.849   3.978
 9032TIP3    H227040   3.733   4.993   4.023
 9033TIP3   OH227041   4.570   0.820   0.898
 9033TIP3    H127042   4.601   0.837   0.809
 9033TIP3    H227043   4.576   0.726   0.908
 9034TIP3   OH227044   3.645   1.981   3.060
 9034TIP3    H127045   3.631   1.935   3.143
 9034TIP3    H227046   3.586   2.056   3.063
 9035TIP3   OH227047   2.141   0.295   5.417
 9035TIP3    H127048   2.216   0.305   5.475
 9035TIP3    H227049   2.147   0.369   5.356
 9036TIP3   OH227050   6.823   7.708   5.027
 9036TIP3    H127051   6.773   7.776   5.072
 9036TIP3    H227052   6.913   7.722   5.055
 9037TIP3   OH227053   8.216   6.735   1.993
 9037TIP3    H127054   8.166   6.656   2.013
 9037TIP3    H227055   8.160   6.783   1.932
 9038TIP3   OH227056   3.224   3.424   6.352
 9038TIP3    H127057   3.231   3.517   6.331
 9038TIP3    H227058   3.142   3.396   6.310
 9039TIP3   OH227059   3.000   1.528   4.662
 9039TIP3    H127060   3.034   1.451   4.617
 9039TIP3    H227061   3.006   1.507   4.755
 9040TIP3   OH227062   5.360   4.839   6.219
 9040TIP3    H127063   5.333   4.780   6.289
 9040TIP3    H227064   5.279   4.871   6.181
 9041TIP3   OH227065   1.850   7.068   4.436
 9041TIP3    H127066   1.770   7.018   4.453
 9041TIP3    H227067   1.834   7.154   4.476
 9042TIP3   OH227068   4.865   4.694   2.022
 9042TIP3    H127069   4.791   4.749   2.046
 9042TIP3    H227070   4.826   4.619   1.977
 9043TIP3   OH227071   6.414   4.363   2.417
 9043TIP3    H127072   6.404   4.411   2.500
 9043TIP3    H227073   6.370   4.279   2.432
 9044TIP3   OH227074   8.039   4.101   2.175
 9044TIP3    H127075   8.026   4.006   2.164
 9044TIP3    H227076   7.956   4.133   2.209
 9045TIP3   OH227077   2.393   5.343   2.451
 9045TIP3    H127078   2.459   5.384   2.396
 9045TIP3    H227079   2.348   5.417   2.493
 9046TIP3   OH227080   3.970   6.138   3.329
 9046TIP3    H127081   4.002   6.088   3.404
 9046TIP3    H227082   4.032   6.210   3.320
 9047TIP3   OH227083   2.121   2.855   0.646
 9047TIP3    H127084   2.169   2.773   0.660
 9047TIP3    H227085   2.054   2.855   0.715
 9048TIP3   OH227086   5.281   1.740   5.861
 9048TIP3    H127087   5.364   1.772   5.895
 9048TIP3    H227088   5.237   1.701   5.936
 9049TIP3   OH227089   4.302   1.663   1.722
 9049TIP3    H127090   4.397   1.653   1.736
 9049TIP3    H227091   4.278   1.588   1.668
 9050TIP3   OH227092   7.134   4.143   5.806
 9050TIP3    H127093   7.046   4.132   5.840
 9050TIP3    H227094   7.122   4.174   5.716
 9051TIP3   OH227095   1.549   4.212   6.607
 9051TIP3    H127096   1.530   4.277   6.675
 9051TIP3    H227097   1.641   4.189   6.622
 9052TIP3   OH227098   4.656   1.557   6.644
 9052TIP3    H127099   4.570   1.592   6.623
 9052TIP3    H227100   4.667   1.573   6.737
 9053TIP3   OH227101   5.022   2.881   0.703
 9053TIP3    H127102   5.055   2.800   0.663
 9053TIP3    H227103   5.030   2.947   0.634
 9054TIP3   OH227104   0.855   6.889   1.731
 9054TIP3    H127105   0.934   6.922   1.689
 9054TIP3    H227106   0.811   6.968   1.764
 9055TIP3   OH227107   0.378   4.228   6.396
 9055TIP3    H127108   0.460   4.244   6.443
 9055TIP3    H227109   0.320   4.300   6.422
 9056TIP3   OH227110   3.108   5.107   5.277
 9056TIP3    H127111   3.084   5.200   5.288
 9056TIP3    H227112   3.024   5.062   5.267
 9057TIP3   OH227113   5.132   7.269   5.580
 9057TIP3    H127114   5.198   7.240   5.517
 9057TIP3    H227115   5.061   7.304   5.525
 9058TIP3   OH227116   5.709   7.093   3.813
 9058TIP3    H127117   5.751   7.095   3.727
 9058TIP3    H227118   5.632   7.038   3.800
 9059TIP3   OH227119   0.991   0.933   6.153
 9059TIP3    H127120   0.962   0.909   6.241
 9059TIP3    H227121   0.909   0.948   6.105
 9060TIP3   OH227122   4.950   4.211   3.045
 9060TIP3    H127123   4.963   4.125   3.007
 9060TIP3    H227124   5.034   4.232   3.087
 9061TIP3   OH227125   1.050   0.904   6.585
 9061TIP3    H127126   1.038   0.975   6.647
 9061TIP3    H227127   1.076   0.829   6.639
 9062TIP3   OH227128   4.517   3.645   1.496
 9062TIP3    H127129   4.519   3.734   1.463
 9062TIP3    H227130   4.425   3.625   1.509
 9063TIP3   OH227131   2.858   4.807   3.937
 9063TIP3    H127132   2.848   4.817   3.843
 9063TIP3    H227133   2.919   4.733   3.947
 9064TIP3   OH227134   7.241   6.840   3.336
 9064TIP3    H127135   7.218   6.762   3.385
 9064TIP3    H227136   7.166   6.898   3.345
 9065TIP3   OH227137   5.214   6.650   2.478
 9065TIP3    H127138   5.164   6.662   2.397
 9065TIP3    H227139   5.304   6.673   2.455
 9066TIP3   OH227140   6.915   2.779   6.004
 9066TIP3    H127141   6.979   2.747   5.940
 9066TIP3    H227142   6.967   2.824   6.070
 9067TIP3   OH227143   2.504   5.321   6.763
 9067TIP3    H127144   2.577   5.321   6.700
 9067TIP3    H227145   2.467   5.409   6.757
 9068TIP3   OH227146   0.349   0.556   4.966
 9068TIP3    H127147   0.444   0.568   4.972
 9068TIP3    H227148   0.325   0.598   4.884
 9069TIP3   OH227149   3.873   2.907   4.047
 9069TIP3    H127150   3.794   2.961   4.047
 9069TIP3    H227151   3.857   2.841   4.115
 9070TIP3   OH227152   4.559   1.982   3.376
 9070TIP3    H127153   4.635   1.929   3.350
 9070TIP3    H227154   4.529   2.022   3.294
 9071TIP3   OH227155   7.124   2.997   4.131
 9071TIP3    H127156   7.201   2.956   4.169
 9071TIP3    H227157   7.113   3.078   4.180
 9072TIP3   OH227158   1.803   3.210   4.139
 9072TIP3    H127159   1.754   3.128   4.150
 9072TIP3    H227160   1.738   3.279   4.154
 9073TIP3   OH227161   5.692   1.993   1.798
 9073TIP3    H127162   5.785   2.015   1.796
 9073TIP3    H227163   5.673   1.981   1.891
 9074TIP3   OH227164   6.051   2.567   5.847
 9074TIP3    H127165   5.982   2.507   5.873
 9074TIP3    H227166   6.065   2.548   5.754
 9075TIP3   OH227167   6.988   2.728   4.189
 9075TIP3    H127168   6.948   2.745   4.274
 9075TIP3    H227169   7.036   2.808   4.168
 9076TIP3   OH227170   7.242   1.224   6.389
 9076TIP3    H127171   7.210   1.297   6.337
 9076TIP3    H227172   7.203   1.236   6.476
 9077TIP3   OH227173   4.793   6.424   0.722
 9077TIP3    H127174   4.856   6.403   0.791
 9077TIP3    H227175   4.708   6.427   0.767
 9078TIP3   OH227176   5.342   4.920   2.411
 9078TIP3    H127177   5.433   4.949   2.404
 9078TIP3    H227178   5.333   4.891   2.502
 9079TIP3   OH227179   7.872   5.103   4.432
 9079TIP3    H127180   7.896   5.175   4.375
 9079TIP3    H227181   7.856   5.144   4.517
 9080TIP3   OH227182   2.346   2.850   6.350
 9080TIP3    H127183   2.273   2.880   6.404
 9080TIP3    H227184   2.420   2.905   6.376
 9081TIP3   OH227185   0.217   5.446   5.482
 9081TIP3    H127186   0.192   5.539   5.476
 9081TIP3    H227187   0.298   5.440   5.430
 9082TIP3   OH227188   1.837   4.488   2.977
 9082TIP3    H127189   1.872   4.481   3.065
 9082TIP3    H227190   1.759   4.543   2.986
 9083TIP3   OH227191   1.146   5.722   0.515
 9083TIP3    H127192   1.159   5.772   0.595
 9083TIP3    H227193   1.136   5.631   0.545
 9084TIP3   OH227194   6.482   1.718   0.138
 9084TIP3    H127195   6.443   1.674   0.213
 9084TIP3    H227196   6.438   1.803   0.133
 9085TIP3   OH227197   1.088   7.328   4.496
 9085TIP3    H127198   1.162   7.362   4.546
 9085TIP3    H227199   1.057   7.402   4.444
 9086TIP3   OH227200   0.746   5.498   2.007
 9086TIP3    H127201   0.754   5.446   2.087
 9086TIP3    H227202   0.653   5.520   2.002
 9087TIP3   OH227203   0.338   7.164   6.710
 9087TIP3    H127204   0.393   7.205   6.644
 9087TIP3    H227205   0.289   7.097   6.662
 9088TIP3   OH227206   7.751   1.509   0.820
 9088TIP3    H127207   7.678   1.447   0.829
 9088TIP3    H227208   7.823   1.469   0.869
 9089TIP3   OH227209   5.000   7.232   5.826
 9089TIP3    H127210   5.054   7.238   5.747
 9089TIP3    H227211   4.926   7.178   5.800
 9090TIP3   OH227212   8.243   1.285   2.638
 9090TIP3    H127213   8.188   1.229   2.693
 9090TIP3    H227214   8.235   1.372   2.676
 9091TIP3   OH227215   2.026   4.022   2.633
 9091TIP3    H127216   1.973   4.051   2.707
 9091TIP3    H227217   1.962   4.001   2.565
 9092TIP3   OH227218   3.607   5.867   1.463
 9092TIP3    H127219   3.600   5.844   1.556
 9092TIP3    H227220   3.516   5.874   1.434
 9093TIP3   OH227221   8.177   3.767   6.291
 9093TIP3    H127222   8.209   3.857   6.287
 9093TIP3    H227223   8.082   3.775   6.284
 9094TIP3   OH227224   0.522   1.287   5.677
 9094TIP3    H127225   0.493   1.245   5.596
 9094TIP3    H227226   0.543   1.377   5.651
 9095TIP3   OH227227   5.903   4.161   1.986
 9095TIP3    H127228   5.905   4.236   2.046
 9095TIP3    H227229   5.966   4.100   2.023
 9096TIP3   OH227230   3.004   1.043   3.385
 9096TIP3    H127231   3.037   1.011   3.300
 9096TIP3    H227232   3.078   1.030   3.444
 9097TIP3   OH227233   7.547   0.834   1.203
 9097TIP3    H127234   7.466   0.795   1.234
 9097TIP3    H227235   7.596   0.760   1.164
 9098TIP3   OH227236   1.469   1.483   5.939
 9098TIP3    H127237   1.509   1.451   5.858
 9098TIP3    H227238   1.379   1.451   5.935
 9099TIP3   OH227239   1.283   2.137   6.410
 9099TIP3    H127240   1.272   2.184   6.492
 9099TIP3    H227241   1.270   2.045   6.432
 9100TIP3   OH227242   2.667   6.103   1.280
 9100TIP3    H127243   2.705   6.148   1.204
 9100TIP3    H227244   2.742   6.074   1.331
 9101TIP3   OH227245   1.925   1.785   1.512
 9101TIP3    H127246   1.991   1.765   1.445
 9101TIP3    H227247   1.965   1.855   1.564
 9102TIP3   OH227248   7.260   3.764   6.506
 9102TIP3    H127249   7.252   3.695   6.440
 9102TIP3    H227250   7.291   3.840   6.456
 9103TIP3   OH227251   6.122   7.767   2.071
 9103TIP3    H127252   6.035   7.765   2.032
 9103TIP3    H227253   6.171   7.699   2.025
 9104TIP3   OH227254   1.544   4.963   2.802
 9104TIP3    H127255   1.594   4.962   2.721
 9104TIP3    H227256   1.602   4.921   2.866
 9105TIP3   OH227257   4.452   5.740   3.717
 9105TIP3    H127258   4.477   5.832   3.713
 9105TIP3    H227259   4.505   5.698   3.648
 9106TIP3   OH227260   0.051   3.446   4.394
 9106TIP3    H127261   0.102   3.377   4.352
 9106TIP3    H227262   0.103   3.526   4.381
 9107TIP3   OH227263   3.456   3.276   3.819
 9107TIP3    H127264   3.426   3.247   3.733
 9107TIP3    H227265   3.390   3.243   3.880
 9108TIP3   OH227266   1.346   5.354   1.224
 9108TIP3    H127267   1.268   5.333   1.172
 9108TIP3    H227268   1.381   5.434   1.183
 9109TIP3   OH227269   4.622   7.060   0.700
 9109TIP3    H127270   4.667   7.048   0.784
 9109TIP3    H227271   4.583   6.975   0.681
 9110TIP3   OH227272   7.875   6.376   3.439
 9110TIP3    H127273   7.868   6.401   3.531
 9110TIP3    H227274   7.855   6.456   3.390
 9111TIP3   OH227275   2.062   6.482   6.413
 9111TIP3    H127276   2.055   6.556   6.352
 9111TIP3    H227277   2.141   6.436   6.385
 9112TIP3   OH227278   1.799   1.704   3.469
 9112TIP3    H127279   1.857   1.779   3.456
 9112TIP3    H227280   1.857   1.632   3.495
 9113TIP3   OH227281   0.055   5.474   0.351
 9113TIP3    H127282   0.125   5.482   0.417
 9113TIP3    H227283   0.017   5.562   0.346
 9114TIP3   OH227284   5.994   2.018   4.003
 9114TIP3    H127285   5.911   2.035   4.048
 9114TIP3    H227286   6.057   2.077   4.045
 9115TIP3   OH227287   3.066   2.774   1.527
 9115TIP3    H127288   3.103   2.724   1.600
 9115TIP3    H227289   3.067   2.865   1.558
 9116TIP3   OH227290   4.535   7.621   2.899
 9116TIP3    H127291   4.440   7.607   2.895
 9116TIP3    H227292   4.546   7.715   2.892
 9117TIP3   OH227293   5.756   1.329   2.058
 9117TIP3    H127294   5.824   1.392   2.033
 9117TIP3    H227295   5.803   1.261   2.106
 9118TIP3   OH227296   0.780   0.866   3.718
 9118TIP3    H127297   0.767   0.778   3.684
 9118TIP3    H227298   0.836   0.855   3.794
 9119TIP3   OH227299   1.395   7.119   4.785
 9119TIP3    H127300   1.368   7.028   4.775
 9119TIP3    H227301   1.405   7.151   4.695
 9120TIP3   OH227302   7.386   3.912   4.767
 9120TIP3    H127303   7.469   3.872   4.743
 9120TIP3    H227304   7.327   3.838   4.784
 9121TIP3   OH227305   6.225   2.396   5.982
 9121TIP3    H127306   6.219   2.421   5.890
 9121TIP3    H227307   6.134   2.386   6.010
 9122TIP3   OH227308   1.136   6.683   2.156
 9122TIP3    H127309   1.045   6.692   2.127
 9122TIP3    H227310   1.142   6.595   2.192
 9123TIP3   OH227311   6.015   1.880   0.071
 9123TIP3    H127312   5.927   1.842   0.068
 9123TIP3    H227313   6.003   1.970   0.040
 9124TIP3   OH227314   6.531   6.756   5.225
 9124TIP3    H127315   6.528   6.663   5.251
 9124TIP3    H227316   6.603   6.760   5.162
 9125TIP3   OH227317   0.216   6.675   5.140
 9125TIP3    H127318   0.254   6.727   5.069
 9125TIP3    H227319   0.264   6.703   5.218
 9126TIP3   OH227320   8.254   5.922   4.720
 9126TIP3    H127321   8.280   5.995   4.663
 9126TIP3    H227322   8.333   5.902   4.771
 9127TIP3   OH227323   1.197   1.866   5.898
 9127TIP3    H127324   1.284   1.835   5.924
 9127TIP3    H227325   1.175   1.933   5.962
 9128TIP3   OH227326   1.156   2.557   4.056
 9128TIP3    H127327   1.189   2.638   4.018
 9128TIP3    H227328   1.134   2.579   4.147
 9129TIP3   OH227329   7.905   3.594   5.335
 9129TIP3    H127330   7.930   3.502   5.328
 9129TIP3    H227331   7.861   3.602   5.419
 9130TIP3   OH227332   0.770   3.105   3.543
 9130TIP3    H127333   0.825   3.039   3.586
 9130TIP3    H227334   0.688   3.103   3.593
 9131TIP3   OH227335   7.350   7.667   5.111
 9131TIP3    H127336   7.280   7.697   5.053
 9131TIP3    H227337   7.306   7.642   5.192
 9132TIP3   OH227338   3.862   1.981   6.705
 9132TIP3    H127339   3.795   1.971   6.772
 9132TIP3    H227340   3.833   1.925   6.633
 9133TIP3   OH227341   3.131   1.755   5.122
 9133TIP3    H127342   3.193   1.827   5.109
 9133TIP3    H227343   3.067   1.765   5.052
 9134TIP3   OH227344   8.084   4.941   5.660
 9134TIP3    H127345   8.030   4.866   5.683
 9134TIP3    H227346   8.152   4.944   5.727
 9135TIP3   OH227347   4.532   6.107   4.773
 9135TIP3    H127348   4.512   6.125   4.865
 9135TIP3    H227349   4.619   6.067   4.774
 9136TIP3   OH227350   8.109   7.006   5.115
 9136TIP3    H127351   8.168   7.073   5.149
 9136TIP3    H227352   8.064   6.973   5.193
 9137TIP3   OH227353   6.911   3.420   4.360
 9137TIP3    H127354   6.921   3.450   4.451
 9137TIP3    H227355   6.867   3.493   4.317
 9138TIP3   OH227356   2.138   5.155   4.142
 9138TIP3    H127357   2.222   5.171   4.185
 9138TIP3    H227358   2.127   5.060   4.145
 9139TIP3   OH227359   1.949   7.626   4.047
 9139TIP3    H127360   1.900   7.634   3.965
 9139TIP3    H227361   2.032   7.670   4.029
 9140TIP3   OH227362   0.614   5.995   3.507
 9140TIP3    H127363   0.666   6.076   3.502
 9140TIP3    H227364   0.628   5.952   3.423
 9141TIP3   OH227365   8.271   4.271   0.595
 9141TIP3    H127366   8.178   4.274   0.571
 9141TIP3    H227367   8.279   4.191   0.648
 9142TIP3   OH227368   6.283   2.573   2.121
 9142TIP3    H127369   6.291   2.524   2.203
 9142TIP3    H227370   6.364   2.552   2.073
 9143TIP3   OH227371   0.924   3.330   3.156
 9143TIP3    H127372   0.872   3.350   3.234
 9143TIP3    H227373   0.862   3.287   3.097
 9144TIP3   OH227374   0.563   4.239   1.870
 9144TIP3    H127375   0.653   4.209   1.854
 9144TIP3    H227376   0.568   4.334   1.864
 9145TIP3   OH227377   7.828   0.161   2.184
 9145TIP3    H127378   7.769   0.161   2.108
 9145TIP3    H227379   7.771   0.180   2.258
 9146TIP3   OH227380   1.055   0.892   2.104
 9146TIP3    H127381   1.138   0.898   2.056
 9146TIP3    H227382   1.019   0.807   2.079
 9147TIP3   OH227383   2.724   1.759   5.123
 9147TIP3    H127384   2.734   1.716   5.039
 9147TIP3    H227385   2.663   1.832   5.106
 9148TIP3   OH227386   4.351   3.797   6.644
 9148TIP3    H127387   4.300   3.724   6.609
 9148TIP3    H227388   4.385   3.765   6.728
 9149TIP3   OH227389   3.864   3.958   3.592
 9149TIP3    H127390   3.932   4.025   3.598
 9149TIP3    H227391   3.817   3.978   3.512
 9150TIP3   OH227392   0.943   0.948   5.765
 9150TIP3    H127393   0.891   1.028   5.772
 9150TIP3    H227394   0.893   0.883   5.814
 9151TIP3   OH227395   5.705   4.071   0.231
 9151TIP3    H127396   5.689   4.027   0.314
 9151TIP3    H227397   5.678   4.162   0.246
 9152TIP3   OH227398   0.137   5.651   3.323
 9152TIP3    H127399   0.162   5.741   3.344
 9152TIP3    H227400   0.114   5.613   3.407
 9153TIP3   OH227401   5.210   3.578   0.058
 9153TIP3    H127402   5.232   3.671   0.060
 9153TIP3    H227403   5.291   3.534   0.082
 9154TIP3   OH227404   6.464   4.368   2.957
 9154TIP3    H127405   6.485   4.445   3.011
 9154TIP3    H227406   6.506   4.295   3.002
 9155TIP3   OH227407   0.947   1.080   0.225
 9155TIP3    H127408   0.920   1.072   0.316
 9155TIP3    H227409   1.025   1.135   0.227
 9156TIP3   OH227410   6.067   5.170   3.127
 9156TIP3    H127411   6.082   5.254   3.169
 9156TIP3    H227412   6.144   5.156   3.072
 9157TIP3   OH227413   5.168   6.067   3.670
 9157TIP3    H127414   5.106   6.134   3.639
 9157TIP3    H227415   5.159   5.995   3.608
 9158TIP3   OH227416   1.547   5.242   0.606
 9158TIP3    H127417   1.521   5.284   0.525
 9158TIP3    H227418   1.483   5.271   0.671
 9159TIP3   OH227419   7.602   3.767   0.786
 9159TIP3    H127420   7.621   3.800   0.874
 9159TIP3    H227421   7.689   3.749   0.749
 9160TIP3   OH227422   3.272   2.810   3.505
 9160TIP3    H127423   3.183   2.798   3.539
 9160TIP3    H227424   3.322   2.842   3.580
 9161TIP3   OH227425   6.173   3.687   4.141
 9161TIP3    H127426   6.125   3.630   4.201
 9161TIP3    H227427   6.211   3.755   4.196
 9162TIP3   OH227428   3.928   7.376   6.397
 9162TIP3    H127429   4.018   7.347   6.407
 9162TIP3    H227430   3.905   7.353   6.307
 9163TIP3   OH227431   6.566   1.863   0.519
 9163TIP3    H127432   6.513   1.899   0.591
 9163TIP3    H227433   6.575   1.771   0.540
 9164TIP3   OH227434   0.404   1.075   3.318
 9164TIP3    H127435   0.458   1.142   3.275
 9164TIP3    H227436   0.437   1.072   3.408
 9165TIP3   OH227437   1.028   1.361   1.654
 9165TIP3    H127438   1.118   1.337   1.632
 9165TIP3    H227439   0.985   1.278   1.673
 9166TIP3   OH227440   0.669   5.245   1.073
 9166TIP3    H127441   0.632   5.156   1.075
 9166TIP3    H227442   0.625   5.287   0.999
 9167TIP3   OH227443   7.584   5.809   5.308
 9167TIP3    H127444   7.607   5.805   5.215
 9167TIP3    H227445   7.628   5.734   5.347
 9168TIP3   OH227446   2.533   1.036   6.034
 9168TIP3    H127447   2.538   1.040   6.129
 9168TIP3    H227448   2.622   1.057   6.005
 9169TIP3   OH227449   7.182   7.660   4.080
 9169TIP3    H127450   7.152   7.606   4.008
 9169TIP3    H227451   7.250   7.715   4.042
 9170TIP3   OH227452   1.610   0.650   3.551
 9170TIP3    H127453   1.587   0.570   3.598
 9170TIP3    H227454   1.539   0.662   3.488
 9171TIP3   OH227455   2.157   0.852   0.678
 9171TIP3    H127456   2.062   0.850   0.666
 9171TIP3    H227457   2.191   0.801   0.604
 9172TIP3   OH227458   3.788   2.823   6.146
 9172TIP3    H127459   3.847   2.854   6.215
 9172TIP3    H227460   3.707   2.803   6.192
 9173TIP3   OH227461   5.748   1.789   0.061
 9173TIP3    H127462   5.680   1.793   0.128
 9173TIP3    H227463   5.704   1.749  -0.014
 9174TIP3   OH227464   8.211   0.992   5.650
 9174TIP3    H127465   8.303   1.009   5.633
 9174TIP3    H227466   8.166   1.070   5.618
 9175TIP3   OH227467   3.919   3.859   5.820
 9175TIP3    H127468   3.984   3.788   5.817
 9175TIP3    H227469   3.889   3.868   5.730
 9176TIP3   OH227470   3.971   6.186   5.715
 9176TIP3    H127471   3.903   6.222   5.659
 9176TIP3    H227472   4.053   6.215   5.675
 9177TIP3   OH227473   4.352   0.447   4.911
 9177TIP3    H127474   4.403   0.439   4.831
 9177TIP3    H227475   4.384   0.527   4.952
 9178TIP3   OH227476   6.658   0.541   0.727
 9178TIP3    H127477   6.620   0.480   0.791
 9178TIP3    H227478   6.644   0.499   0.642
 9179TIP3   OH227479   1.314   4.633   5.020
 9179TIP3    H127480   1.321   4.685   4.940
 9179TIP3    H227481   1.401   4.638   5.059
 9180TIP3   OH227482   4.031   2.760   1.584
 9180TIP3    H127483   3.964   2.739   1.649
 9180TIP3    H227484   4.067   2.844   1.612
 9181TIP3   OH227485   4.630   7.120   3.831
 9181TIP3    H127486   4.613   7.028   3.810
 9181TIP3    H227487   4.725   7.128   3.829
 9182TIP3   OH227488   2.313   1.364   5.996
 9182TIP3    H127489   2.336   1.419   6.071
 9182TIP3    H227490   2.285   1.427   5.929
 9183TIP3   OH227491   5.899   5.737   1.599
 9183TIP3    H127492   5.972   5.689   1.637
 9183TIP3    H227493   5.826   5.724   1.660
 9184TIP3   OH227494   5.368   2.748   0.235
 9184TIP3    H127495   5.285   2.708   0.261
 9184TIP3    H227496   5.434   2.683   0.258
 9185TIP3   OH227497   2.917   2.453   3.401
 9185TIP3    H127498   2.953   2.412   3.480
 9185TIP3    H227499   2.994   2.468   3.345
 9186TIP3   OH227500   0.564   6.748   1.403
 9186TIP3    H127501   0.647   6.787   1.376
 9186TIP3    H227502   0.525   6.812   1.463
 9187TIP3   OH227503   6.380   6.165   4.371
 9187TIP3    H127504   6.425   6.081   4.376
 9187TIP3    H227505   6.316   6.155   4.301
 9188TIP3   OH227506   5.666   5.940   0.530
 9188TIP3    H127507   5.628   5.982   0.607
 9188TIP3    H227508   5.705   6.013   0.481
 9189TIP3   OH227509   4.533   2.392   5.750
 9189TIP3    H127510   4.574   2.472   5.716
 9189TIP3    H227511   4.444   2.419   5.772
 9190TIP3   OH227512   4.046   7.066   5.245
 9190TIP3    H127513   4.118   7.064   5.182
 9190TIP3    H227514   4.088   7.090   5.328
 9191TIP3   OH227515   5.038   6.455   0.470
 9191TIP3    H127516   5.006   6.518   0.405
 9191TIP3    H227517   4.958   6.416   0.507
 9192TIP3   OH227518   2.530   2.525   3.545
 9192TIP3    H127519   2.607   2.474   3.568
 9192TIP3    H227520   2.563   2.593   3.486
 9193TIP3   OH227521   6.658   5.053   0.955
 9193TIP3    H127522   6.671   5.130   1.010
 9193TIP3    H227523   6.592   5.081   0.891
 9194TIP3   OH227524   6.814   7.290   5.864
 9194TIP3    H127525   6.908   7.274   5.865
 9194TIP3    H227526   6.790   7.283   5.771
 9195TIP3   OH227527   2.268   1.812   4.287
 9195TIP3    H127528   2.232   1.894   4.320
 9195TIP3    H227529   2.348   1.837   4.241
 9196TIP3   OH227530   3.038   2.627   0.628
 9196TIP3    H127531   2.989   2.578   0.561
 9196TIP3    H227532   2.983   2.702   0.648
 9197TIP3   OH227533   6.027   4.521   2.645
 9197TIP3    H127534   6.087   4.534   2.572
 9197TIP3    H227535   6.079   4.545   2.722
 9198TIP3   OH227536   6.446   0.401   4.883
 9198TIP3    H127537   6.480   0.375   4.798
 9198TIP3    H227538   6.501   0.475   4.909
 9199TIP3   OH227539   0.988   1.474   1.898
 9199TIP3    H127540   1.061   1.532   1.918
 9199TIP3    H227541   1.006   1.442   1.810
 9200TIP3   OH227542   0.678   0.727   5.697
 9200TIP3    H127543   0.749   0.699   5.639
 9200TIP3    H227544   0.721   0.746   5.781
 9201TIP3   OH227545   4.660   0.478   1.410
 9201TIP3    H127546   4.695   0.512   1.328
 9201TIP3    H227547   4.609   0.401   1.384
 9202TIP3   OH227548   7.092   5.429   5.123
 9202TIP3    H127549   7.087   5.381   5.040
 9202TIP3    H227550   7.004   5.464   5.136
 9203TIP3   OH227551   0.875   0.482   6.474
 9203TIP3    H127552   0.954   0.428   6.477
 9203TIP3    H227553   0.869   0.522   6.561
 9204TIP3   OH227554   3.342   4.927   1.685
 9204TIP3    H127555   3.259   4.970   1.706
 9204TIP3    H227556   3.388   4.991   1.630
 9205TIP3   OH227557   4.638   2.965   4.526
 9205TIP3    H127558   4.707   2.900   4.540
 9205TIP3    H227559   4.632   2.973   4.431
 9206TIP3   OH227560   0.213   3.370   0.160
 9206TIP3    H127561   0.224   3.452   0.113
 9206TIP3    H227562   0.281   3.312   0.125
 9207TIP3   OH227563   7.806   4.363   2.789
 9207TIP3    H127564   7.799   4.331   2.879
 9207TIP3    H227565   7.789   4.457   2.795
 9208TIP3   OH227566   7.285   6.470   4.031
 9208TIP3    H127567   7.351   6.504   4.092
 9208TIP3    H227568   7.337   6.430   3.961
 9209TIP3   OH227569   5.234   5.884   4.264
 9209TIP3    H127570   5.299   5.904   4.331
 9209TIP3    H227571   5.284   5.841   4.194
 9210TIP3   OH227572   7.291   2.345   3.007
 9210TIP3    H127573   7.270   2.392   2.926
 9210TIP3    H227574   7.240   2.264   3.001
 9211TIP3   OH227575   7.033   7.780   3.062
 9211TIP3    H127576   6.947   7.757   3.098
 9211TIP3    H227577   7.095   7.747   3.126
 9212TIP3   OH227578   6.255   1.397   1.415
 9212TIP3    H127579   6.332   1.380   1.469
 9212TIP3    H227580   6.181   1.384   1.475
 9213TIP3   OH227581   5.710   3.786   0.309
 9213TIP3    H127582   5.699   3.701   0.267
 9213TIP3    H227583   5.805   3.799   0.311
 9214TIP3   OH227584   6.025   1.408   3.304
 9214TIP3    H127585   5.969   1.454   3.367
 9214TIP3    H227586   6.036   1.470   3.232
 9215TIP3   OH227587   7.043   0.850   1.168
 9215TIP3    H127588   7.095   0.881   1.242
 9215TIP3    H227589   7.104   0.847   1.095
 9216TIP3   OH227590   4.866   1.344   3.206
 9216TIP3    H127591   4.913   1.268   3.242
 9216TIP3    H227592   4.774   1.317   3.207
 9217TIP3   OH227593   0.610   2.282   1.178
 9217TIP3    H127594   0.682   2.219   1.174
 9217TIP3    H227595   0.547   2.243   1.238
 9218TIP3   OH227596   0.758   2.016   0.537
 9218TIP3    H127597   0.740   1.977   0.623
 9218TIP3    H227598   0.781   1.941   0.482
 9219TIP3   OH227599   6.307   2.439   6.640
 9219TIP3    H127600   6.327   2.528   6.610
 9219TIP3    H227601   6.314   2.444   6.735
 9220TIP3   OH227602   7.356   0.495   6.322
 9220TIP3    H127603   7.405   0.577   6.324
 9220TIP3    H227604   7.423   0.427   6.315
 9221TIP3   OH227605   2.792   5.039   6.409
 9221TIP3    H127606   2.853   4.966   6.416
 9221TIP3    H227607   2.812   5.079   6.325
 9222TIP3   OH227608   4.782   0.856   6.480
 9222TIP3    H127609   4.693   0.864   6.513
 9222TIP3    H227610   4.823   0.789   6.535
 9223TIP3   OH227611   0.089   2.039   4.855
 9223TIP3    H127612   0.158   2.104   4.870
 9223TIP3    H227613   0.131   1.970   4.803
 9224TIP3   OH227614   2.118   4.219   4.469
 9224TIP3    H127615   2.128   4.303   4.423
 9224TIP3    H227616   2.132   4.153   4.400
 9225TIP3   OH227617   7.573   3.462   0.941
 9225TIP3    H127618   7.506   3.394   0.937
 9225TIP3    H227619   7.524   3.541   0.969
 9226TIP3   OH227620   1.753   3.062   4.837
 9226TIP3    H127621   1.817   3.015   4.889
 9226TIP3    H227622   1.689   3.093   4.901
 9227TIP3   OH227623   0.442   1.607   1.889
 9227TIP3    H127624   0.454   1.659   1.969
 9227TIP3    H227625   0.471   1.665   1.819
 9228TIP3   OH227626   1.632   5.190   0.299
 9228TIP3    H127627   1.664   5.161   0.214
 9228TIP3    H227628   1.710   5.220   0.346
 9229TIP3   OH227629   0.151   2.719   1.423
 9229TIP3    H127630   0.161   2.649   1.359
 9229TIP3    H227631   0.057   2.732   1.429
 9230TIP3   OH227632   2.347   2.554   5.505
 9230TIP3    H127633   2.301   2.523   5.427
 9230TIP3    H227634   2.409   2.484   5.526
 9231TIP3   OH227635   7.575   3.116   5.933
 9231TIP3    H127636   7.637   3.054   5.970
 9231TIP3    H227637   7.497   3.107   5.987
 9232TIP3   OH227638   2.852   0.428   4.738
 9232TIP3    H127639   2.885   0.393   4.821
 9232TIP3    H227640   2.908   0.504   4.720
 9233TIP3   OH227641   5.262   4.529   2.438
 9233TIP3    H127642   5.276   4.441   2.472
 9233TIP3    H227643   5.193   4.519   2.372
 9234TIP3   OH227644   8.167   6.893   1.553
 9234TIP3    H127645   8.250   6.937   1.534
 9234TIP3    H227646   8.101   6.947   1.511
 9235TIP3   OH227647   6.516   5.904   1.819
 9235TIP3    H127648   6.586   5.903   1.754
 9235TIP3    H227649   6.437   5.882   1.771
 9236TIP3   OH227650   7.287   0.404   0.671
 9236TIP3    H127651   7.262   0.346   0.743
 9236TIP3    H227652   7.371   0.441   0.698
 9237TIP3   OH227653   6.331   3.285   0.086
 9237TIP3    H127654   6.378   3.368   0.083
 9237TIP3    H227655   6.387   3.224   0.038
 9238TIP3   OH227656   3.908   0.200   3.632
 9238TIP3    H127657   3.884   0.108   3.618
 9238TIP3    H227658   3.998   0.206   3.600
 9239TIP3   OH227659   0.230   6.964   1.348
 9239TIP3    H127660   0.172   6.913   1.291
 9239TIP3    H227661   0.301   6.993   1.290
 9240TIP3   OH227662   6.323   3.115   3.148
 9240TIP3    H127663   6.235   3.077   3.142
 9240TIP3    H227664   6.372   3.073   3.077
 9241TIP3   OH227665   1.901   2.065   3.198
 9241TIP3    H127666   1.855   2.043   3.278
 9241TIP3    H227667   1.930   2.156   3.211
 9242TIP3   OH227668   0.672   5.052   3.692
 9242TIP3    H127669   0.718   4.978   3.732
 9242TIP3    H227670   0.642   5.104   3.766
 9243TIP3   OH227671   7.790   4.737   6.617
 9243TIP3    H127672   7.805   4.709   6.707
 9243TIP3    H227673   7.791   4.656   6.566
 9244TIP3   OH227674   3.105   7.003   3.463
 9244TIP3    H127675   3.012   7.026   3.466
 9244TIP3    H227676   3.143   7.048   3.538
 9245TIP3   OH227677   6.415   4.202   5.935
 9245TIP3    H127678   6.347   4.156   5.887
 9245TIP3    H227679   6.403   4.294   5.910
 9246TIP3   OH227680   3.772   6.229   2.505
 9246TIP3    H127681   3.782   6.280   2.585
 9246TIP3    H227682   3.678   6.228   2.489
 9247TIP3   OH227683   2.075   6.691   6.222
 9247TIP3    H127684   2.144   6.757   6.215
 9247TIP3    H227685   2.006   6.721   6.163
 9248TIP3   OH227686   1.635   4.589   1.056
 9248TIP3    H127687   1.637   4.506   1.008
 9248TIP3    H227688   1.542   4.609   1.065
 9249TIP3   OH227689   1.172   0.046   5.401
 9249TIP3    H127690   1.154   0.059   5.494
 9249TIP3    H227691   1.264   0.022   5.397
 9250TIP3   OH227692   5.311   1.649   3.937
 9250TIP3    H127693   5.225   1.691   3.939
 9250TIP3    H227694   5.313   1.593   4.015
 9251TIP3   OH227695   7.024   5.962   4.670
 9251TIP3    H127696   6.945   5.972   4.617
 9251TIP3    H227697   7.000   5.999   4.755
 9252TIP3   OH227698   1.349   4.960   3.948
 9252TIP3    H127699   1.416   4.967   3.880
 9252TIP3    H227700   1.274   4.921   3.903
 9253TIP3   OH227701   5.224   5.072   6.103
 9253TIP3    H127702   5.274   5.133   6.157
 9253TIP3    H227703   5.225   5.111   6.016
 9254TIP3   OH227704   0.380   0.473   1.541
 9254TIP3    H127705   0.377   0.471   1.637
 9254TIP3    H227706   0.315   0.408   1.514
 9255TIP3   OH227707   0.008   3.289   0.631
 9255TIP3    H127708   0.011   3.222   0.563
 9255TIP3    H227709   0.052   3.248   0.706
 9256TIP3   OH227710   5.347   2.079   2.103
 9256TIP3    H127711   5.365   2.062   2.196
 9256TIP3    H227712   5.392   2.008   2.057
 9257TIP3   OH227713   6.208   4.108   1.568
 9257TIP3    H127714   6.151   4.063   1.631
 9257TIP3    H227715   6.296   4.077   1.590
 9258TIP3   OH227716   6.176   6.149   5.439
 9258TIP3    H127717   6.112   6.176   5.373
 9258TIP3    H227718   6.258   6.143   5.391
 9259TIP3   OH227719   1.274   0.137   3.071
 9259TIP3    H127720   1.241   0.068   3.015
 9259TIP3    H227721   1.368   0.121   3.077
 9260TIP3   OH227722   4.517   4.685   5.186
 9260TIP3    H127723   4.560   4.765   5.158
 9260TIP3    H227724   4.456   4.664   5.115
 9261TIP3   OH227725   1.802   4.086   4.503
 9261TIP3    H127726   1.803   4.182   4.501
 9261TIP3    H227727   1.709   4.064   4.507
 9262TIP3   OH227728   5.046   4.664   5.518
 9262TIP3    H127729   4.992   4.717   5.459
 9262TIP3    H227730   5.055   4.718   5.597
 9263TIP3   OH227731   0.391   2.124   1.873
 9263TIP3    H127732   0.453   2.087   1.810
 9263TIP3    H227733   0.309   2.077   1.857
 9264TIP3   OH227734   0.102   6.480   1.223
 9264TIP3    H127735   0.151   6.441   1.151
 9264TIP3    H227736   0.011   6.453   1.207
 9265TIP3   OH227737   0.181   7.723   2.781
 9265TIP3    H127738   0.182   7.819   2.784
 9265TIP3    H227739   0.272   7.697   2.799
 9266TIP3   OH227740   7.698   1.525   0.200
 9266TIP3    H127741   7.791   1.528   0.180
 9266TIP3    H227742   7.666   1.612   0.178
 9267TIP3   OH227743   3.295   2.916   6.661
 9267TIP3    H127744   3.260   2.923   6.573
 9267TIP3    H227745   3.265   2.995   6.705
 9268TIP3   OH227746   4.093   4.467   6.618
 9268TIP3    H127747   4.071   4.511   6.536
 9268TIP3    H227748   4.037   4.390   6.620
 9269TIP3   OH227749   7.348   1.395   5.555
 9269TIP3    H127750   7.353   1.480   5.599
 9269TIP3    H227751   7.435   1.382   5.518
 9270TIP3   OH227752   4.524   2.864   4.991
 9270TIP3    H127753   4.542   2.905   5.076
 9270TIP3    H227754   4.543   2.932   4.927
 9271TIP3   OH227755   7.739   6.914   0.842
 9271TIP3    H127756   7.721   6.829   0.883
 9271TIP3    H227757   7.668   6.926   0.778
 9272TIP3   OH227758   2.587   1.193   2.076
 9272TIP3    H127759   2.636   1.274   2.091
 9272TIP3    H227760   2.502   1.209   2.116
 9273TIP3   OH227761   6.463   1.116   2.121
 9273TIP3    H127762   6.413   1.036   2.107
 9273TIP3    H227763   6.516   1.125   2.041
 9274TIP3   OH227764   8.005   5.608   4.740
 9274TIP3    H127765   7.971   5.525   4.704
 9274TIP3    H227766   8.099   5.606   4.720
 9275TIP3   OH227767   7.502   0.113   4.721
 9275TIP3    H127768   7.585   0.097   4.767
 9275TIP3    H227769   7.446   0.154   4.787
 9276TIP3   OH227770   1.891   1.364   1.167
 9276TIP3    H127771   1.807   1.321   1.149
 9276TIP3    H227772   1.957   1.304   1.133
 9277TIP3   OH227773  -0.019   4.999   4.224
 9277TIP3    H127774  -0.040   5.092   4.231
 9277TIP3    H227775   0.054   4.987   4.285
 9278TIP3   OH227776   7.328   3.511   2.655
 9278TIP3    H127777   7.317   3.546   2.743
 9278TIP3    H227778   7.285   3.426   2.657
 9279TIP3   OH227779   3.532   4.685   1.638
 9279TIP3    H127780   3.492   4.617   1.585
 9279TIP3    H227781   3.470   4.759   1.633
 9280TIP3   OH227782   8.026   0.656   4.257
 9280TIP3    H127783   7.945   0.615   4.226
 9280TIP3    H227784   8.001   0.745   4.281
 9281TIP3   OH227785   1.317   7.179   5.610
 9281TIP3    H127786   1.274   7.263   5.626
 9281TIP3    H227787   1.275   7.119   5.672
 9282TIP3   OH227788   0.681   2.352   5.554
 9282TIP3    H127789   0.606   2.386   5.504
 9282TIP3    H227790   0.756   2.367   5.498
 9283TIP3   OH227791   7.800   2.579   4.780
 9283TIP3    H127792   7.722   2.530   4.754
 9283TIP3    H227793   7.767   2.666   4.803
 9284TIP3   OH227794   2.664   7.028   1.773
 9284TIP3    H127795   2.754   7.057   1.789
 9284TIP3    H227796   2.671   6.960   1.706
 9285TIP3   OH227797   3.788   4.757   1.517
 9285TIP3    H127798   3.858   4.740   1.580
 9285TIP3    H227799   3.714   4.706   1.548
 9286TIP3   OH227800   6.625   7.550   3.590
 9286TIP3    H127801   6.536   7.546   3.625
 9286TIP3    H227802   6.660   7.462   3.606
 9287TIP3   OH227803   4.553   0.800   3.581
 9287TIP3    H127804   4.467   0.795   3.623
 9287TIP3    H227805   4.540   0.757   3.496
 9288TIP3   OH227806   2.190   6.086   2.052
 9288TIP3    H127807   2.132   6.069   1.978
 9288TIP3    H227808   2.156   6.167   2.091
 9289TIP3   OH227809   1.288   2.447   0.115
 9289TIP3    H127810   1.316   2.446   0.207
 9289TIP3    H227811   1.308   2.360   0.082
 9290TIP3   OH227812   3.346   0.105   5.420
 9290TIP3    H127813   3.288   0.030   5.404
 9290TIP3    H227814   3.385   0.088   5.505
 9291TIP3   OH227815   0.938   3.406   6.630
 9291TIP3    H127816   1.021   3.441   6.660
 9291TIP3    H227817   0.946   3.399   6.535
 9292TIP3   OH227818   8.256   1.353   4.497
 9292TIP3    H127819   8.331   1.298   4.518
 9292TIP3    H227820   8.291   1.422   4.441
 9293TIP3   OH227821   3.525   7.165   5.022
 9293TIP3    H127822   3.446   7.132   4.980
 9293TIP3    H227823   3.562   7.226   4.958
 9294TIP3   OH227824   4.896   2.644   1.389
 9294TIP3    H127825   4.866   2.686   1.309
 9294TIP3    H227826   4.970   2.591   1.362
 9295TIP3   OH227827   1.515   1.678   2.753
 9295TIP3    H127828   1.566   1.717   2.824
 9295TIP3    H227829   1.574   1.612   2.715
 9296TIP3   OH227830   4.805   0.403   6.582
 9296TIP3    H127831   4.818   0.486   6.536
 9296TIP3    H227832   4.726   0.366   6.543
 9297TIP3   OH227833   5.225   5.244   2.249
 9297TIP3    H127834   5.204   5.171   2.192
 9297TIP3    H227835   5.147   5.256   2.303
 9298TIP3   OH227836   6.012   7.335   5.043
 9298TIP3    H127837   5.952   7.333   4.968
 9298TIP3    H227838   6.068   7.258   5.031
 9299TIP3   OH227839   3.229   1.263   4.802
 9299TIP3    H127840   3.265   1.220   4.880
 9299TIP3    H227841   3.153   1.311   4.834
 9300TIP3   OH227842   1.176   5.367   5.532
 9300TIP3    H127843   1.085   5.360   5.561
 9300TIP3    H227844   1.223   5.401   5.607
 9301TIP3   OH227845   7.754   2.887   5.079
 9301TIP3    H127846   7.736   2.870   5.171
 9301TIP3    H227847   7.809   2.965   5.079
 9302TIP3   OH227848   3.683   0.632   0.989
 9302TIP3    H127849   3.770   0.670   0.996
 9302TIP3    H227850   3.665   0.597   1.076
 9303TIP3   OH227851   5.194   2.487   5.048
 9303TIP3    H127852   5.133   2.421   5.015
 9303TIP3    H227853   5.249   2.509   4.973
 9304TIP3   OH227854   4.270   0.924   6.563
 9304TIP3    H127855   4.251   0.845   6.513
 9304TIP3    H227856   4.312   0.983   6.500
 9305TIP3   OH227857   1.299   7.445   5.295
 9305TIP3    H127858   1.227   7.386   5.272
 9305TIP3    H227859   1.261   7.533   5.284
 9306TIP3   OH227860   1.720   4.868   0.495
 9306TIP3    H127861   1.774   4.794   0.526
 9306TIP3    H227862   1.750   4.942   0.547
 9307TIP3   OH227863   0.332   7.334   2.900
 9307TIP3    H127864   0.368   7.297   2.980
 9307TIP3    H227865   0.253   7.382   2.928
 9308TIP3   OH227866   4.379   0.250   4.161
 9308TIP3    H127867   4.449   0.293   4.211
 9308TIP3    H227868   4.381   0.294   4.075
 9309TIP3   OH227869   1.638   1.770   2.970
 9309TIP3    H127870   1.659   1.857   3.006
 9309TIP3    H227871   1.673   1.708   3.034
 9310TIP3   OH227872   6.531   0.182   4.633
 9310TIP3    H127873   6.450   0.138   4.657
 9310TIP3    H227874   6.504   0.258   4.582
 9311TIP3   OH227875   5.709   5.509   4.422
 9311TIP3    H127876   5.724   5.463   4.339
 9311TIP3    H227877   5.792   5.499   4.469
 9312TIP3   OH227878   1.142   1.926   4.279
 9312TIP3    H127879   1.135   1.995   4.345
 9312TIP3    H227880   1.063   1.935   4.226
 9313TIP3   OH227881   5.813   3.080   0.471
 9313TIP3    H127882   5.784   3.141   0.403
 9313TIP3    H227883   5.890   3.037   0.433
 9314TIP3   OH227884   1.190   6.520   5.987
 9314TIP3    H127885   1.196   6.426   6.005
 9314TIP3    H227886   1.262   6.559   6.036
 9315TIP3   OH227887   6.861   0.893   4.613
 9315TIP3    H127888   6.824   0.876   4.527
 9315TIP3    H227889   6.875   0.988   4.615
 9316TIP3   OH227890   0.849   2.903   6.509
 9316TIP3    H127891   0.784   2.964   6.544
 9316TIP3    H227892   0.800   2.824   6.489
 9317TIP3   OH227893   4.244   3.624   4.406
 9317TIP3    H127894   4.239   3.554   4.341
 9317TIP3    H227895   4.157   3.664   4.405
 9318TIP3   OH227896   7.010   3.510   2.166
 9318TIP3    H127897   6.919   3.482   2.164
 9318TIP3    H227898   7.054   3.453   2.103
 9319TIP3   OH227899   6.186   3.324   5.163
 9319TIP3    H127900   6.215   3.308   5.253
 9319TIP3    H227901   6.150   3.412   5.165
 9320TIP3   OH227902   0.574   1.048   3.546
 9320TIP3    H127903   0.632   1.120   3.568
 9320TIP3    H227904   0.577   0.990   3.622
 9321TIP3   OH227905   3.015   0.176   2.139
 9321TIP3    H127906   3.020   0.272   2.146
 9321TIP3    H227907   2.987   0.161   2.048
 9322TIP3   OH227908   5.734   0.278   5.764
 9322TIP3    H127909   5.701   0.340   5.829
 9322TIP3    H227910   5.695   0.194   5.788
 9323TIP3   OH227911   1.592   0.374   3.436
 9323TIP3    H127912   1.608   0.296   3.489
 9323TIP3    H227913   1.501   0.398   3.455
 9324TIP3   OH227914   5.796   7.740   6.474
 9324TIP3    H127915   5.771   7.648   6.468
 9324TIP3    H227916   5.887   7.742   6.445
 9325TIP3   OH227917   7.991   1.706   4.439
 9325TIP3    H127918   7.990   1.613   4.462
 9325TIP3    H227919   7.986   1.707   4.344
 9326TIP3   OH227920   7.249   3.491   4.217
 9326TIP3    H127921   7.266   3.400   4.192
 9326TIP3    H227922   7.179   3.520   4.158
 9327TIP3   OH227923   1.672   7.295   2.366
 9327TIP3    H127924   1.715   7.269   2.285
 9327TIP3    H227925   1.658   7.389   2.357
 9328TIP3   OH227926   1.524   7.503   3.755
 9328TIP3    H127927   1.511   7.592   3.787
 9328TIP3    H227928   1.480   7.502   3.669
 9329TIP3   OH227929   0.045   1.473   4.971
 9329TIP3    H127930   0.108   1.450   5.039
 9329TIP3    H227931   0.062   1.410   4.900
 9330TIP3   OH227932   0.418   6.586   0.847
 9330TIP3    H127933   0.492   6.531   0.822
 9330TIP3    H227934   0.438   6.672   0.811
 9331TIP3   OH227935   4.823   2.276   4.115
 9331TIP3    H127936   4.767   2.332   4.170
 9331TIP3    H227937   4.837   2.327   4.035
 9332TIP3   OH227938   3.196   0.339   3.602
 9332TIP3    H127939   3.147   0.421   3.598
 9332TIP3    H227940   3.287   0.366   3.612
 9333TIP3   OH227941   2.489   1.916   6.660
 9333TIP3    H127942   2.419   1.900   6.722
 9333TIP3    H227943   2.486   2.011   6.644
 9334TIP3   OH227944   2.771   7.603   0.468
 9334TIP3    H127945   2.705   7.631   0.531
 9334TIP3    H227946   2.746   7.514   0.445
 9335TIP3   OH227947   2.608   3.340   6.599
 9335TIP3    H127948   2.551   3.393   6.544
 9335TIP3    H227949   2.549   3.289   6.654
 9336TIP3   OH227950   7.999   7.222   0.867
 9336TIP3    H127951   8.023   7.288   0.932
 9336TIP3    H227952   8.076   7.166   0.861
 9337TIP3   OH227953   6.976   4.476   1.653
 9337TIP3    H127954   6.903   4.487   1.592
 9337TIP3    H227955   6.974   4.383   1.677
 9338TIP3   OH227956   1.943   4.494   4.710
 9338TIP3    H127957   2.028   4.488   4.754
 9338TIP3    H227958   1.964   4.526   4.622
 9339TIP3   OH227959   0.374   3.854   0.403
 9339TIP3    H127960   0.300   3.895   0.447
 9339TIP3    H227961   0.449   3.909   0.424
 9340TIP3   OH227962   3.150   7.680   6.529
 9340TIP3    H127963   3.209   7.700   6.602
 9340TIP3    H227964   3.201   7.701   6.451
 9341TIP3   OH227965   3.485   2.235   5.028
 9341TIP3    H127966   3.543   2.187   5.088
 9341TIP3    H227967   3.446   2.167   4.973
 9342TIP3   OH227968   6.941   0.438   0.759
 9342TIP3    H127969   7.014   0.393   0.802
 9342TIP3    H227970   6.864   0.413   0.810
 9343TIP3   OH227971   0.912   5.983   3.251
 9343TIP3    H127972   0.994   6.015   3.212
 9343TIP3    H227973   0.929   5.891   3.269
 9344TIP3   OH227974   8.108   6.398   1.179
 9344TIP3    H127975   8.035   6.431   1.126
 9344TIP3    H227976   8.144   6.326   1.128
 9345TIP3   OH227977   1.221   4.693   6.770
 9345TIP3    H127978   1.258   4.647   6.694
 9345TIP3    H227979   1.160   4.630   6.809
 9346TIP3   OH227980   4.909   2.081   3.721
 9346TIP3    H127981   4.858   2.010   3.759
 9346TIP3    H227982   4.985   2.090   3.778
 9347TIP3   OH227983   7.813   1.124   4.981
 9347TIP3    H127984   7.770   1.077   5.053
 9347TIP3    H227985   7.875   1.182   5.024
 9348TIP3   OH227986   7.727   7.130   2.707
 9348TIP3    H127987   7.815   7.139   2.743
 9348TIP3    H227988   7.675   7.096   2.780
 9349TIP3   OH227989   4.512   4.884   5.927
 9349TIP3    H127990   4.512   4.790   5.911
 9349TIP3    H227991   4.603   4.906   5.944
 9350TIP3   OH227992   6.555   6.584   1.734
 9350TIP3    H127993   6.620   6.647   1.705
 9350TIP3    H227994   6.571   6.506   1.680
 9351TIP3   OH227995   1.352   5.690   4.092
 9351TIP3    H127996   1.342   5.702   3.997
 9351TIP3    H227997   1.319   5.772   4.130
 9352TIP3   OH227998   4.642   6.050   5.333
 9352TIP3    H127999   4.694   6.082   5.260
 9352TIP3    H228000   4.641   5.955   5.322
 9353TIP3   OH228001   3.458   3.313   6.210
 9353TIP3    H128002   3.390   3.310   6.278
 9353TIP3    H228003   3.441   3.393   6.161
 9354TIP3   OH228004   6.724   4.419   0.881
 9354TIP3    H128005   6.806   4.447   0.840
 9354TIP3    H228006   6.745   4.335   0.922
 9355TIP3   OH228007   5.893   7.325   2.430
 9355TIP3    H128008   5.898   7.231   2.444
 9355TIP3    H228009   5.800   7.345   2.432
 9356TIP3   OH228010   3.035   5.075   4.138
 9356TIP3    H128011   2.943   5.102   4.132
 9356TIP3    H228012   3.055   5.039   4.051
 9357TIP3   OH228013   2.669   4.906   3.000
 9357TIP3    H128014   2.596   4.859   3.041
 9357TIP3    H228015   2.743   4.891   3.058
 9358TIP3   OH228016   6.609   3.491   1.514
 9358TIP3    H128017   6.679   3.529   1.461
 9358TIP3    H228018   6.647   3.482   1.601
 9359TIP3   OH228019   4.246   2.545   5.571
 9359TIP3    H128020   4.157   2.523   5.542
 9359TIP3    H228021   4.297   2.550   5.490
 9360TIP3   OH228022   3.326   3.307   2.084
 9360TIP3    H128023   3.251   3.359   2.056
 9360TIP3    H228024   3.403   3.360   2.059
 9361TIP3   OH228025   4.640   0.855   0.644
 9361TIP3    H128026   4.647   0.950   0.657
 9361TIP3    H228027   4.674   0.841   0.555
 9362TIP3   OH228028   6.328   2.973   0.687
 9362TIP3    H128029   6.366   2.993   0.772
 9362TIP3    H228030   6.308   3.058   0.648
 9363TIP3   OH228031   1.439   2.626   0.423
 9363TIP3    H128032   1.436   2.551   0.482
 9363TIP3    H228033   1.348   2.646   0.403
 9364TIP3   OH228034   2.643   3.694   2.399
 9364TIP3    H128035   2.661   3.786   2.418
 9364TIP3    H228036   2.550   3.683   2.419
 9365TIP3   OH228037   6.747   5.090   1.761
 9365TIP3    H128038   6.752   5.172   1.811
 9365TIP3    H228039   6.653   5.075   1.749
 9366TIP3   OH228040   2.944   5.208   0.933
 9366TIP3    H128041   2.983   5.190   1.018
 9366TIP3    H228042   2.981   5.141   0.875
 9367TIP3   OH228043   4.682   4.183   3.140
 9367TIP3    H128044   4.622   4.144   3.076
 9367TIP3    H228045   4.765   4.190   3.093
 9368TIP3   OH228046   4.920   2.170   1.528
 9368TIP3    H128047   4.941   2.178   1.434
 9368TIP3    H228048   4.936   2.257   1.563
 9369TIP3   OH228049   1.523   3.024   6.725
 9369TIP3    H128050   1.492   3.080   6.654
 9369TIP3    H228051   1.481   3.058   6.803
 9370TIP3   OH228052   2.510   5.768   5.637
 9370TIP3    H128053   2.520   5.688   5.689
 9370TIP3    H228054   2.569   5.831   5.679
 9371TIP3   OH228055   5.629   5.419   0.297
 9371TIP3    H128056   5.692   5.491   0.291
 9371TIP3    H228057   5.547   5.456   0.265
 9372TIP3   OH228058   0.483   1.856   5.537
 9372TIP3    H128059   0.579   1.847   5.538
 9372TIP3    H228060   0.461   1.888   5.625
 9373TIP3   OH228061   1.823   6.916   2.699
 9373TIP3    H128062   1.874   6.859   2.756
 9373TIP3    H228063   1.745   6.865   2.678
 9374TIP3   OH228064   1.986   3.466   5.034
 9374TIP3    H128065   1.998   3.536   5.099
 9374TIP3    H228066   1.911   3.494   4.982
 9375TIP3   OH228067   4.433   5.496   3.365
 9375TIP3    H128068   4.410   5.476   3.274
 9375TIP3    H228069   4.383   5.433   3.417
 9376TIP3   OH228070   4.757   5.531   6.267
 9376TIP3    H128071   4.719   5.548   6.180
 9376TIP3    H228072   4.688   5.555   6.328
 9377TIP3   OH228073   3.468   5.385   1.373
 9377TIP3    H128074   3.397   5.414   1.316
 9377TIP3    H228075   3.468   5.448   1.445
 9378TIP3   OH228076   1.795   6.481   2.901
 9378TIP3    H128077   1.790   6.570   2.935
 9378TIP3    H228078   1.800   6.426   2.980
 9379TIP3   OH228079   0.008   4.711   3.817
 9379TIP3    H128080   0.022   4.674   3.904
 9379TIP3    H228081  -0.014   4.635   3.762
 9380TIP3   OH228082   4.320   4.854   2.033
 9380TIP3    H128083   4.278   4.915   2.093
 9380TIP3    H228084   4.249   4.800   1.999
 9381TIP3   OH228085   7.191   0.316   1.362
 9381TIP3    H128086   7.214   0.297   1.452
 9381TIP3    H228087   7.231   0.401   1.344
 9382TIP3   OH228088   5.436   4.308   3.294
 9382TIP3    H128089   5.462   4.393   3.328
 9382TIP3    H228090   5.516   4.272   3.255
 9383TIP3   OH228091   2.482   1.972   3.469
 9383TIP3    H128092   2.460   2.057   3.508
 9383TIP3    H228093   2.460   1.982   3.376
 9384TIP3   OH228094   3.027   4.390   3.955
 9384TIP3    H128095   3.030   4.294   3.962
 9384TIP3    H228096   3.020   4.420   4.045
 9385TIP3   OH228097   7.133   0.865   4.625
 9385TIP3    H128098   7.037   0.872   4.628
 9385TIP3    H228099   7.163   0.954   4.641
 9386TIP3   OH228100   6.111   1.180   2.975
 9386TIP3    H128101   6.039   1.239   2.950
 9386TIP3    H228102   6.190   1.229   2.953
 9387TIP3   OH228103   0.666   3.490   4.472
 9387TIP3    H128104   0.695   3.564   4.525
 9387TIP3    H228105   0.573   3.479   4.493
 9388TIP3   OH228106   1.037   3.684   5.142
 9388TIP3    H128107   0.958   3.723   5.180
 9388TIP3    H228108   1.085   3.758   5.105
 9389TIP3   OH228109   3.305   6.201   5.971
 9389TIP3    H128110   3.219   6.173   5.940
 9389TIP3    H228111   3.346   6.120   6.002
 9390TIP3   OH228112   3.806   1.449   4.486
 9390TIP3    H128113   3.729   1.432   4.431
 9390TIP3    H228114   3.781   1.417   4.572
 9391TIP3   OH228115   1.483   2.922   4.736
 9391TIP3    H128116   1.497   2.886   4.824
 9391TIP3    H228117   1.562   2.975   4.720
 9392TIP3   OH228118   1.961   7.451   4.445
 9392TIP3    H128119   1.969   7.543   4.473
 9392TIP3    H228120   1.869   7.429   4.458
 9393TIP3   OH228121   4.668   2.291   0.121
 9393TIP3    H128122   4.688   2.327   0.207
 9393TIP3    H228123   4.577   2.315   0.105
 9394TIP3   OH228124   3.122   3.742   3.249
 9394TIP3    H128125   3.203   3.695   3.226
 9394TIP3    H228126   3.145   3.834   3.241
 9395TIP3   OH228127   7.985   4.619   3.353
 9395TIP3    H128128   7.968   4.536   3.398
 9395TIP3    H228129   7.899   4.657   3.339
 9396TIP3   OH228130   7.152   3.052   1.632
 9396TIP3    H128131   7.212   3.036   1.559
 9396TIP3    H228132   7.123   2.965   1.659
 9397TIP3   OH228133   3.237   6.185   3.554
 9397TIP3    H128134   3.195   6.100   3.546
 9397TIP3    H228135   3.210   6.218   3.640
 9398TIP3   OH228136   1.912   5.186   3.436
 9398TIP3    H128137   1.969   5.114   3.463
 9398TIP3    H228138   1.868   5.154   3.358
 9399TIP3   OH228139   6.216   3.955   4.714
 9399TIP3    H128140   6.136   3.909   4.687
 9399TIP3    H228141   6.213   3.953   4.810
 9400TIP3   OH228142   4.405   0.254   0.490
 9400TIP3    H128143   4.419   0.289   0.402
 9400TIP3    H228144   4.350   0.177   0.476
 9401TIP3   OH228145   4.745   1.127   3.849
 9401TIP3    H128146   4.737   1.082   3.765
 9401TIP3    H228147   4.682   1.199   3.844
 9402TIP3   OH228148   4.014   7.583   4.974
 9402TIP3    H128149   4.062   7.666   4.972
 9402TIP3    H228150   4.039   7.543   5.057
 9403TIP3   OH228151   3.861   4.286   1.123
 9403TIP3    H128152   3.881   4.373   1.157
 9403TIP3    H228153   3.769   4.272   1.148
 9404TIP3   OH228154   5.958   3.426   2.487
 9404TIP3    H128155   5.886   3.378   2.448
 9404TIP3    H228156   6.004   3.361   2.540
 9405TIP3   OH228157   5.474   5.209   3.911
 9405TIP3    H128158   5.382   5.231   3.921
 9405TIP3    H228159   5.501   5.254   3.830
 9406TIP3   OH228160   1.903   0.496   0.661
 9406TIP3    H128161   1.877   0.406   0.681
 9406TIP3    H228162   1.829   0.550   0.688
 9407TIP3   OH228163   2.685   2.473   1.708
 9407TIP3    H128164   2.744   2.532   1.754
 9407TIP3    H228165   2.651   2.524   1.635
 9408TIP3   OH228166   4.298   0.603   2.967
 9408TIP3    H128167   4.207   0.590   2.944
 9408TIP3    H228168   4.330   0.516   2.991
 9409TIP3   OH228169   6.860   3.064   3.574
 9409TIP3    H128170   6.834   3.000   3.509
 9409TIP3    H228171   6.820   3.033   3.656
 9410TIP3   OH228172   4.259   4.849   4.460
 9410TIP3    H128173   4.222   4.884   4.541
 9410TIP3    H228174   4.184   4.815   4.411
 9411TIP3   OH228175   4.962   1.448   6.659
 9411TIP3    H128176   4.918   1.481   6.582
 9411TIP3    H228177   4.910   1.373   6.687
 9412TIP3   OH228178   6.465   1.261   5.946
 9412TIP3    H128179   6.553   1.298   5.952
 9412TIP3    H228180   6.419   1.317   5.885
 9413TIP3   OH228181   0.080   2.507   0.254
 9413TIP3    H128182   0.132   2.438   0.296
 9413TIP3    H228183   0.094   2.493   0.160
 9414TIP3   OH228184   3.253   4.778   1.319
 9414TIP3    H128185   3.243   4.808   1.409
 9414TIP3    H228186   3.186   4.711   1.308
 9415TIP3   OH228187   6.754   6.956   0.884
 9415TIP3    H128188   6.729   7.030   0.940
 9415TIP3    H228189   6.850   6.961   0.879
 9416TIP3   OH228190   3.599   5.619   6.080
 9416TIP3    H128191   3.633   5.649   6.164
 9416TIP3    H228192   3.504   5.618   6.091
 9417TIP3   OH228193   1.874   0.369   3.080
 9417TIP3    H128194   1.849   0.378   3.172
 9417TIP3    H228195   1.955   0.419   3.072
 9418TIP3   OH228196   0.908   7.015   3.485
 9418TIP3    H128197   0.984   7.067   3.461
 9418TIP3    H228198   0.868   6.991   3.401
 9419TIP3   OH228199   6.433   7.315   6.332
 9419TIP3    H128200   6.473   7.338   6.416
 9419TIP3    H228201   6.451   7.390   6.275
 9420TIP3   OH228202   6.357   0.620   0.622
 9420TIP3    H128203   6.436   0.649   0.667
 9420TIP3    H228204   6.338   0.689   0.559
 9421TIP3   OH228205   5.628   2.476   4.788
 9421TIP3    H128206   5.720   2.465   4.813
 9421TIP3    H228207   5.591   2.388   4.791
 9422TIP3   OH228208   7.485   2.774   0.411
 9422TIP3    H128209   7.525   2.696   0.372
 9422TIP3    H228210   7.437   2.740   0.487
 9423TIP3   OH228211   3.674   3.781   3.650
 9423TIP3    H128212   3.760   3.818   3.631
 9423TIP3    H228213   3.629   3.849   3.701
 9424TIP3   OH228214   2.365   3.959   1.131
 9424TIP3    H128215   2.342   3.960   1.224
 9424TIP3    H228216   2.354   4.049   1.103
 9425TIP3   OH228217   0.777   1.864   2.998
 9425TIP3    H128218   0.861   1.820   2.986
 9425TIP3    H228219   0.727   1.845   2.918
 9426TIP3   OH228220   0.903   6.821   4.669
 9426TIP3    H128221   0.876   6.786   4.754
 9426TIP3    H228222   0.837   6.788   4.608
 9427TIP3   OH228223   0.606   3.218   1.738
 9427TIP3    H128224   0.681   3.162   1.715
 9427TIP3    H228225   0.543   3.158   1.777
 9428TIP3   OH228226   7.624   1.308   4.886
 9428TIP3    H128227   7.538   1.284   4.850
 9428TIP3    H228228   7.660   1.225   4.919
 9429TIP3   OH228229   1.327   2.845   6.373
 9429TIP3    H128230   1.305   2.938   6.368
 9429TIP3    H228231   1.290   2.816   6.456
 9430TIP3   OH228232   0.503   6.672   1.717
 9430TIP3    H128233   0.593   6.702   1.711
 9430TIP3    H228234   0.452   6.739   1.671
 9431TIP3   OH228235   1.704   2.027   1.984
 9431TIP3    H128236   1.717   2.036   1.890
 9431TIP3    H228237   1.790   2.000   2.017
 9432TIP3   OH228238   1.568   2.209   0.704
 9432TIP3    H128239   1.521   2.132   0.738
 9432TIP3    H228240   1.598   2.182   0.617
 9433TIP3   OH228241   3.616   7.011   6.223
 9433TIP3    H128242   3.696   6.993   6.173
 9433TIP3    H228243   3.545   6.998   6.159
 9434TIP3   OH228244   2.607   1.211   0.201
 9434TIP3    H128245   2.658   1.292   0.202
 9434TIP3    H228246   2.668   1.146   0.166
 9435TIP3   OH228247   4.754   5.356   4.975
 9435TIP3    H128248   4.676   5.388   4.930
 9435TIP3    H228249   4.798   5.300   4.912
 9436TIP3   OH228250   2.186   3.508   0.668
 9436TIP3    H128251   2.188   3.491   0.574
 9436TIP3    H228252   2.239   3.587   0.679
 9437TIP3   OH228253   0.765   7.621   0.903
 9437TIP3    H128254   0.800   7.688   0.962
 9437TIP3    H228255   0.671   7.619   0.923
 9438TIP3   OH228256   4.454   2.286   6.291
 9438TIP3    H128257   4.446   2.374   6.326
 9438TIP3    H228258   4.470   2.299   6.197
 9439TIP3   OH228259   5.083   4.393   4.432
 9439TIP3    H128260   5.002   4.342   4.428
 9439TIP3    H228261   5.077   4.441   4.514
 9440TIP3   OH228262   0.300   2.973   6.675
 9440TIP3    H128263   0.260   2.911   6.614
 9440TIP3    H228264   0.369   2.923   6.718
 9441TIP3   OH228265   5.952   0.891   0.764
 9441TIP3    H128266   6.038   0.891   0.721
 9441TIP3    H228267   5.934   0.798   0.780
 9442TIP3   OH228268   2.366   6.067   4.676
 9442TIP3    H128269   2.313   5.996   4.712
 9442TIP3    H228270   2.344   6.069   4.583
 9443TIP3   OH228271   2.219   5.843   3.469
 9443TIP3    H128272   2.287   5.777   3.483
 9443TIP3    H228273   2.191   5.829   3.379
 9444TIP3   OH228274   3.465   1.316   5.103
 9444TIP3    H128275   3.502   1.336   5.189
 9444TIP3    H228276   3.394   1.379   5.091
 9445TIP3   OH228277   2.795   3.451   5.250
 9445TIP3    H128278   2.816   3.439   5.342
 9445TIP3    H228279   2.701   3.436   5.244
 9446TIP3   OH228280   4.130   6.393   5.101
 9446TIP3    H128281   4.196   6.355   5.159
 9446TIP3    H228282   4.056   6.333   5.106
 9447TIP3   OH228283   1.778   0.567   6.802
 9447TIP3    H128284   1.857   0.538   6.757
 9447TIP3    H228285   1.714   0.580   6.732
 9448TIP3   OH228286   3.678   2.046   4.571
 9448TIP3    H128287   3.768   2.013   4.583
 9448TIP3    H228288   3.688   2.123   4.515
 9449TIP3   OH228289   6.733   1.029   6.285
 9449TIP3    H128290   6.755   1.026   6.378
 9449TIP3    H228291   6.722   0.938   6.260
 9450TIP3   OH228292   7.527   1.331   2.185
 9450TIP3    H128293   7.455   1.302   2.129
 9450TIP3    H228294   7.517   1.427   2.189
 9451TIP3   OH228295   8.207   0.122   6.770
 9451TIP3    H128296   8.127   0.153   6.728
 9451TIP3    H228297   8.277   0.148   6.710
 9452TIP3   OH228298   7.634   5.580   1.863
 9452TIP3    H128299   7.701   5.574   1.931
 9452TIP3    H228300   7.623   5.490   1.832
 9453TIP3   OH228301   6.436   2.170   2.989
 9453TIP3    H128302   6.341   2.159   2.988
 9453TIP3    H228303   6.450   2.261   2.964
 9454TIP3   OH228304   5.666   2.976   3.471
 9454TIP3    H128305   5.669   2.927   3.553
 9454TIP3    H228306   5.574   3.001   3.461
 9455TIP3   OH228307   1.879   1.257   1.504
 9455TIP3    H128308   1.872   1.176   1.453
 9455TIP3    H228309   1.922   1.319   1.444
 9456TIP3   OH228310   7.045   3.388   5.350
 9456TIP3    H128311   7.005   3.355   5.430
 9456TIP3    H228312   7.084   3.472   5.375
 9457TIP3   OH228313   5.168   6.130   5.277
 9457TIP3    H128314   5.165   6.039   5.249
 9457TIP3    H228315   5.233   6.171   5.220
 9458TIP3   OH228316   4.219   5.582   2.575
 9458TIP3    H128317   4.148   5.640   2.547
 9458TIP3    H228318   4.272   5.636   2.634
 9459TIP3   OH228319   2.363   7.621   3.073
 9459TIP3    H128320   2.354   7.664   2.988
 9459TIP3    H228321   2.324   7.535   3.061
 9460TIP3   OH228322   6.745   4.678   3.180
 9460TIP3    H128323   6.684   4.604   3.187
 9460TIP3    H228324   6.696   4.746   3.135
 9461TIP3   OH228325   0.287   4.578   1.799
 9461TIP3    H128326   0.298   4.662   1.844
 9461TIP3    H228327   0.210   4.591   1.743
 9462TIP3   OH228328   5.034   1.323   4.873
 9462TIP3    H128329   5.116   1.353   4.834
 9462TIP3    H228330   4.990   1.275   4.803
 9463TIP3   OH228331   4.103   1.034   2.436
 9463TIP3    H128332   4.102   0.950   2.482
 9463TIP3    H228333   4.041   1.088   2.484
 9464TIP3   OH228334   7.340   6.272   0.543
 9464TIP3    H128335   7.400   6.278   0.468
 9464TIP3    H228336   7.319   6.179   0.549
 9465TIP3   OH228337   5.453   0.654   0.159
 9465TIP3    H128338   5.449   0.741   0.199
 9465TIP3    H228339   5.369   0.613   0.182
 9466TIP3   OH228340   2.430   7.450   6.124
 9466TIP3    H128341   2.434   7.409   6.037
 9466TIP3    H228342   2.415   7.542   6.106
 9467TIP3   OH228343   8.084   6.408   3.234
 9467TIP3    H128344   8.014   6.387   3.296
 9467TIP3    H228345   8.114   6.495   3.260
 9468TIP3   OH228346   7.257   0.096   5.149
 9468TIP3    H128347   7.188   0.042   5.188
 9468TIP3    H228348   7.338   0.060   5.185
 9469TIP3   OH228349   0.735   2.643   2.324
 9469TIP3    H128350   0.703   2.694   2.399
 9469TIP3    H228351   0.811   2.691   2.293
 9470TIP3   OH228352   5.180   1.241   2.082
 9470TIP3    H128353   5.238   1.310   2.114
 9470TIP3    H228354   5.092   1.270   2.108
 9471TIP3   OH228355   1.542   5.034   0.078
 9471TIP3    H128356   1.549   5.126   0.053
 9471TIP3    H228357   1.577   4.986   0.003
 9472TIP3   OH228358   3.286   5.854   3.168
 9472TIP3    H128359   3.235   5.780   3.201
 9472TIP3    H228360   3.375   5.837   3.197
 9473TIP3   OH228361   2.893   1.777   6.124
 9473TIP3    H128362   2.875   1.711   6.057
 9473TIP3    H228363   2.987   1.791   6.119
 9474TIP3   OH228364   6.790   4.396   2.989
 9474TIP3    H128365   6.729   4.338   3.036
 9474TIP3    H228366   6.785   4.367   2.898
 9475TIP3   OH228367   1.154   3.457   2.146
 9475TIP3    H128368   1.134   3.400   2.221
 9475TIP3    H228369   1.219   3.519   2.180
 9476TIP3   OH228370   7.573   7.477   6.243
 9476TIP3    H128371   7.598   7.569   6.242
 9476TIP3    H228372   7.496   7.474   6.301
 9477TIP3   OH228373   3.006   2.532   4.071
 9477TIP3    H128374   3.040   2.621   4.066
 9477TIP3    H228375   3.070   2.484   4.124
 9478TIP3   OH228376   6.800   7.379   6.398
 9478TIP3    H128377   6.719   7.415   6.432
 9478TIP3    H228378   6.793   7.285   6.413
 9479TIP3   OH228379   2.838   6.460   4.184
 9479TIP3    H128380   2.751   6.479   4.148
 9479TIP3    H228381   2.890   6.433   4.109
 9480TIP3   OH228382   6.718   5.058   2.863
 9480TIP3    H128383   6.785   5.030   2.925
 9480TIP3    H228384   6.728   5.153   2.858
 9481TIP3   OH228385   1.048   5.730   5.661
 9481TIP3    H128386   1.128   5.685   5.634
 9481TIP3    H228387   1.042   5.716   5.755
 9482TIP3   OH228388   4.276   5.025   2.272
 9482TIP3    H128389   4.346   5.090   2.279
 9482TIP3    H228390   4.213   5.050   2.340
 9483TIP3   OH228391   5.202   7.236   6.243
 9483TIP3    H128392   5.240   7.323   6.234
 9483TIP3    H228393   5.133   7.247   6.309
 9484TIP3   OH228394   0.430   4.177   5.476
 9484TIP3    H128395   0.446   4.270   5.491
 9484TIP3    H228396   0.368   4.152   5.544
 9485TIP3   OH228397   7.268   7.723   1.513
 9485TIP3    H128398   7.350   7.766   1.539
 9485TIP3    H228399   7.202   7.792   1.518
 9486TIP3   OH228400   4.222   4.769   3.467
 9486TIP3    H128401   4.157   4.830   3.432
 9486TIP3    H228402   4.228   4.699   3.402
 9487TIP3   OH228403   6.464   6.984   0.176
 9487TIP3    H128404   6.391   7.025   0.222
 9487TIP3    H228405   6.424   6.939   0.102
 9488TIP3   OH228406   4.213   3.919   3.776
 9488TIP3    H128407   4.226   3.916   3.681
 9488TIP3    H228408   4.119   3.934   3.786
 9489TIP3   OH228409   3.587   5.470   6.393
 9489TIP3    H128410   3.556   5.405   6.455
 9489TIP3    H228411   3.550   5.553   6.425
 9490TIP3   OH228412   0.479   0.482   5.315
 9490TIP3    H128413   0.429   0.493   5.396
 9490TIP3    H228414   0.490   0.387   5.307
 9491TIP3   OH228415   1.554   6.476   4.033
 9491TIP3    H128416   1.593   6.530   3.965
 9491TIP3    H228417   1.499   6.413   3.986
 9492TIP3   OH228418   7.789   4.150   1.576
 9492TIP3    H128419   7.751   4.078   1.625
 9492TIP3    H228420   7.872   4.169   1.621
 9493TIP3   OH228421   2.873   5.417   1.191
 9493TIP3    H128422   2.834   5.470   1.122
 9493TIP3    H228423   2.800   5.397   1.250
 9494TIP3   OH228424   1.211   3.869   0.043
 9494TIP3    H128425   1.161   3.926  -0.015
 9494TIP3    H228426   1.191   3.781   0.012
 9495TIP3   OH228427   5.970   5.638   3.190
 9495TIP3    H128428   5.890   5.621   3.141
 9495TIP3    H228429   5.952   5.717   3.240
 9496TIP3   OH228430   7.897   2.773   5.486
 9496TIP3    H128431   7.944   2.714   5.428
 9496TIP3    H228432   7.929   2.860   5.462
 9497TIP3   OH228433   5.339   6.223   2.204
 9497TIP3    H128434   5.371   6.134   2.191
 9497TIP3    H228435   5.417   6.278   2.200
 9498TIP3   OH228436   1.140   2.205   4.422
 9498TIP3    H128437   1.199   2.171   4.490
 9498TIP3    H228438   1.155   2.299   4.422
 9499TIP3   OH228439   4.347   6.746   2.017
 9499TIP3    H128440   4.270   6.721   2.068
 9499TIP3    H228441   4.345   6.841   2.014
 9500TIP3   OH228442   0.397   2.347   2.320
 9500TIP3    H128443   0.414   2.439   2.301
 9500TIP3    H228444   0.302   2.340   2.327
 9501TIP3   OH228445   2.009   6.120   3.354
 9501TIP3    H128446   2.046   6.034   3.374
 9501TIP3    H228447   2.069   6.157   3.290
 9502TIP3   OH228448   5.598   3.218   4.124
 9502TIP3    H128449   5.519   3.229   4.071
 9502TIP3    H228450   5.579   3.143   4.181
 9503TIP3   OH228451   7.766   1.777   0.841
 9503TIP3    H128452   7.758   1.692   0.798
 9503TIP3    H228453   7.721   1.766   0.925
 9504TIP3   OH228454   2.453   6.888   2.247
 9504TIP3    H128455   2.368   6.921   2.217
 9504TIP3    H228456   2.461   6.802   2.206
 9505TIP3   OH228457   6.544   5.916   6.365
 9505TIP3    H128458   6.620   5.972   6.377
 9505TIP3    H228459   6.478   5.950   6.426
 9506TIP3   OH228460   5.976   3.180   5.912
 9506TIP3    H128461   5.906   3.115   5.924
 9506TIP3    H228462   6.043   3.154   5.975
 9507TIP3   OH228463   1.344   3.850   5.759
 9507TIP3    H128464   1.439   3.842   5.760
 9507TIP3    H228465   1.318   3.836   5.850
 9508TIP3   OH228466   6.173   6.319   4.979
 9508TIP3    H128467   6.123   6.377   5.037
 9508TIP3    H228468   6.110   6.288   4.915
 9509TIP3   OH228469   1.604   1.877   5.485
 9509TIP3    H128470   1.624   1.816   5.414
 9509TIP3    H228471   1.591   1.821   5.562
 9510TIP3   OH228472   7.030   6.819   0.612
 9510TIP3    H128473   7.031   6.758   0.686
 9510TIP3    H228474   7.114   6.864   0.616
 9511TIP3   OH228475   0.437   7.352   1.339
 9511TIP3    H128476   0.348   7.317   1.333
 9511TIP3    H228477   0.473   7.312   1.418
 9512TIP3   OH228478   1.620   5.113   4.904
 9512TIP3    H128479   1.553   5.056   4.943
 9512TIP3    H228480   1.675   5.139   4.978
 9513TIP3   OH228481   6.782   0.745   5.263
 9513TIP3    H128482   6.797   0.781   5.350
 9513TIP3    H228483   6.814   0.813   5.203
 9514TIP3   OH228484   4.312   1.165   1.426
 9514TIP3    H128485   4.308   1.079   1.384
 9514TIP3    H228486   4.266   1.224   1.366
 9515TIP3   OH228487   0.753   7.344   2.732
 9515TIP3    H128488   0.769   7.434   2.705
 9515TIP3    H228489   0.795   7.291   2.664
 9516TIP3   OH228490   1.818   1.098   6.205
 9516TIP3    H128491   1.775   1.166   6.258
 9516TIP3    H228492   1.906   1.133   6.188
 9517TIP3   OH228493   5.225   2.202   6.281
 9517TIP3    H128494   5.318   2.211   6.259
 9517TIP3    H228495   5.182   2.185   6.196
 9518TIP3   OH228496   0.122   7.056   4.938
 9518TIP3    H128497   0.062   7.072   4.865
 9518TIP3    H228498   0.175   7.136   4.943
 9519TIP3   OH228499   5.056   0.350   5.708
 9519TIP3    H128500   4.999   0.304   5.647
 9519TIP3    H228501   5.002   0.421   5.743
 9520TIP3   OH228502   3.904   3.401   0.653
 9520TIP3    H128503   3.936   3.345   0.724
 9520TIP3    H228504   3.938   3.488   0.675
 9521TIP3   OH228505   4.710   6.687   4.359
 9521TIP3    H128506   4.689   6.780   4.354
 9521TIP3    H228507   4.661   6.648   4.286
 9522TIP3   OH228508   1.066   7.360   4.031
 9522TIP3    H128509   1.076   7.281   4.083
 9522TIP3    H228510   1.155   7.396   4.024
 9523TIP3   OH228511   7.821   3.743   2.480
 9523TIP3    H128512   7.901   3.795   2.489
 9523TIP3    H228513   7.752   3.808   2.469
 9524TIP3   OH228514   1.534   6.104   6.005
 9524TIP3    H128515   1.548   6.011   6.019
 9524TIP3    H228516   1.585   6.125   5.927
 9525TIP3   OH228517   2.828   6.985   3.458
 9525TIP3    H128518   2.758   6.934   3.417
 9525TIP3    H228519   2.848   6.937   3.539
 9526TIP3   OH228520   6.334   4.859   0.670
 9526TIP3    H128521   6.393   4.924   0.709
 9526TIP3    H228522   6.328   4.884   0.578
 9527TIP3   OH228523   6.449   4.035   6.158
 9527TIP3    H128524   6.492   3.970   6.103
 9527TIP3    H228525   6.437   4.111   6.101
 9528TIP3   OH228526   5.713   6.722   1.008
 9528TIP3    H128527   5.720   6.629   1.028
 9528TIP3    H228528   5.724   6.727   0.913
 9529TIP3   OH228529   2.738   2.782   4.881
 9529TIP3    H128530   2.740   2.797   4.786
 9529TIP3    H228531   2.775   2.861   4.919
 9530TIP3   OH228532   2.787   2.700   4.180
 9530TIP3    H128533   2.807   2.720   4.271
 9530TIP3    H228534   2.823   2.612   4.165
 9531TIP3   OH228535   0.378   4.411   5.936
 9531TIP3    H128536   0.432   4.336   5.909
 9531TIP3    H228537   0.303   4.371   5.980
 9532TIP3   OH228538   8.310   0.342   5.555
 9532TIP3    H128539   8.290   0.431   5.528
 9532TIP3    H228540   8.227   0.295   5.547
 9533TIP3   OH228541   5.215   3.545   1.370
 9533TIP3    H128542   5.171   3.495   1.301
 9533TIP3    H228543   5.237   3.479   1.436
 9534TIP3   OH228544   2.961   1.568   3.848
 9534TIP3    H128545   2.950   1.623   3.770
 9534TIP3    H228546   3.027   1.613   3.900
 9535TIP3   OH228547   6.802   7.752   0.188
 9535TIP3    H128548   6.819   7.674   0.241
 9535TIP3    H228549   6.780   7.820   0.252
 9536TIP3   OH228550   8.190   3.594   3.822
 9536TIP3    H128551   8.201   3.550   3.907
 9536TIP3    H228552   8.188   3.687   3.843
 9537TIP3   OH228553   2.237   0.054   4.000
 9537TIP3    H128554   2.222   0.043   3.906
 9537TIP3    H228555   2.299   0.126   4.006
 9538TIP3   OH228556   6.749   0.166   0.577
 9538TIP3    H128557   6.739   0.155   0.671
 9538TIP3    H228558   6.708   0.250   0.558
 9539TIP3   OH228559   4.954   1.276   0.720
 9539TIP3    H128560   4.885   1.249   0.781
 9539TIP3    H228561   5.008   1.338   0.769
 9540TIP3   OH228562   5.469   1.863   6.690
 9540TIP3    H128563   5.458   1.879   6.596
 9540TIP3    H228564   5.381   1.848   6.723
 9541TIP3   OH228565   3.506   7.281   4.412
 9541TIP3    H128566   3.536   7.196   4.378
 9541TIP3    H228567   3.580   7.313   4.463
 9542TIP3   OH228568   7.070   7.467   2.743
 9542TIP3    H128569   7.127   7.544   2.750
 9542TIP3    H228570   6.982   7.501   2.760
 9543TIP3   OH228571   5.333   7.036   3.608
 9543TIP3    H128572   5.379   7.057   3.527
 9543TIP3    H228573   5.306   7.121   3.643
 9544TIP3   OH228574   4.478   6.845   1.449
 9544TIP3    H128575   4.537   6.813   1.381
 9544TIP3    H228576   4.402   6.787   1.443
 9545TIP3   OH228577   2.886   0.329   5.311
 9545TIP3    H128578   2.821   0.355   5.377
 9545TIP3    H228579   2.944   0.268   5.357
 9546TIP3   OH228580   3.747   6.295   1.678
 9546TIP3    H128581   3.775   6.210   1.645
 9546TIP3    H228582   3.808   6.357   1.637
 9547TIP3   OH228583   6.988   5.585   6.708
 9547TIP3    H128584   6.913   5.565   6.651
 9547TIP3    H228585   7.017   5.500   6.739
 9548TIP3   OH228586   0.355   5.772   2.323
 9548TIP3    H128587   0.428   5.831   2.340
 9548TIP3    H228588   0.303   5.817   2.256
 9549TIP3   OH228589   1.573   4.407   5.889
 9549TIP3    H128590   1.515   4.331   5.887
 9549TIP3    H228591   1.651   4.379   5.842
 9550TIP3   OH228592   2.161   3.075   4.774
 9550TIP3    H128593   2.194   3.059   4.686
 9550TIP3    H228594   2.065   3.072   4.765
 9551TIP3   OH228595   1.412   1.103   4.674
 9551TIP3    H128596   1.360   1.097   4.754
 9551TIP3    H228597   1.357   1.062   4.607
 9552TIP3   OH228598   0.999   6.606   5.786
 9552TIP3    H128599   1.049   6.573   5.861
 9552TIP3    H228600   0.920   6.643   5.825
 9553TIP3   OH228601   3.649   1.906   2.810
 9553TIP3    H128602   3.657   1.941   2.898
 9553TIP3    H228603   3.654   1.983   2.753
 9554TIP3   OH228604   3.579   4.674   4.869
 9554TIP3    H128605   3.560   4.670   4.775
 9554TIP3    H228606   3.612   4.763   4.883
 9555TIP3   OH228607   5.679   4.368   0.309
 9555TIP3    H128608   5.634   4.321   0.380
 9555TIP3    H228609   5.750   4.414   0.354
 9556TIP3   OH228610   0.744   1.836   5.590
 9556TIP3    H128611   0.731   1.743   5.574
 9556TIP3    H228612   0.822   1.859   5.539
 9557TIP3   OH228613   2.386   4.431   3.756
 9557TIP3    H128614   2.376   4.458   3.665
 9557TIP3    H228615   2.296   4.424   3.789
 9558TIP3   OH228616   0.842   7.305   5.623
 9558TIP3    H128617   0.841   7.261   5.538
 9558TIP3    H228618   0.935   7.314   5.644
 9559TIP3   OH228619   7.247   6.692   0.801
 9559TIP3    H128620   7.311   6.622   0.814
 9559TIP3    H228621   7.168   6.662   0.846
 9560TIP3   OH228622   0.727   5.963   1.307
 9560TIP3    H128623   0.763   5.962   1.396
 9560TIP3    H228624   0.759   5.883   1.267
 9561TIP3   OH228625   5.814   5.836   1.345
 9561TIP3    H128626   5.875   5.896   1.303
 9561TIP3    H228627   5.845   5.829   1.436
 9562TIP3   OH228628   1.922   4.617   0.213
 9562TIP3    H128629   1.852   4.682   0.206
 9562TIP3    H228630   1.962   4.635   0.299
 9563TIP3   OH228631   7.211   2.422   6.312
 9563TIP3    H128632   7.213   2.343   6.258
 9563TIP3    H228633   7.291   2.470   6.288
 9564TIP3   OH228634   4.522   1.467   1.365
 9564TIP3    H128635   4.440   1.428   1.393
 9564TIP3    H228636   4.500   1.515   1.285
 9565TIP3   OH228637   1.650   3.819   4.062
 9565TIP3    H128638   1.600   3.828   3.981
 9565TIP3    H228639   1.588   3.842   4.132
 9566TIP3   OH228640   7.226   5.715   5.863
 9566TIP3    H128641   7.153   5.692   5.921
 9566TIP3    H228642   7.189   5.708   5.775
 9567TIP3   OH228643   5.414   4.838   2.084
 9567TIP3    H128644   5.338   4.896   2.085
 9567TIP3    H228645   5.468   4.871   2.012
 9568TIP3   OH228646   2.317   1.412   5.392
 9568TIP3    H128647   2.396   1.466   5.385
 9568TIP3    H228648   2.246   1.475   5.403
 9569TIP3   OH228649   6.787   1.351   1.460
 9569TIP3    H128650   6.796   1.447   1.457
 9569TIP3    H228651   6.733   1.331   1.383
 9570TIP3   OH228652   4.790   7.492   2.879
 9570TIP3    H128653   4.702   7.530   2.874
 9570TIP3    H228654   4.835   7.545   2.945
 9571TIP3   OH228655   1.417   4.664   0.769
 9571TIP3    H128656   1.471   4.587   0.789
 9571TIP3    H228657   1.330   4.642   0.803
 9572TIP3   OH228658   1.126   4.191   3.994
 9572TIP3    H128659   1.067   4.212   4.067
 9572TIP3    H228660   1.212   4.223   4.022
 9573TIP3   OH228661   4.968   4.863   2.685
 9573TIP3    H128662   4.941   4.900   2.600
 9573TIP3    H228663   5.063   4.858   2.679
 9574TIP3   OH228664   7.181   3.069   0.381
 9574TIP3    H128665   7.153   2.978   0.365
 9574TIP3    H228666   7.149   3.089   0.469
 9575TIP3   OH228667   0.098   5.065   3.511
 9575TIP3    H128668   0.027   5.005   3.533
 9575TIP3    H228669   0.171   5.036   3.565
 9576TIP3   OH228670   6.050   0.669   1.669
 9576TIP3    H128671   5.976   0.609   1.674
 9576TIP3    H228672   6.060   0.688   1.576
 9577TIP3   OH228673   7.140   0.849   0.450
 9577TIP3    H128674   7.181   0.777   0.498
 9577TIP3    H228675   7.121   0.813   0.364
 9578TIP3   OH228676   6.259   0.065   0.449
 9578TIP3    H128677   6.284   0.005   0.379
 9578TIP3    H228678   6.296   0.149   0.424
 9579TIP3   OH228679   0.487   1.955   1.672
 9579TIP3    H128680   0.521   1.887   1.729
 9579TIP3    H228681   0.541   1.951   1.593
 9580TIP3   OH228682   3.616   3.548   6.020
 9580TIP3    H128683   3.597   3.638   5.994
 9580TIP3    H228684   3.695   3.555   6.074
 9581TIP3   OH228685   6.793   3.087   6.325
 9581TIP3    H128686   6.874   3.057   6.367
 9581TIP3    H228687   6.735   3.111   6.397
 9582TIP3   OH228688   1.453   6.344   1.513
 9582TIP3    H128689   1.394   6.346   1.438
 9582TIP3    H228690   1.519   6.279   1.489
 9583TIP3   OH228691   0.966   5.048   6.440
 9583TIP3    H128692   0.898   5.076   6.379
 9583TIP3    H228693   0.938   4.961   6.468
 9584TIP3   OH228694   4.444   4.963   6.195
 9584TIP3    H128695   4.361   5.010   6.190
 9584TIP3    H228696   4.446   4.911   6.114
 9585TIP3   OH228697   0.272   0.959   3.860
 9585TIP3    H128698   0.288   0.997   3.946
 9585TIP3    H228699   0.358   0.936   3.827
 9586TIP3   OH228700   2.983   3.019   1.713
 9586TIP3    H128701   3.046   3.090   1.704
 9586TIP3    H228702   2.898   3.062   1.715
 9587TIP3   OH228703   5.140   3.543   0.996
 9587TIP3    H128704   5.189   3.555   0.914
 9587TIP3    H228705   5.111   3.632   1.019
 9588TIP3   OH228706   3.118   2.816   3.213
 9588TIP3    H128707   3.152   2.905   3.205
 9588TIP3    H228708   3.194   2.763   3.236
 9589TIP3   OH228709   3.264   2.801   2.715
 9589TIP3    H128710   3.189   2.778   2.660
 9589TIP3    H228711   3.329   2.835   2.653
 9590TIP3   OH228712   2.713   2.444   2.781
 9590TIP3    H128713   2.798   2.400   2.787
 9590TIP3    H228714   2.693   2.445   2.688
 9591TIP3   OH228715   7.834   3.163   3.479
 9591TIP3    H128716   7.806   3.216   3.553
 9591TIP3    H228717   7.756   3.154   3.425
 9592TIP3   OH228718   8.006   5.401   5.492
 9592TIP3    H128719   8.013   5.489   5.457
 9592TIP3    H228720   8.001   5.345   5.415
 9593TIP3   OH228721   3.232   5.979   4.839
 9593TIP3    H128722   3.249   5.963   4.746
 9593TIP3    H228723   3.310   5.944   4.884
 9594TIP3   OH228724   2.882   1.284   5.889
 9594TIP3    H128725   2.861   1.302   5.981
 9594TIP3    H228726   2.892   1.188   5.885
 9595TIP3   OH228727   8.113   6.078   3.649
 9595TIP3    H128728   8.018   6.066   3.643
 9595TIP3    H228729   8.142   6.086   3.558
 9596TIP3   OH228730   5.272   6.094   0.932
 9596TIP3    H128731   5.200   6.079   0.993
 9596TIP3    H228732   5.336   6.025   0.952
 9597TIP3   OH228733   1.950   0.361   6.055
 9597TIP3    H128734   1.874   0.336   6.002
 9597TIP3    H228735   2.016   0.389   5.992
 9598TIP3   OH228736   2.328   0.095   4.833
 9598TIP3    H128737   2.401   0.038   4.855
 9598TIP3    H228738   2.330   0.163   4.901
 9599TIP3   OH228739   5.704   7.251   1.476
 9599TIP3    H128740   5.754   7.174   1.448
 9599TIP3    H228741   5.766   7.300   1.531
 9600TIP3   OH228742   6.831   0.624   4.872
 9600TIP3    H128743   6.913   0.629   4.920
 9600TIP3    H228744   6.831   0.536   4.833
 9601TIP3   OH228745   7.108   2.698   3.498
 9601TIP3    H128746   7.170   2.638   3.457
 9601TIP3    H228747   7.160   2.774   3.523
 9602TIP3   OH228748   3.567   6.191   5.345
 9602TIP3    H128749   3.507   6.146   5.285
 9602TIP3    H228750   3.562   6.283   5.319
 9603TIP3   OH228751   3.526   0.387   0.042
 9603TIP3    H128752   3.587   0.440   0.093
 9603TIP3    H228753   3.455   0.447   0.019
 9604TIP3   OH228754   6.454   6.928   3.981
 9604TIP3    H128755   6.501   7.012   3.982
 9604TIP3    H228756   6.390   6.935   4.052
 9605TIP3   OH228757   2.158   0.164   0.393
 9605TIP3    H128758   2.119   0.196   0.474
 9605TIP3    H228759   2.115   0.079   0.378
 9606TIP3   OH228760   0.977   0.000   1.068
 9606TIP3    H128761   0.933  -0.010   0.983
 9606TIP3    H228762   0.997   0.093   1.073
 9607TIP3   OH228763   2.804   5.939   2.776
 9607TIP3    H128764   2.859   5.941   2.698
 9607TIP3    H228765   2.715   5.948   2.743
 9608TIP3   OH228766   7.695   1.069   5.538
 9608TIP3    H128767   7.642   0.989   5.536
 9608TIP3    H228768   7.682   1.103   5.627
 9609TIP3   OH228769   3.901   2.500   3.340
 9609TIP3    H128770   3.913   2.587   3.303
 9609TIP3    H228771   3.878   2.445   3.266
 9610TIP3   OH228772   6.737   1.337   5.969
 9610TIP3    H128773   6.819   1.304   5.931
 9610TIP3    H228774   6.709   1.406   5.908
 9611TIP3   OH228775   0.026   1.046   1.200
 9611TIP3    H128776   0.054   1.120   1.147
 9611TIP3    H228777  -0.011   1.085   1.279
 9612TIP3   OH228778   4.779   0.686   5.487
 9612TIP3    H128779   4.758   0.662   5.577
 9612TIP3    H228780   4.871   0.712   5.489
 9613TIP3   OH228781   4.194   5.985   4.505
 9613TIP3    H128782   4.116   5.929   4.508
 9613TIP3    H228783   4.186   6.039   4.584
 9614TIP3   OH228784   1.077   4.812   5.385
 9614TIP3    H128785   0.993   4.772   5.406
 9614TIP3    H228786   1.084   4.886   5.446
 9615TIP3   OH228787   1.444   0.267   4.972
 9615TIP3    H128788   1.444   0.351   5.019
 9615TIP3    H228789   1.499   0.284   4.895
 9616TIP3   OH228790   1.745   7.779   6.042
 9616TIP3    H128791   1.711   7.832   6.113
 9616TIP3    H228792   1.750   7.839   5.967
 9617TIP3   OH228793   7.047   1.845   2.668
 9617TIP3    H128794   7.019   1.935   2.686
 9617TIP3    H228795   7.133   1.837   2.710
 9618TIP3   OH228796   0.443   3.687   2.153
 9618TIP3    H128797   0.443   3.729   2.067
 9618TIP3    H228798   0.351   3.684   2.178
 9619TIP3   OH228799   1.800   3.592   6.730
 9619TIP3    H128800   1.869   3.655   6.751
 9619TIP3    H228801   1.797   3.590   6.635
 9620TIP3   OH228802   6.484   0.742   3.884
 9620TIP3    H128803   6.468   0.763   3.976
 9620TIP3    H228804   6.485   0.827   3.840
 9621TIP3   OH228805   6.248   2.822   0.451
 9621TIP3    H128806   6.262   2.852   0.542
 9621TIP3    H228807   6.326   2.771   0.431
 9622TIP3   OH228808   5.451   2.672   1.720
 9622TIP3    H128809   5.407   2.643   1.801
 9622TIP3    H228810   5.521   2.730   1.750
 9623TIP3   OH228811   1.905   4.511   1.174
 9623TIP3    H128812   1.899   4.454   1.097
 9623TIP3    H228813   1.820   4.555   1.177
 9624TIP3   OH228814   3.568   3.996   3.815
 9624TIP3    H128815   3.538   4.061   3.878
 9624TIP3    H228816   3.621   3.934   3.866
 9625TIP3   OH228817   2.692   7.465   4.547
 9625TIP3    H128818   2.649   7.503   4.625
 9625TIP3    H228819   2.683   7.532   4.480
 9626TIP3   OH228820   7.172   3.228   3.843
 9626TIP3    H128821   7.098   3.167   3.843
 9626TIP3    H228822   7.141   3.302   3.895
 9627TIP3   OH228823   7.873   3.552   6.620
 9627TIP3    H128824   7.896   3.638   6.654
 9627TIP3    H228825   7.950   3.498   6.639
 9628TIP3   OH228826   3.284   4.214   5.168
 9628TIP3    H128827   3.274   4.214   5.073
 9628TIP3    H228828   3.307   4.124   5.190
 9629TIP3   OH228829   7.488   0.355   2.646
 9629TIP3    H128830   7.558   0.325   2.704
 9629TIP3    H228831   7.453   0.274   2.608
 9630TIP3   OH228832   1.366   0.119   2.151
 9630TIP3    H128833   1.284   0.117   2.102
 9630TIP3    H228834   1.404   0.205   2.132
 9631TIP3   OH228835   7.047   2.711   0.743
 9631TIP3    H128836   7.125   2.760   0.768
 9631TIP3    H228837   7.025   2.659   0.820
 9632TIP3   OH228838   7.155   6.612   5.572
 9632TIP3    H128839   7.061   6.626   5.574
 9632TIP3    H228840   7.173   6.560   5.651
 9633TIP3   OH228841   1.859   3.775   3.666
 9633TIP3    H128842   1.930   3.807   3.611
 9633TIP3    H228843   1.878   3.682   3.677
 9634TIP3   OH228844   7.997   0.789   0.190
 9634TIP3    H128845   7.933   0.729   0.153
 9634TIP3    H228846   7.994   0.865   0.132
 9635TIP3   OH228847   7.859   7.503   5.071
 9635TIP3    H128848   7.830   7.562   5.001
 9635TIP3    H228849   7.778   7.472   5.111
 9636TIP3   OH228850   0.506   1.608   5.956
 9636TIP3    H128851   0.431   1.581   6.008
 9636TIP3    H228852   0.562   1.529   5.952
 9637TIP3   OH228853   2.981   3.783   1.811
 9637TIP3    H128854   3.069   3.802   1.843
 9637TIP3    H228855   2.933   3.866   1.824
 9638TIP3   OH228856   0.539   3.663   6.612
 9638TIP3    H128857   0.592   3.608   6.669
 9638TIP3    H228858   0.579   3.655   6.525
 9639TIP3   OH228859   3.319   4.240   4.493
 9639TIP3    H128860   3.406   4.271   4.467
 9639TIP3    H228861   3.319   4.147   4.471
 9640TIP3   OH228862   6.624   4.200   3.099
 9640TIP3    H128863   6.637   4.110   3.071
 9640TIP3    H228864   6.599   4.194   3.191
 9641TIP3   OH228865   2.932   4.859   5.325
 9641TIP3    H128866   2.991   4.851   5.400
 9641TIP3    H228867   2.985   4.835   5.249
 9642TIP3   OH228868   2.262   2.351   6.270
 9642TIP3    H128869   2.217   2.333   6.188
 9642TIP3    H228870   2.217   2.297   6.335
 9643TIP3   OH228871   6.429   6.729   1.388
 9643TIP3    H128872   6.395   6.640   1.385
 9643TIP3    H228873   6.351   6.784   1.395
 9644TIP3   OH228874   1.437   5.294   2.851
 9644TIP3    H128875   1.427   5.252   2.766
 9644TIP3    H228876   1.356   5.275   2.898
 9645TIP3   OH228877   4.161   1.749   0.238
 9645TIP3    H128878   4.213   1.802   0.178
 9645TIP3    H228879   4.072   1.784   0.231
 9646TIP3   OH228880   3.556   7.186   5.901
 9646TIP3    H128881   3.636   7.229   5.934
 9646TIP3    H228882   3.570   7.180   5.806
 9647TIP3   OH228883   7.992   1.441   4.521
 9647TIP3    H128884   7.967   1.438   4.614
 9647TIP3    H228885   8.078   1.400   4.519
 9648TIP3   OH228886   0.520   6.739   4.750
 9648TIP3    H128887   0.460   6.690   4.806
 9648TIP3    H228888   0.565   6.799   4.809
 9649TIP3   OH228889   6.929   3.777   4.417
 9649TIP3    H128890   6.919   3.732   4.333
 9649TIP3    H228891   6.920   3.870   4.396
 9650TIP3   OH228892   2.530   3.021   2.236
 9650TIP3    H128893   2.445   3.014   2.280
 9650TIP3    H228894   2.574   2.939   2.258
 9651TIP3   OH228895   1.786   2.335   6.275
 9651TIP3    H128896   1.711   2.281   6.250
 9651TIP3    H228897   1.819   2.370   6.192
 9652TIP3   OH228898   7.893   2.702   3.602
 9652TIP3    H128899   7.910   2.627   3.544
 9652TIP3    H228900   7.907   2.667   3.690
 9653TIP3   OH228901   5.272   3.252   3.052
 9653TIP3    H128902   5.205   3.193   3.018
 9653TIP3    H228903   5.236   3.340   3.037
 9654TIP3   OH228904   2.916   3.026   4.141
 9654TIP3    H128905   2.865   2.978   4.206
 9654TIP3    H228906   3.007   3.016   4.171
 9655TIP3   OH228907   0.829   6.630   3.745
 9655TIP3    H128908   0.885   6.707   3.747
 9655TIP3    H228909   0.835   6.599   3.654
 9656TIP3   OH228910   5.319   5.279   6.527
 9656TIP3    H128911   5.311   5.339   6.601
 9656TIP3    H228912   5.395   5.225   6.549
 9657TIP3   OH228913   6.321   0.691   1.276
 9657TIP3    H128914   6.243   0.747   1.283
 9657TIP3    H228915   6.287   0.602   1.287
 9658TIP3   OH228916   6.230   0.006   6.163
 9658TIP3    H128917   6.226  -0.023   6.254
 9658TIP3    H228918   6.139   0.008   6.134
 9659TIP3   OH228919   3.018   6.254   4.344
 9659TIP3    H128920   2.963   6.284   4.272
 9659TIP3    H228921   3.046   6.334   4.389
 9660TIP3   OH228922   5.741   6.152   2.436
 9660TIP3    H128923   5.830   6.180   2.415
 9660TIP3    H228924   5.691   6.233   2.441
 9661TIP3   OH228925   0.463   5.182   2.616
 9661TIP3    H128926   0.524   5.242   2.573
 9661TIP3    H228927   0.421   5.234   2.684
 9662TIP3   OH228928   5.218   7.082   4.596
 9662TIP3    H128929   5.312   7.091   4.580
 9662TIP3    H228930   5.182   7.059   4.510
 9663TIP3   OH228931   1.031   3.000   5.089
 9663TIP3    H128932   0.950   3.046   5.112
 9663TIP3    H228933   1.004   2.909   5.075
 9664TIP3   OH228934   4.358   2.846   1.877
 9664TIP3    H128935   4.343   2.890   1.793
 9664TIP3    H228936   4.449   2.868   1.899
 9665TIP3   OH228937   0.375   7.213   2.446
 9665TIP3    H128938   0.281   7.229   2.455
 9665TIP3    H228939   0.413   7.252   2.526
 9666TIP3   OH228940   0.852   3.953   1.083
 9666TIP3    H128941   0.871   4.015   1.153
 9666TIP3    H228942   0.932   3.953   1.029
 9667TIP3   OH228943   6.454   2.049   2.510
 9667TIP3    H128944   6.472   2.036   2.416
 9667TIP3    H228945   6.459   1.962   2.548
 9668TIP3   OH228946   8.302   1.606   5.564
 9668TIP3    H128947   8.231   1.564   5.515
 9668TIP3    H228948   8.369   1.625   5.499
 9669TIP3   OH228949   1.527   3.091   4.161
 9669TIP3    H128950   1.457   3.029   4.140
 9669TIP3    H228951   1.532   3.149   4.085
 9670TIP3   OH228952   0.335   1.572   3.403
 9670TIP3    H128953   0.367   1.660   3.421
 9670TIP3    H228954   0.242   1.574   3.425
 9671TIP3   OH228955   5.864   4.701   4.402
 9671TIP3    H128956   5.781   4.723   4.443
 9671TIP3    H228957   5.845   4.623   4.350
 9672TIP3   OH228958   7.909   2.414   2.246
 9672TIP3    H128959   7.845   2.466   2.295
 9672TIP3    H228960   7.965   2.480   2.204
 9673TIP3   OH228961   6.322   1.460   1.934
 9673TIP3    H128962   6.273   1.406   1.873
 9673TIP3    H228963   6.342   1.401   2.007
 9674TIP3   OH228964   6.601   7.029   1.640
 9674TIP3    H128965   6.536   6.967   1.675
 9674TIP3    H228966   6.551   7.108   1.621
 9675TIP3   OH228967   6.191   6.334   3.838
 9675TIP3    H128968   6.254   6.267   3.865
 9675TIP3    H228969   6.245   6.412   3.822
 9676TIP3   OH228970   1.974   1.910   3.470
 9676TIP3    H128971   2.046   1.909   3.534
 9676TIP3    H228972   1.942   2.000   3.471
 9677TIP3   OH228973   0.528   4.368   1.600
 9677TIP3    H128974   0.450   4.423   1.592
 9677TIP3    H228975   0.494   4.280   1.614
 9678TIP3   OH228976   7.482   3.661   6.332
 9678TIP3    H128977   7.467   3.633   6.241
 9678TIP3    H228978   7.541   3.595   6.368
 9679TIP3   OH228979   3.227   2.087   2.254
 9679TIP3    H128980   3.246   2.055   2.343
 9679TIP3    H228981   3.266   2.021   2.196
 9680TIP3   OH228982   3.253   7.572   5.853
 9680TIP3    H128983   3.259   7.487   5.897
 9680TIP3    H228984   3.318   7.567   5.783
 9681TIP3   OH228985   1.388   7.221   6.011
 9681TIP3    H128986   1.349   7.138   5.984
 9681TIP3    H228987   1.482   7.209   5.996
 9682TIP3   OH228988   7.221   1.010   3.599
 9682TIP3    H128989   7.310   1.047   3.597
 9682TIP3    H228990   7.192   1.014   3.508
 9683TIP3   OH228991   8.148   5.400   1.940
 9683TIP3    H128992   8.077   5.339   1.960
 9683TIP3    H228993   8.154   5.456   2.018
 9684TIP3   OH228994   6.542   4.139   5.554
 9684TIP3    H128995   6.529   4.158   5.461
 9684TIP3    H228996   6.498   4.055   5.568
 9685TIP3   OH228997   7.121   4.914   4.188
 9685TIP3    H128998   7.099   4.977   4.119
 9685TIP3    H228999   7.105   4.828   4.148
 9686TIP3   OH229000   6.538   3.039   3.639
 9686TIP3    H129001   6.600   2.979   3.681
 9686TIP3    H229002   6.497   3.086   3.711
 9687TIP3   OH229003   7.903   6.264   5.017
 9687TIP3    H129004   7.931   6.241   5.106
 9687TIP3    H229005   7.973   6.230   4.960
 9688TIP3   OH229006   6.606   0.321   3.845
 9688TIP3    H129007   6.666   0.307   3.918
 9688TIP3    H229008   6.641   0.269   3.773
 9689TIP3   OH229009   4.186   1.116   4.615
 9689TIP3    H129010   4.177   1.210   4.633
 9689TIP3    H229011   4.146   1.073   4.690
 9690TIP3   OH229012   7.407   5.107   4.688
 9690TIP3    H129013   7.382   5.026   4.732
 9690TIP3    H229014   7.431   5.080   4.599
 9691TIP3   OH229015   2.436   1.707   3.061
 9691TIP3    H129016   2.531   1.698   3.060
 9691TIP3    H229017   2.403   1.618   3.045
 9692TIP3   OH229018   6.736   3.878   5.002
 9692TIP3    H129019   6.775   3.827   5.072
 9692TIP3    H229020   6.808   3.895   4.941
 9693TIP3   OH229021   2.981   6.688   2.647
 9693TIP3    H129022   2.917   6.685   2.576
 9693TIP3    H229023   2.932   6.722   2.722
 9694TIP3   OH229024   4.656   5.724   4.244
 9694TIP3    H129025   4.622   5.662   4.180
 9694TIP3    H229026   4.735   5.760   4.203
 9695TIP3   OH229027   5.175   5.656   0.491
 9695TIP3    H129028   5.137   5.580   0.535
 9695TIP3    H229029   5.270   5.641   0.495
 9696TIP3   OH229030   2.584   6.748   6.485
 9696TIP3    H129031   2.665   6.699   6.472
 9696TIP3    H229032   2.581   6.765   6.579
 9697TIP3   OH229033   1.214   1.534   5.464
 9697TIP3    H129034   1.191   1.576   5.381
 9697TIP3    H229035   1.155   1.459   5.469
 9698TIP3   OH229036   3.110   5.372   5.375
 9698TIP3    H129037   3.186   5.419   5.409
 9698TIP3    H229038   3.047   5.371   5.447
 9699TIP3   OH229039   3.404   0.855   3.879
 9699TIP3    H129040   3.345   0.924   3.848
 9699TIP3    H229041   3.464   0.898   3.939
 9700TIP3   OH229042   1.267   4.471   2.683
 9700TIP3    H129043   1.256   4.408   2.612
 9700TIP3    H229044   1.356   4.455   2.716
 9701TIP3   OH229045   6.016   1.064   3.992
 9701TIP3    H129046   5.964   1.041   4.068
 9701TIP3    H229047   6.106   1.059   4.022
 9702TIP3   OH229048   0.771   0.148   5.375
 9702TIP3    H129049   0.701   0.082   5.381
 9702TIP3    H229050   0.727   0.227   5.344
 9703TIP3   OH229051   0.154   6.146   0.018
 9703TIP3    H129052   0.215   6.119   0.086
 9703TIP3    H229053   0.081   6.084   0.026
 9704TIP3   OH229054   4.748   3.010   5.793
 9704TIP3    H129055   4.741   2.932   5.738
 9704TIP3    H229056   4.729   2.979   5.882
 9705TIP3   OH229057   6.426   5.798   3.899
 9705TIP3    H129058   6.369   5.848   3.957
 9705TIP3    H229059   6.443   5.857   3.825
 9706TIP3   OH229060   1.339   6.592   5.452
 9706TIP3    H129061   1.285   6.622   5.379
 9706TIP3    H229062   1.358   6.500   5.432
 9707TIP3   OH229063   1.799   7.545   2.729
 9707TIP3    H129064   1.831   7.627   2.692
 9707TIP3    H229065   1.759   7.499   2.655
 9708TIP3   OH229066   4.201   3.631   0.025
 9708TIP3    H129067   4.238   3.708   0.069
 9708TIP3    H229068   4.123   3.663  -0.020
 9709TIP3   OH229069   8.249   2.568   3.671
 9709TIP3    H129070   8.218   2.617   3.594
 9709TIP3    H229071   8.271   2.635   3.735
 9710TIP3   OH229072   3.314   3.461   3.965
 9710TIP3    H129073   3.396   3.453   3.916
 9710TIP3    H229074   3.336   3.518   4.040
 9711TIP3   OH229075   6.875   1.056   3.827
 9711TIP3    H129076   6.923   1.130   3.790
 9711TIP3    H229077   6.922   1.034   3.907
 9712TIP3   OH229078   1.727   0.161   2.403
 9712TIP3    H129079   1.634   0.153   2.427
 9712TIP3    H229080   1.746   0.081   2.354
 9713TIP3   OH229081   3.925   0.378   2.314
 9713TIP3    H129082   3.853   0.329   2.275
 9713TIP3    H229083   3.882   0.444   2.369
 9714TIP3   OH229084   0.922   3.254   1.858
 9714TIP3    H129085   0.878   3.245   1.942
 9714TIP3    H229086   1.003   3.301   1.878
 9715TIP3   OH229087   4.034   1.386   4.708
 9715TIP3    H129088   4.033   1.468   4.658
 9715TIP3    H229089   4.088   1.405   4.784
 9716TIP3   OH229090   0.128   1.251   1.037
 9716TIP3    H129091   0.202   1.295   1.079
 9716TIP3    H229092   0.073   1.323   1.006
 9717TIP3   OH229093   1.572   4.916   4.670
 9717TIP3    H129094   1.597   4.994   4.720
 9717TIP3    H229095   1.642   4.904   4.606
 9718TIP3   OH229096   1.958   2.000   2.046
 9718TIP3    H129097   2.003   2.031   2.124
 9718TIP3    H229098   2.006   2.039   1.973
 9719TIP3   OH229099   0.105   3.073   0.798
 9719TIP3    H129100   0.016   3.038   0.805
 9719TIP3    H229101   0.160   2.996   0.793
 9720TIP3   OH229102   0.557   1.956   3.625
 9720TIP3    H129103   0.572   2.047   3.601
 9720TIP3    H229104   0.644   1.917   3.626
 9721TIP3   OH229105   4.414   1.080   5.759
 9721TIP3    H129106   4.424   1.119   5.671
 9721TIP3    H229107   4.484   1.015   5.763
 9722TIP3   OH229108   5.641   4.834   3.096
 9722TIP3    H129109   5.689   4.763   3.052
 9722TIP3    H229110   5.708   4.880   3.148
 9723TIP3   OH229111   0.200   5.621   1.627
 9723TIP3    H129112   0.279   5.668   1.600
 9723TIP3    H229113   0.222   5.528   1.617
 9724TIP3   OH229114   3.907   4.631   5.510
 9724TIP3    H129115   3.933   4.598   5.424
 9724TIP3    H229116   3.814   4.652   5.500
 9725TIP3   OH229117   3.225   0.839   1.376
 9725TIP3    H129118   3.257   0.789   1.451
 9725TIP3    H229119   3.303   0.856   1.324
 9726TIP3   OH229120   6.518   5.953   1.516
 9726TIP3    H129121   6.530   6.047   1.505
 9726TIP3    H229122   6.435   5.944   1.561
 9727TIP3   OH229123   2.116   1.813   2.424
 9727TIP3    H129124   2.029   1.776   2.412
 9727TIP3    H229125   2.108   1.867   2.503
 9728TIP3   OH229126   8.261   4.479   3.640
 9728TIP3    H129127   8.247   4.386   3.619
 9728TIP3    H229128   8.175   4.519   3.629
 9729TIP3   OH229129   5.132   1.701   2.151
 9729TIP3    H129130   5.159   1.761   2.082
 9729TIP3    H229131   5.039   1.687   2.136
 9730TIP3   OH229132   0.946   2.188   0.786
 9730TIP3    H129133   1.002   2.249   0.834
 9730TIP3    H229134   0.981   2.101   0.807
 9731TIP3   OH229135   0.836   4.718   5.439
 9731TIP3    H129136   0.804   4.630   5.459
 9731TIP3    H229137   0.763   4.761   5.394
 9732TIP3   OH229138   1.833   4.109   6.231
 9732TIP3    H129139   1.923   4.075   6.227
 9732TIP3    H229140   1.806   4.119   6.140
 9733TIP3   OH229141   1.453   4.873   0.569
 9733TIP3    H129142   1.546   4.858   0.554
 9733TIP3    H229143   1.430   4.811   0.638
 9734TIP3   OH229144   1.177   2.339   0.982
 9734TIP3    H129145   1.244   2.403   0.956
 9734TIP3    H229146   1.104   2.393   1.013
 9735TIP3   OH229147   0.378   2.082   1.084
 9735TIP3    H129148   0.457   2.058   1.036
 9735TIP3    H229149   0.306   2.062   1.024
 9736TIP3   OH229150   0.492   6.234   5.979
 9736TIP3    H129151   0.587   6.229   5.977
 9736TIP3    H229152   0.462   6.143   5.968
 9737TIP3   OH229153   3.920   1.697   3.519
 9737TIP3    H129154   3.950   1.659   3.601
 9737TIP3    H229155   3.920   1.623   3.458
 9738TIP3   OH229156   5.901   1.419   4.013
 9738TIP3    H129157   5.865   1.452   3.931
 9738TIP3    H229158   5.986   1.382   3.990
 9739TIP3   OH229159   7.974   6.214   6.647
 9739TIP3    H129160   8.038   6.236   6.714
 9739TIP3    H229161   7.924   6.140   6.684
 9740TIP3   OH229162   2.781   7.197   1.504
 9740TIP3    H129163   2.850   7.150   1.550
 9740TIP3    H229164   2.757   7.269   1.562
 9741TIP3   OH229165   1.480   6.807   2.962
 9741TIP3    H129166   1.461   6.828   2.871
 9741TIP3    H229167   1.484   6.891   3.007
 9742TIP3   OH229168   0.074   0.784   1.198
 9742TIP3    H129169   0.057   0.877   1.212
 9742TIP3    H229170   0.123   0.781   1.116
 9743TIP3   OH229171   6.164   7.358   2.557
 9743TIP3    H129172   6.081   7.363   2.605
 9743TIP3    H229173   6.158   7.429   2.492
 9744TIP3   OH229174   2.770   6.820   4.081
 9744TIP3    H129175   2.739   6.868   4.158
 9744TIP3    H229176   2.689   6.790   4.038
 9745TIP3   OH229177   0.530   1.145   5.425
 9745TIP3    H129178   0.609   1.102   5.459
 9745TIP3    H229179   0.489   1.078   5.369
 9746TIP3   OH229180   1.403   1.082   3.538
 9746TIP3    H129181   1.317   1.047   3.559
 9746TIP3    H229182   1.465   1.023   3.580
 9747TIP3   OH229183   3.098   5.275   5.692
 9747TIP3    H129184   3.023   5.325   5.661
 9747TIP3    H229185   3.133   5.233   5.614
 9748TIP3   OH229186   7.814   2.336   4.541
 9748TIP3    H129187   7.899   2.351   4.498
 9748TIP3    H229188   7.816   2.393   4.618
 9749TIP3   OH229189   2.324   6.787   3.371
 9749TIP3    H129190   2.348   6.697   3.394
 9749TIP3    H229191   2.244   6.804   3.420
 9750TIP3   OH229192   2.322   3.044   1.451
 9750TIP3    H129193   2.273   2.973   1.492
 9750TIP3    H229194   2.307   3.120   1.509
 9751TIP3   OH229195   8.296   6.237   3.325
 9751TIP3    H129196   8.249   6.311   3.287
 9751TIP3    H229197   8.227   6.177   3.353
 9752TIP3   OH229198   3.985   4.027   4.274
 9752TIP3    H129199   4.079   4.032   4.259
 9752TIP3    H229200   3.952   4.113   4.246
 9753TIP3   OH229201   6.256   1.396   1.148
 9753TIP3    H129202   6.351   1.407   1.138
 9753TIP3    H229203   6.243   1.379   1.241
 9754TIP3   OH229204   8.067   1.238   0.232
 9754TIP3    H129205   8.054   1.311   0.172
 9754TIP3    H229206   8.057   1.277   0.319
 9755TIP3   OH229207   1.246   2.842   5.779
 9755TIP3    H129208   1.193   2.822   5.702
 9755TIP3    H229209   1.223   2.774   5.842
 9756TIP3   OH229210   1.567   1.146   2.625
 9756TIP3    H129211   1.493   1.129   2.567
 9756TIP3    H229212   1.612   1.061   2.631
 9757TIP3   OH229213   5.786   4.233   3.443
 9757TIP3    H129214   5.757   4.282   3.366
 9757TIP3    H229215   5.786   4.142   3.415
 9758TIP3   OH229216   6.501   0.372   6.517
 9758TIP3    H129217   6.557   0.307   6.558
 9758TIP3    H229218   6.443   0.321   6.459
 9759TIP3   OH229219   3.145   4.747   4.383
 9759TIP3    H129220   3.222   4.702   4.418
 9759TIP3    H229221   3.093   4.677   4.344
 9760TIP3   OH229222   0.952   0.184   2.886
 9760TIP3    H129223   0.993   0.194   2.800
 9760TIP3    H229224   0.858   0.194   2.869
 9761TIP3   OH229225   2.071   2.503   0.210
 9761TIP3    H129226   2.150   2.525   0.260
 9761TIP3    H229227   2.002   2.502   0.276
 9762TIP3   OH229228   7.956   6.539   2.016
 9762TIP3    H129229   7.992   6.502   1.936
 9762TIP3    H229230   7.883   6.481   2.038
 9763TIP3   OH229231   0.855   4.805   6.347
 9763TIP3    H129232   0.845   4.713   6.321
 9763TIP3    H229233   0.865   4.853   6.265
 9764TIP3   OH229234   4.870   0.514   4.802
 9764TIP3    H129235   4.906   0.489   4.887
 9764TIP3    H229236   4.946   0.517   4.744
 9765TIP3   OH229237   0.692   6.715   6.637
 9765TIP3    H129238   0.674   6.663   6.558
 9765TIP3    H229239   0.637   6.792   6.629
 9766TIP3   OH229240   6.794   2.622   2.048
 9766TIP3    H129241   6.777   2.687   2.116
 9766TIP3    H229242   6.889   2.610   2.049
 9767TIP3   OH229243   5.266   3.409   2.300
 9767TIP3    H129244   5.245   3.497   2.270
 9767TIP3    H229245   5.361   3.401   2.288
 9768TIP3   OH229246   4.294   2.875   4.628
 9768TIP3    H129247   4.224   2.910   4.683
 9768TIP3    H229248   4.258   2.795   4.591
 9769TIP3   OH229249   4.265   6.408   0.394
 9769TIP3    H129250   4.287   6.356   0.471
 9769TIP3    H229251   4.295   6.356   0.320
 9770TIP3   OH229252   5.889   0.662   5.203
 9770TIP3    H129253   5.918   0.661   5.112
 9770TIP3    H229254   5.947   0.725   5.246
 9771TIP3   OH229255   3.401   7.004   6.034
 9771TIP3    H129256   3.450   7.061   5.975
 9771TIP3    H229257   3.324   7.055   6.058
 9772TIP3   OH229258   2.119   3.989   6.148
 9772TIP3    H129259   2.179   3.924   6.111
 9772TIP3    H229260   2.101   4.049   6.076
 9773TIP3   OH229261   5.063   0.902   0.774
 9773TIP3    H129262   5.034   0.838   0.710
 9773TIP3    H229263   5.010   0.884   0.852
 9774TIP3   OH229264   2.100   3.634   6.518
 9774TIP3    H129265   2.156   3.612   6.592
 9774TIP3    H229266   2.036   3.563   6.515
 9775TIP3   OH229267   1.302   7.127   1.116
 9775TIP3    H129268   1.319   7.045   1.068
 9775TIP3    H229269   1.225   7.107   1.169
 9776TIP3   OH229270   7.919   7.268   2.510
 9776TIP3    H129271   7.966   7.247   2.430
 9776TIP3    H229272   7.863   7.192   2.527
 9777TIP3   OH229273   0.055   0.746   4.737
 9777TIP3    H129274  -0.027   0.795   4.749
 9777TIP3    H229275   0.036   0.659   4.772
 9778TIP3   OH229276   1.718   1.513   2.618
 9778TIP3    H129277   1.752   1.570   2.688
 9778TIP3    H229278   1.738   1.424   2.648
 9779TIP3   OH229279   4.323   7.835   2.038
 9779TIP3    H129280   4.346   7.774   2.108
 9779TIP3    H229281   4.401   7.889   2.028
 9780TIP3   OH229282   3.153   4.772   2.929
 9780TIP3    H129283   3.212   4.814   2.991
 9780TIP3    H229284   3.189   4.684   2.917
 9781TIP3   OH229285   7.064   4.856   3.471
 9781TIP3    H129286   7.086   4.940   3.510
 9781TIP3    H229287   7.069   4.871   3.377
 9782TIP3   OH229288  -0.018   7.236   5.194
 9782TIP3    H129289  -0.054   7.270   5.276
 9782TIP3    H229290   0.048   7.301   5.168
 9783TIP3   OH229291   5.110   1.341   1.609
 9783TIP3    H129292   5.185   1.282   1.602
 9783TIP3    H229293   5.143   1.417   1.658
 9784TIP3   OH229294   8.250   3.321   2.128
 9784TIP3    H129295   8.270   3.383   2.198
 9784TIP3    H229296   8.277   3.236   2.162
 9785TIP3   OH229297   4.193   3.563   3.242
 9785TIP3    H129298   4.137   3.558   3.164
 9785TIP3    H229299   4.131   3.579   3.314
 9786TIP3   OH229300   1.073   5.419   6.750
 9786TIP3    H129301   1.000   5.389   6.696
 9786TIP3    H229302   1.037   5.491   6.802
 9787TIP3   OH229303   2.131   1.391   0.394
 9787TIP3    H129304   2.094   1.432   0.315
 9787TIP3    H229305   2.184   1.460   0.434
 9788TIP3   OH229306   1.354   1.350   0.473
 9788TIP3    H129307   1.262   1.362   0.498
 9788TIP3    H229308   1.383   1.276   0.527
 9789TIP3   OH229309   1.007   0.617   2.358
 9789TIP3    H129310   1.013   0.592   2.451
 9789TIP3    H229311   1.003   0.712   2.359
 9790TIP3   OH229312   1.411   6.346   5.382
 9790TIP3    H129313   1.506   6.344   5.371
 9790TIP3    H229314   1.379   6.274   5.329
 9791TIP3   OH229315   6.682   7.577   6.658
 9791TIP3    H129316   6.608   7.520   6.638
 9791TIP3    H229317   6.693   7.571   6.752
 9792TIP3   OH229318   3.162   3.429   2.449
 9792TIP3    H129319   3.103   3.388   2.385
 9792TIP3    H229320   3.206   3.499   2.399
 9793TIP3   OH229321   2.479   3.559   0.865
 9793TIP3    H129322   2.548   3.513   0.913
 9793TIP3    H229323   2.398   3.527   0.904
 9794TIP3   OH229324   1.543   1.793   4.933
 9794TIP3    H129325   1.612   1.740   4.894
 9794TIP3    H229326   1.555   1.782   5.028
 9795TIP3   OH229327   7.949   3.456   3.729
 9795TIP3    H129328   7.999   3.397   3.785
 9795TIP3    H229329   7.994   3.541   3.737
 9796TIP3   OH229330   2.158   7.514   1.701
 9796TIP3    H129331   2.106   7.517   1.620
 9796TIP3    H229332   2.119   7.581   1.756
 9797TIP3   OH229333   0.677   7.444   5.123
 9797TIP3    H129334   0.741   7.483   5.063
 9797TIP3    H229335   0.712   7.461   5.210
 9798TIP3   OH229336   8.017   5.538   0.341
 9798TIP3    H129337   7.980   5.621   0.372
 9798TIP3    H229338   8.039   5.489   0.420
 9799TIP3   OH229339   1.705   2.612   6.345
 9799TIP3    H129340   1.777   2.629   6.405
 9799TIP3    H229341   1.708   2.517   6.329
 9800TIP3   OH229342   0.885   2.971   4.235
 9800TIP3    H129343   0.864   2.905   4.169
 9800TIP3    H229344   0.979   2.986   4.225
 9801TIP3   OH229345   5.648   6.405   1.784
 9801TIP3    H129346   5.685   6.369   1.703
 9801TIP3    H229347   5.717   6.393   1.849
 9802TIP3   OH229348   3.716   4.890   5.157
 9802TIP3    H129349   3.656   4.940   5.102
 9802TIP3    H229350   3.782   4.953   5.185
 9803TIP3   OH229351   5.508   2.600   3.588
 9803TIP3    H129352   5.434   2.610   3.528
 9803TIP3    H229353   5.535   2.509   3.577
 9804TIP3   OH229354   6.502   7.312   5.059
 9804TIP3    H129355   6.534   7.266   4.981
 9804TIP3    H229356   6.558   7.389   5.065
 9805TIP3   OH229357   0.050   2.097   6.437
 9805TIP3    H129358  -0.013   2.026   6.424
 9805TIP3    H229359   0.034   2.156   6.363
 9806TIP3   OH229360   2.381   0.272   3.346
 9806TIP3    H129361   2.356   0.194   3.295
 9806TIP3    H229362   2.477   0.267   3.351
 9807TIP3   OH229363   4.863   2.305   6.115
 9807TIP3    H129364   4.937   2.246   6.097
 9807TIP3    H229365   4.817   2.263   6.188
 9808TIP3   OH229366   1.858   6.820   3.206
 9808TIP3    H129367   1.824   6.908   3.191
 9808TIP3    H229368   1.848   6.806   3.300
 9809TIP3   OH229369   5.020   2.958   3.652
 9809TIP3    H129370   4.963   2.882   3.639
 9809TIP3    H229371   5.065   2.968   3.568
 9810TIP3   OH229372   1.971   1.548   1.938
 9810TIP3    H129373   1.939   1.496   2.012
 9810TIP3    H229374   2.046   1.499   1.905
 9811TIP3   OH229375   5.039   6.933   2.549
 9811TIP3    H129376   5.064   6.868   2.615
 9811TIP3    H229377   5.121   6.956   2.505
 9812TIP3   OH229378   6.178   4.804   4.219
 9812TIP3    H129379   6.140   4.890   4.235
 9812TIP3    H229380   6.160   4.786   4.127
 9813TIP3   OH229381   7.697   2.653   6.357
 9813TIP3    H129382   7.766   2.607   6.405
 9813TIP3    H229383   7.634   2.679   6.424
 9814TIP3   OH229384   6.813   0.436   2.490
 9814TIP3    H129385   6.868   0.383   2.431
 9814TIP3    H229386   6.858   0.431   2.574
 9815TIP3   OH229387   6.573   6.312   3.699
 9815TIP3    H129388   6.581   6.245   3.631
 9815TIP3    H229389   6.655   6.306   3.748
 9816TIP3   OH229390   2.148   0.173   4.643
 9816TIP3    H129391   2.174   0.265   4.647
 9816TIP3    H229392   2.202   0.129   4.708
 9817TIP3   OH229393   7.169   6.575   3.308
 9817TIP3    H129394   7.099   6.620   3.262
 9817TIP3    H229395   7.144   6.579   3.401
 9818TIP3   OH229396   2.848   3.150   4.409
 9818TIP3    H129397   2.855   3.054   4.414
 9818TIP3    H229398   2.759   3.169   4.438
 9819TIP3   OH229399   5.257   5.023   0.610
 9819TIP3    H129400   5.305   4.941   0.619
 9819TIP3    H229401   5.291   5.079   0.679
 9820TIP3   OH229402   4.261   7.676   2.486
 9820TIP3    H129403   4.250   7.630   2.569
 9820TIP3    H229404   4.172   7.685   2.452
 9821TIP3   OH229405   5.066   3.947   2.970
 9821TIP3    H129406   5.115   3.876   3.012
 9821TIP3    H229407   4.977   3.913   2.962
 9822TIP3   OH229408   6.302   6.872   3.074
 9822TIP3    H129409   6.220   6.916   3.098
 9822TIP3    H229410   6.363   6.943   3.054
 9823TIP3   OH229411   5.979   0.089   0.461
 9823TIP3    H129412   6.033   0.157   0.501
 9823TIP3    H229413   5.894   0.097   0.505
 9824TIP3   OH229414   7.306   3.215   5.474
 9824TIP3    H129415   7.254   3.246   5.400
 9824TIP3    H229416   7.340   3.295   5.514
 9825TIP3   OH229417   4.903   3.902   5.339
 9825TIP3    H129418   4.955   3.909   5.419
 9825TIP3    H229419   4.812   3.901   5.369
 9826TIP3   OH229420   7.273   5.027   0.650
 9826TIP3    H129421   7.226   4.960   0.600
 9826TIP3    H229422   7.365   5.000   0.647
 9827TIP3   OH229423   2.272   5.434   6.578
 9827TIP3    H129424   2.281   5.371   6.506
 9827TIP3    H229425   2.200   5.400   6.631
 9828TIP3   OH229426   0.810   2.886   1.427
 9828TIP3    H129427   0.803   2.933   1.510
 9828TIP3    H229428   0.760   2.806   1.440
 9829TIP3   OH229429   6.700   3.531   5.487
 9829TIP3    H129430   6.792   3.559   5.478
 9829TIP3    H229431   6.692   3.507   5.579
 9830TIP3   OH229432   1.881   4.988   5.889
 9830TIP3    H129433   1.813   4.963   5.951
 9830TIP3    H229434   1.865   5.081   5.872
 9831TIP3   OH229435   2.922   3.857   1.229
 9831TIP3    H129436   2.988   3.825   1.167
 9831TIP3    H229437   2.910   3.786   1.291
 9832TIP3   OH229438   0.918   4.842   4.988
 9832TIP3    H129439   0.823   4.832   4.992
 9832TIP3    H229440   0.943   4.873   5.075
 9833TIP3   OH229441   2.280   7.525   4.653
 9833TIP3    H129442   2.283   7.507   4.559
 9833TIP3    H229443   2.242   7.446   4.692
 9834TIP3   OH229444   1.757   3.480   3.435
 9834TIP3    H129445   1.705   3.457   3.512
 9834TIP3    H229446   1.724   3.423   3.366
 9835TIP3   OH229447   0.242   6.362   2.595
 9835TIP3    H129448   0.180   6.332   2.661
 9835TIP3    H229449   0.297   6.425   2.641
 9836TIP3   OH229450   6.339   0.095   3.150
 9836TIP3    H129451   6.391   0.121   3.227
 9836TIP3    H229452   6.386   0.132   3.076
 9837TIP3   OH229453   7.457   0.487   4.313
 9837TIP3    H129454   7.473   0.394   4.295
 9837TIP3    H229455   7.427   0.489   4.403
 9838TIP3   OH229456   5.329   0.126   4.312
 9838TIP3    H129457   5.367   0.130   4.225
 9838TIP3    H229458   5.312   0.217   4.336
 9839TIP3   OH229459   4.521   4.092   1.999
 9839TIP3    H129460   4.445   4.040   1.971
 9839TIP3    H229461   4.596   4.035   1.983
 9840TIP3   OH229462   2.137   6.370   4.375
 9840TIP3    H129463   2.135   6.464   4.361
 9840TIP3    H229464   2.193   6.336   4.305
 9841TIP3   OH229465   6.450   2.693   1.291
 9841TIP3    H129466   6.398   2.668   1.215
 9841TIP3    H229467   6.394   2.753   1.340
 9842TIP3   OH229468   0.164   3.672   2.722
 9842TIP3    H129469   0.242   3.619   2.706
 9842TIP3    H229470   0.109   3.659   2.644
 9843TIP3   OH229471   5.593   6.395   3.492
 9843TIP3    H129472   5.515   6.348   3.522
 9843TIP3    H229473   5.601   6.372   3.399
 9844TIP3   OH229474   7.859   0.668   1.952
 9844TIP3    H129475   7.903   0.707   1.877
 9844TIP3    H229476   7.767   0.688   1.939
 9845TIP3   OH229477   5.181   2.319   6.539
 9845TIP3    H129478   5.193   2.284   6.451
 9845TIP3    H229479   5.150   2.408   6.525
 9846TIP3   OH229480   3.755   0.679   6.595
 9846TIP3    H129481   3.798   0.747   6.543
 9846TIP3    H229482   3.789   0.691   6.684
 9847TIP3   OH229483   4.751   1.800   6.130
 9847TIP3    H129484   4.766   1.706   6.141
 9847TIP3    H229485   4.830   1.832   6.086
 9848TIP3   OH229486   2.217   1.256   4.778
 9848TIP3    H129487   2.310   1.270   4.759
 9848TIP3    H229488   2.174   1.335   4.746
 9849TIP3   OH229489   3.670   4.047   1.088
 9849TIP3    H129490   3.598   4.079   1.143
 9849TIP3    H229491   3.637   4.054   0.998
 9850TIP3   OH229492   0.020   0.537   6.164
 9850TIP3    H129493   0.099   0.551   6.111
 9850TIP3    H229494   0.007   0.442   6.164
 9851TIP3   OH229495   3.569   2.590   5.825
 9851TIP3    H129496   3.570   2.513   5.882
 9851TIP3    H229497   3.659   2.624   5.830
 9852TIP3   OH229498   2.763   2.240   4.582
 9852TIP3    H129499   2.673   2.208   4.595
 9852TIP3    H229500   2.767   2.321   4.633
 9853TIP3   OH229501   0.081   1.237   6.683
 9853TIP3    H129502   0.033   1.294   6.623
 9853TIP3    H229503   0.080   1.151   6.641
 9854TIP3   OH229504   5.157   4.710   5.002
 9854TIP3    H129505   5.117   4.790   5.035
 9854TIP3    H229506   5.230   4.740   4.948
 9855TIP3   OH229507   2.101   6.239   3.902
 9855TIP3    H129508   2.028   6.269   3.956
 9855TIP3    H229509   2.076   6.259   3.812
 9856TIP3   OH229510   4.652   0.861   2.719
 9856TIP3    H129511   4.560   0.861   2.692
 9856TIP3    H229512   4.650   0.888   2.811
 9857TIP3   OH229513   6.587   1.465   3.121
 9857TIP3    H129514   6.508   1.517   3.135
 9857TIP3    H229515   6.602   1.471   3.026
 9858TIP3   OH229516   4.977   3.428   1.705
 9858TIP3    H129517   4.890   3.467   1.708
 9858TIP3    H229518   5.035   3.496   1.738
 9859TIP3   OH229519   7.435   6.928   0.329
 9859TIP3    H129520   7.494   7.003   0.333
 9859TIP3    H229521   7.410   6.922   0.237
 9860TIP3   OH229522   3.355   7.014   3.341
 9860TIP3    H129523   3.284   7.035   3.402
 9860TIP3    H229524   3.380   6.924   3.364
 9861TIP3   OH229525   4.574   3.430   1.363
 9861TIP3    H129526   4.563   3.513   1.410
 9861TIP3    H229527   4.574   3.364   1.432
 9862TIP3   OH229528   4.657   0.840   5.287
 9862TIP3    H129529   4.672   0.805   5.375
 9862TIP3    H229530   4.655   0.763   5.231
 9863TIP3   OH229531   1.960   2.488   3.154
 9863TIP3    H129532   1.991   2.402   3.128
 9863TIP3    H229533   2.003   2.549   3.094
 9864TIP3   OH229534   0.264   2.328   0.370
 9864TIP3    H129535   0.339   2.350   0.425
 9864TIP3    H229536   0.234   2.244   0.403
 9865TIP3   OH229537   8.144   0.294   0.086
 9865TIP3    H129538   8.167   0.375   0.131
 9865TIP3    H229539   8.095   0.322   0.009
 9866TIP3   OH229540   4.123   0.706   6.412
 9866TIP3    H129541   4.034   0.738   6.400
 9866TIP3    H229542   4.114   0.628   6.468
 9867TIP3   OH229543   7.960   1.612   3.302
 9867TIP3    H129544   7.891   1.586   3.364
 9867TIP3    H229545   7.987   1.530   3.260
 9868TIP3   OH229546   4.157   2.772   3.338
 9868TIP3    H129547   4.232   2.714   3.328
 9868TIP3    H229548   4.195   2.860   3.342
 9869TIP3   OH229549   1.586   0.773   1.375
 9869TIP3    H129550   1.502   0.820   1.382
 9869TIP3    H229551   1.605   0.745   1.464
 9870TIP3   OH229552   7.926   3.628   6.352
 9870TIP3    H129553   7.855   3.612   6.290
 9870TIP3    H229554   7.902   3.578   6.430
 9871TIP3   OH229555   8.243   0.552   5.396
 9871TIP3    H129556   8.307   0.570   5.326
 9871TIP3    H229557   8.201   0.636   5.412
 9872TIP3   OH229558   5.483   4.912   5.700
 9872TIP3    H129559   5.530   4.848   5.647
 9872TIP3    H229560   5.417   4.862   5.747
 9873TIP3   OH229561   7.471   2.663   5.705
 9873TIP3    H129562   7.404   2.688   5.641
 9873TIP3    H229563   7.423   2.655   5.787
 9874TIP3   OH229564   7.951   2.023   4.858
 9874TIP3    H129565   7.975   1.952   4.798
 9874TIP3    H229566   7.876   2.065   4.816
 9875TIP3   OH229567   2.061   7.465   6.588
 9875TIP3    H129568   2.084   7.460   6.495
 9875TIP3    H229569   2.145   7.458   6.634
 9876TIP3   OH229570   4.889   2.884   4.966
 9876TIP3    H129571   4.873   2.963   5.017
 9876TIP3    H229572   4.951   2.910   4.898
 9877TIP3   OH229573   6.063   2.905   0.777
 9877TIP3    H129574   6.069   2.978   0.838
 9877TIP3    H229575   6.152   2.892   0.746
 9878TIP3   OH229576   7.753   4.738   5.347
 9878TIP3    H129577   7.696   4.805   5.309
 9878TIP3    H229578   7.799   4.783   5.417
 9879TIP3   OH229579   6.707   6.899   6.650
 9879TIP3    H129580   6.645   6.970   6.632
 9879TIP3    H229581   6.693   6.878   6.742
 9880TIP3   OH229582   7.001   1.993   6.120
 9880TIP3    H129583   7.045   2.042   6.051
 9880TIP3    H229584   6.908   1.995   6.095
 9881TIP3   OH229585   5.569   4.889   0.859
 9881TIP3    H129586   5.590   4.942   0.783
 9881TIP3    H229587   5.553   4.801   0.824
 9882TIP3   OH229588   2.370   2.481   3.312
 9882TIP3    H129589   2.449   2.505   3.360
 9882TIP3    H229590   2.399   2.414   3.250
 9883TIP3   OH229591   2.236   5.803   0.960
 9883TIP3    H129592   2.225   5.709   0.951
 9883TIP3    H229593   2.209   5.838   0.875
 9884TIP3   OH229594   8.196   6.176   2.022
 9884TIP3    H129595   8.258   6.185   2.094
 9884TIP3    H229596   8.248   6.190   1.943
 9885TIP3   OH229597   4.748   4.999   6.009
 9885TIP3    H129598   4.743   4.917   6.058
 9885TIP3    H229599   4.807   5.054   6.061
 9886TIP3   OH229600   2.193   4.214   3.576
 9886TIP3    H129601   2.223   4.145   3.636
 9886TIP3    H229602   2.169   4.287   3.634
 9887TIP3   OH229603   2.018   7.157   1.306
 9887TIP3    H129604   2.055   7.226   1.251
 9887TIP3    H229605   1.928   7.147   1.274
 9888TIP3   OH229606   1.211   5.555  -0.043
 9888TIP3    H129607   1.125   5.522  -0.020
 9888TIP3    H229608   1.201   5.651  -0.043
 9889TIP3   OH229609   6.859   2.160   1.506
 9889TIP3    H129610   6.875   2.254   1.501
 9889TIP3    H229611   6.767   2.153   1.533
 9890TIP3   OH229612   1.881   2.685   1.096
 9890TIP3    H129613   1.871   2.689   1.191
 9890TIP3    H229614   1.806   2.633   1.066
 9891TIP3   OH229615   8.045   2.736   4.110
 9891TIP3    H129616   7.965   2.759   4.064
 9891TIP3    H229617   8.114   2.785   4.066
 9892TIP3   OH229618   6.135   7.074   4.971
 9892TIP3    H129619   6.124   7.081   4.877
 9892TIP3    H229620   6.211   7.016   4.983
 9893TIP3   OH229621   0.265   7.592   0.219
 9893TIP3    H129622   0.250   7.502   0.247
 9893TIP3    H229623   0.255   7.644   0.298
 9894TIP3   OH229624   0.049   7.335   4.734
 9894TIP3    H129625   0.038   7.362   4.642
 9894TIP3    H229626   0.026   7.242   4.734
 9895TIP3   OH229627   1.955   0.719   6.142
 9895TIP3    H129628   2.026   0.781   6.157
 9895TIP3    H229629   1.896   0.764   6.081
 9896TIP3   OH229630   1.582   0.004   5.074
 9896TIP3    H129631   1.602   0.048   4.991
 9896TIP3    H229632   1.563   0.076   5.135
 9897TIP3   OH229633   4.717   4.842   3.583
 9897TIP3    H129634   4.747   4.768   3.635
 9897TIP3    H229635   4.717   4.916   3.644
 9898TIP3   OH229636   7.982   2.709   2.762
 9898TIP3    H129637   7.982   2.803   2.780
 9898TIP3    H229638   8.040   2.672   2.829
 9899TIP3   OH229639   6.573   4.113   0.295
 9899TIP3    H129640   6.643   4.178   0.304
 9899TIP3    H229641   6.541   4.125   0.205
 9900TIP3   OH229642   5.949   2.167   3.101
 9900TIP3    H129643   5.914   2.105   3.166
 9900TIP3    H229644   5.891   2.157   3.026
 9901TIP3   OH229645   7.430   5.319   6.467
 9901TIP3    H129646   7.453   5.253   6.532
 9901TIP3    H229647   7.334   5.318   6.465
 9902TIP3   OH229648   0.734   7.107   1.268
 9902TIP3    H129649   0.744   7.201   1.282
 9902TIP3    H229650   0.640   7.091   1.280
 9903TIP3   OH229651   3.177   4.747   5.173
 9903TIP3    H129652   3.178   4.703   5.258
 9903TIP3    H229653   3.259   4.720   5.131
 9904TIP3   OH229654   4.873   3.164   4.737
 9904TIP3    H129655   4.844   3.204   4.655
 9904TIP3    H229656   4.916   3.235   4.785
 9905TIP3   OH229657   2.234   7.212   1.875
 9905TIP3    H129658   2.308   7.252   1.830
 9905TIP3    H229659   2.186   7.166   1.805
 9906TIP3   OH229660   6.775   0.817   3.146
 9906TIP3    H129661   6.737   0.731   3.165
 9906TIP3    H229662   6.730   0.877   3.206
 9907TIP3   OH229663   3.552   7.303   2.800
 9907TIP3    H129664   3.480   7.263   2.751
 9907TIP3    H229665   3.526   7.394   2.811
 9908TIP3   OH229666   5.840   3.479   2.179
 9908TIP3    H129667   5.803   3.487   2.091
 9908TIP3    H229668   5.890   3.560   2.191
 9909TIP3   OH229669   5.034   0.022   1.640
 9909TIP3    H129670   4.958   0.070   1.607
 9909TIP3    H229671   5.084   0.087   1.690
 9910TIP3   OH229672   3.413   6.748   5.220
 9910TIP3    H129673   3.507   6.762   5.231
 9910TIP3    H229674   3.407   6.675   5.158
 9911TIP3   OH229675   4.384   1.487   6.175
 9911TIP3    H129676   4.303   1.473   6.225
 9911TIP3    H229677   4.363   1.561   6.118
 9912TIP3   OH229678   6.984   1.148   0.875
 9912TIP3    H129679   7.031   1.229   0.858
 9912TIP3    H229680   6.948   1.159   0.962
 9913TIP3   OH229681   4.573   5.949   0.558
 9913TIP3    H129682   4.526   5.872   0.589
 9913TIP3    H229683   4.627   5.977   0.632
 9914TIP3   OH229684   2.761   2.508   5.005
 9914TIP3    H129685   2.677   2.481   4.966
 9914TIP3    H229686   2.773   2.599   4.977
 9915TIP3   OH229687   5.891   1.859   0.527
 9915TIP3    H129688   5.859   1.913   0.455
 9915TIP3    H229689   5.914   1.775   0.486
 9916TIP3   OH229690   0.990   2.027   5.188
 9916TIP3    H129691   1.078   1.997   5.169
 9916TIP3    H229692   0.990   2.120   5.163
 9917TIP3   OH229693   0.474   5.306   0.879
 9917TIP3    H129694   0.528   5.308   0.799
 9917TIP3    H229695   0.422   5.227   0.870
 9918TIP3   OH229696   0.922   7.217   1.062
 9918TIP3    H129697   0.841   7.172   1.086
 9918TIP3    H229698   0.902   7.310   1.075
 9919TIP3   OH229699   2.836   4.541   6.395
 9919TIP3    H129700   2.826   4.447   6.381
 9919TIP3    H229701   2.765   4.581   6.345
 9920TIP3   OH229702   3.813   1.729   5.329
 9920TIP3    H129703   3.774   1.705   5.245
 9920TIP3    H229704   3.742   1.719   5.392
 9921TIP3   OH229705   8.192   7.812   0.559
 9921TIP3    H129706   8.267   7.758   0.585
 9921TIP3    H229707   8.116   7.768   0.597
 9922TIP3   OH229708   5.373   3.297   5.152
 9922TIP3    H129709   5.315   3.372   5.166
 9922TIP3    H229710   5.457   3.324   5.189
 9923TIP3   OH229711   1.539   6.989   3.332
 9923TIP3    H129712   1.517   7.021   3.244
 9923TIP3    H229713   1.462   6.940   3.359
 9924TIP3   OH229714   6.361   1.242   1.683
 9924TIP3    H129715   6.400   1.173   1.737
 9924TIP3    H229716   6.433   1.302   1.666
 9925TIP3   OH229717   0.660   2.717   3.511
 9925TIP3    H129718   0.733   2.760   3.466
 9925TIP3    H229719   0.648   2.768   3.591
 9926TIP3   OH229720   6.428   4.906   2.055
 9926TIP3    H129721   6.520   4.897   2.080
 9926TIP3    H229722   6.386   4.945   2.131
 9927TIP3   OH229723   3.675   6.756   4.291
 9927TIP3    H129724   3.629   6.680   4.254
 9927TIP3    H229725   3.759   6.721   4.320
 9928TIP3   OH229726   0.194   6.108   5.755
 9928TIP3    H129727   0.177   6.136   5.845
 9928TIP3    H229728   0.264   6.166   5.725
 9929TIP3   OH229729   1.980   7.049   5.904
 9929TIP3    H129730   2.049   6.984   5.918
 9929TIP3    H229731   1.932   7.051   5.986
 9930TIP3   OH229732   2.645   3.778   4.638
 9930TIP3    H129733   2.679   3.858   4.597
 9930TIP3    H229734   2.632   3.802   4.730
 9931TIP3   OH229735   6.145   6.728   4.103
 9931TIP3    H129736   6.231   6.757   4.133
 9931TIP3    H229737   6.088   6.804   4.115
 9932TIP3   OH229738   6.584   2.544   5.212
 9932TIP3    H129739   6.488   2.544   5.213
 9932TIP3    H229740   6.608   2.455   5.186
 9933TIP3   OH229741   3.914   4.121   4.943
 9933TIP3    H129742   4.009   4.129   4.935
 9933TIP3    H229743   3.880   4.201   4.903
 9934TIP3   OH229744   6.887   3.476   0.670
 9934TIP3    H129745   6.838   3.530   0.608
 9934TIP3    H229746   6.957   3.437   0.619
 9935TIP3   OH229747   0.116   6.175   2.218
 9935TIP3    H129748   0.184   6.242   2.230
 9935TIP3    H229749   0.089   6.153   2.307
 9936TIP3   OH229750   3.168   1.361   3.762
 9936TIP3    H129751   3.164   1.455   3.750
 9936TIP3    H229752   3.077   1.332   3.763
 9937TIP3   OH229753   6.756   4.323   0.064
 9937TIP3    H129754   6.823   4.257   0.046
 9937TIP3    H229755   6.679   4.294   0.014
 9938TIP3   OH229756   1.076   6.045   3.961
 9938TIP3    H129757   1.158   6.013   3.998
 9938TIP3    H229758   1.031   6.087   4.034
 9939TIP3   OH229759   2.239   2.565   3.612
 9939TIP3    H129760   2.236   2.659   3.627
 9939TIP3    H229761   2.326   2.549   3.576
 9940TIP3   OH229762   2.605   3.907   0.577
 9940TIP3    H129763   2.604   3.981   0.517
 9940TIP3    H229764   2.698   3.888   0.590
 9941TIP3   OH229765   6.835   5.560   2.328
 9941TIP3    H129766   6.804   5.651   2.326
 9941TIP3    H229767   6.758   5.509   2.304
 9942TIP3   OH229768   0.496   6.244   3.308
 9942TIP3    H129769   0.587   6.225   3.287
 9942TIP3    H229770   0.447   6.218   3.231
 9943TIP3   OH229771   5.309   0.580   1.667
 9943TIP3    H129772   5.330   0.673   1.666
 9943TIP3    H229773   5.265   0.566   1.751
 9944TIP3   OH229774   7.825   4.125   4.419
 9944TIP3    H129775   7.841   4.047   4.366
 9944TIP3    H229776   7.877   4.111   4.498
 9945TIP3   OH229777   0.652   3.865   6.021
 9945TIP3    H129778   0.716   3.925   5.984
 9945TIP3    H229779   0.615   3.819   5.945
 9946TIP3   OH229780   6.350   3.516   1.856
 9946TIP3    H129781   6.379   3.430   1.827
 9946TIP3    H229782   6.255   3.510   1.861
 9947TIP3   OH229783   1.075   6.352   6.609
 9947TIP3    H129784   1.018   6.416   6.653
 9947TIP3    H229785   1.066   6.372   6.516
 9948TIP3   OH229786   6.927   7.749   2.728
 9948TIP3    H129787   6.950   7.760   2.821
 9948TIP3    H229788   6.832   7.760   2.725
 9949TIP3   OH229789   8.097   7.102   1.831
 9949TIP3    H129790   8.118   7.131   1.920
 9949TIP3    H229791   8.110   7.007   1.834
 9950TIP3   OH229792   4.062   7.634   2.131
 9950TIP3    H129793   4.146   7.590   2.125
 9950TIP3    H229794   4.006   7.589   2.068
 9951TIP3   OH229795   4.577   6.531   5.488
 9951TIP3    H129796   4.630   6.452   5.497
 9951TIP3    H229797   4.596   6.564   5.401
 9952TIP3   OH229798   2.936   1.743   2.637
 9952TIP3    H129799   2.936   1.807   2.708
 9952TIP3    H229800   2.880   1.781   2.570
 9953TIP3   OH229801   5.339   3.864   3.562
 9953TIP3    H129802   5.379   3.925   3.501
 9953TIP3    H229803   5.358   3.777   3.527
 9954TIP3   OH229804   7.277   6.102   0.801
 9954TIP3    H129805   7.261   6.083   0.708
 9954TIP3    H229806   7.205   6.059   0.847
 9955TIP3   OH229807   3.668   3.159   6.203
 9955TIP3    H129808   3.753   3.196   6.227
 9955TIP3    H229809   3.605   3.229   6.219
 9956TIP3   OH229810   4.377   2.049   1.794
 9956TIP3    H129811   4.401   2.046   1.887
 9956TIP3    H229812   4.325   2.130   1.786
 9957TIP3   OH229813   7.422   0.406   3.297
 9957TIP3    H129814   7.480   0.333   3.276
 9957TIP3    H229815   7.453   0.437   3.382
 9958TIP3   OH229816   6.116   0.271   4.027
 9958TIP3    H129817   6.090   0.354   3.985
 9958TIP3    H229818   6.211   0.274   4.030
 9959TIP3   OH229819   5.116   4.338   1.448
 9959TIP3    H129820   5.056   4.343   1.523
 9959TIP3    H229821   5.078   4.271   1.391
 9960TIP3   OH229822   4.206   0.820   5.754
 9960TIP3    H129823   4.287   0.785   5.718
 9960TIP3    H229824   4.139   0.802   5.688
 9961TIP3   OH229825   2.837   7.802   5.288
 9961TIP3    H129826   2.888   7.728   5.257
 9961TIP3    H229827   2.774   7.765   5.349
 9962TIP3   OH229828   5.578   4.190   2.074
 9962TIP3    H129829   5.549   4.226   1.990
 9962TIP3    H229830   5.665   4.155   2.056
 9963TIP3   OH229831   7.391   3.217   2.967
 9963TIP3    H129832   7.477   3.248   2.940
 9963TIP3    H229833   7.382   3.248   3.057
 9964TIP3   OH229834   6.734   0.349   4.784
 9964TIP3    H129835   6.738   0.359   4.879
 9964TIP3    H229836   6.701   0.260   4.770
 9965TIP3   OH229837   1.121   0.431   2.200
 9965TIP3    H129838   1.058   0.424   2.127
 9965TIP3    H229839   1.101   0.515   2.240
 9966TIP3   OH229840   6.546   4.210   1.770
 9966TIP3    H129841   6.491   4.288   1.770
 9966TIP3    H229842   6.596   4.215   1.852
 9967TIP3   OH229843   6.787   2.938   5.808
 9967TIP3    H129844   6.731   2.984   5.871
 9967TIP3    H229845   6.822   2.863   5.856
 9968TIP3   OH229846   2.475   7.734   1.466
 9968TIP3    H129847   2.527   7.681   1.526
 9968TIP3    H229848   2.403   7.768   1.519
 9969TIP3   OH229849   2.882   2.275   4.088
 9969TIP3    H129850   2.959   2.229   4.122
 9969TIP3    H229851   2.915   2.360   4.060
 9970TIP3   OH229852   4.336   7.542   2.200
 9970TIP3    H129853   4.384   7.531   2.282
 9970TIP3    H229854   4.402   7.529   2.131
 9971TIP3   OH229855   2.310   4.856   0.322
 9971TIP3    H129856   2.380   4.830   0.381
 9971TIP3    H229857   2.295   4.949   0.342
 9972TIP3   OH229858   6.061   6.468   1.025
 9972TIP3    H129859   6.085   6.423   0.944
 9972TIP3    H229860   6.090   6.558   1.012
 9973TIP3   OH229861   5.241   3.523   5.240
 9973TIP3    H129862   5.200   3.591   5.294
 9973TIP3    H229863   5.326   3.559   5.216
 9974TIP3   OH229864   6.737   4.953   4.159
 9974TIP3    H129865   6.765   4.862   4.150
 9974TIP3    H229866   6.691   4.973   4.078
 9975TIP3   OH229867   2.390   1.832   1.217
 9975TIP3    H129868   2.420   1.742   1.206
 9975TIP3    H229869   2.303   1.833   1.178
 9976TIP3   OH229870   5.847   2.665   4.722
 9976TIP3    H129871   5.910   2.706   4.782
 9976TIP3    H229872   5.844   2.574   4.748
 9977TIP3   OH229873   4.934   2.290   1.866
 9977TIP3    H129874   4.857   2.312   1.918
 9977TIP3    H229875   4.992   2.244   1.927
 9978TIP3   OH229876   3.132   5.144   5.005
 9978TIP3    H129877   3.042   5.174   4.987
 9978TIP3    H229878   3.145   5.166   5.098
 9979TIP3   OH229879   6.190   6.159   4.159
 9979TIP3    H129880   6.099   6.136   4.174
 9979TIP3    H229881   6.187   6.245   4.118
 9980TIP3   OH229882   6.066   4.541   4.481
 9980TIP3    H129883   6.021   4.608   4.431
 9980TIP3    H229884   6.083   4.471   4.418
 9981TIP3   OH229885   3.169   3.069   0.784
 9981TIP3    H129886   3.225   3.064   0.706
 9981TIP3    H229887   3.140   2.979   0.798
 9982TIP3   OH229888   7.263   2.999   4.604
 9982TIP3    H129889   7.190   3.059   4.615
 9982TIP3    H229890   7.329   3.050   4.557
 9983TIP3   OH229891   0.882   5.166   5.932
 9983TIP3    H129892   0.871   5.151   5.838
 9983TIP3    H229893   0.796   5.196   5.962
 9984TIP3   OH229894   0.347   2.276   4.454
 9984TIP3    H129895   0.364   2.215   4.525
 9984TIP3    H229896   0.282   2.337   4.490
 9985TIP3   OH229897   5.583   5.812   4.795
 9985TIP3    H129898   5.673   5.779   4.790
 9985TIP3    H229899   5.536   5.762   4.728
 9986TIP3   OH229900   6.317   3.489   4.552
 9986TIP3    H129901   6.338   3.541   4.630
 9986TIP3    H229902   6.222   3.501   4.541
 9987TIP3   OH229903   3.446   0.569   0.748
 9987TIP3    H129904   3.425   0.526   0.831
 9987TIP3    H229905   3.442   0.498   0.683
 9988TIP3   OH229906   3.969   3.790   6.101
 9988TIP3    H129907   3.936   3.829   6.021
 9988TIP3    H229908   4.058   3.763   6.080
 9989TIP3   OH229909   1.322   5.889   6.270
 9989TIP3    H129910   1.354   5.809   6.312
 9989TIP3    H229911   1.399   5.946   6.264
 9990TIP3   OH229912   1.835   5.682   5.010
 9990TIP3    H129913   1.810   5.628   4.935
 9990TIP3    H229914   1.815   5.772   4.983
 9991TIP3   OH229915   1.808   3.992   4.242
 9991TIP3    H129916   1.832   4.011   4.333
 9991TIP3    H229917   1.827   4.072   4.194
 9992TIP3   OH229918   4.250   3.440   6.621
 9992TIP3    H129919   4.232   3.495   6.545
 9992TIP3    H229920   4.343   3.418   6.613
 9993TIP3   OH229921   4.755   3.827   3.773
 9993TIP3    H129922   4.811   3.894   3.733
 9993TIP3    H229923   4.725   3.867   3.854
 9994TIP3   OH229924   1.437   6.453   1.147
 9994TIP3    H129925   1.360   6.397   1.140
 9994TIP3    H229926   1.508   6.395   1.174
 9995TIP3   OH229927   4.132   2.276   4.362
 9995TIP3    H129928   4.154   2.229   4.442
 9995TIP3    H229929   4.186   2.354   4.364
 9996TIP3   OH229930   0.810   4.024   2.407
 9996TIP3    H129931   0.784   4.054   2.319
 9996TIP3    H229932   0.754   4.073   2.466
 9997TIP3   OH229933   1.062   0.581   3.466
 9997TIP3    H129934   0.981   0.542   3.499
 9997TIP3    H229935   1.049   0.590   3.372
 9998TIP3   OH229936   7.147   2.465   0.331
 9998TIP3    H129937   7.061   2.441   0.297
 9998TIP3    H229938   7.133   2.479   0.425
 9999TIP3   OH229939   6.214   1.506   4.827
 9999TIP3    H129940   6.204   1.492   4.733
 9999TIP3    H229941   6.307   1.488   4.844
10000TIP3   OH229942   2.447   5.773   4.854
10000TIP3    H129943   2.461   5.855   4.902
10000TIP3    H229944   2.495   5.785   4.772
10001TIP3   OH229945   7.622   7.291   1.986
10001TIP3    H129946   7.676   7.323   1.914
10001TIP3    H229947   7.668   7.317   2.065
10002TIP3   OH229948   8.292   0.755   0.259
10002TIP3    H129949   8.209   0.753   0.212
10002TIP3    H229950   8.269   0.785   0.347
10003TIP3   OH229951   3.356   1.733   2.664
10003TIP3    H129952   3.368   1.798   2.594
10003TIP3    H229953   3.418   1.664   2.644
10004TIP3   OH229954   6.694   3.224   5.440
10004TIP3    H129955   6.738   3.175   5.370
10004TIP3    H229956   6.671   3.308   5.400
10005TIP3   OH229957   0.136   6.286   3.594
10005TIP3    H129958   0.115   6.271   3.502
10005TIP3    H229959   0.129   6.381   3.605
10006TIP3   OH229960   7.522   4.657   1.027
10006TIP3    H129961   7.503   4.613   1.109
10006TIP3    H229962   7.499   4.748   1.043
10007TIP3   OH229963   5.025   2.066   3.470
10007TIP3    H129964   4.946   2.030   3.430
10007TIP3    H229965   5.014   2.050   3.563
10008TIP3   OH229966   2.807   1.022   6.065
10008TIP3    H129967   2.859   0.998   5.989
10008TIP3    H229968   2.863   1.080   6.116
10009TIP3   OH229969   1.342   6.784   1.749
10009TIP3    H129970   1.380   6.697   1.737
10009TIP3    H229971   1.341   6.797   1.844
10010TIP3   OH229972   3.651   4.888   6.112
10010TIP3    H129973   3.673   4.981   6.116
10010TIP3    H229974   3.584   4.876   6.179
10011TIP3   OH229975   0.396   0.430   1.807
10011TIP3    H129976   0.356   0.427   1.894
10011TIP3    H229977   0.441   0.346   1.799
10012TIP3   OH229978   0.816   0.059   5.061
10012TIP3    H129979   0.820  -0.012   5.125
10012TIP3    H229980   0.725   0.062   5.033
10013TIP3   OH229981   6.936   3.244   4.128
10013TIP3    H129982   6.976   3.317   4.082
10013TIP3    H229983   6.917   3.277   4.215
10014TIP3   OH229984   6.103   1.170   4.550
10014TIP3    H129985   6.046   1.094   4.547
10014TIP3    H229986   6.099   1.201   4.640
10015TIP3   OH229987   0.800   0.496   2.137
10015TIP3    H129988   0.845   0.544   2.206
10015TIP3    H229989   0.734   0.556   2.103
10016TIP3   OH229990   6.367   6.358   3.186
10016TIP3    H129991   6.451   6.327   3.154
10016TIP3    H229992   6.375   6.354   3.282
10017TIP3   OH229993   3.515   5.000   1.930
10017TIP3    H129994   3.572   5.066   1.969
10017TIP3    H229995   3.478   5.043   1.853
10018TIP3   OH229996   0.773   4.034   5.169
10018TIP3    H129997   0.747   4.020   5.260
10018TIP3    H229998   0.715   3.977   5.119
10019TIP3   OH229999   4.648   6.827   0.341
10019TIP3    H130000   4.648   6.738   0.378
10019TIP3    H230001   4.717   6.825   0.274
10020TIP3   OH230002   4.891   1.172   4.375
10020TIP3    H130003   4.944   1.103   4.335
10020TIP3    H230004   4.804   1.163   4.337
10021TIP3   OH230005   2.972   3.510   1.910
10021TIP3    H130006   2.987   3.420   1.939
10021TIP3    H230007   2.879   3.512   1.885
10022TIP3   OH230008   5.117   4.160   0.285
10022TIP3    H130009   5.106   4.212   0.364
10022TIP3    H230010   5.205   4.123   0.292
10023TIP3   OH230011   3.642   7.181   3.032
10023TIP3    H130012   3.564   7.148   3.077
10023TIP3    H230013   3.609   7.211   2.947
10024TIP3   OH230014   6.111   7.021   3.861
10024TIP3    H130015   6.057   7.088   3.819
10024TIP3    H230016   6.187   7.069   3.895
10025TIP3   OH230017   1.512   2.428   2.433
10025TIP3    H130018   1.560   2.506   2.405
10025TIP3    H230019   1.482   2.448   2.521
10026TIP3   OH230020   0.451   6.969   3.205
10026TIP3    H130021   0.502   7.011   3.275
10026TIP3    H230022   0.412   6.892   3.246
10027TIP3   OH230023   7.772   6.190   0.028
10027TIP3    H130024   7.801   6.155  -0.056
10027TIP3    H230025   7.834   6.260   0.048
10028TIP3   OH230026   0.856   2.636   5.493
10028TIP3    H130027   0.932   2.684   5.528
10028TIP3    H230028   0.894   2.558   5.453
10029TIP3   OH230029   3.350   0.449   6.407
10029TIP3    H130030   3.254   0.451   6.401
10029TIP3    H230031   3.374   0.539   6.431
10030TIP3   OH230032   0.257   0.246   1.443
10030TIP3    H130033   0.202   0.264   1.367
10030TIP3    H230034   0.337   0.208   1.407
10031TIP3   OH230035   0.523   3.884   1.509
10031TIP3    H130036   0.453   3.887   1.443
10031TIP3    H230037   0.530   3.792   1.533
10032TIP3   OH230038   7.818   2.410   5.551
10032TIP3    H130039   7.825   2.489   5.605
10032TIP3    H230040   7.892   2.356   5.578
10033TIP3   OH230041   1.097   7.375   6.602
10033TIP3    H130042   1.168   7.312   6.612
10033TIP3    H230043   1.125   7.432   6.531
10034TIP3   OH230044   7.609   5.863   1.121
10034TIP3    H130045   7.658   5.809   1.058
10034TIP3    H230046   7.553   5.800   1.167
10035TIP3   OH230047   3.642   4.747   0.437
10035TIP3    H130048   3.584   4.743   0.513
10035TIP3    H230049   3.717   4.798   0.465
10036TIP3   OH230050   7.908   5.341   0.195
10036TIP3    H130051   7.962   5.414   0.224
10036TIP3    H230052   7.818   5.368   0.214
10037TIP3   OH230053   6.741   6.981   0.031
10037TIP3    H130054   6.649   7.005   0.043
10037TIP3    H230055   6.747   6.891   0.061
10038TIP3   OH230056   0.102   7.230   2.468
10038TIP3    H130057   0.017   7.256   2.434
10038TIP3    H230058   0.111   7.137   2.445
10039TIP3   OH230059   2.449   6.885   4.063
10039TIP3    H130060   2.469   6.841   3.980
10039TIP3    H230061   2.448   6.978   4.040
10040TIP3   OH230062   4.427   4.997   3.973
10040TIP3    H130063   4.424   5.075   3.918
10040TIP3    H230064   4.477   5.025   4.050
10041TIP3   OH230065   0.113   2.960   4.244
10041TIP3    H130066   0.173   2.885   4.248
10041TIP3    H230067   0.168   3.035   4.267
10042TIP3   OH230068   4.765   2.420   3.837
10042TIP3    H130069   4.678   2.413   3.797
10042TIP3    H230070   4.788   2.513   3.827
10043TIP3   OH230071   0.637   0.349   6.696
10043TIP3    H130072   0.667   0.279   6.754
10043TIP3    H230073   0.576   0.400   6.749
10044TIP3   OH230074   2.826   2.782   0.876
10044TIP3    H130075   2.910   2.828   0.880
10044TIP3    H230076   2.811   2.752   0.965
10045TIP3   OH230077   1.075   3.146   1.031
10045TIP3    H130078   1.122   3.120   0.952
10045TIP3    H230079   1.102   3.082   1.097
10046TIP3   OH230080   6.989   4.577   4.907
10046TIP3    H130081   7.001   4.664   4.945
10046TIP3    H230082   7.074   4.557   4.867
10047TIP3   OH230083   2.473   0.122   4.297
10047TIP3    H130084   2.401   0.079   4.341
10047TIP3    H230085   2.534   0.051   4.276
10048TIP3   OH230086   0.787   1.804   1.086
10048TIP3    H130087   0.879   1.815   1.108
10048TIP3    H230088   0.774   1.709   1.083
10049TIP3   OH230089   5.557   4.456   5.538
10049TIP3    H130090   5.524   4.399   5.469
10049TIP3    H230091   5.487   4.457   5.604
10050TIP3   OH230092   2.513   4.979  -0.014
10050TIP3    H130093   2.472   5.062   0.014
10050TIP3    H230094   2.606   4.992   0.004
10051TIP3   OH230095   6.320   6.145   4.693
10051TIP3    H130096   6.369   6.073   4.732
10051TIP3    H230097   6.387   6.200   4.653
10052TIP3   OH230098   0.677   3.012   2.067
10052TIP3    H130099   0.683   3.107   2.081
10052TIP3    H230100   0.765   2.980   2.089
10053TIP3   OH230101   7.854   2.092   2.679
10053TIP3    H130102   7.831   2.150   2.606
10053TIP3    H230103   7.950   2.095   2.682
10054TIP3   OH230104   5.749   5.976   0.867
10054TIP3    H130105   5.673   5.973   0.808
10054TIP3    H230106   5.751   5.890   0.908
10055TIP3   OH230107   8.007   2.215   6.414
10055TIP3    H130108   8.042   2.178   6.495
10055TIP3    H230109   8.085   2.241   6.364
10056TIP3   OH230110   7.425   0.613   6.718
10056TIP3    H130111   7.414   0.647   6.807
10056TIP3    H230112   7.505   0.655   6.686
10057TIP3   OH230113   4.424   6.688   5.849
10057TIP3    H130114   4.373   6.757   5.807
10057TIP3    H230115   4.438   6.719   5.938
10058TIP3   OH230116   3.290   7.469   3.984
10058TIP3    H130117   3.333   7.392   3.948
10058TIP3    H230118   3.301   7.460   4.079
10059TIP3   OH230119   5.062   7.028   3.509
10059TIP3    H130120   4.985   7.077   3.537
10059TIP3    H230121   5.135   7.071   3.553
10060TIP3   OH230122   5.069   1.064   5.560
10060TIP3    H130123   4.987   1.025   5.591
10060TIP3    H230124   5.051   1.158   5.558
10061TIP3   OH230125   4.076   1.144   0.822
10061TIP3    H130126   3.986   1.129   0.850
10061TIP3    H230127   4.125   1.068   0.856
10062TIP3   OH230128   1.241   5.686   2.913
10062TIP3    H130129   1.183   5.613   2.892
10062TIP3    H230130   1.328   5.647   2.919
10063TIP3   OH230131   7.834   7.316   6.583
10063TIP3    H130132   7.746   7.352   6.577
10063TIP3    H230133   7.859   7.326   6.675
10064TIP3   OH230134   4.815   3.888   4.133
10064TIP3    H130135   4.870   3.863   4.059
10064TIP3    H230136   4.726   3.892   4.097
10065TIP3   OH230137   0.934   6.126   0.180
10065TIP3    H130138   0.858   6.067   0.177
10065TIP3    H230139   0.943   6.149   0.272
10066TIP3   OH230140   0.265   3.633   5.445
10066TIP3    H130141   0.331   3.567   5.460
10066TIP3    H230142   0.187   3.600   5.490
10067TIP3   OH230143   5.234   7.253   3.711
10067TIP3    H130144   5.182   7.333   3.698
10067TIP3    H230145   5.218   7.229   3.802
10068TIP3   OH230146   0.167   3.691   3.001
10068TIP3    H130147   0.262   3.698   3.007
10068TIP3    H230148   0.149   3.676   2.909
10069TIP3   OH230149   4.811   5.578   6.656
10069TIP3    H130150   4.888   5.621   6.619
10069TIP3    H230151   4.791   5.507   6.595
10070TIP3   OH230152   7.003   3.129   2.318
10070TIP3    H130153   6.967   3.140   2.230
10070TIP3    H230154   6.936   3.080   2.366
10071TIP3   OH230155   1.441   4.193   5.474
10071TIP3    H130156   1.355   4.198   5.517
10071TIP3    H230157   1.473   4.106   5.495
10072TIP3   OH230158   6.291   7.388   0.575
10072TIP3    H130159   6.301   7.441   0.495
10072TIP3    H230160   6.335   7.440   0.643
10073TIP3   OH230161   2.395   5.684   0.643
10073TIP3    H130162   2.340   5.612   0.675
10073TIP3    H230163   2.483   5.663   0.674
10074TIP3   OH230164   3.411   2.820   4.897
10074TIP3    H130165   3.347   2.883   4.930
10074TIP3    H230166   3.359   2.751   4.856
10075TIP3   OH230167   0.814   6.805   3.267
10075TIP3    H130168   0.773   6.753   3.199
10075TIP3    H230169   0.826   6.745   3.340
10076TIP3   OH230170   7.361   6.402   0.811
10076TIP3    H130171   7.327   6.338   0.875
10076TIP3    H230172   7.367   6.353   0.729
10077TIP3   OH230173   6.875   0.160   1.054
10077TIP3    H130174   6.947   0.187   0.997
10077TIP3    H230175   6.899   0.193   1.140
10078TIP3   OH230176   1.342   6.273   3.701
10078TIP3    H130177   1.423   6.320   3.720
10078TIP3    H230178   1.368   6.181   3.694
10079TIP3   OH230179   7.608   4.411   4.652
10079TIP3    H130180   7.550   4.335   4.660
10079TIP3    H230181   7.617   4.424   4.558
10080TIP3   OH230182   0.214   7.073   5.199
10080TIP3    H130183   0.146   7.124   5.245
10080TIP3    H230184   0.175   7.054   5.114
10081TIP3   OH230185   7.569   2.472   4.631
10081TIP3    H130186   7.541   2.416   4.559
10081TIP3    H230187   7.488   2.515   4.660
10082TIP3   OH230188   2.510   4.572   2.231
10082TIP3    H130189   2.488   4.493   2.281
10082TIP3    H230190   2.437   4.632   2.247
10083TIP3   OH230191   0.535   7.076   3.434
10083TIP3    H130192   0.595   7.016   3.478
10083TIP3    H230193   0.464   7.090   3.497
10084TIP3   OH230194   4.465   5.781   6.029
10084TIP3    H130195   4.473   5.717   5.958
10084TIP3    H230196   4.553   5.817   6.038
10085TIP3   OH230197   5.435   2.820   5.458
10085TIP3    H130198   5.460   2.889   5.397
10085TIP3    H230199   5.339   2.818   5.453
10086TIP3   OH230200   2.399   3.457   1.399
10086TIP3    H130201   2.419   3.373   1.358
10086TIP3    H230202   2.305   3.469   1.385
10087TIP3   OH230203   6.855   0.368   5.380
10087TIP3    H130204   6.775   0.320   5.362
10087TIP3    H230205   6.922   0.300   5.392
10088TIP3   OH230206   5.178   3.775   5.368
10088TIP3    H130207   5.227   3.850   5.400
10088TIP3    H230208   5.171   3.790   5.274
10089TIP3   OH230209   5.800   3.132   2.147
10089TIP3    H130210   5.767   3.198   2.209
10089TIP3    H230211   5.722   3.104   2.100
10090TIP3   OH230212   7.183   7.138   5.215
10090TIP3    H130213   7.217   7.161   5.302
10090TIP3    H230214   7.137   7.055   5.229
10091TIP3   OH230215   5.492   7.699   5.842
10091TIP3    H130216   5.564   7.756   5.869
10091TIP3    H230217   5.474   7.644   5.918
10092TIP3   OH230218   5.949   4.905   2.050
10092TIP3    H130219   6.005   4.828   2.055
10092TIP3    H230220   5.868   4.874   2.008
10093TIP3   OH230221   2.507   1.958   5.064
10093TIP3    H130222   2.441   2.000   5.119
10093TIP3    H230223   2.574   2.025   5.052
10094TIP3   OH230224   3.415   6.223   0.868
10094TIP3    H130225   3.448   6.166   0.938
10094TIP3    H230226   3.418   6.311   0.907
10095TIP3   OH230227   5.132   7.507   6.478
10095TIP3    H130228   5.051   7.463   6.452
10095TIP3    H230229   5.175   7.528   6.395
10096TIP3   OH230230   1.227   3.837   4.733
10096TIP3    H130231   1.139   3.802   4.717
10096TIP3    H230232   1.278   3.810   4.657
10097TIP3   OH230233   4.636   1.926   0.845
10097TIP3    H130234   4.593   1.980   0.779
10097TIP3    H230235   4.615   1.968   0.928
10098TIP3   OH230236   2.435   5.746   5.947
10098TIP3    H130237   2.414   5.773   6.036
10098TIP3    H230238   2.356   5.766   5.897
10099TIP3   OH230239   1.429   3.827   6.561
10099TIP3    H130240   1.349   3.799   6.606
10099TIP3    H230241   1.500   3.783   6.607
10100TIP3   OH230242   3.153   3.075   2.497
10100TIP3    H130243   3.182   3.132   2.425
10100TIP3    H230244   3.234   3.041   2.535
10101TIP3   OH230245   4.831   4.481   5.218
10101TIP3    H130246   4.830   4.562   5.168
10101TIP3    H230247   4.918   4.477   5.258
10102TIP3   OH230248   2.603   7.052   2.051
10102TIP3    H130249   2.558   6.973   2.081
10102TIP3    H230250   2.593   7.050   1.956
10103TIP3   OH230251   3.338   2.865   0.167
10103TIP3    H130252   3.318   2.771   0.168
10103TIP3    H230253   3.280   2.902   0.102
10104TIP3   OH230254   4.587   0.879   4.196
10104TIP3    H130255   4.656   0.934   4.159
10104TIP3    H230256   4.585   0.902   4.289
10105TIP3   OH230257   3.779   5.278   5.062
10105TIP3    H130258   3.771   5.275   4.966
10105TIP3    H230259   3.688   5.271   5.093
10106TIP3   OH230260   1.555   7.805   1.003
10106TIP3    H130261   1.579   7.752   1.078
10106TIP3    H230262   1.499   7.749   0.950
10107TIP3   OH230263   2.594   1.924   0.625
10107TIP3    H130264   2.687   1.917   0.646
10107TIP3    H230265   2.551   1.926   0.711
10108TIP3   OH230266   2.700   1.598   3.154
10108TIP3    H130267   2.746   1.514   3.164
10108TIP3    H230268   2.675   1.621   3.244
10109TIP3   OH230269   0.307   1.567   3.737
10109TIP3    H130270   0.296   1.525   3.652
10109TIP3    H230271   0.378   1.518   3.779
10110TIP3   OH230272   8.192   2.986   5.551
10110TIP3    H130273   8.138   3.004   5.628
10110TIP3    H230274   8.142   3.025   5.478
10111TIP3   OH230275   6.595   1.172   4.024
10111TIP3    H130276   6.610   1.222   3.944
10111TIP3    H230277   6.630   1.227   4.094
10112TIP3   OH230278   3.356   2.085   1.626
10112TIP3    H130279   3.303   2.080   1.547
10112TIP3    H230280   3.376   1.994   1.647
10113TIP3   OH230281   6.413   3.861   5.684
10113TIP3    H130282   6.479   3.836   5.620
10113TIP3    H230283   6.432   3.808   5.761
10114TIP3   OH230284   5.805   6.051   6.414
10114TIP3    H130285   5.742   6.057   6.343
10114TIP3    H230286   5.755   6.019   6.489
10115TIP3   OH230287   7.893   7.381   3.802
10115TIP3    H130288   7.969   7.403   3.748
10115TIP3    H230289   7.924   7.390   3.892
10116TIP3   OH230290   7.608   3.322   5.434
10116TIP3    H130291   7.545   3.290   5.498
10116TIP3    H230292   7.635   3.408   5.467
10117TIP3   OH230293   1.659   7.234   0.848
10117TIP3    H130294   1.649   7.216   0.941
10117TIP3    H230295   1.665   7.147   0.807
10118TIP3   OH230296   4.235   1.247   5.199
10118TIP3    H130297   4.278   1.329   5.222
10118TIP3    H230298   4.288   1.179   5.242
10119TIP3   OH230299   1.846   2.739   2.658
10119TIP3    H130300   1.941   2.740   2.668
10119TIP3    H230301   1.827   2.814   2.601
10120TIP3   OH230302   1.825   2.915   6.015
10120TIP3    H130303   1.836   2.943   6.106
10120TIP3    H230304   1.766   2.980   5.977
10121TIP3   OH230305   7.364   1.341   6.116
10121TIP3    H130306   7.295   1.375   6.059
10121TIP3    H230307   7.378   1.252   6.086
10122TIP3   OH230308   3.306   2.990   2.915
10122TIP3    H130309   3.293   2.922   2.849
10122TIP3    H230310   3.234   3.052   2.900
10123TIP3   OH230311   5.511   1.591   4.924
10123TIP3    H130312   5.552   1.538   4.993
10123TIP3    H230313   5.520   1.538   4.845
10124TIP3   OH230314   3.093   4.876   5.563
10124TIP3    H130315   3.179   4.901   5.597
10124TIP3    H230316   3.049   4.834   5.636
10125TIP3   OH230317   5.309   3.350   5.480
10125TIP3    H130318   5.339   3.422   5.425
10125TIP3    H230319   5.302   3.276   5.419
10126TIP3   OH230320  -0.036   2.697   6.111
10126TIP3    H130321   0.020   2.768   6.080
10126TIP3    H230322   0.023   2.623   6.120
10127TIP3   OH230323   5.708   4.408   2.319
10127TIP3    H130324   5.660   4.335   2.280
10127TIP3    H230325   5.654   4.485   2.302
10128TIP3   OH230326   4.325   6.189   5.876
10128TIP3    H130327   4.278   6.229   5.803
10128TIP3    H230328   4.282   6.223   5.954
10129TIP3   OH230329   3.024   2.147   4.346
10129TIP3    H130330   3.082   2.095   4.401
10129TIP3    H230331   2.998   2.088   4.276
10130TIP3   OH230332   6.100   0.566   6.637
10130TIP3    H130333   6.017   0.521   6.622
10130TIP3    H230334   6.082   0.657   6.610
10131TIP3   OH230335   4.162   1.728   0.518
10131TIP3    H130336   4.135   1.764   0.434
10131TIP3    H230337   4.087   1.745   0.576
10132TIP3   OH230338   8.088   5.114   2.044
10132TIP3    H130339   8.047   5.030   2.021
10132TIP3    H230340   8.019   5.179   2.028
10133TIP3   OH230341   6.515   3.507   3.834
10133TIP3    H130342   6.584   3.458   3.879
10133TIP3    H230343   6.452   3.530   3.902
10134TIP3   OH230344   7.853   5.305   5.684
10134TIP3    H130345   7.901   5.326   5.605
10134TIP3    H230346   7.817   5.388   5.714
10135TIP3   OH230347   6.001   6.852   4.646
10135TIP3    H130348   5.976   6.850   4.738
10135TIP3    H230349   5.925   6.817   4.599
10136TIP3   OH230350   1.277   7.447   4.624
10136TIP3    H130351   1.361   7.432   4.668
10136TIP3    H230352   1.236   7.517   4.675
10137TIP3   OH230353   1.619   4.538   5.271
10137TIP3    H130354   1.673   4.469   5.310
10137TIP3    H230355   1.545   4.546   5.332
10138TIP3   OH230356   1.254   3.700   5.559
10138TIP3    H130357   1.271   3.734   5.647
10138TIP3    H230358   1.283   3.770   5.501
10139TIP3   OH230359   2.678   0.572   0.337
10139TIP3    H130360   2.754   0.535   0.294
10139TIP3    H230361   2.713   0.642   0.392
10140TIP3   OH230362   7.129   7.348   2.986
10140TIP3    H130363   7.184   7.271   2.972
10140TIP3    H230364   7.179   7.421   2.950
10141TIP3   OH230365   6.677   0.326   3.155
10141TIP3    H130366   6.642   0.269   3.224
10141TIP3    H230367   6.651   0.284   3.073
10142TIP3   OH230368   5.133   3.785   0.236
10142TIP3    H130369   5.227   3.793   0.250
10142TIP3    H230370   5.112   3.855   0.174
10143TIP3   OH230371   1.682   5.084   6.283
10143TIP3    H130372   1.592   5.070   6.312
10143TIP3    H230373   1.727   5.002   6.303
10144TIP3   OH230374   6.953   3.504   2.619
10144TIP3    H130375   6.905   3.422   2.627
10144TIP3    H230376   7.004   3.494   2.539
10145TIP3   OH230377   0.925   7.312   3.771
10145TIP3    H130378   0.915   7.367   3.849
10145TIP3    H230379   0.989   7.246   3.797
10146TIP3   OH230380   5.476   4.001   1.191
10146TIP3    H130381   5.511   4.038   1.272
10146TIP3    H230382   5.406   3.942   1.218
10147TIP3   OH230383   6.805   3.426   0.936
10147TIP3    H130384   6.811   3.368   0.861
10147TIP3    H230385   6.896   3.444   0.960
10148TIP3   OH230386   6.495   1.934   5.654
10148TIP3    H130387   6.474   2.008   5.710
10148TIP3    H230388   6.502   1.972   5.566
10149TIP3   OH230389   0.185   1.329   5.752
10149TIP3    H130390   0.154   1.353   5.840
10149TIP3    H230391   0.271   1.288   5.767
10150TIP3   OH230392   3.529   2.506   6.715
10150TIP3    H130393   3.542   2.471   6.627
10150TIP3    H230394   3.573   2.444   6.772
10151TIP3   OH230395   7.832   5.189   2.275
10151TIP3    H130396   7.868   5.278   2.274
10151TIP3    H230397   7.799   5.178   2.365
10152TIP3   OH230398   2.897   5.324   4.706
10152TIP3    H130399   2.812   5.316   4.750
10152TIP3    H230400   2.940   5.240   4.724
10153TIP3   OH230401   6.351   2.841   3.570
10153TIP3    H130402   6.306   2.840   3.654
10153TIP3    H230403   6.408   2.918   3.575
10154TIP3   OH230404   2.299   3.551   1.881
10154TIP3    H130405   2.211   3.520   1.858
10154TIP3    H230406   2.355   3.520   1.810
10155TIP3   OH230407   6.288   6.842   5.337
10155TIP3    H130408   6.371   6.795   5.343
10155TIP3    H230409   6.294   6.890   5.254
10156TIP3   OH230410   2.922   1.546   4.293
10156TIP3    H130411   2.995   1.598   4.259
10156TIP3    H230412   2.879   1.604   4.357
10157TIP3   OH230413   7.503   6.653   0.095
10157TIP3    H130414   7.444   6.645   0.169
10157TIP3    H230415   7.531   6.564   0.076
10158TIP3   OH230416   7.378   1.121   6.707
10158TIP3    H130417   7.460   1.144   6.664
10158TIP3    H230418   7.387   1.155   6.796
10159TIP3   OH230419   5.995   2.160   2.211
10159TIP3    H130420   5.924   2.212   2.176
10159TIP3    H230421   6.072   2.216   2.205
10160TIP3   OH230422   4.785   7.324   3.437
10160TIP3    H130423   4.763   7.387   3.368
10160TIP3    H230424   4.781   7.239   3.394
10161TIP3   OH230425   8.273   3.815   3.157
10161TIP3    H130426   8.342   3.765   3.113
10161TIP3    H230427   8.315   3.897   3.182
10162TIP3   OH230428   0.848   7.471   0.454
10162TIP3    H130429   0.913   7.411   0.490
10162TIP3    H230430   0.855   7.550   0.509
10163TIP3   OH230431   2.446   4.534   0.457
10163TIP3    H130432   2.364   4.536   0.409
10163TIP3    H230433   2.459   4.624   0.486
10164TIP3   OH230434   5.269   6.440   0.606
10164TIP3    H130435   5.184   6.474   0.579
10164TIP3    H230436   5.326   6.454   0.530
10165TIP3   OH230437   0.375   4.629   1.435
10165TIP3    H130438   0.318   4.552   1.432
10165TIP3    H230439   0.356   4.677   1.355
10166TIP3   OH230440   1.827   2.008   2.569
10166TIP3    H130441   1.751   2.066   2.574
10166TIP3    H230442   1.796   1.925   2.604
10167TIP3   OH230443   4.688   1.304   2.642
10167TIP3    H130444   4.739   1.336   2.568
10167TIP3    H230445   4.609   1.358   2.642
10168TIP3   OH230446   3.862   1.015   5.783
10168TIP3    H130447   3.868   0.920   5.781
10168TIP3    H230448   3.904   1.044   5.701
10169TIP3   OH230449   5.158   4.333   2.628
10169TIP3    H130450   5.137   4.247   2.665
10169TIP3    H230451   5.077   4.383   2.636
10170TIP3   OH230452   6.395   2.047   5.105
10170TIP3    H130453   6.323   1.985   5.114
10170TIP3    H230454   6.404   2.059   5.010
10171TIP3   OH230455   4.102   5.794   5.438
10171TIP3    H130456   4.109   5.887   5.413
10171TIP3    H230457   4.085   5.797   5.533
10172TIP3   OH230458   2.351   2.400   0.593
10172TIP3    H130459   2.282   2.349   0.551
10172TIP3    H230460   2.395   2.338   0.651
10173TIP3   OH230461   7.667   0.826   4.629
10173TIP3    H130462   7.726   0.882   4.578
10173TIP3    H230463   7.679   0.739   4.592
10174TIP3   OH230464   1.294   0.158   0.370
10174TIP3    H130465   1.291   0.245   0.409
10174TIP3    H230466   1.360   0.165   0.301
10175TIP3   OH230467   3.874   3.694   3.289
10175TIP3    H130468   3.950   3.749   3.306
10175TIP3    H230469   3.909   3.604   3.288
10176TIP3   OH230470   0.645   6.138   3.064
10176TIP3    H130471   0.725   6.167   3.107
10176TIP3    H230472   0.656   6.043   3.054
10177TIP3   OH230473   2.067   5.747   6.537
10177TIP3    H130474   1.991   5.800   6.513
10177TIP3    H230475   2.036   5.657   6.531
10178TIP3   OH230476   3.118   3.418   3.003
10178TIP3    H130477   3.068   3.340   2.980
10178TIP3    H230478   3.206   3.402   2.967
10179TIP3   OH230479   1.335   0.932   2.027
10179TIP3    H130480   1.317   1.003   1.966
10179TIP3    H230481   1.409   0.963   2.079
10180TIP3   OH230482   5.534   5.818   3.171
10180TIP3    H130483   5.539   5.860   3.257
10180TIP3    H230484   5.459   5.859   3.129
10181TIP3   OH230485   7.303   4.127   2.597
10181TIP3    H130486   7.242   4.132   2.671
10181TIP3    H230487   7.247   4.111   2.521
10182TIP3   OH230488   8.014   0.604   3.791
10182TIP3    H130489   7.989   0.516   3.821
10182TIP3    H230490   8.019   0.656   3.871
10183TIP3   OH230491   4.894   2.763   5.826
10183TIP3    H130492   4.876   2.670   5.842
10183TIP3    H230493   4.924   2.766   5.736
10184TIP3   OH230494   6.716   0.253   0.857
10184TIP3    H130495   6.632   0.267   0.902
10184TIP3    H230496   6.777   0.231   0.927
10185TIP3   OH230497   4.983   0.198   3.159
10185TIP3    H130498   4.936   0.119   3.134
10185TIP3    H230499   4.914   0.258   3.188
10186TIP3   OH230500   2.939   3.923   5.876
10186TIP3    H130501   3.033   3.922   5.856
10186TIP3    H230502   2.897   3.934   5.791
10187TIP3   OH230503   2.171   1.686   1.375
10187TIP3    H130504   2.218   1.702   1.456
10187TIP3    H230505   2.238   1.693   1.307
10188TIP3   OH230506   3.238   4.462   3.747
10188TIP3    H130507   3.222   4.396   3.678
10188TIP3    H230508   3.174   4.441   3.815
10189TIP3   OH230509   1.080   4.496   1.164
10189TIP3    H130510   1.163   4.451   1.149
10189TIP3    H230511   1.104   4.588   1.176
10190TIP3   OH230512   2.977   4.062   3.936
10190TIP3    H130513   2.972   3.987   3.877
10190TIP3    H230514   2.888   4.073   3.969
10191TIP3   OH230515   1.734   7.656   6.681
10191TIP3    H130516   1.677   7.693   6.748
10191TIP3    H230517   1.813   7.710   6.683
10192TIP3   OH230518   6.994   0.315   4.272
10192TIP3    H130519   7.044   0.325   4.353
10192TIP3    H230520   6.940   0.237   4.287
10193TIP3   OH230521   7.086   2.384   3.792
10193TIP3    H130522   7.003   2.371   3.746
10193TIP3    H230523   7.061   2.428   3.873
10194TIP3   OH230524   5.671   3.699   2.939
10194TIP3    H130525   5.759   3.666   2.919
10194TIP3    H230526   5.678   3.794   2.927
10195TIP3   OH230527   6.010   2.212   1.126
10195TIP3    H130528   6.026   2.281   1.189
10195TIP3    H230529   6.053   2.135   1.163
10196TIP3   OH230530   7.228   3.592   3.641
10196TIP3    H130531   7.232   3.498   3.654
10196TIP3    H230532   7.205   3.628   3.727
10197TIP3   OH230533   4.933   0.445   1.502
10197TIP3    H130534   4.896   0.466   1.588
10197TIP3    H230535   4.858   0.414   1.451
10198TIP3   OH230536   5.398   2.218   6.712
10198TIP3    H130537   5.404   2.167   6.631
10198TIP3    H230538   5.348   2.296   6.686
10199TIP3   OH230539   7.957   1.299   5.134
10199TIP3    H130540   7.989   1.387   5.115
10199TIP3    H230541   8.036   1.247   5.146
10200TIP3   OH230542   7.177   5.448   2.687
10200TIP3    H130543   7.195   5.495   2.606
10200TIP3    H230544   7.245   5.478   2.747
10201TIP3   OH230545   3.713   1.032   0.010
10201TIP3    H130546   3.628   1.073   0.028
10201TIP3    H230547   3.756   1.092  -0.051
10202TIP3   OH230548   3.143   4.099   4.146
10202TIP3    H130549   3.177   4.016   4.180
10202TIP3    H230550   3.085   4.074   4.074
10203TIP3   OH230551   7.361   5.664   2.776
10203TIP3    H130552   7.407   5.672   2.860
10203TIP3    H230553   7.304   5.741   2.773
10204TIP3   OH230554   0.405   1.353   5.298
10204TIP3    H130555   0.374   1.392   5.379
10204TIP3    H230556   0.454   1.276   5.326
10205TIP3   OH230557   1.458   6.315   4.680
10205TIP3    H130558   1.454   6.373   4.757
10205TIP3    H230559   1.545   6.328   4.644
10206TIP3   OH230560   5.705   6.539   5.553
10206TIP3    H130561   5.784   6.499   5.518
10206TIP3    H230562   5.654   6.466   5.587
10207TIP3   OH230563   1.082   1.707   5.269
10207TIP3    H130564   1.141   1.749   5.207
10207TIP3    H230565   1.040   1.637   5.219
10208TIP3   OH230566   3.135   7.732   3.544
10208TIP3    H130567   3.158   7.699   3.631
10208TIP3    H230568   3.095   7.656   3.500
10209TIP3   OH230569   2.685   5.006   0.750
10209TIP3    H130570   2.630   4.941   0.707
10209TIP3    H230571   2.752   5.028   0.685
10210TIP3   OH230572   8.213   4.471   4.104
10210TIP3    H130573   8.202   4.388   4.057
10210TIP3    H230574   8.127   4.513   4.098
10211TIP3   OH230575   1.100   2.672   4.318
10211TIP3    H130576   1.178   2.684   4.372
10211TIP3    H230577   1.029   2.710   4.370
10212TIP3   OH230578   5.018   5.174   2.638
10212TIP3    H130579   5.104   5.188   2.678
10212TIP3    H230580   5.034   5.110   2.569
10213TIP3   OH230581   2.040   2.025   0.658
10213TIP3    H130582   1.969   1.990   0.605
10213TIP3    H230583   2.119   1.984   0.623
10214TIP3   OH230584   0.986   4.088   6.109
10214TIP3    H130585   1.008   3.998   6.085
10214TIP3    H230586   1.070   4.134   6.108
10215TIP3   OH230587   5.852   0.384   2.197
10215TIP3    H130588   5.901   0.413   2.274
10215TIP3    H230589   5.877   0.445   2.128
10216TIP3   OH230590   2.900   1.258   2.237
10216TIP3    H130591   2.813   1.271   2.275
10216TIP3    H230592   2.960   1.268   2.310
10217TIP3   OH230593   2.881   0.866   6.583
10217TIP3    H130594   2.975   0.879   6.596
10217TIP3    H230595   2.840   0.904   6.660
10218TIP3   OH230596   2.674   2.195   5.049
10218TIP3    H130597   2.618   2.249   5.105
10218TIP3    H230598   2.754   2.182   5.100
10219TIP3   OH230599   1.058   1.027   3.063
10219TIP3    H130600   1.067   0.947   3.011
10219TIP3    H230601   1.142   1.071   3.056
10220TIP3   OH230602   7.460   5.854   0.372
10220TIP3    H130603   7.522   5.865   0.300
10220TIP3    H230604   7.380   5.822   0.331
10221TIP3   OH230605   1.001   0.236   0.396
10221TIP3    H130606   1.040   0.194   0.472
10221TIP3    H230607   1.039   0.191   0.321
10222TIP3   OH230608   3.812   2.148   1.208
10222TIP3    H130609   3.731   2.189   1.237
10222TIP3    H230610   3.804   2.057   1.237
10223TIP3   OH230611   2.987   5.036   1.452
10223TIP3    H130612   3.038   4.965   1.493
10223TIP3    H230613   2.951   5.085   1.526
10224TIP3   OH230614   5.464   3.263   4.510
10224TIP3    H130615   5.443   3.342   4.559
10224TIP3    H230616   5.433   3.282   4.421
10225TIP3   OH230617   6.739   6.557   4.453
10225TIP3    H130618   6.766   6.578   4.542
10225TIP3    H230619   6.746   6.462   4.446
10226TIP3   OH230620   6.983   4.304   4.568
10226TIP3    H130621   6.988   4.338   4.478
10226TIP3    H230622   6.919   4.234   4.563
10227TIP3   OH230623   0.256   4.171   5.671
10227TIP3    H130624   0.199   4.246   5.683
10227TIP3    H230625   0.268   4.136   5.759
10228TIP3   OH230626   4.983   5.828   3.837
10228TIP3    H130627   5.033   5.765   3.784
10228TIP3    H230628   4.972   5.904   3.779
10229TIP3   OH230629   4.873   3.022   2.816
10229TIP3    H130630   4.781   2.996   2.807
10229TIP3    H230631   4.885   3.090   2.750
10230TIP3   OH230632   4.454   3.427   0.608
10230TIP3    H130633   4.490   3.410   0.521
10230TIP3    H230634   4.370   3.470   0.591
10231TIP3   OH230635   6.207   5.950   0.296
10231TIP3    H130636   6.237   6.023   0.349
10231TIP3    H230637   6.283   5.925   0.243
10232TIP3   OH230638   1.567   6.213   2.914
10232TIP3    H130639   1.502   6.267   2.871
10232TIP3    H230640   1.548   6.219   3.007
10233TIP3   OH230641   5.740   5.620   4.001
10233TIP3    H130642   5.750   5.535   3.958
10233TIP3    H230643   5.828   5.642   4.031
10234TIP3   OH230644   3.127   0.855   0.038
10234TIP3    H130645   3.088   0.775   0.073
10234TIP3    H230646   3.220   0.849   0.061
10235TIP3   OH230647   1.589   2.920   0.352
10235TIP3    H130648   1.658   2.987   0.344
10235TIP3    H230649   1.618   2.864   0.424
10236TIP3   OH230650   1.493   0.194   3.625
10236TIP3    H130651   1.447   0.138   3.563
10236TIP3    H230652   1.475   0.156   3.711
10237TIP3   OH230653   7.548   1.731   4.198
10237TIP3    H130654   7.615   1.670   4.166
10237TIP3    H230655   7.596   1.796   4.247
10238TIP3   OH230656   2.855   2.878   0.632
10238TIP3    H130657   2.798   2.843   0.565
10238TIP3    H230658   2.810   2.858   0.715
10239TIP3   OH230659   7.485   0.317   1.261
10239TIP3    H130660   7.481   0.394   1.205
10239TIP3    H230661   7.569   0.277   1.242
10240TIP3   OH230662   7.517   4.711   3.342
10240TIP3    H130663   7.488   4.782   3.399
10240TIP3    H230664   7.446   4.701   3.278
10241TIP3   OH230665   2.768   1.383   3.940
10241TIP3    H130666   2.718   1.356   3.863
10241TIP3    H230667   2.813   1.463   3.913
10242TIP3   OH230668   2.422   0.589   1.263
10242TIP3    H130669   2.492   0.523   1.268
10242TIP3    H230670   2.463   0.669   1.296
10243TIP3   OH230671   3.199   0.150   1.019
10243TIP3    H130672   3.277   0.204   1.029
10243TIP3    H230673   3.181   0.150   0.925
10244TIP3   OH230674   4.618   1.642   4.648
10244TIP3    H130675   4.667   1.588   4.710
10244TIP3    H230676   4.653   1.731   4.661
10245TIP3   OH230677   2.538   0.302   2.999
10245TIP3    H130678   2.621   0.349   3.012
10245TIP3    H230679   2.543   0.269   2.910
10246TIP3   OH230680   6.463   7.262   2.360
10246TIP3    H130681   6.512   7.341   2.340
10246TIP3    H230682   6.372   7.290   2.365
10247TIP3   OH230683   5.959   2.013   1.968
10247TIP3    H130684   5.977   2.086   2.028
10247TIP3    H230685   5.876   1.976   1.999
10248TIP3   OH230686   5.289   2.568   5.605
10248TIP3    H130687   5.327   2.491   5.561
10248TIP3    H230688   5.363   2.628   5.617
10249TIP3   OH230689   5.970   7.494   6.217
10249TIP3    H130690   5.935   7.443   6.290
10249TIP3    H230691   6.046   7.444   6.187
10250TIP3   OH230692   3.495   0.128   4.480
10250TIP3    H130693   3.438   0.055   4.454
10250TIP3    H230694   3.504   0.181   4.400
10251TIP3   OH230695   3.748   1.085   0.309
10251TIP3    H130696   3.833   1.066   0.348
10251TIP3    H230697   3.759   1.064   0.216
10252TIP3   OH230698   0.403   2.587   5.645
10252TIP3    H130699   0.419   2.626   5.731
10252TIP3    H230700   0.384   2.495   5.663
10253TIP3   OH230701   1.030   1.721   0.118
10253TIP3    H130702   1.063   1.728   0.029
10253TIP3    H230703   1.030   1.811   0.150
10254TIP3   OH230704   6.767   4.487   6.257
10254TIP3    H130705   6.840   4.432   6.285
10254TIP3    H230706   6.796   4.576   6.274
10255TIP3   OH230707   3.049   3.226   1.970
10255TIP3    H130708   2.985   3.155   1.966
10255TIP3    H230709   3.119   3.198   1.911
10256TIP3   OH230710   3.151   4.585   0.293
10256TIP3    H130711   3.236   4.584   0.335
10256TIP3    H230712   3.128   4.677   0.286
10257TIP3   OH230713   1.966   5.076   0.804
10257TIP3    H130714   1.875   5.080   0.774
10257TIP3    H230715   2.017   5.067   0.723
10258TIP3   OH230716   4.506   5.536   0.318
10258TIP3    H130717   4.534   5.613   0.269
10258TIP3    H230718   4.548   5.462   0.273
10259TIP3   OH230719   2.481   5.492   5.740
10259TIP3    H130720   2.448   5.490   5.650
10259TIP3    H230721   2.416   5.441   5.790
10260TIP3   OH230722   3.646   6.545   3.097
10260TIP3    H130723   3.703   6.536   3.174
10260TIP3    H230724   3.569   6.592   3.130
10261TIP3   OH230725   6.119   1.949   1.751
10261TIP3    H130726   6.068   1.986   1.822
10261TIP3    H230727   6.071   1.971   1.672
10262TIP3   OH230728   6.542   1.339   2.641
10262TIP3    H130729   6.576   1.259   2.601
10262TIP3    H230730   6.581   1.340   2.729
10263TIP3   OH230731   7.208   5.120   0.915
10263TIP3    H130732   7.124   5.135   0.871
10263TIP3    H230733   7.264   5.083   0.847
10264TIP3   OH230734   8.049   4.352   4.752
10264TIP3    H130735   8.034   4.285   4.685
10264TIP3    H230736   7.969   4.404   4.752
10265TIP3   OH230737   4.188   7.691   4.689
10265TIP3    H130738   4.102   7.693   4.729
10265TIP3    H230739   4.176   7.638   4.609
10266TIP3   OH230740   7.675   0.608   3.147
10266TIP3    H130741   7.692   0.591   3.055
10266TIP3    H230742   7.761   0.600   3.189
10267TIP3   OH230743   6.941   5.208   1.606
10267TIP3    H130744   7.014   5.181   1.662
10267TIP3    H230745   6.866   5.160   1.640
10268TIP3   OH230746   1.995   6.764  -0.012
10268TIP3    H130747   2.063   6.761   0.056
10268TIP3    H230748   1.920   6.804   0.031
10269TIP3   OH230749   0.762   1.591   4.332
10269TIP3    H130750   0.737   1.567   4.243
10269TIP3    H230751   0.747   1.685   4.337
10270TIP3   OH230752   3.429   5.256   3.375
10270TIP3    H130753   3.338   5.271   3.402
10270TIP3    H230754   3.481   5.297   3.444
10271TIP3   OH230755   7.974   5.599   0.803
10271TIP3    H130756   7.966   5.538   0.730
10271TIP3    H230757   8.040   5.663   0.774
10272TIP3   OH230758   1.690   4.136   2.702
10272TIP3    H130759   1.751   4.105   2.769
10272TIP3    H230760   1.631   4.062   2.688
10273TIP3   OH230761   1.645   0.506   3.021
10273TIP3    H130762   1.640   0.520   3.116
10273TIP3    H230763   1.721   0.450   3.009
10274TIP3   OH230764   6.058   7.601   3.309
10274TIP3    H130765   6.081   7.508   3.298
10274TIP3    H230766   5.980   7.613   3.255
10275TIP3   OH230767   1.042   1.471   3.212
10275TIP3    H130768   1.033   1.388   3.259
10275TIP3    H230769   1.129   1.468   3.174
10276TIP3   OH230770   4.298   4.092   3.984
10276TIP3    H130771   4.290   4.177   3.940
10276TIP3    H230772   4.269   4.028   3.919
10277TIP3   OH230773   5.001   5.529   0.950
10277TIP3    H130774   4.910   5.504   0.963
10277TIP3    H230775   5.020   5.591   1.020
10278TIP3   OH230776   5.998   0.762   1.041
10278TIP3    H130777   5.930   0.735   1.102
10278TIP3    H230778   6.002   0.857   1.051
10279TIP3   OH230779   3.829   2.798   1.078
10279TIP3    H130780   3.789   2.779   0.993
10279TIP3    H230781   3.809   2.890   1.093
10280TIP3   OH230782   0.777   1.608   0.199
10280TIP3    H130783   0.725   1.683   0.168
10280TIP3    H230784   0.867   1.629   0.171
10281TIP3   OH230785   5.412   0.369   1.357
10281TIP3    H130786   5.463   0.291   1.377
10281TIP3    H230787   5.327   0.354   1.398
10282TIP3   OH230788   1.597   0.769   5.314
10282TIP3    H130789   1.607   0.826   5.238
10282TIP3    H230790   1.687   0.750   5.340
10283TIP3   OH230791   6.167   0.987   4.277
10283TIP3    H130792   6.093   0.961   4.330
10283TIP3    H230793   6.145   1.075   4.246
10284TIP3   OH230794   5.675   1.709   1.682
10284TIP3    H130795   5.643   1.796   1.704
10284TIP3    H230796   5.769   1.712   1.700
10285TIP3   OH230797   8.248   0.287   6.282
10285TIP3    H130798   8.239   0.317   6.372
10285TIP3    H230799   8.325   0.231   6.283
10286TIP3   OH230800   6.053   1.817   6.593
10286TIP3    H130801   6.041   1.912   6.592
10286TIP3    H230802   6.045   1.791   6.501
10287TIP3   OH230803   0.941   5.346   1.859
10287TIP3    H130804   0.874   5.377   1.920
10287TIP3    H230805   0.891   5.302   1.789
10288TIP3   OH230806   1.577   0.406   0.362
10288TIP3    H130807   1.557   0.462   0.287
10288TIP3    H230808   1.497   0.408   0.415
10289TIP3   OH230809   7.767   6.076   4.832
10289TIP3    H130810   7.754   6.039   4.745
10289TIP3    H230811   7.803   6.163   4.816
10290TIP3   OH230812   0.546   1.666   0.793
10290TIP3    H130813   0.536   1.741   0.734
10290TIP3    H230814   0.484   1.601   0.760
10291TIP3   OH230815   6.012   5.910   6.543
10291TIP3    H130816   5.952   5.935   6.473
10291TIP3    H230817   5.955   5.889   6.617
10292TIP3   OH230818   2.553   7.461   3.569
10292TIP3    H130819   2.577   7.481   3.479
10292TIP3    H230820   2.601   7.525   3.622
10293TIP3   OH230821   4.605   0.292   4.304
10293TIP3    H130822   4.599   0.206   4.346
10293TIP3    H230823   4.696   0.299   4.275
10294TIP3   OH230824   7.008   3.307   6.428
10294TIP3    H130825   6.970   3.311   6.341
10294TIP3    H230826   7.014   3.214   6.448
10295TIP3   OH230827   8.255   1.954   0.115
10295TIP3    H130828   8.168   1.989   0.095
10295TIP3    H230829   8.244   1.859   0.111
10296TIP3   OH230830   5.223   4.187   6.326
10296TIP3    H130831   5.282   4.257   6.353
10296TIP3    H230832   5.280   4.114   6.303
10297TIP3   OH230833   6.296   3.240   1.306
10297TIP3    H130834   6.271   3.148   1.296
10297TIP3    H230835   6.215   3.285   1.327
10298TIP3   OH230836   1.666   3.713   5.802
10298TIP3    H130837   1.598   3.664   5.848
10298TIP3    H230838   1.737   3.650   5.790
10299TIP3   OH230839   5.910   4.383   2.126
10299TIP3    H130840   6.003   4.403   2.141
10299TIP3    H230841   5.867   4.403   2.209
10300TIP3   OH230842   1.994   2.074   4.247
10300TIP3    H130843   2.080   2.062   4.207
10300TIP3    H230844   1.933   2.071   4.174
10301TIP3   OH230845   4.545   6.742   6.124
10301TIP3    H130846   4.558   6.650   6.101
10301TIP3    H230847   4.493   6.739   6.205
10302TIP3   OH230848   1.745   0.922   2.640
10302TIP3    H130849   1.825   0.916   2.588
10302TIP3    H230850   1.764   0.871   2.719
10303TIP3   OH230851   2.434   6.912   4.416
10303TIP3    H130852   2.403   6.854   4.486
10303TIP3    H230853   2.396   6.997   4.437
10304TIP3   OH230854   3.788   3.861   3.007
10304TIP3    H130855   3.847   3.809   2.952
10304TIP3    H230856   3.737   3.796   3.055
10305TIP3   OH230857   3.377   6.328   1.399
10305TIP3    H130858   3.455   6.369   1.362
10305TIP3    H230859   3.304   6.374   1.358
10306TIP3   OH230860   1.447   6.248   2.435
10306TIP3    H130861   1.515   6.309   2.461
10306TIP3    H230862   1.422   6.275   2.346
10307TIP3   OH230863   2.602   1.321   6.315
10307TIP3    H130864   2.603   1.230   6.286
10307TIP3    H230865   2.547   1.366   6.250
10308TIP3   OH230866   4.710   0.864   1.542
10308TIP3    H130867   4.670   0.777   1.548
10308TIP3    H230868   4.793   0.855   1.589
10309TIP3   OH230869   6.815   6.030   2.759
10309TIP3    H130870   6.777   6.014   2.672
10309TIP3    H230871   6.859   6.114   2.751
10310TIP3   OH230872   0.018   3.721   0.631
10310TIP3    H130873   0.095   3.668   0.611
10310TIP3    H230874   0.044   3.810   0.609
10311TIP3   OH230875   0.829   6.345   5.154
10311TIP3    H130876   0.904   6.369   5.209
10311TIP3    H230877   0.863   6.347   5.064
10312TIP3   OH230878   7.048   0.983   2.958
10312TIP3    H130879   6.968   0.946   2.920
10312TIP3    H230880   7.084   0.912   3.012
10313TIP3   OH230881   2.597   6.799   2.957
10313TIP3    H130882   2.547   6.718   2.946
10313TIP3    H230883   2.545   6.852   3.018
10314TIP3   OH230884   4.768   7.580   3.884
10314TIP3    H130885   4.685   7.608   3.845
10314TIP3    H230886   4.756   7.594   3.978
10315TIP3   OH230887   8.092   7.779   3.426
10315TIP3    H130888   8.047   7.786   3.510
10315TIP3    H230889   8.127   7.867   3.410
10316TIP3   OH230890   1.927   2.185   3.471
10316TIP3    H130891   2.001   2.245   3.469
10316TIP3    H230892   1.859   2.232   3.520
10317TIP3   OH230893   3.915   3.005   2.457
10317TIP3    H130894   3.971   3.083   2.465
10317TIP3    H230895   3.971   2.933   2.486
10318TIP3   OH230896   1.173   7.592   4.371
10318TIP3    H130897   1.198   7.640   4.451
10318TIP3    H230898   1.256   7.579   4.324
10319TIP3   OH230899   0.386   4.660   0.489
10319TIP3    H130900   0.434   4.587   0.451
10319TIP3    H230901   0.294   4.633   0.485
10320TIP3   OH230902   4.170   0.948   4.394
10320TIP3    H130903   4.205   0.978   4.478
10320TIP3    H230904   4.077   0.936   4.410
10321TIP3   OH230905   5.607   6.945   5.332
10321TIP3    H130906   5.556   6.955   5.412
10321TIP3    H230907   5.571   7.011   5.272
10322TIP3   OH230908   3.466   2.596   2.762
10322TIP3    H130909   3.446   2.683   2.798
10322TIP3    H230910   3.561   2.592   2.762
10323TIP3   OH230911   3.565   7.174   3.461
10323TIP3    H130912   3.533   7.188   3.550
10323TIP3    H230913   3.487   7.150   3.411
10324TIP3   OH230914   2.649   6.054   0.468
10324TIP3    H130915   2.560   6.030   0.493
10324TIP3    H230916   2.639   6.137   0.420
10325TIP3   OH230917   7.378   6.311   5.772
10325TIP3    H130918   7.325   6.388   5.790
10325TIP3    H230919   7.423   6.332   5.690
10326TIP3   OH230920   1.574   1.826   2.336
10326TIP3    H130921   1.505   1.812   2.401
10326TIP3    H230922   1.539   1.894   2.278
10327TIP3   OH230923   2.113   7.619   2.789
10327TIP3    H130924   2.068   7.536   2.803
10327TIP3    H230925   2.204   7.594   2.772
10328TIP3   OH230926   1.137   2.817   4.707
10328TIP3    H130927   1.171   2.797   4.620
10328TIP3    H230928   1.170   2.905   4.726
10329TIP3   OH230929   7.230   2.723   5.843
10329TIP3    H130930   7.163   2.661   5.816
10329TIP3    H230931   7.218   2.799   5.786
10330TIP3   OH230932   0.236   0.227   5.715
10330TIP3    H130933   0.155   0.243   5.667
10330TIP3    H230934   0.222   0.267   5.801
10331TIP3   OH230935   4.137   4.467   1.797
10331TIP3    H130936   4.067   4.403   1.812
10331TIP3    H230937   4.216   4.423   1.829
10332TIP3   OH230938   1.842   3.706   3.293
10332TIP3    H130939   1.807   3.709   3.204
10332TIP3    H230940   1.786   3.643   3.338
10333TIP3   OH230941   6.724   4.998   0.319
10333TIP3    H130942   6.745   4.963   0.232
10333TIP3    H230943   6.629   4.990   0.326
10334TIP3   OH230944   1.201   3.907   4.282
10334TIP3    H130945   1.129   3.911   4.219
10334TIP3    H230946   1.199   3.991   4.328
10335TIP3   OH230947   7.023   2.657   6.335
10335TIP3    H130948   6.937   2.616   6.346
10335TIP3    H230949   7.085   2.586   6.353
10336TIP3   OH230950   3.263   3.106   3.960
10336TIP3    H130951   3.178   3.137   3.990
10336TIP3    H230952   3.301   3.064   4.037
10337TIP3   OH230953   1.057   1.946   0.858
10337TIP3    H130954   1.139   1.922   0.815
10337TIP3    H230955   1.078   1.943   0.951
10338TIP3   OH230956   4.494   5.559   0.868
10338TIP3    H130957   4.515   5.526   0.956
10338TIP3    H230958   4.449   5.642   0.884
10339TIP3   OH230959   6.493   5.628   4.403
10339TIP3    H130960   6.398   5.620   4.393
10339TIP3    H230961   6.510   5.595   4.492
10340TIP3   OH230962   0.852   1.212   3.872
10340TIP3    H130963   0.776   1.190   3.925
10340TIP3    H230964   0.925   1.166   3.915
10341TIP3   OH230965   5.309   1.261   4.291
10341TIP3    H130966   5.342   1.320   4.223
10341TIP3    H230967   5.235   1.309   4.330
10342TIP3   OH230968   6.734   5.556   6.609
10342TIP3    H130969   6.674   5.630   6.621
10342TIP3    H230970   6.690   5.501   6.544
10343TIP3   OH230971   4.175   5.892   4.240
10343TIP3    H130972   4.229   5.813   4.237
10343TIP3    H230973   4.203   5.937   4.320
10344TIP3   OH230974   2.856   2.220   0.908
10344TIP3    H130975   2.940   2.264   0.919
10344TIP3    H230976   2.794   2.291   0.892
10345TIP3   OH230977   2.024   2.343   4.294
10345TIP3    H130978   1.952   2.288   4.264
10345TIP3    H230979   2.102   2.307   4.250
10346TIP3   OH230980   7.026   3.176   0.584
10346TIP3    H130981   7.070   3.171   0.669
10346TIP3    H230982   6.933   3.183   0.606
10347TIP3   OH230983   4.463   3.842   3.318
10347TIP3    H130984   4.439   3.832   3.410
10347TIP3    H230985   4.475   3.936   3.306
10348TIP3   OH230986   8.258   6.560   0.350
10348TIP3    H130987   8.338   6.601   0.316
10348TIP3    H230988   8.209   6.534   0.272
10349TIP3   OH230989   7.883   2.894   3.398
10349TIP3    H130990   7.886   2.825   3.465
10349TIP3    H230991   7.856   2.972   3.446
10350TIP3   OH230992   0.606   4.544   3.996
10350TIP3    H130993   0.591   4.612   4.062
10350TIP3    H230994   0.694   4.511   4.015
10351TIP3   OH230995   3.839   1.495   3.286
10351TIP3    H130996   3.902   1.552   3.241
10351TIP3    H230997   3.893   1.437   3.340
10352TIP3   OH230998   4.622   4.479   3.019
10352TIP3    H130999   4.542   4.439   2.985
10352TIP3    H231000   4.593   4.561   3.059
10353TIP3   OH231001   3.724   4.812   4.302
10353TIP3    H131002   3.747   4.840   4.213
10353TIP3    H231003   3.758   4.723   4.309
10354TIP3   OH231004   3.526   4.382   3.954
10354TIP3    H131005   3.581   4.406   4.029
10354TIP3    H231006   3.447   4.436   3.964
10355TIP3   OH231007   4.784   7.730   6.552
10355TIP3    H131008   4.849   7.784   6.508
10355TIP3    H231009   4.757   7.781   6.628
10356TIP3   OH231010   1.034   6.179   0.437
10356TIP3    H131011   0.984   6.248   0.482
10356TIP3    H231012   1.124   6.210   0.438
10357TIP3   OH231013   2.219   1.756   6.123
10357TIP3    H131014   2.229   1.840   6.077
10357TIP3    H231015   2.195   1.781   6.212
10358TIP3   OH231016   4.674   1.504   6.179
10358TIP3    H131017   4.686   1.468   6.091
10358TIP3    H231018   4.582   1.527   6.182
10359TIP3   OH231019   6.429   3.787   6.617
10359TIP3    H131020   6.394   3.825   6.698
10359TIP3    H231021   6.353   3.774   6.561
10360TIP3   OH231022   6.033   3.711   5.020
10360TIP3    H131023   6.061   3.795   5.057
10360TIP3    H231024   5.977   3.735   4.947
10361TIP3   OH231025  -0.011   4.924   5.888
10361TIP3    H131026  -0.042   4.993   5.947
10361TIP3    H231027   0.082   4.943   5.876
10362TIP3   OH231028   4.451   0.508   6.071
10362TIP3    H131029   4.523   0.571   6.072
10362TIP3    H231030   4.373   0.560   6.091
10363TIP3   OH231031   8.091   2.523   6.256
10363TIP3    H131032   8.034   2.512   6.180
10363TIP3    H231033   8.147   2.597   6.233
10364TIP3   OH231034   7.053   3.785   3.857
10364TIP3    H131035   7.060   3.841   3.934
10364TIP3    H231036   7.056   3.696   3.892
10365TIP3   OH231037   7.768   4.900   4.225
10365TIP3    H131038   7.770   4.848   4.305
10365TIP3    H231039   7.860   4.905   4.198
10366TIP3   OH231040   7.545   7.090   4.021
10366TIP3    H131041   7.463   7.046   4.043
10366TIP3    H231042   7.519   7.167   3.972
10367TIP3   OH231043   3.433   7.670   3.425
10367TIP3    H131044   3.414   7.757   3.391
10367TIP3    H231045   3.347   7.631   3.441
10368TIP3   OH231046   6.243   4.020   1.173
10368TIP3    H131047   6.320   3.997   1.225
10368TIP3    H231048   6.189   4.071   1.233
10369TIP3   OH231049   2.373   6.664   1.099
10369TIP3    H131050   2.349   6.724   1.029
10369TIP3    H231051   2.406   6.721   1.169
10370TIP3   OH231052   2.315   5.667   1.555
10370TIP3    H131053   2.338   5.708   1.471
10370TIP3    H231054   2.361   5.720   1.620
10371TIP3   OH231055   6.269   0.611   5.506
10371TIP3    H131056   6.280   0.697   5.546
10371TIP3    H231057   6.352   0.592   5.464
10372TIP3   OH231058   5.064   4.690   6.753
10372TIP3    H131059   4.999   4.619   6.750
10372TIP3    H231060   5.128   4.666   6.686
10373TIP3   OH231061   2.935   6.870   1.400
10373TIP3    H131062   2.916   6.876   1.306
10373TIP3    H231063   3.028   6.892   1.407
10374TIP3   OH231064   0.078   1.526   3.493
10374TIP3    H131065   0.049   1.563   3.576
10374TIP3    H231066   0.041   1.438   3.491
10375TIP3   OH231067   8.158   3.183   2.855
10375TIP3    H131068   8.116   3.253   2.906
10375TIP3    H231069   8.201   3.229   2.783
10376TIP3   OH231070   0.888   3.150   1.433
10376TIP3    H131071   0.869   3.078   1.373
10376TIP3    H231072   0.898   3.226   1.376
10377TIP3   OH231073   4.834   0.337   5.424
10377TIP3    H131074   4.921   0.340   5.383
10377TIP3    H231075   4.801   0.427   5.416
10378TIP3   OH231076   5.479   0.550   4.567
10378TIP3    H131077   5.494   0.623   4.508
10378TIP3    H231078   5.519   0.577   4.649
10379TIP3   OH231079   3.906   6.251   2.031
10379TIP3    H131080   3.853   6.230   2.108
10379TIP3    H231081   3.887   6.181   1.969
10380TIP3   OH231082   5.124   6.830   0.404
10380TIP3    H131083   5.154   6.851   0.493
10380TIP3    H231084   5.136   6.911   0.355
10381TIP3   OH231085   0.112   5.379   1.089
10381TIP3    H131086   0.076   5.308   1.142
10381TIP3    H231087   0.041   5.442   1.080
10382TIP3   OH231088   2.384   2.632   5.093
10382TIP3    H131089   2.410   2.582   5.016
10382TIP3    H231090   2.441   2.710   5.091
10383TIP3   OH231091   5.653   3.323   2.822
10383TIP3    H131092   5.638   3.413   2.794
10383TIP3    H231093   5.635   3.323   2.916
10384TIP3   OH231094   5.761   2.593   1.708
10384TIP3    H131095   5.716   2.558   1.631
10384TIP3    H231096   5.714   2.673   1.730
10385TIP3   OH231097   4.632   6.164   4.042
10385TIP3    H131098   4.637   6.238   3.982
10385TIP3    H231099   4.675   6.195   4.122
10386TIP3   OH231100   7.186   1.833   0.379
10386TIP3    H131101   7.248   1.892   0.423
10386TIP3    H231102   7.152   1.778   0.450
10387TIP3   OH231103   5.720   0.088   0.550
10387TIP3    H131104   5.626   0.102   0.553
10387TIP3    H231105   5.741   0.046   0.633
10388TIP3   OH231106   6.126   6.169   6.586
10388TIP3    H131107   6.100   6.170   6.678
10388TIP3    H231108   6.121   6.077   6.560
10389TIP3   OH231109   1.903   6.727   3.450
10389TIP3    H131110   1.818   6.751   3.486
10389TIP3    H231111   1.929   6.650   3.502
10390TIP3   OH231112   8.013   0.465   2.460
10390TIP3    H131113   8.104   0.492   2.443
10390TIP3    H231114   7.967   0.483   2.379
10391TIP3   OH231115   7.780   3.428   1.471
10391TIP3    H131116   7.726   3.482   1.529
10391TIP3    H231117   7.856   3.405   1.523
10392TIP3   OH231118   3.580   6.951   6.485
10392TIP3    H131119   3.649   7.005   6.524
10392TIP3    H231120   3.592   6.961   6.391
10393TIP3   OH231121   3.456   6.231   3.405
10393TIP3    H131122   3.518   6.258   3.473
10393TIP3    H231123   3.379   6.201   3.454
10394TIP3   OH231124   7.056   3.703   0.556
10394TIP3    H131125   6.961   3.697   0.558
10394TIP3    H231126   7.083   3.632   0.497
10395TIP3   OH231127   5.950   7.557   2.721
10395TIP3    H131128   5.907   7.604   2.793
10395TIP3    H231129   5.919   7.601   2.642
10396TIP3   OH231130   3.097   7.821   2.431
10396TIP3    H131131   3.117   7.834   2.524
10396TIP3    H231132   3.039   7.744   2.430
10397TIP3   OH231133   2.547   3.238   0.324
10397TIP3    H131134   2.616   3.191   0.371
10397TIP3    H231135   2.475   3.175   0.317
10398TIP3   OH231136   6.885   6.213   2.197
10398TIP3    H131137   6.816   6.273   2.167
10398TIP3    H231138   6.962   6.268   2.207
10399TIP3   OH231139   6.259   3.278   1.035
10399TIP3    H131140   6.321   3.343   1.000
10399TIP3    H231141   6.290   3.261   1.124
10400TIP3   OH231142   5.736   5.075   1.263
10400TIP3    H131143   5.807   5.121   1.308
10400TIP3    H231144   5.678   5.145   1.231
10401TIP3   OH231145   2.079   2.016   2.948
10401TIP3    H131146   1.989   1.993   2.971
10401TIP3    H231147   2.089   2.107   2.977
10402TIP3   OH231148   3.398   4.699   3.719
10402TIP3    H131149   3.362   4.611   3.730
10402TIP3    H231150   3.338   4.756   3.766
10403TIP3   OH231151   3.002   1.356   5.299
10403TIP3    H131152   3.030   1.443   5.269
10403TIP3    H231153   2.981   1.308   5.219
10404TIP3   OH231154   5.720   5.835   3.793
10404TIP3    H131155   5.752   5.897   3.727
10404TIP3    H231156   5.780   5.761   3.789
10405TIP3   OH231157   3.525   6.149   2.453
10405TIP3    H131158   3.430   6.138   2.449
10405TIP3    H231159   3.556   6.069   2.496
10406TIP3   OH231160   4.788   4.868   1.807
10406TIP3    H131161   4.734   4.833   1.878
10406TIP3    H231162   4.809   4.792   1.753
10407TIP3   OH231163   0.662   3.592   2.263
10407TIP3    H131164   0.581   3.606   2.213
10407TIP3    H231165   0.716   3.668   2.242
10408TIP3   OH231166   6.467   1.442   4.914
10408TIP3    H131167   6.480   1.415   5.005
10408TIP3    H231168   6.527   1.388   4.864
10409TIP3   OH231169   4.597   0.701   2.347
10409TIP3    H131170   4.567   0.728   2.260
10409TIP3    H231171   4.529   0.641   2.378
10410TIP3   OH231172   8.223   1.656   2.427
10410TIP3    H131173   8.190   1.674   2.339
10410TIP3    H231174   8.146   1.629   2.477
10411TIP3   OH231175   6.004   1.169   6.701
10411TIP3    H131176   6.017   1.259   6.674
10411TIP3    H231177   5.983   1.175   6.795
10412TIP3   OH231178   2.989   5.427   2.648
10412TIP3    H131179   3.057   5.457   2.588
10412TIP3    H231180   2.949   5.507   2.682
10413TIP3   OH231181   0.240   2.709   4.263
10413TIP3    H131182   0.267   2.721   4.354
10413TIP3    H231183   0.226   2.614   4.255
10414TIP3   OH231184   4.175   0.197   3.414
10414TIP3    H131185   4.232   0.150   3.353
10414TIP3    H231186   4.128   0.260   3.360
10415TIP3   OH231187   4.508   4.120   4.730
10415TIP3    H131188   4.581   4.062   4.707
10415TIP3    H231189   4.433   4.062   4.739
10416TIP3   OH231190   3.065   5.008   1.761
10416TIP3    H131191   2.972   4.986   1.764
10416TIP3    H231192   3.090   5.016   1.853
10417TIP3   OH231193   6.648   7.665   1.799
10417TIP3    H131194   6.683   7.610   1.729
10417TIP3    H231195   6.596   7.605   1.852
10418TIP3   OH231196   1.162   5.851   1.015
10418TIP3    H131197   1.231   5.847   0.949
10418TIP3    H231198   1.200   5.810   1.092
10419TIP3   OH231199   1.911   4.458   2.514
10419TIP3    H131200   1.887   4.404   2.438
10419TIP3    H231201   1.977   4.406   2.560
10420TIP3   OH231202   5.145   4.621   0.089
10420TIP3    H131203   5.162   4.664   0.173
10420TIP3    H231204   5.062   4.575   0.102
10421TIP3   OH231205   5.539   2.115   0.625
10421TIP3    H131206   5.625   2.145   0.594
10421TIP3    H231207   5.502   2.191   0.669
10422TIP3   OH231208   0.643   5.541   5.173
10422TIP3    H131209   0.597   5.622   5.194
10422TIP3    H231210   0.714   5.568   5.114
10423TIP3   OH231211   1.166   2.352   0.588
10423TIP3    H131212   1.105   2.406   0.538
10423TIP3    H231213   1.134   2.263   0.576
10424TIP3   OH231214   2.675   7.538   4.018
10424TIP3    H131215   2.676   7.469   4.084
10424TIP3    H231216   2.731   7.505   3.948
10425TIP3   OH231217   1.869   0.158   4.567
10425TIP3    H131218   1.805   0.089   4.550
10425TIP3    H231219   1.833   0.206   4.641
10426TIP3   OH231220   4.139   1.783   2.960
10426TIP3    H131221   4.051   1.763   2.928
10426TIP3    H231222   4.196   1.766   2.885
10427TIP3   OH231223   2.596   4.808   2.099
10427TIP3    H131224   2.656   4.813   2.173
10427TIP3    H231225   2.595   4.715   2.075
10428TIP3   OH231226   2.996   7.098   1.610
10428TIP3    H131227   3.089   7.080   1.627
10428TIP3    H231228   2.950   7.068   1.688
10429TIP3   OH231229   4.752   4.975   2.507
10429TIP3    H131230   4.657   4.965   2.498
10429TIP3    H231231   4.784   4.980   2.417
10430TIP3   OH231232   2.235   5.243   0.088
10430TIP3    H131233   2.221   5.276  -0.001
10430TIP3    H231234   2.330   5.249   0.101
10431TIP3   OH231235   6.917   1.123   6.508
10431TIP3    H131236   6.924   1.135   6.603
10431TIP3    H231237   6.993   1.070   6.485
10432TIP3   OH231238   2.287   3.126   3.600
10432TIP3    H131239   2.383   3.127   3.597
10432TIP3    H231240   2.266   3.123   3.693
10433TIP3   OH231241   0.373   7.632   0.537
10433TIP3    H131242   0.443   7.609   0.599
10433TIP3    H231243   0.419   7.651   0.455
10434TIP3   OH231244   6.907   6.956   0.311
10434TIP3    H131245   6.958   7.037   0.308
10434TIP3    H231246   6.897   6.937   0.405
10435TIP3   OH231247   3.235   6.540   2.955
10435TIP3    H131248   3.249   6.448   2.981
10435TIP3    H231249   3.236   6.588   3.037
10436TIP3   OH231250   7.999   1.038   0.060
10436TIP3    H131251   7.985   1.091  -0.019
10436TIP3    H231252   8.028   1.100   0.126
10437TIP3   OH231253   7.912   4.388   5.455
10437TIP3    H131254   8.003   4.418   5.459
10437TIP3    H231255   7.885   4.403   5.365
10438TIP3   OH231256   4.397   0.716   4.979
10438TIP3    H131257   4.365   0.800   5.013
10438TIP3    H231258   4.492   0.720   4.991
10439TIP3   OH231259   2.745   6.001   3.091
10439TIP3    H131260   2.788   6.086   3.080
10439TIP3    H231261   2.700   6.008   3.176
10440TIP3   OH231262   1.891   6.298   4.050
10440TIP3    H131263   1.890   6.393   4.059
10440TIP3    H231264   1.823   6.267   4.109
10441TIP3   OH231265   3.192   7.605   6.227
10441TIP3    H131266   3.237   7.531   6.186
10441TIP3    H231267   3.199   7.676   6.163
10442TIP3   OH231268   0.072   3.845   3.768
10442TIP3    H131269   0.135   3.917   3.757
10442TIP3    H231270   0.090   3.786   3.695
10443TIP3   OH231271   8.294   4.765   4.451
10443TIP3    H131272   8.362   4.832   4.441
10443TIP3    H231273   8.213   4.815   4.466
10444TIP3   OH231274   1.476   2.822   0.639
10444TIP3    H131275   1.459   2.757   0.571
10444TIP3    H231276   1.397   2.876   0.641
10445TIP3   OH231277   7.022   2.462   4.075
10445TIP3    H131278   7.108   2.501   4.065
10445TIP3    H231279   6.979   2.516   4.141
10446TIP3   OH231280   0.694   4.583   6.399
10446TIP3    H131281   0.706   4.503   6.348
10446TIP3    H231282   0.626   4.561   6.463
10447TIP3   OH231283   6.072   0.025   3.166
10447TIP3    H131284   6.043   0.103   3.212
10447TIP3    H231285   6.168   0.027   3.173
10448TIP3   OH231286   6.828   6.772   2.170
10448TIP3    H131287   6.851   6.865   2.172
10448TIP3    H231288   6.809   6.755   2.077
10449TIP3   OH231289   3.921   5.980   4.190
10449TIP3    H131290   3.894   5.937   4.271
10449TIP3    H231291   4.016   5.966   4.186
10450TIP3   OH231292   6.654   0.193   5.463
10450TIP3    H131293   6.597   0.169   5.390
10450TIP3    H231294   6.614   0.272   5.500
10451TIP3   OH231295   1.433   3.614   0.973
10451TIP3    H131296   1.456   3.694   0.926
10451TIP3    H231297   1.469   3.544   0.919
10452TIP3   OH231298   3.504   4.159   0.194
10452TIP3    H131299   3.556   4.237   0.177
10452TIP3    H231300   3.438   4.187   0.258
10453TIP3   OH231301   2.045   4.178   4.764
10453TIP3    H131302   1.990   4.242   4.808
10453TIP3    H231303   2.013   4.177   4.673
10454TIP3   OH231304   4.421   4.637   4.732
10454TIP3    H131305   4.465   4.682   4.660
10454TIP3    H231306   4.492   4.598   4.783
10455TIP3   OH231307   7.194   4.829   0.195
10455TIP3    H131308   7.186   4.892   0.123
10455TIP3    H231309   7.231   4.751   0.155
10456TIP3   OH231310   1.455   5.877   6.648
10456TIP3    H131311   1.365   5.898   6.626
10456TIP3    H231312   1.506   5.952   6.615
10457TIP3   OH231313   0.046   3.621   5.943
10457TIP3    H131314   0.082   3.668   6.018
10457TIP3    H231315   0.015   3.690   5.884
10458TIP3   OH231316   0.795   2.096   1.178
10458TIP3    H131317   0.788   2.013   1.131
10458TIP3    H231318   0.888   2.118   1.174
10459TIP3   OH231319   7.732   1.400   6.557
10459TIP3    H131320   7.649   1.356   6.538
10459TIP3    H231321   7.723   1.486   6.516
10460TIP3   OH231322   0.504   6.330   2.922
10460TIP3    H131323   0.560   6.266   2.965
10460TIP3    H231324   0.566   6.388   2.876
10461TIP3   OH231325   3.901   0.624   2.006
10461TIP3    H131326   3.949   0.545   1.982
10461TIP3    H231327   3.941   0.652   2.089
10462TIP3   OH231328   4.519   2.579   4.966
10462TIP3    H131329   4.589   2.629   4.924
10462TIP3    H231330   4.438   2.618   4.932
10463TIP3   OH231331   0.189   3.330   5.175
10463TIP3    H131332   0.156   3.386   5.246
10463TIP3    H231333   0.113   3.316   5.118
10464TIP3   OH231334   6.107   7.353   0.319
10464TIP3    H131335   6.174   7.392   0.263
10464TIP3    H231336   6.081   7.273   0.273
10465TIP3   OH231337   7.846   5.076   3.953
10465TIP3    H131338   7.800   5.158   3.974
10465TIP3    H231339   7.784   5.007   3.979
10466TIP3   OH231340   0.471   7.169   0.338
10466TIP3    H131341   0.500   7.143   0.250
10466TIP3    H231342   0.519   7.250   0.356
10467TIP3   OH231343   0.009   6.780   4.247
10467TIP3    H131344  -0.034   6.857   4.210
10467TIP3    H231345   0.103   6.795   4.233
10468TIP3   OH231346   2.868   0.825   3.132
10468TIP3    H131347   2.964   0.820   3.138
10468TIP3    H231348   2.837   0.779   3.210
10469TIP3   OH231349   2.102   5.449   2.947
10469TIP3    H131350   2.186   5.488   2.970
10469TIP3    H231351   2.054   5.519   2.903
10470TIP3   OH231352   4.162   4.059   0.592
10470TIP3    H131353   4.254   4.083   0.582
10470TIP3    H231354   4.127   4.062   0.504
10471TIP3   OH231355   8.232   7.469   6.237
10471TIP3    H131356   8.283   7.526   6.294
10471TIP3    H231357   8.155   7.447   6.289
10472TIP3   OH231358   4.326   7.418   4.809
10472TIP3    H131359   4.368   7.464   4.737
10472TIP3    H231360   4.370   7.450   4.888
10473TIP3   OH231361   6.855   4.561   4.236
10473TIP3    H131362   6.809   4.577   4.154
10473TIP3    H231363   6.786   4.557   4.302
10474TIP3   OH231364   7.305   4.156   6.642
10474TIP3    H131365   7.211   4.138   6.645
10474TIP3    H231366   7.337   4.102   6.570
10475TIP3   OH231367   4.691   0.515   2.118
10475TIP3    H131368   4.784   0.502   2.138
10475TIP3    H231369   4.690   0.552   2.030
10476TIP3   OH231370   6.561   0.136   2.985
10476TIP3    H131371   6.611   0.056   2.975
10476TIP3    H231372   6.562   0.176   2.897
10477TIP3   OH231373   6.268   3.816   2.773
10477TIP3    H131374   6.261   3.892   2.830
10477TIP3    H231375   6.270   3.741   2.834
10478TIP3   OH231376   8.175   6.341   3.930
10478TIP3    H131377   8.224   6.276   3.880
10478TIP3    H231378   8.083   6.319   3.914
10479TIP3   OH231379   0.756   6.319   6.522
10479TIP3    H131380   0.757   6.285   6.432
10479TIP3    H231381   0.759   6.241   6.577
10480TIP3   OH231382   6.027   6.970   6.181
10480TIP3    H131383   5.936   6.945   6.165
10480TIP3    H231384   6.037   7.055   6.139
10481TIP3   OH231385   7.721   1.014   1.945
10481TIP3    H131386   7.805   1.049   1.914
10481TIP3    H231387   7.743   0.973   2.029
10482TIP3   OH231388   3.658   1.703   4.153
10482TIP3    H131389   3.642   1.730   4.244
10482TIP3    H231390   3.738   1.651   4.158
10483TIP3   OH231391   7.151   5.581   2.441
10483TIP3    H131392   7.199   5.640   2.383
10483TIP3    H231393   7.060   5.606   2.430
10484TIP3   OH231394   5.148   7.480   3.085
10484TIP3    H131395   5.118   7.560   3.041
10484TIP3    H231396   5.109   7.485   3.172
10485TIP3   OH231397   2.238   6.083   0.770
10485TIP3    H131398   2.249   6.176   0.788
10485TIP3    H231399   2.145   6.066   0.789
10486TIP3   OH231400   0.047   3.067   5.028
10486TIP3    H131401   0.057   3.160   5.007
10486TIP3    H231402   0.126   3.026   4.995
10487TIP3   OH231403   0.991   1.635   5.922
10487TIP3    H131404   1.038   1.655   5.841
10487TIP3    H231405   1.018   1.704   5.983
10488TIP3   OH231406   4.649   6.612   2.902
10488TIP3    H131407   4.724   6.580   2.952
10488TIP3    H231408   4.581   6.628   2.968
10489TIP3   OH231409   3.236   2.327   0.687
10489TIP3    H131410   3.235   2.401   0.627
10489TIP3    H231411   3.280   2.257   0.638
10490TIP3   OH231412   6.743   2.325   4.331
10490TIP3    H131413   6.707   2.240   4.305
10490TIP3    H231414   6.751   2.374   4.249
10491TIP3   OH231415   6.778   7.361   1.823
10491TIP3    H131416   6.807   7.307   1.750
10491TIP3    H231417   6.859   7.395   1.862
10492TIP3   OH231418   2.248   1.101   1.475
10492TIP3    H131419   2.173   1.113   1.532
10492TIP3    H231420   2.296   1.184   1.479
10493TIP3   OH231421   5.858   0.055   2.701
10493TIP3    H131422   5.909   0.111   2.760
10493TIP3    H231423   5.818  -0.009   2.760
10494TIP3   OH231424   1.328   4.523   6.570
10494TIP3    H131425   1.278   4.447   6.540
10494TIP3    H231426   1.403   4.486   6.616
10495TIP3   OH231427   7.460   1.210   1.727
10495TIP3    H131428   7.403   1.232   1.801
10495TIP3    H231429   7.403   1.218   1.650
10496TIP3   OH231430   2.865   3.958   2.875
10496TIP3    H131431   2.936   4.011   2.840
10496TIP3    H231432   2.848   3.892   2.807
10497TIP3   OH231433   6.174   2.206   0.635
10497TIP3    H131434   6.213   2.265   0.699
10497TIP3    H231435   6.138   2.134   0.687
10498TIP3   OH231436   7.887   2.065   5.701
10498TIP3    H131437   7.949   1.992   5.698
10498TIP3    H231438   7.941   2.141   5.724
10499TIP3   OH231439   2.391   7.529   1.836
10499TIP3    H131440   2.325   7.560   1.773
10499TIP3    H231441   2.346   7.527   1.920
10500TIP3   OH231442   6.251   0.863   2.412
10500TIP3    H131443   6.192   0.819   2.473
10500TIP3    H231444   6.266   0.949   2.451
10501TIP3   OH231445   2.920   1.172   6.663
10501TIP3    H131446   2.986   1.228   6.703
10501TIP3    H231447   2.877   1.129   6.737
10502TIP3   OH231448   7.311   6.906   6.425
10502TIP3    H131449   7.383   6.965   6.405
10502TIP3    H231450   7.353   6.825   6.455
10503TIP3   OH231451   8.233   5.018   2.259
10503TIP3    H131452   8.241   5.043   2.351
10503TIP3    H231453   8.174   5.083   2.222
10504TIP3   OH231454   0.030   6.302   0.205
10504TIP3    H131455  -0.012   6.378   0.165
10504TIP3    H231456   0.066   6.252   0.132
10505TIP3   OH231457   7.854   1.007   2.822
10505TIP3    H131458   7.796   1.012   2.898
10505TIP3    H231459   7.855   0.914   2.799
10506TIP3   OH231460   7.099   1.388   6.735
10506TIP3    H131461   7.174   1.441   6.709
10506TIP3    H231462   7.043   1.449   6.785
10507TIP3   OH231463   5.585   3.501   0.846
10507TIP3    H131464   5.531   3.520   0.770
10507TIP3    H231465   5.544   3.425   0.887
10508TIP3   OH231466   7.095   6.891   6.788
10508TIP3    H131467   7.156   6.940   6.734
10508TIP3    H231468   7.031   6.855   6.727
10509TIP3   OH231469   1.949   3.656   3.941
10509TIP3    H131470   2.023   3.646   3.881
10509TIP3    H231471   1.903   3.572   3.937
10510TIP3   OH231472   3.503   4.744   4.154
10510TIP3    H131473   3.434   4.810   4.160
10510TIP3    H231474   3.555   4.757   4.234
10511TIP3   OH231475   4.925   6.496   4.123
10511TIP3    H131476   4.928   6.565   4.057
10511TIP3    H231477   4.970   6.534   4.199
10512TIP3   OH231478   3.017   5.998   4.452
10512TIP3    H131479   2.996   5.956   4.368
10512TIP3    H231480   3.006   6.092   4.436
10513TIP3   OH231481   5.436   0.280   2.908
10513TIP3    H131482   5.347   0.251   2.927
10513TIP3    H231483   5.445   0.364   2.953
10514TIP3   OH231484   2.714   3.743   1.020
10514TIP3    H131485   2.809   3.746   1.032
10514TIP3    H231486   2.686   3.661   1.061
10515TIP3   OH231487   0.235   3.124   1.323
10515TIP3    H131488   0.274   3.165   1.401
10515TIP3    H231489   0.278   3.039   1.318
10516TIP3   OH231490   5.839   7.371   3.597
10516TIP3    H131491   5.846   7.353   3.503
10516TIP3    H231492   5.748   7.351   3.618
10517TIP3   OH231493   2.827   1.644   1.356
10517TIP3    H131494   2.854   1.646   1.264
10517TIP3    H231495   2.782   1.561   1.366
10518TIP3   OH231496   7.014   3.881   4.948
10518TIP3    H131497   6.973   3.806   4.989
10518TIP3    H231498   7.096   3.848   4.912
10519TIP3   OH231499   6.933   6.497   1.813
10519TIP3    H131500   6.902   6.521   1.725
10519TIP3    H231501   6.968   6.409   1.803
10520TIP3   OH231502   5.061   0.614   1.099
10520TIP3    H131503   5.036   0.703   1.075
10520TIP3    H231504   5.155   0.619   1.115
10521TIP3   OH231505   5.265   4.081   2.408
10521TIP3    H131506   5.285   4.046   2.495
10521TIP3    H231507   5.170   4.074   2.400
10522TIP3   OH231508   1.761   0.426   5.218
10522TIP3    H131509   1.775   0.332   5.204
10522TIP3    H231510   1.780   0.440   5.310
10523TIP3   OH231511   7.517   7.177   6.437
10523TIP3    H131512   7.531   7.168   6.531
10523TIP3    H231513   7.454   7.248   6.429
10524TIP3   OH231514   6.539   1.028   6.574
10524TIP3    H131515   6.591   0.950   6.553
10524TIP3    H231516   6.529   1.025   6.669
10525TIP3   OH231517   1.109   3.412   4.669
10525TIP3    H131518   1.197   3.410   4.632
10525TIP3    H231519   1.113   3.480   4.737
10526TIP3   OH231520   3.638   4.604   6.421
10526TIP3    H131521   3.700   4.589   6.351
10526TIP3    H231522   3.692   4.616   6.499
10527TIP3   OH231523   4.496   7.093   0.427
10527TIP3    H131524   4.549   7.017   0.404
10527TIP3    H231525   4.411   7.057   0.452
10528TIP3   OH231526   3.051   2.362   4.530
10528TIP3    H131527   3.008   2.295   4.476
10528TIP3    H231528   3.134   2.323   4.555
10529TIP3   OH231529   6.094   3.226   2.239
10529TIP3    H131530   6.029   3.176   2.189
10529TIP3    H231531   6.063   3.317   2.234
10530TIP3   OH231532   0.652   7.488   3.251
10530TIP3    H131533   0.676   7.423   3.317
10530TIP3    H231534   0.565   7.461   3.221
10531TIP3   OH231535   0.240   2.804   6.347
10531TIP3    H131536   0.229   2.773   6.437
10531TIP3    H231537   0.276   2.729   6.300
10532TIP3   OH231538   3.499   4.906   0.222
10532TIP3    H131539   3.419   4.910   0.274
10532TIP3    H231540   3.561   4.858   0.277
10533TIP3   OH231541   7.061   1.599   6.482
10533TIP3    H131542   7.005   1.538   6.530
10533TIP3    H231543   7.062   1.565   6.393
10534TIP3   OH231544   2.854   3.487   0.493
10534TIP3    H131545   2.849   3.572   0.450
10534TIP3    H231546   2.947   3.475   0.511
10535TIP3   OH231547   5.906   4.188   4.957
10535TIP3    H131548   5.881   4.198   4.865
10535TIP3    H231549   5.898   4.277   4.993
10536TIP3   OH231550   1.960   1.124   5.679
10536TIP3    H131551   1.966   1.168   5.763
10536TIP3    H231552   1.949   1.194   5.615
10537TIP3   OH231553   5.572   5.833   4.054
10537TIP3    H131554   5.593   5.895   3.985
10537TIP3    H231555   5.636   5.762   4.044
10538TIP3   OH231556   4.129   7.303   0.208
10538TIP3    H131557   4.222   7.323   0.218
10538TIP3    H231558   4.085   7.368   0.263
10539TIP3   OH231559   5.832   5.978   5.406
10539TIP3    H131560   5.834   5.918   5.480
10539TIP3    H231561   5.739   5.996   5.392
10540TIP3   OH231562   0.492   5.237   5.137
10540TIP3    H131563   0.587   5.251   5.134
10540TIP3    H231564   0.458   5.317   5.178
10541TIP3   OH231565   4.670   2.583   2.206
10541TIP3    H131566   4.697   2.668   2.171
10541TIP3    H231567   4.744   2.555   2.260
10542TIP3   OH231568   2.332   0.406   4.085
10542TIP3    H131569   2.246   0.425   4.050
10542TIP3    H231570   2.352   0.318   4.053
10543TIP3   OH231571   3.796   4.124   1.668
10543TIP3    H131572   3.715   4.173   1.653
10543TIP3    H231573   3.795   4.055   1.603
10544TIP3   OH231574   4.555   0.862   5.625
10544TIP3    H131575   4.585   0.771   5.627
10544TIP3    H231576   4.469   0.858   5.583
10545TIP3   OH231577   5.492   5.824   1.644
10545TIP3    H131578   5.495   5.872   1.561
10545TIP3    H231579   5.513   5.890   1.710
10546TIP3   OH231580   5.427   7.005   4.911
10546TIP3    H131581   5.468   7.031   4.993
10546TIP3    H231582   5.492   6.948   4.868
10547TIP3   OH231583   6.466   1.093   3.502
10547TIP3    H131584   6.536   1.048   3.550
10547TIP3    H231585   6.447   1.034   3.429
10548TIP3   OH231586   5.741   0.850   5.829
10548TIP3    H131587   5.811   0.848   5.894
10548TIP3    H231588   5.784   0.874   5.747
10549TIP3   OH231589   7.416   1.773   0.982
10549TIP3    H131590   7.357   1.702   1.008
10549TIP3    H231591   7.413   1.773   0.886
10550TIP3   OH231592   2.684   0.966   2.446
10550TIP3    H131593   2.665   1.059   2.435
10550TIP3    H231594   2.715   0.958   2.537
10551TIP3   OH231595   6.405   0.957   5.309
10551TIP3    H131596   6.470   0.971   5.378
10551TIP3    H231597   6.328   1.008   5.337
10552TIP3   OH231598   3.479   5.556   2.965
10552TIP3    H131599   3.431   5.522   3.041
10552TIP3    H231600   3.546   5.491   2.947
10553TIP3   OH231601   8.027   3.228   5.846
10553TIP3    H131602   7.986   3.189   5.770
10553TIP3    H231603   8.007   3.168   5.918
10554TIP3   OH231604   6.928   5.959   2.214
10554TIP3    H131605   6.890   6.047   2.207
10554TIP3    H231606   6.951   5.936   2.124
10555TIP3   OH231607   8.032   0.197   6.072
10555TIP3    H131608   8.081   0.276   6.095
10555TIP3    H231609   7.994   0.167   6.154
10556TIP3   OH231610   0.735   5.091   6.272
10556TIP3    H131611   0.683   5.169   6.293
10556TIP3    H231612   0.686   5.048   6.202
10557TIP3   OH231613   3.149   3.822   1.506
10557TIP3    H131614   3.076   3.847   1.562
10557TIP3    H231615   3.203   3.901   1.500
10558TIP3   OH231616   6.055   3.112   0.973
10558TIP3    H131617   5.981   3.171   0.956
10558TIP3    H231618   6.131   3.170   0.979
10559TIP3   OH231619   0.992   1.718   4.627
10559TIP3    H131620   0.956   1.805   4.609
10559TIP3    H231621   0.917   1.666   4.655
10560TIP3   OH231622   7.814   5.053   5.991
10560TIP3    H131623   7.776   5.110   6.058
10560TIP3    H231624   7.878   5.108   5.946
10561TIP3   OH231625   4.876   5.712   6.051
10561TIP3    H131626   4.829   5.753   5.980
10561TIP3    H231627   4.874   5.776   6.122
10562TIP3   OH231628   3.727   5.297   4.339
10562TIP3    H131629   3.651   5.241   4.356
10562TIP3    H231630   3.713   5.330   4.250
10563TIP3   OH231631   5.325   2.645   6.563
10563TIP3    H131632   5.243   2.649   6.514
10563TIP3    H231633   5.342   2.736   6.587
10564TIP3   OH231634   5.810   7.054   0.305
10564TIP3    H131635   5.773   6.974   0.343
10564TIP3    H231636   5.827   7.110   0.381
10565TIP3   OH231637   7.385   7.731   1.223
10565TIP3    H131638   7.460   7.676   1.200
10565TIP3    H231639   7.382   7.727   1.319
10566TIP3   OH231640   5.782   4.526   1.073
10566TIP3    H131641   5.784   4.436   1.041
10566TIP3    H231642   5.874   4.547   1.090
10567TIP3   OH231643   0.863   0.390   5.082
10567TIP3    H131644   0.942   0.425   5.040
10567TIP3    H231645   0.868   0.295   5.067
10568TIP3   OH231646   7.186   1.607   5.367
10568TIP3    H131647   7.227   1.693   5.359
10568TIP3    H231648   7.249   1.555   5.417
10569TIP3   OH231649   6.902   6.006   6.147
10569TIP3    H131650   6.843   5.985   6.075
10569TIP3    H231651   6.848   6.052   6.210
10570TIP3   OH231652   3.717   1.464   4.771
10570TIP3    H131653   3.766   1.467   4.854
10570TIP3    H231654   3.652   1.533   4.780
10571TIP3   OH231655   1.383   5.168   5.870
10571TIP3    H131656   1.444   5.242   5.875
10571TIP3    H231657   1.432   5.100   5.824
10572TIP3   OH231658   2.268   1.111   2.564
10572TIP3    H131659   2.259   1.178   2.632
10572TIP3    H231660   2.184   1.109   2.520
10573TIP3   OH231661   0.403   7.683   1.716
10573TIP3    H131662   0.344   7.633   1.772
10573TIP3    H231663   0.409   7.631   1.636
10574TIP3   OH231664   1.894   5.206   4.967
10574TIP3    H131665   1.897   5.283   4.911
10574TIP3    H231666   1.887   5.132   4.907
10575TIP3   OH231667   3.618   2.403   1.027
10575TIP3    H131668   3.568   2.462   0.971
10575TIP3    H231669   3.691   2.373   0.972
10576TIP3   OH231670   3.613   0.717   0.234
10576TIP3    H131671   3.571   0.690   0.316
10576TIP3    H231672   3.541   0.751   0.181
10577TIP3   OH231673   4.067   7.637   5.828
10577TIP3    H131674   4.056   7.711   5.767
10577TIP3    H231675   4.135   7.666   5.889
10578TIP3   OH231676   0.243   1.957   0.865
10578TIP3    H131677   0.337   1.937   0.860
10578TIP3    H231678   0.204   1.904   0.796
10579TIP3   OH231679   7.031   4.972   3.898
10579TIP3    H131680   6.973   5.039   3.863
10579TIP3    H231681   7.011   4.894   3.848
10580TIP3   OH231682   1.390   2.096   2.410
10580TIP3    H131683   1.429   2.143   2.336
10580TIP3    H231684   1.359   2.013   2.372
10581TIP3   OH231685   7.043   4.347   4.292
10581TIP3    H131686   7.123   4.392   4.266
10581TIP3    H231687   6.972   4.404   4.262
10582TIP3   OH231688   6.425   2.243   2.157
10582TIP3    H131689   6.478   2.318   2.129
10582TIP3    H231690   6.359   2.280   2.215
10583TIP3   OH231691   6.074   4.296   1.096
10583TIP3    H131692   6.103   4.306   1.187
10583TIP3    H231693   6.154   4.306   1.044
10584TIP3   OH231694   0.113   2.347   3.624
10584TIP3    H131695   0.063   2.305   3.554
10584TIP3    H231696   0.066   2.429   3.641
10585TIP3   OH231697   6.858   6.074   4.197
10585TIP3    H131698   6.852   5.983   4.225
10585TIP3    H231699   6.952   6.092   4.192
10586TIP3   OH231700   6.719   0.448   1.957
10586TIP3    H131701   6.652   0.469   2.023
10586TIP3    H231702   6.730   0.353   1.965
10587TIP3   OH231703   3.406   7.171   1.425
10587TIP3    H131704   3.424   7.216   1.342
10587TIP3    H231705   3.492   7.144   1.456
10588TIP3   OH231706   6.917   0.482   6.024
10588TIP3    H131707   6.992   0.532   6.057
10588TIP3    H231708   6.883   0.436   6.101
10589TIP3   OH231709   6.614   5.353   6.346
10589TIP3    H131710   6.623   5.382   6.255
10589TIP3    H231711   6.528   5.311   6.349
10590TIP3   OH231712   3.176   2.133   3.172
10590TIP3    H131713   3.229   2.082   3.110
10590TIP3    H231714   3.124   2.191   3.117
10591TIP3   OH231715   7.530   4.012   4.177
10591TIP3    H131716   7.604   3.952   4.179
10591TIP3    H231717   7.453   3.956   4.165
10592TIP3   OH231718   8.246   4.574   2.889
10592TIP3    H131719   8.303   4.611   2.956
10592TIP3    H231720   8.177   4.529   2.939
10593TIP3   OH231721   5.003   4.234   0.540
10593TIP3    H131722   4.909   4.250   0.537
10593TIP3    H231723   5.012   4.152   0.590
10594TIP3   OH231724   5.725   3.920   4.669
10594TIP3    H131725   5.754   3.974   4.742
10594TIP3    H231726   5.652   3.969   4.630
10595TIP3   OH231727   6.517   5.574   1.396
10595TIP3    H131728   6.483   5.639   1.335
10595TIP3    H231729   6.551   5.504   1.341
10596TIP3   OH231730   2.974   7.098   4.209
10596TIP3    H131731   2.914   7.086   4.135
10596TIP3    H231732   2.919   7.086   4.287
10597TIP3   OH231733   8.287   4.422   0.259
10597TIP3    H131734   8.218   4.447   0.321
10597TIP3    H231735   8.245   4.359   0.202
10598TIP3   OH231736   5.102   6.322   2.334
10598TIP3    H131737   5.113   6.411   2.300
10598TIP3    H231738   5.181   6.275   2.307
10599TIP3   OH231739   5.975   3.432   4.932
10599TIP3    H131740   5.936   3.429   4.845
10599TIP3    H231741   6.006   3.522   4.942
10600TIP3   OH231742   5.104   1.022   4.270
10600TIP3    H131743   5.152   1.081   4.328
10600TIP3    H231744   5.170   0.989   4.209
10601TIP3   OH231745   5.931   1.056   2.690
10601TIP3    H131746   5.863   1.068   2.755
10601TIP3    H231747   5.981   0.980   2.720
10602TIP3   OH231748   2.601   0.505   0.894
10602TIP3    H131749   2.510   0.525   0.916
10602TIP3    H231750   2.651   0.576   0.933
10603TIP3   OH231751   6.113   2.820   3.061
10603TIP3    H131752   6.177   2.813   2.990
10603TIP3    H231753   6.085   2.730   3.077
10604TIP3   OH231754   1.995   4.760   5.768
10604TIP3    H131755   1.982   4.850   5.797
10604TIP3    H231756   2.060   4.724   5.828
10605TIP3   OH231757   3.356   3.127   0.983
10605TIP3    H131758   3.447   3.137   0.958
10605TIP3    H231759   3.310   3.109   0.901
10606TIP3   OH231760   2.053   5.301   6.700
10606TIP3    H131761   1.967   5.260   6.699
10606TIP3    H231762   2.070   5.318   6.793
10607TIP3   OH231763   2.897   0.754   4.392
10607TIP3    H131764   2.851   0.823   4.344
10607TIP3    H231765   2.903   0.681   4.329
10608TIP3   OH231766   6.620   3.036   1.748
10608TIP3    H131767   6.710   3.014   1.772
10608TIP3    H231768   6.629   3.111   1.688
10609TIP3   OH231769   6.002   0.460   2.406
10609TIP3    H131770   6.026   0.411   2.484
10609TIP3    H231771   6.062   0.534   2.404
10610TIP3   OH231772   7.565   6.783   4.001
10610TIP3    H131773   7.483   6.807   3.958
10610TIP3    H231774   7.586   6.697   3.966
10611TIP3   OH231775   3.132   2.390   4.252
10611TIP3    H131776   3.092   2.327   4.311
10611TIP3    H231777   3.225   2.390   4.276
10612TIP3   OH231778   2.667   4.461   3.350
10612TIP3    H131779   2.709   4.475   3.265
10612TIP3    H231780   2.724   4.505   3.412
10613TIP3   OH231781   6.106   6.864   1.011
10613TIP3    H131782   6.166   6.791   0.994
10613TIP3    H231783   6.048   6.833   1.080
10614TIP3   OH231784   7.206   0.144   4.158
10614TIP3    H131785   7.163   0.228   4.175
10614TIP3    H231786   7.201   0.098   4.242
10615TIP3   OH231787   7.048   6.218   3.696
10615TIP3    H131788   7.012   6.268   3.622
10615TIP3    H231789   6.987   6.236   3.768
10616TIP3   OH231790   0.148   7.684   0.676
10616TIP3    H131791   0.232   7.659   0.636
10616TIP3    H231792   0.168   7.765   0.724
10617TIP3   OH231793   4.094   2.128   2.861
10617TIP3    H131794   4.024   2.079   2.906
10617TIP3    H231795   4.089   2.098   2.770
10618TIP3   OH231796   2.862   2.675   3.183
10618TIP3    H131797   2.838   2.644   3.270
10618TIP3    H231798   2.957   2.667   3.180
10619TIP3   OH231799   8.105   0.761   6.099
10619TIP3    H131800   8.192   0.746   6.136
10619TIP3    H231801   8.114   0.840   6.045
10620TIP3   OH231802   2.257   4.574   1.737
10620TIP3    H131803   2.340   4.621   1.747
10620TIP3    H231804   2.210   4.592   1.818
10621TIP3   OH231805   2.874   4.632   4.514
10621TIP3    H131806   2.956   4.637   4.563
10621TIP3    H231807   2.899   4.602   4.427
10622TIP3   OH231808   2.580   5.598   1.896
10622TIP3    H131809   2.665   5.593   1.852
10622TIP3    H231810   2.555   5.507   1.910
10623TIP3   OH231811   7.480   4.158   3.932
10623TIP3    H131812   7.491   4.195   4.019
10623TIP3    H231813   7.402   4.103   3.939
10624TIP3   OH231814   6.658   6.159   3.477
10624TIP3    H131815   6.743   6.139   3.437
10624TIP3    H231816   6.597   6.098   3.435
10625TIP3   OH231817   1.424   4.171   5.897
10625TIP3    H131818   1.472   4.088   5.903
10625TIP3    H231819   1.340   4.154   5.939
10626TIP3   OH231820   0.891   2.529   5.094
10626TIP3    H131821   0.806   2.519   5.137
10626TIP3    H231822   0.873   2.516   5.001
10627TIP3   OH231823   1.397   7.043   4.341
10627TIP3    H131824   1.311   7.040   4.384
10627TIP3    H231825   1.381   7.092   4.260
10628TIP3   OH231826   6.941   0.896   5.083
10628TIP3    H131827   6.970   0.981   5.116
10628TIP3    H231828   7.022   0.847   5.069
10629TIP3   OH231829   4.136   7.019   2.167
10629TIP3    H131830   4.216   7.022   2.114
10629TIP3    H231831   4.096   7.104   2.154
10630TIP3   OH231832   7.654   1.468   6.257
10630TIP3    H131833   7.568   1.435   6.284
10630TIP3    H231834   7.670   1.543   6.314
10631TIP3   OH231835   3.620   0.348   4.026
10631TIP3    H131836   3.576   0.373   3.945
10631TIP3    H231837   3.712   0.336   4.001
10632TIP3   OH231838   1.279   1.409   6.576
10632TIP3    H131839   1.270   1.325   6.622
10632TIP3    H231840   1.352   1.453   6.618
10633TIP3   OH231841   0.817   4.158   2.878
10633TIP3    H131842   0.825   4.065   2.861
10633TIP3    H231843   0.723   4.175   2.879
10634TIP3   OH231844   5.905   7.040   5.239
10634TIP3    H131845   5.977   7.102   5.233
10634TIP3    H231846   5.872   7.049   5.328
10635TIP3   OH231847   0.824   7.069   4.866
10635TIP3    H131848   0.874   7.121   4.803
10635TIP3    H231849   0.889   7.014   4.909
10636TIP3   OH231850   0.423   3.558   1.272
10636TIP3    H131851   0.404   3.651   1.266
10636TIP3    H231852   0.495   3.552   1.334
10637TIP3   OH231853   8.248   4.084   5.929
10637TIP3    H131854   8.342   4.068   5.924
10637TIP3    H231855   8.223   4.108   5.840
10638TIP3   OH231856   4.264   1.342   0.878
10638TIP3    H131857   4.207   1.419   0.873
10638TIP3    H231858   4.208   1.269   0.853
10639TIP3   OH231859   1.387   4.091   6.433
10639TIP3    H131860   1.424   4.148   6.500
10639TIP3    H231861   1.396   4.002   6.468
10640TIP3   OH231862   4.504   3.041   4.766
10640TIP3    H131863   4.435   2.978   4.746
10640TIP3    H231864   4.572   3.024   4.700
10641TIP3   OH231865   2.627   7.624   1.751
10641TIP3    H131866   2.681   7.582   1.817
10641TIP3    H231867   2.539   7.588   1.765
10642TIP3   OH231868   6.414   4.873   6.451
10642TIP3    H131869   6.394   4.868   6.357
10642TIP3    H231870   6.458   4.791   6.470
10643TIP3   OH231871   1.807   0.838   6.468
10643TIP3    H131872   1.782   0.746   6.474
10643TIP3    H231873   1.776   0.866   6.382
10644TIP3   OH231874   6.754   0.501   4.547
10644TIP3    H131875   6.663   0.513   4.521
10644TIP3    H231876   6.754   0.420   4.598
10645TIP3   OH231877   7.945   2.435   2.876
10645TIP3    H131878   7.876   2.371   2.858
10645TIP3    H231879   7.904   2.498   2.935
10646TIP3   OH231880   1.578   3.229   6.212
10646TIP3    H131881   1.588   3.324   6.220
10646TIP3    H231882   1.605   3.195   6.297
10647TIP3   OH231883   2.675   5.729   3.859
10647TIP3    H131884   2.655   5.704   3.949
10647TIP3    H231885   2.768   5.708   3.849
10648TIP3   OH231886   2.708   4.396   2.314
10648TIP3    H131887   2.717   4.480   2.359
10648TIP3    H231888   2.747   4.410   2.228
10649TIP3   OH231889   3.975   5.571   0.631
10649TIP3    H131890   3.883   5.592   0.645
10649TIP3    H231891   4.022   5.635   0.683
10650TIP3   OH231892   7.853   2.504   1.905
10650TIP3    H131893   7.904   2.538   1.979
10650TIP3    H231894   7.911   2.514   1.829
10651TIP3   OH231895   7.127   1.524   4.326
10651TIP3    H131896   7.132   1.620   4.332
10651TIP3    H231897   7.218   1.497   4.312
10652TIP3   OH231898   6.754   4.159   4.534
10652TIP3    H131899   6.664   4.180   4.559
10652TIP3    H231900   6.750   4.145   4.439
10653TIP3   OH231901   4.305   0.371   1.534
10653TIP3    H131902   4.310   0.447   1.476
10653TIP3    H231903   4.369   0.309   1.497
10654TIP3   OH231904   1.881   2.473   5.052
10654TIP3    H131905   1.835   2.553   5.026
10654TIP3    H231906   1.832   2.403   5.009
10655TIP3   OH231907   7.512   6.586   3.260
10655TIP3    H131908   7.512   6.492   3.276
10655TIP3    H231909   7.426   6.604   3.222
10656TIP3   OH231910   3.495   5.296   3.782
10656TIP3    H131911   3.459   5.381   3.808
10656TIP3    H231912   3.529   5.310   3.694
10657TIP3   OH231913   3.628   2.655   4.834
10657TIP3    H131914   3.601   2.563   4.840
10657TIP3    H231915   3.554   2.704   4.871
10658TIP3   OH231916   3.500   1.783   0.347
10658TIP3    H131917   3.549   1.720   0.293
10658TIP3    H231918   3.408   1.758   0.335
10659TIP3   OH231919   4.182   6.811   4.719
10659TIP3    H131920   4.151   6.849   4.637
10659TIP3    H231921   4.278   6.811   4.710
10660TIP3   OH231922   8.084   7.021   2.419
10660TIP3    H131923   8.123   7.018   2.507
10660TIP3    H231924   8.158   7.030   2.360
10661TIP3   OH231925   2.213   4.530   1.226
10661TIP3    H131926   2.199   4.559   1.316
10661TIP3    H231927   2.156   4.586   1.174
10662TIP3   OH231928   0.326   2.720   1.991
10662TIP3    H131929   0.413   2.736   1.956
10662TIP3    H231930   0.280   2.675   1.920
10663TIP3   OH231931   4.733   0.956   1.287
10663TIP3    H131932   4.750   1.049   1.274
10663TIP3    H231933   4.714   0.947   1.380
10664TIP3   OH231934   4.026   0.259   3.890
10664TIP3    H131935   4.091   0.238   3.824
10664TIP3    H231936   3.968   0.323   3.848
10665TIP3   OH231937   1.914   3.367   0.213
10665TIP3    H131938   1.903   3.432   0.143
10665TIP3    H231939   2.009   3.354   0.219
10666TIP3   OH231940   7.730   7.233   4.958
10666TIP3    H131941   7.651   7.182   4.939
10666TIP3    H231942   7.701   7.300   5.020
10667TIP3   OH231943   4.114   5.484   4.114
10667TIP3    H131944   4.182   5.543   4.148
10667TIP3    H231945   4.141   5.397   4.141
10668TIP3   OH231946   0.385   0.486   0.847
10668TIP3    H131947   0.379   0.400   0.806
10668TIP3    H231948   0.445   0.474   0.921
10669TIP3   OH231949   7.785   4.952   3.461
10669TIP3    H131950   7.835   4.965   3.380
10669TIP3    H231951   7.812   5.024   3.517
10670TIP3   OH231952   0.887   1.981   4.179
10670TIP3    H131953   0.859   2.072   4.168
10670TIP3    H231954   0.840   1.933   4.111
10671TIP3   OH231955   2.841   6.304   3.588
10671TIP3    H131956   2.928   6.331   3.559
10671TIP3    H231957   2.841   6.321   3.682
10672TIP3   OH231958   6.514   4.600   4.849
10672TIP3    H131959   6.508   4.606   4.754
10672TIP3    H231960   6.422   4.598   4.878
10673TIP3   OH231961   1.952   7.206   1.973
10673TIP3    H131962   2.037   7.239   1.943
10673TIP3    H231963   1.888   7.262   1.929
10674TIP3   OH231964   3.661   0.514   4.846
10674TIP3    H131965   3.645   0.503   4.753
10674TIP3    H231966   3.754   0.534   4.853
10675TIP3   OH231967   4.919   5.220   3.624
10675TIP3    H131968   4.915   5.145   3.565
10675TIP3    H231969   5.005   5.258   3.609
10676TIP3   OH231970   2.906   3.075   0.194
10676TIP3    H131971   2.987   3.059   0.242
10676TIP3    H231972   2.885   3.167   0.213
10677TIP3   OH231973   3.337   6.944   6.645
10677TIP3    H131974   3.414   6.995   6.621
10677TIP3    H231975   3.354   6.857   6.609
10678TIP3   OH231976   5.465   6.739   4.058
10678TIP3    H131977   5.471   6.654   4.102
10678TIP3    H231978   5.555   6.762   4.037
10679TIP3   OH231979   5.635   2.020   4.760
10679TIP3    H131980   5.554   1.990   4.720
10679TIP3    H231981   5.664   2.092   4.703
10680TIP3   OH231982   7.848   5.639   1.405
10680TIP3    H131983   7.758   5.607   1.407
10680TIP3    H231984   7.849   5.713   1.466
10681TIP3   OH231985   5.894   2.342   4.160
10681TIP3    H131986   5.955   2.314   4.228
10681TIP3    H231987   5.810   2.351   4.205
10682TIP3   OH231988   7.080   6.202   5.247
10682TIP3    H131989   7.101   6.293   5.270
10682TIP3    H231990   7.157   6.152   5.273
10683TIP3   OH231991   6.930   2.856   0.539
10683TIP3    H131992   6.956   2.807   0.617
10683TIP3    H231993   7.000   2.837   0.475
10684TIP3   OH231994   0.124   5.870   2.886
10684TIP3    H131995   0.176   5.950   2.879
10684TIP3    H231996   0.103   5.847   2.796
10685TIP3   OH231997   1.801   5.006   4.138
10685TIP3    H131998   1.846   4.950   4.075
10685TIP3    H231999   1.764   5.077   4.086
10686TIP3   OH232000   0.380   3.785   6.380
10686TIP3    H132001   0.467   3.795   6.341
10686TIP3    H232002   0.348   3.875   6.389
10687TIP3   OH232003   7.086   3.600   3.148
10687TIP3    H132004   7.035   3.522   3.128
10687TIP3    H232005   7.097   3.597   3.243
10688TIP3   OH232006   2.669   2.939   3.339
10688TIP3    H132007   2.652   2.942   3.433
10688TIP3    H232008   2.705   3.026   3.319
10689TIP3   OH232009   7.475   0.117   0.474
10689TIP3    H132010   7.497   0.063   0.551
10689TIP3    H232011   7.410   0.065   0.427
10690TIP3   OH232012   5.768   5.498   4.983
10690TIP3    H132013   5.738   5.550   5.057
10690TIP3    H232014   5.764   5.557   4.908
10691TIP3   OH232015   0.168   2.674   5.930
10691TIP3    H132016   0.263   2.675   5.938
10691TIP3    H232017   0.148   2.591   5.886
10692TIP3   OH232018   2.956   3.578   3.413
10692TIP3    H132019   2.892   3.529   3.361
10692TIP3    H232020   3.000   3.635   3.350
10693TIP3   OH232021   4.274   4.475   3.034
10693TIP3    H132022   4.336   4.546   3.051
10693TIP3    H232023   4.217   4.508   2.965
10694TIP3   OH232024   0.526   0.223   2.324
10694TIP3    H132025   0.552   0.183   2.408
10694TIP3    H232026   0.449   0.173   2.296
10695TIP3   OH232027   2.051   2.056   5.739
10695TIP3    H132028   2.097   2.135   5.710
10695TIP3    H232029   1.958   2.077   5.727
10696TIP3   OH232030   3.796   3.987   3.307
10696TIP3    H132031   3.812   3.896   3.280
10696TIP3    H232032   3.834   4.040   3.237
10697TIP3   OH232033   4.144   6.063   0.556
10697TIP3    H132034   4.222   6.076   0.502
10697TIP3    H232035   4.130   6.147   0.599
10698TIP3   OH232036   7.367   2.750   4.475
10698TIP3    H132037   7.323   2.833   4.492
10698TIP3    H232038   7.456   2.762   4.507
10699TIP3   OH232039   0.060   4.738   3.130
10699TIP3    H132040   0.014   4.659   3.160
10699TIP3    H232041   0.017   4.809   3.176
10700TIP3   OH232042   6.915   6.872   1.229
10700TIP3    H132043   6.837   6.818   1.214
10700TIP3    H232044   6.880   6.958   1.254
10701TIP3   OH232045   2.084   4.648   3.987
10701TIP3    H132046   2.066   4.573   3.930
10701TIP3    H232047   2.179   4.656   3.987
10702TIP3   OH232048   0.885   2.572   2.619
10702TIP3    H132049   0.825   2.584   2.546
10702TIP3    H232050   0.962   2.532   2.579
10703TIP3   OH232051   4.830   6.093   0.114
10703TIP3    H132052   4.812   6.066   0.204
10703TIP3    H232053   4.841   6.188   0.118
10704TIP3   OH232054   8.169   2.060   3.704
10704TIP3    H132055   8.121   1.995   3.652
10704TIP3    H232056   8.261   2.036   3.693
10705TIP3   OH232057   7.835   2.799   0.622
10705TIP3    H132058   7.788   2.738   0.565
10705TIP3    H232059   7.893   2.847   0.563
10706TIP3   OH232060   3.233   6.595   2.683
10706TIP3    H132061   3.152   6.646   2.688
10706TIP3    H232062   3.230   6.537   2.759
10707TIP3   OH232063   1.300   6.046   2.885
10707TIP3    H132064   1.388   6.010   2.892
10707TIP3    H232065   1.311   6.127   2.836
10708TIP3   OH232066   2.766   5.066   3.762
10708TIP3    H132067   2.717   5.013   3.699
10708TIP3    H232068   2.752   5.156   3.733
10709TIP3   OH232069   8.108   3.241   3.458
10709TIP3    H132070   8.018   3.223   3.485
10709TIP3    H232071   8.145   3.155   3.437
10710TIP3   OH232072   3.370   3.389   2.909
10710TIP3    H132073   3.447   3.441   2.885
10710TIP3    H232074   3.326   3.372   2.826
10711TIP3   OH232075   1.447   1.508   5.582
10711TIP3    H132076   1.443   1.413   5.591
10711TIP3    H232077   1.368   1.530   5.532
10712TIP3   OH232078   4.277   3.888   5.297
10712TIP3    H132079   4.345   3.894   5.365
10712TIP3    H232080   4.198   3.864   5.345
10713TIP3   OH232081   4.922   6.118   3.957
10713TIP3    H132082   4.995   6.059   3.974
10713TIP3    H232083   4.848   6.079   4.003
10714TIP3   OH232084   4.131   5.962   1.990
10714TIP3    H132085   4.096   6.051   1.984
10714TIP3    H232086   4.113   5.923   1.905
10715TIP3   OH232087   2.869   6.190   1.107
10715TIP3    H132088   2.891   6.169   1.198
10715TIP3    H232089   2.939   6.247   1.078
10716TIP3   OH232090   0.519   3.912   2.352
10716TIP3    H132091   0.460   3.978   2.315
10716TIP3    H232092   0.519   3.841   2.288
10717TIP3   OH232093   6.480   6.362   4.519
10717TIP3    H132094   6.561   6.316   4.542
10717TIP3    H232095   6.441   6.310   4.449
10718TIP3   OH232096   2.034   0.390   2.847
10718TIP3    H132097   2.030   0.306   2.801
10718TIP3    H232098   2.089   0.445   2.791
10719TIP3   OH232099   2.762   0.991   0.122
10719TIP3    H132100   2.727   0.902   0.122
10719TIP3    H232101   2.831   0.990   0.055
10720TIP3   OH232102   5.949   5.167   2.060
10720TIP3    H132103   5.863   5.179   2.019
10720TIP3    H232104   5.962   5.072   2.061
10721TIP3   OH232105   0.214   3.004   3.266
10721TIP3    H132106   0.244   3.082   3.220
10721TIP3    H232107   0.295   2.964   3.299
10722TIP3   OH232108   0.767   2.022   6.461
10722TIP3    H132109   0.832   2.014   6.531
10722TIP3    H232110   0.819   2.034   6.381
10723TIP3   OH232111   2.175   0.634   2.812
10723TIP3    H132112   2.202   0.683   2.734
10723TIP3    H232113   2.218   0.680   2.884
10724TIP3   OH232114   4.164   3.535   3.955
10724TIP3    H132115   4.111   3.544   3.876
10724TIP3    H232116   4.205   3.449   3.948
10725TIP3   OH232117   7.111   1.693   1.004
10725TIP3    H132118   7.072   1.606   0.994
10725TIP3    H232119   7.050   1.752   0.960
10726TIP3   OH232120   8.207   0.242   2.155
10726TIP3    H132121   8.165   0.167   2.112
10726TIP3    H232122   8.174   0.318   2.107
10727TIP3   OH232123   5.124   5.367   5.661
10727TIP3    H132124   5.061   5.350   5.591
10727TIP3    H232125   5.082   5.432   5.716
10728TIP3   OH232126   3.137   4.152   2.916
10728TIP3    H132127   3.192   4.116   2.846
10728TIP3    H232128   3.198   4.198   2.973
10729TIP3   OH232129   5.094   3.148   1.412
10729TIP3    H132130   5.054   3.067   1.381
10729TIP3    H232131   5.020   3.207   1.430
10730TIP3   OH232132   0.585   2.771   1.956
10730TIP3    H132133   0.618   2.847   2.005
10730TIP3    H232134   0.662   2.716   1.942
10731TIP3   OH232135   4.618   6.307   1.150
10731TIP3    H132136   4.554   6.244   1.117
10731TIP3    H232137   4.680   6.254   1.200
10732TIP3   OH232138   6.078   1.157   3.618
10732TIP3    H132139   6.077   1.126   3.528
10732TIP3    H232140   6.110   1.083   3.669
10733TIP3   OH232141   3.168   0.759   2.042
10733TIP3    H132142   3.148   0.792   2.130
10733TIP3    H232143   3.082   0.750   2.000
10734TIP3   OH232144   0.559   3.127   6.173
10734TIP3    H132145   0.641   3.161   6.210
10734TIP3    H232146   0.491   3.159   6.232
10735TIP3   OH232147   7.819   6.535   0.715
10735TIP3    H132148   7.756   6.571   0.777
10735TIP3    H232149   7.851   6.611   0.666
10736TIP3   OH232150   2.229   0.314   6.796
10736TIP3    H132151   2.317   0.346   6.774
10736TIP3    H232152   2.234   0.290   6.889
10737TIP3   OH232153   7.055   7.005   3.929
10737TIP3    H132154   7.112   6.981   3.856
10737TIP3    H232155   7.115   7.017   4.003
10738TIP3   OH232156   1.521   2.894   1.273
10738TIP3    H132157   1.582   2.967   1.284
10738TIP3    H232158   1.532   2.842   1.352
10739TIP3   OH232159   1.515   5.619   3.329
10739TIP3    H132160   1.593   5.596   3.278
10739TIP3    H232161   1.525   5.712   3.347
10740TIP3   OH232162   4.455   6.602   3.103
10740TIP3    H132163   4.455   6.506   3.112
10740TIP3    H232164   4.363   6.627   3.116
10741TIP3   OH232165   4.981   4.028   0.909
10741TIP3    H132166   4.924   4.102   0.929
10741TIP3    H232167   5.068   4.066   0.901
10742TIP3   OH232168   2.155   6.254   1.742
10742TIP3    H132169   2.204   6.326   1.782
10742TIP3    H232170   2.187   6.250   1.652
10743TIP3   OH232171   5.732   7.232   0.495
10743TIP3    H132172   5.703   7.161   0.553
10743TIP3    H232173   5.672   7.304   0.512
10744TIP3   OH232174   2.397   3.188   6.198
10744TIP3    H132175   2.338   3.188   6.123
10744TIP3    H232176   2.475   3.234   6.168
10745TIP3   OH232177   6.790   2.838   2.222
10745TIP3    H132178   6.734   2.892   2.165
10745TIP3    H232179   6.811   2.895   2.296
10746TIP3   OH232180   7.664   0.690   3.740
10746TIP3    H132181   7.633   0.742   3.814
10746TIP3    H232182   7.655   0.600   3.768
10747TIP3   OH232183   0.500   2.498   4.543
10747TIP3    H132184   0.434   2.460   4.601
10747TIP3    H232185   0.556   2.424   4.518
10748TIP3   OH232186   1.686   5.376   6.139
10748TIP3    H132187   1.595   5.402   6.152
10748TIP3    H232188   1.698   5.300   6.196
10749TIP3   OH232189   5.818   5.947   1.846
10749TIP3    H132190   5.783   5.861   1.821
10749TIP3    H232191   5.876   5.928   1.920
10750TIP3   OH232192   0.881   4.117   6.617
10750TIP3    H132193   0.886   4.091   6.525
10750TIP3    H232194   0.897   4.036   6.666
10751TIP3   OH232195   2.572   7.657   5.181
10751TIP3    H132196   2.502   7.653   5.115
10751TIP3    H232197   2.653   7.662   5.130
10752TIP3   OH232198   2.478   2.812   4.650
10752TIP3    H132199   2.420   2.877   4.610
10752TIP3    H232200   2.464   2.822   4.744
10753TIP3   OH232201   6.149   5.998   1.402
10753TIP3    H132202   6.075   5.992   1.341
10753TIP3    H232203   6.182   6.087   1.391
10754TIP3   OH232204   5.424   5.979   4.446
10754TIP3    H132205   5.423   6.018   4.533
10754TIP3    H232206   5.507   5.931   4.442
10755TIP3   OH232207   7.196   3.726   4.779
10755TIP3    H132208   7.189   3.652   4.839
10755TIP3    H232209   7.213   3.687   4.693
10756TIP3   OH232210   3.007   7.438   4.300
10756TIP3    H132211   3.003   7.520   4.349
10756TIP3    H232212   2.916   7.414   4.285
10757TIP3   OH232213   6.178   7.086   0.222
10757TIP3    H132214   6.090   7.117   0.200
10757TIP3    H232215   6.167   6.993   0.241
10758TIP3   OH232216   7.452   7.398   5.452
10758TIP3    H132217   7.409   7.326   5.498
10758TIP3    H232218   7.495   7.449   5.521
10759TIP3   OH232219   1.259   5.263   3.051
10759TIP3    H132220   1.203   5.199   3.095
10759TIP3    H232221   1.340   5.263   3.101
10760TIP3   OH232222   1.558   3.463   2.683
10760TIP3    H132223   1.649   3.490   2.677
10760TIP3    H232224   1.561   3.375   2.721
10761TIP3   OH232225   1.252   2.222   4.899
10761TIP3    H132226   1.261   2.132   4.870
10761TIP3    H232227   1.300   2.225   4.981
10762TIP3   OH232228   4.556   4.249   6.538
10762TIP3    H132229   4.477   4.206   6.505
10762TIP3    H232230   4.529   4.340   6.552
10763TIP3   OH232231   0.429   2.605   6.268
10763TIP3    H132232   0.491   2.649   6.211
10763TIP3    H232233   0.478   2.530   6.303
10764TIP3   OH232234   7.942   0.743   5.797
10764TIP3    H132235   7.881   0.732   5.724
10764TIP3    H232236   7.916   0.825   5.839
10765TIP3   OH232237   3.929   1.878   1.504
10765TIP3    H132238   3.952   1.934   1.430
10765TIP3    H232239   4.011   1.868   1.553
10766TIP3   OH232240   3.556   1.109   0.935
10766TIP3    H132241   3.507   1.027   0.946
10766TIP3    H232242   3.544   1.154   1.019
10767TIP3   OH232243   5.075   6.601   1.471
10767TIP3    H132244   4.980   6.606   1.465
10767TIP3    H232245   5.097   6.512   1.443
10768TIP3   OH232246   4.878   6.620   4.700
10768TIP3    H132247   4.856   6.641   4.791
10768TIP3    H232248   4.973   6.635   4.695
10769TIP3   OH232249   2.349   5.262   0.517
10769TIP3    H132250   2.439   5.264   0.548
10769TIP3    H232251   2.311   5.183   0.556
10770TIP3   OH232252   1.880   0.793   5.283
10770TIP3    H132253   1.897   0.748   5.366
10770TIP3    H232254   1.851   0.881   5.309
10771TIP3   OH232255   3.082   2.734   5.046
10771TIP3    H132256   3.137   2.683   5.106
10771TIP3    H232257   3.041   2.669   4.989
10772TIP3   OH232258   6.663   7.748   6.107
10772TIP3    H132259   6.671   7.708   6.021
10772TIP3    H232260   6.646   7.841   6.089
10773TIP3   OH232261   5.359   3.341   0.764
10773TIP3    H132262   5.294   3.288   0.720
10773TIP3    H232263   5.323   3.430   0.763
10774TIP3   OH232264   5.656   0.139   5.060
10774TIP3    H132265   5.574   0.128   5.012
10774TIP3    H232266   5.636   0.109   5.149
10775TIP3   OH232267   3.099   2.396   0.024
10775TIP3    H132268   3.135   2.464  -0.034
10775TIP3    H232269   3.058   2.446   0.095
10776TIP3   OH232270   4.021   2.536   3.728
10776TIP3    H132271   3.984   2.541   3.816
10776TIP3    H232272   4.107   2.494   3.741
10777TIP3   OH232273   2.804   4.650   1.814
10777TIP3    H132274   2.794   4.738   1.779
10777TIP3    H232275   2.717   4.627   1.846
10778TIP3   OH232276   8.272   1.490   2.097
10778TIP3    H132277   8.241   1.465   2.010
10778TIP3    H232278   8.226   1.572   2.116
10779TIP3   OH232279   3.780   3.791   5.576
10779TIP3    H132280   3.710   3.740   5.616
10779TIP3    H232281   3.750   3.808   5.487
10780TIP3   OH232282   1.752   2.451   4.412
10780TIP3    H132283   1.748   2.545   4.431
10780TIP3    H232284   1.765   2.446   4.318
10781TIP3   OH232285   8.046   3.359   5.099
10781TIP3    H132286   8.057   3.363   5.193
10781TIP3    H232287   8.073   3.446   5.068
10782TIP3   OH232288   6.479   6.289   5.933
10782TIP3    H132289   6.542   6.257   5.868
10782TIP3    H232290   6.521   6.274   6.017
10783TIP3   OH232291   6.636   7.317   0.626
10783TIP3    H132292   6.712   7.299   0.681
10783TIP3    H232293   6.627   7.413   0.629
10784TIP3   OH232294   3.230   4.814   6.161
10784TIP3    H132295   3.293   4.745   6.181
10784TIP3    H232296   3.272   4.864   6.090
10785TIP3   OH232297   6.013   3.201   1.939
10785TIP3    H132298   5.917   3.193   1.937
10785TIP3    H232299   6.044   3.129   1.886
10786TIP3   OH232300   5.047   6.374   0.872
10786TIP3    H132301   5.020   6.285   0.894
10786TIP3    H232302   5.048   6.420   0.957
10787TIP3   OH232303   2.608   0.485   3.407
10787TIP3    H132304   2.602   0.390   3.399
10787TIP3    H232305   2.676   0.500   3.473
10788TIP3   OH232306   7.580   1.960   2.685
10788TIP3    H132307   7.658   2.017   2.683
10788TIP3    H232308   7.558   1.954   2.778
10789TIP3   OH232309   3.551   5.001   5.491
10789TIP3    H132310   3.553   5.084   5.540
10789TIP3    H232311   3.514   5.024   5.406
10790TIP3   OH232312   6.866   3.936   1.496
10790TIP3    H132313   6.811   3.871   1.539
10790TIP3    H232314   6.844   4.018   1.539
10791TIP3   OH232315   2.198   2.015   3.336
10791TIP3    H132316   2.114   1.996   3.379
10791TIP3    H232317   2.209   2.109   3.345
10792TIP3   OH232318   7.609   0.729   1.886
10792TIP3    H132319   7.575   0.788   1.819
10792TIP3    H232320   7.531   0.703   1.936
10793TIP3   OH232321   8.021   3.849   1.000
10793TIP3    H132322   7.967   3.926   1.020
10793TIP3    H232323   7.966   3.774   1.025
10794TIP3   OH232324   7.603   5.725   0.558
10794TIP3    H132325   7.545   5.747   0.485
10794TIP3    H232326   7.589   5.795   0.622
10795TIP3   OH232327   5.823   6.702   2.094
10795TIP3    H132328   5.890   6.675   2.032
10795TIP3    H232329   5.857   6.676   2.180
10796TIP3   OH232330   5.296   0.308   5.834
10796TIP3    H132331   5.345   0.391   5.832
10796TIP3    H232332   5.224   0.321   5.773
10797TIP3   OH232333   3.950   6.430   3.104
10797TIP3    H132334   3.894   6.393   3.173
10797TIP3    H232335   3.949   6.365   3.035
10798TIP3   OH232336   4.343   5.952   3.466
10798TIP3    H132337   4.351   5.869   3.419
10798TIP3    H232338   4.263   5.942   3.519
10799TIP3   OH232339   2.605   5.054   1.992
10799TIP3    H132340   2.523   5.051   1.943
10799TIP3    H232341   2.606   4.972   2.042
10800TIP3   OH232342   0.271   5.166   1.107
10800TIP3    H132343   0.260   5.259   1.091
10800TIP3    H232344   0.283   5.128   1.020
10801TIP3   OH232345   4.486   6.005   3.696
10801TIP3    H132346   4.522   6.091   3.717
10801TIP3    H232347   4.457   6.012   3.605
10802TIP3   OH232348   4.441   6.143   5.512
10802TIP3    H132349   4.503   6.129   5.440
10802TIP3    H232350   4.490   6.122   5.591
10803TIP3   OH232351   5.325   3.265   6.651
10803TIP3    H132352   5.410   3.241   6.614
10803TIP3    H232353   5.321   3.218   6.734
10804TIP3   OH232354   4.194   4.902   1.611
10804TIP3    H132355   4.277   4.875   1.571
10804TIP3    H232356   4.161   4.971   1.554
10805TIP3   OH232357   4.396   3.429   6.332
10805TIP3    H132358   4.488   3.413   6.309
10805TIP3    H232359   4.364   3.343   6.360
10806TIP3   OH232360   2.165   2.018   6.006
10806TIP3    H132361   2.163   2.109   6.034
10806TIP3    H232362   2.108   2.015   5.929
10807TIP3   OH232363   6.195   3.215   0.671
10807TIP3    H132364   6.158   3.302   0.664
10807TIP3    H232365   6.240   3.215   0.756
10808TIP3   OH232366   5.909   6.516   4.240
10808TIP3    H132367   5.977   6.535   4.304
10808TIP3    H232368   5.945   6.545   4.157
10809TIP3   OH232369   2.633   3.243   3.021
10809TIP3    H132370   2.690   3.168   3.006
10809TIP3    H232371   2.645   3.265   3.113
10810TIP3   OH232372   2.782   5.962   4.615
10810TIP3    H132373   2.763   6.054   4.631
10810TIP3    H232374   2.866   5.962   4.568
10811TIP3   OH232375   5.748   4.626   2.894
10811TIP3    H132376   5.774   4.697   2.835
10811TIP3    H232377   5.831   4.592   2.928
10812TIP3   OH232378   7.278   0.702   0.812
10812TIP3    H132379   7.205   0.642   0.826
10812TIP3    H232380   7.239   0.789   0.823
10813TIP3   OH232381   3.960   6.345   0.264
10813TIP3    H132382   3.965   6.431   0.223
10813TIP3    H232383   4.043   6.335   0.310
10814TIP3   OH232384   2.815   2.634   3.647
10814TIP3    H132385   2.823   2.583   3.728
10814TIP3    H232386   2.824   2.570   3.577
10815TIP3   OH232387   3.353   7.108   3.082
10815TIP3    H132388   3.280   7.169   3.073
10815TIP3    H232389   3.349   7.078   3.173
10816TIP3   OH232390   1.048   0.300   1.145
10816TIP3    H132391   1.135   0.330   1.118
10816TIP3    H232392   0.990   0.374   1.125
10817TIP3   OH232393   7.662   7.209   3.793
10817TIP3    H132394   7.747   7.252   3.786
10817TIP3    H232395   7.636   7.192   3.702
10818TIP3   OH232396   8.215   2.020   5.285
10818TIP3    H132397   8.274   1.996   5.357
10818TIP3    H232398   8.186   2.109   5.306
10819TIP3   OH232399   5.432   5.814   0.384
10819TIP3    H132400   5.410   5.891   0.331
10819TIP3    H232401   5.516   5.837   0.425
10820TIP3   OH232402   6.704   1.746   3.063
10820TIP3    H132403   6.681   1.656   3.086
10820TIP3    H232404   6.620   1.791   3.054
10821TIP3   OH232405   3.197   6.249   0.439
10821TIP3    H132406   3.253   6.282   0.510
10821TIP3    H232407   3.135   6.190   0.482
10822TIP3   OH232408   3.645   0.305   5.034
10822TIP3    H132409   3.650   0.390   4.992
10822TIP3    H232410   3.573   0.313   5.097
10823TIP3   OH232411   0.200   0.653   3.900
10823TIP3    H132412   0.165   0.735   3.935
10823TIP3    H232413   0.130   0.618   3.846
10824TIP3   OH232414   8.081   6.626   5.950
10824TIP3    H132415   8.071   6.701   6.008
10824TIP3    H232416   8.058   6.660   5.863
10825TIP3   OH232417   3.764   4.876   5.605
10825TIP3    H132418   3.689   4.920   5.564
10825TIP3    H232419   3.725   4.808   5.660
10826TIP3   OH232420   6.471   2.298   1.363
10826TIP3    H132421   6.415   2.233   1.320
10826TIP3    H232422   6.537   2.321   1.297
10827TIP3   OH232423   6.974   1.302   3.747
10827TIP3    H132424   6.901   1.306   3.686
10827TIP3    H232425   7.027   1.379   3.726
10828TIP3   OH232426   6.517   4.683   3.488
10828TIP3    H132427   6.609   4.693   3.512
10828TIP3    H232428   6.470   4.684   3.572
10829TIP3   OH232429   3.298   4.918   4.232
10829TIP3    H132430   3.230   4.972   4.192
10829TIP3    H232431   3.250   4.847   4.275
10830TIP3   OH232432   7.614   4.597   5.019
10830TIP3    H132433   7.589   4.555   5.101
10830TIP3    H232434   7.615   4.691   5.039
10831TIP3   OH232435   8.105   2.513   6.670
10831TIP3    H132436   8.183   2.457   6.671
10831TIP3    H232437   8.045   2.473   6.733
10832TIP3   OH232438   7.557   4.256   0.799
10832TIP3    H132439   7.556   4.164   0.771
10832TIP3    H232440   7.505   4.302   0.733
10833TIP3   OH232441   3.764   0.929   2.070
10833TIP3    H132442   3.700   0.910   2.002
10833TIP3    H232443   3.749   0.863   2.137
10834TIP3   OH232444   5.817   1.221   3.386
10834TIP3    H132445   5.882   1.288   3.362
10834TIP3    H232446   5.737   1.247   3.340
10835TIP3   OH232447   3.676   0.980   0.581
10835TIP3    H132448   3.725   1.042   0.527
10835TIP3    H232449   3.696   1.006   0.671
10836TIP3   OH232450   5.265   0.908   3.034
10836TIP3    H132451   5.291   0.956   3.113
10836TIP3    H232452   5.247   0.977   2.970
10837TIP3   OH232453   3.185   6.796   4.977
10837TIP3    H132454   3.278   6.775   4.984
10837TIP3    H232455   3.140   6.718   5.011
10838TIP3   OH232456   1.680   3.921   1.353
10838TIP3    H132457   1.682   4.016   1.343
10838TIP3    H232458   1.607   3.893   1.297
10839TIP3   OH232459   2.855   0.176   6.274
10839TIP3    H132460   2.944   0.185   6.241
10839TIP3    H232461   2.866   0.143   6.363
10840TIP3   OH232462   0.963   2.715   5.865
10840TIP3    H132463   0.947   2.644   5.803
10840TIP3    H232464   1.003   2.673   5.941
10841TIP3   OH232465   2.795   6.454   3.316
10841TIP3    H132466   2.852   6.394   3.365
10841TIP3    H232467   2.710   6.448   3.360
10842TIP3   OH232468   6.546   1.293   4.690
10842TIP3    H132469   6.542   1.197   4.685
10842TIP3    H232470   6.594   1.318   4.611
10843TIP3   OH232471   3.777   3.835   6.714
10843TIP3    H132472   3.813   3.826   6.626
10843TIP3    H232473   3.808   3.920   6.744
10844TIP3   OH232474   1.971   5.511   6.474
10844TIP3    H132475   1.893   5.456   6.464
10844TIP3    H232476   2.044   5.449   6.471
10845TIP3   OH232477   5.217   0.562   6.032
10845TIP3    H132478   5.271   0.576   5.954
10845TIP3    H232479   5.275   0.515   6.093
10846TIP3   OH232480   7.793   6.872   5.735
10846TIP3    H132481   7.718   6.814   5.751
10846TIP3    H232482   7.787   6.894   5.642
10847TIP3   OH232483   6.168   3.302   0.318
10847TIP3    H132484   6.185   3.226   0.374
10847TIP3    H232485   6.228   3.289   0.244
10848TIP3   OH232486   4.726   3.940   4.710
10848TIP3    H132487   4.811   3.963   4.672
10848TIP3    H232488   4.718   3.846   4.695
10849TIP3   OH232489   6.339   0.293   5.777
10849TIP3    H132490   6.361   0.384   5.796
10849TIP3    H232491   6.261   0.276   5.829
10850TIP3   OH232492   7.097   5.147   3.552
10850TIP3    H132493   7.111   5.240   3.538
10850TIP3    H232494   7.160   5.104   3.494
10851TIP3   OH232495   1.443   0.844   4.144
10851TIP3    H132496   1.391   0.866   4.221
10851TIP3    H232497   1.384   0.859   4.070
10852TIP3   OH232498   1.936   2.704   2.270
10852TIP3    H132499   1.888   2.769   2.321
10852TIP3    H232500   1.871   2.669   2.209
10853TIP3   OH232501   0.872   2.958   1.088
10853TIP3    H132502   0.814   3.033   1.073
10853TIP3    H232503   0.881   2.954   1.183
10854TIP3   OH232504   7.300   5.409   1.116
10854TIP3    H132505   7.270   5.471   1.183
10854TIP3    H232506   7.251   5.434   1.037
10855TIP3   OH232507   3.041   5.423   0.774
10855TIP3    H132508   2.965   5.481   0.777
10855TIP3    H232509   3.019   5.351   0.832
10856TIP3   OH232510   6.775   6.425   2.030
10856TIP3    H132511   6.708   6.377   1.981
10856TIP3    H232512   6.822   6.476   1.964
10857TIP3   OH232513   5.308   7.484   6.215
10857TIP3    H132514   5.372   7.517   6.279
10857TIP3    H232515   5.346   7.505   6.130
10858TIP3   OH232516   2.347   3.755   0.364
10858TIP3    H132517   2.309   3.753   0.452
10858TIP3    H232518   2.440   3.740   0.377
10859TIP3   OH232519   2.152   3.594   4.391
10859TIP3    H132520   2.152   3.617   4.298
10859TIP3    H232521   2.141   3.498   4.392
10860TIP3   OH232522   5.810   2.326   1.430
10860TIP3    H132523   5.884   2.372   1.391
10860TIP3    H232524   5.734   2.382   1.409
10861TIP3   OH232525   6.011   2.808   5.988
10861TIP3    H132526   6.036   2.757   6.066
10861TIP3    H232527   6.031   2.750   5.914
10862TIP3   OH232528   4.810   4.274   4.765
10862TIP3    H132529   4.843   4.203   4.820
10862TIP3    H232530   4.819   4.241   4.675
10863TIP3   OH232531   6.344   4.651   0.452
10863TIP3    H132532   6.425   4.662   0.502
10863TIP3    H232533   6.373   4.615   0.368
10864TIP3   OH232534   5.943   6.268   1.353
10864TIP3    H132535   5.921   6.361   1.347
10864TIP3    H232536   6.038   6.266   1.371
10865TIP3   OH232537   3.223   3.712   5.990
10865TIP3    H132538   3.128   3.708   5.984
10865TIP3    H232539   3.240   3.783   6.053
10866TIP3   OH232540   1.937   3.947   3.910
10866TIP3    H132541   1.920   3.871   3.854
10866TIP3    H232542   1.886   4.018   3.870
10867TIP3   OH232543   2.624   3.869   3.523
10867TIP3    H132544   2.572   3.911   3.454
10867TIP3    H232545   2.690   3.934   3.546
10868TIP3   OH232546   1.063   0.666   1.338
10868TIP3    H132547   0.988   0.625   1.296
10868TIP3    H232548   1.111   0.708   1.267
10869TIP3   OH232549   3.960   5.646   5.684
10869TIP3    H132550   3.881   5.685   5.647
10869TIP3    H232551   4.002   5.719   5.730
10870TIP3   OH232552   0.546   0.222   5.241
10870TIP3    H132553   0.522   0.135   5.273
10870TIP3    H232554   0.547   0.213   5.146
10871TIP3   OH232555  -0.052   3.000   1.369
10871TIP3    H132556   0.012   3.004   1.440
10871TIP3    H232557  -0.074   3.091   1.352
10872TIP3   OH232558   2.545   0.903   4.150
10872TIP3    H132559   2.511   0.989   4.173
10872TIP3    H232560   2.479   0.868   4.089
10873TIP3   OH232561   7.803   7.666   1.927
10873TIP3    H132562   7.888   7.705   1.908
10873TIP3    H232563   7.816   7.616   2.007
10874TIP3   OH232564   2.574   6.036   4.845
10874TIP3    H132565   2.613   6.124   4.849
10874TIP3    H232566   2.512   6.041   4.772
10875TIP3   OH232567   4.362   0.674   3.789
10875TIP3    H132568   4.272   0.682   3.821
10875TIP3    H232569   4.416   0.684   3.868
10876TIP3   OH232570   1.093   0.608   5.811
10876TIP3    H132571   1.138   0.673   5.865
10876TIP3    H232572   1.131   0.619   5.724
10877TIP3   OH232573   7.737   1.964   5.505
10877TIP3    H132574   7.806   1.995   5.447
10877TIP3    H232575   7.749   2.013   5.587
10878TIP3   OH232576   5.771   6.474   2.941
10878TIP3    H132577   5.724   6.557   2.937
10878TIP3    H232578   5.718   6.414   2.890
10879TIP3   OH232579   4.331   2.286   0.417
10879TIP3    H132580   4.287   2.283   0.332
10879TIP3    H232581   4.284   2.221   0.470
10880TIP3   OH232582   7.589   6.387   0.065
10880TIP3    H132583   7.516   6.325   0.063
10880TIP3    H232584   7.667   6.332   0.052
10881TIP3   OH232585   5.474   1.151   5.252
10881TIP3    H132586   5.532   1.225   5.270
10881TIP3    H232587   5.532   1.082   5.220
10882TIP3   OH232588   1.942   7.261   4.732
10882TIP3    H132589   1.999   7.190   4.704
10882TIP3    H232590   1.977   7.289   4.816
10883TIP3   OH232591   3.771   1.237   1.574
10883TIP3    H132592   3.763   1.330   1.593
10883TIP3    H232593   3.681   1.208   1.558
10884TIP3   OH232594   1.255   1.722   1.827
10884TIP3    H132595   1.292   1.671   1.899
10884TIP3    H232596   1.200   1.787   1.870
10885TIP3   OH232597   2.240   7.333   1.412
10885TIP3    H132598   2.145   7.324   1.419
10885TIP3    H232599   2.253   7.425   1.389
10886TIP3   OH232600   3.724   5.795   6.278
10886TIP3    H132601   3.751   5.787   6.370
10886TIP3    H232602   3.804   5.781   6.228
10887TIP3   OH232603   0.786   6.244   5.937
10887TIP3    H132604   0.872   6.200   5.937
10887TIP3    H232605   0.790   6.304   5.862
10888TIP3   OH232606   0.293   4.851   4.739
10888TIP3    H132607   0.281   4.757   4.751
10888TIP3    H232608   0.219   4.891   4.785
10889TIP3   OH232609   0.289   2.731   0.208
10889TIP3    H132610   0.257   2.747   0.296
10889TIP3    H232611   0.232   2.783   0.152
10890TIP3   OH232612   4.245   5.438   1.791
10890TIP3    H132613   4.326   5.430   1.741
10890TIP3    H232614   4.240   5.531   1.813
10891TIP3   OH232615   3.597   7.032   4.733
10891TIP3    H132616   3.619   7.120   4.761
10891TIP3    H232617   3.678   6.998   4.695
10892TIP3   OH232618   1.569   2.471   5.381
10892TIP3    H132619   1.482   2.498   5.408
10892TIP3    H232620   1.611   2.442   5.462
10893TIP3   OH232621   2.879   2.846   5.257
10893TIP3    H132622   2.952   2.868   5.198
10893TIP3    H232623   2.824   2.924   5.256
10894TIP3   OH232624   4.056   4.953   5.036
10894TIP3    H132625   4.100   4.991   5.112
10894TIP3    H232626   4.069   5.018   4.966
10895TIP3   OH232627   7.062   0.237   4.969
10895TIP3    H132628   7.107   0.183   5.034
10895TIP3    H232629   7.111   0.319   4.967
10896TIP3   OH232630   5.755   0.620   1.136
10896TIP3    H132631   5.689   0.560   1.102
10896TIP3    H232632   5.706   0.699   1.158
10897TIP3   OH232633   1.662   2.831   3.145
10897TIP3    H132634   1.713   2.807   3.067
10897TIP3    H232635   1.625   2.749   3.176
10898TIP3   OH232636   3.425   1.401   3.419
10898TIP3    H132637   3.420   1.354   3.335
10898TIP3    H232638   3.373   1.480   3.405
10899TIP3   OH232639   2.406   6.198   2.821
10899TIP3    H132640   2.492   6.222   2.858
10899TIP3    H232641   2.384   6.270   2.763
10900TIP3   OH232642   5.242   1.185   3.099
10900TIP3    H132643   5.196   1.193   3.015
10900TIP3    H232644   5.335   1.181   3.075
10901TIP3   OH232645   1.028   1.334   2.905
10901TIP3    H132646   0.986   1.327   2.991
10901TIP3    H232647   0.955   1.348   2.844
10902TIP3   OH232648   4.233   5.391   0.319
10902TIP3    H132649   4.240   5.331   0.393
10902TIP3    H232650   4.301   5.457   0.336
10903TIP3   OH232651   1.958   0.332   5.034
10903TIP3    H132652   1.896   0.388   5.081
10903TIP3    H232653   1.905   0.259   5.004
10904TIP3   OH232654   5.477   2.038   0.138
10904TIP3    H132655   5.444   2.034   0.048
10904TIP3    H232656   5.403   2.070   0.189
10905TIP3   OH232657   1.834   1.121   3.593
10905TIP3    H132658   1.883   1.055   3.641
10905TIP3    H232659   1.744   1.088   3.591
10906TIP3   OH232660   1.035   0.760   5.009
10906TIP3    H132661   1.034   0.814   4.930
10906TIP3    H232662   1.118   0.712   5.005
10907TIP3   OH232663   4.303   4.235   6.484
10907TIP3    H132664   4.240   4.201   6.421
10907TIP3    H232665   4.253   4.298   6.536
10908TIP3   OH232666   2.486   1.528   6.508
10908TIP3    H132667   2.536   1.452   6.479
10908TIP3    H232668   2.401   1.493   6.535
10909TIP3   OH232669   4.967   6.593   6.617
10909TIP3    H132670   4.992   6.505   6.588
10909TIP3    H232671   4.872   6.594   6.609
10910TIP3   OH232672   5.180   5.048   4.757
10910TIP3    H132673   5.137   5.080   4.836
10910TIP3    H232674   5.261   5.099   4.752
10911TIP3   OH232675   1.127   4.248   4.979
10911TIP3    H132676   1.060   4.253   4.911
10911TIP3    H232677   1.207   4.227   4.931
10912TIP3   OH232678   3.876   6.027   4.591
10912TIP3    H132679   3.907   6.042   4.681
10912TIP3    H232680   3.918   5.945   4.565
10913TIP3   OH232681   7.697   4.964   5.754
10913TIP3    H132682   7.669   5.046   5.713
10913TIP3    H232683   7.741   4.991   5.834
10914TIP3   OH232684   4.929   6.910   2.105
10914TIP3    H132685   4.875   6.891   2.181
10914TIP3    H232686   5.006   6.953   2.140
10915TIP3   OH232687   6.310   3.922   0.027
10915TIP3    H132688   6.387   3.976   0.009
10915TIP3    H232689   6.259   3.974   0.090
10916TIP3   OH232690   0.254   2.302   3.286
10916TIP3    H132691   0.260   2.209   3.309
10916TIP3    H232692   0.169   2.312   3.245
10917TIP3   OH232693   2.870   3.341   0.244
10917TIP3    H132694   2.805   3.393   0.197
10917TIP3    H232695   2.842   3.345   0.335
10918TIP3   OH232696   7.438   5.448   5.559
10918TIP3    H132697   7.379   5.421   5.489
10918TIP3    H232698   7.385   5.505   5.615
10919TIP3   OH232699   7.367   2.929   2.472
10919TIP3    H132700   7.421   2.876   2.413
10919TIP3    H232701   7.392   2.900   2.559
10920TIP3   OH232702   6.090   7.164   1.409
10920TIP3    H132703   6.019   7.122   1.360
10920TIP3    H232704   6.166   7.158   1.351
10921TIP3   OH232705   6.792   1.789   0.005
10921TIP3    H132706   6.859   1.850   0.035
10921TIP3    H232707   6.828   1.702   0.026
10922TIP3   OH232708   3.360   3.649   1.665
10922TIP3    H132709   3.421   3.711   1.707
10922TIP3    H232710   3.295   3.705   1.623
10923TIP3   OH232711   4.353   6.437   3.316
10923TIP3    H132712   4.383   6.390   3.394
10923TIP3    H232713   4.270   6.477   3.342
10924TIP3   OH232714   2.574   1.553   0.371
10924TIP3    H132715   2.637   1.514   0.311
10924TIP3    H232716   2.524   1.615   0.317
10925TIP3   OH232717   4.338   1.460   4.672
10925TIP3    H132718   4.367   1.392   4.734
10925TIP3    H232719   4.401   1.531   4.683
10926TIP3   OH232720   0.889   6.860   0.860
10926TIP3    H132721   0.978   6.876   0.831
10926TIP3    H232722   0.835   6.877   0.783
10927TIP3   OH232723   4.134   7.420   5.150
10927TIP3    H132724   4.191   7.379   5.085
10927TIP3    H232725   4.185   7.421   5.230
10928TIP3   OH232726   5.125   6.601   6.357
10928TIP3    H132727   5.054   6.597   6.422
10928TIP3    H232728   5.177   6.523   6.373
10929TIP3   OH232729   4.256   3.021   1.693
10929TIP3    H132730   4.335   3.060   1.656
10929TIP3    H232731   4.185   3.079   1.666
10930TIP3   OH232732   6.544   1.121   0.550
10930TIP3    H132733   6.630   1.147   0.584
10930TIP3    H232734   6.482   1.180   0.591
10931TIP3   OH232735   5.339   1.911   5.647
10931TIP3    H132736   5.292   1.863   5.716
10931TIP3    H232737   5.275   1.917   5.576
10932TIP3   OH232738   3.718   5.133   2.846
10932TIP3    H132739   3.809   5.105   2.833
10932TIP3    H232740   3.678   5.061   2.894
10933TIP3   OH232741   5.048   6.792   6.177
10933TIP3    H132742   5.082   6.725   6.237
10933TIP3    H232743   5.123   6.814   6.122
10934TIP3   OH232744   6.604   2.056   4.227
10934TIP3    H132745   6.683   2.002   4.233
10934TIP3    H232746   6.555   2.018   4.155
10935TIP3   OH232747   8.220   6.916   6.519
10935TIP3    H132748   8.150   6.965   6.562
10935TIP3    H232749   8.176   6.844   6.475
10936TIP3   OH232750   7.681   1.386   3.222
10936TIP3    H132751   7.605   1.444   3.222
10936TIP3    H232752   7.725   1.405   3.305
10937TIP3   OH232753   8.144   2.027   2.731
10937TIP3    H132754   8.209   2.047   2.664
10937TIP3    H232755   8.138   1.931   2.731
10938TIP3   OH232756   0.683   6.150   0.573
10938TIP3    H132757   0.601   6.184   0.611
10938TIP3    H232758   0.739   6.226   0.566
10939TIP3   OH232759   7.348   5.663   6.375
10939TIP3    H132760   7.327   5.757   6.381
10939TIP3    H232761   7.368   5.649   6.282
10940TIP3   OH232762   5.335   3.298   4.264
10940TIP3    H132763   5.320   3.289   4.170
10940TIP3    H232764   5.301   3.385   4.286
10941TIP3   OH232765   5.158   1.396   6.024
10941TIP3    H132766   5.152   1.300   6.022
10941TIP3    H232767   5.090   1.425   5.964
10942TIP3   OH232768   3.858   2.274   3.140
10942TIP3    H132769   3.856   2.186   3.102
10942TIP3    H232770   3.932   2.317   3.098
10943TIP3   OH232771   2.133   5.179   3.234
10943TIP3    H132772   2.059   5.212   3.182
10943TIP3    H232773   2.211   5.209   3.186
10944TIP3   OH232774   6.719   1.930   5.258
10944TIP3    H132775   6.760   1.951   5.174
10944TIP3    H232776   6.773   1.860   5.294
10945TIP3   OH232777   3.111   3.732   3.597
10945TIP3    H132778   3.073   3.675   3.529
10945TIP3    H232779   3.191   3.686   3.623
10946TIP3   OH232780   4.634   6.948   4.347
10946TIP3    H132781   4.607   7.007   4.276
10946TIP3    H232782   4.630   7.002   4.426
10947TIP3   OH232783   0.280   7.697   3.108
10947TIP3    H132784   0.188   7.707   3.083
10947TIP3    H232785   0.326   7.765   3.059
10948TIP3   OH232786   7.204   2.331   2.277
10948TIP3    H132787   7.146   2.370   2.211
10948TIP3    H232788   7.288   2.375   2.264
10949TIP3   OH232789   7.155   0.096   5.826
10949TIP3    H132790   7.131   0.007   5.853
10949TIP3    H232791   7.135   0.150   5.902
10950TIP3   OH232792   0.720   6.679   4.549
10950TIP3    H132793   0.706   6.589   4.520
10950TIP3    H232794   0.638   6.704   4.591
10951TIP3   OH232795   8.059   3.414   2.686
10951TIP3    H132796   8.001   3.451   2.753
10951TIP3    H232797   8.143   3.405   2.730
10952TIP3   OH232798   4.794   7.210   1.416
10952TIP3    H132799   4.734   7.248   1.351
10952TIP3    H232800   4.804   7.278   1.483
10953TIP3   OH232801   6.195   4.697   2.309
10953TIP3    H132802   6.180   4.692   2.215
10953TIP3    H232803   6.110   4.724   2.345
10954TIP3   OH232804   6.869   6.310   6.022
10954TIP3    H132805   6.854   6.301   6.116
10954TIP3    H232806   6.962   6.292   6.011
10955TIP3   OH232807   6.385   2.260   0.449
10955TIP3    H132808   6.307   2.244   0.501
10955TIP3    H232809   6.436   2.323   0.500
10956TIP3   OH232810   1.650   3.364   5.565
10956TIP3    H132811   1.572   3.345   5.616
10956TIP3    H232812   1.706   3.287   5.576
10957TIP3   OH232813   7.695   0.320   6.613
10957TIP3    H132814   7.638   0.391   6.640
10957TIP3    H232815   7.663   0.243   6.660
10958TIP3   OH232816   4.726   0.190   2.305
10958TIP3    H132817   4.682   0.233   2.232
10958TIP3    H232818   4.729   0.257   2.374
10959TIP3   OH232819   7.139   2.797   0.073
10959TIP3    H132820   7.183   2.876   0.104
10959TIP3    H232821   7.210   2.745   0.035
10960TIP3   OH232822   7.534   6.797   4.761
10960TIP3    H132823   7.542   6.891   4.746
10960TIP3    H232824   7.583   6.780   4.842
10961TIP3   OH232825   0.942   5.459   1.332
10961TIP3    H132826   0.912   5.449   1.241
10961TIP3    H232827   0.900   5.387   1.379
10962TIP3   OH232828   7.389   2.011   3.325
10962TIP3    H132829   7.302   2.047   3.313
10962TIP3    H232830   7.446   2.088   3.331
10963TIP3   OH232831   6.315   3.910   5.407
10963TIP3    H132832   6.317   3.924   5.312
10963TIP3    H232833   6.395   3.862   5.426
10964TIP3   OH232834   5.562   0.566   2.204
10964TIP3    H132835   5.649   0.588   2.170
10964TIP3    H232836   5.510   0.549   2.125
10965TIP3   OH232837   1.076   3.059   3.933
10965TIP3    H132838   1.012   3.127   3.954
10965TIP3    H232839   1.023   2.981   3.915
10966TIP3   OH232840   3.408   0.374   2.085
10966TIP3    H132841   3.394   0.449   2.027
10966TIP3    H232842   3.500   0.380   2.110
10967TIP3   OH232843   1.088   4.049   2.620
10967TIP3    H132844   1.013   3.990   2.610
10967TIP3    H232845   1.082   4.108   2.545
10968TIP3   OH232846   7.776   5.336   4.071
10968TIP3    H132847   7.773   5.398   3.998
10968TIP3    H232848   7.699   5.358   4.124
10969TIP3   OH232849   5.489   7.280   6.373
10969TIP3    H132850   5.536   7.205   6.338
10969TIP3    H232851   5.398   7.265   6.349
10970TIP3   OH232852   7.165   0.534   6.105
10970TIP3    H132853   7.150   0.538   6.199
10970TIP3    H232854   7.252   0.494   6.096
10971TIP3   OH232855   0.853   6.593   2.321
10971TIP3    H132856   0.861   6.671   2.376
10971TIP3    H232857   0.765   6.599   2.284
10972TIP3   OH232858   5.839   6.133   2.927
10972TIP3    H132859   5.839   6.224   2.897
10972TIP3    H232860   5.834   6.138   3.022
10973TIP3   OH232861   4.595   1.451   5.372
10973TIP3    H132862   4.620   1.537   5.405
10973TIP3    H232863   4.525   1.468   5.310
10974TIP3   OH232864   3.162   6.460   4.157
10974TIP3    H132865   3.097   6.390   4.159
10974TIP3    H232866   3.150   6.505   4.241
10975TIP3   OH232867   6.763   7.531   5.621
10975TIP3    H132868   6.687   7.472   5.614
10975TIP3    H232869   6.817   7.509   5.545
10976TIP3   OH232870   5.220   7.642   4.940
10976TIP3    H132871   5.295   7.582   4.940
10976TIP3    H232872   5.161   7.607   4.874
10977TIP3   OH232873   4.906   3.056   6.255
10977TIP3    H132874   4.893   3.150   6.264
10977TIP3    H232875   4.979   3.049   6.193
10978TIP3   OH232876   7.695   5.274   0.775
10978TIP3    H132877   7.784   5.242   0.789
10978TIP3    H232878   7.703   5.338   0.704
10979TIP3   OH232879   6.578   6.239   2.217
10979TIP3    H132880   6.612   6.326   2.240
10979TIP3    H232881   6.532   6.211   2.296
10980TIP3   OH232882   2.552   6.477   4.137
10980TIP3    H132883   2.505   6.499   4.057
10980TIP3    H232884   2.559   6.560   4.184
10981TIP3   OH232885   2.687   1.533   2.464
10981TIP3    H132886   2.689   1.615   2.414
10981TIP3    H232887   2.599   1.530   2.502
10982TIP3   OH232888   2.996   3.760   0.971
10982TIP3    H132889   3.082   3.740   1.009
10982TIP3    H232890   2.972   3.681   0.922
10983TIP3   OH232891   6.421   6.206   3.958
10983TIP3    H132892   6.432   6.296   3.990
10983TIP3    H232893   6.491   6.157   4.001
10984TIP3   OH232894   2.327   2.674   0.655
10984TIP3    H132895   2.409   2.664   0.703
10984TIP3    H232896   2.308   2.587   0.621
10985TIP3   OH232897   4.746   4.328   5.471
10985TIP3    H132898   4.802   4.269   5.522
10985TIP3    H232899   4.802   4.359   5.400
10986TIP3   OH232900   4.851   3.553   3.152
10986TIP3    H132901   4.899   3.633   3.174
10986TIP3    H232902   4.760   3.573   3.174
10987TIP3   OH232903   6.190   0.341   5.444
10987TIP3    H132904   6.211   0.431   5.467
10987TIP3    H232905   6.121   0.315   5.505
10988TIP3   OH232906   2.969   5.409   5.120
10988TIP3    H132907   3.010   5.396   5.206
10988TIP3    H232908   2.930   5.496   5.125
10989TIP3   OH232909   3.031   0.700   1.201
10989TIP3    H132910   3.049   0.746   1.118
10989TIP3    H232911   3.106   0.722   1.257
10990TIP3   OH232912   3.520   1.185   1.596
10990TIP3    H132913   3.470   1.219   1.523
10990TIP3    H232914   3.504   1.090   1.595
10991TIP3   OH232915   7.362   1.100   0.086
10991TIP3    H132916   7.331   1.162   0.152
10991TIP3    H232917   7.298   1.029   0.088
10992TIP3   OH232918   1.462   1.152   5.299
10992TIP3    H132919   1.528   1.164   5.368
10992TIP3    H232920   1.500   1.086   5.241
10993TIP3   OH232921   5.965   3.758   4.751
10993TIP3    H132922   5.887   3.800   4.714
10993TIP3    H232923   6.008   3.717   4.676
10994TIP3   OH232924   3.569   7.190   1.775
10994TIP3    H132925   3.571   7.155   1.686
10994TIP3    H232926   3.561   7.113   1.831
10995TIP3   OH232927   6.177   4.052   0.838
10995TIP3    H132928   6.262   4.025   0.802
10995TIP3    H232929   6.196   4.073   0.929
10996TIP3   OH232930   5.589   4.117   0.946
10996TIP3    H132931   5.661   4.164   0.988
10996TIP3    H232932   5.533   4.088   1.018
10997TIP3   OH232933   0.873   1.676   1.454
10997TIP3    H132934   0.856   1.605   1.392
10997TIP3    H232935   0.946   1.724   1.415
10998TIP3   OH232936   6.382   3.500   5.677
10998TIP3    H132937   6.315   3.442   5.714
10998TIP3    H232938   6.465   3.462   5.704
10999TIP3   OH232939   3.978   2.685   4.554
10999TIP3    H132940   3.994   2.592   4.570
10999TIP3    H232941   3.916   2.711   4.623
11000TIP3   OH232942   4.398   2.551   6.377
11000TIP3    H132943   4.477   2.582   6.421
11000TIP3    H232944   4.368   2.626   6.326
11001TIP3   OH232945   3.970   1.418   2.075
11001TIP3    H132946   4.058   1.427   2.112
11001TIP3    H232947   3.984   1.424   1.981
11002TIP3   OH232948   7.141   3.041   3.548
11002TIP3    H132949   7.142   3.109   3.481
11002TIP3    H232950   7.049   3.033   3.572
11003TIP3   OH232951   1.882   4.037   5.580
11003TIP3    H132952   1.887   4.109   5.517
11003TIP3    H232953   1.823   3.974   5.539
11004TIP3   OH232954   2.420   4.265   6.659
11004TIP3    H132955   2.503   4.298   6.625
11004TIP3    H232956   2.373   4.233   6.583
11005TIP3   OH232957   6.418   5.602   2.772
11005TIP3    H132958   6.483   5.553   2.722
11005TIP3    H232959   6.445   5.694   2.762
11006TIP3   OH232960   0.393   1.088   0.139
11006TIP3    H132961   0.436   1.130   0.213
11006TIP3    H232962   0.447   1.010   0.121
11007TIP3   OH232963   5.719   2.293   2.934
11007TIP3    H132964   5.759   2.252   2.857
11007TIP3    H232965   5.640   2.335   2.900
11008TIP3   OH232966   6.456   5.467   6.110
11008TIP3    H132967   6.468   5.561   6.123
11008TIP3    H232968   6.427   5.459   6.019
11009TIP3   OH232969   5.216   5.460   1.319
11009TIP3    H132970   5.300   5.438   1.360
11009TIP3    H232971   5.150   5.423   1.378
11010TIP3   OH232972   7.632   7.481   4.326
11010TIP3    H132973   7.707   7.450   4.277
11010TIP3    H232974   7.599   7.556   4.278
11011TIP3   OH232975   7.189   3.833   2.865
11011TIP3    H132976   7.229   3.746   2.863
11011TIP3    H232977   7.235   3.878   2.936
11012TIP3   OH232978   7.524   4.316   5.083
11012TIP3    H132979   7.540   4.297   5.176
11012TIP3    H232980   7.523   4.230   5.041
11013TIP3   OH232981   2.074   0.192   4.205
11013TIP3    H132982   2.022   0.247   4.147
11013TIP3    H232983   2.108   0.123   4.148
11014TIP3   OH232984   3.841   2.974   0.601
11014TIP3    H132985   3.796   2.911   0.544
11014TIP3    H232986   3.800   3.058   0.582
11015TIP3   OH232987   2.193   2.982   1.813
11015TIP3    H132988   2.278   2.954   1.847
11015TIP3    H232989   2.172   2.918   1.745
11016TIP3   OH232990   3.509   7.134   5.342
11016TIP3    H132991   3.433   7.190   5.357
11016TIP3    H232992   3.520   7.134   5.247
11017TIP3   OH232993   2.346   2.427   3.920
11017TIP3    H132994   2.421   2.398   3.971
11017TIP3    H232995   2.375   2.507   3.877
11018TIP3   OH232996   2.685   7.748   6.669
11018TIP3    H132997   2.743   7.685   6.626
11018TIP3    H232998   2.745   7.813   6.706
11019TIP3   OH232999   7.357   5.591   4.851
11019TIP3    H133000   7.290   5.658   4.867
11019TIP3    H233001   7.310   5.508   4.858
11020TIP3   OH233002   0.846   3.805   1.623
11020TIP3    H133003   0.793   3.876   1.658
11020TIP3    H233004   0.782   3.742   1.590
11021TIP3   OH233005   2.109   6.595   5.610
11021TIP3    H133006   2.114   6.640   5.525
11021TIP3    H233007   2.192   6.547   5.616
11022TIP3   OH233008   6.900   7.493   4.645
11022TIP3    H133009   6.836   7.502   4.716
11022TIP3    H233010   6.930   7.403   4.651
11023TIP3   OH233011   7.119   2.637   2.322
11023TIP3    H133012   7.143   2.710   2.380
11023TIP3    H233013   7.030   2.658   2.295
11024TIP3   OH233014   6.868   2.833   0.094
11024TIP3    H133015   6.961   2.812   0.103
11024TIP3    H233016   6.851   2.826   0.000
11025TIP3   OH233017   7.504   0.216   4.262
11025TIP3    H133018   7.475   0.215   4.171
11025TIP3    H233019   7.500   0.124   4.290
11026TIP3   OH233020   7.733   6.949   3.875
11026TIP3    H133021   7.676   6.894   3.929
11026TIP3    H233022   7.674   7.016   3.840
11027TIP3   OH233023   2.441   3.162   4.370
11027TIP3    H133024   2.407   3.231   4.427
11027TIP3    H233025   2.534   3.158   4.390
11028TIP3   OH233026   1.492   0.957   1.130
11028TIP3    H133027   1.525   0.870   1.109
11028TIP3    H233028   1.418   0.970   1.070
11029TIP3   OH233029   4.887   6.361   4.619
11029TIP3    H133030   4.949   6.355   4.546
11029TIP3    H233031   4.877   6.455   4.635
11030TIP3   OH233032   7.984   2.682   5.230
11030TIP3    H133033   7.959   2.653   5.142
11030TIP3    H233034   8.079   2.693   5.226
11031TIP3   OH233035   8.050   2.289   5.629
11031TIP3    H133036   8.104   2.315   5.554
11031TIP3    H233037   8.081   2.345   5.701
11032TIP3   OH233038   7.886   4.096   0.075
11032TIP3    H133039   7.848   4.150   0.006
11032TIP3    H233040   7.930   4.025   0.029
11033TIP3   OH233041   2.063   5.843   0.715
11033TIP3    H133042   2.002   5.912   0.688
11033TIP3    H233043   2.112   5.822   0.636
11034TIP3   OH233044   5.333   3.034   4.669
11034TIP3    H133045   5.366   3.123   4.677
11034TIP3    H233046   5.411   2.979   4.673
11035TIP3   OH233047   4.139   2.815   3.662
11035TIP3    H133048   4.113   2.759   3.589
11035TIP3    H233049   4.168   2.754   3.730
11036TIP3   OH233050   7.353   3.090   6.100
11036TIP3    H133051   7.367   3.104   6.193
11036TIP3    H233052   7.294   3.162   6.074
11037TIP3   OH233053   8.002   6.128   2.286
11037TIP3    H133054   7.932   6.184   2.318
11037TIP3    H233055   8.082   6.164   2.326
11038TIP3   OH233056   0.731   0.083   4.563
11038TIP3    H133057   0.749   0.062   4.654
11038TIP3    H233058   0.671   0.159   4.567
11039TIP3   OH233059   3.141   3.829   6.581
11039TIP3    H133060   3.164   3.910   6.536
11039TIP3    H233061   3.192   3.832   6.662
11040TIP3   OH233062   7.283   6.371   1.315
11040TIP3    H133063   7.202   6.404   1.354
11040TIP3    H233064   7.341   6.355   1.389
11041TIP3   OH233065   1.177   3.683   3.242
11041TIP3    H133066   1.270   3.680   3.265
11041TIP3    H233067   1.132   3.650   3.320
11042TIP3   OH233068   5.462   5.890   3.446
11042TIP3    H133069   5.373   5.924   3.436
11042TIP3    H233070   5.514   5.966   3.472
11043TIP3   OH233071   5.778   0.965   3.464
11043TIP3    H133072   5.825   0.902   3.409
11043TIP3    H233073   5.803   1.051   3.430
11044TIP3   OH233074   1.875   7.300   0.202
11044TIP3    H133075   1.933   7.367   0.165
11044TIP3    H233076   1.808   7.349   0.249
11045TIP3   OH233077   1.796   2.481   2.688
11045TIP3    H133078   1.830   2.455   2.603
11045TIP3    H233079   1.762   2.569   2.675
11046TIP3   OH233080   1.451   0.191   0.150
11046TIP3    H133081   1.520   0.256   0.163
11046TIP3    H233082   1.470   0.153   0.065
11047TIP3   OH233083   4.952   1.851   5.949
11047TIP3    H133084   4.991   1.764   5.961
11047TIP3    H233085   4.957   1.867   5.855
11048TIP3   OH233086   2.848   5.670   5.745
11048TIP3    H133087   2.911   5.652   5.675
11048TIP3    H233088   2.875   5.612   5.816
11049TIP3   OH233089   1.053   4.874   0.719
11049TIP3    H133090   1.069   4.861   0.625
11049TIP3    H233091   1.124   4.932   0.746
11050TIP3   OH233092   1.466   6.769   5.594
11050TIP3    H133093   1.429   6.689   5.556
11050TIP3    H233094   1.560   6.764   5.573
11051TIP3   OH233095   4.837   2.849   4.354
11051TIP3    H133096   4.908   2.796   4.391
11051TIP3    H233097   4.829   2.817   4.264
11052TIP3   OH233098   8.174   3.433   1.791
11052TIP3    H133099   8.122   3.369   1.840
11052TIP3    H233100   8.183   3.507   1.851
11053TIP3   OH233101   7.357   4.417   6.669
11053TIP3    H133102   7.333   4.326   6.649
11053TIP3    H233103   7.413   4.444   6.596
11054TIP3   OH233104   0.127   1.835   0.634
11054TIP3    H133105   0.178   1.854   0.556
11054TIP3    H233106   0.071   1.761   0.610
11055TIP3   OH233107   7.776   0.994   1.200
11055TIP3    H133108   7.811   0.993   1.111
11055TIP3    H233109   7.715   0.921   1.203
11056TIP3   OH233110   6.320   2.858   6.258
11056TIP3    H133111   6.320   2.780   6.313
11056TIP3    H233112   6.408   2.896   6.270
11057TIP3   OH233113   3.593   5.001   1.476
11057TIP3    H133114   3.647   5.078   1.494
11057TIP3    H233115   3.642   4.928   1.514
11058TIP3   OH233116   4.971   5.325   5.416
11058TIP3    H133117   4.960   5.285   5.330
11058TIP3    H233118   4.885   5.363   5.436
11059TIP3   OH233119   5.923   1.851   3.437
11059TIP3    H133120   5.877   1.793   3.377
11059TIP3    H233121   5.882   1.936   3.425
11060TIP3   OH233122   6.471   0.523   3.708
11060TIP3    H133123   6.503   0.601   3.754
11060TIP3    H233124   6.507   0.449   3.757
11061TIP3   OH233125   5.404   3.800   0.267
11061TIP3    H133126   5.453   3.863   0.215
11061TIP3    H233127   5.471   3.741   0.304
11062TIP3   OH233128   2.067   3.496   4.676
11062TIP3    H133129   2.076   3.520   4.584
11062TIP3    H233130   2.124   3.556   4.723
11063TIP3   OH233131   4.188   3.504   0.590
11063TIP3    H133132   4.140   3.569   0.641
11063TIP3    H233133   4.178   3.532   0.499
11064TIP3   OH233134   1.500   3.893   4.268
11064TIP3    H133135   1.540   3.904   4.355
11064TIP3    H233136   1.409   3.920   4.280
11065TIP3   OH233137   1.123   2.297   6.235
11065TIP3    H133138   1.183   2.234   6.274
11065TIP3    H233139   1.054   2.309   6.301
11066TIP3   OH233140   0.869   5.713   2.733
11066TIP3    H133141   0.944   5.758   2.770
11066TIP3    H233142   0.822   5.678   2.809
11067TIP3   OH233143   5.740   5.027   5.141
11067TIP3    H133144   5.835   5.041   5.138
11067TIP3    H233145   5.707   5.071   5.063
11068TIP3   OH233146   2.941   1.767   1.585
11068TIP3    H133147   2.959   1.673   1.589
11068TIP3    H233148   2.898   1.779   1.500
11069TIP3   OH233149   4.622   5.328   0.178
11069TIP3    H133150   4.658   5.275   0.249
11069TIP3    H233151   4.544   5.280   0.150
11070TIP3   OH233152   7.572   7.077   2.947
11070TIP3    H133153   7.644   7.052   3.005
11070TIP3    H233154   7.505   7.011   2.962
11071TIP3   OH233155   4.625   1.002   4.446
11071TIP3    H133156   4.606   1.009   4.539
11071TIP3    H233157   4.624   1.092   4.414
11072TIP3   OH233158   3.970   5.393   1.112
11072TIP3    H133159   3.931   5.313   1.147
11072TIP3    H233160   3.896   5.453   1.100
11073TIP3   OH233161   4.574   1.215   3.148
11073TIP3    H133162   4.644   1.207   3.084
11073TIP3    H233163   4.516   1.142   3.129
11074TIP3   OH233164   5.453   2.680   1.335
11074TIP3    H133165   5.462   2.748   1.268
11074TIP3    H233166   5.401   2.721   1.404
11075TIP3   OH233167   6.262   5.772   1.959
11075TIP3    H133168   6.341   5.818   1.990
11075TIP3    H233169   6.189   5.827   1.988
11076TIP3   OH233170   5.228   4.549   6.575
11076TIP3    H133171   5.219   4.506   6.490
11076TIP3    H233172   5.292   4.618   6.561
11077TIP3   OH233173   3.261   3.694   6.316
11077TIP3    H133174   3.255   3.774   6.264
11077TIP3    H233175   3.349   3.696   6.354
11078TIP3   OH233176   1.855   4.725   2.383
11078TIP3    H133177   1.899   4.706   2.465
11078TIP3    H233178   1.804   4.646   2.364
11079TIP3   OH233179   3.046   4.332   5.668
11079TIP3    H133180   2.961   4.294   5.688
11079TIP3    H233181   3.040   4.356   5.575
11080TIP3   OH233182   0.384   1.004   4.582
11080TIP3    H133183   0.349   0.954   4.507
11080TIP3    H233184   0.434   0.940   4.632
11081TIP3   OH233185   3.692   6.096   4.073
11081TIP3    H133186   3.719   6.029   4.010
11081TIP3    H233187   3.733   6.070   4.155
11082TIP3   OH233188   1.074   4.557   3.500
11082TIP3    H133189   1.138   4.487   3.511
11082TIP3    H233190   1.035   4.569   3.587
11083TIP3   OH233191   3.770   7.285   5.329
11083TIP3    H133192   3.766   7.376   5.300
11083TIP3    H233193   3.678   7.259   5.337
11084TIP3   OH233194   3.819   0.731   5.741
11084TIP3    H133195   3.862   0.674   5.805
11084TIP3    H233196   3.726   0.721   5.758
11085TIP3   OH233197   4.794   1.876   3.222
11085TIP3    H133198   4.726   1.838   3.167
11085TIP3    H233199   4.875   1.837   3.191
11086TIP3   OH233200   6.152   1.914   5.801
11086TIP3    H133201   6.125   1.949   5.717
11086TIP3    H233202   6.146   1.988   5.861
11087TIP3   OH233203   1.760   2.583   2.103
11087TIP3    H133204   1.772   2.608   2.011
11087TIP3    H233205   1.744   2.489   2.100
11088TIP3   OH233206   5.496   6.517   4.199
11088TIP3    H133207   5.472   6.429   4.170
11088TIP3    H233208   5.505   6.509   4.294
11089TIP3   OH233209   6.106   3.486   0.953
11089TIP3    H133210   6.146   3.547   1.015
11089TIP3    H233211   6.146   3.401   0.974
11090TIP3   OH233212   2.115   5.190   4.672
11090TIP3    H133213   2.066   5.113   4.699
11090TIP3    H233214   2.189   5.156   4.621
11091TIP3   OH233215   6.667   4.295   3.909
11091TIP3    H133216   6.660   4.387   3.882
11091TIP3    H233217   6.596   4.251   3.862
11092TIP3   OH233218   6.185   7.554   2.889
11092TIP3    H133219   6.186   7.632   2.946
11092TIP3    H233220   6.127   7.577   2.817
11093TIP3   OH233221   3.836   1.107   3.543
11093TIP3    H133222   3.780   1.092   3.619
11093TIP3    H233223   3.925   1.110   3.578
11094TIP3   OH233224   2.235   2.744   0.166
11094TIP3    H133225   2.155   2.784   0.202
11094TIP3    H233226   2.224   2.750   0.071
11095TIP3   OH233227   3.505   7.597   2.833
11095TIP3    H133228   3.453   7.676   2.851
11095TIP3    H233229   3.538   7.571   2.918
11096TIP3   OH233230   1.592   0.366   4.458
11096TIP3    H133231   1.515   0.420   4.473
11096TIP3    H233232   1.601   0.314   4.538
11097TIP3   OH233233   5.745   0.728   2.425
11097TIP3    H133234   5.819   0.788   2.432
11097TIP3    H233235   5.785   0.643   2.407
11098TIP3   OH233236   6.574   7.566   0.563
11098TIP3    H133237   6.585   7.660   0.571
11098TIP3    H233238   6.511   7.555   0.491
11099TIP3   OH233239   0.220   7.010   6.522
11099TIP3    H133240   0.137   6.993   6.566
11099TIP3    H233241   0.196   7.035   6.433
11100TIP3   OH233242   4.969   7.546   5.614
11100TIP3    H133243   4.926   7.468   5.578
11100TIP3    H233244   4.898   7.609   5.626
11101TIP3   OH233245   1.442   4.506   6.203
11101TIP3    H133246   1.479   4.423   6.231
11101TIP3    H233247   1.497   4.534   6.130
11102TIP3   OH233248   0.964   1.142   0.867
11102TIP3    H133249   0.971   1.070   0.804
11102TIP3    H233250   0.974   1.101   0.953
11103TIP3   OH233251   6.189   6.117   0.018
11103TIP3    H133252   6.097   6.128   0.042
11103TIP3    H233253   6.236   6.180   0.073
11104TIP3   OH233254   2.713   2.881   4.480
11104TIP3    H133255   2.634   2.868   4.532
11104TIP3    H233256   2.785   2.864   4.541
11105TIP3   OH233257   8.013   7.246   5.607
11105TIP3    H133258   8.068   7.275   5.534
11105TIP3    H233259   7.939   7.307   5.606
11106TIP3   OH233260   7.076   6.996   1.568
11106TIP3    H133261   7.002   6.936   1.569
11106TIP3    H233262   7.037   7.083   1.556
11107TIP3   OH233263   3.435   3.046   1.761
11107TIP3    H133264   3.395   3.067   1.845
11107TIP3    H233265   3.512   3.104   1.756
11108TIP3   OH233266   1.621   2.192   0.056
11108TIP3    H133267   1.554   2.138   0.013
11108TIP3    H233268   1.617   2.276   0.010
11109TIP3   OH233269   0.324   1.838   2.325
11109TIP3    H133270   0.356   1.890   2.399
11109TIP3    H233271   0.288   1.759   2.365
11110TIP3   OH233272   3.076   4.779   1.540
11110TIP3    H133273   3.008   4.717   1.514
11110TIP3    H233274   3.093   4.759   1.632
11111TIP3   OH233275   3.990   6.775   0.368
11111TIP3    H133276   3.972   6.869   0.359
11111TIP3    H233277   4.040   6.753   0.289
11112TIP3   OH233278   3.868   1.702   4.575
11112TIP3    H133279   3.934   1.745   4.521
11112TIP3    H233280   3.843   1.624   4.527
11113TIP3   OH233281   5.744   0.619   4.796
11113TIP3    H133282   5.772   0.537   4.837
11113TIP3    H233283   5.809   0.636   4.728
11114TIP3   OH233284   1.876   3.384   3.940
11114TIP3    H133285   1.855   3.324   4.012
11114TIP3    H233286   1.793   3.396   3.893
11115TIP3   OH233287   6.269   1.926   0.118
11115TIP3    H133288   6.180   1.938   0.084
11115TIP3    H233289   6.263   1.950   0.211
11116TIP3   OH233290   0.272   3.845   3.333
11116TIP3    H133291   0.353   3.893   3.348
11116TIP3    H233292   0.268   3.782   3.405
11117TIP3   OH233293   4.241   6.155   4.717
11117TIP3    H133294   4.333   6.133   4.733
11117TIP3    H233295   4.221   6.223   4.781
11118TIP3   OH233296   1.351   4.283   1.423
11118TIP3    H133297   1.308   4.366   1.403
11118TIP3    H233298   1.352   4.279   1.518
11119TIP3   OH233299   1.421   6.852   6.557
11119TIP3    H133300   1.461   6.769   6.530
11119TIP3    H233301   1.491   6.916   6.548
11120TIP3   OH233302   6.116   1.708   2.880
11120TIP3    H133303   6.034   1.737   2.839
11120TIP3    H233304   6.157   1.654   2.813
11121TIP3   OH233305   4.940   3.278   3.304
11121TIP3    H133306   4.900   3.257   3.388
11121TIP3    H233307   4.948   3.194   3.259
11122TIP3   OH233308   5.164   3.031   5.770
11122TIP3    H133309   5.094   3.000   5.713
11122TIP3    H233310   5.197   3.110   5.728
11123TIP3   OH233311   0.884   6.799   2.778
11123TIP3    H133312   0.914   6.781   2.689
11123TIP3    H233313   0.937   6.873   2.808
11124TIP3   OH233314   6.420   7.161   6.072
11124TIP3    H133315   6.479   7.233   6.095
11124TIP3    H233316   6.365   7.196   6.003
11125TIP3   OH233317   3.494   2.782   1.758
11125TIP3    H133318   3.471   2.874   1.746
11125TIP3    H233319   3.443   2.735   1.692
11126TIP3   OH233320   2.184   7.656   6.232
11126TIP3    H133321   2.099   7.699   6.220
11126TIP3    H233322   2.230   7.672   6.150
11127TIP3   OH233323   8.086   5.910   3.970
11127TIP3    H133324   8.092   5.915   4.066
11127TIP3    H233325   8.103   5.818   3.950
11128TIP3   OH233326   0.593   7.117   1.789
11128TIP3    H133327   0.654   7.181   1.825
11128TIP3    H233328   0.527   7.105   1.857
11129TIP3   OH233329   4.995   3.375   2.993
11129TIP3    H133330   5.001   3.292   3.040
11129TIP3    H233331   4.962   3.437   3.059
11130TIP3   OH233332   6.675   6.307   1.794
11130TIP3    H133333   6.710   6.287   1.708
11130TIP3    H233334   6.672   6.222   1.839
11131TIP3   OH233335   4.056   0.761   4.723
11131TIP3    H133336   4.030   0.845   4.761
11131TIP3    H233337   4.144   0.776   4.690
11132TIP3   OH233338   2.888   6.427   2.526
11132TIP3    H133339   2.930   6.385   2.601
11132TIP3    H233340   2.856   6.511   2.560
11133TIP3   OH233341   2.970   6.424   0.996
11133TIP3    H133342   3.059   6.438   0.963
11133TIP3    H233343   2.913   6.447   0.923
11134TIP3   OH233344   7.348   1.385   4.772
11134TIP3    H133345   7.393   1.454   4.723
11134TIP3    H233346   7.293   1.341   4.707
11135TIP3   OH233347   8.187   0.210   3.658
11135TIP3    H133348   8.158   0.140   3.716
11135TIP3    H233349   8.250   0.168   3.600
11136TIP3   OH233350   8.036   0.655   4.942
11136TIP3    H133351   8.037   0.750   4.937
11136TIP3    H233352   8.027   0.625   4.852
11137TIP3   OH233353   4.304   1.933   6.181
11137TIP3    H133354   4.326   1.861   6.122
11137TIP3    H233355   4.300   2.010   6.124
11138TIP3   OH233356   2.971   7.106   0.924
11138TIP3    H133357   2.917   7.157   0.985
11138TIP3    H233358   2.921   7.027   0.907
11139TIP3   OH233359   5.907   4.782   3.364
11139TIP3    H133360   5.922   4.775   3.458
11139TIP3    H233361   5.889   4.875   3.350
11140TIP3   OH233362   4.373   5.756   5.107
11140TIP3    H133363   4.450   5.737   5.053
11140TIP3    H233364   4.317   5.679   5.097
11141TIP3   OH233365   4.685   6.828   4.094
11141TIP3    H133366   4.733   6.867   4.166
11141TIP3    H233367   4.597   6.865   4.100
11142TIP3   OH233368   7.905   5.274   1.850
11142TIP3    H133369   7.968   5.244   1.785
11142TIP3    H233370   7.851   5.337   1.802
11143TIP3   OH233371   3.612   1.010   4.486
11143TIP3    H133372   3.586   0.935   4.539
11143TIP3    H233373   3.707   1.014   4.495
11144TIP3   OH233374   1.027   0.440   6.182
11144TIP3    H133375   1.057   0.529   6.202
11144TIP3    H233376   1.000   0.444   6.091
11145TIP3   OH233377   7.936   7.060   3.749
11145TIP3    H133378   7.864   7.013   3.792
11145TIP3    H233379   8.005   6.995   3.741
11146TIP3   OH233380   7.339   6.176   2.241
11146TIP3    H133381   7.431   6.160   2.222
11146TIP3    H233382   7.334   6.178   2.337
11147TIP3   OH233383   7.727   0.313   6.069
11147TIP3    H133384   7.804   0.262   6.094
11147TIP3    H233385   7.667   0.249   6.032
11148TIP3   OH233386   3.109   2.496   3.191
11148TIP3    H133387   3.189   2.489   3.242
11148TIP3    H233388   3.132   2.553   3.118
11149TIP3   OH233389   7.789   0.956   0.551
11149TIP3    H133390   7.719   0.983   0.491
11149TIP3    H233391   7.870   0.974   0.503
11150TIP3   OH233392   2.125   6.458   0.738
11150TIP3    H133393   2.116   6.533   0.798
11150TIP3    H233394   2.188   6.400   0.781
11151TIP3   OH233395   2.016   0.400   4.471
11151TIP3    H133396   1.934   0.410   4.519
11151TIP3    H233397   2.026   0.482   4.422
11152TIP3   OH233398   5.568   0.359   0.418
11152TIP3    H133399   5.628   0.352   0.343
11152TIP3    H233400   5.604   0.298   0.483
11153TIP3   OH233401   4.987   7.506   4.071
11153TIP3    H133402   4.996   7.462   3.987
11153TIP3    H233403   5.064   7.478   4.121
11154TIP3   OH233404   7.201   3.499   0.135
11154TIP3    H133405   7.181   3.517   0.043
11154TIP3    H233406   7.150   3.421   0.156
11155TIP3   OH233407   6.551   7.370   5.738
11155TIP3    H133408   6.565   7.302   5.672
11155TIP3    H233409   6.466   7.350   5.776
11156TIP3   OH233410   2.866   5.731   0.163
11156TIP3    H133411   2.914   5.657   0.201
11156TIP3    H233412   2.917   5.808   0.190
11157TIP3   OH233413   7.777   3.991   2.173
11157TIP3    H133414   7.844   3.939   2.129
11157TIP3    H233415   7.749   3.936   2.246
11158TIP3   OH233416   2.815   3.592   3.917
11158TIP3    H133417   2.905   3.621   3.899
11158TIP3    H233418   2.785   3.555   3.834
11159TIP3   OH233419   0.402   6.679   3.623
11159TIP3    H133420   0.414   6.602   3.568
11159TIP3    H233421   0.382   6.643   3.710
11160TIP3   OH233422   6.125   4.639   1.665
11160TIP3    H133423   6.043   4.592   1.652
11160TIP3    H233424   6.188   4.591   1.611
11161TIP3   OH233425   0.586   1.361   6.085
11161TIP3    H133426   0.681   1.378   6.089
11161TIP3    H233427   0.561   1.347   6.177
11162TIP3   OH233428   5.329   0.648   4.870
11162TIP3    H133429   5.402   0.654   4.932
11162TIP3    H233430   5.302   0.739   4.856
11163TIP3   OH233431   5.805   6.146   3.192
11163TIP3    H133432   5.848   6.060   3.195
11163TIP3    H233433   5.877   6.208   3.177
11164TIP3   OH233434   3.394   4.605   5.055
11164TIP3    H133435   3.344   4.563   4.985
11164TIP3    H233436   3.469   4.644   5.011
11165TIP3   OH233437   6.288   3.585   2.945
11165TIP3    H133438   6.281   3.490   2.932
11165TIP3    H233439   6.204   3.610   2.984
11166TIP3   OH233440   5.876   4.964   5.636
11166TIP3    H133441   5.859   5.038   5.694
11166TIP3    H233442   5.799   4.959   5.580
11167TIP3   OH233443   7.526   1.501   1.747
11167TIP3    H133444   7.452   1.498   1.687
11167TIP3    H233445   7.569   1.416   1.736
11168TIP3   OH233446   1.340   2.877   2.248
11168TIP3    H133447   1.329   2.790   2.211
11168TIP3    H233448   1.310   2.869   2.338
11169TIP3   OH233449   7.829   1.927   5.153
11169TIP3    H133450   7.883   1.946   5.076
11169TIP3    H233451   7.880   1.959   5.227
11170TIP3   OH233452   7.713   0.660   1.073
11170TIP3    H133453   7.764   0.635   0.997
11170TIP3    H233454   7.775   0.706   1.130
11171TIP3   OH233455   3.837   7.559   5.262
11171TIP3    H133456   3.905   7.616   5.298
11171TIP3    H233457   3.755   7.605   5.280
11172TIP3   OH233458   1.192   6.668   6.248
11172TIP3    H133459   1.269   6.663   6.191
11172TIP3    H233460   1.135   6.733   6.208
11173TIP3   OH233461   0.318   5.344   2.858
11173TIP3    H133462   0.310   5.438   2.845
11173TIP3    H233463   0.402   5.332   2.900
11174TIP3   OH233464   5.045   6.701   3.612
11174TIP3    H133465   4.966   6.755   3.617
11174TIP3    H233466   5.117   6.764   3.605
11175TIP3   OH233467   3.600   0.336   1.817
11175TIP3    H133468   3.680   0.323   1.766
11175TIP3    H233469   3.610   0.277   1.892
11176TIP3   OH233470   2.487   4.869   4.621
11176TIP3    H133471   2.577   4.885   4.649
11176TIP3    H233472   2.492   4.868   4.525
11177TIP3   OH233473   2.517   5.026   2.701
11177TIP3    H133474   2.549   5.084   2.632
11177TIP3    H233475   2.596   4.998   2.747
11178TIP3   OH233476   1.442   4.244   4.601
11178TIP3    H133477   1.364   4.291   4.570
11178TIP3    H233478   1.515   4.300   4.577
11179TIP3   OH233479   4.407   2.680   3.309
11179TIP3    H133480   4.441   2.596   3.338
11179TIP3    H233481   4.474   2.744   3.336
11180TIP3   OH233482   2.594   7.439   0.779
11180TIP3    H133483   2.673   7.398   0.744
11180TIP3    H233484   2.522   7.395   0.734
11181TIP3   OH233485   7.419   0.766   3.255
11181TIP3    H133486   7.413   0.806   3.342
11181TIP3    H233487   7.466   0.684   3.269
11182TIP3   OH233488   0.316   5.186   0.507
11182TIP3    H133489   0.313   5.197   0.412
11182TIP3    H233490   0.297   5.094   0.522
11183TIP3   OH233491   7.190   4.142   4.148
11183TIP3    H133492   7.149   4.188   4.075
11183TIP3    H233493   7.210   4.210   4.212
11184TIP3   OH233494   4.605   4.481   1.323
11184TIP3    H133495   4.673   4.545   1.340
11184TIP3    H233496   4.523   4.531   1.324
11185TIP3   OH233497   1.903   5.385   5.686
11185TIP3    H133498   1.921   5.449   5.617
11185TIP3    H233499   1.942   5.303   5.654
11186TIP3   OH233500   4.350   4.641   1.048
11186TIP3    H133501   4.292   4.699   0.998
11186TIP3    H233502   4.433   4.643   1.000
11187TIP3   OH233503   2.499   1.742   2.638
11187TIP3    H133504   2.570   1.723   2.700
11187TIP3    H233505   2.419   1.728   2.689
11188TIP3   OH233506   3.520   6.572   6.749
11188TIP3    H133507   3.572   6.615   6.681
11188TIP3    H233508   3.481   6.497   6.706
11189TIP3   OH233509   7.670   7.365   5.824
11189TIP3    H133510   7.645   7.315   5.902
11189TIP3    H233511   7.589   7.374   5.774
11190TIP3   OH233512   3.800   4.520   0.350
11190TIP3    H133513   3.748   4.594   0.382
11190TIP3    H233514   3.747   4.482   0.280
11191TIP3   OH233515   2.621   7.452   5.511
11191TIP3    H133516   2.622   7.542   5.477
11191TIP3    H233517   2.714   7.431   5.523
11192TIP3   OH233518   5.397   6.506   0.364
11192TIP3    H133519   5.445   6.585   0.391
11192TIP3    H233520   5.340   6.536   0.294
11193TIP3   OH233521   1.149   3.265   0.376
11193TIP3    H133522   1.095   3.272   0.455
11193TIP3    H233523   1.098   3.211   0.316
11194TIP3   OH233524   2.185   6.899   6.730
11194TIP3    H133525   2.165   6.812   6.697
11194TIP3    H233526   2.156   6.897   6.822
11195TIP3   OH233527   2.405   0.820   0.776
11195TIP3    H133528   2.323   0.849   0.736
11195TIP3    H233529   2.379   0.782   0.860
11196TIP3   OH233530   4.144   1.667   2.614
11196TIP3    H133531   4.173   1.578   2.634
11196TIP3    H233532   4.056   1.673   2.652
11197TIP3   OH233533   7.358   4.604   0.111
11197TIP3    H133534   7.338   4.513   0.093
11197TIP3    H233535   7.365   4.609   0.207
11198TIP3   OH233536   6.540   3.765   5.920
11198TIP3    H133537   6.596   3.830   5.963
11198TIP3    H233538   6.588   3.683   5.927
11199TIP3   OH233539   3.453   3.963   5.293
11199TIP3    H133540   3.522   3.897   5.285
11199TIP3    H233541   3.483   4.037   5.240
11200TIP3   OH233542   6.103   5.022   2.623
11200TIP3    H133543   6.081   4.961   2.693
11200TIP3    H233544   6.037   5.005   2.556
11201TIP3   OH233545   4.990   5.293   6.722
11201TIP3    H133546   4.985   5.260   6.632
11201TIP3    H233547   5.021   5.383   6.713
11202TIP3   OH233548   1.971   1.554   0.219
11202TIP3    H133549   1.971   1.592   0.132
11202TIP3    H233550   1.880   1.563   0.249
11203TIP3   OH233551   7.962   3.196   6.430
11203TIP3    H133552   7.921   3.227   6.349
11203TIP3    H233553   8.050   3.171   6.404
11204TIP3   OH233554   0.727   7.404   1.278
11204TIP3    H133555   0.639   7.375   1.254
11204TIP3    H233556   0.737   7.378   1.369
11205TIP3   OH233557   2.813   2.694   1.120
11205TIP3    H133558   2.742   2.637   1.150
11205TIP3    H233559   2.836   2.745   1.198
11206TIP3   OH233560   7.513   0.363   1.956
11206TIP3    H133561   7.575   0.401   2.019
11206TIP3    H233562   7.431   0.358   2.004
11207TIP3   OH233563   6.331   5.547   3.961
11207TIP3    H133564   6.370   5.632   3.941
11207TIP3    H233565   6.297   5.557   4.050
11208TIP3   OH233566   7.322   1.483   6.567
11208TIP3    H133567   7.381   1.426   6.518
11208TIP3    H233568   7.266   1.522   6.500
11209TIP3   OH233569   7.954   3.994   5.853
11209TIP3    H133570   7.931   4.084   5.831
11209TIP3    H233571   8.017   4.002   5.924
11210TIP3   OH233572   7.887   6.593   5.258
11210TIP3    H133573   7.812   6.582   5.317
11210TIP3    H233574   7.871   6.530   5.188
11211TIP3   OH233575   1.014   3.608   4.452
11211TIP3    H133576   0.985   3.697   4.470
11211TIP3    H233577   1.068   3.615   4.373
11212TIP3   OH233578   1.020   6.088   5.992
11212TIP3    H133579   1.105   6.123   5.966
11212TIP3    H233580   1.023   6.089   6.088
11213TIP3   OH233581   5.146   7.296   1.013
11213TIP3    H133582   5.069   7.265   1.060
11213TIP3    H233583   5.137   7.262   0.925
11214TIP3   OH233584   3.226   0.994   5.913
11214TIP3    H133585   3.140   0.998   5.955
11214TIP3    H233586   3.216   1.042   5.831
11215TIP3   OH233587   0.937   3.545   0.827
11215TIP3    H133588   1.023   3.516   0.859
11215TIP3    H233589   0.950   3.560   0.734
11216TIP3   OH233590   1.347   0.903   3.110
11216TIP3    H133591   1.355   0.839   3.180
11216TIP3    H233592   1.269   0.875   3.061
11217TIP3   OH233593   2.122   0.303   2.456
11217TIP3    H133594   2.031   0.330   2.451
11217TIP3    H233595   2.154   0.310   2.366
11218TIP3   OH233596   6.365   4.019   2.086
11218TIP3    H133597   6.366   3.988   2.176
11218TIP3    H233598   6.411   4.103   2.089
11219TIP3   OH233599   6.377   2.452   3.245
11219TIP3    H133600   6.328   2.382   3.201
11219TIP3    H233601   6.311   2.518   3.265
11220TIP3   OH233602   1.723   6.293   2.566
11220TIP3    H133603   1.679   6.362   2.616
11220TIP3    H233604   1.778   6.340   2.503
11221TIP3   OH233605   3.270   5.672   1.131
11221TIP3    H133606   3.318   5.740   1.084
11221TIP3    H233607   3.257   5.602   1.067
11222TIP3   OH233608   2.866   2.078   2.662
11222TIP3    H133609   2.780   2.055   2.696
11222TIP3    H233610   2.927   2.024   2.711
11223TIP3   OH233611   0.428   3.023   1.087
11223TIP3    H133612   0.514   3.065   1.093
11223TIP3    H233613   0.408   2.996   1.177
11224TIP3   OH233614   2.265   1.297   1.078
11224TIP3    H133615   2.247   1.228   1.014
11224TIP3    H233616   2.274   1.376   1.025
11225TIP3   OH233617   7.210   7.764   3.730
11225TIP3    H133618   7.128   7.787   3.774
11225TIP3    H233619   7.203   7.670   3.714
11226TIP3   OH233620   0.355   4.574   2.278
11226TIP3    H133621   0.367   4.531   2.362
11226TIP3    H233622   0.301   4.651   2.297
11227TIP3   OH233623   6.625   6.757   5.656
11227TIP3    H133624   6.624   6.819   5.729
11227TIP3    H233625   6.605   6.672   5.697
11228TIP3   OH233626   4.604   1.542   2.288
11228TIP3    H133627   4.600   1.633   2.318
11228TIP3    H233628   4.546   1.495   2.348
11229TIP3   OH233629   5.040   1.897   2.508
11229TIP3    H133630   5.021   1.962   2.440
11229TIP3    H233631   4.960   1.892   2.560
11230TIP3   OH233632   5.006   7.474   3.330
11230TIP3    H133633   4.950   7.404   3.296
11230TIP3    H233634   4.945   7.545   3.351
11231TIP3   OH233635   3.727   4.352   6.587
11231TIP3    H133636   3.739   4.261   6.563
11231TIP3    H233637   3.635   4.370   6.567
11232TIP3   OH233638   5.974   1.699   4.135
11232TIP3    H133639   5.998   1.783   4.175
11232TIP3    H233640   5.985   1.714   4.041
11233TIP3   OH233641   7.379   5.817   2.477
11233TIP3    H133642   7.413   5.860   2.398
11233TIP3    H233643   7.284   5.810   2.460
11234TIP3   OH233644   6.188   5.735   4.194
11234TIP3    H133645   6.273   5.775   4.176
11234TIP3    H233646   6.199   5.692   4.279
11235TIP3   OH233647   3.473   4.675   6.151
11235TIP3    H133648   3.521   4.651   6.230
11235TIP3    H233649   3.524   4.747   6.113
11236TIP3   OH233650   5.855   5.254   2.634
11236TIP3    H133651   5.917   5.186   2.608
11236TIP3    H233652   5.842   5.240   2.728
11237TIP3   OH233653   2.501   3.312   5.222
11237TIP3    H133654   2.439   3.241   5.239
11237TIP3    H233655   2.495   3.328   5.128
11238TIP3   OH233656   7.731   5.923   4.316
11238TIP3    H133657   7.785   5.960   4.246
11238TIP3    H233658   7.782   5.850   4.350
11239TIP3   OH233659   1.065   3.813   1.447
11239TIP3    H133660   1.072   3.890   1.391
11239TIP3    H233661   0.986   3.828   1.500
11240TIP3   OH233662   7.901   5.643   4.411
11240TIP3    H133663   7.990   5.629   4.442
11240TIP3    H233664   7.848   5.649   4.491
11241TIP3   OH233665   4.006   1.242   6.403
11241TIP3    H133666   4.011   1.186   6.480
11241TIP3    H233667   3.925   1.214   6.359
11242TIP3   OH233668   4.301   2.550   5.846
11242TIP3    H133669   4.254   2.475   5.884
11242TIP3    H233670   4.263   2.560   5.759
11243TIP3   OH233671   4.747   0.490   2.715
11243TIP3    H133672   4.765   0.548   2.641
11243TIP3    H233673   4.688   0.541   2.771
11244TIP3   OH233674   7.544   2.798   3.455
11244TIP3    H133675   7.473   2.839   3.405
11244TIP3    H233676   7.624   2.831   3.414
11245TIP3   OH233677   3.959   5.604   6.013
11245TIP3    H133678   3.906   5.563   6.081
11245TIP3    H233679   3.933   5.697   6.016
11246TIP3   OH233680   5.292   5.756   5.464
11246TIP3    H133681   5.267   5.668   5.437
11246TIP3    H233682   5.213   5.808   5.452
11247TIP3   OH233683   0.688   5.132   6.641
11247TIP3    H133684   0.614   5.172   6.594
11247TIP3    H233685   0.697   5.046   6.601
11248TIP3   OH233686   4.425   6.820   5.502
11248TIP3    H133687   4.470   6.737   5.518
11248TIP3    H233688   4.364   6.802   5.431
11249TIP3   OH233689   7.563   1.332   0.866
11249TIP3    H133690   7.504   1.368   0.800
11249TIP3    H233691   7.621   1.274   0.817
11250TIP3   OH233692   7.744   6.734   1.732
11250TIP3    H133693   7.782   6.766   1.651
11250TIP3    H233694   7.663   6.690   1.705
11251TIP3   OH233695   3.367   4.383   1.783
11251TIP3    H133696   3.296   4.328   1.817
11251TIP3    H233697   3.399   4.430   1.859
11252TIP3   OH233698   7.301   7.295   1.639
11252TIP3    H133699   7.367   7.341   1.690
11252TIP3    H233700   7.261   7.363   1.585
11253TIP3   OH233701   3.387   0.372   1.012
11253TIP3    H133702   3.477   0.344   0.996
11253TIP3    H233703   3.393   0.432   1.086
11254TIP3   OH233704   3.361   2.352   1.660
11254TIP3    H133705   3.269   2.350   1.632
11254TIP3    H233706   3.389   2.261   1.657
11255TIP3   OH233707   8.250   7.017   0.878
11255TIP3    H133708   8.176   6.961   0.855
11255TIP3    H233709   8.326   6.959   0.875
11256TIP3   OH233710   2.749   5.805   0.578
11256TIP3    H133711   2.788   5.829   0.662
11256TIP3    H233712   2.721   5.889   0.540
11257TIP3   OH233713   7.773   0.144   5.099
11257TIP3    H133714   7.791   0.187   5.015
11257TIP3    H233715   7.705   0.198   5.139
11258TIP3   OH233716   0.752   0.840   4.036
11258TIP3    H133717   0.831   0.786   4.026
11258TIP3    H233718   0.680   0.782   4.011
11259TIP3   OH233719   5.751   1.534   6.013
11259TIP3    H133720   5.842   1.561   6.032
11259TIP3    H233721   5.758   1.442   5.989
11260TIP3   OH233722   2.913   3.971   4.773
11260TIP3    H133723   2.959   3.969   4.690
11260TIP3    H233724   2.925   3.884   4.810
11261TIP3   OH233725   4.144   7.315   5.744
11261TIP3    H133726   4.075   7.252   5.725
11261TIP3    H233727   4.103   7.380   5.801
11262TIP3   OH233728   0.462   2.148   4.677
11262TIP3    H133729   0.485   2.167   4.768
11262TIP3    H233730   0.540   2.172   4.627
11263TIP3   OH233731   6.632   0.621   5.077
11263TIP3    H133732   6.684   0.661   5.147
11263TIP3    H233733   6.668   0.658   4.997
11264TIP3   OH233734   5.196   7.220   3.129
11264TIP3    H133735   5.261   7.202   3.197
11264TIP3    H233736   5.208   7.312   3.108
11265TIP3   OH233737   6.314   1.392   6.185
11265TIP3    H133738   6.371   1.428   6.118
11265TIP3    H233739   6.311   1.298   6.166
11266TIP3   OH233740   0.844   1.558   0.730
11266TIP3    H133741   0.769   1.617   0.734
11266TIP3    H233742   0.914   1.604   0.776
11267TIP3   OH233743   3.088   6.808   0.390
11267TIP3    H133744   3.069   6.717   0.365
11267TIP3    H233745   3.055   6.861   0.317
11268TIP3   OH233746   4.663   2.587   0.861
11268TIP3    H133747   4.727   2.526   0.825
11268TIP3    H233748   4.707   2.672   0.857
11269TIP3   OH233749   5.244   1.188   6.573
11269TIP3    H133750   5.222   1.257   6.510
11269TIP3    H233751   5.237   1.229   6.659
11270TIP3   OH233752   2.865   6.781   2.881
11270TIP3    H133753   2.784   6.826   2.903
11270TIP3    H233754   2.854   6.693   2.916
11271TIP3   OH233755   3.678   5.714   5.600
11271TIP3    H133756   3.656   5.762   5.679
11271TIP3    H233757   3.619   5.749   5.533
11272TIP3   OH233758   6.266   5.289   6.434
11272TIP3    H133759   6.205   5.246   6.494
11272TIP3    H233760   6.213   5.311   6.357
11273TIP3   OH233761   5.370   0.471   5.534
11273TIP3    H133762   5.277   0.481   5.553
11273TIP3    H233763   5.414   0.501   5.613
11274TIP3   OH233764   5.324   4.707   5.858
11274TIP3    H133765   5.393   4.702   5.924
11274TIP3    H233766   5.321   4.620   5.819
11275TIP3   OH233767   2.001   4.907   5.527
11275TIP3    H133768   1.914   4.888   5.493
11275TIP3    H233769   2.013   4.846   5.600
11276TIP3   OH233770   5.599   6.505   5.195
11276TIP3    H133771   5.642   6.425   5.163
11276TIP3    H233772   5.544   6.475   5.268
11277TIP3   OH233773   8.076   0.636   2.140
11277TIP3    H133774   8.013   0.655   2.070
11277TIP3    H233775   8.035   0.566   2.190
11278TIP3   OH233776   6.724   1.327   4.213
11278TIP3    H133777   6.771   1.330   4.297
11278TIP3    H233778   6.688   1.416   4.203
11279TIP3   OH233779   0.924   4.343   5.693
11279TIP3    H133780   1.006   4.381   5.724
11279TIP3    H233781   0.951   4.276   5.630
11280TIP3   OH233782   5.975   2.494   2.566
11280TIP3    H133783   5.997   2.565   2.505
11280TIP3    H233784   5.884   2.510   2.589
11281TIP3   OH233785   2.573   0.886   5.763
11281TIP3    H133786   2.521   0.933   5.827
11281TIP3    H233787   2.589   0.949   5.693
11282TIP3   OH233788   0.077   0.904   0.779
11282TIP3    H133789   0.110   0.829   0.827
11282TIP3    H233790   0.002   0.935   0.830
11283TIP3   OH233791   0.192   6.090   5.088
11283TIP3    H133792   0.167   6.182   5.087
11283TIP3    H233793   0.137   6.051   5.156
11284TIP3   OH233794   7.580   1.540   1.281
11284TIP3    H133795   7.563   1.458   1.327
11284TIP3    H233796   7.495   1.584   1.277
11285TIP3   OH233797   3.674   1.376   2.001
11285TIP3    H133798   3.616   1.363   1.926
11285TIP3    H233799   3.705   1.466   1.991
11286TIP3   OH233800   4.845   6.229   5.749
11286TIP3    H133801   4.795   6.219   5.830
11286TIP3    H233802   4.930   6.262   5.778
11287TIP3   OH233803   2.195   0.827   4.349
11287TIP3    H133804   2.256   0.763   4.385
11287TIP3    H233805   2.177   0.887   4.422
11288TIP3   OH233806   3.651   3.969   0.027
11288TIP3    H133807   3.613   4.033   0.088
11288TIP3    H233808   3.592   3.970  -0.048
11289TIP3   OH233809   0.645   0.140   4.096
11289TIP3    H133810   0.590   0.062   4.086
11289TIP3    H233811   0.699   0.142   4.016
11290TIP3   OH233812   0.383   6.420   5.069
11290TIP3    H133813   0.471   6.425   5.029
11290TIP3    H233814   0.329   6.475   5.014
11291TIP3   OH233815   1.266   4.271   2.921
11291TIP3    H133816   1.197   4.235   2.978
11291TIP3    H233817   1.218   4.309   2.847
11292TIP3   OH233818   5.481   0.153   0.624
11292TIP3    H133819   5.416   0.223   0.621
11292TIP3    H233820   5.431   0.074   0.641
11293TIP3   OH233821   6.923   0.565   0.523
11293TIP3    H133822   6.884   0.647   0.554
11293TIP3    H233823   6.924   0.508   0.600
11294TIP3   OH233824   5.105   1.091   3.774
11294TIP3    H133825   5.169   1.022   3.792
11294TIP3    H233826   5.028   1.045   3.742
11295TIP3   OH233827   5.078   5.794   3.155
11295TIP3    H133828   4.995   5.799   3.108
11295TIP3    H233829   5.091   5.700   3.171
11296TIP3   OH233830   2.242   5.538   2.542
11296TIP3    H133831   2.149   5.518   2.546
11296TIP3    H233832   2.246   5.624   2.499
11297TIP3   OH233833   6.508   5.067   4.631
11297TIP3    H133834   6.483   5.121   4.555
11297TIP3    H233835   6.426   5.025   4.658
11298TIP3   OH233836   1.608   2.801   1.538
11298TIP3    H133837   1.581   2.881   1.583
11298TIP3    H233838   1.526   2.758   1.514
11299TIP3   OH233839   6.852   0.561   4.279
11299TIP3    H133840   6.895   0.476   4.274
11299TIP3    H233841   6.844   0.578   4.373
11300TIP3   OH233842   8.034   0.045   2.868
11300TIP3    H133843   7.953   0.087   2.840
11300TIP3    H233844   8.050   0.079   2.956
11301TIP3   OH233845   0.348   1.122   6.455
11301TIP3    H133846   0.362   1.029   6.471
11301TIP3    H233847   0.428   1.151   6.411
11302TIP3   OH233848   2.162   6.251   6.264
11302TIP3    H133849   2.216   6.180   6.230
11302TIP3    H233850   2.204   6.276   6.346
11303TIP3   OH233851   2.381   3.064   4.114
11303TIP3    H133852   2.475   3.058   4.100
11303TIP3    H233853   2.373   3.091   4.206
11304TIP3   OH233854   5.221   3.905   2.184
11304TIP3    H133855   5.228   3.964   2.259
11304TIP3    H233856   5.144   3.935   2.137
11305TIP3   OH233857   4.532   4.531   6.493
11305TIP3    H133858   4.467   4.600   6.492
11305TIP3    H233859   4.530   4.495   6.404
11306TIP3   OH233860   4.402   4.957   2.931
11306TIP3    H133861   4.494   4.963   2.957
11306TIP3    H233862   4.402   4.974   2.837
11307TIP3   OH233863   7.450   5.905   2.177
11307TIP3    H133864   7.417   5.815   2.177
11307TIP3    H233865   7.379   5.956   2.138
11308TIP3   OH233866   1.949   5.273   1.541
11308TIP3    H133867   1.923   5.309   1.456
11308TIP3    H233868   1.979   5.350   1.591
11309TIP3   OH233869   3.415   5.807   6.498
11309TIP3    H133870   3.408   5.735   6.561
11309TIP3    H233871   3.366   5.879   6.538
11310TIP3   OH233872   6.033   1.785   3.849
11310TIP3    H133873   5.986   1.796   3.766
11310TIP3    H233874   6.014   1.866   3.898
11311TIP3   OH233875   3.510   0.243   6.449
11311TIP3    H133876   3.450   0.184   6.494
11311TIP3    H233877   3.456   0.317   6.422
11312TIP3   OH233878  -0.041   2.720   3.425
11312TIP3    H133879   0.035   2.662   3.414
11312TIP3    H233880  -0.098   2.700   3.351
11313TIP3   OH233881   5.615   3.761   3.252
11313TIP3    H133882   5.616   3.736   3.160
11313TIP3    H233883   5.644   3.683   3.299
11314TIP3   OH233884   2.352   6.522   5.703
11314TIP3    H133885   2.440   6.543   5.672
11314TIP3    H233886   2.365   6.486   5.791
11315TIP3   OH233887   7.285   1.634   5.030
11315TIP3    H133888   7.286   1.664   5.121
11315TIP3    H233889   7.368   1.587   5.019
11316TIP3   OH233890   4.917   3.572   2.152
11316TIP3    H133891   4.929   3.485   2.189
11316TIP3    H233892   5.005   3.609   2.147
11317TIP3   OH233893   2.151   2.270   0.415
11317TIP3    H133894   2.112   2.198   0.364
11317TIP3    H233895   2.077   2.313   0.457
11318TIP3   OH233896   6.862   6.503   2.805
11318TIP3    H133897   6.868   6.409   2.792
11318TIP3    H233898   6.792   6.531   2.746
11319TIP3   OH233899   7.297   4.597   2.828
11319TIP3    H133900   7.206   4.573   2.809
11319TIP3    H233901   7.350   4.531   2.784
11320TIP3   OH233902   6.869   1.188   1.180
11320TIP3    H133903   6.792   1.240   1.203
11320TIP3    H233904   6.846   1.099   1.206
11321TIP3   OH233905   7.808   2.743   6.698
11321TIP3    H133906   7.805   2.808   6.628
11321TIP3    H233907   7.843   2.664   6.657
11322TIP3   OH233908   5.153   0.813   4.641
11322TIP3    H133909   5.137   0.720   4.651
11322TIP3    H233910   5.071   0.855   4.668
11323TIP3   OH233911   1.929   1.530   6.221
11323TIP3    H133912   1.836   1.532   6.197
11323TIP3    H233913   1.941   1.605   6.278
11324TIP3   OH233914   8.013   4.056   5.391
11324TIP3    H133915   8.080   4.027   5.329
11324TIP3    H233916   8.061   4.112   5.453
11325TIP3   OH233917   4.758   4.758   4.704
11325TIP3    H133918   4.795   4.673   4.680
11325TIP3    H233919   4.677   4.764   4.654
11326TIP3   OH233920   6.892   2.491   4.665
11326TIP3    H133921   6.925   2.466   4.579
11326TIP3    H233922   6.928   2.425   4.725
11327TIP3   OH233923   2.945   0.155   4.622
11327TIP3    H133924   2.892   0.211   4.679
11327TIP3    H233925   2.952   0.073   4.670
11328TIP3   OH233926   0.805   2.280   1.883
11328TIP3    H133927   0.772   2.294   1.972
11328TIP3    H233928   0.893   2.317   1.885
11329TIP3   OH233929   0.496   6.834   0.708
11329TIP3    H133930   0.491   6.921   0.668
11329TIP3    H233931   0.569   6.791   0.663
11330TIP3   OH233932   3.373   1.663   5.351
11330TIP3    H133933   3.341   1.674   5.440
11330TIP3    H233934   3.403   1.751   5.326
11331TIP3   OH233935   5.212   2.235   1.444
11331TIP3    H133936   5.173   2.168   1.388
11331TIP3    H233937   5.264   2.289   1.384
11332TIP3   OH233938   7.833   5.026   4.887
11332TIP3    H133939   7.898   5.021   4.817
11332TIP3    H233940   7.819   5.120   4.900
11333TIP3   OH233941   4.361   1.832   5.741
11333TIP3    H133942   4.355   1.778   5.662
11333TIP3    H233943   4.270   1.858   5.759
11334TIP3   OH233944   6.245   3.306   4.347
11334TIP3    H133945   6.160   3.278   4.383
11334TIP3    H233946   6.255   3.396   4.377
11335TIP3   OH233947   4.946   1.079   1.479
11335TIP3    H133948   5.004   1.010   1.512
11335TIP3    H233949   4.949   1.148   1.545
11336TIP3   OH233950   7.137   6.372   2.235
11336TIP3    H133951   7.143   6.383   2.140
11336TIP3    H233952   7.198   6.302   2.255
11337TIP3   OH233953   3.100   6.379   1.349
11337TIP3    H133954   3.024   6.400   1.294
11337TIP3    H233955   3.077   6.413   1.436
11338TIP3   OH233956   0.358   0.245   5.054
11338TIP3    H133957   0.346   0.339   5.069
11338TIP3    H233958   0.297   0.204   5.115
11339TIP3   OH233959   3.516   7.480   5.443
11339TIP3    H133960   3.492   7.504   5.354
11339TIP3    H233961   3.448   7.420   5.471
11340TIP3   OH233962   6.919   2.030   5.499
11340TIP3    H133963   6.979   1.997   5.566
11340TIP3    H233964   6.883   1.952   5.457
11341TIP3   OH233965   5.734   7.044   2.687
11341TIP3    H133966   5.784   7.044   2.605
11341TIP3    H233967   5.643   7.059   2.659
11342TIP3   OH233968   5.001   4.932   6.429
11342TIP3    H133969   5.074   4.930   6.490
11342TIP3    H233970   4.925   4.906   6.482
11343TIP3   OH233971   4.302   3.069   5.234
11343TIP3    H133972   4.272   3.022   5.311
11343TIP3    H233973   4.383   3.026   5.209
11344TIP3   OH233974   7.900   1.288   2.571
11344TIP3    H133975   7.953   1.367   2.570
11344TIP3    H233976   7.887   1.269   2.664
11345TIP3   OH233977   6.931   4.233   1.785
11345TIP3    H133978   7.013   4.211   1.830
11345TIP3    H233979   6.864   4.219   1.852
11346TIP3   OH233980   6.076   3.376   5.723
11346TIP3    H133981   5.988   3.413   5.732
11346TIP3    H233982   6.078   3.304   5.786
11347TIP3   OH233983   3.094   2.040   0.416
11347TIP3    H133984   3.155   2.113   0.415
11347TIP3    H233985   3.114   1.992   0.496
11348TIP3   OH233986   0.397   5.724   1.431
11348TIP3    H133987   0.482   5.696   1.398
11348TIP3    H233988   0.335   5.699   1.362
11349TIP3   OH233989   4.512   5.505   1.135
11349TIP3    H133990   4.497   5.581   1.191
11349TIP3    H233991   4.440   5.446   1.155
11350TIP3   OH233992   8.233   3.782   6.779
11350TIP3    H133993   8.203   3.712   6.721
11350TIP3    H233994   8.304   3.825   6.731
11351TIP3   OH233995   1.079   5.586   5.372
11351TIP3    H133996   1.110   5.535   5.297
11351TIP3    H233997   1.035   5.522   5.428
11352TIP3   OH233998   3.670   4.343   5.458
11352TIP3    H133999   3.743   4.282   5.460
11352TIP3    H234000   3.671   4.379   5.369
11353TIP3   OH234001   4.216   5.108   0.523
11353TIP3    H134002   4.160   5.182   0.546
11353TIP3    H234003   4.275   5.098   0.597
11354TIP3   OH234004   1.563   2.705   0.184
11354TIP3    H134005   1.527   2.662   0.262
11354TIP3    H234006   1.583   2.794   0.213
11355TIP3   OH234007   2.301   2.886   2.931
11355TIP3    H134008   2.326   2.914   3.019
11355TIP3    H234009   2.311   2.790   2.932
11356TIP3   OH234010   1.543   3.852   2.214
11356TIP3    H134011   1.621   3.852   2.158
11356TIP3    H234012   1.551   3.931   2.267
11357TIP3   OH234013   7.730   3.175   3.862
11357TIP3    H134014   7.653   3.188   3.807
11357TIP3    H234015   7.778   3.104   3.820
11358TIP3   OH234016   6.331   2.007   6.445
11358TIP3    H134017   6.240   2.035   6.450
11358TIP3    H234018   6.379   2.070   6.499
11359TIP3   OH234019   4.963   2.652   3.371
11359TIP3    H134020   4.867   2.659   3.374
11359TIP3    H234021   4.979   2.558   3.357
11360TIP3   OH234022   7.575   0.250   3.686
11360TIP3    H134023   7.643   0.294   3.636
11360TIP3    H234024   7.505   0.233   3.623
11361TIP3   OH234025   3.162   6.081   3.116
11361TIP3    H134026   3.224   6.009   3.127
11361TIP3    H234027   3.106   6.076   3.193
11362TIP3   OH234028   3.185   0.933   3.206
11362TIP3    H134029   3.231   0.850   3.214
11362TIP3    H234030   3.237   0.995   3.258
11363TIP3   OH234031   7.602   3.545   2.891
11363TIP3    H134032   7.620   3.557   2.798
11363TIP3    H234033   7.547   3.619   2.915
11364TIP3   OH234034   5.782   3.973   3.325
11364TIP3    H134035   5.822   3.988   3.240
11364TIP3    H234036   5.732   3.892   3.315
11365TIP3   OH234037   1.781   6.457   1.473
11365TIP3    H134038   1.780   6.473   1.378
11365TIP3    H234039   1.761   6.363   1.481
11366TIP3   OH234040   2.991   5.167   1.204
11366TIP3    H134041   2.918   5.226   1.189
11366TIP3    H234042   2.970   5.123   1.287
11367TIP3   OH234043   2.014   2.531   1.662
11367TIP3    H134044   2.072   2.466   1.622
11367TIP3    H234045   1.946   2.546   1.597
11368TIP3   OH234046   6.952   1.806   2.958
11368TIP3    H134047   6.944   1.784   2.866
11368TIP3    H234048   6.870   1.778   2.998
11369TIP3   OH234049   1.268   3.869   3.975
11369TIP3    H134050   1.193   3.820   4.010
11369TIP3    H234051   1.236   3.958   3.966
11370TIP3   OH234052   7.464   2.595   1.914
11370TIP3    H134053   7.542   2.630   1.870
11370TIP3    H234054   7.394   2.657   1.891
11371TIP3   OH234055   1.134   2.171   3.669
11371TIP3    H134056   1.180   2.241   3.715
11371TIP3    H234057   1.173   2.091   3.703
11372TIP3   OH234058   3.862   7.647   1.754
11372TIP3    H134059   3.800   7.589   1.708
11372TIP3    H234060   3.921   7.677   1.685
11373TIP3   OH234061   1.399   2.429   2.701
11373TIP3    H134062   1.467   2.453   2.764
11373TIP3    H234063   1.319   2.469   2.735
11374TIP3   OH234064   3.433   4.452   3.435
11374TIP3    H134065   3.478   4.387   3.489
11374TIP3    H234066   3.340   4.430   3.444
11375TIP3   OH234067   6.007   2.579   5.104
11375TIP3    H134068   5.947   2.623   5.165
11375TIP3    H234069   5.962   2.497   5.082
11376TIP3   OH234070   2.007   7.533   0.121
11376TIP3    H134071   1.985   7.519   0.029
11376TIP3    H234072   1.946   7.601   0.150
11377TIP3   OH234073   5.258   1.120   2.801
11377TIP3    H134074   5.237   1.096   2.710
11377TIP3    H234075   5.345   1.157   2.795
11378TIP3   OH234076   5.603   3.530   4.185
11378TIP3    H134077   5.626   3.438   4.170
11378TIP3    H234078   5.537   3.527   4.254
11379TIP3   OH234079   6.657   6.220   0.481
11379TIP3    H134080   6.734   6.193   0.531
11379TIP3    H234081   6.691   6.276   0.411
11380TIP3   OH234082   5.333   6.255   1.749
11380TIP3    H134083   5.253   6.247   1.697
11380TIP3    H234084   5.303   6.289   1.833
11381TIP3   OH234085   0.725   3.129   3.043
11381TIP3    H134086   0.703   3.138   3.136
11381TIP3    H234087   0.664   3.063   3.011
11382TIP3   OH234088   7.607   4.945   4.014
11382TIP3    H134089   7.538   5.007   4.037
11382TIP3    H234090   7.661   4.938   4.092
11383TIP3   OH234091   6.044   1.389   1.797
11383TIP3    H134092   6.056   1.378   1.703
11383TIP3    H234093   6.025   1.301   1.829
11384TIP3   OH234094   0.657   4.311   4.416
11384TIP3    H134095   0.629   4.393   4.458
11384TIP3    H234096   0.576   4.260   4.408
11385TIP3   OH234097   6.659   2.667   0.188
11385TIP3    H134098   6.720   2.714   0.132
11385TIP3    H234099   6.579   2.661   0.135
11386TIP3   OH234100   3.966   4.006   5.189
11386TIP3    H134101   4.001   4.095   5.188
11386TIP3    H234102   3.945   3.988   5.097
11387TIP3   OH234103   2.143   1.448   3.335
11387TIP3    H134104   2.130   1.533   3.293
11387TIP3    H234105   2.113   1.385   3.269
11388TIP3   OH234106   2.048   7.396   4.195
11388TIP3    H134107   2.012   7.460   4.133
11388TIP3    H234108   2.003   7.415   4.278
11389TIP3   OH234109   7.974   7.734   3.169
11389TIP3    H134110   7.879   7.741   3.174
11389TIP3    H234111   8.006   7.773   3.250
11390TIP3   OH234112   8.199   6.620   5.124
11390TIP3    H134113   8.294   6.620   5.138
11390TIP3    H234114   8.163   6.601   5.211
11391TIP3   OH234115   4.053   1.798   4.375
11391TIP3    H134116   4.000   1.876   4.355
11391TIP3    H234117   4.143   1.830   4.378
11392TIP3   OH234118   5.687   5.836   4.493
11392TIP3    H134119   5.764   5.785   4.517
11392TIP3    H234120   5.721   5.923   4.473
11393TIP3   OH234121   7.371   4.272   5.996
11393TIP3    H134122   7.439   4.211   5.968
11393TIP3    H234123   7.297   4.253   5.939
11394TIP3   OH234124   3.595   5.440   2.085
11394TIP3    H134125   3.529   5.447   2.154
11394TIP3    H234126   3.674   5.479   2.121
11395TIP3   OH234127   5.602   1.448   2.391
11395TIP3    H134128   5.559   1.419   2.310
11395TIP3    H234129   5.565   1.536   2.407
11396TIP3   OH234130   0.584   4.374   5.227
11396TIP3    H134131   0.493   4.403   5.237
11396TIP3    H234132   0.630   4.417   5.299
11397TIP3   OH234133   6.756   3.260   1.158
11397TIP3    H134134   6.690   3.314   1.201
11397TIP3    H234135   6.774   3.304   1.075
11398TIP3   OH234136   6.624   3.122   4.053
11398TIP3    H134137   6.598   3.034   4.080
11398TIP3    H234138   6.627   3.173   4.135
11399TIP3   OH234139   1.963   2.426   2.459
11399TIP3    H134140   1.969   2.521   2.448
11399TIP3    H234141   2.053   2.398   2.473
11400TIP3   OH234142   4.491   4.113   3.311
11400TIP3    H134143   4.504   4.193   3.361
11400TIP3    H234144   4.571   4.104   3.259
11401TIP3   OH234145   2.323   2.008   4.864
11401TIP3    H134146   2.385   1.980   4.932
11401TIP3    H234147   2.329   1.940   4.796
11402TIP3   OH234148   8.018   4.574   2.670
11402TIP3    H134149   8.029   4.501   2.731
11402TIP3    H234150   7.937   4.617   2.698
11403TIP3   OH234151   3.421   5.176   6.162
11403TIP3    H134152   3.416   5.216   6.075
11403TIP3    H234153   3.332   5.184   6.197
11404TIP3   OH234154   2.222   6.245   3.115
11404TIP3    H134155   2.222   6.292   3.198
11404TIP3    H234156   2.285   6.292   3.061
11405TIP3   OH234157   0.557   7.738   4.402
11405TIP3    H134158   0.466   7.733   4.372
11405TIP3    H234159   0.552   7.722   4.496
11406TIP3   OH234160   6.231   4.570   1.175
11406TIP3    H134161   6.157   4.611   1.130
11406TIP3    H234162   6.302   4.571   1.110
11407TIP3   OH234163   0.003   1.021   1.465
11407TIP3    H134164  -0.025   0.932   1.441
11407TIP3    H234165  -0.061   1.049   1.530
11408TIP3   OH234166   0.516   2.973   5.744
11408TIP3    H134167   0.587   3.035   5.760
11408TIP3    H234168   0.543   2.926   5.665
11409TIP3   OH234169   1.687   2.576   1.357
11409TIP3    H134170   1.743   2.507   1.393
11409TIP3    H234171   1.724   2.658   1.391
11410TIP3   OH234172   3.858   6.850   4.587
11410TIP3    H134173   3.816   6.770   4.555
11410TIP3    H234174   3.930   6.865   4.527
11411TIP3   OH234175   0.175   7.393   6.477
11411TIP3    H134176   0.251   7.427   6.524
11411TIP3    H234177   0.107   7.459   6.489
11412TIP3   OH234178   2.703   2.048   0.136
11412TIP3    H134179   2.662   1.986   0.196
11412TIP3    H234180   2.635   2.113   0.118
11413TIP3   OH234181   4.770   0.696   3.105
11413TIP3    H134182   4.705   0.671   3.039
11413TIP3    H234183   4.844   0.637   3.090
11414TIP3   OH234184   3.541   2.833   2.957
11414TIP3    H134185   3.575   2.844   3.046
11414TIP3    H234186   3.454   2.872   2.961
11415TIP3   OH234187   7.716   6.515   2.581
11415TIP3    H134188   7.704   6.537   2.488
11415TIP3    H234189   7.627   6.516   2.617
11416TIP3   OH234190   2.937   4.038   0.265
11416TIP3    H134191   2.924   4.062   0.357
11416TIP3    H234192   2.937   4.121   0.218
11417TIP3   OH234193   1.626   6.122   5.104
11417TIP3    H134194   1.541   6.166   5.109
11417TIP3    H234195   1.630   6.069   5.184
11418TIP3   OH234196   8.123   2.281   4.249
11418TIP3    H134197   8.096   2.308   4.337
11418TIP3    H234198   8.053   2.310   4.192
11419TIP3   OH234199   4.989   7.672   2.973
11419TIP3    H134200   4.976   7.740   2.906
11419TIP3    H234201   4.982   7.719   3.056
11420TIP3   OH234202   1.964   0.051   1.531
11420TIP3    H134203   1.978   0.104   1.453
11420TIP3    H234204   1.929   0.112   1.596
11421TIP3   OH234205   2.307   7.468   5.823
11421TIP3    H134206   2.264   7.552   5.807
11421TIP3    H234207   2.315   7.428   5.737
11422TIP3   OH234208   1.787   2.040   4.437
11422TIP3    H134209   1.860   2.038   4.376
11422TIP3    H234210   1.799   1.962   4.492
11423TIP3   OH234211   2.957   5.467   0.187
11423TIP3    H134212   2.910   5.458   0.270
11423TIP3    H234213   3.049   5.473   0.212
11424TIP3   OH234214   4.725   4.779   0.065
11424TIP3    H134215   4.763   4.703   0.020
11424TIP3    H234216   4.639   4.790   0.025
11425TIP3   OH234217   0.918   1.063   0.521
11425TIP3    H134218   0.900   0.999   0.590
11425TIP3    H234219   0.833   1.105   0.505
11426TIP3   OH234220   0.196   0.950   2.791
11426TIP3    H134221   0.197   1.042   2.767
11426TIP3    H234222   0.123   0.913   2.743
11427TIP3   OH234223   7.454   3.225   1.172
11427TIP3    H134224   7.453   3.157   1.105
11427TIP3    H234225   7.542   3.222   1.208
11428TIP3   OH234226   7.306   2.609   1.567
11428TIP3    H134227   7.346   2.648   1.646
11428TIP3    H234228   7.236   2.669   1.544
11429TIP3   OH234229   6.549   5.918   5.902
11429TIP3    H134230   6.587   5.966   5.828
11429TIP3    H234231   6.455   5.923   5.887
11430TIP3   OH234232   0.363   0.103   1.702
11430TIP3    H134233   0.370   0.142   1.614
11430TIP3    H234234   0.439   0.137   1.749
11431TIP3   OH234235   7.365   4.037   5.001
11431TIP3    H134236   7.367   4.006   4.910
11431TIP3    H234237   7.305   4.112   4.998
11432TIP3   OH234238   6.088   2.021   4.818
11432TIP3    H134239   6.006   2.050   4.858
11432TIP3    H234240   6.098   1.930   4.848
11433TIP3   OH234241   2.088   4.618   1.953
11433TIP3    H134242   2.069   4.680   2.023
11433TIP3    H234243   2.005   4.609   1.906
11434TIP3   OH234244   0.487   6.423   6.160
11434TIP3    H134245   0.555   6.488   6.139
11434TIP3    H234246   0.488   6.362   6.086
11435TIP3   OH234247   5.302   7.136   6.004
11435TIP3    H134248   5.275   7.048   5.978
11435TIP3    H234249   5.245   7.158   6.078
11436TIP3   OH234250   6.912   2.273   3.135
11436TIP3    H134251   6.877   2.356   3.104
11436TIP3    H234252   6.842   2.209   3.118
11437TIP3   OH234253   0.255   4.788   1.228
11437TIP3    H134254   0.212   4.703   1.226
11437TIP3    H234255   0.280   4.806   1.138
11438TIP3   OH234256   5.149   3.169   4.927
11438TIP3    H134257   5.152   3.135   5.016
11438TIP3    H234258   5.065   3.216   4.922
11439TIP3   OH234259   7.174   6.812   1.379
11439TIP3    H134260   7.160   6.890   1.433
11439TIP3    H234261   7.181   6.846   1.290
11440TIP3   OH234262   7.553   6.653   2.952
11440TIP3    H134263   7.495   6.621   2.882
11440TIP3    H234264   7.572   6.575   3.004
11441TIP3   OH234265   2.430   7.797   2.000
11441TIP3    H134266   2.507   7.759   2.041
11441TIP3    H234267   2.361   7.732   2.015
11442TIP3   OH234268   2.262   3.344   5.736
11442TIP3    H134269   2.175   3.305   5.727
11442TIP3    H234270   2.313   3.305   5.664
11443TIP3   OH234271   2.891   2.422   6.482
11443TIP3    H134272   2.858   2.334   6.465
11443TIP3    H234273   2.812   2.475   6.496
11444TIP3   OH234274   6.793   4.956   6.087
11444TIP3    H134275   6.748   5.036   6.060
11444TIP3    H234276   6.801   4.964   6.182
11445TIP3   OH234277   7.281   2.192   5.196
11445TIP3    H134278   7.350   2.238   5.243
11445TIP3    H234279   7.213   2.177   5.261
11446TIP3   OH234280   1.930   5.962   4.451
11446TIP3    H134281   1.931   6.053   4.423
11446TIP3    H234282   1.898   5.914   4.374
11447TIP3   OH234283   3.731   2.157   2.670
11447TIP3    H134284   3.645   2.175   2.633
11447TIP3    H234285   3.779   2.239   2.662
11448TIP3   OH234286   1.029   2.080   2.475
11448TIP3    H134287   1.079   2.028   2.413
11448TIP3    H234288   1.095   2.133   2.520
11449TIP3   OH234289   4.962   0.351   2.858
11449TIP3    H134290   4.933   0.419   2.796
11449TIP3    H234291   4.909   0.275   2.836
11450TIP3   OH234292   4.617   6.047   2.325
11450TIP3    H134293   4.709   6.046   2.354
11450TIP3    H234294   4.575   6.110   2.383
11451TIP3   OH234295   7.355   7.622   5.995
11451TIP3    H134296   7.319   7.542   6.033
11451TIP3    H234297   7.437   7.594   5.954
11452TIP3   OH234298   7.073   2.610   5.206
11452TIP3    H134299   6.983   2.616   5.240
11452TIP3    H234300   7.098   2.701   5.189
11453TIP3   OH234301   3.140   3.453   5.435
11453TIP3    H134302   3.164   3.425   5.524
11453TIP3    H234303   3.065   3.511   5.449
11454TIP3   OH234304   0.299   0.273   3.942
11454TIP3    H134305   0.371   0.258   3.881
11454TIP3    H234306   0.221   0.275   3.887
11455TIP3   OH234307   4.735   6.491   0.015
11455TIP3    H134308   4.759   6.438   0.091
11455TIP3    H234309   4.817   6.504  -0.033
11456TIP3   OH234310   3.711   7.692   6.057
11456TIP3    H134311   3.724   7.722   5.967
11456TIP3    H234312   3.625   7.724   6.082
11457TIP3   OH234313   1.200   2.462   4.556
11457TIP3    H134314   1.171   2.471   4.647
11457TIP3    H234315   1.287   2.422   4.563
11458TIP3   OH234316   5.283   5.402   2.922
11458TIP3    H134317   5.314   5.400   2.831
11458TIP3    H234318   5.203   5.455   2.919
11459TIP3   OH234319   4.522   3.059   3.798
11459TIP3    H134320   4.442   3.059   3.746
11459TIP3    H234321   4.519   3.142   3.847
11460TIP3   OH234322   5.377   0.911   4.739
11460TIP3    H134323   5.298   0.860   4.717
11460TIP3    H234324   5.432   0.904   4.661
11461TIP3   OH234325   3.454   4.947   6.297
11461TIP3    H134326   3.372   4.901   6.278
11461TIP3    H234327   3.439   5.036   6.264
11462TIP3   OH234328   0.758   1.546   3.657
11462TIP3    H134329   0.781   1.607   3.587
11462TIP3    H234330   0.808   1.577   3.733
11463TIP3   OH234331   5.043   2.409   1.635
11463TIP3    H134332   4.999   2.367   1.709
11463TIP3    H234333   5.109   2.346   1.607
11464TIP3   OH234334   3.198   3.426   1.565
11464TIP3    H134335   3.252   3.477   1.625
11464TIP3    H234336   3.193   3.480   1.485
11465TIP3   OH234337   0.093   4.775   1.655
11465TIP3    H134338   0.153   4.795   1.728
11465TIP3    H234339   0.123   4.832   1.584
11466TIP3   OH234340   6.205   2.247   3.150
11466TIP3    H134341   6.124   2.208   3.117
11466TIP3    H234342   6.248   2.175   3.197
11467TIP3   OH234343   0.411   4.712   6.269
11467TIP3    H134344   0.490   4.719   6.323
11467TIP3    H234345   0.440   4.670   6.189
11468TIP3   OH234346   5.511   1.479   3.604
11468TIP3    H134347   5.542   1.460   3.692
11468TIP3    H234348   5.432   1.531   3.617
11469TIP3   OH234349   3.812   4.202   0.766
11469TIP3    H134350   3.720   4.207   0.792
11469TIP3    H234351   3.818   4.257   0.688
11470TIP3   OH234352   1.626   0.856   0.005
11470TIP3    H134353   1.718   0.828   0.005
11470TIP3    H234354   1.602   0.857  -0.088
11471TIP3   OH234355   3.085   5.944   5.696
11471TIP3    H134356   3.178   5.962   5.699
11471TIP3    H234357   3.071   5.874   5.760
11472TIP3   OH234358   3.683   6.053   5.605
11472TIP3    H134359   3.718   6.142   5.611
11472TIP3    H234360   3.661   6.043   5.512
11473TIP3   OH234361   2.580   3.566   0.559
11473TIP3    H134362   2.551   3.539   0.473
11473TIP3    H234363   2.663   3.521   0.572
11474TIP3   OH234364   5.042   6.783   2.822
11474TIP3    H134365   5.006   6.717   2.763
11474TIP3    H234366   4.967   6.839   2.844
11475TIP3   OH234367   0.464   7.622   1.455
11475TIP3    H134368   0.478   7.700   1.401
11475TIP3    H234369   0.467   7.549   1.394
11476TIP3   OH234370   1.612   3.637   4.359
11476TIP3    H134371   1.549   3.706   4.338
11476TIP3    H234372   1.697   3.680   4.356
11477TIP3   OH234373   2.999   7.359   2.593
11477TIP3    H134374   3.067   7.414   2.632
11477TIP3    H234375   2.939   7.340   2.666
11478TIP3   OH234376   7.780   4.647   2.773
11478TIP3    H134377   7.746   4.681   2.856
11478TIP3    H234378   7.712   4.669   2.709
11479TIP3   OH234379   2.293   7.371   6.697
11479TIP3    H134380   2.296   7.275   6.701
11479TIP3    H234381   2.384   7.398   6.703
11480TIP3   OH234382   1.290   6.088   4.666
11480TIP3    H134383   1.207   6.129   4.643
11480TIP3    H234384   1.350   6.161   4.680
11481TIP3   OH234385   0.409   5.283   3.805
11481TIP3    H134386   0.451   5.367   3.784
11481TIP3    H234387   0.386   5.291   3.898
11482TIP3   OH234388   5.096   3.982   3.365
11482TIP3    H134389   5.189   3.967   3.347
11482TIP3    H234390   5.095   4.059   3.422
11483TIP3   OH234391   3.019   0.658   4.604
11483TIP3    H134392   2.988   0.673   4.515
11483TIP3    H234393   3.112   0.637   4.595
11484TIP3   OH234394   6.917   7.606   1.575
11484TIP3    H134395   6.894   7.696   1.597
11484TIP3    H234396   6.975   7.578   1.647
11485TIP3   OH234397   6.624   2.611   3.498
11485TIP3    H134398   6.649   2.542   3.437
11485TIP3    H234399   6.575   2.566   3.567
11486TIP3   OH234400   0.242   1.838   0.346
11486TIP3    H134401   0.325   1.792   0.334
11486TIP3    H234402   0.267   1.927   0.370
11487TIP3   OH234403   5.626   3.721   4.958
11487TIP3    H134404   5.678   3.651   4.998
11487TIP3    H234405   5.595   3.683   4.876
11488TIP3   OH234406   8.022   4.598   3.712
11488TIP3    H134407   7.956   4.659   3.744
11488TIP3    H234408   8.010   4.519   3.765
11489TIP3   OH234409   8.077   6.838   3.164
11489TIP3    H134410   8.007   6.781   3.132
11489TIP3    H234411   8.032   6.906   3.213
11490TIP3   OH234412   5.616   3.943   2.553
11490TIP3    H134413   5.687   3.911   2.497
11490TIP3    H234414   5.621   4.038   2.545
11491TIP3   OH234415   6.500   1.542   6.788
11491TIP3    H134416   6.486   1.469   6.727
11491TIP3    H234417   6.427   1.602   6.771
11492TIP3   OH234418   2.532   6.072   1.934
11492TIP3    H134419   2.555   6.152   1.981
11492TIP3    H234420   2.539   6.096   1.841
11493TIP3   OH234421   2.672   0.630   4.932
11493TIP3    H134422   2.674   0.656   5.024
11493TIP3    H234423   2.762   0.642   4.902
11494TIP3   OH234424   6.726   2.672   6.228
11494TIP3    H134425   6.770   2.725   6.161
11494TIP3    H234426   6.708   2.589   6.184
11495TIP3   OH234427   3.803   6.050   3.619
11495TIP3    H134428   3.893   6.077   3.639
11495TIP3    H234429   3.812   5.961   3.583
11496TIP3   OH234430   0.738   1.365   2.941
11496TIP3    H134431   0.759   1.298   3.006
11496TIP3    H234432   0.686   1.319   2.875
11497TIP3   OH234433   5.763   5.357   4.191
11497TIP3    H134434   5.686   5.306   4.167
11497TIP3    H234435   5.824   5.344   4.119
11498TIP3   OH234436   4.259   3.586   5.583
11498TIP3    H134437   4.192   3.589   5.651
11498TIP3    H234438   4.294   3.497   5.588
11499TIP3   OH234439   5.122   0.972   3.453
11499TIP3    H134440   5.069   0.901   3.415
11499TIP3    H234441   5.185   0.927   3.509
11500TIP3   OH234442   8.151   3.906   4.871
11500TIP3    H134443   8.128   3.997   4.890
11500TIP3    H234444   8.238   3.894   4.910
11501TIP3   OH234445   3.378   7.371   0.229
11501TIP3    H134446   3.314   7.359   0.159
11501TIP3    H234447   3.336   7.432   0.290
11502TIP3   OH234448   0.797   4.444   0.578
11502TIP3    H134449   0.885   4.476   0.598
11502TIP3    H234450   0.784   4.468   0.486
11503TIP3   OH234451   4.405   6.332   3.012
11503TIP3    H134452   4.458   6.273   3.066
11503TIP3    H234453   4.336   6.276   2.976
11504TIP3   OH234454   1.285   7.090   3.983
11504TIP3    H134455   1.217   7.076   4.048
11504TIP3    H234456   1.259   7.035   3.909
11505TIP3   OH234457   1.315   3.060   3.463
11505TIP3    H134458   1.387   3.032   3.406
11505TIP3    H234459   1.354   3.126   3.520
11506TIP3   OH234460   0.666   7.636   5.592
11506TIP3    H134461   0.674   7.724   5.628
11506TIP3    H234462   0.595   7.596   5.642
11507TIP3   OH234463   4.847   2.772   2.478
11507TIP3    H134464   4.942   2.768   2.472
11507TIP3    H234465   4.829   2.760   2.572
11508TIP3   OH234466   4.040   0.137   2.435
11508TIP3    H134467   4.001   0.051   2.418
11508TIP3    H234468   3.983   0.199   2.391
11509TIP3   OH234469   5.322   1.818   4.918
11509TIP3    H134470   5.366   1.749   4.867
11509TIP3    H234471   5.242   1.777   4.949
11510TIP3   OH234472   3.580   4.340   3.685
11510TIP3    H134473   3.668   4.378   3.687
11510TIP3    H234474   3.550   4.345   3.776
11511TIP3   OH234475   6.355   5.737   6.012
11511TIP3    H134476   6.432   5.739   6.068
11511TIP3    H234477   6.336   5.829   5.994
11512TIP3   OH234478   4.885   1.230   4.647
11512TIP3    H134479   4.896   1.264   4.558
11512TIP3    H234480   4.865   1.137   4.635
11513TIP3   OH234481   3.766   0.616   3.973
11513TIP3    H134482   3.808   0.548   3.921
11513TIP3    H234483   3.753   0.577   4.060
11514TIP3   OH234484   4.735   3.125   2.030
11514TIP3    H134485   4.827   3.112   2.054
11514TIP3    H234486   4.686   3.096   2.106
11515TIP3   OH234487   3.526   1.549   2.564
11515TIP3    H134488   3.587   1.481   2.595
11515TIP3    H234489   3.484   1.510   2.487
11516TIP3   OH234490   0.139   2.449   4.179
11516TIP3    H134491   0.137   2.356   4.154
11516TIP3    H234492   0.052   2.465   4.215
11517TIP3   OH234493   4.945   0.267   0.118
11517TIP3    H134494   4.968   0.239   0.030
11517TIP3    H234495   4.856   0.234   0.131
11518TIP3   OH234496   3.024   4.884   5.975
11518TIP3    H134497   3.049   4.976   5.962
11518TIP3    H234498   3.069   4.859   6.056
11519TIP3   OH234499   7.433   2.910   5.164
11519TIP3    H134500   7.479   2.868   5.092
11519TIP3    H234501   7.502   2.943   5.221
11520TIP3   OH234502   7.069   0.231   2.954
11520TIP3    H134503   7.083   0.171   3.027
11520TIP3    H234504   7.157   0.259   2.929
11521TIP3   OH234505   0.069   1.766   3.308
11521TIP3    H134506   0.053   1.672   3.315
11521TIP3    H234507   0.111   1.789   3.391
11522TIP3   OH234508   4.379   0.152   5.517
11522TIP3    H134509   4.359   0.223   5.579
11522TIP3    H234510   4.445   0.189   5.459
11523TIP3   OH234511   4.893   7.357   4.371
11523TIP3    H134512   4.812   7.408   4.357
11523TIP3    H234513   4.962   7.423   4.374
11524TIP3   OH234514   4.501   2.759   0.070
11524TIP3    H134515   4.442   2.834   0.067
11524TIP3    H234516   4.453   2.692   0.118
11525TIP3   OH234517   3.639   5.604   5.048
11525TIP3    H134518   3.728   5.636   5.063
11525TIP3    H234519   3.587   5.639   5.121
11526TIP3   OH234520   5.719   7.732   0.112
11526TIP3    H134521   5.812   7.720   0.091
11526TIP3    H234522   5.705   7.826   0.103
11527TIP3   OH234523   3.563   4.913   3.446
11527TIP3    H134524   3.601   4.986   3.397
11527TIP3    H234525   3.516   4.955   3.518
11528TIP3   OH234526   1.960   6.657   4.866
11528TIP3    H134527   1.912   6.575   4.875
11528TIP3    H234528   2.046   6.632   4.833
11529TIP3   OH234529   6.540   2.892   6.626
11529TIP3    H134530   6.571   2.952   6.694
11529TIP3    H234531   6.610   2.827   6.618
11530TIP3   OH234532   4.696   7.266   6.692
11530TIP3    H134533   4.783   7.225   6.700
11530TIP3    H234534   4.715   7.359   6.680
11531TIP3   OH234535   4.668   2.388   4.790
11531TIP3    H134536   4.609   2.461   4.808
11531TIP3    H234537   4.715   2.414   4.711
11532TIP3   OH234538   0.099   6.144   4.637
11532TIP3    H134539   0.119   6.160   4.545
11532TIP3    H234540   0.131   6.222   4.683
11533TIP3   OH234541   1.165   5.170   3.430
11533TIP3    H134542   1.142   5.259   3.455
11533TIP3    H234543   1.082   5.122   3.433
11534TIP3   OH234544   7.937   2.324   6.054
11534TIP3    H134545   7.900   2.264   5.989
11534TIP3    H234546   7.863   2.347   6.110
11535TIP3   OH234547   7.445   7.701   0.762
11535TIP3    H134548   7.390   7.717   0.839
11535TIP3    H234549   7.398   7.633   0.712
11536TIP3   OH234550   4.766   7.143   2.799
11536TIP3    H134551   4.829   7.126   2.869
11536TIP3    H234552   4.685   7.166   2.844
11537TIP3   OH234553   8.235   2.780   6.675
11537TIP3    H134554   8.194   2.694   6.679
11537TIP3    H234555   8.219   2.810   6.585
11538TIP3   OH234556   6.555   3.027   5.956
11538TIP3    H134557   6.505   2.965   6.009
11538TIP3    H234558   6.590   3.090   6.019
11539TIP3   OH234559   4.629   4.291   1.516
11539TIP3    H134560   4.626   4.342   1.436
11539TIP3    H234561   4.544   4.249   1.522
11540TIP3   OH234562   1.080   2.406   4.804
11540TIP3    H134563   1.149   2.346   4.835
11540TIP3    H234564   1.001   2.352   4.801
11541TIP3   OH234565   3.262   6.827   2.425
11541TIP3    H134566   3.336   6.888   2.419
11541TIP3    H234567   3.293   6.756   2.481
11542TIP3   OH234568   5.215   3.183   3.772
11542TIP3    H134569   5.219   3.089   3.790
11542TIP3    H234570   5.180   3.188   3.683
11543TIP3   OH234571   3.467   2.496   5.087
11543TIP3    H134572   3.462   2.402   5.104
11543TIP3    H234573   3.377   2.527   5.095
11544TIP3   OH234574   7.655   1.753   1.118
11544TIP3    H134575   7.565   1.768   1.087
11544TIP3    H234576   7.652   1.666   1.158
11545TIP3   OH234577   5.128   6.795   6.577
11545TIP3    H134578   5.070   6.723   6.602
11545TIP3    H234579   5.070   6.871   6.571
11546TIP3   OH234580   6.133   5.279   3.577
11546TIP3    H134581   6.131   5.368   3.542
11546TIP3    H234582   6.166   5.226   3.504
11547TIP3   OH234583   3.763   2.342   2.041
11547TIP3    H134584   3.837   2.379   1.994
11547TIP3    H234585   3.689   2.399   2.018
11548TIP3   OH234586   6.777   1.156   2.452
11548TIP3    H134587   6.854   1.190   2.496
11548TIP3    H234588   6.786   1.186   2.361
11549TIP3   OH234589   5.770   1.483   4.604
11549TIP3    H134590   5.826   1.521   4.536
11549TIP3    H234591   5.772   1.389   4.588
11550TIP3   OH234592   8.219   1.411   6.529
11550TIP3    H134593   8.267   1.470   6.587
11550TIP3    H234594   8.128   1.442   6.533
11551TIP3   OH234595   8.071   7.484   2.647
11551TIP3    H134596   8.029   7.493   2.733
11551TIP3    H234597   8.023   7.415   2.603
11552TIP3   OH234598   2.286   5.701   3.008
11552TIP3    H134599   2.331   5.774   2.964
11552TIP3    H234600   2.338   5.685   3.087
11553TIP3   OH234601   5.992   2.874   1.542
11553TIP3    H134602   6.023   2.796   1.588
11553TIP3    H234603   5.906   2.892   1.581
11554TIP3   OH234604   3.352   1.721   2.945
11554TIP3    H134605   3.444   1.710   2.970
11554TIP3    H234606   3.355   1.740   2.851
11555TIP3   OH234607   5.227   1.540   5.650
11555TIP3    H134608   5.217   1.625   5.694
11555TIP3    H234609   5.242   1.478   5.721
11556TIP3   OH234610   4.819   4.333   6.499
11556TIP3    H134611   4.795   4.287   6.418
11556TIP3    H234612   4.744   4.320   6.557
11557TIP3   OH234613   6.692   6.172   0.999
11557TIP3    H134614   6.655   6.260   1.010
11557TIP3    H234615   6.629   6.114   1.042
11558TIP3   OH234616   2.987   7.245   3.740
11558TIP3    H134617   2.925   7.317   3.752
11558TIP3    H234618   2.952   7.175   3.796
11559TIP3   OH234619   6.219   1.505   3.544
11559TIP3    H134620   6.141   1.450   3.539
11559TIP3    H234621   6.292   1.443   3.554
11560TIP3   OH234622   3.569   4.858   0.883
11560TIP3    H134623   3.509   4.927   0.855
11560TIP3    H234624   3.651   4.904   0.904
11561TIP3   OH234625   1.502   4.581   2.217
11561TIP3    H134626   1.500   4.519   2.144
11561TIP3    H234627   1.586   4.626   2.208
11562TIP3   OH234628   5.536   5.841   5.382
11562TIP3    H134629   5.460   5.801   5.425
11562TIP3    H234630   5.539   5.799   5.296
11563TIP3   OH234631   4.729   6.405   3.528
11563TIP3    H134632   4.765   6.457   3.456
11563TIP3    H234633   4.806   6.370   3.573
11564TIP3   OH234634   3.939   0.163   1.701
11564TIP3    H134635   3.855   0.119   1.713
11564TIP3    H234636   3.997   0.120   1.764
11565TIP3   OH234637   5.225   7.554   5.494
11565TIP3    H134638   5.137   7.554   5.530
11565TIP3    H234639   5.278   7.600   5.559
11566TIP3   OH234640   6.002   0.064   1.436
11566TIP3    H134641   5.951   0.099   1.509
11566TIP3    H234642   5.965  -0.023   1.421
11567TIP3   OH234643   3.600   1.268   0.719
11567TIP3    H134644   3.524   1.326   0.710
11567TIP3    H234645   3.583   1.219   0.800
11568TIP3   OH234646   0.711   2.616   6.779
11568TIP3    H134647   0.793   2.664   6.772
11568TIP3    H234648   0.644   2.683   6.791
11569TIP3   OH234649   4.655   0.333   1.030
11569TIP3    H134650   4.628   0.401   0.968
11569TIP3    H234651   4.649   0.251   0.981
11570TIP3   OH234652   1.934   5.417   0.266
11570TIP3    H134653   1.918   5.453   0.179
11570TIP3    H234654   1.907   5.486   0.326
11571TIP3   OH234655   2.454   0.548   5.719
11571TIP3    H134656   2.539   0.504   5.720
11571TIP3    H234657   2.458   0.610   5.792
11572TIP3   OH234658   1.053   4.553   2.865
11572TIP3    H134659   1.123   4.537   2.802
11572TIP3    H234660   0.983   4.591   2.814
11573TIP3   OH234661   4.193   1.923   6.672
11573TIP3    H134662   4.246   1.947   6.596
11573TIP3    H234663   4.106   1.955   6.651
11574TIP3   OH234664   4.267   2.103   0.848
11574TIP3    H134665   4.353   2.118   0.887
11574TIP3    H234666   4.206   2.118   0.920
11575TIP3   OH234667   7.092   4.260   0.128
11575TIP3    H134668   7.172   4.289   0.085
11575TIP3    H234669   7.118   4.184   0.180
11576TIP3   OH234670   7.269   3.746   2.001
11576TIP3    H134671   7.362   3.761   1.981
11576TIP3    H234672   7.266   3.745   2.097
11577TIP3   OH234673   4.134   5.366   2.759
11577TIP3    H134674   4.208   5.337   2.812
11577TIP3    H234675   4.161   5.450   2.723
11578TIP3   OH234676   5.264   4.498   6.301
11578TIP3    H134677   5.264   4.472   6.208
11578TIP3    H234678   5.202   4.571   6.305
11579TIP3   OH234679   1.577   0.089   4.535
11579TIP3    H134680   1.508   0.111   4.473
11579TIP3    H234681   1.536   0.029   4.597
11580TIP3   OH234682   4.517   2.665   5.993
11580TIP3    H134683   4.551   2.584   6.033
11580TIP3    H234684   4.458   2.634   5.924
11581TIP3   OH234685   1.786   4.912   2.972
11581TIP3    H134686   1.822   4.893   2.885
11581TIP3    H234687   1.736   4.833   2.994
11582TIP3   OH234688   5.424   6.232   1.191
11582TIP3    H134689   5.469   6.152   1.165
11582TIP3    H234690   5.372   6.207   1.267
11583TIP3   OH234691   6.960   7.711   6.155
11583TIP3    H134692   6.900   7.725   6.229
11583TIP3    H234693   6.910   7.739   6.079
11584TIP3   OH234694   5.872   4.448   5.040
11584TIP3    H134695   5.822   4.458   5.121
11584TIP3    H234696   5.958   4.486   5.060
11585TIP3   OH234697   0.143   1.649   1.713
11585TIP3    H134698   0.193   1.568   1.726
11585TIP3    H234699   0.138   1.687   1.801
11586TIP3   OH234700   4.511   3.032   4.267
11586TIP3    H134701   4.468   2.980   4.199
11586TIP3    H234702   4.596   3.055   4.229
11587TIP3   OH234703   7.104   7.410   4.238
11587TIP3    H134704   7.194   7.393   4.268
11587TIP3    H234705   7.107   7.391   4.144
11588TIP3   OH234706   1.678   1.567   0.257
11588TIP3    H134707   1.701   1.508   0.329
11588TIP3    H234708   1.585   1.553   0.244
11589TIP3   OH234709   0.207   4.619   5.983
11589TIP3    H134710   0.271   4.551   5.962
11589TIP3    H234711   0.156   4.583   6.055
11590TIP3   OH234712   2.113   7.260   5.466
11590TIP3    H134713   2.068   7.249   5.550
11590TIP3    H234714   2.199   7.294   5.490
11591TIP3   OH234715   1.377   3.591   2.504
11591TIP3    H134716   1.427   3.584   2.585
11591TIP3    H234717   1.292   3.626   2.531
11592TIP3   OH234718   1.735   7.388   1.328
11592TIP3    H134719   1.790   7.338   1.268
11592TIP3    H234720   1.650   7.391   1.286
11593TIP3   OH234721   7.604   1.310   1.441
11593TIP3    H134722   7.604   1.250   1.515
11593TIP3    H234723   7.650   1.262   1.372
11594TIP3   OH234724   3.496   2.704   2.463
11594TIP3    H134725   3.544   2.704   2.545
11594TIP3    H234726   3.562   2.723   2.396
11595TIP3   OH234727   2.920   4.283   0.073
11595TIP3    H134728   2.853   4.345   0.047
11595TIP3    H234729   2.954   4.248  -0.010
11596TIP3   OH234730   7.974   1.177   5.487
11596TIP3    H134731   7.920   1.099   5.498
11596TIP3    H234732   8.007   1.171   5.398
11597TIP3   OH234733   1.718   1.560   4.924
11597TIP3    H134734   1.674   1.555   4.839
11597TIP3    H234735   1.773   1.482   4.927
11598TIP3   OH234736   1.521   7.305   2.669
11598TIP3    H134737   1.560   7.243   2.606
11598TIP3    H234738   1.451   7.347   2.620
11599TIP3   OH234739   5.726   0.664   2.001
11599TIP3    H134740   5.775   0.667   1.919
11599TIP3    H234741   5.658   0.730   1.991
11600TIP3   OH234742   4.332   6.132   0.791
11600TIP3    H134743   4.381   6.213   0.780
11600TIP3    H234744   4.307   6.107   0.702
11601TIP3   OH234745   6.818   6.203   0.742
11601TIP3    H134746   6.758   6.193   0.816
11601TIP3    H234747   6.896   6.244   0.781
11602TIP3   OH234748   5.007   1.146   2.366
11602TIP3    H134749   5.018   1.055   2.336
11602TIP3    H234750   4.943   1.184   2.306
11603TIP3   OH234751   4.965   1.541   4.133
11603TIP3    H134752   4.890   1.492   4.167
11603TIP3    H234753   4.993   1.490   4.056
11604TIP3   OH234754   5.804   3.289   4.326
11604TIP3    H134755   5.727   3.237   4.348
11604TIP3    H234756   5.837   3.250   4.245
11605TIP3   OH234757   5.388   3.864   4.534
11605TIP3    H134758   5.329   3.851   4.461
11605TIP3    H234759   5.408   3.958   4.533
11606TIP3   OH234760   5.758   5.689   0.521
11606TIP3    H134761   5.799   5.661   0.440
11606TIP3    H234762   5.738   5.782   0.507
11607TIP3   OH234763   3.641   0.158   0.701
11607TIP3    H134764   3.694   0.233   0.728
11607TIP3    H234765   3.577   0.194   0.639
11608TIP3   OH234766   5.349   4.794   1.547
11608TIP3    H134767   5.368   4.772   1.456
11608TIP3    H234768   5.273   4.740   1.569
11609TIP3   OH234769   5.052   0.000   4.673
11609TIP3    H134770   5.142   0.016   4.643
11609TIP3    H234771   5.048  -0.095   4.689
11610TIP3   OH234772   6.574   6.648   6.150
11610TIP3    H134773   6.557   6.619   6.240
11610TIP3    H234774   6.492   6.634   6.104
11611TIP3   OH234775   3.335   7.203   2.667
11611TIP3    H134776   3.294   7.283   2.634
11611TIP3    H234777   3.263   7.152   2.704
11612TIP3   OH234778   6.271   4.337   4.322
11612TIP3    H134779   6.334   4.284   4.273
11612TIP3    H234780   6.303   4.427   4.312
11613TIP3   OH234781   7.011   7.681   2.057
11613TIP3    H134782   6.982   7.767   2.088
11613TIP3    H234783   7.012   7.626   2.135
11614TIP3   OH234784   7.309   5.340   2.273
11614TIP3    H134785   7.240   5.402   2.297
11614TIP3    H234786   7.299   5.268   2.335
11615TIP3   OH234787   2.368   7.170   0.532
11615TIP3    H134788   2.400   7.178   0.622
11615TIP3    H234789   2.281   7.131   0.540
11616TIP3   OH234790   5.260   7.791   5.746
11616TIP3    H134791   5.341   7.747   5.773
11616TIP3    H234792   5.282   7.884   5.747
11617TIP3   OH234793   6.673   1.225   0.053
11617TIP3    H134794   6.657   1.307   0.007
11617TIP3    H234795   6.585   1.194   0.078
11618TIP3   OH234796   0.308   0.108   1.044
11618TIP3    H134797   0.327   0.047   0.972
11618TIP3    H234798   0.317   0.056   1.123
11619TIP3   OH234799   2.470   7.267   1.747
11619TIP3    H134800   2.487   7.346   1.797
11619TIP3    H234801   2.540   7.207   1.773
11620TIP3   OH234802   0.279   0.096   2.207
11620TIP3    H134803   0.276   0.114   2.113
11620TIP3    H234804   0.264   0.001   2.213
11621TIP3   OH234805   2.285   6.230   0.454
11621TIP3    H134806   2.323   6.241   0.541
11621TIP3    H234807   2.290   6.136   0.437
11622TIP3   OH234808   6.942   1.233   5.841
11622TIP3    H134809   6.927   1.205   5.751
11622TIP3    H234810   7.023   1.190   5.867
11623TIP3   OH234811   0.509   0.973   5.663
11623TIP3    H134812   0.599   0.959   5.634
11623TIP3    H234813   0.455   0.939   5.592
11624TIP3   OH234814   5.982   4.900   3.096
11624TIP3    H134815   6.057   4.841   3.099
11624TIP3    H234816   6.017   4.986   3.119
11625TIP3   OH234817   5.674   0.837   3.734
11625TIP3    H134818   5.696   0.819   3.643
11625TIP3    H234819   5.716   0.921   3.753
11626TIP3   OH234820   0.320   0.986   4.917
11626TIP3    H134821   0.385   1.055   4.904
11626TIP3    H234822   0.323   0.934   4.837
11627TIP3   OH234823   0.560   1.953   6.313
11627TIP3    H134824   0.526   2.042   6.303
11627TIP3    H234825   0.632   1.961   6.376
11628TIP3   OH234826   6.432   6.844   5.924
11628TIP3    H134827   6.376   6.851   6.002
11628TIP3    H234828   6.396   6.770   5.876
11629TIP3   OH234829   4.033   2.890   1.872
11629TIP3    H134830   4.123   2.870   1.846
11629TIP3    H234831   4.040   2.969   1.925
11630TIP3   OH234832   2.004   6.790   4.075
11630TIP3    H134833   1.998   6.850   4.000
11630TIP3    H234834   2.076   6.825   4.128
11631TIP3   OH234835   2.128   4.259   5.055
11631TIP3    H134836   2.088   4.202   5.120
11631TIP3    H234837   2.147   4.340   5.101
11632TIP3   OH234838   7.611   3.929   3.729
11632TIP3    H134839   7.578   3.880   3.804
11632TIP3    H234840   7.638   3.862   3.667
11633TIP3   OH234841   2.650   5.175   0.987
11633TIP3    H134842   2.634   5.101   0.927
11633TIP3    H234843   2.740   5.201   0.969
11634TIP3   OH234844   5.619   3.177   0.278
11634TIP3    H134845   5.695   3.206   0.227
11634TIP3    H234846   5.575   3.114   0.221
11635TIP3   OH234847   0.973   5.601   3.588
11635TIP3    H134848   0.955   5.613   3.494
11635TIP3    H234849   0.906   5.653   3.631
11636TIP3   OH234850   1.669   1.524   6.112
11636TIP3    H134851   1.625   1.491   6.033
11636TIP3    H234852   1.600   1.569   6.160
11637TIP3   OH234853   1.347   6.321   2.704
11637TIP3    H134854   1.286   6.391   2.681
11637TIP3    H234855   1.362   6.274   2.622
11638TIP3   OH234856   5.748   5.940   6.008
11638TIP3    H134857   5.830   5.959   6.053
11638TIP3    H234858   5.694   5.897   6.074
11639TIP3   OH234859   6.132   1.491   4.275
11639TIP3    H134860   6.186   1.570   4.287
11639TIP3    H234861   6.050   1.524   4.236
11640TIP3   OH234862   3.159   4.090   1.034
11640TIP3    H134863   3.202   4.017   0.990
11640TIP3    H234864   3.076   4.100   0.987
11641TIP3   OH234865   4.052   4.584   0.282
11641TIP3    H134866   3.968   4.564   0.325
11641TIP3    H234867   4.094   4.498   0.273
11642TIP3   OH234868   5.808   1.274   6.014
11642TIP3    H134869   5.879   1.294   6.075
11642TIP3    H234870   5.753   1.211   6.060
11643TIP3   OH234871   6.569   3.607   0.292
11643TIP3    H134872   6.523   3.568   0.366
11643TIP3    H234873   6.526   3.568   0.215
11644TIP3   OH234874   1.015   6.570   3.105
11644TIP3    H134875   1.028   6.556   3.011
11644TIP3    H234876   1.080   6.636   3.129
11645TIP3   OH234877   4.910   6.281   3.758
11645TIP3    H134878   4.904   6.208   3.820
11645TIP3    H234879   4.861   6.352   3.799
11646TIP3   OH234880   5.366   0.965   3.303
11646TIP3    H134881   5.273   0.958   3.321
11646TIP3    H234882   5.402   1.010   3.380
11647TIP3   OH234883   8.045   4.679   0.889
11647TIP3    H134884   7.964   4.633   0.913
11647TIP3    H234885   8.057   4.744   0.957
11648TIP3   OH234886   5.034   2.653   5.231
11648TIP3    H134887   5.055   2.595   5.158
11648TIP3    H234888   5.118   2.685   5.263
11649TIP3   OH234889   6.750   0.785   0.529
11649TIP3    H134890   6.741   0.725   0.455
11649TIP3    H234891   6.662   0.821   0.542
11650TIP3   OH234892   7.331   5.818   5.466
11650TIP3    H134893   7.424   5.827   5.447
11650TIP3    H234894   7.294   5.776   5.388
11651TIP3   OH234895   3.863   0.634   3.148
11651TIP3    H134896   3.886   0.671   3.232
11651TIP3    H234897   3.800   0.695   3.110
11652TIP3   OH234898   0.724   4.195   3.813
11652TIP3    H134899   0.786   4.122   3.816
11652TIP3    H234900   0.717   4.218   3.721
11653TIP3   OH234901   3.191   3.177   1.735
11653TIP3    H134902   3.278   3.139   1.737
11653TIP3    H234903   3.203   3.262   1.691
11654TIP3   OH234904   6.808   7.452   5.374
11654TIP3    H134905   6.838   7.381   5.316
11654TIP3    H234906   6.836   7.532   5.329
11655TIP3   OH234907   5.137   0.298   3.490
11655TIP3    H134908   5.231   0.289   3.507
11655TIP3    H234909   5.114   0.383   3.527
11656TIP3   OH234910   6.657   6.558   2.628
11656TIP3    H134911   6.674   6.492   2.560
11656TIP3    H234912   6.568   6.538   2.658
11657TIP3   OH234913   2.880   6.221   5.157
11657TIP3    H134914   2.837   6.234   5.072
11657TIP3    H234915   2.837   6.143   5.193
11658TIP3   OH234916   3.882   5.563   4.910
11658TIP3    H134917   3.887   5.575   4.815
11658TIP3    H234918   3.791   5.539   4.927
11659TIP3   OH234919   8.173   1.428   1.860
11659TIP3    H134920   8.095   1.475   1.890
11659TIP3    H234921   8.193   1.467   1.775
11660TIP3   OH234922   1.774   2.712   4.999
11660TIP3    H134923   1.831   2.788   4.994
11660TIP3    H234924   1.751   2.692   4.908
11661TIP3   OH234925   4.543   1.680   0.484
11661TIP3    H134926   4.567   1.771   0.501
11661TIP3    H234927   4.520   1.678   0.391
11662TIP3   OH234928   5.664   7.677   5.359
11662TIP3    H134929   5.579   7.713   5.385
11662TIP3    H234930   5.690   7.622   5.432
11663TIP3   OH234931   0.920   1.763   1.776
11663TIP3    H134932   0.827   1.751   1.797
11663TIP3    H234933   0.936   1.703   1.704
11664TIP3   OH234934   4.079   4.719   1.362
11664TIP3    H134935   4.035   4.735   1.446
11664TIP3    H234936   4.113   4.805   1.337
11665TIP3   OH234937   0.432   5.741   0.737
11665TIP3    H134938   0.494   5.712   0.803
11665TIP3    H234939   0.346   5.733   0.780
11666TIP3   OH234940   6.443   5.749   0.985
11666TIP3    H134941   6.399   5.710   1.060
11666TIP3    H234942   6.444   5.843   1.005
11667TIP3   OH234943   3.198   3.571   4.385
11667TIP3    H134944   3.167   3.481   4.395
11667TIP3    H234945   3.120   3.625   4.397
11668TIP3   OH234946   1.873   6.580   4.159
11668TIP3    H134947   1.885   6.583   4.254
11668TIP3    H234948   1.903   6.665   4.127
11669TIP3   OH234949   1.095   0.461   4.673
11669TIP3    H134950   1.030   0.525   4.644
11669TIP3    H234951   1.051   0.376   4.663
11670TIP3   OH234952   0.051   1.895   1.092
11670TIP3    H134953   0.100   1.818   1.121
11670TIP3    H234954   0.097   1.924   1.013
11671TIP3   OH234955   2.602   7.327   2.562
11671TIP3    H134956   2.658   7.316   2.485
11671TIP3    H234957   2.516   7.295   2.534
11672TIP3   OH234958   1.431   1.654   4.168
11672TIP3    H134959   1.431   1.606   4.086
11672TIP3    H234960   1.403   1.589   4.234
11673TIP3   OH234961   2.555   5.425   0.958
11673TIP3    H134962   2.582   5.339   0.988
11673TIP3    H234963   2.577   5.484   1.031
11674TIP3   OH234964   2.618   2.338   4.027
11674TIP3    H134965   2.707   2.334   4.062
11674TIP3    H234966   2.565   2.293   4.093
11675TIP3   OH234967   3.034   0.132   1.865
11675TIP3    H134968   3.108   0.080   1.833
11675TIP3    H234969   3.032   0.208   1.807
11676TIP3   OH234970   6.258   7.698   6.541
11676TIP3    H134971   6.327   7.752   6.501
11676TIP3    H234972   6.208   7.760   6.595
11677TIP3   OH234973   3.456   5.871   2.659
11677TIP3    H134974   3.402   5.897   2.734
11677TIP3    H234975   3.518   5.808   2.695
11678TIP3   OH234976   2.863   1.277   3.533
11678TIP3    H134977   2.888   1.204   3.477
11678TIP3    H234978   2.889   1.355   3.483
11679TIP3   OH234979   5.451   5.297   5.076
11679TIP3    H134980   5.436   5.391   5.076
11679TIP3    H234981   5.546   5.288   5.063
11680TIP3   OH234982   1.775   7.505   6.084
11680TIP3    H134983   1.767   7.598   6.061
11680TIP3    H234984   1.686   7.479   6.107
11681TIP3   OH234985   4.678   6.824   2.224
11681TIP3    H134986   4.587   6.816   2.253
11681TIP3    H234987   4.672   6.837   2.129
11682TIP3   OH234988   1.177   0.841   5.932
11682TIP3    H134989   1.104   0.870   5.877
11682TIP3    H234990   1.143   0.842   6.021
11683TIP3   OH234991   5.654   7.148   4.369
11683TIP3    H134992   5.745   7.118   4.370
11683TIP3    H234993   5.604   7.075   4.408
11684TIP3   OH234994   3.637   7.047   2.038
11684TIP3    H134995   3.714   7.095   2.007
11684TIP3    H234996   3.669   6.959   2.056
11685TIP3   OH234997   2.977   3.382   6.244
11685TIP3    H134998   2.947   3.302   6.200
11685TIP3    H234999   2.914   3.396   6.315
11686TIP3   OH235000   4.795   0.676   6.683
11686TIP3    H135001   4.850   0.605   6.716
11686TIP3    H235002   4.728   0.689   6.751
11687TIP3   OH235003   1.049   5.479   3.205
11687TIP3    H135004   1.143   5.471   3.220
11687TIP3    H235005   1.033   5.430   3.124
11688TIP3   OH235006   2.014   1.256   6.124
11688TIP3    H135007   2.042   1.328   6.180
11688TIP3    H235008   2.033   1.286   6.035
11689TIP3   OH235009   8.047   5.828   1.025
11689TIP3    H135010   8.078   5.888   0.957
11689TIP3    H235011   7.975   5.875   1.068
11690TIP3   OH235012   4.130   6.913   4.461
11690TIP3    H135013   4.153   6.983   4.400
11690TIP3    H235014   4.179   6.837   4.429
11691TIP3   OH235015   5.070   4.990   2.447
11691TIP3    H135016   5.161   4.970   2.426
11691TIP3    H235017   5.021   4.963   2.369
11692TIP3   OH235018   0.536   6.864   3.968
11692TIP3    H135019   0.447   6.883   3.938
11692TIP3    H235020   0.525   6.837   4.059
11693TIP3   OH235021   1.652   1.161   5.486
11693TIP3    H135022   1.619   1.223   5.551
11693TIP3    H235023   1.649   1.076   5.530
11694TIP3   OH235024   7.783   6.293   0.490
11694TIP3    H135025   7.798   6.358   0.558
11694TIP3    H235026   7.838   6.321   0.417
11695TIP3   OH235027   5.512   7.639   1.421
11695TIP3    H135028   5.545   7.552   1.397
11695TIP3    H235029   5.464   7.668   1.345
11696TIP3   OH235030   6.685   0.826   4.803
11696TIP3    H135031   6.733   0.753   4.843
11696TIP3    H235032   6.741   0.855   4.731
11697TIP3   OH235033   7.753   5.053   2.621
11697TIP3    H135034   7.801   4.991   2.566
11697TIP3    H235035   7.821   5.098   2.671
11698TIP3   OH235036   7.802   6.134   3.337
11698TIP3    H135037   7.785   6.228   3.341
11698TIP3    H235038   7.753   6.104   3.260
11699TIP3   OH235039   4.859   0.902   2.533
11699TIP3    H135040   4.905   0.980   2.564
11699TIP3    H235041   4.781   0.897   2.589
11700TIP3   OH235042   4.893   2.960   1.698
11700TIP3    H135043   4.954   3.031   1.718
11700TIP3    H235044   4.932   2.882   1.737
11701TIP3   OH235045   3.996   6.483   1.581
11701TIP3    H135046   4.058   6.446   1.518
11701TIP3    H235047   4.051   6.510   1.655
11702TIP3   OH235048   0.625   5.829   3.086
11702TIP3    H135049   0.693   5.762   3.092
11702TIP3    H235050   0.610   5.840   2.993
11703TIP3   OH235051   1.144   2.482   5.738
11703TIP3    H135052   1.200   2.449   5.809
11703TIP3    H235053   1.059   2.441   5.753
11704TIP3   OH235054   5.357   4.351   2.808
11704TIP3    H135055   5.298   4.320   2.739
11704TIP3    H235056   5.301   4.361   2.885
11705TIP3   OH235057   7.044   5.492   2.137
11705TIP3    H135058   7.070   5.568   2.086
11705TIP3    H235059   6.970   5.522   2.190
11706TIP3   OH235060   1.342   1.446   3.976
11706TIP3    H135061   1.349   1.354   3.949
11706TIP3    H235062   1.251   1.469   3.956
11707TIP3   OH235063   5.630   5.156   5.588
11707TIP3    H135064   5.559   5.151   5.524
11707TIP3    H235065   5.609   5.087   5.652
11708TIP3   OH235066   3.342   7.473   4.590
11708TIP3    H135067   3.259   7.520   4.596
11708TIP3    H235068   3.381   7.504   4.508
11709TIP3   OH235069   1.556   0.172   0.708
11709TIP3    H135070   1.554   0.194   0.801
11709TIP3    H235071   1.479   0.116   0.695
11710TIP3   OH235072   1.604   7.713   4.509
11710TIP3    H135073   1.646   7.671   4.584
11710TIP3    H235074   1.672   7.770   4.472
11711TIP3   OH235075   1.410   4.574   5.487
11711TIP3    H135076   1.470   4.581   5.562
11711TIP3    H235077   1.328   4.542   5.525
11712TIP3   OH235078   6.228   1.192   5.399
11712TIP3    H135079   6.228   1.256   5.329
11712TIP3    H235080   6.146   1.208   5.446
11713TIP3   OH235081   0.918   0.893   2.361
11713TIP3    H135082   0.928   0.891   2.266
11713TIP3    H235083   0.919   0.986   2.383
11714TIP3   OH235084   6.524   7.224   0.062
11714TIP3    H135085   6.553   7.305   0.104
11714TIP3    H235086   6.525   7.159   0.132
11715TIP3   OH235087   3.273   5.495   2.557
11715TIP3    H135088   3.292   5.556   2.628
11715TIP3    H235089   3.282   5.409   2.596
11716TIP3   OH235090   2.601   2.382   3.062
11716TIP3    H135091   2.590   2.429   2.979
11716TIP3    H235092   2.639   2.298   3.036
11717TIP3   OH235093   1.806   7.198   2.569
11717TIP3    H135094   1.750   7.214   2.493
11717TIP3    H235095   1.811   7.103   2.576
11718TIP3   OH235096   4.740   7.174   6.395
11718TIP3    H135097   4.683   7.175   6.472
11718TIP3    H235098   4.760   7.082   6.380
11719TIP3   OH235099   2.174   2.339   1.544
11719TIP3    H135100   2.158   2.246   1.530
11719TIP3    H235101   2.268   2.346   1.558
11720TIP3   OH235102   1.446   6.848   4.580
11720TIP3    H135103   1.458   6.769   4.527
11720TIP3    H235104   1.355   6.844   4.608
11721TIP3   OH235105   7.867   6.886   2.505
11721TIP3    H135106   7.937   6.947   2.485
11721TIP3    H235107   7.910   6.800   2.507
11722TIP3   OH235108   4.233   4.533   5.286
11722TIP3    H135109   4.318   4.566   5.258
11722TIP3    H235110   4.170   4.594   5.247
11723TIP3   OH235111   2.505   1.607   0.818
11723TIP3    H135112   2.528   1.557   0.896
11723TIP3    H235113   2.589   1.627   0.777
11724TIP3   OH235114   4.803   6.871   2.880
11724TIP3    H135115   4.747   6.947   2.867
11724TIP3    H235116   4.747   6.796   2.860
11725TIP3   OH235117   6.364   4.882   3.333
11725TIP3    H135118   6.437   4.823   3.356
11725TIP3    H235119   6.317   4.836   3.264
11726TIP3   OH235120   0.082   7.106   1.526
11726TIP3    H135121   0.152   7.066   1.474
11726TIP3    H235122   0.095   7.071   1.614
11727TIP3   OH235123   7.224   2.660   5.516
11727TIP3    H135124   7.159   2.727   5.497
11727TIP3    H235125   7.275   2.653   5.435
11728TIP3   OH235126   1.090   2.580   6.097
11728TIP3    H135127   1.119   2.545   6.182
11728TIP3    H235128   1.028   2.649   6.120
11729TIP3   OH235129   0.926   0.360   1.865
11729TIP3    H135130   0.907   0.267   1.871
11729TIP3    H235131   0.846   0.403   1.894
11730TIP3   OH235132   0.625   0.914   6.298
11730TIP3    H135133   0.592   0.876   6.379
11730TIP3    H235134   0.696   0.972   6.327
11731TIP3   OH235135   3.231   0.893   1.715
11731TIP3    H135136   3.150   0.898   1.766
11731TIP3    H235137   3.234   0.976   1.667
11732TIP3   OH235138   3.379   1.840   4.616
11732TIP3    H135139   3.328   1.915   4.587
11732TIP3    H235140   3.328   1.764   4.586
11733TIP3   OH235141   1.314   1.166   3.104
11733TIP3    H135142   1.361   1.083   3.103
11733TIP3    H235143   1.331   1.202   3.191
11734TIP3   OH235144   1.522   0.881   0.837
11734TIP3    H135145   1.578   0.805   0.850
11734TIP3    H235146   1.569   0.953   0.878
11735TIP3   OH235147   0.408   3.820   4.201
11735TIP3    H135148   0.340   3.813   4.134
11735TIP3    H235149   0.486   3.783   4.161
11736TIP3   OH235150   7.947   3.594   2.877
11736TIP3    H135151   7.998   3.670   2.905
11736TIP3    H235152   7.889   3.628   2.808
11737TIP3   OH235153   3.332   6.513   0.560
11737TIP3    H135154   3.415   6.561   0.559
11737TIP3    H235155   3.269   6.576   0.594
11738TIP3   OH235156   7.263   0.376   5.337
11738TIP3    H135157   7.241   0.469   5.345
11738TIP3    H235158   7.340   0.374   5.281
11739TIP3   OH235159   3.225   1.833   0.254
11739TIP3    H135160   3.164   1.900   0.285
11739TIP3    H235161   3.169   1.765   0.217
11740TIP3   OH235162   3.416   0.161   4.764
11740TIP3    H135163   3.362   0.088   4.734
11740TIP3    H235164   3.484   0.170   4.697
11741TIP3   OH235165   7.653   4.308   3.328
11741TIP3    H135166   7.683   4.227   3.368
11741TIP3    H235167   7.572   4.330   3.373
11742TIP3   OH235168   1.752   4.823   1.053
11742TIP3    H135169   1.718   4.734   1.053
11742TIP3    H235170   1.815   4.825   0.982
11743TIP3   OH235171   1.443   5.706   3.798
11743TIP3    H135172   1.500   5.654   3.742
11743TIP3    H235173   1.502   5.757   3.853
11744TIP3   OH235174   2.132   6.850   4.540
11744TIP3    H135175   2.074   6.896   4.601
11744TIP3    H235176   2.211   6.831   4.591
11745TIP3   OH235177   4.578   2.317   5.227
11745TIP3    H135178   4.609   2.400   5.264
11745TIP3    H235179   4.609   2.318   5.137
11746TIP3   OH235180   6.462   5.335   3.859
11746TIP3    H135181   6.524   5.279   3.905
11746TIP3    H235182   6.432   5.398   3.925
11747TIP3   OH235183   1.455   6.567   0.825
11747TIP3    H135184   1.460   6.521   0.909
11747TIP3    H235185   1.400   6.643   0.843
11748TIP3   OH235186   6.035   3.700   3.885
11748TIP3    H135187   5.953   3.682   3.931
11748TIP3    H235188   6.094   3.734   3.953
11749TIP3   OH235189   3.722   6.985   5.404
11749TIP3    H135190   3.635   7.026   5.404
11749TIP3    H235191   3.740   6.965   5.312
11750TIP3   OH235192   7.330   2.421   3.672
11750TIP3    H135193   7.366   2.429   3.761
11750TIP3    H235194   7.237   2.406   3.685
11751TIP3   OH235195   0.546   2.253   2.092
11751TIP3    H135196   0.473   2.271   2.152
11751TIP3    H235197   0.504   2.231   2.009
11752TIP3   OH235198   6.157   4.375   5.641
11752TIP3    H135199   6.168   4.289   5.683
11752TIP3    H235200   6.208   4.369   5.561
11753TIP3   OH235201   2.596   5.532   4.745
11753TIP3    H135202   2.659   5.594   4.782
11753TIP3    H235203   2.579   5.566   4.657
11754TIP3   OH235204   2.832   6.546   3.001
11754TIP3    H135205   2.768   6.550   3.072
11754TIP3    H235206   2.895   6.480   3.030
11755TIP3   OH235207   2.408   7.277   5.008
11755TIP3    H135208   2.498   7.267   5.040
11755TIP3    H235209   2.354   7.258   5.084
11756TIP3   OH235210   8.044   5.572   3.979
11756TIP3    H135211   8.128   5.595   3.939
11756TIP3    H235212   8.059   5.487   4.021
11757TIP3   OH235213   6.603   5.773   2.056
11757TIP3    H135214   6.671   5.713   2.025
11757TIP3    H235215   6.571   5.816   1.977
11758TIP3   OH235216   0.096   0.624   2.168
11758TIP3    H135217   0.173   0.579   2.131
11758TIP3    H235218   0.024   0.598   2.111
11759TIP3   OH235219   4.842   5.741   2.366
11759TIP3    H135220   4.888   5.664   2.332
11759TIP3    H235221   4.841   5.802   2.292
11760TIP3   OH235222   8.042   3.486   6.017
11760TIP3    H135223   8.069   3.417   5.958
11760TIP3    H235224   8.123   3.520   6.054
11761TIP3   OH235225   5.240   7.503   6.751
11761TIP3    H135226   5.222   7.521   6.659
11761TIP3    H235227   5.161   7.533   6.796
11762TIP3   OH235228   3.597   1.860   5.992
11762TIP3    H135229   3.647   1.779   5.978
11762TIP3    H235230   3.556   1.848   6.077
11763TIP3   OH235231   3.999   5.120   2.811
11763TIP3    H135232   4.082   5.082   2.782
11763TIP3    H235233   4.014   5.215   2.808
11764TIP3   OH235234   7.732   4.643   1.568
11764TIP3    H135235   7.679   4.588   1.511
11764TIP3    H235236   7.788   4.582   1.616
11765TIP3   OH235237   4.540   1.401   0.842
11765TIP3    H135238   4.537   1.419   0.748
11765TIP3    H235239   4.454   1.365   0.863
11766TIP3   OH235240   1.541   5.385   5.823
11766TIP3    H135241   1.558   5.447   5.752
11766TIP3    H235242   1.579   5.426   5.901
11767TIP3   OH235243   6.194   5.876   2.762
11767TIP3    H135244   6.148   5.812   2.815
11767TIP3    H235245   6.131   5.947   2.749
11768TIP3   OH235246   4.088   6.097   3.641
11768TIP3    H135247   4.140   6.146   3.705
11768TIP3    H235248   4.117   6.006   3.651
11769TIP3   OH235249   2.061   6.914   1.441
11769TIP3    H135250   2.030   6.950   1.358
11769TIP3    H235251   1.983   6.908   1.496
11770TIP3   OH235252   2.036   4.387   6.534
11770TIP3    H135253   1.961   4.332   6.555
11770TIP3    H235254   2.045   4.445   6.609
11771TIP3   OH235255   1.231   3.612   3.616
11771TIP3    H135256   1.308   3.580   3.567
11771TIP3    H235257   1.159   3.606   3.553
11772TIP3   OH235258   6.752   7.426   1.146
11772TIP3    H135259   6.686   7.371   1.104
11772TIP3    H235260   6.737   7.514   1.110
11773TIP3   OH235261   4.335   6.557   5.632
11773TIP3    H135262   4.421   6.547   5.593
11773TIP3    H235263   4.352   6.581   5.723
11774TIP3   OH235264   6.685   0.339   5.830
11774TIP3    H135265   6.706   0.310   5.919
11774TIP3    H235266   6.615   0.403   5.841
11775TIP3   OH235267   1.914   3.108   4.635
11775TIP3    H135268   1.840   3.092   4.693
11775TIP3    H235269   1.942   3.021   4.607
11776TIP3   OH235270   1.419   1.529   6.279
11776TIP3    H135271   1.341   1.579   6.253
11776TIP3    H235272   1.395   1.490   6.363
11777TIP3   OH235273   1.950   0.885   0.123
11777TIP3    H135274   2.021   0.848   0.176
11777TIP3    H235275   1.953   0.835   0.041
11778TIP3   OH235276   6.978   3.012   5.005
11778TIP3    H135277   6.942   2.966   4.930
11778TIP3    H235278   6.951   3.103   4.993
11779TIP3   OH235279   5.711   6.628   0.738
11779TIP3    H135280   5.805   6.607   0.742
11779TIP3    H235281   5.673   6.556   0.688
11780TIP3   OH235282   7.036   6.594   6.591
11780TIP3    H135283   7.003   6.612   6.503
11780TIP3    H235284   7.131   6.606   6.584
11781TIP3   OH235285   6.546   6.496   4.777
11781TIP3    H135286   6.557   6.441   4.855
11781TIP3    H235287   6.571   6.439   4.704
11782TIP3   OH235288   4.740   4.253   3.549
11782TIP3    H135289   4.654   4.214   3.561
11782TIP3    H235290   4.737   4.291   3.461
11783TIP3   OH235291   6.963   6.523   0.485
11783TIP3    H135292   6.956   6.469   0.406
11783TIP3    H235293   6.965   6.460   0.557
11784TIP3   OH235294   1.904   5.927   0.530
11784TIP3    H135295   1.923   5.996   0.467
11784TIP3    H235296   1.808   5.927   0.537
11785TIP3   OH235297   0.691   6.014   0.303
11785TIP3    H135298   0.666   5.979   0.389
11785TIP3    H235299   0.661   6.105   0.305
11786TIP3   OH235300   7.246   6.870   5.885
11786TIP3    H135301   7.301   6.792   5.886
11786TIP3    H235302   7.284   6.925   5.816
11787TIP3   OH235303   7.605   4.173   0.058
11787TIP3    H135304   7.585   4.081   0.044
11787TIP3    H235305   7.590   4.214  -0.027
11788TIP3   OH235306   5.123   7.387   2.290
11788TIP3    H135307   5.072   7.354   2.364
11788TIP3    H235308   5.172   7.311   2.259
11789TIP3   OH235309   0.174   5.111   3.950
11789TIP3    H135310   0.206   5.152   4.030
11789TIP3    H235311   0.113   5.175   3.912
11790TIP3   OH235312   0.288   4.841   1.917
11790TIP3    H135313   0.302   4.928   1.881
11790TIP3    H235314   0.199   4.844   1.953
11791TIP3   OH235315   1.106   3.496   0.590
11791TIP3    H135316   1.151   3.492   0.505
11791TIP3    H235317   1.025   3.447   0.576
11792TIP3   OH235318   3.144   3.390   4.971
11792TIP3    H135319   3.208   3.435   4.916
11792TIP3    H235320   3.194   3.318   5.011
11793TIP3   OH235321   5.376   0.701   6.244
11793TIP3    H135322   5.357   0.763   6.173
11793TIP3    H235323   5.465   0.724   6.272
11794TIP3   OH235324   5.845   2.449   2.274
11794TIP3    H135325   5.779   2.491   2.329
11794TIP3    H235326   5.927   2.494   2.295
11795TIP3   OH235327   7.116   5.216   1.338
11795TIP3    H135328   7.047   5.217   1.404
11795TIP3    H235329   7.108   5.300   1.294
11796TIP3   OH235330   7.652   3.145   0.892
11796TIP3    H135331   7.656   3.132   0.797
11796TIP3    H235332   7.562   3.174   0.908
11797TIP3   OH235333   6.354   7.425   4.134
11797TIP3    H135334   6.334   7.498   4.075
11797TIP3    H235335   6.447   7.435   4.153
11798TIP3   OH235336   1.912   4.643   4.232
11798TIP3    H135337   1.824   4.627   4.198
11798TIP3    H235338   1.965   4.571   4.196
11799TIP3   OH235339   6.684   4.222   4.891
11799TIP3    H135340   6.673   4.136   4.850
11799TIP3    H235341   6.681   4.284   4.818
11800TIP3   OH235342   7.988   3.810   5.198
11800TIP3    H135343   7.977   3.737   5.259
11800TIP3    H235344   7.910   3.864   5.210
11801TIP3   OH235345   4.527   3.314   4.102
11801TIP3    H135346   4.603   3.255   4.105
11801TIP3    H235347   4.528   3.350   4.014
11802TIP3   OH235348   4.670   6.618   3.340
11802TIP3    H135349   4.590   6.580   3.303
11802TIP3    H235350   4.699   6.681   3.274
11803TIP3   OH235351   5.601   3.078   4.360
11803TIP3    H135352   5.571   3.131   4.435
11803TIP3    H235353   5.662   3.015   4.398
11804TIP3   OH235354   2.160   1.382   1.829
11804TIP3    H135355   2.222   1.414   1.763
11804TIP3    H235356   2.203   1.400   1.912
11805TIP3   OH235357   4.588   1.849   1.771
11805TIP3    H135358   4.620   1.937   1.750
11805TIP3    H235359   4.495   1.861   1.791
11806TIP3   OH235360   6.621   4.594   1.058
11806TIP3    H135361   6.686   4.542   1.010
11806TIP3    H235362   6.597   4.664   0.997
11807TIP3   OH235363   7.404   1.078   6.075
11807TIP3    H135364   7.471   1.022   6.115
11807TIP3    H235365   7.418   1.070   5.981
11808TIP3   OH235366   6.309   4.802   0.096
11808TIP3    H135367   6.343   4.780   0.009
11808TIP3    H235368   6.321   4.897   0.103
11809TIP3   OH235369   2.617   2.460   0.520
11809TIP3    H135370   2.600   2.366   0.523
11809TIP3    H235371   2.533   2.500   0.541
11810TIP3   OH235372   2.496   6.518   5.960
11810TIP3    H135373   2.562   6.524   6.029
11810TIP3    H235374   2.413   6.517   6.008
11811TIP3   OH235375   7.276   4.707   3.200
11811TIP3    H135376   7.220   4.656   3.259
11811TIP3    H235377   7.275   4.659   3.118
11812TIP3   OH235378   6.768   1.136   1.891
11812TIP3    H135379   6.849   1.106   1.849
11812TIP3    H235380   6.742   1.212   1.840
11813TIP3   OH235381   4.763   5.449   1.023
11813TIP3    H135382   4.819   5.406   1.088
11813TIP3    H235383   4.683   5.471   1.071
11814TIP3   OH235384   2.480   4.789   2.485
11814TIP3    H135385   2.556   4.731   2.490
11814TIP3    H235386   2.440   4.783   2.573
11815TIP3   OH235387   0.077   6.251   2.797
11815TIP3    H135388   0.134   6.271   2.871
11815TIP3    H235389  -0.012   6.257   2.833
11816TIP3   OH235390   5.023   4.404   2.021
11816TIP3    H135391   5.083   4.478   2.020
11816TIP3    H235392   4.945   4.435   1.975
11817TIP3   OH235393   4.042   1.046   4.038
11817TIP3    H135394   4.127   1.063   4.078
11817TIP3    H235395   4.019   1.128   3.995
11818TIP3   OH235396   0.917   1.430   5.344
11818TIP3    H135397   0.942   1.443   5.252
11818TIP3    H235398   0.915   1.335   5.355
11819TIP3   OH235399   5.241   5.689   6.303
11819TIP3    H135400   5.317   5.645   6.266
11819TIP3    H235401   5.262   5.701   6.395
11820TIP3   OH235402   7.883   6.065   2.585
11820TIP3    H135403   7.930   6.147   2.568
11820TIP3    H235404   7.909   6.008   2.513
11821TIP3   OH235405   6.696   2.379   6.490
11821TIP3    H135406   6.681   2.353   6.580
11821TIP3    H235407   6.786   2.351   6.471
11822TIP3   OH235408   8.101   1.674   6.245
11822TIP3    H135409   8.155   1.595   6.251
11822TIP3    H235410   8.061   1.668   6.158
11823TIP3   OH235411   6.175   1.244   4.145
11823TIP3    H135412   6.172   1.276   4.055
11823TIP3    H235413   6.164   1.322   4.199
11824TIP3   OH235414   5.594   0.828   6.365
11824TIP3    H135415   5.561   0.893   6.426
11824TIP3    H235416   5.655   0.876   6.309
11825TIP3   OH235417   8.109   3.766   4.436
11825TIP3    H135418   8.104   3.672   4.423
11825TIP3    H235419   8.169   3.797   4.368
11826TIP3   OH235420   3.936   7.050   0.395
11826TIP3    H135421   3.867   7.025   0.456
11826TIP3    H235422   3.904   7.131   0.354
11827TIP3   OH235423   0.518   3.558   0.734
11827TIP3    H135424   0.425   3.554   0.712
11827TIP3    H235425   0.521   3.549   0.829
11828TIP3   OH235426   5.741   1.462   6.291
11828TIP3    H135427   5.821   1.494   6.249
11828TIP3    H235428   5.770   1.388   6.345
11829TIP3   OH235429   2.748   6.059   5.530
11829TIP3    H135430   2.705   6.121   5.588
11829TIP3    H235431   2.775   5.987   5.588
11830TIP3   OH235432   0.993   1.215   6.708
11830TIP3    H135433   0.948   1.293   6.677
11830TIP3    H235434   1.038   1.244   6.788
11831TIP3   OH235435   6.936   5.169   4.153
11831TIP3    H135436   6.965   5.188   4.242
11831TIP3    H235437   6.877   5.094   4.161
11832TIP3   OH235438   3.256   4.939   0.397
11832TIP3    H135439   3.168   4.904   0.412
11832TIP3    H235440   3.245   4.996   0.320
11833TIP3   OH235441   2.831   1.982   1.294
11833TIP3    H135442   2.897   1.933   1.245
11833TIP3    H235443   2.865   2.071   1.298
11834TIP3   OH235444   2.096   7.793   0.826
11834TIP3    H135445   2.072   7.732   0.757
11834TIP3    H235446   2.015   7.811   0.872
11835TIP3   OH235447   2.689   2.056   1.526
11835TIP3    H135448   2.647   1.987   1.578
11835TIP3    H235449   2.720   2.012   1.448
11836TIP3   OH235450   1.117   7.251   3.151
11836TIP3    H135451   1.124   7.157   3.169
11836TIP3    H235452   1.034   7.260   3.105
11837TIP3   OH235453   6.937   1.576   0.471
11837TIP3    H135454   6.951   1.585   0.377
11837TIP3    H235455   6.844   1.559   0.481
11838TIP3   OH235456   5.963   7.428   1.253
11838TIP3    H135457   5.871   7.456   1.251
11838TIP3    H235458   5.961   7.341   1.213
11839TIP3   OH235459   4.249   6.121   5.061
11839TIP3    H135460   4.220   6.035   5.030
11839TIP3    H235461   4.181   6.181   5.032
11840TIP3   OH235462   2.924   7.684   4.399
11840TIP3    H135463   2.933   7.777   4.419
11840TIP3    H235464   2.830   7.668   4.403
11841TIP3   OH235465   6.309   6.068   6.207
11841TIP3    H135466   6.275   5.995   6.257
11841TIP3    H235467   6.351   6.028   6.131
11842TIP3   OH235468   7.125   2.905   3.274
11842TIP3    H135469   7.090   2.954   3.348
11842TIP3    H235470   7.103   2.814   3.293
11843TIP3   OH235471   3.887   0.313   0.053
11843TIP3    H135472   3.835   0.240   0.018
11843TIP3    H235473   3.831   0.353   0.119
11844TIP3   OH235474   4.635   1.952   5.671
11844TIP3    H135475   4.586   1.897   5.733
11844TIP3    H235476   4.712   1.901   5.649
11845TIP3   OH235477   5.697   7.656   5.085
11845TIP3    H135478   5.791   7.640   5.075
11845TIP3    H235479   5.685   7.667   5.179
11846TIP3   OH235480   1.166   6.481   0.996
11846TIP3    H135481   1.147   6.547   1.063
11846TIP3    H235482   1.195   6.533   0.920
11847TIP3   OH235483   1.463   1.320   2.062
11847TIP3    H135484   1.501   1.405   2.081
11847TIP3    H235485   1.431   1.288   2.146
11848TIP3   OH235486   6.559   4.583   3.808
11848TIP3    H135487   6.472   4.563   3.841
11848TIP3    H235488   6.563   4.539   3.723
11849TIP3   OH235489   6.574   4.394   1.994
11849TIP3    H135490   6.492   4.388   1.945
11849TIP3    H235491   6.632   4.443   1.936
11850TIP3   OH235492   0.579   0.120   2.562
11850TIP3    H135493   0.641   0.049   2.574
11850TIP3    H235494   0.626   0.199   2.590
11851TIP3   OH235495   3.382   7.380   0.819
11851TIP3    H135496   3.334   7.342   0.892
11851TIP3    H235497   3.315   7.420   0.763
11852TIP3   OH235498   3.513   1.703   4.826
11852TIP3    H135499   3.460   1.757   4.768
11852TIP3    H235500   3.476   1.718   4.913
11853TIP3   OH235501   1.675   1.649   4.416
11853TIP3    H135502   1.680   1.553   4.421
11853TIP3    H235503   1.646   1.676   4.503
11854TIP3   OH235504   1.605   3.685   3.630
11854TIP3    H135505   1.694   3.717   3.614
11854TIP3    H235506   1.569   3.745   3.695
11855TIP3   OH235507   6.612   4.754   0.525
11855TIP3    H135508   6.679   4.802   0.575
11855TIP3    H235509   6.563   4.822   0.478
11856TIP3   OH235510   2.506   2.884   5.938
11856TIP3    H135511   2.595   2.881   5.971
11856TIP3    H235512   2.452   2.851   6.010
11857TIP3   OH235513   2.859   1.330   4.436
11857TIP3    H135514   2.881   1.397   4.373
11857TIP3    H235515   2.855   1.376   4.520
11858TIP3   OH235516   2.879   6.006   2.370
11858TIP3    H135517   2.833   5.925   2.395
11858TIP3    H235518   2.814   6.075   2.380
11859TIP3   OH235519   3.967   5.553   6.635
11859TIP3    H135520   3.973   5.477   6.693
11859TIP3    H235521   4.001   5.522   6.551
11860TIP3   OH235522   5.057   1.021   1.223
11860TIP3    H135523   5.129   0.971   1.260
11860TIP3    H235524   5.005   1.047   1.300
11861TIP3   OH235525   3.524   2.184   2.878
11861TIP3    H135526   3.474   2.239   2.939
11861TIP3    H235527   3.575   2.246   2.827
11862TIP3   OH235528   4.634   6.164   3.077
11862TIP3    H135529   4.627   6.147   3.171
11862TIP3    H235530   4.726   6.146   3.056
11863TIP3   OH235531   0.265   7.829   6.429
11863TIP3    H135532   0.325   7.819   6.356
11863TIP3    H235533   0.313   7.880   6.494
11864TIP3   OH235534   2.252   5.800   5.578
11864TIP3    H135535   2.241   5.815   5.484
11864TIP3    H235536   2.347   5.798   5.591
11865TIP3   OH235537   1.200   6.659   2.658
11865TIP3    H135538   1.190   6.666   2.563
11865TIP3    H235539   1.254   6.735   2.682
11866TIP3   OH235540   1.158   3.040   4.186
11866TIP3    H135541   1.228   2.976   4.199
11866TIP3    H235542   1.144   3.041   4.091
11867TIP3   OH235543   4.993   3.091   2.055
11867TIP3    H135544   5.068   3.150   2.050
11867TIP3    H235545   5.018   3.016   2.000
11868TIP3   OH235546   4.437   6.715   6.391
11868TIP3    H135547   4.354   6.749   6.356
11868TIP3    H235548   4.424   6.713   6.485
11869TIP3   OH235549   2.033   3.678   5.503
11869TIP3    H135550   1.993   3.708   5.585
11869TIP3    H235551   2.125   3.663   5.526
11870TIP3   OH235552   5.460   6.910   3.332
11870TIP3    H135553   5.504   6.918   3.248
11870TIP3    H235554   5.515   6.850   3.382
11871TIP3   OH235555   7.939   5.353   2.561
11871TIP3    H135556   7.895   5.438   2.567
11871TIP3    H235557   7.976   5.351   2.472
11872TIP3   OH235558   2.980   5.718   4.353
11872TIP3    H135559   2.941   5.697   4.438
11872TIP3    H235560   3.005   5.634   4.316
11873TIP3   OH235561   3.625   4.843   2.527
11873TIP3    H135562   3.530   4.852   2.522
11873TIP3    H235563   3.639   4.784   2.601
11874TIP3   OH235564   4.058   3.768   4.071
11874TIP3    H135565   4.026   3.833   4.010
11874TIP3    H235566   4.041   3.684   4.029
11875TIP3   OH235567   2.998   7.254   1.338
11875TIP3    H135568   2.921   7.228   1.388
11875TIP3    H235569   3.071   7.244   1.399
11876TIP3   OH235570   5.512   4.224   6.444
11876TIP3    H135571   5.548   4.290   6.385
11876TIP3    H235572   5.506   4.145   6.390
11877TIP3   OH235573   4.186   4.851   0.916
11877TIP3    H135574   4.206   4.867   0.823
11877TIP3    H235575   4.112   4.908   0.935
11878TIP3   OH235576   6.196   7.562   2.387
11878TIP3    H135577   6.112   7.601   2.364
11878TIP3    H235578   6.227   7.523   2.305
11879TIP3   OH235579   1.541   2.789   6.196
11879TIP3    H135580   1.475   2.813   6.261
11879TIP3    H235581   1.609   2.744   6.247
11880TIP3   OH235582   2.579   5.129   5.928
11880TIP3    H135583   2.647   5.177   5.882
11880TIP3    H235584   2.618   5.044   5.948
11881TIP3   OH235585   1.030   5.402   0.807
11881TIP3    H135586   0.999   5.492   0.820
11881TIP3    H235587   0.951   5.350   0.796
11882TIP3   OH235588   1.562   1.311   4.561
11882TIP3    H135589   1.540   1.381   4.623
11882TIP3    H235590   1.497   1.243   4.577
11883TIP3   OH235591   3.315   7.769   4.242
11883TIP3    H135592   3.274   7.792   4.159
11883TIP3    H235593   3.342   7.678   4.231
11884TIP3   OH235594   2.153   1.787   1.847
11884TIP3    H135595   2.104   1.720   1.895
11884TIP3    H235596   2.227   1.807   1.904
11885TIP3   OH235597   1.956   1.548   5.943
11885TIP3    H135598   1.908   1.525   6.023
11885TIP3    H235599   1.932   1.639   5.926
11886TIP3   OH235600   0.210   2.107   0.515
11886TIP3    H135601   0.304   2.088   0.516
11886TIP3    H235602   0.196   2.161   0.593
11887TIP3   OH235603   1.145   1.361   4.290
11887TIP3    H135604   1.139   1.456   4.302
11887TIP3    H235605   1.056   1.334   4.265
11888TIP3   OH235606   2.550   1.741   3.795
11888TIP3    H135607   2.488   1.670   3.805
11888TIP3    H235608   2.498   1.820   3.810
11889TIP3   OH235609   5.606   4.539   1.643
11889TIP3    H135610   5.552   4.564   1.717
11889TIP3    H235611   5.609   4.443   1.647
11890TIP3   OH235612   3.146   5.081   0.711
11890TIP3    H135613   3.202   5.061   0.786
11890TIP3    H235614   3.198   5.141   0.658
11891TIP3   OH235615   1.105   2.158   3.131
11891TIP3    H135616   1.095   2.095   3.060
11891TIP3    H235617   1.035   2.221   3.117
11892TIP3   OH235618   2.059   5.441   4.533
11892TIP3    H135619   2.032   5.409   4.447
11892TIP3    H235620   2.064   5.362   4.587
11893TIP3   OH235621   2.891   2.980   3.871
11893TIP3    H135622   2.863   3.065   3.838
11893TIP3    H235623   2.914   2.996   3.963
11894TIP3   OH235624   7.472   0.739   2.658
11894TIP3    H135625   7.473   0.672   2.727
11894TIP3    H235626   7.498   0.820   2.703
11895TIP3   OH235627   4.780   1.066   4.101
11895TIP3    H135628   4.762   1.076   4.008
11895TIP3    H235629   4.854   1.005   4.105
11896TIP3   OH235630   2.028   0.656   4.873
11896TIP3    H135631   1.966   0.669   4.944
11896TIP3    H235632   2.111   0.637   4.916
11897TIP3   OH235633   4.695   3.772   4.360
11897TIP3    H135634   4.732   3.814   4.282
11897TIP3    H235635   4.616   3.729   4.328
11898TIP3   OH235636   1.099   5.933   1.675
11898TIP3    H135637   1.181   5.907   1.718
11898TIP3    H235638   1.125   5.955   1.585
11899TIP3   OH235639   4.974   6.425   1.831
11899TIP3    H135640   4.946   6.492   1.892
11899TIP3    H235641   5.066   6.409   1.853
11900TIP3   OH235642   2.968   3.663   6.149
11900TIP3    H135643   2.980   3.569   6.155
11900TIP3    H235644   2.977   3.694   6.240
11901TIP3   OH235645   7.440   2.453   3.915
11901TIP3    H135646   7.420   2.365   3.948
11901TIP3    H235647   7.530   2.469   3.942
11902TIP3   OH235648   7.065   2.533   5.775
11902TIP3    H135649   7.101   2.473   5.841
11902TIP3    H235650   7.055   2.479   5.697
11903TIP3   OH235651   7.480   2.506   5.003
11903TIP3    H135652   7.497   2.535   4.914
11903TIP3    H235653   7.431   2.425   4.993
11904TIP3   OH235654   3.463   5.165   4.283
11904TIP3    H135655   3.398   5.103   4.317
11904TIP3    H235656   3.473   5.140   4.191
11905TIP3   OH235657   3.273   3.704   5.590
11905TIP3    H135658   3.252   3.611   5.577
11905TIP3    H235659   3.294   3.737   5.503
11906TIP3   OH235660   5.939   2.868   1.886
11906TIP3    H135661   5.972   2.803   1.824
11906TIP3    H235662   5.884   2.926   1.834
11907TIP3   OH235663   1.354   1.144   4.265
11907TIP3    H135664   1.327   1.073   4.324
11907TIP3    H235665   1.287   1.211   4.277
11908TIP3   OH235666   1.853   6.006   5.879
11908TIP3    H135667   1.922   6.037   5.938
11908TIP3    H235668   1.900   5.965   5.807
11909TIP3   OH235669   0.289   7.602   5.516
11909TIP3    H135670   0.312   7.587   5.608
11909TIP3    H235671   0.372   7.621   5.473
11910TIP3   OH235672   1.457   5.442   0.155
11910TIP3    H135673   1.452   5.412   0.246
11910TIP3    H235674   1.374   5.488   0.140
11911TIP3   OH235675   6.228   0.843   4.853
11911TIP3    H135676   6.261   0.822   4.940
11911TIP3    H235677   6.271   0.781   4.795
11912TIP3   OH235678   1.411   5.693   4.529
11912TIP3    H135679   1.367   5.631   4.587
11912TIP3    H235680   1.464   5.747   4.587
11913TIP3   OH235681   7.688   3.535   2.624
11913TIP3    H135682   7.614   3.505   2.570
11913TIP3    H235683   7.749   3.574   2.561
11914TIP3   OH235684   4.555   2.794   2.918
11914TIP3    H135685   4.477   2.751   2.952
11914TIP3    H235686   4.529   2.886   2.906
11915TIP3   OH235687   1.991   1.311   3.699
11915TIP3    H135688   1.939   1.265   3.634
11915TIP3    H235689   1.943   1.300   3.781
11916TIP3   OH235690   3.426   6.726   3.149
11916TIP3    H135691   3.457   6.772   3.071
11916TIP3    H235692   3.351   6.778   3.179
11917TIP3   OH235693   7.580   3.301   6.208
11917TIP3    H135694   7.486   3.281   6.209
11917TIP3    H235695   7.598   3.333   6.297
11918TIP3   OH235696   3.281   1.975   4.975
11918TIP3    H135697   3.333   2.009   4.903
11918TIP3    H235698   3.190   1.990   4.949
11919TIP3   OH235699   4.075   4.951   3.346
11919TIP3    H135700   4.157   4.934   3.299
11919TIP3    H235701   4.013   4.977   3.278
11920TIP3   OH235702   1.314   1.202   6.754
11920TIP3    H135703   1.335   1.135   6.689
11920TIP3    H235704   1.307   1.154   6.837
11921TIP3   OH235705   1.810   5.124   4.410
11921TIP3    H135706   1.867   5.197   4.387
11921TIP3    H235707   1.796   5.076   4.328
11922TIP3   OH235708   7.427   3.670   1.035
11922TIP3    H135709   7.395   3.724   0.963
11922TIP3    H235710   7.423   3.727   1.111
11923TIP3   OH235711   0.054   3.436   3.562
11923TIP3    H135712   0.065   3.418   3.655
11923TIP3    H235713  -0.009   3.371   3.532
11924TIP3   OH235714   6.058   4.382   1.837
11924TIP3    H135715   6.013   4.397   1.754
11924TIP3    H235716   5.998   4.329   1.888
11925TIP3   OH235717   0.537   1.323   1.010
11925TIP3    H135718   0.611   1.311   0.950
11925TIP3    H235719   0.540   1.246   1.066
11926TIP3   OH235720   0.633   2.223   3.554
11926TIP3    H135721   0.616   2.317   3.550
11926TIP3    H235722   0.631   2.195   3.462
11927TIP3   OH235723   8.135   4.727   2.280
11927TIP3    H135724   8.187   4.657   2.241
11927TIP3    H235725   8.150   4.802   2.224
11928TIP3   OH235726   3.765   5.577   0.168
11928TIP3    H135727   3.798   5.556   0.080
11928TIP3    H235728   3.835   5.549   0.227
11929TIP3   OH235729   5.636   6.092   3.481
11929TIP3    H135730   5.609   6.115   3.392
11929TIP3    H235731   5.715   6.038   3.469
11930TIP3   OH235732   3.714   0.716   1.686
11930TIP3    H135733   3.779   0.749   1.624
11930TIP3    H235734   3.731   0.622   1.692
11931TIP3   OH235735   2.640   7.457   2.150
11931TIP3    H135736   2.695   7.391   2.194
11931TIP3    H235737   2.555   7.415   2.141
11932TIP3   OH235738   8.053   5.285   5.018
11932TIP3    H135739   7.965   5.314   4.995
11932TIP3    H235740   8.109   5.326   4.952
11933TIP3   OH235741   1.558   6.448   4.870
11933TIP3    H135742   1.574   6.541   4.884
11933TIP3    H235743   1.603   6.404   4.942
11934TIP3   OH235744   2.832   3.785   2.670
11934TIP3    H135745   2.884   3.836   2.607
11934TIP3    H235746   2.847   3.694   2.645
11935TIP3   OH235747   8.138   2.645   1.152
11935TIP3    H135748   8.220   2.692   1.164
11935TIP3    H235749   8.075   2.690   1.209
11936TIP3   OH235750   0.107   2.376   1.924
11936TIP3    H135751   0.035   2.338   1.874
11936TIP3    H235752   0.174   2.397   1.858
11937TIP3   OH235753   3.680   1.648   1.952
11937TIP3    H135754   3.624   1.718   1.987
11937TIP3    H235755   3.768   1.672   1.980
11938TIP3   OH235756   7.481   0.626   6.070
11938TIP3    H135757   7.562   0.627   6.019
11938TIP3    H235758   7.442   0.540   6.052
11939TIP3   OH235759   1.502   7.643   2.592
11939TIP3    H135760   1.594   7.652   2.616
11939TIP3    H235761   1.457   7.705   2.649
11940TIP3   OH235762   2.039   1.629   0.825
11940TIP3    H135763   2.039   1.539   0.793
11940TIP3    H235764   2.123   1.666   0.795
11941TIP3   OH235765   3.295   7.142   4.830
11941TIP3    H135766   3.252   7.199   4.894
11941TIP3    H235767   3.250   7.162   4.747
11942TIP3   OH235768   5.078   5.668   1.181
11942TIP3    H135769   5.052   5.618   1.258
11942TIP3    H235770   5.168   5.695   1.199
11943TIP3   OH235771   0.167   3.348   1.709
11943TIP3    H135772   0.135   3.375   1.795
11943TIP3    H235773   0.259   3.372   1.709
11944TIP3   OH235774   0.202   3.006   0.134
11944TIP3    H135775   0.220   3.037   0.045
11944TIP3    H235776   0.141   3.071   0.169
11945TIP3   OH235777   1.483   3.466   1.224
11945TIP3    H135778   1.417   3.396   1.218
11945TIP3    H235779   1.450   3.535   1.167
11946TIP3   OH235780   5.258   4.103   0.987
11946TIP3    H135781   5.241   4.194   1.009
11946TIP3    H235782   5.308   4.069   1.061
11947TIP3   OH235783   0.954   1.384   5.794
11947TIP3    H135784   0.943   1.474   5.824
11947TIP3    H235785   0.967   1.391   5.699
11948TIP3   OH235786   3.041   4.827   0.184
11948TIP3    H135787   3.022   4.918   0.205
11948TIP3    H235788   3.096   4.831   0.106
11949TIP3   OH235789   4.925   4.256   2.434
11949TIP3    H135790   4.892   4.248   2.524
11949TIP3    H235791   4.973   4.175   2.418
11950TIP3   OH235792   7.287   3.036   0.133
11950TIP3    H135793   7.370   3.084   0.125
11950TIP3    H235794   7.260   3.049   0.223
11951TIP3   OH235795   6.570   2.088   3.463
11951TIP3    H135796   6.573   2.166   3.407
11951TIP3    H235797   6.496   2.104   3.522
11952TIP3   OH235798   1.214   7.195   1.641
11952TIP3    H135799   1.305   7.197   1.671
11952TIP3    H235800   1.210   7.263   1.573
11953TIP3   OH235801   6.895   4.256   5.378
11953TIP3    H135802   6.836   4.197   5.332
11953TIP3    H235803   6.855   4.342   5.367
11954TIP3   OH235804   2.133   1.582   5.521
11954TIP3    H135805   2.162   1.521   5.589
11954TIP3    H235806   2.108   1.661   5.569
11955TIP3   OH235807   0.892   4.074   0.313
11955TIP3    H135808   0.888   4.131   0.390
11955TIP3    H235809   0.901   4.133   0.239
11956TIP3   OH235810   0.700   2.521   5.994
11956TIP3    H135811   0.728   2.592   6.051
11956TIP3    H235812   0.720   2.441   6.043
11957TIP3   OH235813   4.954   1.007   3.018
11957TIP3    H135814   5.010   0.960   2.956
11957TIP3    H235815   4.974   0.967   3.103
11958TIP3   OH235816   3.858   0.951   3.155
11958TIP3    H135817   3.838   1.042   3.178
11958TIP3    H235818   3.839   0.945   3.061
11959TIP3   OH235819   4.074   6.339   0.609
11959TIP3    H135820   4.116   6.416   0.648
11959TIP3    H235821   3.990   6.372   0.575
11960TIP3   OH235822   2.917   3.324   4.186
11960TIP3    H135823   2.956   3.372   4.113
11960TIP3    H235824   2.908   3.234   4.154
11961TIP3   OH235825   1.998   0.757   1.784
11961TIP3    H135826   2.079   0.707   1.794
11961TIP3    H235827   1.950   0.741   1.866
11962TIP3   OH235828   7.159   2.095   3.899
11962TIP3    H135829   7.139   2.016   3.849
11962TIP3    H235830   7.076   2.120   3.938
11963TIP3   OH235831   1.546   3.996   4.525
11963TIP3    H135832   1.489   4.072   4.523
11963TIP3    H235833   1.549   3.969   4.617
11964TIP3   OH235834   3.742   1.690   5.062
11964TIP3    H135835   3.751   1.747   4.986
11964TIP3    H235836   3.818   1.631   5.056
11965TIP3   OH235837   6.612   6.977   4.665
11965TIP3    H135838   6.671   6.904   4.681
11965TIP3    H235839   6.668   7.047   4.631
11966TIP3   OH235840   1.052   1.490   0.260
11966TIP3    H135841   1.088   1.416   0.212
11966TIP3    H235842   1.037   1.557   0.192
11967TIP3   OH235843   7.074   3.464   0.430
11967TIP3    H135844   7.148   3.404   0.441
11967TIP3    H235845   7.028   3.431   0.353
11968TIP3   OH235846   2.303   0.819   4.934
11968TIP3    H135847   2.225   0.871   4.914
11968TIP3    H235848   2.362   0.833   4.860
11969TIP3   OH235849   3.200   5.160   6.324
11969TIP3    H135850   3.126   5.110   6.359
11969TIP3    H235851   3.218   5.226   6.391
11970TIP3   OH235852   0.221   4.491   3.333
11970TIP3    H135853   0.230   4.551   3.407
11970TIP3    H235854   0.136   4.513   3.294
11971TIP3   OH235855   6.719   6.429   0.259
11971TIP3    H135856   6.662   6.420   0.182
11971TIP3    H235857   6.806   6.407   0.226
11972TIP3   OH235858   3.168   1.973   5.565
11972TIP3    H135859   3.152   1.901   5.505
11972TIP3    H235860   3.107   2.041   5.539
11973TIP3   OH235861   1.764   5.779   4.298
11973TIP3    H135862   1.671   5.758   4.296
11973TIP3    H235863   1.802   5.715   4.359
11974TIP3   OH235864   6.929   5.164   5.862
11974TIP3    H135865   6.875   5.129   5.791
11974TIP3    H235866   6.873   5.160   5.939
11975TIP3   OH235867   3.314   3.964   4.443
11975TIP3    H135868   3.398   3.927   4.470
11975TIP3    H235869   3.302   3.931   4.353
11976TIP3   OH235870   1.357   4.523   3.286
11976TIP3    H135871   1.415   4.582   3.334
11976TIP3    H235872   1.293   4.494   3.350
11977TIP3   OH235873   3.402   6.310   3.767
11977TIP3    H135874   3.370   6.352   3.688
11977TIP3    H235875   3.496   6.299   3.753
11978TIP3   OH235876   7.712   2.500   1.005
11978TIP3    H135877   7.735   2.509   1.098
11978TIP3    H235878   7.744   2.580   0.964
11979TIP3   OH235879   1.126   1.769   1.362
11979TIP3    H135880   1.117   1.824   1.440
11979TIP3    H235881   1.209   1.723   1.374
11980TIP3   OH235882   0.048   3.309   4.892
11980TIP3    H135883  -0.012   3.350   4.829
11980TIP3    H235884   0.132   3.353   4.878
11981TIP3   OH235885   0.266   3.192   1.927
11981TIP3    H135886   0.192   3.131   1.927
11981TIP3    H235887   0.226   3.279   1.929
11982TIP3   OH235888   7.450   3.054   1.883
11982TIP3    H135889   7.383   3.120   1.898
11982TIP3    H235890   7.519   3.101   1.835
11983TIP3   OH235891   5.275   0.179   3.811
11983TIP3    H135892   5.223   0.245   3.857
11983TIP3    H235893   5.291   0.218   3.724
11984TIP3   OH235894   6.028   3.510   1.647
11984TIP3    H135895   6.068   3.484   1.730
11984TIP3    H235896   6.029   3.431   1.594
11985TIP3   OH235897   7.252   0.734   6.540
11985TIP3    H135898   7.297   0.679   6.604
11985TIP3    H235899   7.311   0.738   6.465
11986TIP3   OH235900   2.487   1.586   5.217
11986TIP3    H135901   2.523   1.668   5.186
11986TIP3    H235902   2.528   1.571   5.302
11987TIP3   OH235903   1.291   2.499   1.301
11987TIP3    H135904   1.367   2.446   1.278
11987TIP3    H235905   1.217   2.440   1.289
11988TIP3   OH235906   2.828   0.915   5.316
11988TIP3    H135907   2.765   0.976   5.277
11988TIP3    H235908   2.839   0.847   5.251
11989TIP3   OH235909   7.624   1.595   5.856
11989TIP3    H135910   7.550   1.601   5.795
11989TIP3    H235911   7.586   1.620   5.941
11990TIP3   OH235912   7.050   3.184   1.849
11990TIP3    H135913   7.104   3.261   1.868
11990TIP3    H235914   7.095   3.140   1.778
11991TIP3   OH235915   4.777   7.015   3.195
11991TIP3    H135916   4.858   6.967   3.212
11991TIP3    H235917   4.710   6.947   3.190
11992TIP3   OH235918   4.639   2.108   3.090
11992TIP3    H135919   4.697   2.043   3.051
11992TIP3    H235920   4.557   2.099   3.041
11993TIP3   OH235921   0.181   3.404   1.258
11993TIP3    H135922   0.264   3.449   1.271
11993TIP3    H235923   0.202   3.311   1.263
11994TIP3   OH235924   8.182   4.061   1.897
11994TIP3    H135925   8.107   4.106   1.858
11994TIP3    H235926   8.205   4.113   1.974
11995TIP3   OH235927   5.892   2.002   2.461
11995TIP3    H135928   5.939   1.992   2.379
11995TIP3    H235929   5.892   1.915   2.500
11996TIP3   OH235930   0.238   4.046   5.923
11996TIP3    H135931   0.209   3.988   5.853
11996TIP3    H235932   0.283   3.989   5.985
11997TIP3   OH235933   6.756   7.028   6.149
11997TIP3    H135934   6.844   7.065   6.151
11997TIP3    H235935   6.698   7.104   6.154
11998TIP3   OH235936   7.488   1.689   0.375
11998TIP3    H135937   7.418   1.683   0.310
11998TIP3    H235938   7.513   1.781   0.376
11999TIP3   OH235939   5.621   6.720   5.053
11999TIP3    H135940   5.621   6.644   5.112
11999TIP3    H235941   5.533   6.721   5.016
12000TIP3   OH235942   5.676   0.440   5.195
12000TIP3    H135943   5.661   0.347   5.182
12000TIP3    H235944   5.732   0.445   5.272
12001TIP3   OH235945   1.212   4.452   5.198
12001TIP3    H135946   1.176   4.377   5.149
12001TIP3    H235947   1.240   4.513   5.130
12002TIP3   OH235948   3.464   3.889   0.599
12002TIP3    H135949   3.489   3.827   0.668
12002TIP3    H235950   3.395   3.942   0.638
12003TIP3   OH235951   7.356   7.520   2.662
12003TIP3    H135952   7.422   7.481   2.719
12003TIP3    H235953   7.291   7.556   2.722
12004TIP3   OH235954   3.711   3.213   0.613
12004TIP3    H135955   3.772   3.286   0.619
12004TIP3    H235956   3.630   3.252   0.580
12005TIP3   OH235957   3.273   3.940   6.150
12005TIP3    H135958   3.352   3.988   6.128
12005TIP3    H235959   3.204   4.007   6.153
12006TIP3   OH235960   7.928   5.500   3.156
12006TIP3    H135961   8.023   5.498   3.146
12006TIP3    H235962   7.911   5.452   3.238
12007TIP3   OH235963   7.151   5.515   6.082
12007TIP3    H135964   7.095   5.590   6.100
12007TIP3    H235965   7.155   5.509   5.986
12008TIP3   OH235966   6.309   4.563   3.893
12008TIP3    H135967   6.259   4.618   3.833
12008TIP3    H235968   6.244   4.504   3.931
12009TIP3   OH235969   7.706   2.932   3.710
12009TIP3    H135970   7.781   2.873   3.698
12009TIP3    H235971   7.677   2.953   3.621
12010TIP3   OH235972   3.327   2.781   0.928
12010TIP3    H135973   3.364   2.787   1.017
12010TIP3    H235974   3.234   2.802   0.940
12011TIP3   OH235975   4.542   4.106   2.923
12011TIP3    H135976   4.499   4.025   2.894
12011TIP3    H235977   4.500   4.175   2.873
12012TIP3   OH235978   1.778   5.460   5.414
12012TIP3    H135979   1.699   5.457   5.468
12012TIP3    H235980   1.785   5.372   5.376
12013TIP3   OH235981   7.197   2.011   0.766
12013TIP3    H135982   7.285   2.010   0.805
12013TIP3    H235983   7.138   1.994   0.840
12014TIP3   OH235984   0.152   2.406   2.762
12014TIP3    H135985   0.059   2.382   2.757
12014TIP3    H235986   0.152   2.501   2.770
12015TIP3   OH235987   5.682   7.497   6.179
12015TIP3    H135988   5.682   7.406   6.147
12015TIP3    H235989   5.775   7.520   6.185
12016TIP3   OH235990   2.047   4.213   2.371
12016TIP3    H135991   2.125   4.171   2.409
12016TIP3    H235992   2.080   4.297   2.336
12017TIP3   OH235993   2.150   0.983   4.140
12017TIP3    H135994   2.156   0.943   4.227
12017TIP3    H235995   2.057   1.000   4.128
12018TIP3   OH235996   1.782   7.407   1.871
12018TIP3    H135997   1.828   7.490   1.879
12018TIP3    H235998   1.776   7.392   1.777
12019TIP3   OH235999   6.499   5.960   4.849
12019TIP3    H136000   6.487   5.985   4.941
12019TIP3    H236001   6.421   5.908   4.828
12020TIP3   OH236002   4.301   6.188   3.304
12020TIP3    H136003   4.327   6.276   3.278
12020TIP3    H236004   4.361   6.165   3.375
12021TIP3   OH236005   4.762   0.093   6.219
12021TIP3    H136006   4.698   0.153   6.179
12021TIP3    H236007   4.847   0.133   6.201
12022TIP3   OH236008   1.082   1.585   6.672
12022TIP3    H136009   1.005   1.546   6.630
12022TIP3    H236010   1.155   1.556   6.617
12023TIP3   OH236011   0.146   5.710   0.740
12023TIP3    H136012   0.075   5.686   0.681
12023TIP3    H236013   0.159   5.633   0.795
12024TIP3   OH236014   5.473   5.744   3.744
12024TIP3    H136015   5.427   5.827   3.744
12024TIP3    H236016   5.562   5.766   3.772
12025TIP3   OH236017   1.799   5.236   5.932
12025TIP3    H136018   1.767   5.283   6.009
12025TIP3    H236019   1.858   5.297   5.889
12026TIP3   OH236020   6.216   0.815   4.555
12026TIP3    H136021   6.280   0.883   4.537
12026TIP3    H236022   6.131   0.856   4.535
12027TIP3   OH236023   4.897   3.709   1.464
12027TIP3    H136024   4.972   3.695   1.522
12027TIP3    H236025   4.910   3.646   1.392
12028TIP3   OH236026   3.168   5.725   2.193
12028TIP3    H136027   3.126   5.811   2.187
12028TIP3    H236028   3.154   5.697   2.284
12029TIP3   OH236029   7.190   7.175   4.938
12029TIP3    H136030   7.159   7.263   4.918
12029TIP3    H236031   7.150   7.154   5.022
12030TIP3   OH236032   4.430   6.890   4.669
12030TIP3    H136033   4.480   6.809   4.657
12030TIP3    H236034   4.488   6.958   4.635
12031TIP3   OH236035   4.490   2.062   1.499
12031TIP3    H136036   4.454   2.053   1.588
12031TIP3    H236037   4.454   1.987   1.452
12032TIP3   OH236038   5.698   5.540   6.737
12032TIP3    H136039   5.677   5.488   6.659
12032TIP3    H236040   5.668   5.487   6.810
12033TIP3   OH236041   0.523   7.388   4.618
12033TIP3    H136042   0.536   7.347   4.703
12033TIP3    H236043   0.458   7.332   4.574
12034TIP3   OH236044   6.589   1.893   1.368
12034TIP3    H136045   6.509   1.937   1.396
12034TIP3    H236046   6.640   1.962   1.324
12035TIP3   OH236047   2.710   0.917   3.871
12035TIP3    H136048   2.642   0.973   3.908
12035TIP3    H236049   2.732   0.958   3.787
12036TIP3   OH236050   4.810   7.700   3.483
12036TIP3    H136051   4.860   7.698   3.565
12036TIP3    H236052   4.775   7.789   3.479
12037TIP3   OH236053   6.492   4.077   2.751
12037TIP3    H136054   6.563   4.031   2.796
12037TIP3    H236055   6.424   4.086   2.818
12038TIP3   OH236056   0.750   3.428   6.085
12038TIP3    H136057   0.798   3.349   6.060
12038TIP3    H236058   0.716   3.408   6.172
12039TIP3   OH236059   5.352   1.709   3.680
12039TIP3    H136060   5.270   1.756   3.672
12039TIP3    H236061   5.356   1.684   3.773
12040TIP3   OH236062   4.955   3.553   0.137
12040TIP3    H136063   5.040   3.593   0.117
12040TIP3    H236064   4.908   3.620   0.186
12041TIP3   OH236065   2.549   4.482   1.962
12041TIP3    H136066   2.523   4.523   2.044
12041TIP3    H236067   2.547   4.553   1.898
12042TIP3   OH236068   6.038   3.021   3.496
12042TIP3    H136069   6.079   3.094   3.543
12042TIP3    H236070   5.984   2.978   3.562
12043TIP3   OH236071   5.578   6.545   3.722
12043TIP3    H136072   5.614   6.486   3.656
12043TIP3    H236073   5.648   6.552   3.788
12044TIP3   OH236074   7.427   4.760   0.795
12044TIP3    H136075   7.475   4.711   0.861
12044TIP3    H236076   7.494   4.798   0.739
12045TIP3   OH236077   2.379   6.004   3.096
12045TIP3    H136078   2.423   5.970   3.018
12045TIP3    H236079   2.327   6.077   3.064
12046TIP3   OH236080   7.631   3.531   4.416
12046TIP3    H136081   7.683   3.457   4.385
12046TIP3    H236082   7.655   3.540   4.509
12047TIP3   OH236083   2.278   2.972   2.365
12047TIP3    H136084   2.322   2.961   2.449
12047TIP3    H236085   2.244   2.884   2.345
12048TIP3   OH236086   6.886   7.571   4.146
12048TIP3    H136087   6.931   7.614   4.219
12048TIP3    H236088   6.954   7.559   4.079
12049TIP3   OH236089   1.216   7.314   4.907
12049TIP3    H136090   1.297   7.365   4.909
12049TIP3    H236091   1.237   7.238   4.853
12050TIP3   OH236092   0.410   7.123   4.869
12050TIP3    H136093   0.487   7.179   4.883
12050TIP3    H236094   0.404   7.113   4.774
12051TIP3   OH236095   2.053   5.001   0.541
12051TIP3    H136096   2.063   5.070   0.476
12051TIP3    H236097   2.135   5.004   0.592
12052TIP3   OH236098   4.507   4.871   0.393
12052TIP3    H136099   4.455   4.796   0.365
12052TIP3    H236100   4.463   4.947   0.355
12053TIP3   OH236101   5.447   4.633   3.960
12053TIP3    H136102   5.378   4.569   3.978
12053TIP3    H236103   5.412   4.716   3.991
12054TIP3   OH236104   4.649   0.529   0.843
12054TIP3    H136105   4.721   0.543   0.781
12054TIP3    H236106   4.577   0.497   0.789
12055TIP3   OH236107   7.924   1.700   4.891
12055TIP3    H136108   7.830   1.720   4.897
12055TIP3    H236109   7.953   1.745   4.812
12056TIP3   OH236110   0.208   4.792   2.281
12056TIP3    H136111   0.149   4.845   2.334
12056TIP3    H236112   0.248   4.855   2.220
12057TIP3   OH236113   1.069   3.166   6.252
12057TIP3    H136114   1.145   3.118   6.286
12057TIP3    H236115   1.062   3.243   6.309
12058TIP3   OH236116   8.212   1.713   1.526
12058TIP3    H136117   8.205   1.802   1.492
12058TIP3    H236118   8.296   1.711   1.571
12059TIP3   OH236119   3.307   4.056   5.538
12059TIP3    H136120   3.300   4.151   5.540
12059TIP3    H236121   3.373   4.039   5.470
12060TIP3   OH236122   3.528   3.670   6.411
12060TIP3    H136123   3.615   3.662   6.372
12060TIP3    H236124   3.533   3.620   6.492
12061TIP3   OH236125   0.016   1.262   4.073
12061TIP3    H136126   0.076   1.334   4.053
12061TIP3    H236127   0.047   1.226   4.156
12062TIP3   OH236128   1.421   2.885   2.807
12062TIP3    H136129   1.470   2.865   2.727
12062TIP3    H236130   1.339   2.836   2.798
12063TIP3   OH236131   7.793   3.897   4.895
12063TIP3    H136132   7.808   3.803   4.905
12063TIP3    H236133   7.795   3.931   4.985
12064TIP3   OH236134   4.029   4.938   5.634
12064TIP3    H136135   4.085   4.862   5.645
12064TIP3    H236136   3.942   4.903   5.615
12065TIP3   OH236137  -0.013   3.501   6.272
12065TIP3    H136138  -0.052   3.588   6.269
12065TIP3    H236139   0.055   3.507   6.338
12066TIP3   OH236140   4.741   6.319   5.509
12066TIP3    H136141   4.777   6.304   5.597
12066TIP3    H236142   4.815   6.304   5.450
12067TIP3   OH236143   5.216   6.531   3.131
12067TIP3    H136144   5.216   6.598   3.063
12067TIP3    H236145   5.300   6.543   3.176
12068TIP3   OH236146   2.109   3.766   2.607
12068TIP3    H136147   2.185   3.721   2.646
12068TIP3    H236148   2.098   3.844   2.661
12069TIP3   OH236149   8.187   0.389   5.898
12069TIP3    H136150   8.189   0.475   5.941
12069TIP3    H236151   8.280   0.366   5.887
12070TIP3   OH236152   0.857   0.451   1.594
12070TIP3    H136153   0.884   0.447   1.686
12070TIP3    H236154   0.794   0.524   1.591
12071TIP3   OH236155   1.100   4.312   3.271
12071TIP3    H136156   1.171   4.250   3.292
12071TIP3    H236157   1.057   4.275   3.194
12072TIP3   OH236158   3.015   6.786   1.887
12072TIP3    H136159   2.963   6.742   1.954
12072TIP3    H236160   3.072   6.845   1.936
12073TIP3   OH236161   5.128   1.831   1.920
12073TIP3    H136162   5.152   1.757   1.864
12073TIP3    H236163   5.040   1.855   1.892
12074TIP3   OH236164   2.285   7.480   0.646
12074TIP3    H136165   2.277   7.574   0.629
12074TIP3    H236166   2.284   7.439   0.560
12075TIP3   OH236167   7.643   2.205   3.323
12075TIP3    H136168   7.639   2.259   3.245
12075TIP3    H236169   7.594   2.254   3.389
12076TIP3   OH236170   4.628   0.211   2.038
12076TIP3    H136171   4.612   0.305   2.031
12076TIP3    H236172   4.654   0.184   1.950
12077TIP3   OH236173   6.628   5.417   5.558
12077TIP3    H136174   6.710   5.372   5.579
12077TIP3    H236175   6.627   5.493   5.616
12078TIP3   OH236176   6.872   3.222   0.368
12078TIP3    H136177   6.828   3.140   0.344
12078TIP3    H236178   6.939   3.195   0.431
12079TIP3   OH236179   1.162   2.722   0.759
12079TIP3    H136180   1.130   2.757   0.842
12079TIP3    H236181   1.163   2.797   0.700
12080TIP3   OH236182   1.471   5.243   3.231
12080TIP3    H136183   1.484   5.150   3.210
12080TIP3    H236184   1.486   5.249   3.326
12081TIP3   OH236185   6.471   7.339   1.149
12081TIP3    H136186   6.515   7.330   1.233
12081TIP3    H236187   6.389   7.385   1.170
12082TIP3   OH236188   0.386   6.963   5.383
12082TIP3    H136189   0.317   6.987   5.321
12082TIP3    H236190   0.372   6.870   5.400
12083TIP3   OH236191   4.261   5.391   4.838
12083TIP3    H136192   4.346   5.350   4.855
12083TIP3    H236193   4.283   5.472   4.792
12084TIP3   OH236194   1.788   6.661   5.249
12084TIP3    H136195   1.702   6.698   5.270
12084TIP3    H236196   1.829   6.726   5.192
12085TIP3   OH236197   7.088   2.089   4.200
12085TIP3    H136198   7.141   2.150   4.252
12085TIP3    H236199   7.076   2.134   4.116
12086TIP3   OH236200   1.644   2.044   1.328
12086TIP3    H136201   1.656   1.956   1.365
12086TIP3    H236202   1.686   2.040   1.242
12087TIP3   OH236203   2.372   0.853   3.025
12087TIP3    H136204   2.358   0.877   3.117
12087TIP3    H236205   2.413   0.767   3.028
12088TIP3   OH236206   2.874   5.204   4.977
12088TIP3    H136207   2.806   5.167   5.034
12088TIP3    H236208   2.895   5.289   5.017
12089TIP3   OH236209   5.251   0.776   2.598
12089TIP3    H136210   5.286   0.773   2.509
12089TIP3    H236211   5.210   0.691   2.611
12090TIP3   OH236212   4.608   2.849   3.287
12090TIP3    H136213   4.618   2.917   3.220
12090TIP3    H236214   4.649   2.772   3.248
12091TIP3   OH236215   2.016   1.191   2.384
12091TIP3    H136216   1.927   1.178   2.350
12091TIP3    H236217   2.028   1.286   2.386
12092TIP3   OH236218   7.566   5.706   4.693
12092TIP3    H136219   7.525   5.747   4.617
12092TIP3    H236220   7.492   5.682   4.749
12093TIP3   OH236221   4.701   1.627   3.883
12093TIP3    H136222   4.774   1.565   3.882
12093TIP3    H236223   4.625   1.573   3.908
12094TIP3   OH236224   6.396   2.010   1.743
12094TIP3    H136225   6.404   2.102   1.770
12094TIP3    H236226   6.319   1.977   1.790
12095TIP3   OH236227   3.415   5.623   1.939
12095TIP3    H136228   3.458   5.569   2.005
12095TIP3    H236229   3.378   5.561   1.877
12096TIP3   OH236230   1.444   2.457   0.653
12096TIP3    H136231   1.467   2.366   0.670
12096TIP3    H236232   1.390   2.483   0.727
12097TIP3   OH236233   4.114   5.532   4.527
12097TIP3    H136234   4.184   5.468   4.515
12097TIP3    H236235   4.036   5.480   4.545
12098TIP3   OH236236   6.447   1.900   3.065
12098TIP3    H136237   6.388   1.926   2.994
12098TIP3    H236238   6.430   1.963   3.135
12099TIP3   OH236239   2.472   1.455   4.098
12099TIP3    H136240   2.435   1.437   4.011
12099TIP3    H236241   2.405   1.506   4.143
12100TIP3   OH236242   7.988   2.311   3.750
12100TIP3    H136243   7.926   2.251   3.789
12100TIP3    H236244   8.070   2.262   3.745
12101TIP3   OH236245   1.579   0.084   6.446
12101TIP3    H136246   1.547   0.165   6.484
12101TIP3    H236247   1.500   0.033   6.428
12102TIP3   OH236248   5.747   2.053   4.109
12102TIP3    H136249   5.705   1.970   4.084
12102TIP3    H236250   5.766   2.042   4.202
12103TIP3   OH236251   5.080   3.298   0.118
12103TIP3    H136252   5.039   3.382   0.099
12103TIP3    H236253   5.011   3.233   0.104
12104TIP3   OH236254   3.385   7.469   1.219
12104TIP3    H136255   3.447   7.396   1.208
12104TIP3    H236256   3.380   7.509   1.132
12105TIP3   OH236257   1.940   6.268   5.109
12105TIP3    H136258   1.846   6.283   5.111
12105TIP3    H236259   1.977   6.345   5.152
12106TIP3   OH236260   5.005   2.655   4.441
12106TIP3    H136261   5.023   2.561   4.441
12106TIP3    H236262   5.065   2.690   4.375
12107TIP3   OH236263   3.166   4.377   3.446
12107TIP3    H136264   3.080   4.395   3.484
12107TIP3    H236265   3.152   4.299   3.392
12108TIP3   OH236266   7.234   3.757   0.242
12108TIP3    H136267   7.207   3.668   0.219
12108TIP3    H236268   7.329   3.756   0.236
12109TIP3   OH236269   3.612   3.633   3.025
12109TIP3    H136270   3.632   3.587   2.943
12109TIP3    H236271   3.675   3.599   3.088
12110TIP3   OH236272   3.056   6.256   1.756
12110TIP3    H136273   3.139   6.276   1.712
12110TIP3    H236274   3.081   6.240   1.847
12111TIP3   OH236275   1.208   0.225   6.120
12111TIP3    H136276   1.136   0.288   6.121
12111TIP3    H236277   1.277   0.269   6.070
12112TIP3   OH236278   6.823   6.762   6.094
12112TIP3    H136279   6.799   6.854   6.082
12112TIP3    H236280   6.745   6.722   6.133
12113TIP3   OH236281   4.957   0.790   2.810
12113TIP3    H136282   4.951   0.806   2.716
12113TIP3    H236283   4.867   0.792   2.841
12114TIP3   OH236284   0.544   6.404   4.129
12114TIP3    H136285   0.513   6.360   4.208
12114TIP3    H236286   0.561   6.332   4.067
12115TIP3   OH236287   0.311   1.335   3.543
12115TIP3    H136288   0.404   1.317   3.531
12115TIP3    H236289   0.285   1.382   3.464
12116TIP3   OH236290   0.107   2.798   1.120
12116TIP3    H136291   0.104   2.873   1.179
12116TIP3    H236292   0.145   2.728   1.173
12117TIP3   OH236293   1.592   7.068   6.502
12117TIP3    H136294   1.585   7.108   6.415
12117TIP3    H236295   1.665   7.115   6.544
12118TIP3   OH236296   6.065   3.665   2.381
12118TIP3    H136297   6.132   3.692   2.444
12118TIP3    H236298   6.043   3.575   2.407
12119TIP3   OH236299   2.525   4.200   1.181
12119TIP3    H136300   2.581   4.232   1.111
12119TIP3    H236301   2.569   4.121   1.213
12120TIP3   OH236302   2.178   6.630   4.347
12120TIP3    H136303   2.176   6.678   4.264
12120TIP3    H236304   2.164   6.697   4.414
12121TIP3   OH236305   6.384   5.484   3.283
12121TIP3    H136306   6.460   5.484   3.341
12121TIP3    H236307   6.398   5.411   3.223
12122TIP3   OH236308   7.054   4.700   1.878
12122TIP3    H136309   7.028   4.646   1.803
12122TIP3    H236310   7.094   4.778   1.838
12123TIP3   OH236311   0.762   3.355   3.379
12123TIP3    H136312   0.692   3.414   3.405
12123TIP3    H236313   0.751   3.278   3.434
12124TIP3   OH236314   2.992   2.889   6.628
12124TIP3    H136315   3.038   2.956   6.677
12124TIP3    H236316   2.950   2.834   6.695
12125TIP3   OH236317   0.242   6.138   3.202
12125TIP3    H136318   0.169   6.162   3.259
12125TIP3    H236319   0.241   6.204   3.132
12126TIP3   OH236320   7.841   5.779   5.539
12126TIP3    H136321   7.865   5.871   5.534
12126TIP3    H236322   7.870   5.752   5.626
12127TIP3   OH236323   2.233   5.374   3.589
12127TIP3    H136324   2.199   5.411   3.508
12127TIP3    H236325   2.194   5.428   3.658
12128TIP3   OH236326   6.130   0.025   2.880
12128TIP3    H136327   6.081   0.039   2.961
12128TIP3    H236328   6.154   0.113   2.851
12129TIP3   OH236329   4.994   6.237   3.439
12129TIP3    H136330   5.085   6.222   3.414
12129TIP3    H236331   4.980   6.331   3.424
12130TIP3   OH236332   0.720   3.378   0.881
12130TIP3    H136333   0.788   3.440   0.854
12130TIP3    H236334   0.644   3.434   0.902
12131TIP3   OH236335   5.566   4.887   1.845
12131TIP3    H136336   5.518   4.861   1.766
12131TIP3    H236337   5.619   4.811   1.867
12132TIP3   OH236338   5.353   4.243   1.622
12132TIP3    H136339   5.301   4.296   1.561
12132TIP3    H236340   5.290   4.213   1.687
12133TIP3   OH236341   1.013   0.226   3.158
12133TIP3    H136342   0.975   0.222   3.069
12133TIP3    H236343   1.101   0.190   3.148
12134TIP3   OH236344   6.754   1.770   4.431
12134TIP3    H136345   6.760   1.834   4.360
12134TIP3    H236346   6.800   1.811   4.504
12135TIP3   OH236347   8.150   2.407   2.701
12135TIP3    H136348   8.090   2.469   2.743
12135TIP3    H236349   8.118   2.401   2.611
12136TIP3   OH236350   5.298   0.084   4.600
12136TIP3    H136351   5.310   0.091   4.505
12136TIP3    H236352   5.350   0.008   4.625
12137TIP3   OH236353   5.473   3.747   2.221
12137TIP3    H136354   5.399   3.799   2.187
12137TIP3    H236355   5.457   3.742   2.315
12138TIP3   OH236356   7.656   6.748   4.257
12138TIP3    H136357   7.644   6.800   4.338
12138TIP3    H236358   7.610   6.799   4.190
12139TIP3   OH236359   3.546   4.385   4.710
12139TIP3    H136360   3.532   4.405   4.617
12139TIP3    H236361   3.629   4.427   4.730
12140TIP3   OH236362   0.012   3.908   0.946
12140TIP3    H136363   0.058   3.904   1.030
12140TIP3    H236364  -0.079   3.887   0.967
12141TIP3   OH236365   3.704   2.765   3.836
12141TIP3    H136366   3.722   2.761   3.930
12141TIP3    H236367   3.668   2.679   3.815
12142TIP3   OH236368   2.915   0.612   5.309
12142TIP3    H136369   2.914   0.526   5.269
12142TIP3    H236370   2.958   0.598   5.394
12143TIP3   OH236371   0.815   4.114   3.250
12143TIP3    H136372   0.842   4.201   3.280
12143TIP3    H236373   0.894   4.060   3.259
12144TIP3   OH236374   2.311   1.566   3.541
12144TIP3    H136375   2.400   1.541   3.515
12144TIP3    H236376   2.254   1.521   3.479
12145TIP3   OH236377   4.106   2.888   4.822
12145TIP3    H136378   4.083   2.980   4.839
12145TIP3    H236379   4.028   2.851   4.782
12146TIP3   OH236380  -0.014   4.526   2.165
12146TIP3    H136381   0.035   4.449   2.194
12146TIP3    H236382   0.045   4.571   2.105
12147TIP3   OH236383   7.542   4.102   4.470
12147TIP3    H136384   7.636   4.109   4.453
12147TIP3    H236385   7.519   4.012   4.444
12148TIP3   OH236386   5.945   3.240   6.516
12148TIP3    H136387   5.964   3.324   6.474
12148TIP3    H236388   5.917   3.263   6.605
12149TIP3   OH236389   7.129   0.916   2.427
12149TIP3    H136390   7.135   0.943   2.519
12149TIP3    H236391   7.168   0.829   2.425
12150TIP3   OH236392   5.318   6.312   5.135
12150TIP3    H136393   5.395   6.255   5.130
12150TIP3    H236394   5.326   6.356   5.219
12151TIP3   OH236395   5.450   3.138   2.387
12151TIP3    H136396   5.363   3.099   2.385
12151TIP3    H236397   5.465   3.159   2.479
12152TIP3   OH236398   6.631   2.473   4.765
12152TIP3    H136399   6.630   2.383   4.797
12152TIP3    H236400   6.724   2.495   4.759
12153TIP3   OH236401   6.786   4.453   4.724
12153TIP3    H136402   6.826   4.508   4.791
12153TIP3    H236403   6.857   4.398   4.691
12154TIP3   OH236404   7.302   2.547   4.269
12154TIP3    H136405   7.300   2.618   4.333
12154TIP3    H236406   7.301   2.591   4.184
12155TIP3   OH236407   5.801   4.325   1.300
12155TIP3    H136408   5.871   4.389   1.315
12155TIP3    H236409   5.824   4.283   1.217
12156TIP3   OH236410   2.126   5.716   4.484
12156TIP3    H136411   2.071   5.759   4.418
12156TIP3    H236412   2.078   5.637   4.507
12157TIP3   OH236413   7.045   2.128   5.896
12157TIP3    H136414   7.109   2.197   5.880
12157TIP3    H236415   6.963   2.175   5.910
12158TIP3   OH236416   8.000   3.826   2.077
12158TIP3    H136417   8.022   3.736   2.101
12158TIP3    H236418   8.073   3.854   2.022
12159TIP3   OH236419   4.347   0.589   2.361
12159TIP3    H136420   4.286   0.543   2.418
12159TIP3    H236421   4.314   0.574   2.273
12160TIP3   OH236422   2.080   1.965   6.707
12160TIP3    H136423   1.997   1.976   6.661
12160TIP3    H236424   2.091   2.046   6.757
12161TIP3   OH236425   5.431   5.784   5.051
12161TIP3    H136426   5.517   5.755   5.081
12161TIP3    H236427   5.450   5.840   4.976
12162TIP3   OH236428   4.207   6.664   0.499
12162TIP3    H136429   4.243   6.605   0.433
12162TIP3    H236430   4.126   6.697   0.461
12163TIP3   OH236431   0.822   1.197   1.418
12163TIP3    H136432   0.879   1.152   1.481
12163TIP3    H236433   0.881   1.235   1.354
12164TIP3   OH236434   5.303   5.009   3.551
12164TIP3    H136435   5.268   4.920   3.550
12164TIP3    H236436   5.239   5.060   3.501
12165TIP3   OH236437   7.391   0.115   2.525
12165TIP3    H136438   7.414   0.024   2.548
12165TIP3    H236439   7.301   0.125   2.556
12166TIP3   OH236440   1.831   0.299   0.414
12166TIP3    H136441   1.884   0.372   0.448
12166TIP3    H236442   1.748   0.339   0.390
12167TIP3   OH236443   3.044   7.854   0.825
12167TIP3    H136444   3.001   7.775   0.858
12167TIP3    H236445   3.127   7.859   0.872
12168TIP3   OH236446   6.617   7.005   2.867
12168TIP3    H136447   6.589   7.056   2.944
12168TIP3    H236448   6.639   7.070   2.801
12169TIP3   OH236449   7.887   1.718   0.374
12169TIP3    H136450   7.859   1.627   0.384
12169TIP3    H236451   7.809   1.769   0.396
12170TIP3   OH236452   0.185   1.067   5.562
12170TIP3    H136453   0.191   1.133   5.493
12170TIP3    H236454   0.240   0.995   5.531
12171TIP3   OH236455   0.460   0.528   4.328
12171TIP3    H136456   0.483   0.435   4.320
12171TIP3    H236457   0.430   0.553   4.241
12172TIP3   OH236458   3.107   5.432   3.967
12172TIP3    H136459   3.039   5.364   3.964
12172TIP3    H236460   3.089   5.481   4.047
12173TIP3   OH236461   0.291   7.693   1.053
12173TIP3    H136462   0.237   7.695   1.132
12173TIP3    H236463   0.281   7.780   1.014
12174TIP3   OH236464   8.213   1.977   1.437
12174TIP3    H136465   8.232   1.974   1.343
12174TIP3    H236466   8.298   1.972   1.479
12175TIP3   OH236467   5.985   6.439   3.975
12175TIP3    H136468   6.020   6.360   3.934
12175TIP3    H236469   6.060   6.498   3.984
12176TIP3   OH236470   4.290   5.067   0.272
12176TIP3    H136471   4.228   4.996   0.254
12176TIP3    H236472   4.281   5.084   0.366
12177TIP3   OH236473   3.319   2.458   2.602
12177TIP3    H136474   3.404   2.490   2.633
12177TIP3    H236475   3.275   2.425   2.680
12178TIP3   OH236476   6.783   5.511  -0.019
12178TIP3    H136477   6.779   5.433   0.036
12178TIP3    H236478   6.691   5.532  -0.038
12179TIP3   OH236479   4.729   2.424   4.502
12179TIP3    H136480   4.784   2.478   4.445
12179TIP3    H236481   4.644   2.420   4.457
12180TIP3   OH236482   0.683   5.502   4.261
12180TIP3    H136483   0.694   5.592   4.291
12180TIP3    H236484   0.772   5.467   4.256
12181TIP3   OH236485   0.622   1.843   4.247
12181TIP3    H136486   0.645   1.935   4.253
12181TIP3    H236487   0.645   1.818   4.158
12182TIP3   OH236488   0.023   3.065   1.884
12182TIP3    H136489   0.021   2.970   1.879
12182TIP3    H236490   0.014   3.094   1.793
12183TIP3   OH236491   6.790   4.203   1.546
12183TIP3    H136492   6.810   4.222   1.637
12183TIP3    H236493   6.701   4.235   1.533
12184TIP3   OH236494   0.131   1.999   3.625
12184TIP3    H136495   0.184   2.059   3.678
12184TIP3    H236496   0.193   1.954   3.569
12185TIP3   OH236497   8.197   6.230   0.952
12185TIP3    H136498   8.127   6.164   0.955
12185TIP3    H236499   8.175   6.285   0.876
12186TIP3   OH236500   2.602   6.292   6.649
12186TIP3    H136501   2.570   6.236   6.579
12186TIP3    H236502   2.523   6.321   6.695
12187TIP3   OH236503   3.561   5.606   4.266
12187TIP3    H136504   3.495   5.544   4.296
12187TIP3    H236505   3.540   5.688   4.312
12188TIP3   OH236506   0.467   0.498   0.549
12188TIP3    H136507   0.485   0.480   0.641
12188TIP3    H236508   0.377   0.470   0.536
12189TIP3   OH236509   0.202   0.766   4.203
12189TIP3    H136510   0.196   0.850   4.157
12189TIP3    H236511   0.121   0.721   4.180
12190TIP3   OH236512   7.526   2.626   3.195
12190TIP3    H136513   7.499   2.639   3.286
12190TIP3    H236514   7.614   2.663   3.191
12191TIP3   OH236515   7.005   1.960   4.527
12191TIP3    H136516   7.034   1.928   4.442
12191TIP3    H236517   7.073   2.021   4.555
12192TIP3   OH236518   4.959   4.948   3.486
12192TIP3    H136519   4.876   4.903   3.501
12192TIP3    H236520   5.026   4.885   3.513
12193TIP3   OH236521   4.609   4.313   5.160
12193TIP3    H136522   4.691   4.357   5.186
12193TIP3    H236523   4.637   4.240   5.106
12194TIP3   OH236524   2.817   0.198   3.125
12194TIP3    H136525   2.802   0.109   3.094
12194TIP3    H236526   2.851   0.245   3.049
12195TIP3   OH236527   2.540   0.872   4.784
12195TIP3    H136528   2.630   0.891   4.811
12195TIP3    H236529   2.548   0.798   4.724
12196TIP3   OH236530   1.288   4.471   1.623
12196TIP3    H136531   1.351   4.501   1.689
12196TIP3    H236532   1.214   4.438   1.674
12197TIP3   OH236533   6.873   0.841   0.242
12197TIP3    H136534   6.829   0.910   0.292
12197TIP3    H236535   6.812   0.820   0.172
12198TIP3   OH236536   4.978   5.893   4.146
12198TIP3    H136537   4.922   5.934   4.211
12198TIP3    H236538   5.066   5.894   4.185
12199TIP3   OH236539   0.688   6.125   0.916
12199TIP3    H136540   0.600   6.158   0.898
12199TIP3    H236541   0.746   6.183   0.866
12200TIP3   OH236542   0.379   6.758   6.728
12200TIP3    H136543   0.430   6.836   6.745
12200TIP3    H236544   0.393   6.738   6.635
12201TIP3   OH236545   5.535   1.781   3.508
12201TIP3    H136546   5.492   1.741   3.584
12201TIP3    H236547   5.565   1.706   3.456
12202TIP3   OH236548   8.187   6.631   3.901
12202TIP3    H136549   8.155   6.649   3.989
12202TIP3    H236550   8.204   6.537   3.901
12203TIP3   OH236551   4.321   3.351   4.268
12203TIP3    H136552   4.379   3.367   4.194
12203TIP3    H236553   4.362   3.279   4.316
12204TIP3   OH236554   0.335   3.241   0.937
12204TIP3    H136555   0.262   3.208   0.885
12204TIP3    H236556   0.378   3.163   0.971
12205TIP3   OH236557   5.415   1.184   5.590
12205TIP3    H136558   5.402   1.222   5.677
12205TIP3    H236559   5.497   1.222   5.559
12206TIP3   OH236560   6.528   1.587   6.113
12206TIP3    H136561   6.486   1.639   6.044
12206TIP3    H236562   6.488   1.619   6.194
12207TIP3   OH236563   4.307   7.572   3.206
12207TIP3    H136564   4.337   7.485   3.233
12207TIP3    H236565   4.274   7.559   3.117
12208TIP3   OH236566   5.500   0.340   4.406
12208TIP3    H136567   5.492   0.409   4.473
12208TIP3    H236568   5.582   0.361   4.361
12209TIP3   OH236569   0.744   6.284   3.833
12209TIP3    H136570   0.668   6.313   3.783
12209TIP3    H236571   0.797   6.235   3.770
12210TIP3   OH236572   2.314   0.235   1.823
12210TIP3    H136573   2.342   0.192   1.903
12210TIP3    H236574   2.298   0.164   1.761
12211TIP3   OH236575   2.257   2.059   1.469
12211TIP3    H136576   2.293   1.987   1.519
12211TIP3    H236577   2.323   2.076   1.401
12212TIP3   OH236578   0.192   0.718   5.649
12212TIP3    H136579   0.104   0.707   5.685
12212TIP3    H236580   0.241   0.763   5.718
12213TIP3   OH236581   3.680   1.281   5.701
12213TIP3    H136582   3.620   1.219   5.741
12213TIP3    H236583   3.767   1.244   5.717
12214TIP3   OH236584   0.024   7.196   3.568
12214TIP3    H136585   0.095   7.185   3.506
12214TIP3    H236586  -0.046   7.239   3.518
12215TIP3   OH236587   1.466   0.082   4.132
12215TIP3    H136588   1.414   0.123   4.201
12215TIP3    H236589   1.556   0.105   4.154
12216TIP3   OH236590   0.945   7.764   2.548
12216TIP3    H136591   0.935   7.836   2.610
12216TIP3    H236592   0.924   7.686   2.600
12217TIP3   OH236593   7.241   5.929   3.370
12217TIP3    H136594   7.276   6.010   3.332
12217TIP3    H236595   7.213   5.955   3.458
12218TIP3   OH236596   6.436   2.725   3.342
12218TIP3    H136597   6.487   2.684   3.411
12218TIP3    H236598   6.390   2.797   3.386
12219TIP3   OH236599   3.808   4.655   6.613
12219TIP3    H136600   3.891   4.692   6.645
12219TIP3    H236601   3.832   4.569   6.579
12220TIP3   OH236602   4.323   7.697   0.063
12220TIP3    H136603   4.399   7.639   0.061
12220TIP3    H236604   4.300   7.704   0.156
12221TIP3   OH236605   2.241   1.891   0.516
12221TIP3    H136606   2.245   1.840   0.436
12221TIP3    H236607   2.279   1.976   0.493
12222TIP3   OH236608   2.888   5.746   1.350
12222TIP3    H136609   2.932   5.661   1.340
12222TIP3    H236610   2.960   5.809   1.359
12223TIP3   OH236611   0.709   7.580   2.597
12223TIP3    H136612   0.615   7.594   2.601
12223TIP3    H236613   0.734   7.604   2.508
12224TIP3   OH236614   0.162   0.596   5.209
12224TIP3    H136615   0.211   0.678   5.211
12224TIP3    H236616   0.187   0.555   5.126
12225TIP3   OH236617   0.224   1.621   2.466
12225TIP3    H136618   0.218   1.640   2.559
12225TIP3    H236619   0.133   1.616   2.436
12226TIP3   OH236620   1.645   3.133   5.961
12226TIP3    H136621   1.623   3.157   6.051
12226TIP3    H236622   1.591   3.057   5.942
12227TIP3   OH236623   7.483   6.862   5.243
12227TIP3    H136624   7.405   6.881   5.295
12227TIP3    H236625   7.519   6.782   5.280
12228TIP3   OH236626   1.985   4.103   5.237
12228TIP3    H136627   1.899   4.069   5.215
12228TIP3    H236628   2.042   4.026   5.235
12229TIP3   OH236629   5.647   4.014   4.228
12229TIP3    H136630   5.690   3.959   4.162
12229TIP3    H236631   5.583   3.956   4.269
12230TIP3   OH236632   8.011   6.356   0.781
12230TIP3    H136633   7.952   6.292   0.821
12230TIP3    H236634   7.953   6.425   0.749
12231TIP3   OH236635   7.957   5.220   6.651
12231TIP3    H136636   7.870   5.209   6.612
12231TIP3    H236637   7.991   5.131   6.656
12232TIP3   OH236638   5.281   1.725   5.376
12232TIP3    H136639   5.321   1.683   5.452
12232TIP3    H236640   5.354   1.768   5.331
12233TIP3   OH236641   4.223   1.763   0.966
12233TIP3    H136642   4.257   1.693   1.022
12233TIP3    H236643   4.293   1.779   0.903
12234TIP3   OH236644   2.849   5.632   2.749
12234TIP3    H136645   2.762   5.668   2.734
12234TIP3    H236646   2.889   5.691   2.813
12235TIP3   OH236647   6.962   3.782   3.613
12235TIP3    H136648   6.995   3.784   3.702
12235TIP3    H236649   7.010   3.711   3.571
12236TIP3   OH236650   8.270   6.080   3.858
12236TIP3    H136651   8.234   6.113   3.775
12236TIP3    H236652   8.204   6.019   3.890
12237TIP3   OH236653   2.779   0.745   5.877
12237TIP3    H136654   2.787   0.768   5.970
12237TIP3    H236655   2.712   0.805   5.844
12238TIP3   OH236656   3.229   1.486   5.176
12238TIP3    H136657   3.192   1.550   5.115
12238TIP3    H236658   3.255   1.538   5.252
12239TIP3   OH236659   6.075   3.029   0.086
12239TIP3    H136660   6.155   3.027   0.139
12239TIP3    H236661   6.015   3.084   0.135
12240TIP3   OH236662   7.628   1.732   5.194
12240TIP3    H136663   7.636   1.677   5.116
12240TIP3    H236664   7.701   1.794   5.187
12241TIP3   OH236665   3.243   5.669   4.634
12241TIP3    H136666   3.203   5.652   4.720
12241TIP3    H236667   3.223   5.591   4.583
12242TIP3   OH236668   5.990   2.677   6.253
12242TIP3    H136669   6.029   2.746   6.308
12242TIP3    H236670   6.006   2.596   6.302
12243TIP3   OH236671   0.303   0.389   4.541
12243TIP3    H136672   0.291   0.434   4.458
12243TIP3    H236673   0.236   0.322   4.543
12244TIP3   OH236674   7.665   4.451   6.681
12244TIP3    H136675   7.686   4.419   6.594
12244TIP3    H236676   7.578   4.488   6.673
12245TIP3   OH236677   0.574   4.752   4.900
12245TIP3    H136678   0.522   4.776   4.823
12245TIP3    H236679   0.569   4.657   4.904
12246TIP3   OH236680   1.175   4.531   6.054
12246TIP3    H136681   1.250   4.526   6.112
12246TIP3    H236682   1.185   4.613   6.007
12247TIP3   OH236683   4.955   5.637   1.493
12247TIP3    H136684   4.898   5.696   1.443
12247TIP3    H236685   5.042   5.674   1.483
12248TIP3   OH236686   7.671   5.847   3.559
12248TIP3    H136687   7.755   5.803   3.547
12248TIP3    H236688   7.633   5.805   3.636
12249TIP3   OH236689   0.499   0.573   0.194
12249TIP3    H136690   0.404   0.576   0.181
12249TIP3    H236691   0.510   0.522   0.274
12250TIP3   OH236692   3.215   7.318   3.627
12250TIP3    H136693   3.231   7.399   3.675
12250TIP3    H236694   3.127   7.292   3.654
12251TIP3   OH236695   0.019   5.879   5.176
12251TIP3    H136696  -0.044   5.856   5.108
12251TIP3    H236697   0.082   5.806   5.176
12252TIP3   OH236698   1.575   2.327   5.888
12252TIP3    H136699   1.543   2.249   5.933
12252TIP3    H236700   1.517   2.397   5.918
12253TIP3   OH236701   6.642   1.714   3.366
12253TIP3    H136702   6.684   1.789   3.324
12253TIP3    H236703   6.693   1.638   3.338
12254TIP3   OH236704   2.043   1.309   5.859
12254TIP3    H136705   2.112   1.319   5.794
12254TIP3    H236706   2.024   1.398   5.888
12255TIP3   OH236707   1.584   2.036   4.711
12255TIP3    H136708   1.641   2.019   4.786
12255TIP3    H236709   1.626   2.108   4.665
12256TIP3   OH236710   7.700   7.541   0.937
12256TIP3    H136711   7.742   7.470   0.986
12256TIP3    H236712   7.681   7.608   1.003
12257TIP3   OH236713   6.544   3.179   0.551
12257TIP3    H136714   6.538   3.169   0.456
12257TIP3    H236715   6.545   3.090   0.585
12258TIP3   OH236716   4.429   2.975   0.490
12258TIP3    H136717   4.366   3.029   0.443
12258TIP3    H236718   4.511   3.024   0.487
12259TIP3   OH236719   3.189   6.227   0.725
12259TIP3    H136720   3.176   6.318   0.751
12259TIP3    H236721   3.274   6.203   0.763
12260TIP3   OH236722   5.517   3.077   3.749
12260TIP3    H136723   5.511   3.008   3.682
12260TIP3    H236724   5.535   3.157   3.699
12261TIP3   OH236725   0.088   4.373   5.744
12261TIP3    H136726   0.101   4.446   5.805
12261TIP3    H236727   0.006   4.333   5.771
12262TIP3   OH236728   3.697   0.385   0.272
12262TIP3    H136729   3.648   0.431   0.339
12262TIP3    H236730   3.765   0.338   0.320
12263TIP3   OH236731   3.896   2.014   4.305
12263TIP3    H136732   3.801   2.010   4.293
12263TIP3    H236733   3.931   2.027   4.217
12264TIP3   OH236734   6.978   0.095   0.450
12264TIP3    H136735   7.057   0.087   0.503
12264TIP3    H236736   6.915   0.140   0.507
12265TIP3   OH236737   6.204   1.658   6.039
12265TIP3    H136738   6.266   1.724   6.007
12265TIP3    H236739   6.188   1.602   5.964
12266TIP3   OH236740   5.866   6.611   6.413
12266TIP3    H136741   5.835   6.522   6.399
12266TIP3    H236742   5.819   6.640   6.492
12267TIP3   OH236743   8.045   0.237   5.687
12267TIP3    H136744   7.981   0.304   5.662
12267TIP3    H236745   8.089   0.274   5.763
12268TIP3   OH236746   2.850   1.273   2.956
12268TIP3    H136747   2.851   1.344   2.892
12268TIP3    H236748   2.941   1.242   2.960
12269TIP3   OH236749   0.876   2.228   0.396
12269TIP3    H136750   0.938   2.260   0.461
12269TIP3    H236751   0.821   2.165   0.444
12270TIP3   OH236752   7.170   2.783   6.580
12270TIP3    H136753   7.168   2.689   6.600
12270TIP3    H236754   7.078   2.809   6.580
12271TIP3   OH236755   2.586   3.900   4.997
12271TIP3    H136756   2.600   3.965   4.928
12271TIP3    H236757   2.640   3.931   5.070
12272TIP3   OH236758   3.823   1.194   3.287
12272TIP3    H136759   3.904   1.245   3.291
12272TIP3    H236760   3.814   1.157   3.375
12273TIP3   OH236761   3.568   5.792   1.093
12273TIP3    H136762   3.629   5.811   1.163
12273TIP3    H236763   3.562   5.696   1.092
12274TIP3   OH236764   6.728   2.220   0.482
12274TIP3    H136765   6.689   2.302   0.452
12274TIP3    H236766   6.669   2.152   0.448
12275TIP3   OH236767   6.759   1.888   6.002
12275TIP3    H136768   6.686   1.923   6.052
12275TIP3    H236769   6.764   1.944   5.924
12276TIP3   OH236770   4.577   6.353   4.641
12276TIP3    H136771   4.659   6.353   4.591
12276TIP3    H236772   4.573   6.265   4.679
12277TIP3   OH236773   5.900   1.194   5.772
12277TIP3    H136774   5.882   1.208   5.865
12277TIP3    H236775   5.968   1.126   5.771
12278TIP3   OH236776   5.901   2.398   4.838
12278TIP3    H136777   5.993   2.406   4.815
12278TIP3    H236778   5.880   2.306   4.823
12279TIP3   OH236779   3.171   7.593   5.527
12279TIP3    H136780   3.109   7.652   5.485
12279TIP3    H236781   3.116   7.531   5.576
12280TIP3   OH236782   1.832   5.553   2.013
12280TIP3    H136783   1.900   5.499   2.053
12280TIP3    H236784   1.815   5.622   2.077
12281TIP3   OH236785   3.302   6.855   1.144
12281TIP3    H136786   3.296   6.773   1.194
12281TIP3    H236787   3.396   6.872   1.137
12282TIP3   OH236788   3.917   0.602   4.885
12282TIP3    H136789   3.964   0.618   4.966
12282TIP3    H236790   3.962   0.654   4.819
12283TIP3   OH236791   0.480   7.624   5.804
12283TIP3    H136792   0.471   7.549   5.863
12283TIP3    H236793   0.438   7.696   5.851
12284TIP3   OH236794   4.408   5.871   6.532
12284TIP3    H136795   4.333   5.928   6.548
12284TIP3    H236796   4.383   5.787   6.569
12285TIP3   OH236797   1.152   5.718   2.423
12285TIP3    H136798   1.224   5.685   2.478
12285TIP3    H236799   1.160   5.814   2.429
12286TIP3   OH236800   6.403   6.559   4.328
12286TIP3    H136801   6.397   6.498   4.403
12286TIP3    H236802   6.428   6.642   4.367
12287TIP3   OH236803   2.573   7.713   3.224
12287TIP3    H136804   2.507   7.760   3.276
12287TIP3    H236805   2.522   7.657   3.165
12288TIP3   OH236806   2.101   2.061   5.337
12288TIP3    H136807   2.111   1.966   5.346
12288TIP3    H236808   2.165   2.098   5.397
12289TIP3   OH236809   4.139   0.126   1.520
12289TIP3    H136810   4.211   0.183   1.546
12289TIP3    H236811   4.074   0.136   1.589
12290TIP3   OH236812   1.056   7.333   2.325
12290TIP3    H136813   1.135   7.284   2.349
12290TIP3    H236814   0.984   7.286   2.367
12291TIP3   OH236815   0.492   1.836   4.867
12291TIP3    H136816   0.577   1.880   4.876
12291TIP3    H236817   0.503   1.754   4.915
12292TIP3   OH236818   2.802   0.445   3.585
12292TIP3    H136819   2.855   0.513   3.628
12292TIP3    H236820   2.856   0.367   3.589
12293TIP3   OH236821   2.496   1.086   3.738
12293TIP3    H136822   2.555   1.153   3.702
12293TIP3    H236823   2.440   1.133   3.799
12294TIP3   OH236824   2.861   3.953   5.163
12294TIP3    H136825   2.802   3.911   5.226
12294TIP3    H236826   2.935   3.983   5.216
12295TIP3   OH236827   7.363   3.565   6.648
12295TIP3    H136828   7.331   3.608   6.569
12295TIP3    H236829   7.284   3.537   6.694
12296TIP3   OH236830   7.303   3.121   1.402
12296TIP3    H136831   7.284   3.049   1.342
12296TIP3    H236832   7.372   3.171   1.358
12297TIP3   OH236833   7.546   5.046   1.467
12297TIP3    H136834   7.611   4.982   1.438
12297TIP3    H236835   7.532   5.101   1.391
12298TIP3   OH236836   0.378   5.626   2.551
12298TIP3    H136837   0.369   5.678   2.471
12298TIP3    H236838   0.471   5.604   2.554
12299TIP3   OH236839   7.709   0.874   1.512
12299TIP3    H136840   7.672   0.903   1.596
12299TIP3    H236841   7.643   0.898   1.447
12300TIP3   OH236842   0.727   6.213   6.250
12300TIP3    H136843   0.756   6.123   6.263
12300TIP3    H236844   0.757   6.235   6.162
12301TIP3   OH236845   3.512   6.938   0.097
12301TIP3    H136846   3.532   6.851   0.132
12301TIP3    H236847   3.418   6.949   0.113
12302TIP3   OH236848   0.449   4.012   1.956
12302TIP3    H136849   0.477   4.092   1.912
12302TIP3    H236850   0.427   4.039   2.045
12303TIP3   OH236851   4.710   6.412   3.947
12303TIP3    H136852   4.652   6.475   3.990
12303TIP3    H236853   4.787   6.409   4.003
12304TIP3   OH236854   3.935   5.047   1.683
12304TIP3    H136855   4.018   5.006   1.706
12304TIP3    H236856   3.870   5.003   1.738
12305TIP3   OH236857   1.577   6.042   6.399
12305TIP3    H136858   1.605   6.130   6.376
12305TIP3    H236859   1.635   5.984   6.349
12306TIP3   OH236860   7.175   1.640   3.492
12306TIP3    H136861   7.256   1.690   3.481
12306TIP3    H236862   7.167   1.629   3.587
12307TIP3   OH236863   5.654   6.485   6.197
12307TIP3    H136864   5.709   6.410   6.216
12307TIP3    H236865   5.708   6.542   6.142
12308TIP3   OH236866   6.663   3.428   5.760
12308TIP3    H136867   6.660   3.443   5.854
12308TIP3    H236868   6.709   3.345   5.750
12309TIP3   OH236869   0.749   2.072   5.315
12309TIP3    H136870   0.827   2.089   5.263
12309TIP3    H236871   0.776   2.088   5.405
12310TIP3   OH236872   0.197   3.125   2.438
12310TIP3    H136873   0.169   3.129   2.346
12310TIP3    H236874   0.248   3.044   2.444
12311TIP3   OH236875   2.556   1.947   1.890
12311TIP3    H136876   2.612   1.878   1.854
12311TIP3    H236877   2.578   2.025   1.839
12312TIP3   OH236878   2.605   7.452   5.791
12312TIP3    H136879   2.634   7.496   5.711
12312TIP3    H236880   2.509   7.461   5.790
12313TIP3   OH236881   7.966   0.234   6.678
12313TIP3    H136882   8.025   0.288   6.626
12313TIP3    H236883   7.880   0.275   6.669
12314TIP3   OH236884   0.944   5.565   2.526
12314TIP3    H136885   0.919   5.612   2.606
12314TIP3    H236886   1.025   5.607   2.498
12315TIP3   OH236887   0.879   5.685   6.153
12315TIP3    H136888   0.870   5.646   6.240
12315TIP3    H236889   0.966   5.725   6.154
12316TIP3   OH236890   3.359   1.444   1.616
12316TIP3    H136891   3.434   1.487   1.575
12316TIP3    H236892   3.365   1.469   1.709
12317TIP3   OH236893   0.390   3.485   1.595
12317TIP3    H136894   0.465   3.536   1.625
12317TIP3    H236895   0.334   3.549   1.551
12318TIP3   OH236896   4.686   5.775   5.597
12318TIP3    H136897   4.735   5.848   5.558
12318TIP3    H236898   4.679   5.711   5.527
12319TIP3   OH236899   2.088   4.926   1.772
12319TIP3    H136900   2.077   4.831   1.775
12319TIP3    H236901   2.041   4.953   1.693
12320TIP3   OH236902   1.178   4.334   4.537
12320TIP3    H136903   1.190   4.425   4.509
12320TIP3    H236904   1.106   4.338   4.600
12321TIP3   OH236905   6.096   3.464   1.916
12321TIP3    H136906   6.046   3.389   1.948
12321TIP3    H236907   6.108   3.519   1.993
12322TIP3   OH236908   6.488   3.277   1.884
12322TIP3    H136909   6.448   3.234   1.808
12322TIP3    H236910   6.426   3.261   1.955
12323TIP3   OH236911   0.280   1.017   1.401
12323TIP3    H136912   0.220   0.948   1.372
12323TIP3    H236913   0.229   1.097   1.392
12324TIP3   OH236914   2.960   3.202   3.062
12324TIP3    H136915   2.938   3.112   3.040
12324TIP3    H236916   3.000   3.197   3.148
12325TIP3   OH236917   1.798   4.839   3.541
12325TIP3    H136918   1.827   4.918   3.586
12325TIP3    H236919   1.857   4.771   3.571
12326TIP3   OH236920   2.591   4.350   5.650
12326TIP3    H136921   2.685   4.370   5.645
12326TIP3    H236922   2.583   4.291   5.724
12327TIP3   OH236923   0.887   7.214   6.504
12327TIP3    H136924   0.931   7.252   6.580
12327TIP3    H236925   0.912   7.122   6.505
12328TIP3   OH236926   2.380   2.377   0.251
12328TIP3    H136927   2.361   2.381   0.344
12328TIP3    H236928   2.408   2.466   0.228
12329TIP3   OH236929   5.230   1.517   6.621
12329TIP3    H136930   5.265   1.448   6.678
12329TIP3    H236931   5.139   1.492   6.606
12330TIP3   OH236932   7.836   6.422   3.083
12330TIP3    H136933   7.802   6.335   3.104
12330TIP3    H236934   7.866   6.415   2.993
12331TIP3   OH236935   7.840   0.258   3.555
12331TIP3    H136936   7.912   0.299   3.603
12331TIP3    H236937   7.876   0.175   3.525
12332TIP3   OH236938   7.338   0.892   4.877
12332TIP3    H136939   7.400   0.962   4.854
12332TIP3    H236940   7.263   0.906   4.819
12333TIP3   OH236941   0.125   7.494   2.286
12333TIP3    H136942   0.106   7.554   2.357
12333TIP3    H236943   0.210   7.521   2.252
12334TIP3   OH236944   3.606   4.718   5.368
12334TIP3    H136945   3.577   4.750   5.282
12334TIP3    H236946   3.668   4.785   5.398
12335TIP3   OH236947   3.106   3.319   0.689
12335TIP3    H136948   3.131   3.256   0.756
12335TIP3    H236949   3.188   3.339   0.643
12336TIP3   OH236950   7.818   5.799   4.651
12336TIP3    H136951   7.729   5.765   4.659
12336TIP3    H236952   7.864   5.766   4.728
12337TIP3   OH236953   0.959   7.674   2.068
12337TIP3    H136954   0.916   7.712   2.145
12337TIP3    H236955   0.933   7.731   1.996
12338TIP3   OH236956   2.445   1.154   4.205
12338TIP3    H136957   2.443   1.243   4.171
12338TIP3    H236958   2.390   1.158   4.283
12339TIP3   OH236959   7.511   1.071   2.391
12339TIP3    H136960   7.572   1.127   2.343
12339TIP3    H236961   7.550   1.063   2.478
12340TIP3   OH236962   5.448   2.994   6.167
12340TIP3    H136963   5.447   2.899   6.154
12340TIP3    H236964   5.447   3.030   6.078
12341TIP3   OH236965   1.608   0.944   3.644
12341TIP3    H136966   1.632   0.932   3.736
12341TIP3    H236967   1.606   0.855   3.608
12342TIP3   OH236968   4.572   1.191   1.970
12342TIP3    H136969   4.544   1.198   1.879
12342TIP3    H236970   4.528   1.264   2.014
12343TIP3   OH236971   5.545   0.568   1.502
12343TIP3    H136972   5.474   0.565   1.566
12343TIP3    H236973   5.532   0.491   1.447
12344TIP3   OH236974   5.052   4.897   3.831
12344TIP3    H136975   5.056   4.978   3.881
12344TIP3    H236976   5.143   4.875   3.814
12345TIP3   OH236977   0.673   6.380   4.481
12345TIP3    H136978   0.640   6.297   4.446
12345TIP3    H236979   0.703   6.358   4.569
12346TIP3   OH236980   6.265   0.260   1.804
12346TIP3    H136981   6.343   0.224   1.848
12346TIP3    H236982   6.195   0.249   1.868
12347TIP3   OH236983   5.740   0.546   5.620
12347TIP3    H136984   5.650   0.545   5.652
12347TIP3    H236985   5.793   0.528   5.697
12348TIP3   OH236986   1.033   4.869   3.474
12348TIP3    H136987   1.076   4.801   3.526
12348TIP3    H236988   0.946   4.878   3.514
12349TIP3   OH236989   0.654   7.206   3.731
12349TIP3    H136990   0.742   7.241   3.713
12349TIP3    H236991   0.655   7.118   3.695
12350TIP3   OH236992   5.086   4.934   0.038
12350TIP3    H136993   4.993   4.958   0.041
12350TIP3    H236994   5.098   4.879   0.116
12351TIP3   OH236995   3.746   1.672   3.773
12351TIP3    H136996   3.799   1.594   3.760
12351TIP3    H236997   3.793   1.723   3.838
12352TIP3   OH236998   1.360   4.761   2.371
12352TIP3    H136999   1.298   4.780   2.301
12352TIP3    H237000   1.408   4.683   2.341
12353TIP3   OH237001   3.391   1.172   4.560
12353TIP3    H137002   3.475   1.129   4.543
12353TIP3    H237003   3.388   1.181   4.656
12354TIP3   OH237004   3.182   1.693   0.755
12354TIP3    H137005   3.268   1.651   0.747
12354TIP3    H237006   3.137   1.670   0.674
12355TIP3   OH237007   1.080   6.025   3.519
12355TIP3    H137008   1.109   5.967   3.589
12355TIP3    H237009   1.056   5.966   3.447
12356TIP3   OH237010   0.598   7.072   5.221
12356TIP3    H137011   0.520   7.040   5.266
12356TIP3    H237012   0.601   7.022   5.139
12357TIP3   OH237013   2.220   4.570   2.503
12357TIP3    H137014   2.222   4.477   2.477
12357TIP3    H237015   2.252   4.616   2.425
12358TIP3   OH237016   1.897   4.022   4.948
12358TIP3    H137017   1.933   4.087   4.889
12358TIP3    H237018   1.834   4.070   5.002
12359TIP3   OH237019   3.473   2.053   5.838
12359TIP3    H137020   3.546   2.081   5.783
12359TIP3    H237021   3.510   1.988   5.897
12360TIP3   OH237022   7.496   5.384   5.024
12360TIP3    H137023   7.506   5.415   4.934
12360TIP3    H237024   7.419   5.432   5.057
12361TIP3   OH237025   5.435   5.380   0.964
12361TIP3    H137026   5.521   5.386   0.922
12361TIP3    H237027   5.433   5.292   1.001
12362TIP3   OH237028   7.130   2.420   1.641
12362TIP3    H137029   7.180   2.405   1.721
12362TIP3    H237030   7.187   2.474   1.586
12363TIP3   OH237031   5.591   1.539   0.354
12363TIP3    H137032   5.590   1.626   0.316
12363TIP3    H237033   5.577   1.479   0.281
12364TIP3   OH237034   3.511   5.206   0.179
12364TIP3    H137035   3.445   5.184   0.244
12364TIP3    H237036   3.483   5.161   0.100
12365TIP3   OH237037   5.114   0.629   0.082
12365TIP3    H137038   5.160   0.546   0.091
12365TIP3    H237039   5.031   0.607   0.040
12366TIP3   OH237040   5.150   7.529   4.471
12366TIP3    H137041   5.191   7.495   4.551
12366TIP3    H237042   5.104   7.608   4.500
12367TIP3   OH237043   6.355   5.203   0.501
12367TIP3    H137044   6.272   5.158   0.490
12367TIP3    H237045   6.359   5.265   0.429
12368TIP3   OH237046   1.696   5.632   2.618
12368TIP3    H137047   1.738   5.689   2.683
12368TIP3    H237048   1.628   5.586   2.668
12369TIP3   OH237049   4.313   1.213   6.132
12369TIP3    H137050   4.296   1.169   6.049
12369TIP3    H237051   4.327   1.305   6.107
12370TIP3   OH237052   3.846   0.435   3.767
12370TIP3    H137053   3.831   0.515   3.718
12370TIP3    H237054   3.835   0.364   3.703
12371TIP3   OH237055   2.700   2.058   5.639
12371TIP3    H137056   2.720   2.041   5.731
12371TIP3    H237057   2.626   2.001   5.620
12372TIP3   OH237058   2.068   0.479   1.565
12372TIP3    H137059   1.997   0.452   1.624
12372TIP3    H237060   2.138   0.507   1.624
12373TIP3   OH237061   2.677   6.346   2.337
12373TIP3    H137062   2.769   6.361   2.357
12373TIP3    H237063   2.653   6.269   2.389
12374TIP3   OH237064   8.148   1.072   0.925
12374TIP3    H137065   8.163   1.073   1.019
12374TIP3    H237066   8.058   1.039   0.916
12375TIP3   OH237067   0.434   5.651   6.120
12375TIP3    H137068   0.510   5.631   6.066
12375TIP3    H237069   0.445   5.744   6.143
12376TIP3   OH237070   3.548   1.387   6.694
12376TIP3    H137071   3.479   1.399   6.629
12376TIP3    H237072   3.502   1.360   6.774
12377TIP3   OH237073   1.961   6.048   1.881
12377TIP3    H137074   1.943   6.121   1.940
12377TIP3    H237075   1.940   6.082   1.794
12378TIP3   OH237076   1.343   4.725   6.329
12378TIP3    H137077   1.271   4.690   6.382
12378TIP3    H237078   1.371   4.651   6.275
12379TIP3   OH237079   5.220   6.600   0.131
12379TIP3    H137080   5.235   6.687   0.093
12379TIP3    H237081   5.132   6.604   0.168
12380TIP3   OH237082   3.827   5.705   2.047
12380TIP3    H137083   3.832   5.672   1.957
12380TIP3    H237084   3.897   5.659   2.093
12381TIP3   OH237085   1.275   2.993   0.595
12381TIP3    H137086   1.237   3.051   0.661
12381TIP3    H237087   1.263   3.039   0.512
12382TIP3   OH237088   4.805   7.051   2.563
12382TIP3    H137089   4.894   7.019   2.578
12382TIP3    H237090   4.780   7.092   2.646
12383TIP3   OH237091   4.959   1.260   3.579
12383TIP3    H137092   4.976   1.320   3.506
12383TIP3    H237093   5.007   1.180   3.557
12384TIP3   OH237094   0.040   0.129   0.968
12384TIP3    H137095   0.126   0.105   1.002
12384TIP3    H237096   0.045   0.224   0.956
12385TIP3   OH237097   6.563   4.983   2.282
12385TIP3    H137098   6.649   4.967   2.322
12385TIP3    H237099   6.511   4.906   2.306
12386TIP3   OH237100   6.847   4.177   0.307
12386TIP3    H137101   6.881   4.209   0.223
12386TIP3    H237102   6.901   4.101   0.328
12387TIP3   OH237103   0.289   3.061   4.828
12387TIP3    H137104   0.270   2.985   4.773
12387TIP3    H237105   0.384   3.060   4.838
12388TIP3   OH237106   6.250   0.418   0.801
12388TIP3    H137107   6.242   0.481   0.873
12388TIP3    H237108   6.280   0.470   0.727
12389TIP3   OH237109   1.962   7.140   4.174
12389TIP3    H137110   1.952   7.132   4.269
12389TIP3    H237111   1.996   7.229   4.161
12390TIP3   OH237112   1.505   3.331   2.442
12390TIP3    H137113   1.527   3.367   2.528
12390TIP3    H237114   1.497   3.408   2.386
12391TIP3   OH237115   5.928   0.656   1.419
12391TIP3    H137116   5.845   0.691   1.451
12391TIP3    H237117   5.907   0.568   1.387
12392TIP3   OH237118   4.301   6.596   1.125
12392TIP3    H137119   4.304   6.673   1.068
12392TIP3    H237120   4.274   6.631   1.210
12393TIP3   OH237121   5.386   2.858   1.998
12393TIP3    H137122   5.472   2.899   1.992
12393TIP3    H237123   5.404   2.771   2.033
12394TIP3   OH237124   5.557   6.039   1.849
12394TIP3    H137125   5.542   6.129   1.818
12394TIP3    H237126   5.652   6.028   1.843
12395TIP3   OH237127   5.524   4.106   4.497
12395TIP3    H137128   5.512   4.199   4.515
12395TIP3    H237129   5.599   4.103   4.438
12396TIP3   OH237130   7.309   0.328   2.869
12396TIP3    H137131   7.367   0.360   2.800
12396TIP3    H237132   7.312   0.396   2.937
12397TIP3   OH237133   1.186   1.033   1.360
12397TIP3    H137134   1.106   1.010   1.406
12397TIP3    H237135   1.256   1.017   1.424
12398TIP3   OH237136   6.370   7.151   0.420
12398TIP3    H137137   6.358   7.215   0.491
12398TIP3    H237138   6.287   7.153   0.372
12399TIP3   OH237139   2.536   6.276   3.772
12399TIP3    H137140   2.480   6.307   3.843
12399TIP3    H237141   2.570   6.356   3.732
12400TIP3   OH237142   0.047   2.780   0.024
12400TIP3    H137143   0.019   2.869   0.045
12400TIP3    H237144  -0.018   2.724   0.066
12401TIP3   OH237145   2.236   5.922   1.408
12401TIP3    H137146   2.304   5.980   1.441
12401TIP3    H237147   2.220   5.952   1.319
12402TIP3   OH237148   3.058   1.591   0.540
12402TIP3    H137149   3.089   1.614   0.452
12402TIP3    H237150   2.968   1.562   0.527
12403TIP3   OH237151   6.547   4.935   1.210
12403TIP3    H137152   6.577   5.001   1.272
12403TIP3    H237153   6.593   4.955   1.129
12404TIP3   OH237154   1.399   3.883   0.495
12404TIP3    H137155   1.355   3.949   0.442
12404TIP3    H237156   1.332   3.818   0.514
12405TIP3   OH237157   4.631   2.783   3.832
12405TIP3    H137158   4.588   2.753   3.912
12405TIP3    H237159   4.601   2.874   3.822
12406TIP3   OH237160   6.936   3.022   4.472
12406TIP3    H137161   6.993   3.073   4.415
12406TIP3    H237162   6.948   2.932   4.443
12407TIP3   OH237163   3.632   0.714   1.337
12407TIP3    H137164   3.677   0.634   1.366
12407TIP3    H237165   3.673   0.784   1.388
12408TIP3   OH237166   1.436   6.765   2.382
12408TIP3    H137167   1.394   6.680   2.367
12408TIP3    H237168   1.484   6.782   2.301
12409TIP3   OH237169   2.293   7.144   4.337
12409TIP3    H137170   2.252   7.152   4.251
12409TIP3    H237171   2.355   7.216   4.341
12410TIP3   OH237172   2.977   0.117   0.797
12410TIP3    H137173   2.928   0.197   0.783
12410TIP3    H237174   3.069   0.141   0.784
12411TIP3   OH237175   1.147   5.089   5.475
12411TIP3    H137176   1.128   5.135   5.557
12411TIP3    H237177   1.241   5.070   5.480
12412TIP3   OH237178   4.827   3.643   0.919
12412TIP3    H137179   4.866   3.668   0.835
12412TIP3    H237180   4.739   3.613   0.896
12413TIP3   OH237181   5.737   5.746   0.999
12413TIP3    H137182   5.670   5.681   0.978
12413TIP3    H237183   5.796   5.701   1.060
12414TIP3   OH237184   3.243   4.764   0.646
12414TIP3    H137185   3.163   4.771   0.595
12414TIP3    H237186   3.218   4.795   0.734
12415TIP3   OH237187   2.781   0.316   0.809
12415TIP3    H137188   2.812   0.342   0.722
12415TIP3    H237189   2.731   0.392   0.839
12416TIP3   OH237190   6.865   4.179   3.508
12416TIP3    H137191   6.938   4.186   3.447
12416TIP3    H237192   6.787   4.180   3.452
12417TIP3   OH237193   4.905   3.790   4.515
12417TIP3    H137194   4.954   3.842   4.451
12417TIP3    H237195   4.825   3.765   4.469
12418TIP3   OH237196   4.708   2.197   2.272
12418TIP3    H137197   4.667   2.282   2.256
12418TIP3    H237198   4.673   2.140   2.203
12419TIP3   OH237199   0.561   1.780   0.510
12419TIP3    H137200   0.642   1.757   0.466
12419TIP3    H237201   0.507   1.701   0.505
12420TIP3   OH237202   1.116   2.844   6.565
12420TIP3    H137203   1.151   2.871   6.650
12420TIP3    H237204   1.035   2.894   6.555
12421TIP3   OH237205   6.193   2.949   1.153
12421TIP3    H137206   6.137   2.985   1.085
12421TIP3    H237207   6.213   2.860   1.123
12422TIP3   OH237208   7.533   7.763   6.550
12422TIP3    H137209   7.570   7.686   6.593
12422TIP3    H237210   7.596   7.785   6.481
12423TIP3   OH237211   2.887   4.857   3.169
12423TIP3    H137212   2.965   4.808   3.194
12423TIP3    H237213   2.915   4.949   3.172
12424TIP3   OH237214   1.686   5.952   1.764
12424TIP3    H137215   1.592   5.949   1.749
12424TIP3    H237216   1.695   5.958   1.860
12425TIP3   OH237217   6.319   1.831   4.199
12425TIP3    H137218   6.355   1.825   4.111
12425TIP3    H237219   6.292   1.922   4.208
12426TIP3   OH237220   6.285   6.427   2.014
12426TIP3    H137221   6.275   6.418   2.109
12426TIP3    H237222   6.370   6.469   2.003
12427TIP3   OH237223   6.623   7.637   2.551
12427TIP3    H137224   6.587   7.573   2.490
12427TIP3    H237225   6.642   7.586   2.630
12428TIP3   OH237226   3.965   5.019   0.970
12428TIP3    H137227   3.887   5.027   0.915
12428TIP3    H237228   3.933   4.982   1.052
12429TIP3   OH237229   0.064   2.049   2.528
12429TIP3    H137230   0.066   2.064   2.434
12429TIP3    H237231   0.128   2.111   2.563
12430TIP3   OH237232   2.723   1.274   1.674
12430TIP3    H137233   2.795   1.269   1.736
12430TIP3    H237234   2.648   1.238   1.721
12431TIP3   OH237235   1.442   1.331   2.804
12431TIP3    H137236   1.495   1.338   2.884
12431TIP3    H237237   1.499   1.284   2.743
12432TIP3   OH237238   6.815   2.047   1.794
12432TIP3    H137239   6.889   2.106   1.775
12432TIP3    H237240   6.815   1.985   1.721
12433TIP3   OH237241   5.122   6.998   1.619
12433TIP3    H137242   5.094   7.089   1.625
12433TIP3    H237243   5.044   6.950   1.592
12434TIP3   OH237244   1.370   2.285   1.523
12434TIP3    H137245   1.359   2.207   1.577
12434TIP3    H237246   1.330   2.263   1.439
12435TIP3   OH237247   6.845   3.222   6.734
12435TIP3    H137248   6.807   3.195   6.651
12435TIP3    H237249   6.919   3.162   6.747
12436TIP3   OH237250   3.129   0.637   5.483
12436TIP3    H137251   3.192   0.690   5.435
12436TIP3    H237252   3.182   0.582   5.540
12437TIP3   OH237253   3.157   6.513   4.424
12437TIP3    H137254   3.204   6.439   4.463
12437TIP3    H237255   3.199   6.590   4.462
12438TIP3   OH237256   1.896   3.306   0.705
12438TIP3    H137257   1.870   3.224   0.746
12438TIP3    H237258   1.848   3.309   0.622
12439TIP3   OH237259   3.175   3.214   0.098
12439TIP3    H137260   3.125   3.249   0.024
12439TIP3    H237261   3.193   3.123   0.074
12440TIP3   OH237262   6.537   6.244   6.217
12440TIP3    H137263   6.606   6.192   6.258
12440TIP3    H237264   6.460   6.187   6.219
12441TIP3   OH237265   7.573   5.013   4.445
12441TIP3    H137266   7.597   4.930   4.486
12441TIP3    H237267   7.656   5.046   4.409
12442TIP3   OH237268   3.727   5.281   0.329
12442TIP3    H137269   3.791   5.324   0.272
12442TIP3    H237270   3.663   5.244   0.268
12443TIP3   OH237271   2.239   7.342   3.444
12443TIP3    H137272   2.276   7.281   3.380
12443TIP3    H237273   2.295   7.419   3.439
12444TIP3   OH237274   5.458   3.706   2.509
12444TIP3    H137275   5.488   3.792   2.537
12444TIP3    H237276   5.457   3.653   2.589
12445TIP3   OH237277   5.956   7.555   5.215
12445TIP3    H137278   5.927   7.520   5.299
12445TIP3    H237279   5.992   7.480   5.168
12446TIP3   OH237280   7.615   6.177   5.236
12446TIP3    H137281   7.674   6.199   5.308
12446TIP3    H237282   7.626   6.248   5.173
12447TIP3   OH237283   4.479   5.213   1.985
12447TIP3    H137284   4.435   5.264   2.053
12447TIP3    H237285   4.449   5.251   1.902
12448TIP3   OH237286   4.864   1.822   1.848
12448TIP3    H137287   4.882   1.742   1.799
12448TIP3    H237288   4.776   1.848   1.821
12449TIP3   OH237289   0.703   7.313   5.843
12449TIP3    H137290   0.760   7.302   5.768
12449TIP3    H237291   0.747   7.377   5.899
12450TIP3   OH237292   6.402   3.194   3.821
12450TIP3    H137293   6.401   3.166   3.913
12450TIP3    H237294   6.411   3.289   3.825
12451TIP3   OH237295   4.268   4.101   0.097
12451TIP3    H137296   4.354   4.074   0.129
12451TIP3    H237297   4.211   4.027   0.118
12452TIP3   OH237298   3.616   7.367   3.860
12452TIP3    H137299   3.560   7.444   3.864
12452TIP3    H237300   3.692   7.389   3.913
12453TIP3   OH237301   7.332   5.267   3.700
12453TIP3    H137302   7.298   5.179   3.713
12453TIP3    H237303   7.405   5.275   3.762
12454TIP3   OH237304   3.571   3.170   3.501
12454TIP3    H137305   3.626   3.172   3.423
12454TIP3    H237306   3.603   3.094   3.551
12455TIP3   OH237307   2.221   3.984   3.359
12455TIP3    H137308   2.232   4.043   3.433
12455TIP3    H237309   2.299   3.928   3.362
12456TIP3   OH237310   3.002   2.847   3.659
12456TIP3    H137311   2.991   2.901   3.737
12456TIP3    H237312   2.943   2.773   3.673
12457TIP3   OH237313   0.355   3.338   6.581
12457TIP3    H137314   0.401   3.285   6.516
12457TIP3    H237315   0.290   3.278   6.619
12458TIP3   OH237316   0.603   6.893   3.665
12458TIP3    H137317   0.639   6.877   3.753
12458TIP3    H237318   0.555   6.813   3.644
12459TIP3   OH237319   8.191   0.448   1.974
12459TIP3    H137320   8.165   0.533   1.938
12459TIP3    H237321   8.224   0.400   1.898
12460TIP3   OH237322   1.629   3.799   0.626
12460TIP3    H137323   1.575   3.821   0.550
12460TIP3    H237324   1.603   3.861   0.693
12461TIP3   OH237325   0.890   7.097   0.436
12461TIP3    H137326   0.875   7.125   0.345
12461TIP3    H237327   0.985   7.093   0.444
12462TIP3   OH237328   0.555   2.947   4.035
12462TIP3    H137329   0.566   2.898   3.954
12462TIP3    H237330   0.498   3.021   4.012
12463TIP3   OH237331   1.499   0.120   1.464
12463TIP3    H137332   1.537   0.147   1.547
12463TIP3    H237333   1.532   0.183   1.400
12464TIP3   OH237334   0.857   2.018   1.960
12464TIP3    H137335   0.787   1.985   2.017
12464TIP3    H237336   0.816   2.089   1.911
12465TIP3   OH237337   3.225   1.570   5.974
12465TIP3    H137338   3.180   1.649   6.003
12465TIP3    H237339   3.167   1.534   5.906
12466TIP3   OH237340   5.666   2.761   3.724
12466TIP3    H137341   5.660   2.704   3.801
12466TIP3    H237342   5.613   2.717   3.657
12467TIP3   OH237343   7.247   4.785   2.599
12467TIP3    H137344   7.294   4.842   2.539
12467TIP3    H237345   7.312   4.760   2.665
12468TIP3   OH237346   1.536   5.942   3.200
12468TIP3    H137347   1.496   5.931   3.287
12468TIP3    H237348   1.506   6.028   3.170
12469TIP3   OH237349   5.499   4.312   1.834
12469TIP3    H137350   5.463   4.401   1.835
12469TIP3    H237351   5.456   4.270   1.759
12470TIP3   OH237352   6.388   3.938   3.946
12470TIP3    H137353   6.353   3.905   3.864
12470TIP3    H237354   6.481   3.956   3.928
12471TIP3   OH237355   0.654   5.056   4.647
12471TIP3    H137356   0.743   5.084   4.623
12471TIP3    H237357   0.606   5.138   4.657
12472TIP3   OH237358   4.958   7.825   4.838
12472TIP3    H137359   5.040   7.820   4.886
12472TIP3    H237360   4.896   7.775   4.890
12473TIP3   OH237361   2.833   4.949   1.223
12473TIP3    H137362   2.891   4.944   1.299
12473TIP3    H237363   2.890   4.980   1.153
12474TIP3   OH237364   4.690   6.817   4.627
12474TIP3    H137365   4.684   6.818   4.532
12474TIP3    H237366   4.747   6.742   4.647
12475TIP3   OH237367   3.460   4.103   6.033
12475TIP3    H137368   3.508   4.179   6.067
12475TIP3    H237369   3.393   4.140   5.976
12476TIP3   OH237370   2.448   2.113   6.334
12476TIP3    H137371   2.361   2.094   6.368
12476TIP3    H237372   2.459   2.051   6.262
12477TIP3   OH237373   4.014   3.177   4.827
12477TIP3    H137374   3.979   3.220   4.749
12477TIP3    H237375   4.097   3.222   4.844
12478TIP3   OH237376   5.117   1.436   0.888
12478TIP3    H137377   5.204   1.433   0.849
12478TIP3    H237378   5.128   1.392   0.973
12479TIP3   OH237379   0.599   0.790   1.231
12479TIP3    H137380   0.529   0.793   1.167
12479TIP3    H237381   0.589   0.705   1.273
12480TIP3   OH237382   3.375   0.394   1.632
12480TIP3    H137383   3.299   0.336   1.642
12480TIP3    H237384   3.430   0.374   1.707
12481TIP3   OH237385   5.197   5.148   5.829
12481TIP3    H137386   5.136   5.088   5.787
12481TIP3    H237387   5.186   5.230   5.781
12482TIP3   OH237388   2.383   2.916   3.815
12482TIP3    H137389   2.455   2.976   3.831
12482TIP3    H237390   2.419   2.829   3.833
12483TIP3   OH237391   8.143   7.532   5.879
12483TIP3    H137392   8.218   7.475   5.865
12483TIP3    H237393   8.072   7.474   5.904
12484TIP3   OH237394   7.902   3.577   2.261
12484TIP3    H137395   7.856   3.641   2.316
12484TIP3    H237396   7.948   3.521   2.324
12485TIP3   OH237397   1.793   5.161   6.633
12485TIP3    H137398   1.705   5.138   6.603
12485TIP3    H237399   1.821   5.086   6.684
12486TIP3   OH237400   1.491   7.092   1.925
12486TIP3    H137401   1.410   7.080   1.974
12486TIP3    H237402   1.544   7.015   1.946
12487TIP3   OH237403   5.407   4.013   5.161
12487TIP3    H137404   5.317   4.018   5.195
12487TIP3    H237405   5.397   4.025   5.067
12488TIP3   OH237406   2.649   2.857   3.609
12488TIP3    H137407   2.722   2.794   3.605
12488TIP3    H237408   2.672   2.914   3.683
12489TIP3   OH237409   0.858   0.707   5.492
12489TIP3    H137410   0.817   0.650   5.427
12489TIP3    H237411   0.951   0.704   5.470
12490TIP3   OH237412   4.404   1.800   2.826
12490TIP3    H137413   4.432   1.810   2.917
12490TIP3    H237414   4.464   1.855   2.776
12491TIP3   OH237415   7.858   4.110   6.659
12491TIP3    H137416   7.918   4.075   6.725
12491TIP3    H237417   7.845   4.037   6.598
12492TIP3   OH237418   1.215   3.861   5.031
12492TIP3    H137419   1.198   3.836   4.940
12492TIP3    H237420   1.289   3.806   5.057
12493TIP3   OH237421   4.717   1.235   1.530
12493TIP3    H137422   4.640   1.219   1.585
12493TIP3    H237423   4.763   1.151   1.528
12494TIP3   OH237424   1.658   6.474   3.273
12494TIP3    H137425   1.647   6.520   3.190
12494TIP3    H237426   1.642   6.541   3.340
12495TIP3   OH237427   8.151   0.381   6.518
12495TIP3    H137428   8.208   0.442   6.564
12495TIP3    H237429   8.082   0.436   6.480
12496TIP3   OH237430   6.017   7.738   3.974
12496TIP3    H137431   6.062   7.653   3.965
12496TIP3    H237432   5.927   7.719   3.949
12497TIP3   OH237433   1.146   4.743   3.910
12497TIP3    H137434   1.118   4.747   4.002
12497TIP3    H237435   1.236   4.710   3.914
12498TIP3   OH237436   7.575   6.106   5.556
12498TIP3    H137437   7.513   6.177   5.542
12498TIP3    H237438   7.645   6.122   5.493
12499TIP3   OH237439   8.073   5.471   1.408
12499TIP3    H137440   7.983   5.502   1.412
12499TIP3    H237441   8.112   5.499   1.491
12500TIP3   OH237442   1.158   0.527   1.890
12500TIP3    H137443   1.100   0.597   1.860
12500TIP3    H237444   1.106   0.448   1.884
12501TIP3   OH237445   0.901   2.076   1.586
12501TIP3    H137446   0.919   2.120   1.669
12501TIP3    H237447   0.876   2.147   1.526
12502TIP3   OH237448   4.083   4.711   1.974
12502TIP3    H137449   4.112   4.645   1.911
12502TIP3    H237450   3.988   4.716   1.961
12503TIP3   OH237451   4.888   0.491   3.839
12503TIP3    H137452   4.935   0.530   3.765
12503TIP3    H237453   4.886   0.560   3.905
12504TIP3   OH237454   0.457   3.208   2.809
12504TIP3    H137455   0.499   3.212   2.722
12504TIP3    H237456   0.464   3.116   2.834
12505TIP3   OH237457   8.204   6.249   6.376
12505TIP3    H137458   8.216   6.279   6.466
12505TIP3    H237459   8.206   6.329   6.324
12506TIP3   OH237460   1.400  -0.043   4.693
12506TIP3    H137461   1.341  -0.082   4.629
12506TIP3    H237462   1.342  -0.005   4.759
12507TIP3   OH237463   6.870   2.360   5.881
12507TIP3    H137464   6.846   2.370   5.973
12507TIP3    H237465   6.865   2.449   5.846
12508TIP3   OH237466   2.190   1.412   5.118
12508TIP3    H137467   2.233   1.484   5.071
12508TIP3    H237468   2.249   1.392   5.190
12509TIP3   OH237469   4.115   4.526   0.578
12509TIP3    H137470   4.126   4.583   0.502
12509TIP3    H237471   4.079   4.582   0.646
12510TIP3   OH237472   8.230   5.612   4.497
12510TIP3    H137473   8.241   5.635   4.405
12510TIP3    H237474   8.288   5.670   4.545
12511TIP3   OH237475   3.723   5.950   2.489
12511TIP3    H137476   3.745   6.005   2.414
12511TIP3    H237477   3.700   5.866   2.450
12512TIP3   OH237478   2.840   5.620   0.835
12512TIP3    H137479   2.760   5.569   0.820
12512TIP3    H237480   2.835   5.647   0.927
12513TIP3   OH237481   3.762   1.692   1.383
12513TIP3    H137482   3.771   1.709   1.290
12513TIP3    H237483   3.807   1.765   1.426
12514TIP3   OH237484   7.227   0.132   0.588
12514TIP3    H137485   7.199   0.128   0.679
12514TIP3    H237486   7.321   0.149   0.592
12515TIP3   OH237487   2.993   3.708   2.251
12515TIP3    H137488   3.073   3.655   2.246
12515TIP3    H237489   2.946   3.688   2.170
12516TIP3   OH237490   0.323   0.621   4.710
12516TIP3    H137491   0.242   0.672   4.717
12516TIP3    H237492   0.306   0.557   4.640
12517TIP3   OH237493   7.812   4.582   6.365
12517TIP3    H137494   7.733   4.597   6.314
12517TIP3    H237495   7.870   4.535   6.306
12518TIP3   OH237496   1.344   3.329   3.544
12518TIP3    H137497   1.274   3.359   3.602
12518TIP3    H237498   1.309   3.340   3.456
12519TIP3   OH237499   3.748   3.133   5.326
12519TIP3    H137500   3.679   3.199   5.338
12519TIP3    H237501   3.702   3.058   5.289
12520TIP3   OH237502   6.284   1.462   5.788
12520TIP3    H137503   6.315   1.545   5.753
12520TIP3    H237504   6.209   1.438   5.733
12521TIP3   OH237505   2.077   5.407   4.867
12521TIP3    H137506   2.146   5.470   4.884
12521TIP3    H237507   2.103   5.364   4.785
12522TIP3   OH237508   6.423   4.125   6.616
12522TIP3    H137509   6.465   4.185   6.554
12522TIP3    H237510   6.378   4.182   6.678
12523TIP3   OH237511   4.511   6.184   5.036
12523TIP3    H137512   4.420   6.163   5.056
12523TIP3    H237513   4.509   6.277   5.014
12524TIP3   OH237514   6.212   5.537   3.552
12524TIP3    H137515   6.201   5.612   3.493
12524TIP3    H237516   6.305   5.515   3.545
12525TIP3   OH237517   6.764   5.653   2.925
12525TIP3    H137518   6.719   5.719   2.873
12525TIP3    H237519   6.713   5.645   3.005
12526TIP3   OH237520   2.096   3.624   0.972
12526TIP3    H137521   2.106   3.718   0.962
12526TIP3    H237522   2.105   3.608   1.066
12527TIP3   OH237523   5.252   2.488   4.143
12527TIP3    H137524   5.342   2.458   4.135
12527TIP3    H237525   5.199   2.408   4.146
12528TIP3   OH237526   4.190   7.447   1.368
12528TIP3    H137527   4.257   7.515   1.371
12528TIP3    H237528   4.117   7.488   1.321
12529TIP3   OH237529   3.270   6.485   3.294
12529TIP3    H137530   3.291   6.415   3.232
12529TIP3    H237531   3.296   6.565   3.248
12530TIP3   OH237532   2.862   5.392   5.580
12530TIP3    H137533   2.822   5.447   5.512
12530TIP3    H237534   2.858   5.303   5.544
12531TIP3   OH237535   4.883   7.500   6.655
12531TIP3    H137536   4.916   7.533   6.739
12531TIP3    H237537   4.827   7.570   6.622
12532TIP3   OH237538   7.909   2.116   5.350
12532TIP3    H137539   7.846   2.188   5.355
12532TIP3    H237540   7.991   2.153   5.381
12533TIP3   OH237541   3.119   2.827   4.464
12533TIP3    H137542   3.152   2.827   4.554
12533TIP3    H237543   3.073   2.744   4.456
12534TIP3   OH237544   7.240   5.821   1.832
12534TIP3    H137545   7.174   5.758   1.863
12534TIP3    H237546   7.222   5.901   1.882
12535TIP3   OH237547   3.924   2.993   3.478
12535TIP3    H137548   3.945   2.907   3.442
12535TIP3    H237549   3.895   2.975   3.568
12536TIP3   OH237550   4.605   4.398   5.729
12536TIP3    H137551   4.683   4.359   5.768
12536TIP3    H237552   4.616   4.384   5.635
12537TIP3   OH237553   4.400   3.883   2.838
12537TIP3    H137554   4.349   3.816   2.792
12537TIP3    H237555   4.427   3.943   2.769
12538TIP3   OH237556   6.444   6.994   3.698
12538TIP3    H137557   6.413   7.075   3.737
12538TIP3    H237558   6.459   6.935   3.772
12539TIP3   OH237559   4.211   5.074   1.837
12539TIP3    H137560   4.228   4.988   1.797
12539TIP3    H237561   4.245   5.065   1.926
12540TIP3   OH237562   5.513   1.757   5.186
12540TIP3    H137563   5.478   1.843   5.162
12540TIP3    H237564   5.482   1.698   5.117
12541TIP3   OH237565   1.607   5.216   0.980
12541TIP3    H137566   1.691   5.191   1.019
12541TIP3    H237567   1.541   5.171   1.033
12542TIP3   OH237568   4.365   0.223   4.689
12542TIP3    H137569   4.390   0.180   4.771
12542TIP3    H237570   4.270   0.213   4.683
12543TIP3   OH237571   2.555   7.045   4.651
12543TIP3    H137572   2.617   7.116   4.662
12543TIP3    H237573   2.599   6.968   4.687
12544TIP3   OH237574   3.943   0.368   2.701
12544TIP3    H137575   3.912   0.284   2.665
12544TIP3    H237576   4.020   0.345   2.753
12545TIP3   OH237577   1.099   6.526   2.860
12545TIP3    H137578   1.042   6.470   2.808
12545TIP3    H237579   1.137   6.587   2.797
12546TIP3   OH237580   8.280   0.980   5.917
12546TIP3    H137581   8.306   1.072   5.929
12546TIP3    H237582   8.295   0.963   5.824
12547TIP3   OH237583   1.646   6.787   3.540
12547TIP3    H137584   1.566   6.741   3.514
12547TIP3    H237585   1.644   6.788   3.635
12548TIP3   OH237586   0.272   6.388   6.649
12548TIP3    H137587   0.286   6.406   6.556
12548TIP3    H237588   0.348   6.335   6.675
12549TIP3   OH237589   2.067   3.556   3.297
12549TIP3    H137590   2.037   3.481   3.245
12549TIP3    H237591   1.987   3.607   3.314
12550TIP3   OH237592   7.555   7.088   4.679
12550TIP3    H137593   7.605   7.153   4.629
12550TIP3    H237594   7.510   7.140   4.746
12551TIP3   OH237595   4.370   0.839   1.802
12551TIP3    H137596   4.295   0.782   1.819
12551TIP3    H237597   4.333   0.913   1.755
12552TIP3   OH237598   7.763   0.336   3.014
12552TIP3    H137599   7.730   0.412   2.965
12552TIP3    H237600   7.752   0.263   2.954
12553TIP3   OH237601   4.336   5.172   5.121
12553TIP3    H137602   4.280   5.184   5.044
12553TIP3    H237603   4.322   5.250   5.174
12554TIP3   OH237604   6.656   1.867   3.588
12554TIP3    H137605   6.629   1.947   3.542
12554TIP3    H237606   6.665   1.801   3.519
12555TIP3   OH237607   0.094   5.864   0.214
12555TIP3    H137608   0.185   5.836   0.201
12555TIP3    H237609   0.048   5.836   0.135
12556TIP3   OH237610   5.372   6.916   0.564
12556TIP3    H137611   5.317   6.992   0.581
12556TIP3    H237612   5.410   6.894   0.649
12557TIP3   OH237613   2.821   2.768   1.691
12557TIP3    H137614   2.770   2.848   1.677
12557TIP3    H237615   2.856   2.777   1.779
12558TIP3   OH237616   2.830   4.927   4.304
12558TIP3    H137617   2.820   4.870   4.227
12558TIP3    H237618   2.924   4.928   4.321
12559TIP3   OH237619   4.689   2.496   1.546
12559TIP3    H137620   4.661   2.406   1.529
12559TIP3    H237621   4.760   2.511   1.483
12560TIP3   OH237622   7.994   6.064   2.973
12560TIP3    H137623   7.955   6.015   2.900
12560TIP3    H237624   8.050   6.000   3.018
12561TIP3   OH237625   7.998   0.348   2.743
12561TIP3    H137626   7.911   0.306   2.739
12561TIP3    H237627   8.009   0.388   2.657
12562TIP3   OH237628   5.977   3.261   3.053
12562TIP3    H137629   5.990   3.182   3.105
12562TIP3    H237630   6.057   3.312   3.066
12563TIP3   OH237631   1.981   4.996   1.525
12563TIP3    H137632   1.966   5.089   1.538
12563TIP3    H237633   2.061   4.991   1.473
12564TIP3   OH237634   3.471   5.251   1.006
12564TIP3    H137635   3.528   5.321   0.973
12564TIP3    H237636   3.518   5.215   1.081
12565TIP3   OH237637   6.260   1.646   3.793
12565TIP3    H137638   6.235   1.616   3.706
12565TIP3    H237639   6.184   1.693   3.825
12566TIP3   OH237640   3.992   5.771   4.464
12566TIP3    H137641   3.941   5.726   4.396
12566TIP3    H237642   4.053   5.705   4.496
12567TIP3   OH237643   0.330   5.518   4.430
12567TIP3    H137644   0.263   5.475   4.378
12567TIP3    H237645   0.369   5.583   4.371
12568TIP3   OH237646   4.046   4.372   4.548
12568TIP3    H137647   4.137   4.392   4.525
12568TIP3    H237648   3.993   4.417   4.483
12569TIP3   OH237649   2.613   5.740   4.546
12569TIP3    H137650   2.672   5.815   4.545
12569TIP3    H237651   2.541   5.765   4.488
12570TIP3   OH237652   2.655   0.435   2.461
12570TIP3    H137653   2.685   0.416   2.372
12570TIP3    H237654   2.563   0.410   2.461
12571TIP3   OH237655   6.771   3.045   3.226
12571TIP3    H137656   6.701   3.035   3.291
12571TIP3    H237657   6.829   3.112   3.262
12572TIP3   OH237658   3.546   5.748   4.687
12572TIP3    H137659   3.557   5.821   4.747
12572TIP3    H237660   3.495   5.684   4.737
12573TIP3   OH237661   2.064   3.573   1.246
12573TIP3    H137662   2.082   3.479   1.251
12573TIP3    H237663   1.975   3.583   1.280
12574TIP3   OH237664   3.833   5.675   5.259
12574TIP3    H137665   3.917   5.720   5.258
12574TIP3    H237666   3.768   5.746   5.269
12575TIP3   OH237667   2.159   1.498   4.689
12575TIP3    H137668   2.247   1.531   4.672
12575TIP3    H237669   2.100   1.565   4.654
12576TIP3   OH237670   8.130   1.697   2.192
12576TIP3    H137671   8.056   1.637   2.192
12576TIP3    H237672   8.092   1.783   2.172
12577TIP3   OH237673   4.419   1.426   2.452
12577TIP3    H137674   4.386   1.337   2.442
12577TIP3    H237675   4.406   1.446   2.545
12578TIP3   OH237676   6.099   0.030   4.989
12578TIP3    H137677   6.132  -0.052   4.954
12578TIP3    H237678   6.175   0.089   4.987
12579TIP3   OH237679   4.109   3.546   5.263
12579TIP3    H137680   4.158   3.476   5.305
12579TIP3    H237681   4.105   3.615   5.330
12580TIP3   OH237682   3.545   3.235   5.108
12580TIP3    H137683   3.553   3.168   5.040
12580TIP3    H237684   3.483   3.198   5.171
12581TIP3   OH237685   3.574   5.107   2.591
12581TIP3    H137686   3.614   5.021   2.583
12581TIP3    H237687   3.618   5.147   2.666
12582TIP3   OH237688   5.422   2.406   5.436
12582TIP3    H137689   5.404   2.476   5.374
12582TIP3    H237690   5.505   2.369   5.407
12583TIP3   OH237691   5.613   1.828   0.588
12583TIP3    H137692   5.709   1.818   0.584
12583TIP3    H237693   5.600   1.905   0.643
12584TIP3   OH237694   5.489   1.626   1.874
12584TIP3    H137695   5.472   1.720   1.862
12584TIP3    H237696   5.547   1.603   1.801
12585TIP3   OH237697   3.282   2.228   6.009
12585TIP3    H137698   3.335   2.185   5.942
12585TIP3    H237699   3.289   2.171   6.085
12586TIP3   OH237700   6.956   4.730   0.485
12586TIP3    H137701   7.013   4.806   0.497
12586TIP3    H237702   7.004   4.675   0.422
12587TIP3   OH237703   7.883   6.791   3.501
12587TIP3    H137704   7.900   6.869   3.447
12587TIP3    H237705   7.793   6.767   3.481
12588TIP3   OH237706   6.798   0.305   6.209
12588TIP3    H137707   6.715   0.266   6.183
12588TIP3    H237708   6.815   0.270   6.296
12589TIP3   OH237709   3.004   5.590   6.456
12589TIP3    H137710   3.048   5.622   6.535
12589TIP3    H237711   2.915   5.624   6.462
12590TIP3   OH237712   7.227   4.749   6.604
12590TIP3    H137713   7.218   4.749   6.509
12590TIP3    H237714   7.162   4.813   6.635
12591TIP3   OH237715   4.651   5.087   1.694
12591TIP3    H137716   4.566   5.043   1.693
12591TIP3    H237717   4.714   5.017   1.713
12592TIP3   OH237718   7.504   3.706   5.351
12592TIP3    H137719   7.482   3.645   5.280
12592TIP3    H237720   7.554   3.775   5.308
12593TIP3   OH237721   4.822   3.567   2.756
12593TIP3    H137722   4.740   3.535   2.719
12593TIP3    H237723   4.877   3.489   2.762
12594TIP3   OH237724   8.113   4.256   1.530
12594TIP3    H137725   8.109   4.346   1.500
12594TIP3    H237726   8.088   4.260   1.623
12595TIP3   OH237727   1.832   0.206   6.532
12595TIP3    H137728   1.862   0.140   6.469
12595TIP3    H237729   1.738   0.213   6.516
12596TIP3   OH237730   6.402   7.149   3.026
12596TIP3    H137731   6.318   7.193   3.008
12596TIP3    H237732   6.468   7.205   2.985
12597TIP3   OH237733   3.576   4.284   1.605
12597TIP3    H137734   3.627   4.354   1.563
12597TIP3    H237735   3.493   4.325   1.629
12598TIP3   OH237736   2.709   3.480   0.060
12598TIP3    H137737   2.793   3.527   0.052
12598TIP3    H237738   2.644   3.544   0.032
12599TIP3   OH237739   2.123   1.010   4.567
12599TIP3    H137740   2.059   1.074   4.600
12599TIP3    H237741   2.097   0.927   4.606
12600TIP3   OH237742   6.471   5.494   3.574
12600TIP3    H137743   6.480   5.435   3.649
12600TIP3    H237744   6.558   5.499   3.536
12601TIP3   OH237745   1.954   6.803   0.396
12601TIP3    H137746   2.034   6.750   0.393
12601TIP3    H237747   1.985   6.893   0.390
12602TIP3   OH237748   2.052   2.990   6.330
12602TIP3    H137749   2.054   2.937   6.410
12602TIP3    H237750   1.960   2.989   6.302
12603TIP3   OH237751   0.966   2.675   3.141
12603TIP3    H137752   0.981   2.647   3.051
12603TIP3    H237753   1.047   2.653   3.187
12604TIP3   OH237754   1.366   1.668   2.071
12604TIP3    H137755   1.451   1.624   2.074
12604TIP3    H237756   1.382   1.756   2.105
12605TIP3   OH237757   3.271   3.597   2.282
12605TIP3    H137758   3.274   3.604   2.186
12605TIP3    H237759   3.362   3.610   2.309
12606TIP3   OH237760   7.827   4.286   2.311
12606TIP3    H137761   7.768   4.268   2.238
12606TIP3    H237762   7.840   4.381   2.309
12607TIP3   OH237763   6.832   7.211   1.602
12607TIP3    H137764   6.773   7.140   1.578
12607TIP3    H237765   6.810   7.282   1.542
12608TIP3   OH237766   5.475   3.727   1.775
12608TIP3    H137767   5.483   3.823   1.782
12608TIP3    H237768   5.432   3.713   1.691
12609TIP3   OH237769   6.246   1.934   2.886
12609TIP3    H137770   6.205   1.850   2.867
12609TIP3    H237771   6.191   1.998   2.841
12610TIP3   OH237772   5.393   2.923   4.254
12610TIP3    H137773   5.448   2.998   4.276
12610TIP3    H237774   5.414   2.904   4.163
12611TIP3   OH237775   5.158   4.778   3.562
12611TIP3    H137776   5.212   4.757   3.637
12611TIP3    H237777   5.146   4.694   3.517
12612TIP3   OH237778   3.870   3.652   4.742
12612TIP3    H137779   3.965   3.664   4.748
12612TIP3    H237780   3.833   3.730   4.782
12613TIP3   OH237781   4.540   6.261   3.766
12613TIP3    H137782   4.522   6.314   3.687
12613TIP3    H237783   4.612   6.307   3.809
12614TIP3   OH237784   6.216   1.668   1.794
12614TIP3    H137785   6.143   1.631   1.745
12614TIP3    H237786   6.257   1.592   1.836
12615TIP3   OH237787   4.841   7.073   5.298
12615TIP3    H137788   4.855   7.006   5.365
12615TIP3    H237789   4.749   7.100   5.311
12616TIP3   OH237790   2.768   1.076   0.636
12616TIP3    H137791   2.779   1.031   0.719
12616TIP3    H237792   2.829   1.032   0.577
12617TIP3   OH237793   1.966   2.619   4.280
12617TIP3    H137794   2.042   2.669   4.311
12617TIP3    H237795   1.980   2.531   4.314
12618TIP3   OH237796   5.483   3.486   1.178
12618TIP3    H137797   5.407   3.436   1.205
12618TIP3    H237798   5.512   3.531   1.258
12619TIP3   OH237799   5.438   3.983   3.307
12619TIP3    H137800   5.487   4.042   3.249
12619TIP3    H237801   5.484   3.899   3.301
12620TIP3   OH237802   6.107   5.505   2.238
12620TIP3    H137803   6.047   5.526   2.166
12620TIP3    H237804   6.075   5.556   2.312
12621TIP3   OH237805   6.481   2.984   2.975
12621TIP3    H137806   6.562   3.024   2.943
12621TIP3    H237807   6.507   2.897   3.006
12622TIP3   OH237808   0.051   3.533   5.611
12622TIP3    H137809   0.055   3.459   5.671
12622TIP3    H237810   0.022   3.606   5.665
12623TIP3   OH237811   5.985   1.718   0.971
12623TIP3    H137812   5.916   1.671   0.925
12623TIP3    H237813   6.012   1.658   1.041
12624TIP3   OH237814   3.515   6.201   1.783
12624TIP3    H137815   3.598   6.241   1.758
12624TIP3    H237816   3.536   6.149   1.860
12625TIP3   OH237817   3.231   2.638   2.961
12625TIP3    H137818   3.185   2.712   3.000
12625TIP3    H237819   3.278   2.674   2.886
12626TIP3   OH237820   3.935   1.405   0.338
12626TIP3    H137821   3.976   1.438   0.418
12626TIP3    H237822   4.003   1.351   0.297
12627TIP3   OH237823   3.031   3.055   5.120
12627TIP3    H137824   2.960   3.105   5.080
12627TIP3    H237825   3.062   3.110   5.192
12628TIP3   OH237826   6.795   2.955   2.476
12628TIP3    H137827   6.826   2.979   2.563
12628TIP3    H237828   6.819   2.863   2.466
12629TIP3   OH237829   6.114   3.708   3.402
12629TIP3    H137830   6.063   3.781   3.436
12629TIP3    H237831   6.149   3.665   3.480
12630TIP3   OH237832   4.028   5.374   6.445
12630TIP3    H137833   4.119   5.360   6.417
12630TIP3    H237834   3.984   5.291   6.426
12631TIP3   OH237835   0.182   3.637   2.217
12631TIP3    H137836   0.145   3.597   2.296
12631TIP3    H237837   0.127   3.715   2.203
12632TIP3   OH237838   1.695   1.029   1.388
12632TIP3    H137839   1.673   0.939   1.411
12632TIP3    H237840   1.772   1.022   1.332
12633TIP3   OH237841   6.670   3.483   6.389
12633TIP3    H137842   6.733   3.527   6.332
12633TIP3    H237843   6.675   3.532   6.472
12634TIP3   OH237844   2.522   2.363   5.571
12634TIP3    H137845   2.612   2.342   5.547
12634TIP3    H237846   2.503   2.309   5.647
12635TIP3   OH237847   4.093   6.913   3.549
12635TIP3    H137848   4.132   7.000   3.537
12635TIP3    H237849   4.084   6.878   3.460
12636TIP3   OH237850   0.620   5.627   1.333
12636TIP3    H137851   0.715   5.638   1.321
12636TIP3    H237852   0.583   5.645   1.246
12637TIP3   OH237853   0.265   0.262   3.142
12637TIP3    H137854   0.170   0.271   3.147
12637TIP3    H237855   0.292   0.331   3.081
12638TIP3   OH237856   5.238   6.574   1.715
12638TIP3    H137857   5.191   6.577   1.632
12638TIP3    H237858   5.233   6.664   1.749
12639TIP3   OH237859   6.995   5.736   3.500
12639TIP3    H137860   6.979   5.644   3.521
12639TIP3    H237861   7.062   5.733   3.432
12640TIP3   OH237862   5.097   0.521   5.293
12640TIP3    H137863   5.186   0.553   5.274
12640TIP3    H237864   5.051   0.597   5.327
12641TIP3   OH237865   0.648   0.391   1.376
12641TIP3    H137866   0.705   0.422   1.446
12641TIP3    H237867   0.565   0.436   1.390
12642TIP3   OH237868   8.247   5.287   3.633
12642TIP3    H137869   8.298   5.316   3.708
12642TIP3    H237870   8.299   5.217   3.595
12643TIP3   OH237871   0.190   0.075   6.263
12643TIP3    H137872   0.261   0.108   6.208
12643TIP3    H237873   0.234   0.022   6.330
12644TIP3   OH237874   4.925   7.164   4.167
12644TIP3    H137875   4.943   7.224   4.239
12644TIP3    H237876   4.841   7.193   4.132
12645TIP3   OH237877   6.072   2.789   5.538
12645TIP3    H137878   6.033   2.857   5.594
12645TIP3    H237879   6.053   2.817   5.449
12646TIP3   OH237880   2.411   2.960   0.566
12646TIP3    H137881   2.407   3.042   0.616
12646TIP3    H237882   2.340   2.907   0.600
12647TIP3   OH237883   6.906   5.481   4.795
12647TIP3    H137884   6.916   5.404   4.739
12647TIP3    H237885   6.969   5.544   4.759
12648TIP3   OH237886   6.774   7.003   3.943
12648TIP3    H137887   6.738   6.929   3.893
12648TIP3    H237888   6.867   7.003   3.923
12649TIP3   OH237889   0.225   2.568   3.367
12649TIP3    H137890   0.285   2.585   3.440
12649TIP3    H237891   0.254   2.485   3.331
12650TIP3   OH237892   2.666   2.415   0.861
12650TIP3    H137893   2.646   2.498   0.818
12650TIP3    H237894   2.600   2.355   0.828
12651TIP3   OH237895   7.410   0.796   2.281
12651TIP3    H137896   7.442   0.866   2.338
12651TIP3    H237897   7.378   0.729   2.342
12652TIP3   OH237898   3.333   0.720   3.251
12652TIP3    H137899   3.399   0.653   3.231
12652TIP3    H237900   3.367   0.764   3.328
12653TIP3   OH237901  -0.031   7.452   3.148
12653TIP3    H137902  -0.042   7.464   3.053
12653TIP3    H237903  -0.010   7.359   3.158
12654TIP3   OH237904   3.149   5.463   2.087
12654TIP3    H137905   3.167   5.551   2.119
12654TIP3    H237906   3.209   5.407   2.136
12655TIP3   OH237907   7.383   3.489   3.917
12655TIP3    H137908   7.426   3.471   4.000
12655TIP3    H237909   7.290   3.481   3.935
12656TIP3   OH237910   6.558   4.693   2.633
12656TIP3    H137911   6.582   4.782   2.607
12656TIP3    H237912   6.618   4.671   2.703
12657TIP3   OH237913   0.693   0.762   2.224
12657TIP3    H137914   0.664   0.814   2.299
12657TIP3    H237915   0.662   0.673   2.243
12658TIP3   OH237916   6.964   4.832   2.569
12658TIP3    H137917   6.932   4.840   2.659
12658TIP3    H237918   7.056   4.809   2.579
12659TIP3   OH237919   3.493   5.549   6.659
12659TIP3    H137920   3.517   5.459   6.636
12659TIP3    H237921   3.479   5.547   6.753
12660TIP3   OH237922   3.565   2.928   6.732
12660TIP3    H137923   3.587   2.855   6.789
12660TIP3    H237924   3.477   2.909   6.700
12661TIP3   OH237925   0.579   2.408   1.756
12661TIP3    H137926   0.591   2.472   1.685
12661TIP3    H237927   0.668   2.386   1.783
12662TIP3   OH237928   0.071   6.761   1.262
12662TIP3    H137929   0.103   6.671   1.270
12662TIP3    H237930  -0.018   6.752   1.226
12663TIP3   OH237931   2.280   5.963   3.835
12663TIP3    H137932   2.186   5.954   3.819
12663TIP3    H237933   2.299   5.897   3.902
12664TIP3   OH237934   6.319   3.628   1.366
12664TIP3    H137935   6.232   3.600   1.393
12664TIP3    H237936   6.376   3.606   1.439
12665TIP3   OH237937   2.038   4.103   5.909
12665TIP3    H137938   1.984   4.027   5.930
12665TIP3    H237939   2.075   4.084   5.823
12666TIP3   OH237940   2.824   6.295   6.099
12666TIP3    H137941   2.772   6.352   6.155
12666TIP3    H237942   2.818   6.335   6.012
12667TIP3   OH237943   4.256   3.536   2.192
12667TIP3    H137944   4.243   3.597   2.264
12667TIP3    H237945   4.223   3.452   2.225
12668TIP3   OH237946   6.066   5.366   6.276
12668TIP3    H137947   6.077   5.422   6.199
12668TIP3    H237948   5.989   5.402   6.321
12669TIP3   OH237949   4.660   5.719   2.604
12669TIP3    H137950   4.736   5.754   2.652
12669TIP3    H237951   4.690   5.714   2.513
12670TIP3   OH237952   0.198   1.648   1.015
12670TIP3    H137953   0.218   1.573   1.071
12670TIP3    H237954   0.110   1.630   0.981
12671TIP3   OH237955   3.730   3.073   1.174
12671TIP3    H137956   3.738   3.143   1.238
12671TIP3    H237957   3.753   3.115   1.091
12672TIP3   OH237958   0.427   1.046   0.673
12672TIP3    H137959   0.415   0.952   0.678
12672TIP3    H237960   0.339   1.082   0.672
12673TIP3   OH237961   3.557   0.344   5.723
12673TIP3    H137962   3.613   0.313   5.795
12673TIP3    H237963   3.589   0.432   5.705
12674TIP3   OH237964   4.752   4.926   3.984
12674TIP3    H137965   4.795   5.008   3.957
12674TIP3    H237966   4.674   4.955   4.032
12675TIP3   OH237967   2.703   1.580   6.163
12675TIP3    H137968   2.609   1.587   6.181
12675TIP3    H237969   2.739   1.665   6.188
12676TIP3   OH237970   5.011   4.749   4.581
12676TIP3    H137971   4.942   4.775   4.521
12676TIP3    H237972   4.984   4.663   4.614
12677TIP3   OH237973   5.827   7.320   3.979
12677TIP3    H137974   5.783   7.398   3.945
12677TIP3    H237975   5.790   7.248   3.928
12678TIP3   OH237976   6.721   7.624   0.932
12678TIP3    H137977   6.712   7.633   0.837
12678TIP3    H237978   6.703   7.712   0.966
12679TIP3   OH237979   1.084   7.628   4.780
12679TIP3    H137980   1.022   7.661   4.715
12679TIP3    H237981   1.165   7.677   4.763
12680TIP3   OH237982   2.548   7.511   6.369
12680TIP3    H137983   2.513   7.491   6.283
12680TIP3    H237984   2.599   7.434   6.393
12681TIP3   OH237985   5.297   2.026   2.798
12681TIP3    H137986   5.320   2.048   2.888
12681TIP3    H237987   5.211   1.984   2.804
12682TIP3   OH237988   6.314   5.893   4.542
12682TIP3    H137989   6.293   5.801   4.528
12682TIP3    H237990   6.234   5.931   4.578
12683TIP3   OH237991   5.914   7.051   4.475
12683TIP3    H137992   5.943   6.982   4.535
12683TIP3    H237993   5.991   7.070   4.422
12684TIP3   OH237994   3.602   7.525   0.925
12684TIP3    H137995   3.607   7.581   0.848
12684TIP3    H237996   3.518   7.480   0.918
12685TIP3   OH237997   6.600   7.510   0.116
12685TIP3    H137998   6.690   7.496   0.086
12685TIP3    H237999   6.566   7.578   0.058
12686TIP3   OH238000   5.636   3.344   5.279
12686TIP3    H138001   5.726   3.320   5.298
12686TIP3    H238002   5.614   3.410   5.344
12687TIP3   OH238003   8.000   1.877   2.033
12687TIP3    H138004   7.945   1.955   2.040
12687TIP3    H238005   8.068   1.901   1.970
12688TIP3   OH238006   3.910   5.437   3.927
12688TIP3    H138007   3.969   5.462   3.998
12688TIP3    H238008   3.955   5.363   3.885
12689TIP3   OH238009   3.981   3.739   4.336
12689TIP3    H138010   3.972   3.827   4.372
12689TIP3    H238011   3.993   3.753   4.242
12690TIP3   OH238012   5.989   6.063   6.073
12690TIP3    H138013   6.015   6.008   6.147
12690TIP3    H238014   6.070   6.105   6.045
12691TIP3   OH238015   2.979   7.756   2.938
12691TIP3    H138016   2.891   7.786   2.960
12691TIP3    H238017   3.014   7.722   3.020
12692TIP3   OH238018   5.639   1.776   5.440
12692TIP3    H138019   5.711   1.714   5.444
12692TIP3    H238020   5.588   1.749   5.363
12693TIP3   OH238021   3.670   7.636   2.615
12693TIP3    H138022   3.674   7.549   2.575
12693TIP3    H238023   3.604   7.627   2.684
12694TIP3   OH238024   4.739   7.618   1.005
12694TIP3    H138025   4.676   7.652   0.940
12694TIP3    H238026   4.803   7.689   1.015
12695TIP3   OH238027   0.580   5.893   4.489
12695TIP3    H138028   0.641   5.839   4.540
12695TIP3    H238029   0.514   5.831   4.458
12696TIP3   OH238030   8.144   2.678   0.248
12696TIP3    H138031   8.077   2.617   0.275
12696TIP3    H238032   8.224   2.626   0.244
12697TIP3   OH238033   7.408   7.088   1.455
12697TIP3    H138034   7.468   7.041   1.513
12697TIP3    H238035   7.351   7.137   1.514
12698TIP3   OH238036   3.807   3.604   6.192
12698TIP3    H138037   3.849   3.563   6.267
12698TIP3    H238038   3.866   3.676   6.168
12699TIP3   OH238039   3.323   1.800   1.618
12699TIP3    H138040   3.385   1.742   1.574
12699TIP3    H238041   3.242   1.791   1.569
12700TIP3   OH238042   3.224   1.190   5.415
12700TIP3    H138043   3.205   1.108   5.370
12700TIP3    H238044   3.180   1.257   5.363
12701TIP3   OH238045   1.728   3.802   5.486
12701TIP3    H138046   1.648   3.840   5.449
12701TIP3    H238047   1.699   3.759   5.567
12702TIP3   OH238048   0.291   4.120   3.797
12702TIP3    H138049   0.337   4.036   3.799
12702TIP3    H238050   0.354   4.183   3.831
12703TIP3   OH238051   0.353   4.283   3.483
12703TIP3    H138052   0.336   4.356   3.424
12703TIP3    H238053   0.280   4.284   3.545
12704TIP3   OH238054   3.011   5.961   2.136
12704TIP3    H138055   2.955   5.937   2.063
12704TIP3    H238056   2.950   5.981   2.207
12705TIP3   OH238057   1.037   7.290   1.898
12705TIP3    H138058   1.128   7.261   1.909
12705TIP3    H238059   0.993   7.262   1.978
12706TIP3   OH238060   6.964   7.535   0.621
12706TIP3    H138061   6.956   7.630   0.622
12706TIP3    H238062   6.999   7.515   0.534
12707TIP3   OH238063   3.728   3.884   5.018
12707TIP3    H138064   3.740   3.947   4.946
12707TIP3    H238065   3.660   3.824   4.985
12708TIP3   OH238066   7.156   0.385   3.511
12708TIP3    H138067   7.225   0.449   3.532
12708TIP3    H238068   7.154   0.383   3.415
12709TIP3   OH238069   6.129   5.573   2.661
12709TIP3    H138070   6.201   5.594   2.721
12709TIP3    H238071   6.154   5.489   2.622
12710TIP3   OH238072   7.755   7.451   2.675
12710TIP3    H138073   7.727   7.393   2.604
12710TIP3    H238074   7.828   7.405   2.717
12711TIP3   OH238075   1.032   4.388   1.677
12711TIP3    H138076   1.029   4.371   1.583
12711TIP3    H238077   0.968   4.327   1.715
12712TIP3   OH238078   5.724   5.123   1.693
12712TIP3    H138079   5.651   5.095   1.639
12712TIP3    H238080   5.717   5.070   1.772
12713TIP3   OH238081   0.535   1.510   6.594
12713TIP3    H138082   0.615   1.530   6.641
12713TIP3    H238083   0.514   1.590   6.546
12714TIP3   OH238084   1.816   2.520   0.367
12714TIP3    H138085   1.729   2.488   0.344
12714TIP3    H238086   1.845   2.462   0.438
12715TIP3   OH238087   4.809   2.874   6.040
12715TIP3    H138088   4.826   2.822   5.962
12715TIP3    H238089   4.886   2.930   6.050
12716TIP3   OH238090   4.825   3.966   0.285
12716TIP3    H138091   4.901   4.017   0.312
12716TIP3    H238092   4.820   3.980   0.191
12717TIP3   OH238093   7.461   1.781   1.814
12717TIP3    H138094   7.391   1.728   1.851
12717TIP3    H238095   7.497   1.727   1.743
12718TIP3   OH238096   4.868   4.957   2.240
12718TIP3    H138097   4.819   5.036   2.216
12718TIP3    H238098   4.893   4.918   2.156
12719TIP3   OH238099   0.524   6.547   0.339
12719TIP3    H138100   0.431   6.561   0.319
12719TIP3    H238101   0.571   6.607   0.282
12720TIP3   OH238102   6.967   0.907   0.656
12720TIP3    H138103   6.904   0.868   0.595
12720TIP3    H238104   7.045   0.922   0.604
12721TIP3   OH238105   5.070   2.335   3.830
12721TIP3    H138106   5.085   2.360   3.739
12721TIP3    H238107   4.976   2.344   3.843
12722TIP3   OH238108   0.150   1.885   3.072
12722TIP3    H138109   0.238   1.921   3.081
12722TIP3    H238110   0.122   1.867   3.162
12723TIP3   OH238111   4.706   2.499   5.528
12723TIP3    H138112   4.799   2.513   5.547
12723TIP3    H238113   4.697   2.527   5.437
12724TIP3   OH238114   4.384   2.920   6.352
12724TIP3    H138115   4.311   2.863   6.324
12724TIP3    H238116   4.459   2.889   6.301
12725TIP3   OH238117   0.985   0.528   2.635
12725TIP3    H138118   0.919   0.567   2.693
12725TIP3    H238119   1.058   0.506   2.693
12726TIP3   OH238120   4.986   2.981   5.575
12726TIP3    H138121   4.893   2.959   5.565
12726TIP3    H238122   4.991   3.073   5.550
12727TIP3   OH238123   2.393   5.635   5.283
12727TIP3    H138124   2.472   5.642   5.230
12727TIP3    H238125   2.350   5.556   5.250
12728TIP3   OH238126   5.298   5.940   2.224
12728TIP3    H138127   5.211   5.935   2.183
12728TIP3    H238128   5.285   5.906   2.312
12729TIP3   OH238129   7.998   3.802   1.508
12729TIP3    H138130   7.991   3.727   1.448
12729TIP3    H238131   7.980   3.878   1.453
12730TIP3   OH238132   6.719   1.409   2.872
12730TIP3    H138133   6.809   1.377   2.873
12730TIP3    H238134   6.723   1.490   2.821
12731TIP3   OH238135   5.844   4.334   3.878
12731TIP3    H138136   5.816   4.257   3.927
12731TIP3    H238137   5.783   4.340   3.805
12732TIP3   OH238138   7.339   1.983   6.027
12732TIP3    H138139   7.294   1.907   5.991
12732TIP3    H238140   7.410   1.946   6.080
12733TIP3   OH238141   6.776   1.134   5.315
12733TIP3    H138142   6.723   1.086   5.379
12733TIP3    H238143   6.770   1.082   5.235
12734TIP3   OH238144   1.831   4.148   3.546
12734TIP3    H138145   1.856   4.056   3.537
12734TIP3    H238146   1.842   4.167   3.639
12735TIP3   OH238147   4.143   0.627   1.588
12735TIP3    H138148   4.229   0.637   1.548
12735TIP3    H238149   4.161   0.616   1.682
12736TIP3   OH238150   1.353   0.953   6.646
12736TIP3    H138151   1.442   0.937   6.678
12736TIP3    H238152   1.301   0.882   6.684
12737TIP3   OH238153   7.537   2.293   2.578
12737TIP3    H138154   7.605   2.312   2.643
12737TIP3    H238155   7.494   2.377   2.562
12738TIP3   OH238156   0.864   4.439   2.036
12738TIP3    H138157   0.932   4.387   1.994
12738TIP3    H238158   0.911   4.502   2.091
12739TIP3   OH238159   6.361   4.987   2.729
12739TIP3    H138160   6.430   4.979   2.664
12739TIP3    H238161   6.286   5.023   2.681
12740TIP3   OH238162   6.481   0.866   0.641
12740TIP3    H138163   6.402   0.893   0.686
12740TIP3    H238164   6.525   0.948   0.619
12741TIP3   OH238165   2.557   7.167   1.350
12741TIP3    H138166   2.520   7.250   1.381
12741TIP3    H238167   2.642   7.162   1.393
12742TIP3   OH238168   3.775   6.307   5.534
12742TIP3    H138169   3.694   6.332   5.490
12742TIP3    H238170   3.843   6.355   5.488
12743TIP3   OH238171   2.323   4.239   4.632
12743TIP3    H138172   2.373   4.174   4.582
12743TIP3    H238173   2.253   4.265   4.573
12744TIP3   OH238174   4.255   7.320   0.560
12744TIP3    H138175   4.331   7.289   0.608
12744TIP3    H238176   4.270   7.291   0.470
12745TIP3   OH238177   7.490   0.585   5.429
12745TIP3    H138178   7.401   0.603   5.397
12745TIP3    H238179   7.543   0.580   5.349
12746TIP3   OH238180   3.343   4.127   3.663
12746TIP3    H138181   3.352   4.051   3.722
12746TIP3    H238182   3.432   4.160   3.653
12747TIP3   OH238183   8.190   2.592   4.874
12747TIP3    H138184   8.285   2.590   4.868
12747TIP3    H238185   8.170   2.682   4.902
12748TIP3   OH238186   5.300   5.888   3.053
12748TIP3    H138187   5.226   5.854   3.104
12748TIP3    H238188   5.282   5.982   3.046
12749TIP3   OH238189   6.623   2.290   1.135
12749TIP3    H138190   6.573   2.279   1.055
12749TIP3    H238191   6.677   2.368   1.119
12750TIP3   OH238192   4.808   7.351   2.182
12750TIP3    H138193   4.749   7.426   2.190
12750TIP3    H238194   4.832   7.330   2.272
12751TIP3   OH238195   0.440   2.682   5.906
12751TIP3    H138196   0.506   2.614   5.924
12751TIP3    H238197   0.484   2.764   5.928
12752TIP3   OH238198   2.872   4.183   5.359
12752TIP3    H138199   2.876   4.277   5.347
12752TIP3    H238200   2.790   4.157   5.317
12753TIP3   OH238201   1.332   3.850   6.037
12753TIP3    H138202   1.356   3.851   6.129
12753TIP3    H238203   1.236   3.854   6.036
12754TIP3   OH238204   6.516   0.319   0.094
12754TIP3    H138205   6.487   0.274   0.015
12754TIP3    H238206   6.606   0.344   0.076
12755TIP3   OH238207   0.696   0.921   1.449
12755TIP3    H138208   0.677   1.013   1.435
12755TIP3    H238209   0.663   0.877   1.370
12756TIP3   OH238210   7.429   6.357   5.499
12756TIP3    H138211   7.349   6.364   5.445
12756TIP3    H238212   7.484   6.430   5.469
12757TIP3   OH238213   2.496   2.368   5.234
12757TIP3    H138214   2.510   2.448   5.285
12757TIP3    H238215   2.495   2.397   5.143
12758TIP3   OH238216   3.405   5.568   3.672
12758TIP3    H138217   3.416   5.607   3.758
12758TIP3    H238218   3.490   5.578   3.630
12759TIP3   OH238219   0.183   4.430   2.770
12759TIP3    H138220   0.120   4.477   2.823
12759TIP3    H238221   0.232   4.498   2.724
12760TIP3   OH238222   2.970   6.101   1.330
12760TIP3    H138223   3.037   6.169   1.336
12760TIP3    H238224   2.980   6.051   1.411
12761TIP3   OH238225   0.885   7.412   1.519
12761TIP3    H138226   0.977   7.425   1.496
12761TIP3    H238227   0.864   7.483   1.579
12762TIP3   OH238228   1.958   7.505   3.709
12762TIP3    H138229   1.964   7.428   3.653
12762TIP3    H238230   1.886   7.485   3.769
12763TIP3   OH238231   6.064   2.766   4.879
12763TIP3    H138232   6.048   2.790   4.970
12763TIP3    H238233   6.142   2.816   4.855
12764TIP3   OH238234   1.370   2.881   4.160
12764TIP3    H138235   1.356   2.825   4.084
12764TIP3    H238236   1.369   2.821   4.234
12765TIP3   OH238237   0.437   2.049   3.243
12765TIP3    H138238   0.472   2.016   3.160
12765TIP3    H238239   0.511   2.093   3.284
12766TIP3   OH238240   1.518   6.195   1.064
12766TIP3    H138241   1.428   6.194   1.033
12766TIP3    H238242   1.533   6.107   1.099
12767TIP3   OH238243   0.194   6.962   4.481
12767TIP3    H138244   0.104   6.994   4.468
12767TIP3    H238245   0.220   6.928   4.396
12768TIP3   OH238246   1.746   4.636   6.747
12768TIP3    H138247   1.721   4.707   6.806
12768TIP3    H238248   1.703   4.658   6.664
12769TIP3   OH238249   5.800   1.934   4.341
12769TIP3    H138250   5.884   1.931   4.388
12769TIP3    H238251   5.765   1.845   4.349
12770TIP3   OH238252   6.074   0.370   5.167
12770TIP3    H138253   5.979   0.382   5.167
12770TIP3    H238254   6.096   0.358   5.259
12771TIP3   OH238255   1.188   5.140   4.066
12771TIP3    H138256   1.251   5.076   4.034
12771TIP3    H238257   1.150   5.178   3.986
12772TIP3   OH238258   6.054   0.698   6.271
12772TIP3    H138259   6.140   0.689   6.312
12772TIP3    H238260   5.997   0.729   6.341
12773TIP3   OH238261   1.422   6.144   0.020
12773TIP3    H138262   1.342   6.130  -0.032
12773TIP3    H238263   1.491   6.101  -0.031
12774TIP3   OH238264   6.072   6.098   0.526
12774TIP3    H138265   6.058   6.004   0.537
12774TIP3    H238266   6.109   6.126   0.610
12775TIP3   OH238267   6.041   0.664   4.983
12775TIP3    H138268   6.069   0.734   4.924
12775TIP3    H238269   6.088   0.586   4.953
12776TIP3   OH238270   0.426   3.624   3.007
12776TIP3    H138271   0.497   3.568   3.040
12776TIP3    H238272   0.454   3.647   2.918
12777TIP3   OH238273   3.358   5.993   1.434
12777TIP3    H138274   3.377   6.080   1.469
12777TIP3    H238275   3.302   6.009   1.359
12778TIP3   OH238276   2.822   7.585   3.525
12778TIP3    H138277   2.853   7.673   3.505
12778TIP3    H238278   2.778   7.555   3.445
12779TIP3   OH238279   6.378  -0.063   5.322
12779TIP3    H138280   6.341   0.025   5.311
12779TIP3    H238281   6.348  -0.091   5.408
12780TIP3   OH238282   6.196   4.329   2.953
12780TIP3    H138283   6.291   4.336   2.957
12780TIP3    H238284   6.179   4.240   2.920
12781TIP3   OH238285   4.720   5.870   5.875
12781TIP3    H138286   4.704   5.964   5.864
12781TIP3    H238287   4.702   5.832   5.790
12782TIP3   OH238288   0.507   6.946   6.479
12782TIP3    H138289   0.411   6.946   6.476
12782TIP3    H238290   0.530   7.038   6.493
12783TIP3   OH238291   3.413   5.803   0.692
12783TIP3    H138292   3.348   5.808   0.763
12783TIP3    H238293   3.497   5.815   0.736
12784TIP3   OH238294   3.221   7.310   5.058
12784TIP3    H138295   3.277   7.378   5.095
12784TIP3    H238296   3.189   7.262   5.134
12785TIP3   OH238297   4.527   6.257   3.465
12785TIP3    H138298   4.583   6.327   3.498
12785TIP3    H238299   4.587   6.190   3.432
12786TIP3   OH238300   7.870   7.479   4.145
12786TIP3    H138301   7.936   7.500   4.079
12786TIP3    H238302   7.846   7.389   4.127
12787TIP3   OH238303   4.532   6.838   0.598
12787TIP3    H138304   4.579   6.845   0.515
12787TIP3    H238305   4.441   6.855   0.575
12788TIP3   OH238306   4.943   6.664   1.979
12788TIP3    H138307   4.919   6.749   2.016
12788TIP3    H238308   5.016   6.683   1.921
12789TIP3   OH238309   3.243   0.035   1.299
12789TIP3    H138310   3.183   0.085   1.244
12789TIP3    H238311   3.319   0.019   1.242
12790TIP3   OH238312   2.923   1.173   5.492
12790TIP3    H138313   2.932   1.090   5.445
12790TIP3    H238314   2.970   1.236   5.437
12791TIP3   OH238315   3.808   5.055   0.756
12791TIP3    H138316   3.737   5.086   0.701
12791TIP3    H238317   3.882   5.112   0.734
12792TIP3   OH238318   1.285   3.867   0.782
12792TIP3    H138319   1.314   3.785   0.743
12792TIP3    H238320   1.355   3.891   0.844
12793TIP3   OH238321   0.032   6.993   3.783
12793TIP3    H138322   0.012   7.075   3.738
12793TIP3    H238323  -0.007   6.926   3.728
12794TIP3   OH238324   3.743   2.361   2.906
12794TIP3    H138325   3.779   2.302   2.972
12794TIP3    H238326   3.743   2.447   2.948
12795TIP3   OH238327   4.762   5.974   4.827
12795TIP3    H138328   4.826   6.043   4.809
12795TIP3    H238329   4.809   5.911   4.881
12796TIP3   OH238330   2.118   5.596   3.834
12796TIP3    H138331   2.134   5.543   3.912
12796TIP3    H238332   2.204   5.605   3.793
12797TIP3   OH238333   7.562   3.040   1.519
12797TIP3    H138334   7.471   3.069   1.507
12797TIP3    H238335   7.592   3.087   1.597
12798TIP3   OH238336   2.081   3.001   2.175
12798TIP3    H138337   2.076   2.907   2.158
12798TIP3    H238338   2.140   3.009   2.249
12799TIP3   OH238339   0.656   2.620   4.346
12799TIP3    H138340   0.662   2.549   4.282
12799TIP3    H238341   0.593   2.588   4.411
12800TIP3   OH238342   4.793   1.863   1.209
12800TIP3    H138343   4.765   1.814   1.286
12800TIP3    H238344   4.860   1.924   1.241
12801TIP3   OH238345   5.718   1.308   1.417
12801TIP3    H138346   5.679   1.306   1.504
12801TIP3    H238347   5.695   1.223   1.378
12802TIP3   OH238348   1.177   0.626   6.551
12802TIP3    H138349   1.159   0.639   6.458
12802TIP3    H238350   1.251   0.565   6.553
12803TIP3   OH238351   2.078   6.899   2.216
12803TIP3    H138352   2.023   6.841   2.163
12803TIP3    H238353   2.154   6.917   2.161
12804TIP3   OH238354   6.436   2.584   1.660
12804TIP3    H138355   6.378   2.538   1.600
12804TIP3    H238356   6.409   2.675   1.656
12805TIP3   OH238357   2.971   1.525   3.382
12805TIP3    H138358   2.999   1.446   3.336
12805TIP3    H238359   3.043   1.587   3.368
12806TIP3   OH238360   4.278   3.777   5.055
12806TIP3    H138361   4.273   3.835   5.131
12806TIP3    H238362   4.254   3.691   5.089
12807TIP3   OH238363   6.046   5.373   5.000
12807TIP3    H138364   5.954   5.394   4.985
12807TIP3    H238365   6.089   5.457   5.012
12808TIP3   OH238366   7.080   6.666   6.039
12808TIP3    H138367   6.998   6.688   6.082
12808TIP3    H238368   7.111   6.750   6.003
12809TIP3   OH238369   2.700   7.566   2.655
12809TIP3    H138370   2.716   7.547   2.748
12809TIP3    H238371   2.666   7.484   2.620
12810TIP3   OH238372   3.368   4.321   5.552
12810TIP3    H138373   3.458   4.348   5.534
12810TIP3    H238374   3.322   4.332   5.468
12811TIP3   OH238375   6.686   2.613   0.843
12811TIP3    H138376   6.757   2.639   0.784
12811TIP3    H238377   6.730   2.582   0.922
12812TIP3   OH238378   5.299   3.025   6.415
12812TIP3    H138379   5.367   3.020   6.347
12812TIP3    H238380   5.262   3.113   6.406
12813TIP3   OH238381   4.390   5.204   3.785
12813TIP3    H138382   4.352   5.287   3.814
12813TIP3    H238383   4.455   5.229   3.719
12814TIP3   OH238384   7.739   3.969   1.795
12814TIP3    H138385   7.680   4.004   1.861
12814TIP3    H238386   7.767   3.884   1.829
12815TIP3   OH238387   3.468   6.626   2.511
12815TIP3    H138388   3.457   6.552   2.571
12815TIP3    H238389   3.507   6.695   2.564
12816TIP3   OH238390   4.939   1.485   5.880
12816TIP3    H138391   4.860   1.462   5.929
12816TIP3    H238392   4.908   1.499   5.790
12817TIP3   OH238393   3.904   2.571   5.007
12817TIP3    H138394   3.828   2.586   4.950
12817TIP3    H238395   3.964   2.520   4.952
12818TIP3   OH238396   1.982   7.507   0.927
12818TIP3    H138397   2.064   7.479   0.886
12818TIP3    H238398   1.936   7.556   0.859
12819TIP3   OH238399   5.702   2.053   1.505
12819TIP3    H138400   5.685   2.025   1.595
12819TIP3    H238401   5.713   2.148   1.512
12820TIP3   OH238402   2.702   4.415   1.039
12820TIP3    H138403   2.645   4.410   0.963
12820TIP3    H238404   2.658   4.475   1.099
12821TIP3   OH238405   4.187   1.611   6.515
12821TIP3    H138406   4.129   1.612   6.591
12821TIP3    H238407   4.171   1.694   6.471
12822TIP3   OH238408   3.213   2.592   5.252
12822TIP3    H138409   3.239   2.582   5.343
12822TIP3    H238410   3.117   2.592   5.254
12823TIP3   OH238411   5.526   6.739   0.387
12823TIP3    H138412   5.613   6.778   0.397
12823TIP3    H238413   5.468   6.798   0.435
12824TIP3   OH238414   6.212   1.749   3.408
12824TIP3    H138415   6.207   1.659   3.442
12824TIP3    H238416   6.121   1.780   3.411
12825TIP3   OH238417   1.301   1.569   1.163
12825TIP3    H138418   1.367   1.508   1.130
12825TIP3    H238419   1.316   1.572   1.257
12826TIP3   OH238420   7.606   2.060   5.021
12826TIP3    H138421   7.692   2.038   5.056
12826TIP3    H238422   7.545   2.040   5.092
12827TIP3   OH238423   4.010   5.745   2.507
12827TIP3    H138424   4.065   5.823   2.496
12827TIP3    H238425   3.921   5.775   2.489
12828TIP3   OH238426   6.853   2.739   4.427
12828TIP3    H138427   6.858   2.681   4.503
12828TIP3    H238428   6.777   2.795   4.444
12829TIP3   OH238429   4.662   7.032   1.573
12829TIP3    H138430   4.604   6.993   1.507
12829TIP3    H238431   4.685   7.118   1.536
12830TIP3   OH238432   1.385   5.572   1.753
12830TIP3    H138433   1.384   5.659   1.794
12830TIP3    H238434   1.472   5.538   1.774
12831TIP3   OH238435   8.239   7.265   0.251
12831TIP3    H138436   8.283   7.230   0.174
12831TIP3    H238437   8.308   7.311   0.299
12832TIP3   OH238438   4.926   7.641   0.422
12832TIP3    H138439   4.973   7.666   0.501
12832TIP3    H238440   4.924   7.720   0.369
12833TIP3   OH238441   6.850   2.373   6.158
12833TIP3    H138442   6.919   2.382   6.225
12833TIP3    H238443   6.806   2.291   6.181
12834TIP3   OH238444   6.031   4.936   4.493
12834TIP3    H138445   6.008   4.846   4.467
12834TIP3    H238446   6.053   4.980   4.411
12835TIP3   OH238447   7.594   4.061   1.388
12835TIP3    H138448   7.619   3.980   1.433
12835TIP3    H238449   7.670   4.118   1.399
12836TIP3   OH238450   1.773   3.357   1.172
12836TIP3    H138451   1.833   3.283   1.160
12836TIP3    H238452   1.805   3.423   1.110
12837TIP3   OH238453   2.189   6.636   3.856
12837TIP3    H138454   2.110   6.663   3.903
12837TIP3    H238455   2.214   6.712   3.805
12838TIP3   OH238456   4.486   7.053   6.509
12838TIP3    H138457   4.414   7.008   6.465
12838TIP3    H238458   4.458   7.144   6.514
12839TIP3   OH238459   3.068   0.348   2.595
12839TIP3    H138460   3.131   0.291   2.639
12839TIP3    H238461   3.121   0.402   2.537
12840TIP3   OH238462   8.037   3.923   2.553
12840TIP3    H138463   7.993   4.007   2.561
12840TIP3    H238464   8.123   3.937   2.594
12841TIP3   OH238465   5.578   2.702   4.301
12841TIP3    H138466   5.500   2.757   4.305
12841TIP3    H238467   5.648   2.759   4.333
12842TIP3   OH238468   2.051   5.936   1.595
12842TIP3    H138469   2.112   5.913   1.525
12842TIP3    H238470   2.010   5.854   1.619
12843TIP3   OH238471   4.504   6.322   0.242
12843TIP3    H138472   4.440   6.302   0.174
12843TIP3    H238473   4.587   6.291   0.208
12844TIP3   OH238474   1.879   0.301   4.050
12844TIP3    H138475   1.858   0.381   4.002
12844TIP3    H238476   1.812   0.295   4.118
12845TIP3   OH238477   6.826   1.730   3.743
12845TIP3    H138478   6.748   1.678   3.759
12845TIP3    H238479   6.793   1.808   3.697
12846TIP3   OH238480   0.925   6.999   2.281
12846TIP3    H138481   0.934   7.041   2.195
12846TIP3    H238482   0.910   7.072   2.342
12847TIP3   OH238483   0.444   7.557   5.026
12847TIP3    H138484   0.443   7.509   4.943
12847TIP3    H238485   0.520   7.521   5.073
12848TIP3   OH238486   3.729   1.087   5.446
12848TIP3    H138487   3.735   1.001   5.404
12848TIP3    H238488   3.651   1.081   5.501
12849TIP3   OH238489   6.423   6.833   1.788
12849TIP3    H138490   6.441   6.828   1.881
12849TIP3    H238491   6.408   6.743   1.761
12850TIP3   OH238492   4.352   6.745   3.623
12850TIP3    H138493   4.258   6.734   3.638
12850TIP3    H238494   4.385   6.656   3.612
12851TIP3   OH238495   6.481   5.129   0.735
12851TIP3    H138496   6.493   5.217   0.772
12851TIP3    H238497   6.451   5.145   0.645
12852TIP3   OH238498   7.310   3.758   5.770
12852TIP3    H138499   7.320   3.829   5.706
12852TIP3    H238500   7.327   3.800   5.854
12853TIP3   OH238501   7.329   1.494   1.550
12853TIP3    H138502   7.256   1.529   1.601
12853TIP3    H238503   7.321   1.536   1.464
12854TIP3   OH238504   1.813   1.415   0.505
12854TIP3    H138505   1.750   1.348   0.531
12854TIP3    H238506   1.879   1.367   0.453
12855TIP3   OH238507   0.056   0.673   3.139
12855TIP3    H138508   0.049   0.760   3.100
12855TIP3    H238509   0.091   0.690   3.227
12856TIP3   OH238510   6.518   6.663   3.946
12856TIP3    H138511   6.447   6.630   3.892
12856TIP3    H238512   6.492   6.753   3.967
12857TIP3   OH238513   4.922   0.850   6.152
12857TIP3    H138514   4.986   0.817   6.216
12857TIP3    H238515   4.841   0.859   6.202
12858TIP3   OH238516   4.668   5.133   3.662
12858TIP3    H138517   4.653   5.141   3.568
12858TIP3    H238518   4.745   5.187   3.678
12859TIP3   OH238519   3.486   5.449   0.365
12859TIP3    H138520   3.478   5.540   0.337
12859TIP3    H238521   3.576   5.440   0.396
12860TIP3   OH238522   3.888   7.101   1.898
12860TIP3    H138523   3.955   7.036   1.873
12860TIP3    H238524   3.928   7.150   1.969
12861TIP3   OH238525   0.178   1.337   4.773
12861TIP3    H138526   0.188   1.282   4.695
12861TIP3    H238527   0.267   1.367   4.792
12862TIP3   OH238528   7.824   2.707   0.881
12862TIP3    H138529   7.855   2.755   0.804
12862TIP3    H238530   7.818   2.774   0.949
12863TIP3   OH238531   3.563   2.394   4.823
12863TIP3    H138532   3.525   2.356   4.903
12863TIP3    H238533   3.644   2.344   4.809
12864TIP3   OH238534   2.331   4.149   3.026
12864TIP3    H138535   2.275   4.076   3.049
12864TIP3    H238536   2.309   4.170   2.935
12865TIP3   OH238537   7.733   1.181   6.294
12865TIP3    H138538   7.704   1.269   6.319
12865TIP3    H238539   7.804   1.161   6.355
12866TIP3   OH238540   7.688   0.516   4.576
12866TIP3    H138541   7.777   0.510   4.541
12866TIP3    H238542   7.653   0.428   4.567
12867TIP3   OH238543   1.244   0.201   6.382
12867TIP3    H138544   1.156   0.203   6.419
12867TIP3    H238545   1.231   0.196   6.287
12868TIP3   OH238546   6.399   6.491   2.727
12868TIP3    H138547   6.348   6.416   2.757
12868TIP3    H238548   6.335   6.561   2.719
12869TIP3   OH238549   6.084   3.096   6.151
12869TIP3    H138550   6.110   3.011   6.186
12869TIP3    H238551   5.992   3.105   6.175
12870TIP3   OH238552   0.680   3.628   2.725
12870TIP3    H138553   0.631   3.693   2.675
12870TIP3    H238554   0.726   3.577   2.658
12871TIP3   OH238555   5.700   2.190   2.481
12871TIP3    H138556   5.765   2.128   2.449
12871TIP3    H238557   5.639   2.137   2.531
12872TIP3   OH238558   2.890   0.117   4.205
12872TIP3    H138559   2.967   0.082   4.249
12872TIP3    H238560   2.851   0.177   4.268
12873TIP3   OH238561   6.941   4.892   0.949
12873TIP3    H138562   6.948   4.978   0.909
12873TIP3    H238563   6.885   4.842   0.889
12874TIP3   OH238564   6.369   3.337   2.818
12874TIP3    H138565   6.377   3.328   2.723
12874TIP3    H238566   6.316   3.262   2.845
12875TIP3   OH238567   2.642   2.203   1.788
12875TIP3    H138568   2.665   2.246   1.871
12875TIP3    H238569   2.673   2.264   1.721
12876TIP3   OH238570   2.836   6.340   6.757
12876TIP3    H138571   2.756   6.310   6.712
12876TIP3    H238572   2.894   6.368   6.686
12877TIP3   OH238573   4.800   2.925   0.397
12877TIP3    H138574   4.769   3.007   0.436
12877TIP3    H238575   4.755   2.920   0.313
12878TIP3   OH238576   4.923   3.415   4.847
12878TIP3    H138577   4.963   3.486   4.897
12878TIP3    H238578   4.855   3.381   4.905
12879TIP3   OH238579   4.313   1.712   5.506
12879TIP3    H138580   4.249   1.756   5.450
12879TIP3    H238581   4.282   1.621   5.511
12880TIP3   OH238582   2.086   2.945   5.749
12880TIP3    H138583   2.019   2.931   5.682
12880TIP3    H238584   2.154   2.882   5.730
12881TIP3   OH238585   5.041   3.128   4.027
12881TIP3    H138586   5.018   3.214   3.991
12881TIP3    H238587   5.135   3.135   4.047
12882TIP3   OH238588   4.126   4.783   6.121
12882TIP3    H138589   4.142   4.832   6.041
12882TIP3    H238590   4.164   4.697   6.104
12883TIP3   OH238591   0.858   2.445   5.800
12883TIP3    H138592   0.797   2.476   5.867
12883TIP3    H238593   0.802   2.417   5.728
12884TIP3   OH238594   3.964   4.675   0.035
12884TIP3    H138595   3.946   4.602  -0.024
12884TIP3    H238596   3.998   4.634   0.115
12885TIP3   OH238597   0.060   4.428   0.949
12885TIP3    H138598  -0.010   4.382   0.904
12885TIP3    H238599   0.128   4.362   0.961
12886TIP3   OH238600   4.939   6.680   3.923
12886TIP3    H138601   4.957   6.643   3.836
12886TIP3    H238602   4.960   6.773   3.915
12887TIP3   OH238603   2.356   3.034   0.275
12887TIP3    H138604   2.335   2.970   0.343
12887TIP3    H238605   2.307   3.005   0.198
12888TIP3   OH238606   7.907   7.195   5.205
12888TIP3    H138607   7.836   7.245   5.245
12888TIP3    H238608   7.987   7.234   5.242
12889TIP3   OH238609   2.094   2.654   3.930
12889TIP3    H138610   2.014   2.663   3.983
12889TIP3    H238611   2.158   2.710   3.974
12890TIP3   OH238612   0.911  -0.052   4.178
12890TIP3    H138613   1.006  -0.064   4.168
12890TIP3    H238614   0.873  -0.097   4.104
12891TIP3   OH238615   3.774   2.742   0.786
12891TIP3    H138616   3.800   2.778   0.701
12891TIP3    H238617   3.678   2.741   0.783
12892TIP3   OH238618   0.415   4.157   2.170
12892TIP3    H138619   0.415   4.246   2.137
12892TIP3    H238620   0.325   4.142   2.200
12893TIP3   OH238621   5.599   0.035   3.254
12893TIP3    H138622   5.561   0.109   3.206
12893TIP3    H238623   5.535  -0.036   3.242
12894TIP3   OH238624   1.346   4.403   1.129
12894TIP3    H138625   1.362   4.494   1.157
12894TIP3    H238626   1.424   4.355   1.157
12895TIP3   OH238627   6.497   5.092   5.262
12895TIP3    H138628   6.542   5.097   5.346
12895TIP3    H238629   6.556   5.041   5.206
12896TIP3   OH238630   5.079   1.780   3.825
12896TIP3    H138631   5.066   1.693   3.788
12896TIP3    H238632   5.008   1.790   3.889
12897TIP3   OH238633   6.793   0.127   4.370
12897TIP3    H138634   6.739   0.057   4.336
12897TIP3    H238635   6.732   0.198   4.390
12898TIP3   OH238636   5.177   0.292   1.488
12898TIP3    H138637   5.090   0.324   1.515
12898TIP3    H238638   5.213   0.251   1.566
12899TIP3   OH238639   7.796   4.422   0.767
12899TIP3    H138640   7.810   4.486   0.836
12899TIP3    H238641   7.708   4.386   0.785
12900TIP3   OH238642   1.285   6.501   6.619
12900TIP3    H138643   1.359   6.477   6.675
12900TIP3    H238644   1.216   6.438   6.643
12901TIP3   OH238645   4.317   0.750   4.644
12901TIP3    H138646   4.376   0.790   4.708
12901TIP3    H238647   4.369   0.745   4.564
12902TIP3   OH238648   7.821   6.980   0.268
12902TIP3    H138649   7.747   6.945   0.219
12902TIP3    H238650   7.865   7.038   0.206
12903TIP3   OH238651   5.157   1.595   5.136
12903TIP3    H138652   5.214   1.519   5.124
12903TIP3    H238653   5.194   1.641   5.211
12904TIP3   OH238654   0.199   7.542   1.842
12904TIP3    H138655   0.151   7.610   1.889
12904TIP3    H238656   0.175   7.461   1.887
12905TIP3   OH238657   3.702   2.426   4.236
12905TIP3    H138658   3.718   2.357   4.301
12905TIP3    H238659   3.779   2.483   4.241
12906TIP3   OH238660   0.303   3.482   3.405
12906TIP3    H138661   0.348   3.405   3.371
12906TIP3    H238662   0.221   3.449   3.441
12907TIP3   OH238663   7.032   4.773   2.131
12907TIP3    H138664   7.036   4.746   2.039
12907TIP3    H238665   7.120   4.753   2.165
12908TIP3   OH238666   5.882   6.645   4.870
12908TIP3    H138667   5.787   6.644   4.859
12908TIP3    H238668   5.898   6.719   4.929
12909TIP3   OH238669   4.655   1.796   2.369
12909TIP3    H138670   4.578   1.797   2.425
12909TIP3    H238671   4.679   1.888   2.360
12910TIP3   OH238672   8.246   2.901   0.378
12910TIP3    H138673   8.327   2.870   0.419
12910TIP3    H238674   8.202   2.820   0.350
12911TIP3   OH238675   2.565   0.059   5.913
12911TIP3    H138676   2.608  -0.013   5.866
12911TIP3    H238677   2.570   0.133   5.853
12912TIP3   OH238678   1.303   5.139   2.659
12912TIP3    H138679   1.308   5.072   2.727
12912TIP3    H238680   1.309   5.090   2.577
12913TIP3   OH238681   3.320   6.020   4.249
12913TIP3    H138682   3.402   5.974   4.230
12913TIP3    H238683   3.281   5.971   4.321
12914TIP3   OH238684   1.614   5.638   5.652
12914TIP3    H138685   1.700   5.677   5.668
12914TIP3    H238686   1.597   5.651   5.559
12915TIP3   OH238687   0.879   7.558   1.836
12915TIP3    H138688   0.927   7.488   1.880
12915TIP3    H238689   0.857   7.620   1.906
12916TIP3   OH238690   8.116   1.106   2.794
12916TIP3    H138691   8.061   1.030   2.773
12916TIP3    H238692   8.091   1.128   2.884
12917TIP3   OH238693   0.182   4.531   1.227
12917TIP3    H138694   0.158   4.461   1.166
12917TIP3    H238695   0.156   4.496   1.313
12918TIP3   OH238696   1.247   7.711   4.002
12918TIP3    H138697   1.305   7.752   4.066
12918TIP3    H238698   1.164   7.699   4.048
12919TIP3   OH238699   7.983   4.144   3.183
12919TIP3    H138700   8.043   4.094   3.239
12919TIP3    H238701   7.945   4.079   3.125
12920TIP3   OH238702   6.529   5.698   0.734
12920TIP3    H138703   6.434   5.686   0.732
12920TIP3    H238704   6.548   5.722   0.825
12921TIP3   OH238705   4.970   7.730   3.749
12921TIP3    H138706   5.001   7.814   3.782
12921TIP3    H238707   4.923   7.691   3.823
12922TIP3   OH238708   1.421   5.555   0.605
12922TIP3    H138709   1.376   5.562   0.689
12922TIP3    H238710   1.367   5.495   0.554
12923TIP3   OH238711   0.241   1.032   2.165
12923TIP3    H138712   0.149   1.012   2.177
12923TIP3    H238713   0.242   1.123   2.135
12924TIP3   OH238714   5.687   2.463   2.596
12924TIP3    H138715   5.685   2.379   2.549
12924TIP3    H238716   5.669   2.529   2.529
12925TIP3   OH238717   7.754   7.334   2.211
12925TIP3    H138718   7.784   7.244   2.198
12925TIP3    H238719   7.704   7.330   2.293
12926TIP3   OH238720   6.149   5.229   0.177
12926TIP3    H138721   6.111   5.314   0.200
12926TIP3    H238722   6.082   5.165   0.203
12927TIP3   OH238723   3.003   1.873   4.301
12927TIP3    H138724   3.098   1.879   4.303
12927TIP3    H238725   2.983   1.826   4.221
12928TIP3   OH238726   3.806   3.564   3.953
12928TIP3    H138727   3.834   3.534   4.039
12928TIP3    H238728   3.857   3.510   3.892
12929TIP3   OH238729   7.167   0.989   6.592
12929TIP3    H138730   7.244   1.044   6.606
12929TIP3    H238731   7.201   0.899   6.595
12930TIP3   OH238732   6.298   2.881   4.795
12930TIP3    H138733   6.306   2.927   4.712
12930TIP3    H238734   6.375   2.824   4.798
12931TIP3   OH238735   7.249   2.467   2.739
12931TIP3    H138736   7.333   2.509   2.723
12931TIP3    H238737   7.208   2.460   2.653
12932TIP3   OH238738   3.299   3.047   1.999
12932TIP3    H138739   3.290   2.990   2.075
12932TIP3    H238740   3.309   3.134   2.035
12933TIP3   OH238741   4.440   7.460   2.461
12933TIP3    H138742   4.535   7.450   2.474
12933TIP3    H238743   4.421   7.548   2.494
12934TIP3   OH238744   1.757   3.700   3.045
12934TIP3    H138745   1.805   3.619   3.026
12934TIP3    H238746   1.669   3.683   3.011
12935TIP3   OH238747   3.629   6.509   4.807
12935TIP3    H138748   3.652   6.447   4.738
12935TIP3    H238749   3.688   6.583   4.792
12936TIP3   OH238750   4.447   2.633   1.517
12936TIP3    H138751   4.473   2.725   1.521
12936TIP3    H238752   4.525   2.588   1.485
12937TIP3   OH238753   0.904   7.266   4.713
12937TIP3    H138754   0.998   7.276   4.729
12937TIP3    H238755   0.894   7.278   4.619
12938TIP3   OH238756   5.281   3.993   3.915
12938TIP3    H138757   5.358   3.947   3.882
12938TIP3    H238758   5.313   4.044   3.988
12939TIP3   OH238759   4.563   6.123   5.794
12939TIP3    H138760   4.617   6.170   5.857
12939TIP3    H238761   4.473   6.142   5.820
12940TIP3   OH238762   6.472   5.269   2.757
12940TIP3    H138763   6.395   5.271   2.700
12940TIP3    H238764   6.455   5.198   2.818
12941TIP3   OH238765   1.470   3.795   5.167
12941TIP3    H138766   1.520   3.843   5.101
12941TIP3    H238767   1.446   3.713   5.124
12942TIP3   OH238768   6.610   6.262   3.133
12942TIP3    H138769   6.645   6.339   3.088
12942TIP3    H238770   6.683   6.228   3.184
12943TIP3   OH238771   6.593   7.219   3.236
12943TIP3    H138772   6.576   7.308   3.204
12943TIP3    H238773   6.515   7.169   3.211
12944TIP3   OH238774   5.681   1.115   2.504
12944TIP3    H138775   5.750   1.067   2.550
12944TIP3    H238776   5.682   1.078   2.415
12945TIP3   OH238777   6.141   6.985   0.777
12945TIP3    H138778   6.100   6.933   0.846
12945TIP3    H238779   6.137   7.075   0.808
12946TIP3   OH238780   4.335   5.464   3.802
12946TIP3    H138781   4.412   5.517   3.778
12946TIP3    H238782   4.285   5.520   3.861
12947TIP3   OH238783   3.858   7.318   2.751
12947TIP3    H138784   3.772   7.320   2.793
12947TIP3    H238785   3.910   7.382   2.800
12948TIP3   OH238786   1.848   7.333   0.631
12948TIP3    H138787   1.775   7.358   0.688
12948TIP3    H238788   1.865   7.242   0.652
12949TIP3   OH238789   1.392   1.283   3.356
12949TIP3    H138790   1.386   1.205   3.411
12949TIP3    H238791   1.472   1.326   3.385
12950TIP3   OH238792   3.213   5.934   0.863
12950TIP3    H138793   3.168   5.937   0.779
12950TIP3    H238794   3.147   5.904   0.925
12951TIP3   OH238795   0.338   0.346   6.320
12951TIP3    H138796   0.353   0.256   6.291
12951TIP3    H238797   0.422   0.390   6.306
12952TIP3   OH238798   3.361   4.486   1.510
12952TIP3    H138799   3.319   4.430   1.445
12952TIP3    H238800   3.312   4.469   1.591
12953TIP3   OH238801   2.586   5.066   0.333
12953TIP3    H138802   2.567   4.980   0.370
12953TIP3    H238803   2.569   5.127   0.404
12954TIP3   OH238804   4.937   0.727   4.027
12954TIP3    H138805   5.022   0.731   4.069
12954TIP3    H238806   4.946   0.782   3.949
12955TIP3   OH238807   3.665   7.816   5.820
12955TIP3    H138808   3.648   7.885   5.756
12955TIP3    H238809   3.579   7.779   5.839
12956TIP3   OH238810   7.184   1.012   6.241
12956TIP3    H138811   7.226   1.076   6.298
12956TIP3    H238812   7.244   1.002   6.167
12957TIP3   OH238813   0.606   7.277   1.033
12957TIP3    H138814   0.560   7.202   0.994
12957TIP3    H238815   0.538   7.343   1.044
12958TIP3   OH238816   5.822   4.461   5.671
12958TIP3    H138817   5.741   4.457   5.620
12958TIP3    H238818   5.865   4.542   5.642
12959TIP3   OH238819   6.757   1.684   2.733
12959TIP3    H138820   6.697   1.739   2.782
12959TIP3    H238821   6.711   1.664   2.652
12960TIP3   OH238822   1.022   1.287   3.661
12960TIP3    H138823   0.949   1.283   3.723
12960TIP3    H238824   1.008   1.370   3.614
12961TIP3   OH238825   4.934   4.432   6.729
12961TIP3    H138826   4.898   4.375   6.662
12961TIP3    H238827   4.957   4.374   6.802
12962TIP3   OH238828   4.567   2.283   1.165
12962TIP3    H138829   4.572   2.280   1.260
12962TIP3    H238830   4.564   2.376   1.143
12963TIP3   OH238831   5.639   0.375   6.619
12963TIP3    H138832   5.630   0.465   6.587
12963TIP3    H238833   5.584   0.323   6.561
12964TIP3   OH238834   6.661   4.464   6.704
12964TIP3    H138835   6.664   4.369   6.721
12964TIP3    H238836   6.747   4.484   6.668
12965TIP3   OH238837   3.154   5.635   3.284
12965TIP3    H138838   3.066   5.602   3.269
12965TIP3    H238839   3.169   5.622   3.377
12966TIP3   OH238840   8.179   4.378   6.366
12966TIP3    H138841   8.099   4.408   6.409
12966TIP3    H238842   8.224   4.326   6.433
12967TIP3   OH238843   6.975   0.573   0.246
12967TIP3    H138844   6.960   0.667   0.252
12967TIP3    H238845   6.972   0.542   0.337
12968TIP3   OH238846   6.152   3.436   6.627
12968TIP3    H138847   6.128   3.523   6.659
12968TIP3    H238848   6.154   3.444   6.532
12969TIP3   OH238849   1.403   1.542   0.240
12969TIP3    H138850   1.342   1.504   0.177
12969TIP3    H238851   1.387   1.494   0.321
12970TIP3   OH238852   5.645   5.881   2.349
12970TIP3    H138853   5.615   5.946   2.285
12970TIP3    H238854   5.680   5.933   2.421
12971TIP3   OH238855   1.849   0.416   4.746
12971TIP3    H138856   1.849   0.485   4.680
12971TIP3    H238857   1.904   0.449   4.817
12972TIP3   OH238858   6.286   7.696   0.038
12972TIP3    H138859   6.370   7.725   0.002
12972TIP3    H238860   6.289   7.600   0.034
12973TIP3   OH238861   3.667   5.335   1.858
12973TIP3    H138862   3.734   5.273   1.888
12973TIP3    H238863   3.638   5.380   1.938
12974TIP3   OH238864   4.013   5.375   2.478
12974TIP3    H138865   3.940   5.394   2.538
12974TIP3    H238866   4.063   5.457   2.475
12975TIP3   OH238867   1.383   2.695   1.109
12975TIP3    H138868   1.414   2.775   1.151
12975TIP3    H238869   1.368   2.634   1.182
12976TIP3   OH238870   7.999   5.880   6.293
12976TIP3    H138871   8.006   5.975   6.283
12976TIP3    H238872   8.087   5.852   6.317
12977TIP3   OH238873   7.915   7.472   3.130
12977TIP3    H138874   7.882   7.476   3.220
12977TIP3    H238875   7.939   7.562   3.110
12978TIP3   OH238876   5.244   0.906   0.537
12978TIP3    H138877   5.202   0.848   0.600
12978TIP3    H238878   5.230   0.994   0.573
12979TIP3   OH238879   5.783   7.617   3.234
12979TIP3    H138880   5.777   7.522   3.224
12979TIP3    H238881   5.701   7.642   3.277
12980TIP3   OH238882   2.390   7.088   6.658
12980TIP3    H138883   2.310   7.039   6.673
12980TIP3    H238884   2.391   7.105   6.563
12981TIP3   OH238885   2.669   3.438   2.315
12981TIP3    H138886   2.673   3.520   2.363
12981TIP3    H238887   2.611   3.457   2.240
12982TIP3   OH238888   5.279   5.606   4.461
12982TIP3    H138889   5.349   5.627   4.524
12982TIP3    H238890   5.303   5.654   4.382
12983TIP3   OH238891   7.353   1.733   0.716
12983TIP3    H138892   7.261   1.760   0.713
12983TIP3    H238893   7.362   1.672   0.643
12984TIP3   OH238894   0.763   6.940   5.548
12984TIP3    H138895   0.701   6.868   5.534
12984TIP3    H238896   0.829   6.927   5.480
12985TIP3   OH238897   5.501   3.639   0.587
12985TIP3    H138898   5.492   3.556   0.540
12985TIP3    H238899   5.560   3.691   0.534
12986TIP3   OH238900   2.102   5.929   2.613
12986TIP3    H138901   2.174   5.897   2.558
12986TIP3    H238902   2.072   6.009   2.569
12987TIP3   OH238903   6.668   4.831   4.525
12987TIP3    H138904   6.587   4.877   4.547
12987TIP3    H238905   6.730   4.858   4.593
12988TIP3   OH238906   3.782   3.359   2.492
12988TIP3    H138907   3.795   3.440   2.541
12988TIP3    H238908   3.868   3.316   2.495
12989TIP3   OH238909   3.653   7.753   1.492
12989TIP3    H138910   3.575   7.755   1.547
12989TIP3    H238911   3.721   7.793   1.546
12990TIP3   OH238912   2.335   6.002   2.419
12990TIP3    H138913   2.300   5.930   2.367
12990TIP3    H238914   2.374   6.061   2.354
12991TIP3   OH238915   0.275   7.649   4.412
12991TIP3    H138916   0.266   7.566   4.366
12991TIP3    H238917   0.195   7.657   4.464
12992TIP3   OH238918   6.671   3.226   6.523
12992TIP3    H138919   6.691   3.299   6.465
12992TIP3    H238920   6.613   3.263   6.589
12993TIP3   OH238921   3.179   2.225   3.860
12993TIP3    H138922   3.150   2.150   3.913
12993TIP3    H238923   3.141   2.210   3.774
12994TIP3   OH238924   4.297   7.644   0.330
12994TIP3    H138925   4.264   7.722   0.375
12994TIP3    H238926   4.238   7.574   0.357
12995TIP3   OH238927   7.106   1.390   5.227
12995TIP3    H138928   7.133   1.482   5.231
12995TIP3    H238929   7.113   1.367   5.135
12996TIP3   OH238930   7.313   2.585   0.860
12996TIP3    H138931   7.231   2.572   0.907
12996TIP3    H238932   7.350   2.665   0.898
12997TIP3   OH238933   7.759   4.085   3.964
12997TIP3    H138934   7.818   4.119   4.032
12997TIP3    H238935   7.685   4.145   3.964
12998TIP3   OH238936   3.024   0.591   3.688
12998TIP3    H138937   2.980   0.630   3.764
12998TIP3    H238938   3.114   0.623   3.694
12999TIP3   OH238939   6.811   7.146   5.329
12999TIP3    H138940   6.872   7.083   5.367
12999TIP3    H238941   6.808   7.125   5.236
13000TIP3   OH238942   5.949   4.554   1.386
13000TIP3    H138943   6.039   4.534   1.359
13000TIP3    H238944   5.945   4.650   1.384
13001TIP3   OH238945   4.763   1.888   3.848
13001TIP3    H138946   4.796   1.910   3.935
13001TIP3    H238947   4.721   1.803   3.859
13002TIP3   OH238948   7.525   0.249   1.536
13002TIP3    H138949   7.528   0.262   1.441
13002TIP3    H238950   7.517   0.337   1.572
13003TIP3   OH238951   0.122   4.980   4.909
13003TIP3    H138952   0.130   4.979   5.005
13003TIP3    H238953   0.199   5.028   4.879
13004TIP3   OH238954   4.862   7.211   3.684
13004TIP3    H138955   4.821   7.260   3.613
13004TIP3    H238956   4.913   7.277   3.732
13005TIP3   OH238957   4.460   3.007   6.048
13005TIP3    H138958   4.370   2.975   6.041
13005TIP3    H238959   4.510   2.931   6.076
13006TIP3   OH238960   3.465   5.631   5.270
13006TIP3    H138961   3.386   5.598   5.313
13006TIP3    H238962   3.501   5.694   5.332
13007TIP3   OH238963   1.798   1.618   5.241
13007TIP3    H138964   1.715   1.606   5.287
13007TIP3    H238965   1.796   1.551   5.172
13008TIP3   OH238966   0.625   5.636   6.335
13008TIP3    H138967   0.595   5.549   6.309
13008TIP3    H238968   0.565   5.663   6.404
13009TIP3   OH238969   2.034   1.264   3.143
13009TIP3    H138970   2.100   1.196   3.128
13009TIP3    H238971   1.972   1.224   3.204
13010TIP3   OH238972   7.330   5.250   0.500
13010TIP3    H138973   7.319   5.345   0.505
13010TIP3    H238974   7.286   5.217   0.578
13011TIP3   OH238975   0.097   5.164   0.131
13011TIP3    H138976   0.116   5.119   0.050
13011TIP3    H238977   0.181   5.174   0.175
13012TIP3   OH238978   6.455   1.713   2.106
13012TIP3    H138979   6.509   1.738   2.031
13012TIP3    H238980   6.469   1.619   2.114
13013TIP3   OH238981   0.259   2.212   2.616
13013TIP3    H138982   0.350   2.243   2.616
13013TIP3    H238983   0.216   2.262   2.684
13014TIP3   OH238984   1.251   2.022   5.656
13014TIP3    H138985   1.257   2.116   5.638
13014TIP3    H238986   1.278   2.013   5.747
13015TIP3   OH238987   2.767   7.456   1.891
13015TIP3    H138988   2.859   7.455   1.864
13015TIP3    H238989   2.770   7.456   1.987
13016TIP3   OH238990   1.525   2.391   1.243
13016TIP3    H138991   1.584   2.374   1.169
13016TIP3    H238992   1.574   2.453   1.298
13017TIP3   OH238993   2.450   0.641   0.566
13017TIP3    H138994   2.419   0.685   0.646
13017TIP3    H238995   2.464   0.550   0.592
13018TIP3   OH238996   1.435   3.352   0.337
13018TIP3    H138997   1.496   3.326   0.268
13018TIP3    H238998   1.350   3.318   0.308
13019TIP3   OH238999   6.883   2.855   6.667
13019TIP3    H139000   6.813   2.807   6.622
13019TIP3    H239001   6.883   2.819   6.756
13020TIP3   OH239002   7.148   4.217   2.809
13020TIP3    H139003   7.128   4.306   2.781
13020TIP3    H239004   7.216   4.228   2.876
13021TIP3   OH239005   7.573   0.961   1.739
13021TIP3    H139006   7.539   1.049   1.726
13021TIP3    H239007   7.615   0.962   1.824
13022TIP3   OH239008   2.129   3.335   0.978
13022TIP3    H139009   2.211   3.350   1.025
13022TIP3    H239010   2.114   3.241   0.984
13023TIP3   OH239011   6.816   3.480   3.700
13023TIP3    H139012   6.880   3.496   3.769
13023TIP3    H239013   6.769   3.402   3.728
13024TIP3   OH239014   1.172   7.372   5.927
13024TIP3    H139015   1.253   7.343   5.968
13024TIP3    H239016   1.143   7.297   5.875
13025TIP3   OH239017   0.098   3.145   4.642
13025TIP3    H139018   0.087   3.182   4.730
13025TIP3    H239019   0.064   3.056   4.649
13026TIP3   OH239020   7.362   2.210   0.072
13026TIP3    H139021   7.270   2.198   0.050
13026TIP3    H239022   7.409   2.196  -0.010
13027TIP3   OH239023   1.335   4.320   4.146
13027TIP3    H139024   1.414   4.304   4.197
13027TIP3    H239025   1.340   4.412   4.121
13028TIP3   OH239026   3.457   0.038   2.771
13028TIP3    H139027   3.550   0.054   2.754
13028TIP3    H239028   3.451  -0.056   2.788
13029TIP3   OH239029   0.212   0.718   0.918
13029TIP3    H139030   0.253   0.632   0.929
13029TIP3    H239031   0.282   0.774   0.885
13030TIP3   OH239032   3.021   6.354   2.800
13030TIP3    H139033   3.009   6.431   2.855
13030TIP3    H239034   2.991   6.281   2.854
13031TIP3   OH239035   6.593   5.875   5.220
13031TIP3    H139036   6.641   5.899   5.140
13031TIP3    H239037   6.541   5.799   5.195
13032TIP3   OH239038   0.771   0.316   6.057
13032TIP3    H139039   0.846   0.344   6.003
13032TIP3    H239040   0.697   0.317   5.997
13033TIP3   OH239041   6.418   5.535   5.834
13033TIP3    H139042   6.376   5.543   5.748
13033TIP3    H239043   6.384   5.609   5.884
13034TIP3   OH239044   5.849   1.743   2.178
13034TIP3    H139045   5.931   1.783   2.207
13034TIP3    H239046   5.875   1.683   2.107
13035TIP3   OH239047   6.579   7.383   4.451
13035TIP3    H139048   6.570   7.478   4.465
13035TIP3    H239049   6.654   7.374   4.392
13036TIP3   OH239050   5.956   7.376   6.486
13036TIP3    H139051   5.912   7.305   6.532
13036TIP3    H239052   6.008   7.420   6.553
13037TIP3   OH239053   1.687   2.988   1.880
13037TIP3    H139054   1.640   2.904   1.887
13037TIP3    H239055   1.767   2.967   1.832
13038TIP3   OH239056   1.998   6.176   1.455
13038TIP3    H139057   2.029   6.107   1.513
13038TIP3    H239058   2.078   6.224   1.430
13039TIP3   OH239059   2.911   2.452   3.818
13039TIP3    H139060   2.923   2.505   3.896
13039TIP3    H239061   2.999   2.424   3.794
13040TIP3   OH239062   5.947   6.756   1.202
13040TIP3    H139063   5.908   6.701   1.269
13040TIP3    H239064   5.892   6.742   1.124
13041TIP3   OH239065   1.990   1.462   4.204
13041TIP3    H139066   1.911   1.424   4.243
13041TIP3    H239067   1.959   1.503   4.123
13042TIP3   OH239068   5.453   4.313   5.325
13042TIP3    H139069   5.419   4.233   5.284
13042TIP3    H239070   5.409   4.384   5.279
13043TIP3   OH239071   3.732   0.867   2.696
13043TIP3    H139072   3.646   0.826   2.706
13043TIP3    H239073   3.795   0.796   2.710
13044TIP3   OH239074   0.351   1.948   2.551
13044TIP3    H139075   0.283   1.924   2.614
13044TIP3    H239076   0.362   2.042   2.561
13045TIP3   OH239077   7.242   7.391   2.422
13045TIP3    H139078   7.245   7.434   2.508
13045TIP3    H239079   7.283   7.306   2.437
13046TIP3   OH239080   7.755   5.840   3.002
13046TIP3    H139081   7.823   5.818   3.065
13046TIP3    H239082   7.802   5.848   2.919
13047TIP3   OH239083   6.791   7.322   2.477
13047TIP3    H139084   6.886   7.321   2.493
13047TIP3    H239085   6.771   7.233   2.448
13048TIP3   OH239086   7.756   6.533   1.336
13048TIP3    H139087   7.779   6.501   1.248
13048TIP3    H239088   7.840   6.549   1.378
13049TIP3   OH239089   1.513   7.288   1.179
13049TIP3    H139090   1.591   7.234   1.191
13049TIP3    H239091   1.444   7.226   1.156
13050TIP3   OH239092   0.670   1.979   1.416
13050TIP3    H139093   0.709   2.047   1.361
13050TIP3    H239094   0.737   1.960   1.481
13051TIP3   OH239095   3.090   0.137   5.171
13051TIP3    H139096   3.011   0.113   5.219
13051TIP3    H239097   3.162   0.100   5.222
13052TIP3   OH239098   7.221   2.179   2.023
13052TIP3    H139099   7.313   2.180   1.995
13052TIP3    H239100   7.224   2.201   2.117
13053TIP3   OH239101   4.207   6.962   1.232
13053TIP3    H139102   4.230   6.879   1.275
13053TIP3    H239103   4.219   7.028   1.300
13054TIP3   OH239104   5.483   3.557   5.942
13054TIP3    H139105   5.448   3.641   5.973
13054TIP3    H239106   5.471   3.561   5.847
13055TIP3   OH239107   2.129   4.325   6.103
13055TIP3    H139108   2.093   4.253   6.051
13055TIP3    H239109   2.150   4.286   6.187
13056TIP3   OH239110   2.198   6.378   3.333
13056TIP3    H139111   2.285   6.413   3.353
13056TIP3    H239112   2.140   6.454   3.334
13057TIP3   OH239113   7.793   5.296   4.902
13057TIP3    H139114   7.729   5.283   4.971
13057TIP3    H239115   7.789   5.390   4.882
13058TIP3   OH239116   0.203   3.212   4.379
13058TIP3    H139117   0.235   3.126   4.405
13058TIP3    H239118   0.152   3.243   4.454
13059TIP3   OH239119   6.141   2.181   6.253
13059TIP3    H139120   6.115   2.137   6.334
13059TIP3    H239121   6.237   2.180   6.256
13060TIP3   OH239122   8.081   1.312   3.120
13060TIP3    H139123   8.105   1.355   3.038
13060TIP3    H239124   8.011   1.251   3.096
13061TIP3   OH239125   1.146   5.277   1.425
13061TIP3    H139126   1.197   5.227   1.488
13061TIP3    H239127   1.212   5.323   1.373
13062TIP3   OH239128   1.197   1.296   2.034
13062TIP3    H139129   1.280   1.327   1.997
13062TIP3    H239130   1.173   1.221   1.979
13063TIP3   OH239131   0.486   6.154   3.705
13063TIP3    H139132   0.400   6.133   3.671
13063TIP3    H239133   0.546   6.096   3.657
13064TIP3   OH239134   4.433   1.098   5.336
13064TIP3    H139135   4.525   1.090   5.310
13064TIP3    H239136   4.437   1.138   5.423
13065TIP3   OH239137   1.367   5.295   1.714
13065TIP3    H139138   1.310   5.372   1.711
13065TIP3    H239139   1.418   5.307   1.794
13066TIP3   OH239140   6.436   2.205   6.257
13066TIP3    H139141   6.480   2.187   6.340
13066TIP3    H239142   6.446   2.299   6.244
13067TIP3   OH239143   6.414   2.629   0.831
13067TIP3    H139144   6.509   2.620   0.841
13067TIP3    H239145   6.403   2.664   0.743
13068TIP3   OH239146   6.559   4.837   5.554
13068TIP3    H139147   6.647   4.811   5.580
13068TIP3    H239148   6.511   4.755   5.545
13069TIP3   OH239149   2.290   0.436   4.730
13069TIP3    H139150   2.385   0.424   4.735
13069TIP3    H239151   2.257   0.402   4.813
13070TIP3   OH239152   4.621   3.896   0.840
13070TIP3    H139153   4.604   3.891   0.934
13070TIP3    H239154   4.717   3.904   0.833
13071TIP3   OH239155   1.416   5.010   5.468
13071TIP3    H139156   1.468   5.007   5.549
13071TIP3    H239157   1.394   4.919   5.450
13072TIP3   OH239158   4.793   7.066   5.765
13072TIP3    H139159   4.771   6.993   5.823
13072TIP3    H239160   4.721   7.068   5.702
13073TIP3   OH239161   2.761   6.255   4.610
13073TIP3    H139162   2.844   6.284   4.571
13073TIP3    H239163   2.700   6.327   4.592
13074TIP3   OH239164   0.290   6.064   4.834
13074TIP3    H139165   0.224   6.081   4.767
13074TIP3    H239166   0.244   6.076   4.917
13075TIP3   OH239167   5.832   0.073   5.425
13075TIP3    H139168   5.767   0.125   5.379
13075TIP3    H239169   5.859   0.128   5.499
13076TIP3   OH239170   7.937   4.547   6.129
13076TIP3    H139171   8.027   4.533   6.100
13076TIP3    H239172   7.912   4.631   6.090
13077TIP3   OH239173   0.208   5.397   4.664
13077TIP3    H139174   0.266   5.447   4.607
13077TIP3    H239175   0.122   5.401   4.621
13078TIP3   OH239176   3.374   5.440   4.348
13078TIP3    H139177   3.394   5.372   4.283
13078TIP3    H239178   3.369   5.392   4.431
13079TIP3   OH239179   1.445   6.846   0.526
13079TIP3    H139180   1.500   6.769   0.543
13079TIP3    H239181   1.359   6.809   0.504
13080TIP3   OH239182   7.377   4.404   1.672
13080TIP3    H139183   7.316   4.406   1.745
13080TIP3    H239184   7.354   4.481   1.620
13081TIP3   OH239185   8.171   1.215   0.564
13081TIP3    H139186   8.133   1.298   0.534
13081TIP3    H239187   8.251   1.242   0.610
13082TIP3   OH239188   6.573   4.823   3.001
13082TIP3    H139189   6.600   4.881   2.929
13082TIP3    H239190   6.480   4.808   2.986
13083TIP3   OH239191   2.404   4.360   1.430
13083TIP3    H139192   2.444   4.445   1.445
13083TIP3    H239193   2.463   4.316   1.369
13084TIP3   OH239194   6.863   2.361   2.768
13084TIP3    H139195   6.833   2.361   2.677
13084TIP3    H239196   6.840   2.274   2.801
13085TIP3   OH239197   2.309   5.137   1.542
13085TIP3    H139198   2.345   5.214   1.499
13085TIP3    H239199   2.254   5.096   1.475
13086TIP3   OH239200   7.507   7.148   5.212
13086TIP3    H139201   7.414   7.157   5.189
13086TIP3    H239202   7.535   7.067   5.170
13087TIP3   OH239203   4.967   7.606   2.337
13087TIP3    H139204   4.972   7.631   2.429
13087TIP3    H239205   5.023   7.528   2.330
13088TIP3   OH239206   0.285   0.746   3.641
13088TIP3    H139207   0.288   0.727   3.734
13088TIP3    H239208   0.223   0.682   3.605
13089TIP3   OH239209   0.699   2.308   4.532
13089TIP3    H139210   0.748   2.319   4.450
13089TIP3    H239211   0.755   2.348   4.598
13090TIP3   OH239212   7.062   4.390   6.628
13090TIP3    H139213   7.007   4.452   6.581
13090TIP3    H239214   7.152   4.416   6.607
13091TIP3   OH239215   4.192   4.180   3.311
13091TIP3    H139216   4.287   4.173   3.318
13091TIP3    H239217   4.176   4.205   3.221
13092TIP3   OH239218   2.545   1.587   1.931
13092TIP3    H139219   2.471   1.646   1.947
13092TIP3    H239220   2.618   1.645   1.911
13093TIP3   OH239221   7.319   5.140   1.587
13093TIP3    H139222   7.290   5.210   1.529
13093TIP3    H239223   7.391   5.098   1.540
13094TIP3   OH239224   3.701   3.936   6.162
13094TIP3    H139225   3.610   3.944   6.190
13094TIP3    H239226   3.696   3.899   6.074
13095TIP3   OH239227   3.716   0.488   5.506
13095TIP3    H139228   3.755   0.575   5.520
13095TIP3    H239229   3.642   0.504   5.449
13096TIP3   OH239230   3.298   3.749   5.273
13096TIP3    H139231   3.266   3.746   5.182
13096TIP3    H239232   3.346   3.831   5.278
13097TIP3   OH239233   3.191   2.108   1.369
13097TIP3    H139234   3.187   2.134   1.276
13097TIP3    H239235   3.171   2.014   1.368
13098TIP3   OH239236   4.815   6.492   2.247
13098TIP3    H139237   4.769   6.415   2.214
13098TIP3    H239238   4.900   6.458   2.278
13099TIP3   OH239239   5.938   6.646   2.332
13099TIP3    H139240   6.032   6.663   2.337
13099TIP3    H239241   5.912   6.629   2.423
13100TIP3   OH239242   2.592   0.225   1.523
13100TIP3    H139243   2.687   0.235   1.515
13100TIP3    H239244   2.559   0.313   1.541
13101TIP3   OH239245   4.255   4.500   6.870
13101TIP3    H139246   4.257   4.595   6.884
13101TIP3    H239247   4.188   4.488   6.802
13102TIP3   OH239248   1.783   1.263   2.774
13102TIP3    H139249   1.762   1.223   2.858
13102TIP3    H239250   1.739   1.208   2.709
13103TIP3   OH239251   0.408   1.592   2.852
13103TIP3    H139252   0.337   1.651   2.827
13103TIP3    H239253   0.403   1.588   2.948
13104TIP3   OH239254   1.608   4.031   0.274
13104TIP3    H139255   1.593   4.063   0.363
13104TIP3    H239256   1.674   4.092   0.238
13105TIP3   OH239257   1.885   6.742   1.220
13105TIP3    H139258   1.929   6.672   1.268
13105TIP3    H239259   1.792   6.720   1.225
13106TIP3   OH239260   5.039   3.581   4.666
13106TIP3    H139261   4.974   3.650   4.653
13106TIP3    H239262   4.992   3.512   4.712
13107TIP3   OH239263   1.579   6.365   6.593
13107TIP3    H139264   1.541   6.452   6.585
13107TIP3    H239265   1.668   6.374   6.561
13108TIP3   OH239266   6.995   1.544   2.664
13108TIP3    H139267   6.913   1.580   2.696
13108TIP3    H239268   7.042   1.620   2.627
13109TIP3   OH239269   3.335   1.726   5.617
13109TIP3    H139270   3.301   1.794   5.675
13109TIP3    H239271   3.348   1.650   5.674
13110TIP3   OH239272   3.679   3.174   6.601
13110TIP3    H139273   3.609   3.109   6.609
13110TIP3    H239274   3.683   3.215   6.687
13111TIP3   OH239275   1.821   3.067   0.833
13111TIP3    H139276   1.750   3.088   0.772
13111TIP3    H239277   1.779   3.015   0.901
13112TIP3   OH239278   5.471   5.078   3.330
13112TIP3    H139279   5.407   5.055   3.398
13112TIP3    H239280   5.506   5.163   3.357
13113TIP3   OH239281   1.110   7.140   4.214
13113TIP3    H139282   1.115   7.171   4.304
13113TIP3    H239283   1.050   7.065   4.219
13114TIP3   OH239284   0.116   2.809   2.140
13114TIP3    H139285   0.069   2.813   2.057
13114TIP3    H239286   0.198   2.763   2.119
13115TIP3   OH239287   7.482   4.544   1.323
13115TIP3    H139288   7.541   4.471   1.342
13115TIP3    H239289   7.397   4.503   1.310
13116TIP3   OH239290   6.776   5.133   2.132
13116TIP3    H139291   6.864   5.109   2.101
13116TIP3    H239292   6.738   5.050   2.160
13117TIP3   OH239293   2.585   5.619   5.078
13117TIP3    H139294   2.551   5.686   5.018
13117TIP3    H239295   2.554   5.536   5.042
13118TIP3   OH239296   0.455   2.253   0.669
13118TIP3    H139297   0.467   2.272   0.576
13118TIP3    H239298   0.541   2.270   0.708
13119TIP3   OH239299   3.933   7.575   4.510
13119TIP3    H139300   3.921   7.612   4.597
13119TIP3    H239301   3.888   7.637   4.451
13120TIP3   OH239302   5.130   5.127   3.356
13120TIP3    H139303   5.058   5.078   3.395
13120TIP3    H239304   5.119   5.115   3.261
13121TIP3   OH239305   2.255   1.007   5.697
13121TIP3    H139306   2.197   1.074   5.662
13121TIP3    H239307   2.275   1.036   5.786
13122TIP3   OH239308   1.042   0.301   5.383
13122TIP3    H139309   1.081   0.215   5.399
13122TIP3    H239310   1.005   0.294   5.295
13123TIP3   OH239311   3.168   1.944   0.656
13123TIP3    H139312   3.248   1.991   0.631
13123TIP3    H239313   3.198   1.859   0.687
13124TIP3   OH239314   5.112   5.709   2.151
13124TIP3    H139315   5.193   5.689   2.103
13124TIP3    H239316   5.125   5.668   2.237
13125TIP3   OH239317   5.559   5.965   5.676
13125TIP3    H139318   5.526   5.964   5.586
13125TIP3    H239319   5.507   5.899   5.721
13126TIP3   OH239320   4.067   2.372   6.141
13126TIP3    H139321   4.013   2.294   6.133
13126TIP3    H239322   4.137   2.359   6.076
13127TIP3   OH239323   5.867   0.333   0.282
13127TIP3    H139324   5.903   0.376   0.361
13127TIP3    H239325   5.917   0.252   0.274
13128TIP3   OH239326   7.061   1.061   1.781
13128TIP3    H139327   7.067   1.125   1.710
13128TIP3    H239328   6.987   1.005   1.758
13129TIP3   OH239329   8.026   6.903   0.795
13129TIP3    H139330   7.940   6.930   0.829
13129TIP3    H239331   8.041   6.817   0.835
13130TIP3   OH239332   2.990   7.261   4.499
13130TIP3    H139333   3.083   7.239   4.500
13130TIP3    H239334   2.982   7.328   4.432
13131TIP3   OH239335   6.247   5.775   5.565
13131TIP3    H139336   6.167   5.811   5.602
13131TIP3    H239337   6.238   5.681   5.576
13132TIP3   OH239338   7.632   4.585   3.559
13132TIP3    H139339   7.592   4.634   3.486
13132TIP3    H239340   7.662   4.653   3.619
13133TIP3   OH239341   5.100   6.086   1.971
13133TIP3    H139342   5.038   6.054   2.036
13133TIP3    H239343   5.080   6.180   1.963
13134TIP3   OH239344   0.477   4.630   4.440
13134TIP3    H139345   0.479   4.702   4.503
13134TIP3    H239346   0.429   4.665   4.365
13135TIP3   OH239347   2.997   6.945   0.174
13135TIP3    H139348   2.904   6.928   0.191
13135TIP3    H239349   3.012   6.914   0.085
13136TIP3   OH239350   6.719   5.848   1.314
13136TIP3    H139351   6.786   5.792   1.352
13136TIP3    H239352   6.667   5.877   1.389
13137TIP3   OH239353   4.276   0.084   2.271
13137TIP3    H139354   4.257   0.171   2.236
13137TIP3    H239355   4.208   0.068   2.336
13138TIP3   OH239356   4.140   7.191   1.416
13138TIP3    H139357   4.144   7.279   1.378
13138TIP3    H239358   4.055   7.187   1.458
13139TIP3   OH239359   0.557   5.344   4.670
13139TIP3    H139360   0.616   5.379   4.737
13139TIP3    H239361   0.478   5.396   4.679
13140TIP3   OH239362   0.755   7.323   4.416
13140TIP3    H139363   0.733   7.232   4.397
13140TIP3    H239364   0.687   7.352   4.476
13141TIP3   OH239365   4.067   4.816   4.798
13141TIP3    H139366   4.132   4.882   4.773
13141TIP3    H239367   4.032   4.846   4.881
13142TIP3   OH239368   5.217   1.885   0.668
13142TIP3    H139369   5.205   1.933   0.750
13142TIP3    H239370   5.216   1.954   0.601
13143TIP3   OH239371   1.619   3.607   1.547
13143TIP3    H139372   1.631   3.643   1.635
13143TIP3    H239373   1.547   3.659   1.510
13144TIP3   OH239374   6.808   4.692   3.465
13144TIP3    H139375   6.857   4.769   3.437
13144TIP3    H239376   6.815   4.631   3.391
13145TIP3   OH239377   1.136   0.428   5.030
13145TIP3    H139378   1.192   0.474   4.968
13145TIP3    H239379   1.194   0.409   5.104
13146TIP3   OH239380   1.387   5.902   1.553
13146TIP3    H139381   1.444   5.949   1.614
13146TIP3    H239382   1.442   5.832   1.519
13147TIP3   OH239383   7.194   5.254   4.008
13147TIP3    H139384   7.191   5.332   4.063
13147TIP3    H239385   7.116   5.204   4.033
13148TIP3   OH239386   2.802   5.511   1.774
13148TIP3    H139387   2.846   5.458   1.841
13148TIP3    H239388   2.872   5.547   1.721
13149TIP3   OH239389   0.334   4.326   0.055
13149TIP3    H139390   0.333   4.253   0.117
13149TIP3    H239391   0.258   4.310  -0.001
13150TIP3   OH239392   5.922   4.392   6.117
13150TIP3    H139393   5.975   4.315   6.138
13150TIP3    H239394   5.904   4.384   6.024
13151TIP3   OH239395   2.615   3.075   3.838
13151TIP3    H139396   2.609   3.119   3.923
13151TIP3    H239397   2.619   3.147   3.775
13152TIP3   OH239398   0.588   5.344   6.288
13152TIP3    H139399   0.565   5.349   6.381
13152TIP3    H239400   0.511   5.306   6.246
13153TIP3   OH239401   1.611   0.400   1.937
13153TIP3    H139402   1.607   0.491   1.906
13153TIP3    H239403   1.523   0.384   1.972
13154TIP3   OH239404   1.974   0.627   2.503
13154TIP3    H139405   1.917   0.652   2.576
13154TIP3    H239406   1.989   0.533   2.515
13155TIP3   OH239407   2.405   6.898   3.144
13155TIP3    H139408   2.320   6.894   3.099
13155TIP3    H239409   2.393   6.841   3.220
13156TIP3   OH239410   2.411   1.667   0.181
13156TIP3    H139411   2.416   1.742   0.122
13156TIP3    H239412   2.338   1.688   0.240
13157TIP3   OH239413   1.850   1.046   0.609
13157TIP3    H139414   1.928   1.074   0.561
13157TIP3    H239415   1.821   0.968   0.562
13158TIP3   OH239416   7.064   3.328   3.598
13158TIP3    H139417   6.994   3.379   3.639
13158TIP3    H239418   7.068   3.247   3.650
13159TIP3   OH239419   0.809   1.695   0.463
13159TIP3    H139420   0.787   1.628   0.527
13159TIP3    H239421   0.798   1.651   0.378
13160TIP3   OH239422   3.273   7.220   4.572
13160TIP3    H139423   3.264   7.313   4.596
13160TIP3    H239424   3.354   7.217   4.521
13161TIP3   OH239425   0.108   3.711   4.032
13161TIP3    H139426   0.030   3.696   4.086
13161TIP3    H239427   0.119   3.806   4.030
13162TIP3   OH239428   0.183   6.485   6.038
13162TIP3    H139429   0.219   6.571   6.020
13162TIP3    H239430   0.258   6.426   6.035
13163TIP3   OH239431   1.007   4.144   1.224
13163TIP3    H139432   0.959   4.197   1.287
13163TIP3    H239433   1.084   4.112   1.272
13164TIP3   OH239434   1.821   2.073   4.035
13164TIP3    H139435   1.740   2.125   4.036
13164TIP3    H239436   1.792   1.984   4.014
13165TIP3   OH239437   1.601   3.383   4.168
13165TIP3    H139438   1.564   3.422   4.089
13165TIP3    H239439   1.614   3.457   4.227
13166TIP3   OH239440   1.155   1.774   0.437
13166TIP3    H139441   1.104   1.702   0.400
13166TIP3    H239442   1.165   1.836   0.365
13167TIP3   OH239443   5.522   1.075   4.338
13167TIP3    H139444   5.465   1.141   4.300
13167TIP3    H239445   5.510   0.998   4.282
13168TIP3   OH239446   3.290   3.138   3.459
13168TIP3    H139447   3.251   3.119   3.373
13168TIP3    H239448   3.382   3.158   3.440
13169TIP3   OH239449   1.198   6.187   4.331
13169TIP3    H139450   1.130   6.161   4.269
13169TIP3    H239451   1.162   6.165   4.417
13170TIP3   OH239452   3.941   7.694   2.662
13170TIP3    H139453   3.944   7.771   2.606
13170TIP3    H239454   3.849   7.667   2.661
13171TIP3   OH239455   4.388   4.666   2.386
13171TIP3    H139456   4.480   4.691   2.392
13171TIP3    H239457   4.388   4.570   2.394
13172TIP3   OH239458   3.758   5.767   0.443
13172TIP3    H139459   3.681   5.821   0.425
13172TIP3    H239460   3.826   5.802   0.385
13173TIP3   OH239461   0.108   0.793   6.528
13173TIP3    H139462   0.022   0.811   6.565
13173TIP3    H239463   0.108   0.839   6.444
13174TIP3   OH239464   0.430   2.882   5.354
13174TIP3    H139465   0.519   2.877   5.391
13174TIP3    H239466   0.433   2.957   5.295
13175TIP3   OH239467   4.633   0.382   5.118
13175TIP3    H139468   4.728   0.370   5.116
13175TIP3    H239469   4.606   0.366   5.028
13176TIP3   OH239470   5.940   0.936   2.420
13176TIP3    H139471   5.962   0.987   2.498
13176TIP3    H239472   5.981   0.984   2.348
13177TIP3   OH239473   2.493   5.979   2.676
13177TIP3    H139474   2.464   5.984   2.585
13177TIP3    H239475   2.461   6.060   2.716
13178TIP3   OH239476   6.377   0.914   2.887
13178TIP3    H139477   6.425   0.987   2.926
13178TIP3    H239478   6.395   0.921   2.793
13179TIP3   OH239479   6.655   3.558   2.439
13179TIP3    H139480   6.622   3.542   2.527
13179TIP3    H239481   6.628   3.482   2.388
13180TIP3   OH239482   4.157   6.521   4.442
13180TIP3    H139483   4.208   6.448   4.477
13180TIP3    H239484   4.109   6.555   4.518
13181TIP3   OH239485   6.647   3.742   3.749
13181TIP3    H139486   6.737   3.732   3.719
13181TIP3    H239487   6.623   3.656   3.784
13182TIP3   OH239488   4.886   5.197   6.492
13182TIP3    H139489   4.816   5.192   6.427
13182TIP3    H239490   4.932   5.113   6.484
13183TIP3   OH239491   0.874   4.512   6.093
13183TIP3    H139492   0.948   4.520   6.032
13183TIP3    H239493   0.905   4.452   6.161
13184TIP3   OH239494   0.210   1.302   6.324
13184TIP3    H139495   0.245   1.283   6.237
13184TIP3    H239496   0.249   1.235   6.380
13185TIP3   OH239497   2.894   0.746   2.757
13185TIP3    H139498   2.884   0.654   2.736
13185TIP3    H239499   2.820   0.766   2.815
13186TIP3   OH239500   6.089   0.117   1.193
13186TIP3    H139501   6.089   0.206   1.157
13186TIP3    H239502   6.037   0.124   1.273
13187TIP3   OH239503   6.435   2.209   0.943
13187TIP3    H139504   6.397   2.157   1.014
13187TIP3    H239505   6.369   2.276   0.924
13188TIP3   OH239506   0.826   4.940   0.852
13188TIP3    H139507   0.740   4.956   0.812
13188TIP3    H239508   0.879   4.903   0.781
13189TIP3   OH239509   0.920   4.391   6.545
13189TIP3    H139510   1.002   4.392   6.495
13189TIP3    H239511   0.916   4.302   6.581
13190TIP3   OH239512   2.674   1.266   2.412
13190TIP3    H139513   2.588   1.251   2.373
13190TIP3    H239514   2.679   1.361   2.424
13191TIP3   OH239515   7.795   7.447   1.785
13191TIP3    H139516   7.779   7.531   1.827
13191TIP3    H239517   7.883   7.456   1.748
13192TIP3   OH239518   5.406   6.629   4.929
13192TIP3    H139519   5.373   6.552   4.976
13192TIP3    H239520   5.328   6.673   4.896
13193TIP3   OH239521   8.161   2.582   4.296
13193TIP3    H139522   8.114   2.624   4.223
13193TIP3    H239523   8.209   2.654   4.338
13194TIP3   OH239524   3.381   1.902   0.895
13194TIP3    H139525   3.330   1.983   0.901
13194TIP3    H239526   3.415   1.901   0.806
13195TIP3   OH239527   6.634   6.046   4.051
13195TIP3    H139528   6.643   5.954   4.026
13195TIP3    H239529   6.702   6.060   4.117
13196TIP3   OH239530   4.554   1.596   1.852
13196TIP3    H139531   4.625   1.554   1.803
13196TIP3    H239532   4.568   1.690   1.838
13197TIP3   OH239533   3.069   3.978   5.394
13197TIP3    H139534   3.155   3.997   5.430
13197TIP3    H239535   3.024   4.063   5.394
13198TIP3   OH239536   7.475   6.709   4.510
13198TIP3    H139537   7.395   6.665   4.538
13198TIP3    H239538   7.523   6.727   4.591
13199TIP3   OH239539   6.491   0.399   5.561
13199TIP3    H139540   6.406   0.361   5.582
13199TIP3    H239541   6.516   0.448   5.639
13200TIP3   OH239542   0.673   5.498   2.434
13200TIP3    H139543   0.642   5.481   2.345
13200TIP3    H239544   0.764   5.526   2.423
13201TIP3   OH239545   1.196   4.907   2.164
13201TIP3    H139546   1.225   4.997   2.152
13201TIP3    H239547   1.103   4.908   2.140
13202TIP3   OH239548   4.227   1.287   1.834
13202TIP3    H139549   4.162   1.225   1.867
13202TIP3    H239550   4.190   1.373   1.855
13203TIP3   OH239551   3.542   3.768   4.522
13203TIP3    H139552   3.626   3.747   4.562
13203TIP3    H239553   3.562   3.781   4.429
13204TIP3   OH239554   5.765   3.884   4.003
13204TIP3    H139555   5.798   3.796   4.017
13204TIP3    H239556   5.676   3.872   3.971
13205TIP3   OH239557   1.200   7.007   5.209
13205TIP3    H139558   1.271   7.006   5.273
13205TIP3    H239559   1.180   7.100   5.197
13206TIP3   OH239560   7.338   3.815   6.036
13206TIP3    H139561   7.343   3.720   6.032
13206TIP3    H239562   7.244   3.834   6.031
13207TIP3   OH239563   7.020   1.406   3.464
13207TIP3    H139564   7.070   1.324   3.467
13207TIP3    H239565   7.086   1.474   3.479
13208TIP3   OH239566   6.567   0.170   3.352
13208TIP3    H139567   6.564   0.079   3.383
13208TIP3    H239568   6.521   0.220   3.419
13209TIP3   OH239569   2.220   5.012   2.549
13209TIP3    H139570   2.267   5.079   2.498
13209TIP3    H239571   2.144   4.991   2.495
13210TIP3   OH239572   3.844   7.350   1.334
13210TIP3    H139573   3.904   7.327   1.263
13210TIP3    H239574   3.783   7.412   1.294
13211TIP3   OH239575   7.341   5.682   5.168
13211TIP3    H139576   7.322   5.590   5.186
13211TIP3    H239577   7.431   5.683   5.136
13212TIP3   OH239578   1.476   3.882   1.929
13212TIP3    H139579   1.405   3.915   1.984
13212TIP3    H239580   1.461   3.922   1.844
13213TIP3   OH239581   0.555   5.360   1.662
13213TIP3    H139582   0.624   5.296   1.642
13213TIP3    H239583   0.531   5.341   1.752
13214TIP3   OH239584   2.168   0.691   4.037
13214TIP3    H139585   2.153   0.750   4.111
13214TIP3    H239586   2.245   0.726   3.993
13215TIP3   OH239587   7.437   2.169   3.936
13215TIP3    H139588   7.483   2.086   3.939
13215TIP3    H239589   7.347   2.146   3.914
13216TIP3   OH239590   4.420   6.773   2.401
13216TIP3    H139591   4.355   6.712   2.366
13216TIP3    H239592   4.402   6.777   2.495
13217TIP3   OH239593   5.194   0.894   0.068
13217TIP3    H139594   5.138   0.940   0.132
13217TIP3    H239595   5.205   0.807   0.105
13218TIP3   OH239596   3.002   7.143   2.955
13218TIP3    H139597   2.920   7.167   2.911
13218TIP3    H239598   3.063   7.123   2.884
13219TIP3   OH239599   7.387   2.018   4.542
13219TIP3    H139600   7.457   2.045   4.602
13219TIP3    H239601   7.411   2.058   4.459
13220TIP3   OH239602   7.482   2.273   4.438
13220TIP3    H139603   7.480   2.291   4.344
13220TIP3    H239604   7.563   2.222   4.451
13221TIP3   OH239605   3.020   7.596   5.227
13221TIP3    H139606   3.106   7.626   5.259
13221TIP3    H239607   3.029   7.597   5.132
13222TIP3   OH239608   6.844   7.483   2.957
13222TIP3    H139609   6.836   7.508   3.049
13222TIP3    H239610   6.935   7.455   2.947
13223TIP3   OH239611   7.965   6.386   0.024
13223TIP3    H139612   7.980   6.416  -0.066
13223TIP3    H239613   8.006   6.453   0.079
13224TIP3   OH239614   3.998   7.429   2.327
13224TIP3    H139615   3.908   7.422   2.358
13224TIP3    H239616   3.999   7.507   2.271
13225TIP3   OH239617   5.120   3.437   5.982
13225TIP3    H139618   5.174   3.478   6.049
13225TIP3    H239619   5.036   3.421   6.026
13226TIP3   OH239620   4.007   7.322   3.436
13226TIP3    H139621   3.941   7.287   3.376
13226TIP3    H239622   3.955   7.359   3.508
13227TIP3   OH239623   7.765   6.113   3.612
13227TIP3    H139624   7.769   6.136   3.519
13227TIP3    H239625   7.725   6.026   3.613
13228TIP3   OH239626   4.410   1.138   2.662
13228TIP3    H139627   4.503   1.162   2.662
13228TIP3    H239628   4.386   1.137   2.570
13229TIP3   OH239629   8.086   3.678   0.788
13229TIP3    H139630   8.071   3.759   0.837
13229TIP3    H239631   8.155   3.700   0.726
13230TIP3   OH239632   2.408   5.060   5.224
13230TIP3    H139633   2.363   5.041   5.306
13230TIP3    H239634   2.364   5.004   5.160
13231TIP3   OH239635   5.812   3.445   6.184
13231TIP3    H139636   5.768   3.529   6.196
13231TIP3    H239637   5.767   3.405   6.109
13232TIP3   OH239638   3.443   0.828   3.490
13232TIP3    H139639   3.528   0.827   3.445
13232TIP3    H239640   3.419   0.920   3.495
13233TIP3   OH239641   6.394   1.755   6.313
13233TIP3    H139642   6.319   1.807   6.282
13233TIP3    H239643   6.431   1.806   6.384
13234TIP3   OH239644   3.133   1.103   0.269
13234TIP3    H139645   3.195   1.032   0.255
13234TIP3    H239646   3.053   1.060   0.299
13235TIP3   OH239647   3.424   2.231   3.994
13235TIP3    H139648   3.484   2.179   3.941
13235TIP3    H239649   3.337   2.200   3.969
13236TIP3   OH239650   2.928   1.851   1.090
13236TIP3    H139651   2.992   1.905   1.045
13236TIP3    H239652   2.853   1.847   1.031
13237TIP3   OH239653   0.670   2.874   2.833
13237TIP3    H139654   0.606   2.827   2.885
13237TIP3    H239655   0.619   2.936   2.781
13238TIP3   OH239656   3.502   2.187   3.197
13238TIP3    H139657   3.577   2.181   3.257
13238TIP3    H239658   3.481   2.281   3.195
13239TIP3   OH239659   5.042   2.919   4.728
13239TIP3    H139660   4.984   2.993   4.744
13239TIP3    H239661   5.120   2.957   4.687
13240TIP3   OH239662   5.296   2.230   3.563
13240TIP3    H139663   5.281   2.139   3.586
13240TIP3    H239664   5.316   2.273   3.647
13241TIP3   OH239665   2.442   7.109   5.414
13241TIP3    H139666   2.460   7.040   5.477
13241TIP3    H239667   2.501   7.091   5.341
13242TIP3   OH239668   6.607   2.203   4.829
13242TIP3    H139669   6.678   2.149   4.794
13242TIP3    H239670   6.531   2.144   4.832
13243TIP3   OH239671   7.276   7.120   2.115
13243TIP3    H139672   7.230   7.200   2.089
13243TIP3    H239673   7.209   7.052   2.114
13244TIP3   OH239674   1.523   2.499   6.540
13244TIP3    H139675   1.537   2.581   6.588
13244TIP3    H239676   1.594   2.496   6.476
13245TIP3   OH239677   7.460   0.304   5.558
13245TIP3    H139678   7.387   0.342   5.508
13245TIP3    H239679   7.527   0.286   5.493
13246TIP3   OH239680   5.456   6.585   6.518
13246TIP3    H139681   5.406   6.553   6.443
13246TIP3    H239682   5.512   6.654   6.482
13247TIP3   OH239683   3.290   3.856   0.929
13247TIP3    H139684   3.263   3.773   0.970
13247TIP3    H239685   3.259   3.850   0.839
13248TIP3   OH239686   5.267   5.339   0.600
13248TIP3    H139687   5.233   5.322   0.688
13248TIP3    H239688   5.200   5.303   0.541
13249TIP3   OH239689   5.693   6.352   5.746
13249TIP3    H139690   5.734   6.266   5.753
13249TIP3    H239691   5.638   6.358   5.824
13250TIP3   OH239692   5.383   5.758   5.769
13250TIP3    H139693   5.346   5.688   5.823
13250TIP3    H239694   5.353   5.738   5.681
13251TIP3   OH239695   7.881   7.747   5.553
13251TIP3    H139696   7.838   7.813   5.608
13251TIP3    H239697   7.969   7.740   5.589
13252TIP3   OH239698   6.434   7.679   5.803
13252TIP3    H139699   6.468   7.595   5.771
13252TIP3    H239700   6.418   7.730   5.723
13253TIP3   OH239701   3.241   2.914   5.238
13253TIP3    H139702   3.263   2.821   5.230
13253TIP3    H239703   3.170   2.927   5.176
13254TIP3   OH239704   1.193   4.791   5.966
13254TIP3    H139705   1.205   4.870   6.019
13254TIP3    H239706   1.136   4.819   5.894
13255TIP3   OH239707   6.331   4.491   1.483
13255TIP3    H139708   6.409   4.474   1.430
13255TIP3    H239709   6.315   4.585   1.473
13256TIP3   OH239710   1.618   6.292   6.302
13256TIP3    H139711   1.605   6.386   6.292
13256TIP3    H239712   1.709   6.277   6.275
13257TIP3   OH239713   5.041   1.388   4.437
13257TIP3    H139714   5.003   1.476   4.428
13257TIP3    H239715   4.977   1.330   4.395
13258TIP3   OH239716   0.903   4.800   0.326
13258TIP3    H139717   0.997   4.806   0.342
13258TIP3    H239718   0.896   4.770   0.235
13259TIP3   OH239719   2.027   0.125   3.104
13259TIP3    H139720   1.965   0.193   3.129
13259TIP3    H239721   2.100   0.172   3.064
13260TIP3   OH239722   7.217   3.721   2.515
13260TIP3    H139723   7.214   3.782   2.589
13260TIP3    H239724   7.274   3.650   2.546
13261TIP3   OH239725   5.651   7.830   3.581
13261TIP3    H139726   5.730   7.783   3.611
13261TIP3    H239727   5.606   7.767   3.525
13262TIP3   OH239728   6.736   2.887   3.770
13262TIP3    H139729   6.668   2.834   3.811
13262TIP3    H239730   6.815   2.832   3.775
13263TIP3   OH239731   2.660   1.463   5.899
13263TIP3    H139732   2.660   1.474   5.994
13263TIP3    H239733   2.728   1.398   5.883
13264TIP3   OH239734   7.089   4.005   6.575
13264TIP3    H139735   7.145   3.950   6.521
13264TIP3    H239736   7.026   4.043   6.514
13265TIP3   OH239737   2.211   6.695   0.197
13265TIP3    H139738   2.284   6.748   0.228
13265TIP3    H239739   2.220   6.694   0.102
13266TIP3   OH239740   4.863   2.303   1.213
13266TIP3    H139741   4.902   2.366   1.153
13266TIP3    H239742   4.787   2.269   1.165
13267TIP3   OH239743   7.302   4.754   5.658
13267TIP3    H139744   7.381   4.710   5.625
13267TIP3    H239745   7.306   4.744   5.753
13268TIP3   OH239746   7.222   7.717   3.416
13268TIP3    H139747   7.169   7.774   3.472
13268TIP3    H239748   7.312   7.733   3.444
13269TIP3   OH239749   7.428   4.099   0.393
13269TIP3    H139750   7.425   4.188   0.426
13269TIP3    H239751   7.518   4.086   0.365
13270TIP3   OH239752   5.606   6.836   6.428
13270TIP3    H139753   5.634   6.893   6.500
13270TIP3    H239754   5.519   6.867   6.405
13271TIP3   OH239755   5.060   4.485   0.483
13271TIP3    H139756   5.038   4.410   0.539
13271TIP3    H239757   4.976   4.525   0.462
13272TIP3   OH239758   0.624   6.444   1.509
13272TIP3    H139759   0.590   6.372   1.561
13272TIP3    H239760   0.614   6.521   1.565
13273TIP3   OH239761   7.774   4.897   1.467
13273TIP3    H139762   7.763   4.802   1.470
13273TIP3    H239763   7.868   4.910   1.482
13274TIP3   OH239764   5.013   2.479   1.063
13274TIP3    H139765   5.105   2.470   1.038
13274TIP3    H239766   5.011   2.557   1.119
13275TIP3   OH239767   4.357   7.178   2.496
13275TIP3    H139768   4.376   7.272   2.494
13275TIP3    H239769   4.432   7.137   2.453
13276TIP3   OH239770   1.209   3.638   0.267
13276TIP3    H139771   1.218   3.545   0.244
13276TIP3    H239772   1.117   3.657   0.250
13277TIP3   OH239773   2.938   7.493   5.639
13277TIP3    H139774   2.930   7.418   5.698
13277TIP3    H239775   2.969   7.564   5.695
13278TIP3   OH239776   2.434   7.070   2.902
13278TIP3    H139777   2.424   7.021   2.983
13278TIP3    H239778   2.363   7.038   2.846
13279TIP3   OH239779   5.471   7.090   2.653
13279TIP3    H139780   5.409   7.029   2.693
13279TIP3    H239781   5.418   7.148   2.599
13280TIP3   OH239782   3.929   7.750   4.187
13280TIP3    H139783   3.889   7.679   4.138
13280TIP3    H239784   4.011   7.714   4.220
13281TIP3   OH239785   0.683   5.588   6.715
13281TIP3    H139786   0.750   5.652   6.694
13281TIP3    H239787   0.721   5.534   6.785
13282TIP3   OH239788   3.552   6.459   5.362
13282TIP3    H139789   3.614   6.531   5.371
13282TIP3    H239790   3.515   6.470   5.274
13283TIP3   OH239791   5.518   4.622   2.293
13283TIP3    H139792   5.480   4.672   2.221
13283TIP3    H239793   5.449   4.562   2.321
13284TIP3   OH239794   5.941   4.052   0.568
13284TIP3    H139795   5.955   3.987   0.499
13284TIP3    H239796   6.024   4.058   0.613
13285TIP3   OH239797   5.655   5.386   4.733
13285TIP3    H139798   5.666   5.318   4.667
13285TIP3    H239799   5.743   5.422   4.745
13286TIP3   OH239800   0.622   0.646   4.918
13286TIP3    H139801   0.679   0.681   4.987
13286TIP3    H239802   0.679   0.588   4.866
13287TIP3   OH239803   2.417   3.888   6.201
13287TIP3    H139804   2.471   3.830   6.255
13287TIP3    H239805   2.386   3.833   6.129
13288TIP3   OH239806   5.806   3.194   3.387
13288TIP3    H139807   5.774   3.114   3.428
13288TIP3    H239808   5.895   3.172   3.358
13289TIP3   OH239809   5.717   3.162   3.123
13289TIP3    H139810   5.773   3.234   3.150
13289TIP3    H239811   5.632   3.180   3.163
13290TIP3   OH239812   6.230   6.729   2.842
13290TIP3    H139813   6.241   6.799   2.906
13290TIP3    H239814   6.139   6.738   2.812
13291TIP3   OH239815   3.808   0.061   6.069
13291TIP3    H139816   3.754  -0.007   6.029
13291TIP3    H239817   3.898   0.036   6.048
13292TIP3   OH239818   6.326   1.312   0.329
13292TIP3    H139819   6.364   1.331   0.415
13292TIP3    H239820   6.259   1.246   0.347
13293TIP3   OH239821   2.338   3.818   5.281
13293TIP3    H139822   2.285   3.805   5.202
13293TIP3    H239823   2.344   3.913   5.291
13294TIP3   OH239824   8.262   4.716   2.612
13294TIP3    H139825   8.221   4.798   2.583
13294TIP3    H239826   8.189   4.654   2.617
13295TIP3   OH239827   2.744   2.496   4.712
13295TIP3    H139828   2.651   2.516   4.720
13295TIP3    H239829   2.788   2.579   4.727
13296TIP3   OH239830   3.568   1.023   4.204
13296TIP3    H139831   3.536   0.934   4.193
13296TIP3    H239832   3.571   1.036   4.298
13297TIP3   OH239833   0.938   2.862   2.050
13297TIP3    H139834   1.008   2.921   2.021
13297TIP3    H239835   0.977   2.811   2.121
13298TIP3   OH239836   3.420   6.393   5.117
13298TIP3    H139837   3.434   6.365   5.027
13298TIP3    H239838   3.335   6.356   5.141
13299TIP3   OH239839   4.421   7.133   4.840
13299TIP3    H139840   4.425   7.066   4.772
13299TIP3    H239841   4.374   7.206   4.799
13300TIP3   OH239842   0.887   3.799   5.834
13300TIP3    H139843   0.912   3.795   5.742
13300TIP3    H239844   0.812   3.740   5.841
13301TIP3   OH239845   4.233   5.614   5.699
13301TIP3    H139846   4.266   5.698   5.732
13301TIP3    H239847   4.138   5.625   5.698
13302TIP3   OH239848   7.759   2.252   3.885
13302TIP3    H139849   7.730   2.343   3.875
13302TIP3    H239850   7.677   2.203   3.895
13303TIP3   OH239851   3.491   2.531   2.039
13303TIP3    H139852   3.431   2.468   2.079
13303TIP3    H239853   3.439   2.612   2.032
13304TIP3   OH239854   2.540   3.350   5.786
13304TIP3    H139855   2.475   3.402   5.832
13304TIP3    H239856   2.500   3.264   5.777
13305TIP3   OH239857   1.888   5.376   1.081
13305TIP3    H139858   1.911   5.283   1.087
13305TIP3    H239859   1.879   5.393   0.988
13306TIP3   OH239860   3.908   3.243   2.024
13306TIP3    H139861   3.867   3.205   2.102
13306TIP3    H239862   3.884   3.184   1.953
13307TIP3   OH239863   1.632   2.376   3.368
13307TIP3    H139864   1.610   2.310   3.302
13307TIP3    H239865   1.653   2.454   3.318
13308TIP3   OH239866   0.988   4.384   1.397
13308TIP3    H139867   1.021   4.412   1.311
13308TIP3    H239868   0.922   4.449   1.420
13309TIP3   OH239869   1.365   7.330   3.073
13309TIP3    H139870   1.277   7.297   3.057
13309TIP3    H239871   1.355   7.426   3.070
13310TIP3   OH239872   0.264   2.828   0.708
13310TIP3    H139873   0.350   2.786   0.714
13310TIP3    H239874   0.207   2.774   0.763
13311TIP3   OH239875   4.102   4.625   6.394
13311TIP3    H139876   4.037   4.686   6.360
13311TIP3    H239877   4.146   4.591   6.316
13312TIP3   OH239878   4.496   4.237   5.395
13312TIP3    H139879   4.502   4.250   5.301
13312TIP3    H239880   4.581   4.265   5.429
13313TIP3   OH239881   3.364   5.954   5.656
13313TIP3    H139882   3.442   5.915   5.618
13313TIP3    H239883   3.374   6.048   5.638
13314TIP3   OH239884   2.500   2.466   6.330
13314TIP3    H139885   2.461   2.386   6.295
13314TIP3    H239886   2.544   2.506   6.255
13315TIP3   OH239887   0.853   7.326   3.033
13315TIP3    H139888   0.848   7.313   2.938
13315TIP3    H239889   0.768   7.296   3.066
13316TIP3   OH239890   7.526   4.117   2.785
13316TIP3    H139891   7.449   4.126   2.728
13316TIP3    H239892   7.533   4.023   2.800
13317TIP3   OH239893   3.481   0.386   3.499
13317TIP3    H139894   3.529   0.304   3.492
13317TIP3    H239895   3.529   0.447   3.443
13318TIP3   OH239896   1.197   4.742   0.503
13318TIP3    H139897   1.278   4.794   0.501
13318TIP3    H239898   1.200   4.691   0.423
13319TIP3   OH239899   5.022   3.784   1.076
13319TIP3    H139900   4.942   3.739   1.049
13319TIP3    H239901   5.018   3.870   1.033
13320TIP3   OH239902   1.580   2.163   6.234
13320TIP3    H139903   1.508   2.162   6.297
13320TIP3    H239904   1.543   2.123   6.155
13321TIP3   OH239905   5.364   7.635   1.152
13321TIP3    H139906   5.270   7.619   1.167
13321TIP3    H239907   5.397   7.553   1.117
13322TIP3   OH239908   1.921   4.539   1.429
13322TIP3    H139909   1.938   4.518   1.337
13322TIP3    H239910   1.886   4.628   1.428
13323TIP3   OH239911   6.990   1.475  -0.018
13323TIP3    H139912   6.946   1.492   0.065
13323TIP3    H239913   6.943   1.401  -0.055
13324TIP3   OH239914   3.497   1.865   2.019
13324TIP3    H139915   3.405   1.875   1.993
13324TIP3    H239916   3.494   1.834   2.109
13325TIP3   OH239917   7.122   4.500   2.483
13325TIP3    H139918   7.161   4.566   2.540
13325TIP3    H239919   7.072   4.444   2.543
13326TIP3   OH239920   0.084   4.022   3.441
13326TIP3    H139921   0.111   4.077   3.368
13326TIP3    H239922   0.130   3.939   3.427
13327TIP3   OH239923   7.600   4.968   5.324
13327TIP3    H139924   7.610   4.938   5.234
13327TIP3    H239925   7.647   5.051   5.327
13328TIP3   OH239926   1.851   6.703   0.673
13328TIP3    H139927   1.913   6.715   0.601
13328TIP3    H239928   1.899   6.651   0.737
13329TIP3   OH239929   6.902   5.897   0.299
13329TIP3    H139930   6.886   5.918   0.207
13329TIP3    H239931   6.826   5.846   0.326
13330TIP3   OH239932   7.660   0.723   6.637
13330TIP3    H139933   7.696   0.800   6.680
13330TIP3    H239934   7.724   0.701   6.569
13331TIP3   OH239935   6.980   2.754   3.764
13331TIP3    H139936   7.014   2.705   3.689
13331TIP3    H239937   7.049   2.817   3.785
13332TIP3   OH239938   3.201   3.422   5.719
13332TIP3    H139939   3.264   3.425   5.791
13332TIP3    H239940   3.136   3.357   5.746
13333TIP3   OH239941   0.203   6.312   4.294
13333TIP3    H139942   0.185   6.377   4.227
13333TIP3    H239943   0.202   6.361   4.376
13334TIP3   OH239944   6.850   4.012   1.190
13334TIP3    H139945   6.873   4.036   1.280
13334TIP3    H239946   6.891   3.926   1.177
13335TIP3   OH239947   2.035   0.752   3.602
13335TIP3    H139948   1.981   0.677   3.627
13335TIP3    H239949   1.998   0.826   3.650
13336TIP3   OH239950   1.713   7.387   1.614
13336TIP3    H139951   1.750   7.365   1.529
13336TIP3    H239952   1.649   7.318   1.631
13337TIP3   OH239953   6.851   0.528   0.991
13337TIP3    H139954   6.850   0.617   0.955
13337TIP3    H239955   6.767   0.491   0.965
13338TIP3   OH239956   0.527   2.371   4.861
13338TIP3    H139957   0.525   2.466   4.873
13338TIP3    H239958   0.530   2.336   4.950
13339TIP3   OH239959   5.847   7.041   0.039
13339TIP3    H139960   5.871   7.026   0.130
13339TIP3    H239961   5.753   7.059   0.041
13340TIP3   OH239962   0.283   6.366   0.413
13340TIP3    H139963   0.202   6.314   0.409
13340TIP3    H239964   0.273   6.430   0.343
13341TIP3   OH239965   0.446   4.346   3.155
13341TIP3    H139966   0.452   4.412   3.223
13341TIP3    H239967   0.355   4.348   3.126
13342TIP3   OH239968   5.236   5.876   2.469
13342TIP3    H139969   5.279   5.928   2.537
13342TIP3    H239970   5.187   5.810   2.517
13343TIP3   OH239971   6.101   5.319   4.346
13343TIP3    H139972   6.085   5.369   4.266
13343TIP3    H239973   6.140   5.382   4.407
13344TIP3   OH239974   3.210   4.847   3.820
13344TIP3    H139975   3.156   4.926   3.816
13344TIP3    H239976   3.188   4.809   3.906
13345TIP3   OH239977   7.594   0.813   5.552
13345TIP3    H139978   7.547   0.794   5.633
13345TIP3    H239979   7.547   0.764   5.484
13346TIP3   OH239980   0.383   3.791   5.855
13346TIP3    H139981   0.395   3.696   5.848
13346TIP3    H239982   0.293   3.805   5.825
13347TIP3   OH239983   3.258   6.088   2.492
13347TIP3    H139984   3.282   5.996   2.485
13347TIP3    H239985   3.240   6.101   2.585
13348TIP3   OH239986   1.881   6.708   2.106
13348TIP3    H139987   1.914   6.632   2.058
13348TIP3    H239988   1.853   6.769   2.038
13349TIP3   OH239989   2.804   5.716   1.093
13349TIP3    H139990   2.725   5.770   1.090
13349TIP3    H239991   2.831   5.718   1.185
13350TIP3   OH239992   0.850   1.293   2.050
13350TIP3    H139993   0.938   1.274   2.080
13350TIP3    H239994   0.857   1.379   2.008
13351TIP3   OH239995   4.380   3.124   4.478
13351TIP3    H139996   4.377   3.036   4.517
13351TIP3    H239997   4.449   3.119   4.412
13352TIP3   OH239998   6.879   5.322   5.609
13352TIP3    H139999   6.834   5.286   5.686
13352TIP3    H240000   6.967   5.342   5.641
13353TIP3   OH240001   4.144   4.139   4.654
13353TIP3    H140002   4.110   4.229   4.649
13353TIP3    H240003   4.196   4.138   4.735
13354TIP3   OH240004   6.904   5.221   3.266
13354TIP3    H140005   6.875   5.280   3.197
13354TIP3    H240006   6.934   5.278   3.336
13355TIP3   OH240007   0.641   0.650   6.517
13355TIP3    H140008   0.553   0.656   6.481
13355TIP3    H240009   0.682   0.579   6.468
13356TIP3   OH240010   3.051   4.502   2.202
13356TIP3    H140011   2.995   4.444   2.149
13356TIP3    H240012   3.135   4.456   2.207
13357TIP3   OH240013   0.473   6.282   0.984
13357TIP3    H140014   0.380   6.267   0.966
13357TIP3    H240015   0.478   6.281   1.080
13358TIP3   OH240016   4.243   6.333   1.037
13358TIP3    H140017   4.168   6.340   0.978
13358TIP3    H240018   4.285   6.419   1.033
13359TIP3   OH240019   3.159   0.189   5.812
13359TIP3    H140020   3.194   0.233   5.889
13359TIP3    H240021   3.109   0.115   5.847
13360TIP3   OH240022   6.431   6.451   0.329
13360TIP3    H140023   6.376   6.430   0.404
13360TIP3    H240024   6.521   6.450   0.364
13361TIP3   OH240025   7.955   3.800   3.589
13361TIP3    H140026   7.868   3.779   3.555
13361TIP3    H240027   8.015   3.757   3.528
13362TIP3   OH240028   7.369   5.904   4.223
13362TIP3    H140029   7.293   5.953   4.256
13362TIP3    H240030   7.368   5.920   4.129
13363TIP3   OH240031   3.070   2.542   6.283
13363TIP3    H140032   3.160   2.537   6.316
13363TIP3    H240033   3.019   2.490   6.344
13364TIP3   OH240034   6.458   1.760   5.234
13364TIP3    H140035   6.421   1.735   5.319
13364TIP3    H240036   6.544   1.795   5.255
13365TIP3   OH240037   6.303   4.262   0.613
13365TIP3    H140038   6.292   4.220   0.698
13365TIP3    H240039   6.390   4.301   0.616
13366TIP3   OH240040   2.892   0.290   6.579
13366TIP3    H140041   2.948   0.367   6.591
13366TIP3    H240042   2.949   0.216   6.599
13367TIP3   OH240043   4.833   3.776   2.320
13367TIP3    H140044   4.853   3.704   2.260
13367TIP3    H240045   4.864   3.746   2.405
13368TIP3   OH240046   5.097   5.021   5.534
13368TIP3    H140047   5.043   5.032   5.612
13368TIP3    H240048   5.036   4.990   5.467
13369TIP3   OH240049   3.081   6.949   6.644
13369TIP3    H140050   3.051   6.918   6.559
13369TIP3    H240051   3.176   6.958   6.634
13370TIP3   OH240052   6.895   2.388   3.517
13370TIP3    H140053   6.989   2.380   3.501
13370TIP3    H240054   6.867   2.459   3.459
13371TIP3   OH240055   4.379   2.968   0.916
13371TIP3    H140056   4.417   3.030   0.853
13371TIP3    H240057   4.388   2.882   0.872
13372TIP3   OH240058   6.120   7.037   3.344
13372TIP3    H140059   6.106   6.964   3.405
13372TIP3    H240060   6.215   7.043   3.335
13373TIP3   OH240061   4.166   0.174   1.896
13373TIP3    H140062   4.242   0.151   1.842
13373TIP3    H240063   4.152   0.097   1.951
13374TIP3   OH240064   2.071   4.656   3.314
13374TIP3    H140065   2.043   4.640   3.404
13374TIP3    H240066   2.140   4.592   3.299
13375TIP3   OH240067   3.893   7.204   5.054
13375TIP3    H140068   3.896   7.300   5.053
13375TIP3    H240069   3.956   7.179   5.121
13376TIP3   OH240070   2.666   5.313   6.542
13376TIP3    H140071   2.603   5.333   6.473
13376TIP3    H240072   2.702   5.228   6.518
13377TIP3   OH240073   1.811   1.532   2.893
13377TIP3    H140074   1.889   1.545   2.839
13377TIP3    H240075   1.842   1.487   2.971
13378TIP3   OH240076   0.879   1.146   5.236
13378TIP3    H140077   0.860   1.081   5.304
13378TIP3    H240078   0.965   1.123   5.204
13379TIP3   OH240079   1.003   1.662   3.001
13379TIP3    H140080   1.091   1.670   2.964
13379TIP3    H240081   1.010   1.594   3.067
13380TIP3   OH240082   0.581   2.902   4.300
13380TIP3    H140083   0.566   2.918   4.206
13380TIP3    H240084   0.621   2.816   4.303
13381TIP3   OH240085   6.126   6.814   5.550
13381TIP3    H140086   6.056   6.782   5.493
13381TIP3    H240087   6.197   6.837   5.491
13382TIP3   OH240088   0.151   0.152   4.559
13382TIP3    H140089   0.061   0.174   4.537
13382TIP3    H240090   0.157   0.165   4.654
13383TIP3   OH240091   4.006   6.700   6.061
13383TIP3    H140092   4.007   6.620   6.114
13383TIP3    H240093   4.041   6.672   5.976
13384TIP3   OH240094   3.184   2.151   0.042
13384TIP3    H140095   3.139   2.236   0.039
13384TIP3    H240096   3.114   2.087   0.031
13385TIP3   OH240097   4.763   6.791   3.566
13385TIP3    H140098   4.694   6.856   3.560
13385TIP3    H240099   4.760   6.745   3.482
13386TIP3   OH240100   7.516   6.262   6.362
13386TIP3    H140101   7.553   6.336   6.313
13386TIP3    H240102   7.426   6.289   6.381
13387TIP3   OH240103   1.587   0.963   5.117
13387TIP3    H140104   1.616   0.895   5.057
13387TIP3    H240105   1.629   1.043   5.085
13388TIP3   OH240106   7.899   0.756   1.683
13388TIP3    H140107   7.840   0.795   1.619
13388TIP3    H240108   7.947   0.830   1.720
13389TIP3   OH240109   7.591   1.089   5.796
13389TIP3    H140110   7.655   1.019   5.807
13389TIP3    H240111   7.624   1.161   5.850
13390TIP3   OH240112   6.410   5.996   6.640
13390TIP3    H140113   6.434   6.089   6.639
13390TIP3    H240114   6.363   5.984   6.722
13391TIP3   OH240115   4.672   5.711   2.051
13391TIP3    H140116   4.638   5.635   2.099
13391TIP3    H240117   4.621   5.785   2.083
13392TIP3   OH240118   6.782   2.477   3.016
13392TIP3    H140119   6.766   2.571   3.023
13392TIP3    H240120   6.810   2.464   2.925
13393TIP3   OH240121   6.248   5.841   6.401
13393TIP3    H140122   6.188   5.835   6.476
13393TIP3    H240123   6.311   5.770   6.415
13394TIP3   OH240124   5.193   4.407   3.701
13394TIP3    H140125   5.172   4.391   3.609
13394TIP3    H240126   5.275   4.456   3.698
13395TIP3   OH240127   0.062   1.113   4.906
13395TIP3    H140128   0.134   1.050   4.915
13395TIP3    H240129   0.091   1.173   4.837
13396TIP3   OH240130   1.106   2.696   5.130
13396TIP3    H140131   1.099   2.719   5.037
13396TIP3    H240132   1.026   2.646   5.149
13397TIP3   OH240133   2.967   7.522   1.132
13397TIP3    H140134   3.041   7.462   1.128
13397TIP3    H240135   2.923   7.500   1.214
13398TIP3   OH240136   2.153   4.689   0.995
13398TIP3    H140137   2.236   4.686   0.947
13398TIP3    H240138   2.089   4.720   0.930
13399TIP3   OH240139   1.682   5.945   4.092
13399TIP3    H140140   1.699   6.028   4.137
13399TIP3    H240141   1.715   5.878   4.152
13400TIP3   OH240142   7.463   2.093   0.884
13400TIP3    H140143   7.504   2.006   0.889
13400TIP3    H240144   7.533   2.151   0.856
13401TIP3   OH240145   5.620   6.563   4.761
13401TIP3    H140146   5.617   6.496   4.829
13401TIP3    H240147   5.552   6.626   4.787
13402TIP3   OH240148   2.457   6.498   2.327
13402TIP3    H140149   2.535   6.444   2.338
13402TIP3    H240150   2.465   6.533   2.239
13403TIP3   OH240151   2.731   0.488   2.100
13403TIP3    H140152   2.687   0.543   2.035
13403TIP3    H240153   2.767   0.551   2.163
13404TIP3   OH240154   0.657   3.085   3.293
13404TIP3    H140155   0.715   3.103   3.368
13404TIP3    H240156   0.597   3.018   3.326
13405TIP3   OH240157   7.074   3.561   1.068
13405TIP3    H140158   7.103   3.574   0.978
13405TIP3    H240159   7.132   3.492   1.102
13406TIP3   OH240160   4.496   7.277   3.576
13406TIP3    H140161   4.567   7.319   3.528
13406TIP3    H240162   4.536   7.250   3.659
13407TIP3   OH240163   6.493   3.694   6.222
13407TIP3    H140164   6.505   3.629   6.153
13407TIP3    H240165   6.564   3.676   6.285
13408TIP3   OH240166   4.630   6.787   2.650
13408TIP3    H140167   4.685   6.859   2.618
13408TIP3    H240168   4.542   6.824   2.653
13409TIP3   OH240169   3.579   4.169   5.164
13409TIP3    H140170   3.666   4.136   5.145
13409TIP3    H240171   3.589   4.265   5.160
13410TIP3   OH240172   4.621   5.167   1.388
13410TIP3    H140173   4.668   5.104   1.442
13410TIP3    H240174   4.690   5.223   1.352
13411TIP3   OH240175   6.143   7.190   5.680
13411TIP3    H140176   6.068   7.163   5.628
13411TIP3    H240177   6.218   7.149   5.637
13412TIP3   OH240178   5.607   4.264   5.837
13412TIP3    H140179   5.649   4.335   5.884
13412TIP3    H240180   5.657   4.186   5.860
13413TIP3   OH240181   1.104   2.882   3.464
13413TIP3    H140182   1.170   2.837   3.517
13413TIP3    H240183   1.153   2.951   3.419
13414TIP3   OH240184   1.301   5.449   3.325
13414TIP3    H140185   1.373   5.508   3.307
13414TIP3    H240186   1.339   5.361   3.316
13415TIP3   OH240187   7.054   2.865   1.872
13415TIP3    H140188   7.033   2.946   1.918
13415TIP3    H240189   6.982   2.853   1.810
13416TIP3   OH240190   2.339   5.161   2.127
13416TIP3    H140191   2.370   5.124   2.209
13416TIP3    H240192   2.271   5.224   2.153
13417TIP3   OH240193   5.623   6.437   2.470
13417TIP3    H140194   5.614   6.422   2.376
13417TIP3    H240195   5.685   6.510   2.476
13418TIP3   OH240196   0.160   4.286   6.077
13418TIP3    H140197   0.152   4.192   6.092
13418TIP3    H240198   0.071   4.320   6.087
13419TIP3   OH240199   3.050   7.476   1.554
13419TIP3    H140200   2.997   7.522   1.620
13419TIP3    H240201   3.092   7.405   1.603
13420TIP3   OH240202   5.872   2.820   4.237
13420TIP3    H140203   5.908   2.742   4.279
13420TIP3    H240204   5.945   2.882   4.234
13421TIP3   OH240205   4.049   0.135   6.779
13421TIP3    H140206   4.039   0.082   6.859
13421TIP3    H240207   3.974   0.111   6.725
13422TIP3   OH240208   6.257   4.447   6.085
13422TIP3    H140209   6.184   4.495   6.047
13422TIP3    H240210   6.334   4.502   6.069
13423TIP3   OH240211   0.680   0.889   2.471
13423TIP3    H140212   0.774   0.880   2.454
13423TIP3    H240213   0.664   0.983   2.470
13424TIP3   OH240214   8.112   4.843   3.457
13424TIP3    H140215   8.106   4.843   3.553
13424TIP3    H240216   8.063   4.765   3.430
13425TIP3   OH240217   1.082   2.272   1.902
13425TIP3    H140218   1.153   2.213   1.877
13425TIP3    H240219   1.064   2.250   1.993
13426TIP3   OH240220   3.535   0.525   3.145
13426TIP3    H140221   3.604   0.538   3.210
13426TIP3    H240222   3.516   0.431   3.149
13427TIP3   OH240223   0.856   2.759   4.476
13427TIP3    H140224   0.829   2.851   4.484
13427TIP3    H240225   0.790   2.720   4.419
13428TIP3   OH240226   1.193   5.831   3.684
13428TIP3    H140227   1.184   5.888   3.760
13428TIP3    H240228   1.210   5.744   3.720
13429TIP3   OH240229   0.471   7.268   2.678
13429TIP3    H140230   0.426   7.287   2.760
13429TIP3    H240231   0.564   7.283   2.698
13430TIP3   OH240232   3.744   7.072   0.595
13430TIP3    H140233   3.749   7.027   0.680
13430TIP3    H240234   3.681   7.143   0.610
13431TIP3   OH240235   0.872   3.284   1.195
13431TIP3    H140236   0.876   3.380   1.193
13431TIP3    H240237   0.943   3.256   1.137
13432TIP3   OH240238   7.037   2.202   1.836
13432TIP3    H140239   7.101   2.192   1.906
13432TIP3    H240240   7.059   2.286   1.794
13433TIP3   OH240241   7.617   6.177   2.224
13433TIP3    H140242   7.674   6.118   2.176
13433TIP3    H240243   7.618   6.258   2.173
13434TIP3   OH240244   5.234   6.827   4.854
13434TIP3    H140245   5.151   6.861   4.888
13434TIP3    H240246   5.294   6.901   4.858
13435TIP3   OH240247   7.338   4.257   5.541
13435TIP3    H140248   7.246   4.234   5.529
13435TIP3    H240249   7.342   4.351   5.523
13436TIP3   OH240250   3.167   3.267   5.246
13436TIP3    H140251   3.247   3.227   5.279
13436TIP3    H240252   3.148   3.338   5.308
13437TIP3   OH240253   0.522   0.369   4.688
13437TIP3    H140254   0.484   0.434   4.747
13437TIP3    H240255   0.467   0.373   4.609
13438TIP3   OH240256   2.575   2.173   0.500
13438TIP3    H140257   2.591   2.089   0.544
13438TIP3    H240258   2.489   2.162   0.458
13439TIP3   OH240259   6.971   2.826   2.956
13439TIP3    H140260   6.920   2.780   3.022
13439TIP3    H240261   6.976   2.766   2.882
13440TIP3   OH240262   2.406   5.270   3.835
13440TIP3    H140263   2.329   5.326   3.827
13440TIP3    H240264   2.394   5.204   3.766
13441TIP3   OH240265   1.607   6.094   3.607
13441TIP3    H140266   1.648   6.159   3.550
13441TIP3    H240267   1.628   6.123   3.696
13442TIP3   OH240268   0.258   5.046   2.181
13442TIP3    H140269   0.329   5.111   2.174
13442TIP3    H240270   0.182   5.090   2.141
13443TIP3   OH240271   5.468   2.433   1.593
13443TIP3    H140272   5.467   2.365   1.660
13443TIP3    H240273   5.454   2.514   1.641
13444TIP3   OH240274   5.545   2.021   2.603
13444TIP3    H140275   5.546   2.032   2.699
13444TIP3    H240276   5.585   1.935   2.588
13445TIP3   OH240277   6.354   1.645   2.437
13445TIP3    H140278   6.301   1.640   2.357
13445TIP3    H240279   6.436   1.602   2.414
13446TIP3   OH240280   7.207   5.007   2.819
13446TIP3    H140281   7.246   5.093   2.812
13446TIP3    H240282   7.212   4.970   2.731
13447TIP3   OH240283   4.190   2.199   1.594
13447TIP3    H140284   4.176   2.236   1.508
13447TIP3    H240285   4.235   2.268   1.643
13448TIP3   OH240286   1.982   0.623   4.298
13448TIP3    H140287   2.047   0.692   4.308
13448TIP3    H240288   1.973   0.612   4.203
13449TIP3   OH240289   5.019   6.128   0.556
13449TIP3    H140290   5.072   6.049   0.564
13449TIP3    H240291   5.076   6.192   0.513
13450TIP3   OH240292   0.125   5.538   3.062
13450TIP3    H140293   0.114   5.569   3.151
13450TIP3    H240294   0.209   5.574   3.034
13451TIP3   OH240295   4.807   0.494   0.600
13451TIP3    H140296   4.715   0.495   0.575
13451TIP3    H240297   4.842   0.416   0.557
13452TIP3   OH240298   6.085   2.497   1.940
13452TIP3    H140299   6.123   2.513   2.026
13452TIP3    H240300   6.130   2.418   1.908
13453TIP3   OH240301   4.448   3.197   2.180
13453TIP3    H140302   4.372   3.255   2.175
13453TIP3    H240303   4.523   3.256   2.189
13454TIP3   OH240304   0.164   7.475   3.961
13454TIP3    H140305   0.140   7.507   3.874
13454TIP3    H240306   0.259   7.464   3.957
13455TIP3   OH240307   5.627   6.960   6.681
13455TIP3    H140308   5.566   7.033   6.674
13455TIP3    H240309   5.642   6.950   6.775
13456TIP3   OH240310   5.498   6.695   2.644
13456TIP3    H140311   5.414   6.663   2.675
13456TIP3    H240312   5.482   6.726   2.555
13457TIP3   OH240313   8.101   7.475   3.986
13457TIP3    H140314   8.110   7.476   3.890
13457TIP3    H240315   8.188   7.452   4.018
13458TIP3   OH240316   2.148   3.547   2.932
13458TIP3    H140317   2.172   3.458   2.956
13458TIP3    H240318   2.052   3.545   2.925
13459TIP3   OH240319   5.931   1.294   5.240
13459TIP3    H140320   6.026   1.306   5.229
13459TIP3    H240321   5.893   1.331   5.161
13460TIP3   OH240322   5.369   6.432   5.380
13460TIP3    H140323   5.396   6.520   5.405
13460TIP3    H240324   5.307   6.405   5.448
13461TIP3   OH240325   4.046   7.515   0.362
13461TIP3    H140326   4.036   7.454   0.435
13461TIP3    H240327   3.983   7.585   0.380
13462TIP3   OH240328   6.489   1.186   2.375
13462TIP3    H140329   6.580   1.211   2.386
13462TIP3    H240330   6.486   1.141   2.291
13463TIP3   OH240331   7.339   2.239   4.769
13463TIP3    H140332   7.278   2.203   4.703
13463TIP3    H240333   7.297   2.219   4.853
13464TIP3   OH240334   5.762   5.608   3.381
13464TIP3    H140335   5.675   5.633   3.415
13464TIP3    H240336   5.746   5.587   3.289
13465TIP3   OH240337   4.489   0.604   5.233
13465TIP3    H140338   4.538   0.536   5.187
13465TIP3    H240339   4.441   0.556   5.301
13466TIP3   OH240340   5.951   7.668   2.313
13466TIP3    H140341   5.952   7.592   2.255
13466TIP3    H240342   5.986   7.740   2.260
13467TIP3   OH240343   6.248   0.669   5.820
13467TIP3    H140344   6.156   0.648   5.802
13467TIP3    H240345   6.266   0.746   5.765
13468TIP3   OH240346   5.419   3.883   2.912
13468TIP3    H140347   5.429   3.945   2.984
13468TIP3    H240348   5.361   3.815   2.947
13469TIP3   OH240349   4.838   2.265   0.344
13469TIP3    H140350   4.895   2.198   0.380
13469TIP3    H240351   4.874   2.347   0.377
13470TIP3   OH240352   2.574   7.719   0.669
13470TIP3    H140353   2.584   7.630   0.704
13470TIP3    H240354   2.480   7.730   0.659
13471TIP3   OH240355   1.849   6.946   1.936
13471TIP3    H140356   1.897   7.029   1.933
13471TIP3    H240357   1.858   6.911   1.847
13472TIP3   OH240358   4.652   7.539   5.270
13472TIP3    H140359   4.664   7.615   5.327
13472TIP3    H240360   4.582   7.489   5.312
13473TIP3   OH240361   5.741   0.220   1.168
13473TIP3    H140362   5.692   0.198   1.247
13473TIP3    H240363   5.773   0.137   1.135
13474TIP3   OH240364   0.920   3.878   4.490
13474TIP3    H140365   0.903   3.971   4.477
13474TIP3    H240366   0.971   3.873   4.570
13475TIP3   OH240367   6.268   6.616   4.697
13475TIP3    H140368   6.258   6.710   4.712
13475TIP3    H240369   6.362   6.601   4.704
13476TIP3   OH240370   2.625   1.001   3.266
13476TIP3    H140371   2.606   0.998   3.359
13476TIP3    H240372   2.717   1.027   3.261
13477TIP3   OH240373   2.718   3.225   3.382
13477TIP3    H140374   2.708   3.306   3.332
13477TIP3    H240375   2.693   3.249   3.471
13478TIP3   OH240376   6.475   2.029   5.359
13478TIP3    H140377   6.565   2.058   5.351
13478TIP3    H240378   6.443   2.023   5.269
13479TIP3   OH240379   2.744   2.886   6.143
13479TIP3    H140380   2.770   2.978   6.150
13479TIP3    H240381   2.800   2.841   6.207
13480TIP3   OH240382   2.552   5.875   2.944
13480TIP3    H140383   2.640   5.909   2.961
13480TIP3    H240384   2.537   5.894   2.851
13481TIP3   OH240385   6.833   0.021   6.360
13481TIP3    H140386   6.883  -0.058   6.337
13481TIP3    H240387   6.900   0.087   6.376
13482TIP3   OH240388   6.595   4.775   0.861
13482TIP3    H140389   6.624   4.864   0.885
13482TIP3    H240390   6.664   4.741   0.805
13483TIP3   OH240391   7.285   5.083   3.371
13483TIP3    H140392   7.260   5.087   3.279
13483TIP3    H240393   7.380   5.100   3.371
13484TIP3   OH240394   2.732   0.693   1.054
13484TIP3    H140395   2.698   0.783   1.049
13484TIP3    H240396   2.745   0.678   1.148
13485TIP3   OH240397   3.577   7.006   4.372
13485TIP3    H140398   3.650   6.951   4.344
13485TIP3    H240399   3.572   6.994   4.467
13486TIP3   OH240400   1.852   4.772   1.965
13486TIP3    H140401   1.843   4.754   1.871
13486TIP3    H240402   1.791   4.844   1.982
13487TIP3   OH240403   0.138   6.180   1.845
13487TIP3    H140404   0.201   6.238   1.803
13487TIP3    H240405   0.080   6.153   1.774
13488TIP3   OH240406   4.069   6.233   6.540
13488TIP3    H140407   4.124   6.305   6.510
13488TIP3    H240408   4.010   6.274   6.604
13489TIP3   OH240409   0.186   7.789   5.338
13489TIP3    H140410   0.092   7.772   5.331
13489TIP3    H240411   0.218   7.720   5.396
13490TIP3   OH240412   6.556   3.354   4.649
13490TIP3    H140413   6.472   3.391   4.621
13490TIP3    H240414   6.575   3.285   4.586
13491TIP3   OH240415   4.022   1.628   2.330
13491TIP3    H140416   4.094   1.688   2.317
13491TIP3    H240417   4.061   1.541   2.322
13492TIP3   OH240418   0.480   3.388   2.385
13492TIP3    H140419   0.463   3.347   2.300
13492TIP3    H240420   0.524   3.470   2.364
13493TIP3   OH240421   4.749   2.882   6.474
13493TIP3    H140422   4.734   2.976   6.483
13493TIP3    H240423   4.731   2.863   6.382
13494TIP3   OH240424   2.245   2.889   3.339
13494TIP3    H140425   2.249   2.876   3.434
13494TIP3    H240426   2.178   2.828   3.310
13495TIP3   OH240427   6.478   4.011   1.605
13495TIP3    H140428   6.498   4.086   1.660
13495TIP3    H240429   6.543   3.945   1.630
13496TIP3   OH240430   1.877   0.858   5.695
13496TIP3    H140431   1.911   0.947   5.683
13496TIP3    H240432   1.914   0.809   5.621
13497TIP3   OH240433   1.602   3.449   4.883
13497TIP3    H140434   1.680   3.469   4.832
13497TIP3    H240435   1.626   3.373   4.936
13498TIP3   OH240436   7.328   3.927   5.552
13498TIP3    H140437   7.308   4.014   5.587
13498TIP3    H240438   7.317   3.936   5.457
13499TIP3   OH240439   3.566   4.253   1.319
13499TIP3    H140440   3.493   4.271   1.260
13499TIP3    H240441   3.536   4.286   1.404
13500TIP3   OH240442   2.249   6.475   4.983
13500TIP3    H140443   2.301   6.438   4.912
13500TIP3    H240444   2.250   6.407   5.051
13501TIP3   OH240445   2.279   3.788   4.545
13501TIP3    H140446   2.203   3.843   4.567
13501TIP3    H240447   2.241   3.715   4.495
13502TIP3   OH240448   5.137   6.657   4.637
13502TIP3    H140449   5.176   6.695   4.558
13502TIP3    H240450   5.185   6.697   4.709
13503TIP3   OH240451   5.278   5.190   1.231
13503TIP3    H140452   5.326   5.183   1.148
13503TIP3    H240453   5.213   5.259   1.214
13504TIP3   OH240454   5.944   5.800   4.077
13504TIP3    H140455   5.930   5.893   4.059
13504TIP3    H240456   6.028   5.797   4.123
13505TIP3   OH240457   3.017   6.703   0.773
13505TIP3    H140458   2.965   6.783   0.779
13505TIP3    H240459   3.105   6.730   0.800
13506TIP3   OH240460   1.564   2.938   5.609
13506TIP3    H140461   1.494   2.905   5.666
13506TIP3    H240462   1.643   2.895   5.640
13507TIP3   OH240463   5.581   5.209   5.311
13507TIP3    H140464   5.633   5.148   5.257
13507TIP3    H240465   5.518   5.246   5.250
13508TIP3   OH240466   2.491   3.954   3.252
13508TIP3    H140467   2.443   4.029   3.215
13508TIP3    H240468   2.527   3.909   3.176
13509TIP3   OH240469   1.596   6.744   1.937
13509TIP3    H140470   1.614   6.735   1.843
13509TIP3    H240471   1.501   6.754   1.942
13510TIP3   OH240472   3.711   5.173   6.199
13510TIP3    H140473   3.622   5.205   6.213
13510TIP3    H240474   3.735   5.207   6.112
13511TIP3   OH240475   3.125   1.313   4.546
13511TIP3    H140476   3.200   1.290   4.600
13511TIP3    H240477   3.085   1.229   4.523
13512TIP3   OH240478   2.097   0.540   0.995
13512TIP3    H140479   2.138   0.518   0.911
13512TIP3    H240480   2.054   0.460   1.023
13513TIP3   OH240481   0.952   5.140   4.623
13513TIP3    H140482   0.993   5.133   4.537
13513TIP3    H240483   0.980   5.061   4.670
13514TIP3   OH240484   8.214   6.642   2.671
13514TIP3    H140485   8.138   6.648   2.613
13514TIP3    H240486   8.188   6.580   2.739
13515TIP3   OH240487   6.575   6.073   5.688
13515TIP3    H140488   6.555   6.019   5.612
13515TIP3    H240489   6.626   6.147   5.652
13516TIP3   OH240490   4.737   7.739   4.315
13516TIP3    H140491   4.676   7.691   4.258
13516TIP3    H240492   4.726   7.699   4.401
13517TIP3   OH240493   8.089   4.000   3.401
13517TIP3    H140494   8.183   4.017   3.400
13517TIP3    H240495   8.071   3.970   3.490
13518TIP3   OH240496   2.728   1.111   5.685
13518TIP3    H140497   2.791   1.138   5.619
13518TIP3    H240498   2.668   1.185   5.693
13519TIP3   OH240499   0.587   2.796   5.108
13519TIP3    H140500   0.529   2.734   5.153
13519TIP3    H240501   0.653   2.819   5.174
13520TIP3   OH240502   3.689   4.476   4.135
13520TIP3    H140503   3.688   4.558   4.086
13520TIP3    H240504   3.748   4.493   4.209
13521TIP3   OH240505   1.327   0.426   6.766
13521TIP3    H140506   1.380   0.505   6.770
13521TIP3    H240507   1.387   0.359   6.734
13522TIP3   OH240508   3.029   7.485   0.472
13522TIP3    H140509   3.004   7.393   0.461
13522TIP3    H240510   2.958   7.535   0.434
13523TIP3   OH240511   6.446   4.235   5.292
13523TIP3    H140512   6.426   4.241   5.198
13523TIP3    H240513   6.364   4.261   5.335
13524TIP3   OH240514   7.306   6.184   1.861
13524TIP3    H140515   7.246   6.216   1.793
13524TIP3    H240516   7.370   6.132   1.813
13525TIP3   OH240517   3.643   1.691   2.989
13525TIP3    H140518   3.686   1.720   3.070
13525TIP3    H240519   3.641   1.769   2.933
13526TIP3   OH240520   5.151   0.268   2.046
13526TIP3    H140521   5.077   0.278   1.985
13526TIP3    H240522   5.186   0.181   2.027
13527TIP3   OH240523   3.912   4.106   3.080
13527TIP3    H140524   3.886   4.030   3.027
13527TIP3    H240525   4.005   4.118   3.058
13528TIP3   OH240526   0.406   0.569   6.012
13528TIP3    H140527   0.429   0.654   6.051
13528TIP3    H240528   0.434   0.577   5.921
13529TIP3   OH240529   6.626   2.621   2.821
13529TIP3    H140530   6.586   2.535   2.817
13529TIP3    H240531   6.606   2.653   2.909
13530TIP3   OH240532   3.015   1.116   5.108
13530TIP3    H140533   3.008   1.022   5.126
13530TIP3    H240534   3.105   1.129   5.079
13531TIP3   OH240535   2.850   4.096   2.107
13531TIP3    H140536   2.781   4.113   2.172
13531TIP3    H240537   2.925   4.069   2.160
13532TIP3   OH240538   1.107   0.855   3.271
13532TIP3    H140539   1.087   0.913   3.197
13532TIP3    H240540   1.028   0.857   3.326
13533TIP3   OH240541   6.054   5.957   3.637
13533TIP3    H140542   6.143   5.975   3.607
13533TIP3    H240543   6.023   6.039   3.674
13534TIP3   OH240544   1.027   2.207   5.831
13534TIP3    H140545   0.966   2.279   5.818
13534TIP3    H240546   1.110   2.250   5.853
13535TIP3   OH240547   1.633   6.713   4.858
13535TIP3    H140548   1.699   6.684   4.795
13535TIP3    H240549   1.641   6.808   4.859
13536TIP3   OH240550   4.769   5.521   5.467
13536TIP3    H140551   4.725   5.515   5.552
13536TIP3    H240552   4.700   5.502   5.404
13537TIP3   OH240553   5.810   6.270   5.227
13537TIP3    H140554   5.852   6.313   5.301
13537TIP3    H240555   5.879   6.213   5.191
13538TIP3   OH240556   5.138   7.250   3.996
13538TIP3    H140557   5.061   7.214   4.040
13538TIP3    H240558   5.179   7.306   4.062
13539TIP3   OH240559   0.745   3.870   3.805
13539TIP3    H140560   0.832   3.902   3.829
13539TIP3    H240561   0.752   3.852   3.711
13540TIP3   OH240562   6.537   2.030   4.496
13540TIP3    H140563   6.601   2.082   4.544
13540TIP3    H240564   6.567   2.035   4.405
13541TIP3   OH240565   2.412   3.418   3.787
13541TIP3    H140566   2.462   3.448   3.863
13541TIP3    H240567   2.360   3.494   3.761
13542TIP3   OH240568   0.877   5.450   0.358
13542TIP3    H140569   0.900   5.362   0.386
13542TIP3    H240570   0.912   5.458   0.270
13543TIP3   OH240571   4.326   0.130   6.668
13543TIP3    H140572   4.274   0.141   6.748
13543TIP3    H240573   4.292   0.050   6.628
13544TIP3   OH240574   6.724   2.136   6.194
13544TIP3    H140575   6.721   2.084   6.275
13544TIP3    H240576   6.650   2.105   6.143
13545TIP3   OH240577   7.824   6.454   1.068
13545TIP3    H140578   7.768   6.514   1.019
13545TIP3    H240579   7.833   6.377   1.012
13546TIP3   OH240580   6.722   2.692   6.495
13546TIP3    H140581   6.717   2.597   6.510
13546TIP3    H240582   6.744   2.701   6.403
13547TIP3   OH240583   3.126   1.867   6.617
13547TIP3    H140584   3.137   1.900   6.528
13547TIP3    H240585   3.053   1.918   6.653
13548TIP3   OH240586   0.285   0.374   1.151
13548TIP3    H140587   0.193   0.386   1.174
13548TIP3    H240588   0.293   0.280   1.133
13549TIP3   OH240589   3.872   2.889   0.140
13549TIP3    H140590   3.864   2.813   0.083
13549TIP3    H240591   3.792   2.939   0.125
13550TIP3   OH240592   4.084   0.626   3.943
13550TIP3    H140593   4.101   0.645   4.035
13550TIP3    H240594   4.018   0.556   3.945
13551TIP3   OH240595   1.626   5.066   1.517
13551TIP3    H140596   1.531   5.076   1.514
13551TIP3    H240597   1.650   5.035   1.429
13552TIP3   OH240598   1.444   3.772   6.286
13552TIP3    H140599   1.409   3.754   6.374
13552TIP3    H240600   1.511   3.838   6.300
13553TIP3   OH240601   3.301   7.316   0.517
13553TIP3    H140602   3.217   7.297   0.559
13553TIP3    H240603   3.308   7.411   0.521
13554TIP3   OH240604   6.619   7.143   1.036
13554TIP3    H140605   6.548   7.184   1.086
13554TIP3    H240606   6.581   7.122   0.951
13555TIP3   OH240607   7.419   6.743   0.517
13555TIP3    H140608   7.331   6.706   0.518
13555TIP3    H240609   7.420   6.801   0.441
13556TIP3   OH240610   1.018   3.755   4.061
13556TIP3    H140611   1.021   3.660   4.076
13556TIP3    H240612   0.946   3.786   4.117
13557TIP3   OH240613   2.293   0.953   2.195
13557TIP3    H140614   2.223   0.974   2.133
13557TIP3    H240615   2.249   0.905   2.266
13558TIP3   OH240616   1.339   7.748   4.563
13558TIP3    H140617   1.346   7.803   4.641
13558TIP3    H240618   1.429   7.722   4.543
13559TIP3   OH240619   2.654   2.452   1.143
13559TIP3    H140620   2.630   2.364   1.170
13559TIP3    H240621   2.667   2.445   1.048
13560TIP3   OH240622   2.732   1.866   2.495
13560TIP3    H140623   2.694   1.892   2.411
13560TIP3    H240624   2.682   1.789   2.522
13561TIP3   OH240625   6.295   4.368   0.149
13561TIP3    H140626   6.341   4.437   0.196
13561TIP3    H240627   6.304   4.291   0.204
13562TIP3   OH240628   5.295   7.530   5.948
13562TIP3    H140629   5.305   7.475   5.870
13562TIP3    H240630   5.202   7.553   5.949
13563TIP3   OH240631   1.442   0.583   1.788
13563TIP3    H140632   1.352   0.560   1.812
13563TIP3    H240633   1.454   0.671   1.824
13564TIP3   OH240634   6.438   2.429   2.785
13564TIP3    H140635   6.491   2.380   2.722
13564TIP3    H240636   6.348   2.421   2.753
13565TIP3   OH240637   4.994   2.996   2.402
13565TIP3    H140638   4.969   2.945   2.479
13565TIP3    H240639   5.088   2.981   2.393
13566TIP3   OH240640   2.388   1.582   4.495
13566TIP3    H140641   2.332   1.541   4.429
13566TIP3    H240642   2.476   1.582   4.455
13567TIP3   OH240643   0.985   3.709   6.514
13567TIP3    H140644   1.001   3.803   6.512
13567TIP3    H240645   1.068   3.671   6.545
13568TIP3   OH240646   5.642   6.938   3.113
13568TIP3    H140647   5.724   6.974   3.147
13568TIP3    H240648   5.593   7.015   3.082
13569TIP3   OH240649   7.672   4.460   3.994
13569TIP3    H140650   7.641   4.410   4.069
13569TIP3    H240651   7.602   4.523   3.976
13570TIP3   OH240652   7.927   0.170   4.569
13570TIP3    H140653   7.909   0.192   4.661
13570TIP3    H240654   7.887   0.084   4.557
13571TIP3   OH240655   1.297   2.781   5.292
13571TIP3    H140656   1.212   2.762   5.254
13571TIP3    H240657   1.354   2.711   5.260
13572TIP3   OH240658   5.514   2.155   1.235
13572TIP3    H140659   5.565   2.139   1.155
13572TIP3    H240660   5.517   2.250   1.247
13573TIP3   OH240661   6.801   1.145   0.642
13573TIP3    H140662   6.859   1.158   0.567
13573TIP3    H240663   6.858   1.107   0.710
13574TIP3   OH240664   4.041   4.152   3.574
13574TIP3    H140665   4.082   4.229   3.612
13574TIP3    H240666   4.060   4.157   3.481
13575TIP3   OH240667   1.677   2.871   5.353
13575TIP3    H140668   1.642   2.940   5.297
13575TIP3    H240669   1.621   2.872   5.431
13576TIP3   OH240670   1.851   4.470   3.250
13576TIP3    H140671   1.918   4.424   3.301
13576TIP3    H240672   1.871   4.563   3.262
13577TIP3   OH240673   4.825   1.404   3.753
13577TIP3    H140674   4.757   1.419   3.687
13577TIP3    H240675   4.871   1.325   3.723
13578TIP3   OH240676   7.525   3.177   2.697
13578TIP3    H140677   7.467   3.194   2.623
13578TIP3    H240678   7.491   3.096   2.736
13579TIP3   OH240679   7.174   5.316   6.495
13579TIP3    H140680   7.109   5.367   6.447
13579TIP3    H240681   7.144   5.317   6.585
13580TIP3   OH240682   3.144   5.177   2.368
13580TIP3    H140683   3.175   5.193   2.457
13580TIP3    H240684   3.107   5.088   2.371
13581TIP3   OH240685   8.045   0.187   5.421
13581TIP3    H140686   8.063   0.104   5.378
13581TIP3    H240687   8.021   0.163   5.510
13582TIP3   OH240688   3.379   7.200   4.030
13582TIP3    H140689   3.328   7.142   3.973
13582TIP3    H240690   3.335   7.195   4.115
13583TIP3   OH240691   6.884   0.382   2.833
13583TIP3    H140692   6.939   0.321   2.883
13583TIP3    H240693   6.923   0.468   2.849
13584TIP3   OH240694   1.639   4.621   4.557
13584TIP3    H140695   1.667   4.713   4.555
13584TIP3    H240696   1.544   4.625   4.559
13585TIP3   OH240697   5.383   7.138   1.768
13585TIP3    H140698   5.320   7.126   1.697
13585TIP3    H240699   5.380   7.232   1.787
13586TIP3   OH240700   2.239   1.545   4.234
13586TIP3    H140701   2.148   1.514   4.226
13586TIP3    H240702   2.234   1.639   4.217
13587TIP3   OH240703   5.013   4.142   6.492
13587TIP3    H140704   5.099   4.151   6.450
13587TIP3    H240705   4.965   4.220   6.466
13588TIP3   OH240706   6.252   0.364   6.272
13588TIP3    H140707   6.189   0.383   6.342
13588TIP3    H240708   6.277   0.273   6.287
13589TIP3   OH240709   2.663   0.891   0.873
13589TIP3    H140710   2.619   0.914   0.955
13589TIP3    H240711   2.593   0.862   0.815
13590TIP3   OH240712   1.887   0.542   0.141
13590TIP3    H140713   1.906   0.598   0.065
13590TIP3    H240714   1.931   0.587   0.214
13591TIP3   OH240715   2.639   6.361   2.880
13591TIP3    H140716   2.713   6.420   2.874
13591TIP3    H240717   2.586   6.395   2.952
13592TIP3   OH240718   0.695   4.908   3.381
13592TIP3    H140719   0.722   4.859   3.459
13592TIP3    H240720   0.612   4.947   3.406
13593TIP3   OH240721   5.536   6.080   1.458
13593TIP3    H140722   5.441   6.093   1.455
13593TIP3    H240723   5.559   6.048   1.371
13594TIP3   OH240724   0.297   4.900   0.576
13594TIP3    H140725   0.334   4.816   0.549
13594TIP3    H240726   0.208   4.880   0.604
13595TIP3   OH240727   2.742   7.468   2.901
13595TIP3    H140728   2.835   7.447   2.895
13595TIP3    H240729   2.723   7.468   2.995
13596TIP3   OH240730   7.479   2.723   6.506
13596TIP3    H140731   7.385   2.742   6.508
13596TIP3    H240732   7.513   2.765   6.586
13597TIP3   OH240733   6.297   3.593   5.416
13597TIP3    H140734   6.289   3.500   5.437
13597TIP3    H240735   6.347   3.630   5.488
13598TIP3   OH240736   4.908   1.131   2.656
13598TIP3    H140737   4.957   1.184   2.719
13598TIP3    H240738   4.826   1.179   2.643
13599TIP3   OH240739   3.696   6.059   5.973
13599TIP3    H140740   3.749   6.130   5.935
13599TIP3    H240741   3.652   6.100   6.047
13600TIP3   OH240742   0.554   0.866   0.106
13600TIP3    H140743   0.650   0.862   0.101
13600TIP3    H240744   0.533   0.817   0.185
13601TIP3   OH240745   2.400   2.933   1.971
13601TIP3    H140746   2.395   3.027   1.956
13601TIP3    H240747   2.432   2.925   2.061
13602TIP3   OH240748   0.088   1.569   6.703
13602TIP3    H140749   0.029   1.632   6.746
13602TIP3    H240750   0.151   1.545   6.771
13603TIP3   OH240751   1.755   5.693   6.380
13603TIP3    H140752   1.681   5.652   6.424
13603TIP3    H240753   1.825   5.627   6.381
13604TIP3   OH240754   5.758   1.278   1.069
13604TIP3    H140755   5.709   1.211   1.117
13604TIP3    H240756   5.715   1.281   0.983
13605TIP3   OH240757   4.004   4.036   1.077
13605TIP3    H140758   3.922   4.081   1.093
13605TIP3    H240759   3.995   4.001   0.988
13606TIP3   OH240760   5.511   5.987   0.733
13606TIP3    H140761   5.456   5.911   0.751
13606TIP3    H240762   5.451   6.062   0.738
13607TIP3   OH240763   2.072   1.776   5.710
13607TIP3    H140764   1.978   1.764   5.722
13607TIP3    H240765   2.088   1.867   5.737
13608TIP3   OH240766   2.587   2.698   0.759
13608TIP3    H140767   2.599   2.720   0.667
13608TIP3    H240768   2.673   2.710   0.799
13609TIP3   OH240769   4.976   2.108   4.677
13609TIP3    H140770   5.022   2.191   4.668
13609TIP3    H240771   4.887   2.127   4.646
13610TIP3   OH240772   1.255   0.649   1.550
13610TIP3    H140773   1.187   0.685   1.493
13610TIP3    H240774   1.276   0.564   1.512
13611TIP3   OH240775   2.122   5.152   5.948
13611TIP3    H140776   2.054   5.100   5.906
13611TIP3    H240777   2.108   5.140   6.042
13612TIP3   OH240778   3.374   7.103   2.102
13612TIP3    H140779   3.447   7.088   2.042
13612TIP3    H240780   3.414   7.136   2.182
13613TIP3   OH240781   0.701   2.527   1.027
13613TIP3    H140782   0.665   2.439   1.040
13613TIP3    H240783   0.643   2.567   0.963
13614TIP3   OH240784   4.941   6.518   3.389
13614TIP3    H140785   4.969   6.541   3.301
13614TIP3    H240786   4.980   6.586   3.445
13615TIP3   OH240787   3.246   4.520   2.600
13615TIP3    H140788   3.338   4.507   2.581
13615TIP3    H240789   3.245   4.576   2.678
13616TIP3   OH240790   4.542   2.236   5.492
13616TIP3    H140791   4.565   2.250   5.400
13616TIP3    H240792   4.588   2.306   5.539
13617TIP3   OH240793   3.758   0.164   2.720
13617TIP3    H140794   3.710   0.244   2.741
13617TIP3    H240795   3.808   0.145   2.798
13618TIP3   OH240796   7.611   2.191   5.647
13618TIP3    H140797   7.584   2.272   5.691
13618TIP3    H240798   7.699   2.210   5.615
13619TIP3   OH240799   7.465   5.054   0.262
13619TIP3    H140800   7.417   5.067   0.344
13619TIP3    H240801   7.421   5.112   0.199
13620TIP3   OH240802   6.859   1.322   6.275
13620TIP3    H140803   6.824   1.239   6.306
13620TIP3    H240804   6.896   1.363   6.353
13621TIP3   OH240805   6.926   4.488   5.717
13621TIP3    H140806   6.882   4.404   5.708
13621TIP3    H240807   6.918   4.511   5.809
13622TIP3   OH240808   0.818   5.895   5.948
13622TIP3    H140809   0.874   5.973   5.953
13622TIP3    H240810   0.797   5.875   6.039
13623TIP3   OH240811   7.474   2.882   1.071
13623TIP3    H140812   7.566   2.856   1.077
13623TIP3    H240813   7.429   2.827   1.136
13624TIP3   OH240814   7.464   2.586   2.936
13624TIP3    H140815   7.398   2.643   2.898
13624TIP3    H240816   7.454   2.598   3.031
13625TIP3   OH240817   6.031   1.444   6.647
13625TIP3    H140818   6.091   1.453   6.573
13625TIP3    H240819   5.947   1.474   6.612
13626TIP3   OH240820   3.168   5.799   0.175
13626TIP3    H140821   3.162   5.884   0.218
13626TIP3    H240822   3.164   5.819   0.081
13627TIP3   OH240823   5.945   7.292   2.772
13627TIP3    H140824   5.863   7.259   2.808
13627TIP3    H240825   5.922   7.376   2.733
13628TIP3   OH240826   0.857   4.659   0.089
13628TIP3    H140827   0.863   4.576   0.041
13628TIP3    H240828   0.780   4.702   0.052
13629TIP3   OH240829   7.511   4.028   1.943
13629TIP3    H140830   7.444   4.043   1.876
13629TIP3    H240831   7.489   4.089   2.013
13630TIP3   OH240832   4.609   5.432   5.737
13630TIP3    H140833   4.683   5.459   5.792
13630TIP3    H240834   4.532   5.455   5.788
13631TIP3   OH240835   1.083   5.785   1.961
13631TIP3    H140836   1.023   5.767   1.889
13631TIP3    H240837   1.070   5.712   2.021
13632TIP3   OH240838   3.308   1.298   2.078
13632TIP3    H140839   3.305   1.216   2.128
13632TIP3    H240840   3.389   1.292   2.027
13633TIP3   OH240841   7.512   1.629   2.152
13633TIP3    H140842   7.465   1.639   2.234
13633TIP3    H240843   7.530   1.718   2.123
13634TIP3   OH240844   7.156   5.024   6.443
13634TIP3    H140845   7.169   5.113   6.476
13634TIP3    H240846   7.205   5.021   6.361
13635TIP3   OH240847   4.635   2.266   1.422
13635TIP3    H140848   4.581   2.198   1.462
13635TIP3    H240849   4.724   2.229   1.421
13636TIP3   OH240850   3.752   4.579   2.304
13636TIP3    H140851   3.660   4.557   2.318
13636TIP3    H240852   3.788   4.590   2.392
13637TIP3   OH240853   1.799   2.782   5.704
13637TIP3    H140854   1.827   2.694   5.679
13637TIP3    H240855   1.790   2.778   5.799
13638TIP3   OH240856   3.734   1.986   1.911
13638TIP3    H140857   3.657   1.935   1.936
13638TIP3    H240858   3.752   2.042   1.987
13639TIP3   OH240859   6.804   3.111   5.205
13639TIP3    H140860   6.855   3.048   5.154
13639TIP3    H240861   6.841   3.197   5.181
13640TIP3   OH240862   2.105   7.315   3.830
13640TIP3    H140863   2.195   7.309   3.798
13640TIP3    H240864   2.080   7.406   3.817
13641TIP3   OH240865   7.242   4.399   1.390
13641TIP3    H140866   7.306   4.358   1.448
13641TIP3    H240867   7.185   4.328   1.362
13642TIP3   OH240868   1.590   1.029   2.102
13642TIP3    H140869   1.646   1.028   2.024
13642TIP3    H240870   1.651   1.032   2.175
13643TIP3   OH240871   2.574   0.526   1.868
13643TIP3    H140872   2.556   0.453   1.809
13643TIP3    H240873   2.530   0.600   1.828
13644TIP3   OH240874   6.997   4.311   6.348
13644TIP3    H140875   7.044   4.386   6.385
13644TIP3    H240876   6.957   4.268   6.423
13645TIP3   OH240877   8.006   6.004   0.142
13645TIP3    H140878   7.919   6.043   0.137
13645TIP3    H240879   8.060   6.058   0.084
13646TIP3   OH240880   3.845   4.806   0.659
13646TIP3    H140881   3.919   4.782   0.715
13646TIP3    H240882   3.808   4.884   0.700
13647TIP3   OH240883   3.912   6.683   2.956
13647TIP3    H140884   3.842   6.702   3.018
13647TIP3    H240885   3.967   6.619   3.001
13648TIP3   OH240886   1.563   2.026   6.571
13648TIP3    H140887   1.490   1.977   6.535
13648TIP3    H240888   1.539   2.044   6.662
13649TIP3   OH240889   3.152   6.411   0.226
13649TIP3    H140890   3.141   6.363   0.309
13649TIP3    H240891   3.082   6.378   0.170
13650TIP3   OH240892   1.778   4.401   1.862
13650TIP3    H140893   1.718   4.356   1.803
13650TIP3    H240894   1.865   4.386   1.824
13651TIP3   OH240895   5.319   1.613   3.283
13651TIP3    H140896   5.365   1.571   3.210
13651TIP3    H240897   5.270   1.542   3.325
13652TIP3   OH240898   0.672   6.560   6.408
13652TIP3    H140899   0.642   6.517   6.328
13652TIP3    H240900   0.703   6.489   6.463
13653TIP3   OH240901   0.492   3.143   6.789
13653TIP3    H140902   0.410   3.134   6.741
13653TIP3    H240903   0.466   3.138   6.881
13654TIP3   OH240904   5.322   5.928   1.899
13654TIP3    H140905   5.399   5.975   1.869
13654TIP3    H240906   5.261   5.996   1.926
13655TIP3   OH240907   2.173   0.580   6.270
13655TIP3    H140908   2.205   0.600   6.182
13655TIP3    H240909   2.087   0.541   6.255
13656TIP3   OH240910   7.840   6.701   3.113
13656TIP3    H140911   7.870   6.610   3.125
13656TIP3    H240912   7.767   6.694   3.052
13657TIP3   OH240913   0.494   5.802   3.318
13657TIP3    H140914   0.403   5.809   3.290
13657TIP3    H240915   0.546   5.820   3.239
13658TIP3   OH240916   2.533   3.227   0.847
13658TIP3    H140917   2.591   3.169   0.895
13658TIP3    H240918   2.586   3.259   0.774
13659TIP3   OH240919   4.892   6.634   2.677
13659TIP3    H140920   4.887   6.695   2.604
13659TIP3    H240921   4.924   6.553   2.639
13660TIP3   OH240922   0.056   1.162   1.827
13660TIP3    H140923   0.125   1.128   1.770
13660TIP3    H240924   0.103   1.198   1.902
13661TIP3   OH240925   0.654   1.086   4.009
13661TIP3    H140926   0.600   1.121   4.079
13661TIP3    H240927   0.681   1.000   4.040
13662TIP3   OH240928   6.021   0.645   4.214
13662TIP3    H140929   6.022   0.665   4.308
13662TIP3    H240930   5.976   0.719   4.174
13663TIP3   OH240931   6.205   4.087   5.633
13663TIP3    H140932   6.150   4.104   5.556
13663TIP3    H240933   6.246   4.002   5.614
13664TIP3   OH240934   3.684   0.567   3.402
13664TIP3    H140935   3.757   0.506   3.394
13664TIP3    H240936   3.725   0.654   3.404
13665TIP3   OH240937   1.828   4.180   3.851
13665TIP3    H140938   1.761   4.244   3.828
13665TIP3    H240939   1.909   4.232   3.857
13666TIP3   OH240940   0.471   4.409   0.408
13666TIP3    H140941   0.396   4.351   0.402
13666TIP3    H240942   0.537   4.369   0.350
13667TIP3   OH240943   2.093   5.023   6.207
13667TIP3    H140944   2.060   5.015   6.297
13667TIP3    H240945   2.048   4.953   6.159
13668TIP3   OH240946   1.253   6.647   1.480
13668TIP3    H140947   1.342   6.634   1.449
13668TIP3    H240948   1.249   6.740   1.503
13669TIP3   OH240949   0.319   5.184   4.899
13669TIP3    H140950   0.388   5.184   4.966
13669TIP3    H240951   0.260   5.253   4.926
13670TIP3   OH240952   5.537   5.165   6.659
13670TIP3    H140953   5.553   5.206   6.744
13670TIP3    H240954   5.576   5.078   6.666
13671TIP3   OH240955   1.030   3.543   6.085
13671TIP3    H140956   0.946   3.499   6.071
13671TIP3    H240957   1.081   3.522   6.007
13672TIP3   OH240958   1.940   3.111   1.179
13672TIP3    H140959   1.880   3.041   1.152
13672TIP3    H240960   2.026   3.081   1.149
13673TIP3   OH240961   1.794   6.060   4.690
13673TIP3    H140962   1.844   6.043   4.610
13673TIP3    H240963   1.814   6.151   4.712
13674TIP3   OH240964   7.941   4.347   3.406
13674TIP3    H140965   7.988   4.266   3.385
13674TIP3    H240966   7.851   4.331   3.377
13675TIP3   OH240967   0.690   5.677   0.932
13675TIP3    H140968   0.651   5.708   1.014
13675TIP3    H240969   0.766   5.734   0.919
13676TIP3   OH240970   8.031   4.310   3.703
13676TIP3    H140971   8.002   4.220   3.719
13676TIP3    H240972   7.984   4.337   3.624
13677TIP3   OH240973   8.281   3.026   3.448
13677TIP3    H140974   8.302   3.015   3.355
13677TIP3    H240975   8.249   2.940   3.475
13678TIP3   OH240976   7.883   4.943   5.475
13678TIP3    H140977   7.834   5.023   5.455
13678TIP3    H240978   7.972   4.972   5.489
13679TIP3   OH240979   5.847   2.021   0.296
13679TIP3    H140980   5.818   1.965   0.223
13679TIP3    H240981   5.916   2.075   0.258
13680TIP3   OH240982   3.382   6.315   4.326
13680TIP3    H140983   3.348   6.389   4.276
13680TIP3    H240984   3.344   6.238   4.284
13681TIP3   OH240985   3.358   4.454   5.283
13681TIP3    H140986   3.394   4.491   5.203
13681TIP3    H240987   3.343   4.362   5.263
13682TIP3   OH240988   3.421   5.711   0.276
13682TIP3    H140989   3.445   5.785   0.333
13682TIP3    H240990   3.353   5.747   0.218
13683TIP3   OH240991   4.082   1.723   1.264
13683TIP3    H140992   4.138   1.669   1.208
13683TIP3    H240993   4.041   1.785   1.204
13684TIP3   OH240994   5.178   1.083   4.527
13684TIP3    H140995   5.085   1.108   4.526
13684TIP3    H240996   5.178   0.994   4.562
13685TIP3   OH240997   2.233   1.775   2.874
13685TIP3    H140998   2.199   1.859   2.905
13685TIP3    H240999   2.314   1.763   2.922
13686TIP3   OH241000   3.267   5.170   5.504
13686TIP3    H141001   3.308   5.228   5.440
13686TIP3    H241002   3.223   5.104   5.452
13687TIP3   OH241003   5.711   3.780   6.724
13687TIP3    H141004   5.723   3.717   6.652
13687TIP3    H241005   5.742   3.733   6.802
13688TIP3   OH241006   4.679   3.366   2.230
13688TIP3    H141007   4.689   3.361   2.325
13688TIP3    H241008   4.769   3.373   2.197
13689TIP3   OH241009   1.613   1.319   5.732
13689TIP3    H141010   1.689   1.374   5.714
13689TIP3    H241011   1.646   1.251   5.791
13690TIP3   OH241012   7.183   4.045   4.649
13690TIP3    H141013   7.255   3.995   4.685
13690TIP3    H241014   7.116   3.980   4.629
13691TIP3   OH241015   1.342   5.362   0.424
13691TIP3    H141016   1.258   5.394   0.456
13691TIP3    H241017   1.331   5.268   0.418
13692TIP3   OH241018   3.505   3.031   2.322
13692TIP3    H141019   3.460   3.111   2.348
13692TIP3    H241020   3.544   3.052   2.237
13693TIP3   OH241021   1.688   4.711   5.482
13693TIP3    H141022   1.691   4.805   5.468
13693TIP3    H241023   1.670   4.674   5.396
13694TIP3   OH241024   0.776   5.650   3.379
13694TIP3    H141025   0.686   5.667   3.407
13694TIP3    H241026   0.801   5.729   3.332
13695TIP3   OH241027   2.512   3.510   0.293
13695TIP3    H141028   2.555   3.542   0.214
13695TIP3    H241029   2.552   3.425   0.310
13696TIP3   OH241030   5.639   1.508   5.744
13696TIP3    H141031   5.701   1.578   5.721
13696TIP3    H241032   5.634   1.511   5.839
13697TIP3   OH241033   7.110   2.384   5.543
13697TIP3    H141034   7.186   2.337   5.576
13697TIP3    H241035   7.131   2.476   5.556
13698TIP3   OH241036   3.461   0.198   6.106
13698TIP3    H141037   3.382   0.189   6.160
13698TIP3    H241038   3.482   0.109   6.079
13699TIP3   OH241039   6.400   6.437   0.868
13699TIP3    H141040   6.416   6.465   0.778
13699TIP3    H241041   6.333   6.369   0.860
13700TIP3   OH241042   4.919   6.539   6.118
13700TIP3    H141043   4.843   6.528   6.174
13700TIP3    H241044   4.960   6.621   6.146
13701TIP3   OH241045   6.394   2.529   4.944
13701TIP3    H141046   6.397   2.444   4.988
13701TIP3    H241047   6.480   2.536   4.901
13702TIP3   OH241048   0.362   3.242   5.562
13702TIP3    H141049   0.300   3.185   5.516
13702TIP3    H241050   0.422   3.182   5.606
13703TIP3   OH241051   6.415   3.233   2.555
13703TIP3    H141052   6.326   3.207   2.531
13703TIP3    H241053   6.471   3.187   2.492
13704TIP3   OH241054   4.777   4.892   6.560
13704TIP3    H141055   4.694   4.897   6.513
13704TIP3    H241056   4.780   4.804   6.595
13705TIP3   OH241057   6.031   2.662   1.727
13705TIP3    H141058   5.943   2.626   1.716
13705TIP3    H241059   6.061   2.629   1.812
13706TIP3   OH241060   8.096   3.481  -0.009
13706TIP3    H141061   8.107   3.413   0.058
13706TIP3    H241062   8.178   3.481  -0.058
13707TIP3   OH241063   4.800   6.039   5.552
13707TIP3    H141064   4.809   6.108   5.619
13707TIP3    H241065   4.746   6.080   5.484
13708TIP3   OH241066   5.938   6.760   2.845
13708TIP3    H141067   5.932   6.851   2.874
13708TIP3    H241068   5.851   6.724   2.860
13709TIP3   OH241069   4.258   7.039   0.982
13709TIP3    H141070   4.281   7.130   0.968
13709TIP3    H241071   4.257   7.029   1.077
13710TIP3   OH241072   3.520   1.734   6.442
13710TIP3    H141073   3.504   1.729   6.536
13710TIP3    H241074   3.487   1.651   6.407
13711TIP3   OH241075   0.174   0.493   2.958
13711TIP3    H141076   0.098   0.450   2.918
13711TIP3    H241077   0.136   0.553   3.022
13712TIP3   OH241078   0.391   4.578   0.093
13712TIP3    H141079   0.459   4.601   0.030
13712TIP3    H241080   0.373   4.486   0.077
13713TIP3   OH241081   5.682   0.792   1.427
13713TIP3    H141082   5.633   0.711   1.442
13713TIP3    H241083   5.647   0.854   1.491
13714TIP3   OH241084   7.822   3.331   4.087
13714TIP3    H141085   7.734   3.366   4.102
13714TIP3    H241086   7.825   3.315   3.993
13715TIP3   OH241087   4.729   0.127   3.867
13715TIP3    H141088   4.674   0.193   3.909
13715TIP3    H241089   4.683   0.105   3.787
13716TIP3   OH241090   5.466   2.442   6.396
13716TIP3    H141091   5.488   2.525   6.355
13716TIP3    H241092   5.387   2.460   6.447
13717TIP3   OH241093   7.042   6.927   2.019
13717TIP3    H141094   6.990   6.868   1.964
13717TIP3    H241095   7.070   6.997   1.960
13718TIP3   OH241096   4.104   2.056   1.369
13718TIP3    H141097   4.065   2.142   1.353
13718TIP3    H241098   4.120   2.055   1.464
13719TIP3   OH241099   1.051   5.530   2.230
13719TIP3    H141100   1.122   5.465   2.233
13719TIP3    H241101   1.082   5.602   2.284
13720TIP3   OH241102   5.789   5.844   3.039
13720TIP3    H141103   5.761   5.823   2.950
13720TIP3    H241104   5.707   5.846   3.089
13721TIP3   OH241105   4.693   4.719   4.303
13721TIP3    H141106   4.743   4.640   4.280
13721TIP3    H241107   4.612   4.711   4.252
13722TIP3   OH241108   1.691   4.277   5.379
13722TIP3    H141109   1.601   4.274   5.413
13722TIP3    H241110   1.696   4.204   5.318
13723TIP3   OH241111   7.542   4.937   3.038
13723TIP3    H141112   7.574   4.961   3.125
13723TIP3    H241113   7.515   4.845   3.047
13724TIP3   OH241114   5.839   4.552   3.215
13724TIP3    H141115   5.851   4.626   3.275
13724TIP3    H241116   5.897   4.570   3.142
13725TIP3   OH241117   6.617   6.368   5.395
13725TIP3    H141118   6.539   6.316   5.381
13725TIP3    H241119   6.680   6.308   5.435
13726TIP3   OH241120   4.030   7.440   1.895
13726TIP3    H141121   3.973   7.503   1.851
13726TIP3    H241122   4.065   7.386   1.824
13727TIP3   OH241123   7.169   4.063   0.956
13727TIP3    H141124   7.197   3.975   0.931
13727TIP3    H241125   7.176   4.064   1.052
13728TIP3   OH241126   0.085   7.612   3.721
13728TIP3    H141127   0.134   7.618   3.638
13728TIP3    H241128   0.096   7.698   3.761
13729TIP3   OH241129   4.570   7.179   5.251
13729TIP3    H141130   4.516   7.252   5.282
13729TIP3    H241131   4.601   7.207   5.165
13730TIP3   OH241132   0.743   1.066   4.979
13730TIP3    H141133   0.775   1.103   5.062
13730TIP3    H241134   0.801   1.102   4.913
13731TIP3   OH241135   4.829   4.174   2.679
13731TIP3    H141136   4.812   4.239   2.747
13731TIP3    H241137   4.911   4.132   2.705
13732TIP3   OH241138   4.141   4.267   1.204
13732TIP3    H141139   4.112   4.245   1.292
13732TIP3    H241140   4.060   4.285   1.156
13733TIP3   OH241141   7.571   7.742   3.492
13733TIP3    H141142   7.597   7.674   3.554
13733TIP3    H241143   7.576   7.824   3.542
13734TIP3   OH241144   2.922   4.366   6.682
13734TIP3    H141145   2.906   4.422   6.759
13734TIP3    H241146   3.011   4.334   6.694
13735TIP3   OH241147   3.385   5.043   5.210
13735TIP3    H141148   3.401   4.992   5.131
13735TIP3    H241149   3.292   5.031   5.228
13736TIP3   OH241150   5.393   0.058   1.288
13736TIP3    H141151   5.486   0.047   1.308
13736TIP3    H241152   5.348   0.013   1.360
13737TIP3   OH241153   2.305   3.713   3.163
13737TIP3    H141154   2.218   3.683   3.191
13737TIP3    H241155   2.288   3.799   3.123
13738TIP3   OH241156   7.750   6.283   5.667
13738TIP3    H141157   7.744   6.188   5.665
13738TIP3    H241158   7.740   6.306   5.759
13739TIP3   OH241159   8.074   1.505   1.224
13739TIP3    H141160   8.150   1.560   1.243
13739TIP3    H241161   8.068   1.446   1.299
13740TIP3   OH241162   7.749   1.305   1.992
13740TIP3    H141163   7.697   1.230   2.020
13740TIP3    H241164   7.726   1.375   2.053
13741TIP3   OH241165   4.337   1.168   2.364
13741TIP3    H141166   4.376   1.124   2.289
13741TIP3    H241167   4.255   1.120   2.380
13742TIP3   OH241168   6.562   6.043   0.280
13742TIP3    H141169   6.574   6.059   0.373
13742TIP3    H241170   6.561   5.948   0.271
13743TIP3   OH241171   3.362   4.655   0.430
13743TIP3    H141172   3.343   4.699   0.512
13743TIP3    H241173   3.457   4.652   0.424
13744TIP3   OH241174   4.286   1.186   3.439
13744TIP3    H141175   4.374   1.217   3.462
13744TIP3    H241176   4.297   1.093   3.421
13745TIP3   OH241177   3.245   7.270   1.638
13745TIP3    H141178   3.259   7.187   1.683
13745TIP3    H241179   3.308   7.269   1.566
13746TIP3   OH241180   7.123   3.475   4.910
13746TIP3    H141181   7.055   3.467   4.842
13746TIP3    H241182   7.074   3.489   4.991
13747TIP3   OH241183   0.194   7.665   5.064
13747TIP3    H141184   0.211   7.727   5.134
13747TIP3    H241185   0.272   7.609   5.062
13748TIP3   OH241186   2.764   3.176   1.713
13748TIP3    H141187   2.738   3.255   1.761
13748TIP3    H241188   2.684   3.125   1.705
13749TIP3   OH241189   6.137   1.209   0.583
13749TIP3    H141190   6.195   1.284   0.570
13749TIP3    H241191   6.078   1.236   0.654
13750TIP3   OH241192   7.944   6.054   1.683
13750TIP3    H141193   7.963   6.088   1.596
13750TIP3    H241194   7.870   6.106   1.714
13751TIP3   OH241195   7.573   1.965   5.792
13751TIP3    H141196   7.591   2.041   5.736
13751TIP3    H241197   7.488   1.933   5.763
13752TIP3   OH241198   5.964   0.084   0.186
13752TIP3    H141199   5.923   0.013   0.136
13752TIP3    H241200   5.947   0.062   0.278
13753TIP3   OH241201   2.351   2.527   2.290
13753TIP3    H141202   2.413   2.525   2.217
13753TIP3    H241203   2.386   2.463   2.353
13754TIP3   OH241204   3.915   3.956   2.413
13754TIP3    H141205   3.974   3.932   2.485
13754TIP3    H241206   3.861   4.026   2.450
13755TIP3   OH241207   0.649   4.888   6.535
13755TIP3    H141208   0.711   4.865   6.466
13755TIP3    H241209   0.621   4.804   6.571
13756TIP3   OH241210   3.368   6.352   6.533
13756TIP3    H141211   3.326   6.315   6.455
13756TIP3    H241212   3.296   6.392   6.582
13757TIP3   OH241213   1.873   1.870   5.158
13757TIP3    H141214   1.952   1.868   5.212
13757TIP3    H241215   1.826   1.789   5.182
13758TIP3   OH241216   3.950   3.418   5.846
13758TIP3    H141217   3.917   3.382   5.928
13758TIP3    H241218   3.909   3.365   5.778
13759TIP3   OH241219   2.907   5.093   0.582
13759TIP3    H141220   2.918   5.169   0.524
13759TIP3    H241221   2.986   5.095   0.637
13760TIP3   OH241222   2.832   2.260   5.878
13760TIP3    H141223   2.902   2.196   5.888
13760TIP3    H241224   2.867   2.340   5.917
13761TIP3   OH241225   6.064   6.135   2.752
13761TIP3    H141226   6.032   6.217   2.715
13761TIP3    H241227   6.017   6.125   2.834
13762TIP3   OH241228   1.888   4.587   5.153
13762TIP3    H141229   1.923   4.632   5.229
13762TIP3    H241230   1.802   4.555   5.181
13763TIP3   OH241231   6.417   3.487   0.972
13763TIP3    H141232   6.445   3.572   0.937
13763TIP3    H241233   6.493   3.455   1.021
13764TIP3   OH241234   4.544   2.047   3.789
13764TIP3    H141235   4.625   1.996   3.794
13764TIP3    H241236   4.485   1.993   3.736
13765TIP3   OH241237   1.890   6.462   2.440
13765TIP3    H141238   1.884   6.555   2.462
13765TIP3    H241239   1.982   6.449   2.417
13766TIP3   OH241240   5.881   5.167   0.341
13766TIP3    H141241   5.802   5.114   0.339
13766TIP3    H241242   5.876   5.221   0.262
13767TIP3   OH241243   4.886   7.120   0.576
13767TIP3    H141244   4.895   7.025   0.582
13767TIP3    H241245   4.792   7.136   0.588
13768TIP3   OH241246   6.201   1.065   1.545
13768TIP3    H141247   6.260   1.009   1.495
13768TIP3    H241248   6.259   1.121   1.596
13769TIP3   OH241249   8.135   6.750   2.335
13769TIP3    H141250   8.137   6.837   2.375
13769TIP3    H241251   8.059   6.752   2.278
13770TIP3   OH241252   1.847   3.626  -0.002
13770TIP3    H141253   1.837   3.720  -0.018
13770TIP3    H241254   1.760   3.590  -0.015
13771TIP3   OH241255   2.825   5.057   6.721
13771TIP3    H141256   2.847   4.972   6.759
13771TIP3    H241257   2.798   5.037   6.632
13772TIP3   OH241258   5.686   0.251   2.995
13772TIP3    H141259   5.597   0.232   2.967
13772TIP3    H241260   5.740   0.230   2.919
13773TIP3   OH241261   3.799   6.086   1.072
13773TIP3    H141262   3.774   6.089   1.165
13773TIP3    H241263   3.789   6.176   1.042
13774TIP3   OH241264   1.318   0.443   3.476
13774TIP3    H141265   1.246   0.492   3.437
13774TIP3    H241266   1.277   0.364   3.511
13775TIP3   OH241267   3.440   1.226   5.820
13775TIP3    H141268   3.453   1.178   5.902
13775TIP3    H241269   3.423   1.159   5.755
13776TIP3   OH241270   6.366   7.702   0.832
13776TIP3    H141271   6.437   7.748   0.787
13776TIP3    H241272   6.394   7.611   0.835
13777TIP3   OH241273   1.781   6.808   0.191
13777TIP3    H141274   1.825   6.811   0.276
13777TIP3    H241275   1.688   6.801   0.212
13778TIP3   OH241276   3.091   0.908   2.867
13778TIP3    H141277   3.029   0.862   2.810
13778TIP3    H241278   3.154   0.841   2.892
13779TIP3   OH241279   4.860   2.480   2.358
13779TIP3    H141280   4.952   2.503   2.362
13779TIP3    H241281   4.839   2.445   2.444
13780TIP3   OH241282   4.602   5.348   4.063
13780TIP3    H141283   4.616   5.358   4.157
13780TIP3    H241284   4.544   5.273   4.055
13781TIP3   OH241285   0.516   7.541   1.066
13781TIP3    H141286   0.587   7.577   1.118
13781TIP3    H241287   0.441   7.598   1.085
13782TIP3   OH241288   5.941   0.951   1.642
13782TIP3    H141289   6.020   0.981   1.597
13782TIP3    H241290   5.949   0.855   1.643
13783TIP3   OH241291   3.629   3.471   2.788
13783TIP3    H141292   3.711   3.501   2.749
13783TIP3    H241293   3.600   3.399   2.732
13784TIP3   OH241294   4.160   4.619   4.120
13784TIP3    H141295   4.239   4.638   4.069
13784TIP3    H241296   4.187   4.550   4.180
13785TIP3   OH241297   4.667   1.469   5.899
13785TIP3    H141298   4.688   1.429   5.814
13785TIP3    H241299   4.572   1.470   5.902
13786TIP3   OH241300   5.867   3.759   5.692
13786TIP3    H141301   5.961   3.773   5.700
13786TIP3    H241302   5.840   3.731   5.780
13787TIP3   OH241303   0.736   1.818   4.685
13787TIP3    H141304   0.651   1.800   4.644
13787TIP3    H241305   0.766   1.899   4.643
13788TIP3   OH241306   2.644   0.149   1.201
13788TIP3    H141307   2.655   0.244   1.210
13788TIP3    H241308   2.719   0.111   1.245
13789TIP3   OH241309   4.408   0.181   3.234
13789TIP3    H141310   4.468   0.230   3.289
13789TIP3    H241311   4.419   0.090   3.261
13790TIP3   OH241312   7.720   6.339   5.399
13790TIP3    H141313   7.716   6.327   5.494
13790TIP3    H241314   7.675   6.422   5.383
13791TIP3   OH241315   1.714   3.250   2.262
13791TIP3    H141316   1.709   3.333   2.310
13791TIP3    H241317   1.643   3.198   2.299
13792TIP3   OH241318   5.965   6.539   0.707
13792TIP3    H141319   6.003   6.455   0.734
13792TIP3    H241320   6.040   6.596   0.693
13793TIP3   OH241321   2.931   4.314   1.623
13793TIP3    H141322   2.845   4.319   1.666
13793TIP3    H241323   2.978   4.391   1.655
13794TIP3   OH241324   4.705   3.246   4.556
13794TIP3    H141325   4.763   3.231   4.482
13794TIP3    H241326   4.685   3.159   4.589
13795TIP3   OH241327   6.337   3.434   6.013
13795TIP3    H141328   6.296   3.411   6.097
13795TIP3    H241329   6.326   3.356   5.959
13796TIP3   OH241330   4.397   2.441   4.013
13796TIP3    H141331   4.423   2.349   4.020
13796TIP3    H241332   4.396   2.459   3.919
13797TIP3   OH241333   1.791   3.662   1.294
13797TIP3    H141334   1.756   3.734   1.347
13797TIP3    H241335   1.821   3.705   1.213
13798TIP3   OH241336   2.049   1.428   1.369
13798TIP3    H141337   2.067   1.521   1.358
13798TIP3    H241338   1.998   1.404   1.292
13799TIP3   OH241339   3.299   4.879   2.254
13799TIP3    H141340   3.265   4.792   2.275
13799TIP3    H241341   3.323   4.916   2.339
13800TIP3   OH241342   5.530   3.423   0.423
13800TIP3    H141343   5.624   3.440   0.416
13800TIP3    H241344   5.520   3.334   0.388
13801TIP3   OH241345   4.627   4.673   5.749
13801TIP3    H141346   4.651   4.670   5.657
13801TIP3    H241347   4.578   4.592   5.764
13802TIP3   OH241348   8.005   5.666   5.369
13802TIP3    H141349   8.080   5.727   5.369
13802TIP3    H241350   7.941   5.707   5.427
13803TIP3   OH241351   7.522   7.496   4.848
13803TIP3    H141352   7.613   7.506   4.823
13803TIP3    H241353   7.502   7.574   4.900
13804TIP3   OH241354   3.425   0.623   2.251
13804TIP3    H141355   3.405   0.595   2.162
13804TIP3    H241356   3.437   0.542   2.300
13805TIP3   OH241357   5.427   0.063   2.340
13805TIP3    H141358   5.486   0.137   2.322
13805TIP3    H241359   5.418   0.018   2.256
13806TIP3   OH241360   6.902   6.924   3.620
13806TIP3    H141361   6.847   6.988   3.574
13806TIP3    H241362   6.839   6.865   3.662
13807TIP3   OH241363   1.249   5.810   3.155
13807TIP3    H141364   1.343   5.826   3.167
13807TIP3    H241365   1.240   5.785   3.064
13808TIP3   OH241366   6.082   5.006   6.035
13808TIP3    H141367   6.137   5.038   6.106
13808TIP3    H241368   6.137   4.944   5.987
13809TIP3   OH241369   5.575   3.556   6.442
13809TIP3    H141370   5.554   3.646   6.415
13809TIP3    H241371   5.527   3.545   6.524
13810TIP3   OH241372   4.173   3.225   0.677
13810TIP3    H141373   4.138   3.179   0.600
13810TIP3    H241374   4.185   3.315   0.647
13811TIP3   OH241375   2.692   6.029   5.255
13811TIP3    H141376   2.599   6.008   5.243
13811TIP3    H241377   2.701   6.043   5.349
13812TIP3   OH241378   3.606   4.458   5.696
13812TIP3    H141379   3.654   4.499   5.768
13812TIP3    H241380   3.674   4.439   5.631
13813TIP3   OH241381   4.039   0.493   2.956
13813TIP3    H141382   4.008   0.403   2.971
13813TIP3    H241383   3.998   0.544   3.026
13814TIP3   OH241384   7.629   5.682   6.455
13814TIP3    H141385   7.632   5.695   6.360
13814TIP3    H241386   7.548   5.726   6.482
13815TIP3   OH241387   0.603   4.784   1.513
13815TIP3    H141388   0.661   4.778   1.437
13815TIP3    H241389   0.522   4.742   1.484
13816TIP3   OH241390   6.234   6.261   1.394
13816TIP3    H141391   6.205   6.339   1.441
13816TIP3    H241392   6.281   6.295   1.318
13817TIP3   OH241393   7.630   4.329   3.696
13817TIP3    H141394   7.638   4.353   3.788
13817TIP3    H241395   7.629   4.413   3.649
13818TIP3   OH241396   5.651   3.476   3.310
13818TIP3    H141397   5.644   3.387   3.345
13818TIP3    H241398   5.742   3.484   3.283
13819TIP3   OH241399   2.508   0.713   6.019
13819TIP3    H141400   2.485   0.802   6.044
13819TIP3    H241401   2.598   0.702   6.052
13820TIP3   OH241402   5.020   1.328   5.566
13820TIP3    H141403   5.082   1.397   5.588
13820TIP3    H241404   4.993   1.347   5.476
13821TIP3   OH241405   5.056   2.860   2.671
13821TIP3    H141406   5.004   2.901   2.740
13821TIP3    H241407   5.141   2.843   2.711
13822TIP3   OH241408   8.111   1.161   1.650
13822TIP3    H141409   8.192   1.187   1.695
13822TIP3    H241410   8.041   1.207   1.697
13823TIP3   OH241411   8.193   2.936   4.023
13823TIP3    H141412   8.250   2.954   4.098
13823TIP3    H241413   8.118   2.993   4.035
13824TIP3   OH241414   1.251   1.966   6.150
13824TIP3    H141415   1.162   1.999   6.149
13824TIP3    H241416   1.275   1.964   6.243
13825TIP3   OH241417   7.380   5.218   2.842
13825TIP3    H141418   7.438   5.197   2.769
13825TIP3    H241419   7.407   5.306   2.869
13826TIP3   OH241420   2.790   4.632   5.593
13826TIP3    H141421   2.854   4.679   5.647
13826TIP3    H241422   2.757   4.697   5.532
13827TIP3   OH241423   7.472   6.533   4.213
13827TIP3    H141424   7.526   6.602   4.175
13827TIP3    H241425   7.439   6.570   4.295
13828TIP3   OH241426   7.004   7.414   0.386
13828TIP3    H141427   6.969   7.330   0.416
13828TIP3    H241428   6.932   7.455   0.339
13829TIP3   OH241429   1.024   3.395   0.096
13829TIP3    H141430   1.001   3.381   0.004
13829TIP3    H241431   1.080   3.322   0.119
13830TIP3   OH241432   5.440   7.189   3.959
13830TIP3    H141433   5.480   7.130   3.895
13830TIP3    H241434   5.403   7.132   4.026
13831TIP3   OH241435   6.738   3.570   5.199
13831TIP3    H141436   6.725   3.591   5.291
13831TIP3    H241437   6.667   3.509   5.179
13832TIP3   OH241438   7.295   6.797   2.140
13832TIP3    H141439   7.259   6.791   2.228
13832TIP3    H241440   7.230   6.848   2.091
13833TIP3   OH241441   7.254   6.699   5.081
13833TIP3    H141442   7.297   6.762   5.139
13833TIP3    H241443   7.288   6.614   5.108
13834TIP3   OH241444   6.070   6.304   0.347
13834TIP3    H141445   6.122   6.371   0.390
13834TIP3    H241446   6.091   6.223   0.393
13835TIP3   OH241447   7.481   0.390   5.154
13835TIP3    H141448   7.542   0.355   5.219
13835TIP3    H241449   7.529   0.462   5.112
13836TIP3   OH241450   2.205   3.933   6.537
13836TIP3    H141451   2.300   3.936   6.531
13836TIP3    H241452   2.184   3.839   6.540
13837TIP3   OH241453   5.627   0.048   5.630
13837TIP3    H141454   5.598   0.009   5.548
13837TIP3    H241455   5.695  -0.012   5.662
13838TIP3   OH241456   0.151   3.899   6.652
13838TIP3    H141457   0.179   3.943   6.572
13838TIP3    H241458   0.230   3.857   6.685
13839TIP3   OH241459   0.913   1.678   3.841
13839TIP3    H141460   0.908   1.772   3.855
13839TIP3    H241461   0.996   1.664   3.795
13840TIP3   OH241462   4.998   0.531   3.052
13840TIP3    H141463   4.969   0.457   2.998
13840TIP3    H241464   5.082   0.557   3.014
13841TIP3   OH241465   2.866   0.049   4.874
13841TIP3    H141466   2.886   0.116   4.939
13841TIP3    H241467   2.894  -0.033   4.915
13842TIP3   OH241468   1.495   6.936   1.572
13842TIP3    H141469   1.471   6.866   1.632
13842TIP3    H241470   1.427   6.935   1.504
13843TIP3   OH241471   0.615   7.544   2.286
13843TIP3    H141472   0.594   7.450   2.280
13843TIP3    H241473   0.710   7.546   2.292
13844TIP3   OH241474   5.623   0.037   3.755
13844TIP3    H141475   5.543   0.013   3.708
13844TIP3    H241476   5.681   0.072   3.688
13845TIP3   OH241477   7.821   4.678   4.390
13845TIP3    H141478   7.906   4.720   4.400
13845TIP3    H241479   7.839   4.585   4.403
13846TIP3   OH241480   0.935   2.980   5.860
13846TIP3    H141481   0.863   2.950   5.805
13846TIP3    H241482   0.970   2.899   5.899
13847TIP3   OH241483   4.478   5.891   2.172
13847TIP3    H141484   4.406   5.859   2.226
13847TIP3    H241485   4.525   5.952   2.228
13848TIP3   OH241486   4.342   1.945   1.245
13848TIP3    H141487   4.312   1.862   1.283
13848TIP3    H241488   4.277   2.009   1.272
13849TIP3   OH241489   6.318   2.007   3.916
13849TIP3    H141490   6.376   2.077   3.887
13849TIP3    H241491   6.318   1.944   3.844
13850TIP3   OH241492   4.622   4.613   5.425
13850TIP3    H141493   4.711   4.583   5.403
13850TIP3    H241494   4.584   4.637   5.341
13851TIP3   OH241495   4.995   7.414   2.693
13851TIP3    H141496   4.928   7.441   2.756
13851TIP3    H241497   5.074   7.404   2.746
13852TIP3   OH241498   7.208   7.324   3.288
13852TIP3    H141499   7.289   7.280   3.259
13852TIP3    H241500   7.192   7.391   3.221
13853TIP3   OH241501   5.967   6.227   5.619
13853TIP3    H141502   5.945   6.156   5.679
13853TIP3    H241503   6.041   6.194   5.567
13854TIP3   OH241504   5.855   0.482   5.398
13854TIP3    H141505   5.884   0.553   5.341
13854TIP3    H241506   5.804   0.525   5.467
13855TIP3   OH241507   6.661   7.526   5.146
13855TIP3    H141508   6.728   7.457   5.149
13855TIP3    H241509   6.693   7.587   5.080
13856TIP3   OH241510   6.989   2.353   4.443
13856TIP3    H141511   6.905   2.333   4.401
13856TIP3    H241512   7.055   2.314   4.385
13857TIP3   OH241513   4.573   4.671   3.393
13857TIP3    H141514   4.649   4.660   3.336
13857TIP3    H241515   4.603   4.730   3.462
13858TIP3   OH241516   1.257   6.541   4.671
13858TIP3    H141517   1.325   6.529   4.605
13858TIP3    H241518   1.175   6.516   4.627
13859TIP3   OH241519   1.454   0.493   1.344
13859TIP3    H141520   1.444   0.445   1.426
13859TIP3    H241521   1.522   0.558   1.362
13860TIP3   OH241522   4.560   2.365   6.038
13860TIP3    H141523   4.544   2.330   5.951
13860TIP3    H241524   4.653   2.348   6.053
13861TIP3   OH241525   3.061   1.314   2.444
13861TIP3    H141526   3.089   1.250   2.509
13861TIP3    H241527   3.091   1.398   2.479
13862TIP3   OH241528   6.386   5.074   0.154
13862TIP3    H141529   6.439   5.106   0.081
13862TIP3    H241530   6.327   5.146   0.174
13863TIP3   OH241531   3.189   6.521   6.681
13863TIP3    H141532   3.129   6.556   6.747
13863TIP3    H241533   3.235   6.597   6.647
13864TIP3   OH241534   6.870   1.990   2.241
13864TIP3    H141535   6.874   1.946   2.156
13864TIP3    H241536   6.836   1.923   2.301
13865TIP3   OH241537   6.718   0.215   4.078
13865TIP3    H141538   6.705   0.120   4.082
13865TIP3    H241539   6.676   0.248   4.158
13866TIP3   OH241540   7.123   3.469   1.362
13866TIP3    H141541   7.083   3.385   1.385
13866TIP3    H241542   7.214   3.447   1.342
13867TIP3   OH241543   5.978   4.121   6.115
13867TIP3    H141544   6.048   4.077   6.164
13867TIP3    H241545   5.984   4.085   6.027
13868TIP3   OH241546   6.702   0.133   3.671
13868TIP3    H141547   6.698   0.044   3.707
13868TIP3    H241548   6.781   0.134   3.618
13869TIP3   OH241549   5.913   2.349   5.934
13869TIP3    H141550   5.845   2.320   5.872
13869TIP3    H241551   5.865   2.369   6.014
13870TIP3   OH241552   2.233   0.752   1.940
13870TIP3    H141553   2.260   0.672   1.894
13870TIP3    H241554   2.288   0.755   2.018
13871TIP3   OH241555   7.016   6.891   5.321
13871TIP3    H141556   7.035   6.883   5.228
13871TIP3    H241557   6.976   6.808   5.344
13872TIP3   OH241558   2.714   0.498   6.686
13872TIP3    H141559   2.667   0.417   6.666
13872TIP3    H241560   2.650   0.568   6.671
13873TIP3   OH241561   2.875   5.120   2.057
13873TIP3    H141562   2.786   5.087   2.041
13873TIP3    H241563   2.916   5.053   2.112
13874TIP3   OH241564   7.504   0.217   0.910
13874TIP3    H141565   7.525   0.309   0.896
13874TIP3    H241566   7.410   0.215   0.924
13875TIP3   OH241567   8.218   1.312   3.391
13875TIP3    H141568   8.235   1.222   3.419
13875TIP3    H241569   8.198   1.305   3.298
13876TIP3   OH241570   0.079   2.230   3.034
13876TIP3    H141571   0.157   2.242   2.981
13876TIP3    H241572   0.062   2.136   3.034
13877TIP3   OH241573   3.312   7.081   1.001
13877TIP3    H141574   3.302   6.990   1.031
13877TIP3    H241575   3.340   7.074   0.910
13878TIP3   OH241576   7.454   0.741   6.311
13878TIP3    H141577   7.485   0.830   6.323
13878TIP3    H241578   7.457   0.727   6.216
13879TIP3   OH241579   4.666   0.918   6.244
13879TIP3    H141580   4.570   0.918   6.248
13879TIP3    H241581   4.693   0.889   6.331
13880TIP3   OH241582   3.434   0.793   5.491
13880TIP3    H141583   3.429   0.755   5.579
13880TIP3    H241584   3.426   0.719   5.432
13881TIP3   OH241585   4.507   1.311   3.828
13881TIP3    H141586   4.444   1.240   3.836
13881TIP3    H241587   4.496   1.363   3.908
13882TIP3   OH241588   7.357   4.707   4.494
13882TIP3    H141589   7.433   4.681   4.546
13882TIP3    H241590   7.386   4.703   4.404
13883TIP3   OH241591   5.213   4.202   5.237
13883TIP3    H141592   5.213   4.234   5.147
13883TIP3    H241593   5.181   4.276   5.288
13884TIP3   OH241594   1.061   1.850   1.998
13884TIP3    H141595   1.022   1.791   1.934
13884TIP3    H241596   0.988   1.907   2.026
13885TIP3   OH241597   1.835   7.363   3.156
13885TIP3    H141598   1.927   7.381   3.176
13885TIP3    H241599   1.810   7.432   3.094
13886TIP3   OH241600   2.649   0.792   6.419
13886TIP3    H141601   2.716   0.805   6.486
13886TIP3    H241602   2.573   0.840   6.451
13887TIP3   OH241603   3.992   3.916   4.638
13887TIP3    H141604   4.041   3.857   4.695
13887TIP3    H241605   4.054   3.986   4.618
13888TIP3   OH241606   3.029   5.063   3.870
13888TIP3    H141607   2.951   5.031   3.825
13888TIP3    H241608   3.070   5.122   3.806
13889TIP3   OH241609   6.918   5.109   0.796
13889TIP3    H141610   6.849   5.149   0.848
13889TIP3    H241611   6.904   5.143   0.708
13890TIP3   OH241612   2.252   4.741   2.739
13890TIP3    H141613   2.263   4.670   2.802
13890TIP3    H241614   2.206   4.700   2.665
13891TIP3   OH241615   3.041   2.715   5.463
13891TIP3    H141616   2.986   2.732   5.539
13891TIP3    H241617   2.986   2.737   5.388
13892TIP3   OH241618   5.692   7.377   3.119
13892TIP3    H141619   5.601   7.393   3.095
13892TIP3    H241620   5.739   7.374   3.035
13893TIP3   OH241621   3.539   6.507   4.476
13893TIP3    H141622   3.493   6.427   4.447
13893TIP3    H241623   3.468   6.567   4.500
13894TIP3   OH241624   5.002   2.393   4.387
13894TIP3    H141625   5.008   2.343   4.306
13894TIP3    H241626   5.074   2.362   4.441
13895TIP3   OH241627   1.396   5.305   0.839
13895TIP3    H141628   1.320   5.323   0.895
13895TIP3    H241629   1.467   5.288   0.901
13896TIP3   OH241630   7.499   0.547   4.777
13896TIP3    H141631   7.562   0.554   4.706
13896TIP3    H241632   7.522   0.618   4.837
13897TIP3   OH241633   0.053   6.100   6.188
13897TIP3    H141634   0.007   6.135   6.265
13897TIP3    H241635   0.143   6.130   6.198
13898TIP3   OH241636   7.973   3.444   2.025
13898TIP3    H141637   7.971   3.502   2.100
13898TIP3    H241638   8.033   3.374   2.049
13899TIP3   OH241639   0.968   6.890   4.195
13899TIP3    H141640   0.891   6.841   4.225
13899TIP3    H241641   1.023   6.824   4.153
13900TIP3   OH241642   4.748   2.072   1.747
13900TIP3    H141643   4.838   2.071   1.781
13900TIP3    H241644   4.756   2.109   1.659
13901TIP3   OH241645   6.813   5.479   2.603
13901TIP3    H141646   6.820   5.496   2.509
13901TIP3    H241647   6.787   5.563   2.641
13902TIP3   OH241648   3.830   4.804   3.638
13902TIP3    H141649   3.796   4.814   3.727
13902TIP3    H241650   3.760   4.761   3.590
13903TIP3   OH241651   1.267   6.206   3.420
13903TIP3    H141652   1.314   6.245   3.493
13903TIP3    H241653   1.200   6.151   3.460
13904TIP3   OH241654   4.018   1.714   5.771
13904TIP3    H141655   3.959   1.639   5.765
13904TIP3    H241656   3.967   1.788   5.739
13905TIP3   OH241657   3.679   7.624   4.133
13905TIP3    H141658   3.686   7.686   4.206
13905TIP3    H241659   3.615   7.664   4.074
13906TIP3   OH241660   4.898   0.612   2.464
13906TIP3    H141661   4.876   0.704   2.479
13906TIP3    H241662   4.824   0.577   2.414
13907TIP3   OH241663   6.058   2.638   0.890
13907TIP3    H141664   5.995   2.592   0.834
13907TIP3    H241665   6.054   2.729   0.860
13908TIP3   OH241666   1.145   1.009   3.659
13908TIP3    H141667   1.113   1.097   3.678
13908TIP3    H241668   1.068   0.962   3.627
13909TIP3   OH241669   0.181   3.696   4.345
13909TIP3    H141670   0.250   3.762   4.330
13909TIP3    H241671   0.119   3.739   4.403
13910TIP3   OH241672   1.406   7.503   4.984
13910TIP3    H141673   1.448   7.479   4.901
13910TIP3    H241674   1.441   7.590   5.004
13911TIP3   OH241675   7.162   2.420   5.040
13911TIP3    H141676   7.175   2.351   5.105
13911TIP3    H241677   7.118   2.490   5.088
13912TIP3   OH241678   1.565   4.244   1.074
13912TIP3    H141679   1.524   4.297   1.005
13912TIP3    H241680   1.582   4.159   1.032
13913TIP3   OH241681   2.388   0.139   1.314
13913TIP3    H141682   2.381   0.228   1.348
13913TIP3    H241683   2.470   0.106   1.353
13914TIP3   OH241684   3.736   3.505   3.605
13914TIP3    H141685   3.646   3.476   3.591
13914TIP3    H241686   3.728   3.597   3.629
13915TIP3   OH241687   3.601   4.358   6.091
13915TIP3    H141688   3.653   4.426   6.049
13915TIP3    H241689   3.517   4.399   6.110
13916TIP3   OH241690   0.688   4.551   1.014
13916TIP3    H141691   0.744   4.629   1.010
13916TIP3    H241692   0.746   4.481   1.043
13917TIP3   OH241693   6.276   3.683   5.944
13917TIP3    H141694   6.281   3.590   5.967
13917TIP3    H241695   6.367   3.711   5.937
13918TIP3   OH241696   0.221   2.447   4.641
13918TIP3    H141697   0.130   2.422   4.629
13918TIP3    H241698   0.220   2.506   4.716
13919TIP3   OH241699   2.412   3.338   1.046
13919TIP3    H141700   2.460   3.314   1.125
13919TIP3    H241701   2.460   3.296   0.975
13920TIP3   OH241702   6.320   5.135   3.426
13920TIP3    H141703   6.293   5.160   3.338
13920TIP3    H241704   6.352   5.045   3.417
13921TIP3   OH241705   7.606   5.473   3.620
13921TIP3    H141706   7.620   5.563   3.650
13921TIP3    H241707   7.576   5.426   3.698
13922TIP3   OH241708   4.816   5.086   2.791
13922TIP3    H141709   4.894   5.134   2.764
13922TIP3    H241710   4.824   5.001   2.747
13923TIP3   OH241711   3.235   0.627   3.962
13923TIP3    H141712   3.167   0.569   3.930
13923TIP3    H241713   3.269   0.671   3.884
13924TIP3   OH241714   2.113   2.276   5.082
13924TIP3    H141715   2.042   2.337   5.061
13924TIP3    H241716   2.082   2.191   5.050
13925TIP3   OH241717   3.119   6.980   2.083
13925TIP3    H141718   3.201   7.029   2.074
13925TIP3    H241719   3.121   6.945   2.172
13926TIP3   OH241720   1.693   2.914   3.553
13926TIP3    H141721   1.649   2.966   3.620
13926TIP3    H241722   1.694   2.825   3.589
13927TIP3   OH241723   3.583   5.218   2.338
13927TIP3    H141724   3.624   5.163   2.272
13927TIP3    H241725   3.571   5.160   2.413
13928TIP3   OH241726   4.573   4.040   2.618
13928TIP3    H141727   4.565   4.080   2.532
13928TIP3    H241728   4.632   4.097   2.667
13929TIP3   OH241729   1.226   6.412   4.137
13929TIP3    H141730   1.171   6.491   4.139
13929TIP3    H241731   1.224   6.380   4.227
13930TIP3   OH241732   4.307   7.311   0.894
13930TIP3    H141733   4.273   7.366   0.965
13930TIP3    H241734   4.360   7.370   0.842
13931TIP3   OH241735   1.186   6.730   4.091
13931TIP3    H141736   1.208   6.689   4.008
13931TIP3    H241737   1.266   6.725   4.143
13932TIP3   OH241738   2.587   1.759   4.756
13932TIP3    H141739   2.516   1.779   4.695
13932TIP3    H241740   2.611   1.843   4.794
13933TIP3   OH241741   6.946   3.732   0.023
13933TIP3    H141742   6.910   3.772   0.102
13933TIP3    H241743   6.952   3.638   0.045
13934TIP3   OH241744   0.164   2.330   6.052
13934TIP3    H141745   0.161   2.369   6.139
13934TIP3    H241746   0.120   2.246   6.062
13935TIP3   OH241747   5.310   5.363   3.247
13935TIP3    H141748   5.249   5.435   3.261
13935TIP3    H241749   5.256   5.284   3.254
13936TIP3   OH241750   0.591   0.694   0.891
13936TIP3    H141751   0.628   0.776   0.923
13936TIP3    H241752   0.584   0.639   0.969
13937TIP3   OH241753   3.325   0.079   2.365
13937TIP3    H141754   3.300   0.072   2.273
13937TIP3    H241755   3.280   0.007   2.408
13938TIP3   OH241756   3.973   1.166   2.664
13938TIP3    H141757   4.012   1.234   2.720
13938TIP3    H241758   3.944   1.099   2.726
13939TIP3   OH241759   4.415   3.712   4.598
13939TIP3    H141760   4.362   3.789   4.576
13939TIP3    H241761   4.378   3.642   4.543
13940TIP3   OH241762   1.795   6.282   1.266
13940TIP3    H141763   1.718   6.228   1.288
13940TIP3    H241764   1.861   6.255   1.330
13941TIP3   OH241765   5.778   4.842   1.056
13941TIP3    H141766   5.742   4.871   1.140
13941TIP3    H241767   5.705   4.849   0.994
13942TIP3   OH241768   4.219   3.981   1.286
13942TIP3    H141769   4.173   3.961   1.368
13942TIP3    H241770   4.149   3.999   1.223
13943TIP3   OH241771   1.609   0.787   6.249
13943TIP3    H141772   1.588   0.875   6.219
13943TIP3    H241773   1.547   0.772   6.321
13944TIP3   OH241774   7.604   5.211   5.612
13944TIP3    H141775   7.536   5.279   5.614
13944TIP3    H241776   7.679   5.253   5.654
13945TIP3   OH241777   2.429   2.933   5.648
13945TIP3    H141778   2.507   2.897   5.605
13945TIP3    H241779   2.448   2.927   5.742
13946TIP3   OH241780   3.203   0.106   2.736
13946TIP3    H141781   3.293   0.074   2.741
13946TIP3    H241782   3.191   0.155   2.818
13947TIP3   OH241783   0.308   2.142   6.492
13947TIP3    H141784   0.342   2.132   6.403
13947TIP3    H241785   0.213   2.148   6.481
13948TIP3   OH241786   5.203   5.478   5.395
13948TIP3    H141787   5.114   5.441   5.396
13948TIP3    H241788   5.243   5.445   5.475
13949TIP3   OH241789   7.688   0.207   2.423
13949TIP3    H141790   7.602   0.184   2.460
13949TIP3    H241791   7.741   0.232   2.499
13950TIP3   OH241792   2.699   3.470   4.262
13950TIP3    H141793   2.659   3.458   4.348
13950TIP3    H241794   2.783   3.425   4.268
13951TIP3   OH241795   0.083   3.556   3.284
13951TIP3    H141796   0.172   3.544   3.317
13951TIP3    H241797   0.082   3.646   3.251
13952TIP3   OH241798   2.505   7.321   4.387
13952TIP3    H141799   2.569   7.363   4.444
13952TIP3    H241800   2.450   7.393   4.356
13953TIP3   OH241801   2.685   7.722   2.103
13953TIP3    H141802   2.779   7.710   2.117
13953TIP3    H241803   2.649   7.634   2.110
13954TIP3   OH241804   4.976   0.839   1.634
13954TIP3    H141805   5.028   0.795   1.567
13954TIP3    H241806   5.021   0.819   1.716
13955TIP3   OH241807   5.041   1.766   3.162
13955TIP3    H141808   5.112   1.822   3.130
13955TIP3    H241809   5.043   1.778   3.257
13956TIP3   OH241810   4.892   5.577   3.073
13956TIP3    H141811   4.936   5.525   3.140
13956TIP3    H241812   4.809   5.602   3.113
13957TIP3   OH241813   4.690   6.467   6.750
13957TIP3    H141814   4.733   6.466   6.836
13957TIP3    H241815   4.651   6.554   6.744
13958TIP3   OH241816   8.034   1.840   4.675
13958TIP3    H141817   8.119   1.805   4.700
13958TIP3    H241818   8.021   1.810   4.585
13959TIP3   OH241819   2.001   7.493   1.476
13959TIP3    H141820   1.914   7.452   1.467
13959TIP3    H241821   1.992   7.578   1.432
13960TIP3   OH241822   7.831   3.893   2.747
13960TIP3    H141823   7.756   3.853   2.704
13960TIP3    H241824   7.904   3.878   2.687
13961TIP3   OH241825   7.084   5.109   4.655
13961TIP3    H141826   7.171   5.090   4.619
13961TIP3    H241827   7.030   5.036   4.626
13962TIP3   OH241828   4.976   2.134   2.381
13962TIP3    H141829   4.985   2.088   2.298
13962TIP3    H241830   4.883   2.157   2.386
13963TIP3   OH241831   0.800   7.799   0.090
13963TIP3    H141832   0.810   7.891   0.115
13963TIP3    H241833   0.864   7.753   0.144
13964TIP3   OH241834   5.550   0.826   4.519
13964TIP3    H141835   5.555   0.861   4.430
13964TIP3    H241836   5.638   0.838   4.554
13965TIP3   OH241837   1.979   4.287   5.447
13965TIP3    H141838   1.913   4.345   5.410
13965TIP3    H241839   1.984   4.214   5.386
13966TIP3   OH241840   7.449   6.533   2.684
13966TIP3    H141841   7.415   6.453   2.722
13966TIP3    H241842   7.371   6.583   2.658
13967TIP3   OH241843   7.669   6.328   6.613
13967TIP3    H141844   7.628   6.284   6.538
13967TIP3    H241845   7.758   6.293   6.615
13968TIP3   OH241846   3.551   0.350   1.388
13968TIP3    H141847   3.501   0.375   1.466
13968TIP3    H241848   3.552   0.254   1.391
13969TIP3   OH241849   8.132   7.721   6.632
13969TIP3    H141850   8.154   7.755   6.719
13969TIP3    H241851   8.047   7.760   6.612
13970TIP3   OH241852   6.937   3.411   6.163
13970TIP3    H141853   7.029   3.439   6.171
13970TIP3    H241854   6.886   3.491   6.176
13971TIP3   OH241855   5.782   3.504   0.438
13971TIP3    H141856   5.785   3.579   0.497
13971TIP3    H241857   5.858   3.515   0.381
13972TIP3   OH241858   4.224   3.152   6.668
13972TIP3    H141859   4.140   3.116   6.695
13972TIP3    H241860   4.205   3.241   6.640
13973TIP3   OH241861   1.508   7.364   5.469
13973TIP3    H141862   1.435   7.413   5.430
13973TIP3    H241863   1.466   7.307   5.533
13974TIP3   OH241864   0.760   4.447   5.506
13974TIP3    H141865   0.803   4.399   5.577
13974TIP3    H241866   0.667   4.431   5.520
13975TIP3   OH241867   5.792   5.867   3.512
13975TIP3    H141868   5.880   5.904   3.519
13975TIP3    H241869   5.804   5.787   3.460
13976TIP3   OH241870   3.615   1.652   0.068
13976TIP3    H141871   3.675   1.579   0.084
13976TIP3    H241872   3.668   1.719   0.025
13977TIP3   OH241873   5.358   5.036   2.971
13977TIP3    H141874   5.448   5.060   2.949
13977TIP3    H241875   5.365   4.949   3.010
13978TIP3   OH241876   5.009   0.323   1.808
13978TIP3    H141877   5.012   0.419   1.808
13978TIP3    H241878   5.085   0.297   1.756
13979TIP3   OH241879   4.514   4.981   3.219
13979TIP3    H141880   4.424   4.998   3.248
13979TIP3    H241881   4.535   5.056   3.162
13980TIP3   OH241882   6.388   3.445   6.435
13980TIP3    H141883   6.467   3.475   6.389
13980TIP3    H241884   6.341   3.392   6.369
13981TIP3   OH241885   3.931   1.676   2.799
13981TIP3    H141886   3.964   1.600   2.847
13981TIP3    H241887   3.847   1.696   2.840
13982TIP3   OH241888   0.856   0.720   5.899
13982TIP3    H141889   0.920   0.652   5.877
13982TIP3    H241890   0.847   0.715   5.994
13983TIP3   OH241891   6.360   4.484   2.662
13983TIP3    H141892   6.422   4.552   2.637
13983TIP3    H241893   6.385   4.460   2.751
13984TIP3   OH241894   4.434   0.388   3.032
13984TIP3    H141895   4.416   0.363   3.123
13984TIP3    H241896   4.397   0.316   2.980
13985TIP3   OH241897   4.187   7.237   6.073
13985TIP3    H141898   4.276   7.235   6.038
13985TIP3    H241899   4.132   7.261   5.998
13986TIP3   OH241900   4.539   4.782   4.533
13986TIP3    H141901   4.448   4.796   4.506
13986TIP3    H241902   4.586   4.769   4.450
13987TIP3   OH241903   6.607   7.211   5.532
13987TIP3    H141904   6.550   7.135   5.537
13987TIP3    H241905   6.673   7.187   5.467
13988TIP3   OH241906   2.132   0.449   3.804
13988TIP3    H141907   2.196   0.520   3.801
13988TIP3    H241908   2.062   0.483   3.861
13989TIP3   OH241909   1.827   1.142   0.870
13989TIP3    H141910   1.843   1.103   0.784
13989TIP3    H241911   1.814   1.235   0.852
13990TIP3   OH241912   4.008   4.678   0.827
13990TIP3    H141913   4.075   4.720   0.882
13990TIP3    H241914   3.998   4.591   0.864
13991TIP3   OH241915   4.252   2.840   5.394
13991TIP3    H141916   4.286   2.757   5.362
13991TIP3    H241917   4.163   2.845   5.360
13992TIP3   OH241918   0.370   3.420   0.423
13992TIP3    H141919   0.316   3.386   0.352
13992TIP3    H241920   0.433   3.478   0.380
13993TIP3   OH241921   6.348   0.311   0.359
13993TIP3    H141922   6.381   0.320   0.269
13993TIP3    H241923   6.288   0.384   0.370
13994TIP3   OH241924   4.897   3.558   5.634
13994TIP3    H141925   4.861   3.523   5.716
13994TIP3    H241926   4.826   3.610   5.597
13995TIP3   OH241927   2.195   7.292   4.834
13995TIP3    H141928   2.199   7.233   4.758
13995TIP3    H241929   2.269   7.266   4.888
13996TIP3   OH241930   2.700   4.439  -0.011
13996TIP3    H141931   2.737   4.508   0.045
13996TIP3    H241932   2.606   4.456  -0.012
13997TIP3   OH241933   0.372   1.126   6.139
13997TIP3    H141934   0.405   1.107   6.051
13997TIP3    H241935   0.448   1.160   6.187
13998TIP3   OH241936   7.507   2.329   6.101
13998TIP3    H141937   7.472   2.337   6.190
13998TIP3    H241938   7.539   2.416   6.080
13999TIP3   OH241939   7.280   1.767   6.522
13999TIP3    H141940   7.252   1.690   6.572
13999TIP3    H241941   7.346   1.809   6.577
14000TIP3   OH241942   5.164   6.888   3.812
14000TIP3    H141943   5.201   6.936   3.738
14000TIP3    H241944   5.202   6.801   3.806
14001TIP3   OH241945   6.550   3.114   3.377
14001TIP3    H141946   6.570   3.100   3.470
14001TIP3    H241947   6.463   3.076   3.366
14002TIP3   OH241948   8.091   3.833   3.859
14002TIP3    H141949   8.174   3.868   3.827
14002TIP3    H241950   8.043   3.808   3.780
14003TIP3   OH241951   4.041   3.088   6.235
14003TIP3    H141952   4.112   3.050   6.182
14003TIP3    H241953   4.007   3.013   6.285
14004TIP3   OH241954   4.164   0.497   2.531
14004TIP3    H141955   4.070   0.489   2.549
14004TIP3    H241956   4.205   0.430   2.586
14005TIP3   OH241957   5.494   6.902   1.656
14005TIP3    H141958   5.464   6.978   1.705
14005TIP3    H241959   5.417   6.872   1.607
14006TIP3   OH241960   2.795   0.498   2.697
14006TIP3    H141961   2.871   0.469   2.646
14006TIP3    H241962   2.722   0.494   2.636
14007TIP3   OH241963   1.151   7.099   0.465
14007TIP3    H141964   1.216   7.099   0.395
14007TIP3    H241965   1.199   7.073   0.543
14008TIP3   OH241966   1.187   7.011   6.043
14008TIP3    H141967   1.167   7.056   6.125
14008TIP3    H241968   1.144   6.926   6.051
14009TIP3   OH241969   3.369   3.137   5.581
14009TIP3    H141970   3.404   3.165   5.666
14009TIP3    H241971   3.278   3.113   5.599
14010TIP3   OH241972   3.417   7.747   5.572
14010TIP3    H141973   3.334   7.708   5.547
14010TIP3    H241974   3.467   7.675   5.611
14011TIP3   OH241975   1.061   0.639   4.310
14011TIP3    H141976   1.021   0.687   4.238
14011TIP3    H241977   1.127   0.698   4.346
14012TIP3   OH241978   0.292   6.497   6.362
14012TIP3    H141979   0.259   6.583   6.388
14012TIP3    H241980   0.347   6.514   6.285
14013TIP3   OH241981   4.223   0.921   0.867
14013TIP3    H141982   4.271   0.931   0.784
14013TIP3    H241983   4.288   0.939   0.935
14014TIP3   OH241984   3.577   0.642   5.794
14014TIP3    H141985   3.577   0.622   5.887
14014TIP3    H241986   3.484   0.645   5.770
14015TIP3   OH241987   2.345   6.372   0.876
14015TIP3    H141988   2.398   6.450   0.893
14015TIP3    H241989   2.316   6.344   0.963
14016TIP3   OH241990   5.547   7.673   3.388
14016TIP3    H141991   5.515   7.697   3.301
14016TIP3    H241992   5.504   7.589   3.408
14017TIP3   OH241993   7.927   0.429   2.205
14017TIP3    H141994   7.839   0.451   2.174
14017TIP3    H241995   7.922   0.336   2.227
14018TIP3   OH241996   3.835   1.472   0.096
14018TIP3    H141997   3.887   1.440   0.021
14018TIP3    H241998   3.880   1.437   0.173
14019TIP3   OH241999   5.821   4.466   4.232
14019TIP3    H142000   5.754   4.432   4.173
14019TIP3    H242001   5.897   4.409   4.219
14020TIP3   OH242002   5.859   0.904   5.554
14020TIP3    H142003   5.915   0.837   5.514
14020TIP3    H242004   5.847   0.969   5.485
14021TIP3   OH242005   6.458   1.591   2.867
14021TIP3    H142006   6.391   1.587   2.935
14021TIP3    H242007   6.425   1.534   2.798
14022TIP3   OH242008   4.038   0.350   5.395
14022TIP3    H142009   4.018   0.303   5.314
14022TIP3    H242010   3.968   0.326   5.455
14023TIP3   OH242011   1.381   6.066   5.631
14023TIP3    H142012   1.404   5.992   5.687
14023TIP3    H242013   1.390   6.033   5.541
14024TIP3   OH242014   5.569   6.193   5.143
14024TIP3    H142015   5.603   6.157   5.060
14024TIP3    H242016   5.646   6.204   5.198
14025TIP3   OH242017   4.101   5.550   1.336
14025TIP3    H142018   4.149   5.629   1.362
14025TIP3    H242019   4.016   5.558   1.379
14026TIP3   OH242020   6.282   2.611   2.965
14026TIP3    H142021   6.326   2.531   2.936
14026TIP3    H242022   6.232   2.584   3.043
14027TIP3   OH242023   7.884   3.131   5.143
14027TIP3    H142024   7.950   3.195   5.114
14027TIP3    H242025   7.828   3.180   5.204
14028TIP3   OH242026   4.344   5.222   1.554
14028TIP3    H142027   4.273   5.238   1.492
14028TIP3    H242028   4.414   5.184   1.500
14029TIP3   OH242029   6.505   0.191   1.876
14029TIP3    H142030   6.556   0.139   1.939
14029TIP3    H242031   6.527   0.154   1.791
14030TIP3   OH242032   5.415   5.183   4.758
14030TIP3    H142033   5.435   5.226   4.841
14030TIP3    H242034   5.438   5.247   4.691
14031TIP3   OH242035   0.682   1.344   2.301
14031TIP3    H142036   0.659   1.433   2.276
14031TIP3    H242037   0.746   1.316   2.236
14032TIP3   OH242038   7.851   5.010   0.151
14032TIP3    H142039   7.795   4.953   0.098
14032TIP3    H242040   7.875   4.957   0.227
14033TIP3   OH242041   3.694   4.040   2.218
14033TIP3    H142042   3.730   4.020   2.304
14033TIP3    H242043   3.712   4.133   2.205
14034TIP3   OH242044   7.844   6.496   3.666
14034TIP3    H142045   7.828   6.589   3.654
14034TIP3    H242046   7.759   6.459   3.690
14035TIP3   OH242047   3.080   2.767   1.038
14035TIP3    H142048   3.006   2.717   1.072
14035TIP3    H242049   3.123   2.802   1.117
14036TIP3   OH242050   6.764   3.677   0.497
14036TIP3    H142051   6.703   3.649   0.428
14036TIP3    H242052   6.712   3.734   0.554
14037TIP3   OH242053   2.006   0.291   1.083
14037TIP3    H142054   2.023   0.226   1.015
14037TIP3    H242055   2.030   0.247   1.164
14038TIP3   OH242056   5.604   1.098   1.221
14038TIP3    H142057   5.551   1.036   1.271
14038TIP3    H242058   5.545   1.130   1.153
14039TIP3   OH242059   5.298   6.469   1.066
14039TIP3    H142060   5.224   6.444   1.122
14039TIP3    H242061   5.342   6.386   1.047
14040TIP3   OH242062   2.793   2.296   5.532
14040TIP3    H142063   2.778   2.204   5.552
14040TIP3    H242064   2.881   2.314   5.564
14041TIP3   OH242065   3.552   1.357   4.391
14041TIP3    H142066   3.481   1.315   4.439
14041TIP3    H242067   3.514   1.378   4.305
14042TIP3   OH242068   0.236   1.568   6.453
14042TIP3    H142069   0.244   1.478   6.422
14042TIP3    H242070   0.175   1.563   6.526
14043TIP3   OH242071   2.862   5.578   4.554
14043TIP3    H142072   2.770   5.601   4.569
14043TIP3    H242073   2.873   5.493   4.598
14044TIP3   OH242074   0.466   7.013   5.743
14044TIP3    H142075   0.500   7.050   5.661
14044TIP3    H242076   0.522   6.937   5.760
14045TIP3   OH242077   0.392   3.536   5.720
14045TIP3    H142078   0.378   3.456   5.669
14045TIP3    H242079   0.432   3.597   5.657
14046TIP3   OH242080   1.929   2.887   3.940
14046TIP3    H142081   1.993   2.897   4.010
14046TIP3    H242082   1.897   2.976   3.923
14047TIP3   OH242083   8.143   3.642   3.496
14047TIP3    H142084   8.156   3.600   3.410
14047TIP3    H242085   8.209   3.601   3.552
14048TIP3   OH242086   3.611   5.225   5.637
14048TIP3    H142087   3.630   5.162   5.706
14048TIP3    H242088   3.551   5.287   5.677
14049TIP3   OH242089   1.595   4.663   6.507
14049TIP3    H142090   1.596   4.567   6.515
14049TIP3    H242091   1.509   4.683   6.471
14050TIP3   OH242092   6.936   0.784   5.494
14050TIP3    H142093   6.919   0.704   5.543
14050TIP3    H242094   6.978   0.843   5.557
14051TIP3   OH242095   6.153   2.567   4.231
14051TIP3    H142096   6.060   2.546   4.236
14051TIP3    H242097   6.171   2.619   4.309
14052TIP3   OH242098   6.675   7.682   2.126
14052TIP3    H142099   6.590   7.726   2.131
14052TIP3    H242100   6.691   7.673   2.032
14053TIP3   OH242101   5.440   2.265   4.770
14053TIP3    H142102   5.449   2.210   4.692
14053TIP3    H242103   5.407   2.206   4.837
14054TIP3   OH242104   6.674   4.926   5.161
14054TIP3    H142105   6.631   4.877   5.091
14054TIP3    H242106   6.715   4.858   5.215
14055TIP3   OH242107   4.009   1.496   5.380
14055TIP3    H142108   3.943   1.565   5.385
14055TIP3    H242109   3.973   1.434   5.317
14056TIP3   OH242110   1.487   7.263   0.472
14056TIP3    H142111   1.406   7.229   0.433
14056TIP3    H242112   1.518   7.327   0.409
14057TIP3   OH242113   4.830   3.149   6.558
14057TIP3    H142114   4.923   3.173   6.549
14057TIP3    H242115   4.829   3.087   6.630
14058TIP3   OH242116   4.616   4.499   1.706
14058TIP3    H142117   4.592   4.436   1.638
14058TIP3    H242118   4.545   4.564   1.704
14059TIP3   OH242119   1.727   0.871   2.953
14059TIP3    H142120   1.820   0.874   2.973
14059TIP3    H242121   1.693   0.799   3.007
14060TIP3   OH242122   5.147   1.712   4.277
14060TIP3    H142123   5.092   1.746   4.348
14060TIP3    H242124   5.095   1.642   4.238
14061TIP3   OH242125   5.906   4.981   2.454
14061TIP3    H142126   5.812   4.992   2.463
14061TIP3    H242127   5.917   4.890   2.426
14062TIP3   OH242128   0.409   6.303   0.650
14062TIP3    H142129   0.375   6.335   0.567
14062TIP3    H242130   0.351   6.230   0.673
14063TIP3   OH242131   0.136   1.088   3.248
14063TIP3    H142132   0.069   1.091   3.316
14063TIP3    H242133   0.218   1.076   3.295
14064TIP3   OH242134   0.701   1.002   4.614
14064TIP3    H142135   0.692   0.956   4.530
14064TIP3    H242136   0.645   0.952   4.674
14065TIP3   OH242137   3.372   2.380   2.998
14065TIP3    H142138   3.316   2.451   2.967
14065TIP3    H242139   3.453   2.423   3.025
14066TIP3   OH242140   6.745   6.653   0.638
14066TIP3    H142141   6.789   6.618   0.561
14066TIP3    H242142   6.728   6.745   0.618
14067TIP3   OH242143   4.695   0.754   4.533
14067TIP3    H142144   4.644   0.834   4.551
14067TIP3    H242145   4.635   0.697   4.486
14068TIP3   OH242146   4.568   7.054   1.233
14068TIP3    H142147   4.646   7.005   1.257
14068TIP3    H242148   4.510   7.047   1.309
14069TIP3   OH242149   3.562   3.511   0.184
14069TIP3    H142150   3.604   3.577   0.239
14069TIP3    H242151   3.591   3.530   0.095
14070TIP3   OH242152   7.404   3.494   1.236
14070TIP3    H142153   7.428   3.551   1.163
14070TIP3    H242154   7.406   3.406   1.198
14071TIP3   OH242155   2.708   3.093   1.046
14071TIP3    H142156   2.661   3.014   1.021
14071TIP3    H242157   2.797   3.064   1.064
14072TIP3   OH242158   2.427   5.350   1.936
14072TIP3    H142159   2.370   5.398   1.995
14072TIP3    H242160   2.436   5.264   1.975
14073TIP3   OH242161   0.241   5.927   2.124
14073TIP3    H142162   0.293   5.932   2.044
14073TIP3    H242163   0.203   6.014   2.133
14074TIP3   OH242164   0.633   6.532   5.668
14074TIP3    H142165   0.645   6.439   5.649
14074TIP3    H242166   0.624   6.573   5.582
14075TIP3   OH242167   2.964   4.742   2.751
14075TIP3    H142168   3.001   4.747   2.839
14075TIP3    H242169   2.962   4.648   2.731
14076TIP3   OH242170   7.099   0.740   2.150
14076TIP3    H142171   7.071   0.783   2.232
14076TIP3    H242172   7.046   0.661   2.146
14077TIP3   OH242173   5.180   1.623   1.728
14077TIP3    H142174   5.156   1.675   1.651
14077TIP3    H242175   5.259   1.576   1.701
14078TIP3   OH242176   2.090   7.446   3.183
14078TIP3    H142177   2.129   7.464   3.269
14078TIP3    H242178   2.160   7.402   3.135
14079TIP3   OH242179   1.319   7.184   2.341
14079TIP3    H142180   1.352   7.273   2.329
14079TIP3    H242181   1.392   7.136   2.379
14080TIP3   OH242182   5.426   0.070   4.053
14080TIP3    H142183   5.423   0.100   3.962
14080TIP3    H242184   5.381  -0.015   4.051
14081TIP3   OH242185   5.272   7.015   2.415
14081TIP3    H142186   5.362   6.986   2.397
14081TIP3    H242187   5.281   7.108   2.436
14082TIP3   OH242188   3.904   6.553   5.094
14082TIP3    H142189   3.884   6.575   5.004
14082TIP3    H242190   3.999   6.537   5.094
14083TIP3   OH242191   7.321   4.517   3.806
14083TIP3    H142192   7.308   4.562   3.723
14083TIP3    H242193   7.395   4.562   3.847
14084TIP3   OH242194   7.670   6.690   6.133
14084TIP3    H142195   7.658   6.734   6.217
14084TIP3    H242196   7.728   6.749   6.084
14085TIP3   OH242197   3.379   1.407   0.637
14085TIP3    H142198   3.322   1.332   0.621
14085TIP3    H242199   3.359   1.468   0.565
14086TIP3   OH242200   7.169   5.867   2.851
14086TIP3    H142201   7.117   5.786   2.853
14086TIP3    H242202   7.110   5.934   2.883
14087TIP3   OH242203   7.088   1.231   0.142
14087TIP3    H142204   7.083   1.301   0.077
14087TIP3    H242205   7.004   1.235   0.188
14088TIP3   OH242206   6.779   4.134   4.224
14088TIP3    H142207   6.691   4.170   4.214
14088TIP3    H242208   6.821   4.150   4.139
14089TIP3   OH242209   8.145   6.822   4.680
14089TIP3    H142210   8.165   6.819   4.774
14089TIP3    H242211   8.050   6.816   4.676
14090TIP3   OH242212   0.775   5.162   2.411
14090TIP3    H142213   0.820   5.125   2.487
14090TIP3    H242214   0.747   5.086   2.360
14091TIP3   OH242215   0.790   6.563   4.067
14091TIP3    H142216   0.738   6.483   4.056
14091TIP3    H242217   0.842   6.569   3.987
14092TIP3   OH242218   6.597   5.610   1.687
14092TIP3    H142219   6.619   5.616   1.594
14092TIP3    H242220   6.527   5.546   1.692
14093TIP3   OH242221   7.359   4.321   0.078
14093TIP3    H142222   7.421   4.278   0.136
14093TIP3    H242223   7.395   4.311  -0.010
14094TIP3   OH242224   4.750   6.447   0.443
14094TIP3    H142225   4.664   6.487   0.427
14094TIP3    H242226   4.764   6.456   0.537
14095TIP3   OH242227   5.769   6.596   3.914
14095TIP3    H142228   5.850   6.548   3.929
14095TIP3    H242229   5.779   6.677   3.964
14096TIP3   OH242230   5.640   0.665   2.709
14096TIP3    H142231   5.570   0.717   2.750
14096TIP3    H242232   5.651   0.704   2.622
14097TIP3   OH242233   1.645   1.772   1.430
14097TIP3    H142234   1.587   1.743   1.500
14097TIP3    H242235   1.733   1.768   1.468
14098TIP3   OH242236   6.458   2.492   3.698
14098TIP3    H142237   6.389   2.489   3.632
14098TIP3    H242238   6.456   2.406   3.739
14099TIP3   OH242239   0.518   1.766   1.348
14099TIP3    H142240   0.539   1.770   1.255
14099TIP3    H242241   0.568   1.839   1.387
14100TIP3   OH242242   3.167   1.826   6.085
14100TIP3    H142243   3.248   1.823   6.136
14100TIP3    H242244   3.196   1.850   5.997
14101TIP3   OH242245   3.023   2.088   6.019
14101TIP3    H142246   3.049   2.012   6.071
14101TIP3    H242247   3.091   2.153   6.035
14102TIP3   OH242248   1.433   0.953   2.828
14102TIP3    H142249   1.361   1.009   2.800
14102TIP3    H242250   1.435   0.962   2.923
14103TIP3   OH242251   4.007   1.746   0.795
14103TIP3    H142252   3.995   1.651   0.793
14103TIP3    H242253   4.085   1.759   0.850
14104TIP3   OH242254   0.795   2.843   5.285
14104TIP3    H142255   0.818   2.770   5.342
14104TIP3    H242256   0.810   2.921   5.339
14105TIP3   OH242257   4.074   7.216   3.131
14105TIP3    H142258   4.073   7.165   3.050
14105TIP3    H242259   4.012   7.172   3.189
14106TIP3   OH242260   6.397   5.240   3.157
14106TIP3    H142261   6.370   5.183   3.086
14106TIP3    H242262   6.467   5.193   3.201
14107TIP3   OH242263   0.250   7.070   0.139
14107TIP3    H142264   0.344   7.083   0.151
14107TIP3    H242265   0.219   7.152   0.101
14108TIP3   OH242266   7.013   6.086   6.515
14108TIP3    H142267   7.096   6.109   6.556
14108TIP3    H242268   7.025   5.996   6.484
14109TIP3   OH242269   1.129   7.703   2.856
14109TIP3    H142270   1.071   7.717   2.930
14109TIP3    H242271   1.094   7.624   2.814
14110TIP3   OH242272   3.603   4.179   0.513
14110TIP3    H142273   3.541   4.108   0.528
14110TIP3    H242274   3.552   4.259   0.527
14111TIP3   OH242275   6.211   2.777   4.462
14111TIP3    H142276   6.288   2.758   4.517
14111TIP3    H242277   6.237   2.854   4.412
14112TIP3   OH242278   3.825   4.525   6.240
14112TIP3    H142279   3.877   4.545   6.161
14112TIP3    H242280   3.841   4.432   6.256
14113TIP3   OH242281   8.170   6.628   0.893
14113TIP3    H142282   8.262   6.633   0.868
14113TIP3    H242283   8.134   6.558   0.839
14114TIP3   OH242284   1.499   6.663   1.374
14114TIP3    H142285   1.492   6.587   1.316
14114TIP3    H242286   1.534   6.732   1.317
14115TIP3   OH242287   6.394   6.614   2.448
14115TIP3    H142288   6.349   6.533   2.426
14115TIP3    H242289   6.478   6.607   2.402
14116TIP3   OH242290   1.545   5.318   2.134
14116TIP3    H142291   1.614   5.302   2.070
14116TIP3    H242292   1.587   5.374   2.200
14117TIP3   OH242293   7.318   6.285   2.771
14117TIP3    H142294   7.408   6.260   2.792
14117TIP3    H242295   7.264   6.219   2.815
14118TIP3   OH242296   8.174   5.541   3.511
14118TIP3    H142297   8.217   5.602   3.570
14118TIP3    H242298   8.174   5.457   3.558
14119TIP3   OH242299   1.617   4.245   1.693
14119TIP3    H142300   1.628   4.228   1.599
14119TIP3    H242301   1.640   4.161   1.734
14120TIP3   OH242302   7.538   1.925   3.955
14120TIP3    H142303   7.522   1.866   3.882
14120TIP3    H242304   7.571   1.869   4.025
14121TIP3   OH242305   4.451   1.900   4.810
14121TIP3    H142306   4.524   1.840   4.823
14121TIP3    H242307   4.492   1.983   4.786
14122TIP3   OH242308   5.285   2.575   1.100
14122TIP3    H142309   5.227   2.545   1.170
14122TIP3    H242310   5.301   2.667   1.119
14123TIP3   OH242311   0.140   0.984   6.327
14123TIP3    H142312   0.202   1.055   6.343
14123TIP3    H242313   0.163   0.951   6.241
14124TIP3   OH242314   5.941   1.882   6.014
14124TIP3    H142315   6.022   1.834   5.998
14124TIP3    H242316   5.956   1.969   5.977
14125TIP3   OH242317   3.831   5.852   5.013
14125TIP3    H142318   3.919   5.888   5.008
14125TIP3    H242319   3.831   5.778   4.953
14126TIP3   OH242320   5.392   0.164   4.993
14126TIP3    H142321   5.386   0.225   4.919
14126TIP3    H242322   5.302   0.151   5.022
14127TIP3   OH242323   0.900   3.263   2.369
14127TIP3    H142324   0.988   3.256   2.332
14127TIP3    H242325   0.869   3.173   2.374
14128TIP3   OH242326   1.605   6.449   5.856
14128TIP3    H142327   1.643   6.363   5.835
14128TIP3    H242328   1.512   6.440   5.834
14129TIP3   OH242329   2.995   3.248   3.386
14129TIP3    H142330   3.015   3.157   3.405
14129TIP3    H242331   2.902   3.257   3.409
14130TIP3   OH242332   3.183   5.458   4.888
14130TIP3    H142333   3.131   5.533   4.861
14130TIP3    H242334   3.140   5.426   4.968
14131TIP3   OH242335   5.019   5.041   0.833
14131TIP3    H142336   5.050   5.130   0.845
14131TIP3    H242337   4.925   5.050   0.815
14132TIP3   OH242338   6.341   0.313   1.512
14132TIP3    H142339   6.402   0.293   1.442
14132TIP3    H242340   6.362   0.251   1.582
14133TIP3   OH242341   6.200   4.341   5.344
14133TIP3    H142342   6.165   4.408   5.286
14133TIP3    H242343   6.127   4.281   5.357
14134TIP3   OH242344   8.125   7.320   1.618
14134TIP3    H142345   8.153   7.233   1.647
14134TIP3    H242346   8.142   7.377   1.694
14135TIP3   OH242347   6.938   5.076   3.032
14135TIP3    H142348   6.913   5.109   3.118
14135TIP3    H242349   6.955   5.154   2.980
14136TIP3   OH242350   7.069   5.210   4.934
14136TIP3    H142351   7.051   5.174   5.020
14136TIP3    H242352   7.059   5.136   4.874
14137TIP3   OH242353   4.943   2.575   6.130
14137TIP3    H142354   4.922   2.584   6.038
14137TIP3    H242355   4.903   2.492   6.157
14138TIP3   OH242356   2.140   7.052   0.601
14138TIP3    H142357   2.062   7.044   0.545
14138TIP3    H242358   2.112   7.110   0.672
14139TIP3   OH242359   0.204   4.020   6.415
14139TIP3    H142360   0.272   4.087   6.412
14139TIP3    H242361   0.142   4.046   6.347
14140TIP3   OH242362   2.051   5.955   0.120
14140TIP3    H142363   2.138   5.920   0.137
14140TIP3    H242364   2.032   6.009   0.197
14141TIP3   OH242365   0.894   0.100   0.169
14141TIP3    H142366   0.874   0.085   0.261
14141TIP3    H242367   0.824   0.055   0.122
14142TIP3   OH242368   4.289   0.168   2.950
14142TIP3    H142369   4.285   0.084   2.903
14142TIP3    H242370   4.336   0.148   3.031
14143TIP3   OH242371   2.199   2.660   3.127
14143TIP3    H142372   2.254   2.670   3.049
14143TIP3    H242373   2.256   2.619   3.191
14144TIP3   OH242374   0.752   4.974   5.587
14144TIP3    H142375   0.735   5.058   5.631
14144TIP3    H242376   0.671   4.924   5.599
14145TIP3   OH242377   0.932   2.014   4.574
14145TIP3    H142378   0.900   2.088   4.523
14145TIP3    H242379   1.026   2.031   4.586
14146TIP3   OH242380   7.513   4.360   1.053
14146TIP3    H142381   7.434   4.408   1.028
14146TIP3    H242382   7.557   4.343   0.970
14147TIP3   OH242383   0.311   5.391   1.531
14147TIP3    H142384   0.327   5.331   1.458
14147TIP3    H242385   0.394   5.395   1.577
14148TIP3   OH242386   4.820   6.046   1.518
14148TIP3    H142387   4.817   5.970   1.461
14148TIP3    H242388   4.729   6.061   1.545
14149TIP3   OH242389   5.374   4.101   5.885
14149TIP3    H142390   5.459   4.144   5.891
14149TIP3    H242391   5.379   4.048   5.805
14150TIP3   OH242392   0.344   6.231   2.027
14150TIP3    H142393   0.283   6.305   2.034
14150TIP3    H242394   0.302   6.171   1.966
14151TIP3   OH242395   2.599   1.286   6.767
14151TIP3    H142396   2.565   1.332   6.843
14151TIP3    H242397   2.694   1.294   6.773
14152TIP3   OH242398   1.280   1.400   0.051
14152TIP3    H142399   1.355   1.420  -0.005
14152TIP3    H242400   1.285   1.306   0.066
14153TIP3   OH242401   4.123   2.218   1.064
14153TIP3    H142402   4.183   2.292   1.052
14153TIP3    H242403   4.040   2.249   1.029
14154TIP3   OH242404   5.169   0.088   5.546
14154TIP3    H142405   5.118   0.087   5.465
14154TIP3    H242406   5.192   0.180   5.559
14155TIP3   OH242407   7.746   3.818   3.242
14155TIP3    H142408   7.742   3.853   3.153
14155TIP3    H242409   7.829   3.771   3.246
14156TIP3   OH242410   3.458   3.071   6.000
14156TIP3    H142411   3.479   3.143   6.060
14156TIP3    H242412   3.541   3.052   5.956
14157TIP3   OH242413   7.284   7.581   2.043
14157TIP3    H142414   7.230   7.657   2.022
14157TIP3    H242415   7.317   7.600   2.131
14158TIP3   OH242416   6.673   6.492   2.319
14158TIP3    H142417   6.753   6.458   2.360
14158TIP3    H242418   6.701   6.529   2.236
14159TIP3   OH242419   5.416   5.414   5.584
14159TIP3    H142420   5.432   5.331   5.539
14159TIP3    H242421   5.350   5.393   5.650
14160TIP3   OH242422   2.212   7.551   5.165
14160TIP3    H142423   2.207   7.634   5.212
14160TIP3    H242424   2.163   7.489   5.219
14161TIP3   OH242425   5.389   5.968   2.705
14161TIP3    H142426   5.366   5.897   2.764
14161TIP3    H242427   5.484   5.977   2.714
14162TIP3   OH242428   5.361   4.351   4.350
14162TIP3    H142429   5.271   4.341   4.383
14162TIP3    H242430   5.402   4.411   4.413
14163TIP3   OH242431   6.303   5.159   3.758
14163TIP3    H142432   6.228   5.204   3.720
14163TIP3    H242433   6.348   5.225   3.811
14164TIP3   OH242434   4.053   3.938   0.291
14164TIP3    H142435   4.026   3.925   0.200
14164TIP3    H242436   3.974   3.973   0.335
14165TIP3   OH242437   0.469   4.582   2.843
14165TIP3    H142438   0.482   4.660   2.897
14165TIP3    H242439   0.394   4.604   2.787
14166TIP3   OH242440   0.440   4.136   4.388
14166TIP3    H142441   0.388   4.149   4.309
14166TIP3    H242442   0.433   4.042   4.405
14167TIP3   OH242443   3.591   3.281   0.891
14167TIP3    H142444   3.660   3.226   0.853
14167TIP3    H242445   3.633   3.367   0.901
14168TIP3   OH242446   7.842   6.905   6.615
14168TIP3    H142447   7.763   6.958   6.628
14168TIP3    H242448   7.914   6.965   6.630
14169TIP3   OH242449   4.815   4.229   0.919
14169TIP3    H142450   4.881   4.297   0.933
14169TIP3    H242451   4.748   4.247   0.985
14170TIP3   OH242452   5.816   1.586   6.590
14170TIP3    H142453   5.752   1.518   6.570
14170TIP3    H242454   5.770   1.668   6.573
14171TIP3   OH242455   1.481   3.899   5.430
14171TIP3    H142456   1.394   3.940   5.429
14171TIP3    H242457   1.487   3.854   5.346
14172TIP3   OH242458   6.632   2.698   1.812
14172TIP3    H142459   6.566   2.641   1.772
14172TIP3    H242460   6.668   2.645   1.884
14173TIP3   OH242461   4.714   4.708   2.650
14173TIP3    H142462   4.698   4.691   2.558
14173TIP3    H242463   4.745   4.798   2.653
14174TIP3   OH242464   7.189   7.486   3.684
14174TIP3    H142465   7.142   7.466   3.603
14174TIP3    H242466   7.215   7.400   3.717
14175TIP3   OH242467   4.060   3.224   3.492
14175TIP3    H142468   4.130   3.234   3.556
14175TIP3    H242469   4.034   3.132   3.498
14176TIP3   OH242470   6.361   5.990   0.555
14176TIP3    H142471   6.394   6.075   0.585
14176TIP3    H242472   6.439   5.934   0.549
14177TIP3   OH242473   8.136   7.775   2.169
14177TIP3    H142474   8.171   7.851   2.215
14177TIP3    H242475   8.135   7.705   2.235
14178TIP3   OH242476   5.362   6.197   6.231
14178TIP3    H142477   5.285   6.192   6.174
14178TIP3    H242478   5.337   6.149   6.310
14179TIP3   OH242479   4.951   4.158   1.296
14179TIP3    H142480   4.856   4.160   1.306
14179TIP3    H242481   4.966   4.172   1.203
14180TIP3   OH242482   5.399   2.190   3.032
14180TIP3    H142483   5.352   2.242   3.097
14180TIP3    H242484   5.444   2.255   2.978
14181TIP3   OH242485   6.161   2.276   1.738
14181TIP3    H142486   6.179   2.226   1.818
14181TIP3    H242487   6.080   2.238   1.703
14182TIP3   OH242488   4.702   1.097   3.375
14182TIP3    H142489   4.663   1.159   3.436
14182TIP3    H242490   4.672   1.125   3.289
14183TIP3   OH242491   4.642   3.383   0.410
14183TIP3    H142492   4.659   3.455   0.350
14183TIP3    H242493   4.667   3.304   0.361
14184TIP3   OH242494   3.214   6.067   0.236
14184TIP3    H142495   3.209   6.103   0.325
14184TIP3    H242496   3.135   6.100   0.193
14185TIP3   OH242497   2.878   2.495   0.421
14185TIP3    H142498   2.888   2.401   0.406
14185TIP3    H242499   2.793   2.503   0.465
14186TIP3   OH242500   4.645   7.618   2.636
14186TIP3    H142501   4.622   7.635   2.727
14186TIP3    H242502   4.686   7.531   2.638
14187TIP3   OH242503   0.881   6.707   2.060
14187TIP3    H142504   0.832   6.672   1.986
14187TIP3    H242505   0.824   6.693   2.135
14188TIP3   OH242506   5.317   3.774   1.180
14188TIP3    H142507   5.328   3.695   1.234
14188TIP3    H242508   5.224   3.776   1.158
14189TIP3   OH242509   7.432   4.166   2.253
14189TIP3    H142510   7.343   4.155   2.220
14189TIP3    H242511   7.455   4.081   2.290
14190TIP3   OH242512   3.803   2.147   6.428
14190TIP3    H142513   3.776   2.064   6.466
14190TIP3    H242514   3.892   2.160   6.460
14191TIP3   OH242515   6.657   6.091   1.971
14191TIP3    H142516   6.629   6.118   2.058
14191TIP3    H242517   6.583   6.043   1.935
14192TIP3   OH242518   0.324   2.020   4.294
14192TIP3    H142519   0.388   2.032   4.223
14192TIP3    H242520   0.307   2.109   4.325
14193TIP3   OH242521   3.465   7.247   6.641
14193TIP3    H142522   3.511   7.176   6.687
14193TIP3    H242523   3.395   7.273   6.701
14194TIP3   OH242524   2.594   0.510   1.581
14194TIP3    H142525   2.680   0.552   1.578
14194TIP3    H242526   2.538   0.573   1.627
14195TIP3   OH242527   4.015   0.396   1.069
14195TIP3    H142528   4.022   0.411   1.163
14195TIP3    H242529   4.038   0.303   1.058
14196TIP3   OH242530   6.420   3.677   1.630
14196TIP3    H142531   6.339   3.720   1.606
14196TIP3    H242532   6.401   3.634   1.714
14197TIP3   OH242533   7.313   7.666   0.070
14197TIP3    H142534   7.341   7.681   0.160
14197TIP3    H242535   7.309   7.754   0.031
14198TIP3   OH242536   5.205   0.744   4.117
14198TIP3    H142537   5.230   0.654   4.096
14198TIP3    H242538   5.220   0.751   4.211
14199TIP3   OH242539   2.884   5.612   3.272
14199TIP3    H142540   2.878   5.675   3.200
14199TIP3    H242541   2.802   5.562   3.266
14200TIP3   OH242542   3.941   6.053   6.387
14200TIP3    H142543   3.987   6.110   6.449
14200TIP3    H242544   3.888   5.995   6.442
14201TIP3   OH242545   1.272   1.427   4.611
14201TIP3    H142546   1.234   1.346   4.576
14201TIP3    H242547   1.289   1.481   4.534
14202TIP3   OH242548   2.336   2.813   5.416
14202TIP3    H142549   2.337   2.718   5.423
14202TIP3    H242550   2.344   2.845   5.506
14203TIP3   OH242551   1.706   6.289   0.883
14203TIP3    H142552   1.637   6.283   0.949
14203TIP3    H242553   1.777   6.337   0.926
14204TIP3   OH242554   2.154   5.260   2.341
14204TIP3    H142555   2.082   5.279   2.401
14204TIP3    H242556   2.233   5.285   2.388
14205TIP3   OH242557   6.270   3.039   0.284
14205TIP3    H142558   6.289   2.969   0.346
14205TIP3    H242559   6.356   3.076   0.263
14206TIP3   OH242560   1.534   3.644   2.878
14206TIP3    H142561   1.464   3.611   2.933
14206TIP3    H242562   1.534   3.587   2.802
14207TIP3   OH242563   7.795   2.973   6.062
14207TIP3    H142564   7.883   2.946   6.037
14207TIP3    H242565   7.806   3.010   6.150
14208TIP3   OH242566   3.994   1.281   5.710
14208TIP3    H142567   4.055   1.249   5.776
14208TIP3    H242568   4.015   1.231   5.631
14209TIP3   OH242569   8.177   7.744   5.379
14209TIP3    H142570   8.094   7.786   5.403
14209TIP3    H242571   8.152   7.674   5.319
14210TIP3   OH242572   0.801   5.167   1.710
14210TIP3    H142573   0.744   5.090   1.712
14210TIP3    H242574   0.856   5.155   1.632
14211TIP3   OH242575   1.613   4.328   2.496
14211TIP3    H142576   1.659   4.276   2.561
14211TIP3    H242577   1.679   4.348   2.430
14212TIP3   OH242578   0.274   6.313   1.662
14212TIP3    H142579   0.361   6.277   1.679
14212TIP3    H242580   0.282   6.357   1.578
14213TIP3   OH242581   1.355   4.566   4.490
14213TIP3    H142582   1.425   4.535   4.433
14213TIP3    H242583   1.351   4.660   4.475
14214TIP3   OH242584   6.712   6.711   4.715
14214TIP3    H142585   6.795   6.689   4.757
14214TIP3    H242586   6.648   6.653   4.757
14215TIP3   OH242587   3.171   2.691   5.903
14215TIP3    H142588   3.253   2.741   5.906
14215TIP3    H242589   3.194   2.607   5.942
14216TIP3   OH242590   5.648   4.466   6.097
14216TIP3    H142591   5.627   4.554   6.064
14216TIP3    H242592   5.744   4.462   6.093
14217TIP3   OH242593   2.548   4.095   2.013
14217TIP3    H142594   2.533   4.033   2.084
14217TIP3    H242595   2.482   4.073   1.947
14218TIP3   OH242596   1.076   5.599   1.526
14218TIP3    H142597   1.028   5.534   1.474
14218TIP3    H242598   1.168   5.584   1.504
14219TIP3   OH242599   7.391   6.552   2.048
14219TIP3    H142600   7.309   6.506   2.028
14219TIP3    H242601   7.364   6.628   2.098
14220TIP3   OH242602   2.341   3.570   3.449
14220TIP3    H142603   2.247   3.574   3.434
14220TIP3    H242604   2.378   3.559   3.361
14221TIP3   OH242605   0.401   6.608   2.496
14221TIP3    H142606   0.385   6.628   2.404
14221TIP3    H242607   0.317   6.623   2.539
14222TIP3   OH242608   5.155   2.849   3.095
14222TIP3    H142609   5.152   2.757   3.123
14222TIP3    H242610   5.229   2.886   3.143
14223TIP3   OH242611   0.297   4.783   5.135
14223TIP3    H142612   0.255   4.868   5.147
14223TIP3    H242613   0.363   4.779   5.205
14224TIP3   OH242614   4.396   0.961   3.339
14224TIP3    H142615   4.486   0.944   3.366
14224TIP3    H242616   4.378   0.894   3.273
14225TIP3   OH242617   2.570   1.564   5.475
14225TIP3    H142618   2.520   1.581   5.554
14225TIP3    H242619   2.631   1.494   5.500
14226TIP3   OH242620   2.700   6.041   0.926
14226TIP3    H142621   2.737   6.106   0.986
14226TIP3    H242622   2.653   5.980   0.983
14227TIP3   OH242623   6.873   6.578  -0.022
14227TIP3    H142624   6.844   6.489  -0.005
14227TIP3    H242625   6.841   6.628   0.053
14228TIP3   OH242626   3.685   6.307   5.013
14228TIP3    H142627   3.611   6.320   5.073
14228TIP3    H242628   3.668   6.367   4.941
14229TIP3   OH242629   0.363   6.731   4.498
14229TIP3    H142630   0.418   6.739   4.576
14229TIP3    H242631   0.282   6.776   4.521
14230TIP3   OH242632   6.195   2.948   3.784
14230TIP3    H142633   6.102   2.929   3.797
14230TIP3    H242634   6.229   2.966   3.872
14231TIP3   OH242635   1.902   6.243   2.086
14231TIP3    H142636   1.813   6.223   2.113
14231TIP3    H242637   1.953   6.243   2.167
14232TIP3   OH242638   3.802   4.201   4.473
14232TIP3    H142639   3.764   4.181   4.387
14232TIP3    H242640   3.896   4.205   4.458
14233TIP3   OH242641   4.638   1.936   6.339
14233TIP3    H142642   4.676   1.895   6.262
14233TIP3    H242643   4.679   2.022   6.345
14234TIP3   OH242644   4.938   0.866   1.036
14234TIP3    H142645   4.848   0.856   1.066
14234TIP3    H242646   4.980   0.921   1.103
14235TIP3   OH242647   3.955   5.674   3.270
14235TIP3    H142648   3.880   5.635   3.225
14235TIP3    H242649   3.916   5.716   3.348
14236TIP3   OH242650   5.870   0.481   3.542
14236TIP3    H142651   5.821   0.564   3.550
14236TIP3    H242652   5.811   0.424   3.493
14237TIP3   OH242653   1.569   2.091   5.307
14237TIP3    H142654   1.662   2.112   5.298
14237TIP3    H242655   1.567   2.021   5.372
14238TIP3   OH242656   4.429   2.930   2.675
14238TIP3    H142657   4.421   2.884   2.592
14238TIP3    H242658   4.510   2.980   2.668
14239TIP3   OH242659   4.384   5.535   6.208
14239TIP3    H142660   4.398   5.624   6.175
14239TIP3    H242661   4.420   5.478   6.140
14240TIP3   OH242662  -0.054   1.103   6.467
14240TIP3    H142663  -0.041   1.193   6.436
14240TIP3    H242664   0.019   1.054   6.429
14241TIP3   OH242665   7.299   5.143   2.455
14241TIP3    H142666   7.236   5.163   2.524
14241TIP3    H242667   7.384   5.163   2.493
14242TIP3   OH242668   5.629   0.430   3.353
14242TIP3    H142669   5.646   0.518   3.385
14242TIP3    H242670   5.567   0.442   3.281
14243TIP3   OH242671   5.845   3.315   0.915
14243TIP3    H142672   5.767   3.308   0.969
14243TIP3    H242673   5.813   3.312   0.825
14244TIP3   OH242674   4.946   6.893   4.883
14244TIP3    H142675   4.862   6.938   4.894
14244TIP3    H242676   5.001   6.955   4.835
14245TIP3   OH242677   3.514   5.850   1.752
14245TIP3    H142678   3.427   5.888   1.738
14245TIP3    H242679   3.501   5.782   1.818
14246TIP3   OH242680   7.467   5.035   5.994
14246TIP3    H142681   7.505   5.121   5.980
14246TIP3    H242682   7.494   5.010   6.082
14247TIP3   OH242683   2.832   3.655   1.409
14247TIP3    H142684   2.786   3.571   1.402
14247TIP3    H242685   2.802   3.692   1.492
14248TIP3   OH242686   6.479   0.504   4.421
14248TIP3    H142687   6.442   0.586   4.390
14248TIP3    H242688   6.417   0.473   4.487
14249TIP3   OH242689   1.950   7.113   0.831
14249TIP3    H142690   1.976   7.178   0.898
14249TIP3    H242691   1.906   7.044   0.881
14250TIP3   OH242692   5.046   4.937   5.121
14250TIP3    H142693   4.967   4.970   5.077
14250TIP3    H242694   5.097   5.015   5.140
14251TIP3   OH242695   2.586   5.920   6.215
14251TIP3    H142696   2.576   5.991   6.279
14251TIP3    H242697   2.602   5.842   6.268
14252TIP3   OH242698   3.549   3.324   5.781
14252TIP3    H142699   3.614   3.303   5.849
14252TIP3    H242700   3.467   3.333   5.829
14253TIP3   OH242701   2.319   3.263   4.890
14253TIP3    H142702   2.267   3.283   4.967
14253TIP3    H242703   2.272   3.191   4.848
14254TIP3   OH242704   1.383   6.893   2.699
14254TIP3    H142705   1.300   6.941   2.697
14254TIP3    H242706   1.425   6.914   2.615
14255TIP3   OH242707   7.231   2.808   2.993
14255TIP3    H142708   7.135   2.812   2.994
14255TIP3    H242709   7.253   2.743   3.059
14256TIP3   OH242710   4.880   5.506   0.470
14256TIP3    H142711   4.803   5.455   0.497
14256TIP3    H242712   4.864   5.594   0.505
14257TIP3   OH242713   5.414   3.008   2.970
14257TIP3    H142714   5.420   2.945   3.042
14257TIP3    H242715   5.381   3.088   3.011
14258TIP3   OH242716   2.706   2.764   3.908
14258TIP3    H142717   2.756   2.846   3.906
14258TIP3    H242718   2.724   2.728   3.995
14259TIP3   OH242719   4.345   1.348   4.227
14259TIP3    H142720   4.255   1.342   4.195
14259TIP3    H242721   4.339   1.406   4.303
14260TIP3   OH242722   3.679   3.813   5.291
14260TIP3    H142723   3.727   3.833   5.211
14260TIP3    H242724   3.646   3.724   5.278
14261TIP3   OH242725   5.235   4.064   1.775
14261TIP3    H142726   5.205   4.073   1.865
14261TIP3    H242727   5.156   4.042   1.725
14262TIP3   OH242728   2.526   5.282   4.718
14262TIP3    H142729   2.547   5.374   4.733
14262TIP3    H242730   2.517   5.245   4.805
14263TIP3   OH242731   5.117   0.539   4.721
14263TIP3    H142732   5.132   0.444   4.730
14263TIP3    H242733   5.183   0.579   4.777
14264TIP3   OH242734   3.110   1.496   2.862
14264TIP3    H142735   3.055   1.474   2.787
14264TIP3    H242736   3.067   1.571   2.902
14265TIP3   OH242737   5.600   6.739   3.468
14265TIP3    H142738   5.687   6.760   3.436
14265TIP3    H242739   5.615   6.694   3.552
14266TIP3   OH242740   4.901   3.416   6.407
14266TIP3    H142741   4.924   3.504   6.379
14266TIP3    H242742   4.895   3.421   6.502
14267TIP3   OH242743   6.005   0.806   5.966
14267TIP3    H142744   6.055   0.783   6.044
14267TIP3    H242745   5.967   0.723   5.937
14268TIP3   OH242746   3.155   7.751   1.834
14268TIP3    H142747   3.210   7.802   1.774
14268TIP3    H242748   3.115   7.817   1.891
14269TIP3   OH242749   1.622   5.909   0.559
14269TIP3    H142750   1.602   5.935   0.649
14269TIP3    H242751   1.537   5.898   0.517
14270TIP3   OH242752   1.520   2.896   5.930
14270TIP3    H142753   1.536   2.837   6.004
14270TIP3    H242754   1.428   2.882   5.908
14271TIP3   OH242755   1.019   6.154   6.269
14271TIP3    H142756   1.058   6.116   6.348
14271TIP3    H242757   1.008   6.247   6.289
14272TIP3   OH242758   2.654   7.256   3.796
14272TIP3    H142759   2.607   7.224   3.719
14272TIP3    H242760   2.709   7.327   3.763
14273TIP3   OH242761   5.562   3.657   4.682
14273TIP3    H142762   5.496   3.677   4.617
14273TIP3    H242763   5.612   3.739   4.691
14274TIP3   OH242764   6.018   4.039   5.822
14274TIP3    H142765   6.087   4.033   5.756
14274TIP3    H242766   6.026   3.958   5.872
14275TIP3   OH242767   4.164   5.826   3.668
14275TIP3    H142768   4.109   5.803   3.743
14275TIP3    H242769   4.253   5.808   3.697
14276TIP3   OH242770   0.237   5.647   1.207
14276TIP3    H142771   0.164   5.585   1.212
14276TIP3    H242772   0.308   5.596   1.168
14277TIP3   OH242773   2.477   4.946   4.104
14277TIP3    H142774   2.567   4.966   4.077
14277TIP3    H242775   2.450   5.023   4.154
14278TIP3   OH242776   6.280   2.371   4.552
14278TIP3    H142777   6.236   2.430   4.614
14278TIP3    H242778   6.367   2.408   4.541
14279TIP3   OH242779   3.170   6.812   3.218
14279TIP3    H142780   3.097   6.754   3.242
14279TIP3    H242781   3.166   6.884   3.281
14280TIP3   OH242782   4.383   0.162   6.234
14280TIP3    H142783   4.437   0.227   6.189
14280TIP3    H242784   4.372   0.197   6.323
14281TIP3   OH242785   1.558   7.695   3.098
14281TIP3    H142786   1.473   7.654   3.110
14281TIP3    H242787   1.575   7.688   3.004
14282TIP3   OH242788   7.478   1.044   0.761
14282TIP3    H142789   7.505   0.997   0.840
14282TIP3    H242790   7.429   0.980   0.710
14283TIP3   OH242791   0.513   1.246   3.120
14283TIP3    H142792   0.456   1.315   3.087
14283TIP3    H242793   0.533   1.193   3.042
14284TIP3   OH242794   0.483   1.553   3.161
14284TIP3    H142795   0.574   1.580   3.158
14284TIP3    H242796   0.464   1.543   3.254
14285TIP3   OH242797   1.107   4.286   0.712
14285TIP3    H142798   1.103   4.372   0.753
14285TIP3    H242799   1.152   4.231   0.776
14286TIP3   OH242800   2.111   2.514   5.848
14286TIP3    H142801   2.020   2.511   5.821
14286TIP3    H242802   2.119   2.597   5.896
14287TIP3   OH242803   0.496   5.045   0.228
14287TIP3    H142804   0.498   4.949   0.229
14287TIP3    H242805   0.546   5.070   0.306
14288TIP3   OH242806   8.085   6.648   3.382
14288TIP3    H142807   8.025   6.688   3.445
14288TIP3    H242808   8.091   6.713   3.311
14289TIP3   OH242809   5.878   0.222   3.225
14289TIP3    H142810   5.795   0.259   3.195
14289TIP3    H242811   5.854   0.166   3.299
14290TIP3   OH242812   1.126   7.710   2.364
14290TIP3    H142813   1.061   7.738   2.429
14290TIP3    H242814   1.120   7.615   2.363
14291TIP3   OH242815   6.715   3.580   3.455
14291TIP3    H142816   6.632   3.576   3.501
14291TIP3    H242817   6.781   3.562   3.523
14292TIP3   OH242818   6.450   6.025   1.053
14292TIP3    H142819   6.416   6.093   1.111
14292TIP3    H242820   6.374   5.995   1.003
14293TIP3   OH242821   2.161   4.513   5.166
14293TIP3    H142822   2.179   4.568   5.089
14293TIP3    H242823   2.073   4.539   5.194
14294TIP3   OH242824   5.006   7.753   4.575
14294TIP3    H142825   5.008   7.741   4.670
14294TIP3    H242826   4.913   7.749   4.553
14295TIP3   OH242827   5.788   0.013   4.867
14295TIP3    H142828   5.876   0.042   4.844
14295TIP3    H242829   5.763   0.066   4.942
14296TIP3   OH242830   1.471   1.758   5.978
14296TIP3    H142831   1.475   1.801   6.064
14296TIP3    H242832   1.484   1.665   5.998
14297TIP3   OH242833   7.830   1.805   5.824
14297TIP3    H142834   7.754   1.750   5.805
14297TIP3    H242835   7.807   1.891   5.788
14298TIP3   OH242836   3.222   0.150   0.367
14298TIP3    H142837   3.210   0.221   0.304
14298TIP3    H242838   3.133   0.127   0.396
14299TIP3   OH242839   2.276   3.191   3.866
14299TIP3    H142840   2.329   3.271   3.862
14299TIP3    H242841   2.307   3.147   3.945
14300TIP3   OH242842   5.666   0.993   1.632
14300TIP3    H142843   5.758   0.978   1.611
14300TIP3    H242844   5.667   1.052   1.708
14301TIP3   OH242845   1.137   6.009   2.538
14301TIP3    H142846   1.043   6.021   2.547
14301TIP3    H242847   1.168   5.992   2.627
14302TIP3   OH242848   2.897   4.921   0.916
14302TIP3    H142849   2.878   4.829   0.895
14302TIP3    H242850   2.831   4.971   0.868
14303TIP3   OH242851   6.923   6.929   2.973
14303TIP3    H142852   6.986   6.863   3.000
14303TIP3    H242853   6.899   6.905   2.884
14304TIP3   OH242854   6.119   4.802   3.952
14304TIP3    H142855   6.152   4.780   3.865
14304TIP3    H242856   6.065   4.726   3.977
14305TIP3   OH242857   5.004   7.612   0.153
14305TIP3    H142858   4.989   7.705   0.141
14305TIP3    H242859   4.996   7.598   0.247
14306TIP3   OH242860   2.592   5.645   4.112
14306TIP3    H142861   2.519   5.699   4.140
14306TIP3    H242862   2.612   5.590   4.188
14307TIP3   OH242863   1.815   3.529   5.363
14307TIP3    H142864   1.761   3.477   5.422
14307TIP3    H242865   1.876   3.575   5.421
14308TIP3   OH242866   5.968   1.709   1.442
14308TIP3    H142867   6.026   1.665   1.379
14308TIP3    H242868   5.940   1.789   1.396
14309TIP3   OH242869   6.684   0.038   0.129
14309TIP3    H142870   6.660   0.013   0.219
14309TIP3    H242871   6.723   0.125   0.138
14310TIP3   OH242872   4.084   1.979   3.586
14310TIP3    H142873   4.022   1.967   3.658
14310TIP3    H242874   4.113   2.069   3.593
14311TIP3   OH242875   6.802   5.022   2.419
14311TIP3    H142876   6.854   5.097   2.390
14311TIP3    H242877   6.867   4.957   2.445
14312TIP3   OH242878   2.700   0.248   1.859
14312TIP3    H142879   2.729   0.304   1.932
14312TIP3    H242880   2.751   0.279   1.784
14313TIP3   OH242881   1.663   4.950   1.271
14313TIP3    H142882   1.706   4.911   1.195
14313TIP3    H242883   1.604   5.016   1.235
14314TIP3   OH242884   7.171   1.407   2.877
14314TIP3    H142885   7.140   1.454   2.800
14314TIP3    H242886   7.093   1.395   2.931
14315TIP3   OH242887   5.564   5.606   0.751
14315TIP3    H142888   5.620   5.655   0.691
14315TIP3    H242889   5.494   5.571   0.696
14316TIP3   OH242890   0.030   3.112   1.612
14316TIP3    H142891   0.055   3.197   1.647
14316TIP3    H242892   0.113   3.063   1.607
14317TIP3   OH242893   0.687   6.467   2.770
14317TIP3    H142894   0.682   6.534   2.702
14317TIP3    H242895   0.781   6.448   2.779
14318TIP3   OH242896   3.230   5.556   5.999
14318TIP3    H142897   3.252   5.463   6.007
14318TIP3    H242898   3.208   5.584   6.088
14319TIP3   OH242899   2.762   0.505   6.018
14319TIP3    H142900   2.760   0.555   5.937
14319TIP3    H242901   2.808   0.562   6.080
14320TIP3   OH242902   0.499   4.724   2.084
14320TIP3    H142903   0.425   4.748   2.029
14320TIP3    H242904   0.459   4.688   2.163
14321TIP3   OH242905   3.852   5.012   1.222
14321TIP3    H142906   3.793   4.937   1.208
14321TIP3    H242907   3.914   4.981   1.288
14322TIP3   OH242908   5.645   1.339   3.184
14322TIP3    H142909   5.676   1.256   3.147
14322TIP3    H242910   5.572   1.313   3.241
14323TIP3   OH242911   1.486   5.796   4.917
14323TIP3    H142912   1.406   5.847   4.931
14323TIP3    H242913   1.524   5.833   4.837
14324TIP3   OH242914   3.322   1.662   3.302
14324TIP3    H142915   3.304   1.665   3.208
14324TIP3    H242916   3.337   1.754   3.326
14325TIP3   OH242917   1.971   6.362   5.985
14325TIP3    H142918   2.029   6.328   5.917
14325TIP3    H242919   1.935   6.442   5.948
14326TIP3   OH242920   0.492   4.068   3.402
14326TIP3    H142921   0.521   4.104   3.318
14326TIP3    H242922   0.424   4.128   3.432
14327TIP3   OH242923   2.283   3.292   2.145
14327TIP3    H142924   2.218   3.229   2.116
14327TIP3    H242925   2.257   3.313   2.235
14328TIP3   OH242926   7.040   7.033   3.324
14328TIP3    H142927   7.092   7.110   3.302
14328TIP3    H242928   6.951   7.054   3.295
14329TIP3   OH242929   7.089   3.381   2.390
14329TIP3    H142930   7.060   3.446   2.327
14329TIP3    H242931   7.050   3.299   2.359
14330TIP3   OH242932   6.433   4.900   3.660
14330TIP3    H142933   6.472   4.891   3.573
14330TIP3    H242934   6.396   4.988   3.661
14331TIP3   OH242935   6.165   5.222   1.288
14331TIP3    H142936   6.115   5.277   1.228
14331TIP3    H242937   6.102   5.191   1.352
14332TIP3   OH242938   1.156   4.979   5.178
14332TIP3    H142939   1.113   4.920   5.240
14332TIP3    H242940   1.236   5.006   5.222
14333TIP3   OH242941   1.410   6.647   6.085
14333TIP3    H142942   1.480   6.585   6.065
14333TIP3    H242943   1.441   6.730   6.048
14334TIP3   OH242944   5.380   3.582   4.346
14334TIP3    H142945   5.346   3.552   4.430
14334TIP3    H242946   5.345   3.670   4.335
14335TIP3   OH242947   3.588   0.814   1.902
14335TIP3    H142948   3.634   0.770   1.831
14335TIP3    H242949   3.527   0.749   1.936
14336TIP3   OH242950   8.214   5.976   6.586
14336TIP3    H142951   8.218   6.071   6.599
14336TIP3    H242952   8.122   5.954   6.600
14337TIP3   OH242953   5.770   1.598   0.865
14337TIP3    H142954   5.794   1.529   0.803
14337TIP3    H242955   5.680   1.620   0.844
14338TIP3   OH242956   5.331   2.866   5.010
14338TIP3    H142957   5.259   2.853   4.948
14338TIP3    H242958   5.367   2.778   5.023
14339TIP3   OH242959   8.259   2.784   1.862
14339TIP3    H142960   8.191   2.776   1.795
14339TIP3    H242961   8.332   2.733   1.827
14340TIP3   OH242962   2.319   7.743   3.721
14340TIP3    H142963   2.238   7.776   3.682
14340TIP3    H242964   2.358   7.818   3.765
14341TIP3   OH242965   4.151   2.156   3.229
14341TIP3    H142966   4.193   2.218   3.169
14341TIP3    H242967   4.099   2.210   3.288
14342TIP3   OH242968   5.085   5.862   4.571
14342TIP3    H142969   5.103   5.816   4.488
14342TIP3    H242970   5.061   5.950   4.544
14343TIP3   OH242971   5.452   4.310   4.874
14343TIP3    H142972   5.440   4.381   4.937
14343TIP3    H242973   5.542   4.322   4.842
14344TIP3   OH242974   7.741   3.563   3.855
14344TIP3    H142975   7.811   3.516   3.811
14344TIP3    H242976   7.780   3.649   3.877
14345TIP3   OH242977   7.555   7.542   3.662
14345TIP3    H142978   7.549   7.509   3.752
14345TIP3    H242979   7.527   7.469   3.608
14346TIP3   OH242980   3.781   3.986   1.943
14346TIP3    H142981   3.760   4.030   1.861
14346TIP3    H242982   3.707   4.007   2.001
14347TIP3   OH242983   1.666   1.124   3.022
14347TIP3    H142984   1.695   1.037   2.995
14347TIP3    H242985   1.636   1.113   3.112
14348TIP3   OH242986   0.848   4.400   3.952
14348TIP3    H142987   0.869   4.372   4.041
14348TIP3    H242988   0.810   4.322   3.911
14349TIP3   OH242989   1.803   3.503   0.954
14349TIP3    H142990   1.742   3.519   0.882
14349TIP3    H242991   1.824   3.590   0.988
14350TIP3   OH242992   1.888   2.373   1.882
14350TIP3    H142993   1.845   2.454   1.854
14350TIP3    H242994   1.914   2.330   1.800
14351TIP3   OH242995   6.606   3.706   4.139
14351TIP3    H142996   6.610   3.792   4.097
14351TIP3    H242997   6.698   3.680   4.149
14352TIP3   OH242998   3.053   1.228   1.418
14352TIP3    H142999   3.054   1.162   1.349
14352TIP3    H243000   2.992   1.294   1.387
14353TIP3   OH243001   5.361   0.832   1.722
14353TIP3    H143002   5.322   0.903   1.773
14353TIP3    H243003   5.437   0.873   1.679
14354TIP3   OH243004   0.779   2.589   1.332
14354TIP3    H143005   0.697   2.560   1.373
14354TIP3    H243006   0.777   2.549   1.245
14355TIP3   OH243007   3.201   3.244   4.695
14355TIP3    H143008   3.289   3.281   4.702
14355TIP3    H243009   3.166   3.281   4.614
14356TIP3   OH243010   7.815   1.127   3.168
14356TIP3    H143011   7.822   1.086   3.255
14356TIP3    H243012   7.766   1.208   3.184
14357TIP3   OH243013   3.078   6.686   3.495
14357TIP3    H143014   3.057   6.727   3.579
14357TIP3    H243015   3.006   6.710   3.438
14358TIP3   OH243016   1.116   3.525   4.921
14358TIP3    H143017   1.179   3.483   4.980
14358TIP3    H243018   1.059   3.575   4.980
14359TIP3   OH243019   4.182   1.461   0.485
14359TIP3    H143020   4.180   1.551   0.517
14359TIP3    H243021   4.229   1.467   0.401
14360TIP3   OH243022   6.598   5.220   3.568
14360TIP3    H143023   6.610   5.173   3.485
14360TIP3    H243024   6.503   5.228   3.577
14361TIP3   OH243025   7.569   5.718   3.782
14361TIP3    H143026   7.483   5.686   3.809
14361TIP3    H243027   7.603   5.764   3.858
14362TIP3   OH243028   3.738   2.612   5.238
14362TIP3    H143029   3.666   2.563   5.199
14362TIP3    H243030   3.812   2.600   5.178
14363TIP3   OH243031   7.983   2.976   4.764
14363TIP3    H143032   7.954   2.979   4.673
14363TIP3    H243033   7.929   3.041   4.809
14364TIP3   OH243034   3.584   2.688   3.437
14364TIP3    H143035   3.556   2.634   3.511
14364TIP3    H243036   3.632   2.761   3.477
14365TIP3   OH243037   1.754   4.125   5.986
14365TIP3    H143038   1.705   4.083   5.915
14365TIP3    H243039   1.791   4.203   5.946
14366TIP3   OH243040   0.795   5.760   5.036
14366TIP3    H143041   0.882   5.759   4.997
14366TIP3    H243042   0.758   5.844   5.010
14367TIP3   OH243043   7.952   0.774   2.418
14367TIP3    H143044   7.959   0.685   2.454
14367TIP3    H243045   7.921   0.761   2.328
14368TIP3   OH243046   7.488   5.182   0.966
14368TIP3    H143047   7.546   5.210   0.896
14368TIP3    H243048   7.448   5.263   0.998
14369TIP3   OH243049   3.574   6.868   2.648
14369TIP3    H143050   3.514   6.890   2.719
14369TIP3    H243051   3.627   6.796   2.681
14370TIP3   OH243052   0.084   4.297   3.037
14370TIP3    H143053   0.139   4.308   2.960
14370TIP3    H243054  -0.004   4.286   3.003
14371TIP3   OH243055   2.197   6.515   1.842
14371TIP3    H143056   2.149   6.555   1.914
14371TIP3    H243057   2.156   6.550   1.763
14372TIP3   OH243058   7.991   3.922   0.601
14372TIP3    H143059   8.014   3.931   0.509
14372TIP3    H243060   7.899   3.897   0.601
14373TIP3   OH243061   1.242   1.853   3.509
14373TIP3    H143062   1.337   1.854   3.521
14373TIP3    H243063   1.221   1.940   3.475
14374TIP3   OH243064   3.883   2.282   4.830
14374TIP3    H143065   3.854   2.229   4.904
14374TIP3    H243066   3.904   2.218   4.762
14375TIP3   OH243067   4.859   0.756   1.923
14375TIP3    H143068   4.833   0.838   1.883
14375TIP3    H243069   4.848   0.770   2.017
14376TIP3   OH243070   7.521   1.638   3.883
14376TIP3    H143071   7.577   1.573   3.925
14376TIP3    H243072   7.447   1.649   3.943
14377TIP3   OH243073   7.168   4.932   1.744
14377TIP3    H143074   7.222   4.980   1.682
14377TIP3    H243075   7.165   4.987   1.822
14378TIP3   OH243076   6.856   7.360   3.285
14378TIP3    H143077   6.913   7.318   3.221
14378TIP3    H243078   6.771   7.316   3.274
14379TIP3   OH243079   5.934   2.898   2.170
14379TIP3    H143080   5.917   2.895   2.076
14379TIP3    H243081   5.881   2.971   2.202
14380TIP3   OH243082   5.004   0.118   6.419
14380TIP3    H143083   5.002   0.027   6.448
14380TIP3    H243084   5.046   0.165   6.492
14381TIP3   OH243085   1.201   5.954   0.691
14381TIP3    H143086   1.268   6.019   0.669
14381TIP3    H243087   1.129   6.005   0.729
14382TIP3   OH243088   7.669   0.683   0.579
14382TIP3    H143089   7.740   0.621   0.566
14382TIP3    H243090   7.711   0.769   0.576
14383TIP3   OH243091   2.147   2.203   3.711
14383TIP3    H143092   2.101   2.123   3.737
14383TIP3    H243093   2.201   2.176   3.637
14384TIP3   OH243094   0.329   4.707   0.967
14384TIP3    H143095   0.342   4.637   0.903
14384TIP3    H243096   0.238   4.733   0.956
14385TIP3   OH243097   2.708   3.642   3.641
14385TIP3    H143098   2.762   3.588   3.584
14385TIP3    H243099   2.681   3.716   3.586
14386TIP3   OH243100   5.106   2.909   3.384
14386TIP3    H143101   5.069   2.972   3.322
14386TIP3    H243102   5.054   2.829   3.371
14387TIP3   OH243103   0.884   4.343   1.058
14387TIP3    H143104   0.950   4.408   1.081
14387TIP3    H243105   0.920   4.260   1.089
14388TIP3   OH243106   3.700   7.735   4.402
14388TIP3    H143107   3.659   7.821   4.394
14388TIP3    H243108   3.662   7.697   4.482
14389TIP3   OH243109   6.664   5.219   5.045
14389TIP3    H143110   6.673   5.293   5.104
14389TIP3    H243111   6.655   5.258   4.958
14390TIP3   OH243112   1.842   1.100   4.094
14390TIP3    H143113   1.862   1.181   4.046
14390TIP3    H243114   1.767   1.122   4.149
14391TIP3   OH243115   6.981   1.966   1.385
14391TIP3    H143116   6.963   2.047   1.434
14391TIP3    H243117   6.929   1.974   1.306
14392TIP3   OH243118   2.918   6.846   4.759
14392TIP3    H143119   2.926   6.768   4.813
14392TIP3    H243120   2.980   6.832   4.687
14393TIP3   OH243121   5.524   3.485   2.176
14393TIP3    H143122   5.598   3.482   2.116
14393TIP3    H243123   5.499   3.577   2.179
14394TIP3   OH243124   4.025   0.782   5.563
14394TIP3    H143125   4.005   0.748   5.476
14394TIP3    H243126   3.940   0.791   5.606
14395TIP3   OH243127   7.144   3.576   0.808
14395TIP3    H143128   7.079   3.586   0.739
14395TIP3    H243129   7.228   3.573   0.763
14396TIP3   OH243130   3.006   2.105   1.928
14396TIP3    H143131   3.085   2.061   1.897
14396TIP3    H243132   2.947   2.104   1.853
14397TIP3   OH243133   5.398   4.187   0.715
14397TIP3    H143134   5.481   4.142   0.731
14397TIP3    H243135   5.373   4.221   0.801
14398TIP3   OH243136   5.409   1.331   1.823
14398TIP3    H143137   5.361   1.338   1.905
14398TIP3    H243138   5.372   1.400   1.768
14399TIP3   OH243139   4.334   5.234   2.580
14399TIP3    H143140   4.371   5.292   2.513
14399TIP3    H243141   4.246   5.268   2.595
14400TIP3   OH243142   4.739   2.074   5.192
14400TIP3    H143143   4.654   2.044   5.226
14400TIP3    H243144   4.730   2.169   5.186
14401TIP3   OH243145   6.421   5.406   4.955
14401TIP3    H143146   6.333   5.369   4.961
14401TIP3    H243147   6.450   5.387   4.866
14402TIP3   OH243148   3.518   7.492   1.492
14402TIP3    H143149   3.580   7.555   1.456
14402TIP3    H243150   3.454   7.478   1.422
14403TIP3   OH243151   6.972   5.546   4.072
14403TIP3    H143152   6.888   5.538   4.117
14403TIP3    H243153   6.949   5.556   3.980
14404TIP3   OH243154   0.446   2.206   6.259
14404TIP3    H143155   0.501   2.276   6.295
14404TIP3    H243156   0.451   2.219   6.164
14405TIP3   OH243157   5.002   0.709   0.585
14405TIP3    H143158   4.945   0.640   0.617
14405TIP3    H243159   5.063   0.665   0.525
14406TIP3   OH243160   2.035   2.767   1.942
14406TIP3    H143161   1.954   2.739   1.898
14406TIP3    H243162   2.061   2.847   1.895
14407TIP3   OH243163   1.717   0.698   0.680
14407TIP3    H143164   1.790   0.725   0.736
14407TIP3    H243165   1.729   0.748   0.599
14408TIP3   OH243166   3.764   3.808   0.937
14408TIP3    H143167   3.816   3.773   1.010
14408TIP3    H243168   3.744   3.898   0.964
14409TIP3   OH243169   6.213   3.089   2.809
14409TIP3    H143170   6.142   3.028   2.829
14409TIP3    H243171   6.292   3.035   2.806
14410TIP3   OH243172   5.797   0.610   1.710
14410TIP3    H143173   5.742   0.639   1.637
14410TIP3    H243174   5.753   0.532   1.743
14411TIP3   OH243175   1.930   3.900   2.905
14411TIP3    H143176   1.889   3.822   2.941
14411TIP3    H243177   1.865   3.970   2.919
14412TIP3   OH243178   4.504   3.036   6.559
14412TIP3    H143179   4.442   3.022   6.487
14412TIP3    H243180   4.549   2.952   6.568
14413TIP3   OH243181   2.224   4.803   3.116
14413TIP3    H143182   2.241   4.728   3.060
14413TIP3    H243183   2.158   4.772   3.178
14414TIP3   OH243184   1.773   1.440   0.003
14414TIP3    H143185   1.746   1.507   0.066
14414TIP3    H243186   1.856   1.406   0.039
14415TIP3   OH243187   2.813   2.114   3.622
14415TIP3    H143188   2.901   2.142   3.596
14415TIP3    H243189   2.760   2.193   3.618
14416TIP3   OH243190   2.176   2.831   3.658
14416TIP3    H143191   2.249   2.883   3.692
14416TIP3    H243192   2.098   2.883   3.679
14417TIP3   OH243193   6.732   6.741   4.256
14417TIP3    H143194   6.772   6.685   4.322
14417TIP3    H243195   6.679   6.681   4.203
14418TIP3   OH243196   3.598   6.003   3.436
14418TIP3    H143197   3.553   6.080   3.401
14418TIP3    H243198   3.658   6.038   3.502
14419TIP3   OH243199   2.948   3.106   1.150
14419TIP3    H143200   3.016   3.039   1.155
14419TIP3    H243201   2.980   3.177   1.205
14420TIP3   OH243202   6.050   1.575   1.199
14420TIP3    H143203   5.955   1.569   1.208
14420TIP3    H243204   6.083   1.496   1.242
14421TIP3   OH243205   4.554   2.323   3.727
14421TIP3    H143206   4.472   2.303   3.681
14421TIP3    H243207   4.592   2.237   3.746
14422TIP3   OH243208   0.138   3.993   0.031
14422TIP3    H143209   0.188   4.058  -0.018
14422TIP3    H243210   0.167   4.004   0.122
14423TIP3   OH243211   6.539   0.465   2.208
14423TIP3    H143212   6.579   0.501   2.287
14423TIP3    H243213   6.534   0.371   2.224
14424TIP3   OH243214   5.238   0.738   5.680
14424TIP3    H143215   5.324   0.715   5.715
14424TIP3    H243216   5.186   0.764   5.756
14425TIP3   OH243217   1.850   2.326   1.172
14425TIP3    H143218   1.837   2.235   1.143
14425TIP3    H243219   1.802   2.378   1.107
14426TIP3   OH243220   1.529   0.627   6.698
14426TIP3    H143221   1.560   0.698   6.754
14426TIP3    H243222   1.507   0.670   6.615
14427TIP3   OH243223   5.043   1.458   1.912
14427TIP3    H143224   5.070   1.537   1.865
14427TIP3    H243225   5.101   1.456   1.988
14428TIP3   OH243226   0.084   4.151   1.606
14428TIP3    H143227   0.104   4.213   1.677
14428TIP3    H243228  -0.002   4.179   1.574
14429TIP3   OH243229   5.716   2.511   0.243
14429TIP3    H143230   5.809   2.510   0.223
14429TIP3    H243231   5.680   2.580   0.188
14430TIP3   OH243232   2.715   4.801   3.398
14430TIP3    H143233   2.743   4.835   3.483
14430TIP3    H243234   2.787   4.823   3.338
14431TIP3   OH243235   0.812   3.885   2.897
14431TIP3    H143236   0.894   3.860   2.940
14431TIP3    H243237   0.784   3.806   2.851
14432TIP3   OH243238   5.602   2.257   3.225
14432TIP3    H143239   5.507   2.248   3.215
14432TIP3    H243240   5.636   2.255   3.136
14433TIP3   OH243241   3.906   1.430   5.010
14433TIP3    H143242   3.973   1.368   4.983
14433TIP3    H243243   3.855   1.383   5.076
14434TIP3   OH243244   4.104   5.195   5.572
14434TIP3    H143245   4.086   5.104   5.594
14434TIP3    H243246   4.022   5.227   5.532
14435TIP3   OH243247   4.220   6.505   5.384
14435TIP3    H143248   4.276   6.555   5.326
14435TIP3    H243249   4.240   6.539   5.472
14436TIP3   OH243250   5.464   1.550   5.511
14436TIP3    H143251   5.528   1.568   5.580
14436TIP3    H243252   5.381   1.542   5.557
14437TIP3   OH243253   4.397   7.526   3.546
14437TIP3    H143254   4.417   7.435   3.566
14437TIP3    H243255   4.429   7.539   3.457
14438TIP3   OH243256   7.333   1.498   3.740
14438TIP3    H143257   7.383   1.571   3.776
14438TIP3    H243258   7.243   1.530   3.738
14439TIP3   OH243259   1.583   6.051   2.054
14439TIP3    H143260   1.622   6.074   2.139
14439TIP3    H243261   1.543   5.965   2.070
14440TIP3   OH243262   4.922   2.585   3.028
14440TIP3    H143263   5.007   2.591   3.071
14440TIP3    H243264   4.913   2.493   3.004
14441TIP3   OH243265   6.220   5.271   2.638
14441TIP3    H143266   6.160   5.196   2.634
14441TIP3    H243267   6.279   5.259   2.565
14442TIP3   OH243268   5.830   4.000   6.503
14442TIP3    H143269   5.866   4.086   6.524
14442TIP3    H243270   5.753   3.992   6.559
14443TIP3   OH243271   4.413   7.236   5.697
14443TIP3    H143272   4.326   7.269   5.677
14443TIP3    H243273   4.466   7.314   5.713
14444TIP3   OH243274   6.277   6.093   3.561
14444TIP3    H143275   6.224   6.173   3.564
14444TIP3    H243276   6.327   6.101   3.479
14445TIP3   OH243277   2.007   7.061   2.847
14445TIP3    H143278   2.074   7.014   2.797
14445TIP3    H243279   1.933   7.068   2.788
14446TIP3   OH243280   1.416   3.269   6.587
14446TIP3    H143281   1.485   3.307   6.642
14446TIP3    H243282   1.334   3.295   6.630
14447TIP3   OH243283   4.834   5.777   5.001
14447TIP3    H143284   4.883   5.740   4.927
14447TIP3    H243285   4.902   5.811   5.059
14448TIP3   OH243286   1.184   5.345   1.990
14448TIP3    H143287   1.123   5.328   1.919
14448TIP3    H243288   1.131   5.393   2.055
14449TIP3   OH243289   5.442   6.177   2.942
14449TIP3    H143290   5.453   6.264   2.902
14449TIP3    H243291   5.486   6.117   2.881
14450TIP3   OH243292   1.494   1.727   5.226
14450TIP3    H143293   1.427   1.681   5.176
14450TIP3    H243294   1.446   1.779   5.290
14451TIP3   OH243295   3.460   4.760   2.854
14451TIP3    H143296   3.391   4.818   2.822
14451TIP3    H243297   3.413   4.689   2.898
14452TIP3   OH243298   6.029   2.659   2.337
14452TIP3    H143299   5.981   2.724   2.285
14452TIP3    H243300   6.110   2.703   2.360
14453TIP3   OH243301   3.056   0.355   4.947
14453TIP3    H143302   2.968   0.321   4.964
14453TIP3    H243303   3.110   0.317   5.017
14454TIP3   OH243304   1.087   6.021   5.621
14454TIP3    H143305   1.065   5.929   5.606
14454TIP3    H243306   1.182   6.022   5.629
14455TIP3   OH243307   2.618   2.638   1.465
14455TIP3    H143308   2.615   2.714   1.406
14455TIP3    H243309   2.708   2.606   1.456
14456TIP3   OH243310   5.884   5.892   2.591
14456TIP3    H143311   5.861   5.984   2.603
14456TIP3    H243312   5.824   5.845   2.649
14457TIP3   OH243313   5.863   0.816   0.340
14457TIP3    H143314   5.769   0.820   0.356
14457TIP3    H243315   5.894   0.905   0.361
14458TIP3   OH243316   5.094   1.069   6.312
14458TIP3    H143317   5.097   1.019   6.394
14458TIP3    H243318   5.009   1.113   6.315
14459TIP3   OH243319   0.595   4.477   4.959
14459TIP3    H143320   0.600   4.464   5.054
14459TIP3    H243321   0.668   4.426   4.924
14460TIP3   OH243322   5.583   2.498   5.647
14460TIP3    H143323   5.508   2.478   5.591
14460TIP3    H243324   5.655   2.513   5.586
14461TIP3   OH243325   5.599   4.246   0.536
14461TIP3    H143326   5.505   4.254   0.523
14461TIP3    H243327   5.619   4.155   0.513
14462TIP3   OH243328   3.371   3.471   5.946
14462TIP3    H143329   3.312   3.537   5.979
14462TIP3    H243330   3.458   3.498   5.977
14463TIP3   OH243331   5.536   5.417   2.688
14463TIP3    H143332   5.608   5.468   2.653
14463TIP3    H243333   5.543   5.331   2.645
14464TIP3   OH243334   6.239   5.879   1.626
14464TIP3    H143335   6.172   5.923   1.574
14464TIP3    H243336   6.261   5.800   1.576
14465TIP3   OH243337   2.848   1.494   2.733
14465TIP3    H143338   2.794   1.471   2.657
14465TIP3    H243339   2.886   1.579   2.710
14466TIP3   OH243340   0.194   7.026   1.750
14466TIP3    H143341   0.217   7.102   1.803
14466TIP3    H243342   0.185   6.955   1.814
14467TIP3   OH243343   0.959   6.109   1.861
14467TIP3    H143344   1.009   6.068   1.790
14467TIP3    H243345   0.928   6.036   1.914
14468TIP3   OH243346   0.327   0.716   2.320
14468TIP3    H143347   0.335   0.781   2.389
14468TIP3    H243348   0.235   0.721   2.292
14469TIP3   OH243349   5.670   3.614   0.095
14469TIP3    H143350   5.601   3.576   0.039
14469TIP3    H243351   5.708   3.684   0.042
14470TIP3   OH243352   5.720   0.437   4.252
14470TIP3    H143353   5.774   0.510   4.280
14470TIP3    H243354   5.783   0.371   4.222
14471TIP3   OH243355   3.314   1.069   2.214
14471TIP3    H143356   3.336   1.029   2.130
14471TIP3    H243357   3.237   1.021   2.244
14472TIP3   OH243358   4.610   3.274   1.592
14472TIP3    H143359   4.623   3.216   1.667
14472TIP3    H243360   4.519   3.259   1.566
14473TIP3   OH243361   6.626   7.308   2.910
14473TIP3    H143362   6.646   7.256   2.832
14473TIP3    H243363   6.691   7.378   2.909
14474TIP3   OH243364   7.438   7.531   3.044
14474TIP3    H143365   7.495   7.571   2.978
14474TIP3    H243366   7.407   7.450   3.002
14475TIP3   OH243367   2.639   4.214   0.207
14475TIP3    H143368   2.694   4.148   0.163
14475TIP3    H243369   2.598   4.262   0.135
14476TIP3   OH243370   2.261   3.785   0.627
14476TIP3    H143371   2.168   3.792   0.605
14476TIP3    H243372   2.286   3.873   0.654
14477TIP3   OH243373   1.578   5.012   6.030
14477TIP3    H143374   1.506   4.983   6.086
14477TIP3    H243375   1.635   5.062   6.088
14478TIP3   OH243376   0.331   4.715   4.182
14478TIP3    H143377   0.375   4.782   4.130
14478TIP3    H243378   0.238   4.725   4.161
14479TIP3   OH243379   0.722   4.520   0.303
14479TIP3    H143380   0.778   4.570   0.244
14479TIP3    H243381   0.640   4.569   0.307
14480TIP3   OH243382   1.557   7.653   1.448
14480TIP3    H143383   1.577   7.652   1.354
14480TIP3    H243384   1.510   7.572   1.464
14481TIP3   OH243385   5.628   4.210   6.704
14481TIP3    H143386   5.597   4.127   6.739
14481TIP3    H243387   5.583   4.218   6.620
14482TIP3   OH243388   0.537   7.209   6.225
14482TIP3    H143389   0.535   7.197   6.130
14482TIP3    H243390   0.609   7.153   6.255
14483TIP3   OH243391   7.910   6.519   0.338
14483TIP3    H143392   7.942   6.542   0.251
14483TIP3    H243393   7.827   6.567   0.346
14484TIP3   OH243394   3.313   4.046   1.517
14484TIP3    H143395   3.269   4.102   1.454
14484TIP3    H243396   3.407   4.059   1.499
14485TIP3   OH243397   6.394   0.794   6.121
14485TIP3    H143398   6.389   0.847   6.042
14485TIP3    H243399   6.447   0.718   6.096
14486TIP3   OH243400   3.832   5.814   6.549
14486TIP3    H143401   3.808   5.846   6.636
14486TIP3    H243402   3.874   5.730   6.565
14487TIP3   OH243403   0.085   4.700   0.852
14487TIP3    H143404   0.113   4.624   0.801
14487TIP3    H243405   0.018   4.664   0.912
14488TIP3   OH243406   6.406   0.931   3.305
14488TIP3    H143407   6.364   0.858   3.350
14488TIP3    H243408   6.431   0.895   3.220
14489TIP3   OH243409   7.358   0.246   4.908
14489TIP3    H143410   7.308   0.326   4.925
14489TIP3    H243411   7.336   0.188   4.980
14490TIP3   OH243412   0.757   5.779   4.305
14490TIP3    H143413   0.697   5.847   4.336
14490TIP3    H243414   0.841   5.801   4.345
14491TIP3   OH243415   0.373   0.771   4.423
14491TIP3    H143416   0.419   0.687   4.419
14491TIP3    H243417   0.307   0.765   4.354
14492TIP3   OH243418   8.182   0.109   4.844
14492TIP3    H143419   8.109   0.167   4.823
14492TIP3    H243420   8.179   0.040   4.778
14493TIP3   OH243421   7.588   6.995   5.946
14493TIP3    H143422   7.551   7.055   6.011
14493TIP3    H243423   7.673   6.969   5.983
14494TIP3   OH243424   5.077   3.968   6.218
14494TIP3    H143425   5.145   3.951   6.152
14494TIP3    H243426   5.099   4.055   6.252
14495TIP3   OH243427   5.746   1.938   0.924
14495TIP3    H143428   5.788   1.852   0.917
14495TIP3    H243429   5.687   1.929   0.999
14496TIP3   OH243430   5.225   7.730   0.477
14496TIP3    H143431   5.216   7.776   0.393
14496TIP3    H243432   5.172   7.782   0.538
14497TIP3   OH243433   0.375   7.050   0.564
14497TIP3    H143434   0.384   7.132   0.613
14497TIP3    H243435   0.408   7.071   0.476
14498TIP3   OH243436   4.145   0.044   4.178
14498TIP3    H143437   4.163   0.136   4.155
14498TIP3    H243438   4.222   0.016   4.227
14499TIP3   OH243439   4.216   0.497   6.639
14499TIP3    H143440   4.230   0.442   6.716
14499TIP3    H243441   4.294   0.485   6.586
14500TIP3   OH243442   6.767   6.530   5.259
14500TIP3    H143443   6.710   6.481   5.319
14500TIP3    H243444   6.820   6.585   5.317
14501TIP3   OH243445   2.635   6.682   1.436
14501TIP3    H143446   2.707   6.716   1.490
14501TIP3    H243447   2.594   6.761   1.400
14502TIP3   OH243448   2.273   2.195   5.486
14502TIP3    H143449   2.321   2.253   5.426
14502TIP3    H243450   2.283   2.236   5.572
14503TIP3   OH243451   7.758   4.055   3.451
14503TIP3    H143452   7.854   4.053   3.444
14503TIP3    H243453   7.729   3.975   3.407
14504TIP3   OH243454   0.388   2.272   2.907
14504TIP3    H143455   0.467   2.277   2.853
14504TIP3    H243456   0.417   2.296   2.995
14505TIP3   OH243457   7.703   0.560   5.933
14505TIP3    H143458   7.731   0.482   5.980
14505TIP3    H243459   7.734   0.547   5.843
14506TIP3   OH243460   7.590   5.067   3.729
14506TIP3    H143461   7.568   5.076   3.822
14506TIP3    H243462   7.656   5.135   3.714
14507TIP3   OH243463   4.920   0.495   6.035
14507TIP3    H143464   4.906   0.400   6.031
14507TIP3    H243465   5.003   0.506   6.081
14508TIP3   OH243466   4.671   7.353   2.640
14508TIP3    H143467   4.760   7.331   2.667
14508TIP3    H243468   4.615   7.301   2.697
14509TIP3   OH243469   1.758   6.269   3.428
14509TIP3    H143470   1.836   6.231   3.388
14509TIP3    H243471   1.720   6.323   3.359
14510TIP3   OH243472   0.123   1.884   4.374
14510TIP3    H143473   0.209   1.917   4.348
14510TIP3    H243474   0.125   1.883   4.469
14511TIP3   OH243475   2.792   2.945   3.041
14511TIP3    H143476   2.742   2.898   2.974
14511TIP3    H243477   2.833   2.876   3.093
14512TIP3   OH243478   3.296   4.544   2.908
14512TIP3    H143479   3.326   4.463   2.866
14512TIP3    H243480   3.327   4.537   2.998
14513TIP3   OH243481   6.515   2.826   4.111
14513TIP3    H143482   6.493   2.795   4.023
14513TIP3    H243483   6.493   2.754   4.169
14514TIP3   OH243484   0.874   6.424   4.899
14514TIP3    H143485   0.875   6.411   4.804
14514TIP3    H243486   0.898   6.516   4.911
14515TIP3   OH243487   5.270   0.212   1.729
14515TIP3    H143488   5.297   0.247   1.814
14515TIP3    H243489   5.344   0.159   1.700
14516TIP3   OH243490   6.134   2.220   3.812
14516TIP3    H143491   6.058   2.257   3.767
14516TIP3    H243492   6.098   2.152   3.869
14517TIP3   OH243493   4.033   1.359   3.450
14517TIP3    H143494   4.112   1.414   3.450
14517TIP3    H243495   4.066   1.270   3.457
14518TIP3   OH243496   7.629   6.112   1.393
14518TIP3    H143497   7.636   6.191   1.448
14518TIP3    H243498   7.641   6.039   1.453
14519TIP3   OH243499   0.196   5.898   6.063
14519TIP3    H143500   0.143   5.859   5.994
14519TIP3    H243501   0.153   5.981   6.083
14520TIP3   OH243502   8.100   5.596   2.152
14520TIP3    H143503   8.010   5.628   2.144
14520TIP3    H243504   8.152   5.674   2.171
14521TIP3   OH243505   5.735   0.125   1.975
14521TIP3    H143506   5.711   0.073   2.052
14521TIP3    H243507   5.682   0.204   1.982
14522TIP3   OH243508   6.177   4.770   2.770
14522TIP3    H143509   6.244   4.836   2.752
14522TIP3    H243510   6.203   4.732   2.855
14523TIP3   OH243511   3.922   7.168   5.846
14523TIP3    H143512   3.880   7.107   5.785
14523TIP3    H243513   3.856   7.235   5.862
14524TIP3   OH243514   2.610   5.418   3.928
14524TIP3    H143515   2.571   5.488   3.980
14524TIP3    H243516   2.536   5.374   3.886
14525TIP3   OH243517   1.829   5.874   2.689
14525TIP3    H143518   1.871   5.858   2.604
14525TIP3    H243519   1.857   5.962   2.713
14526TIP3   OH243520   3.479   4.381   6.444
14526TIP3    H143521   3.412   4.432   6.489
14526TIP3    H243522   3.532   4.446   6.398
14527TIP3   OH243523   5.198   4.448   3.969
14527TIP3    H143524   5.192   4.391   3.892
14527TIP3    H243525   5.138   4.409   4.032
14528TIP3   OH243526   1.193   5.340   4.415
14528TIP3    H143527   1.212   5.350   4.322
14528TIP3    H243528   1.241   5.261   4.441
14529TIP3   OH243529   4.620   1.610   5.051
14529TIP3    H143530   4.691   1.643   5.106
14529TIP3    H243531   4.600   1.683   4.991
14530TIP3   OH243532   2.359   5.125   4.572
14530TIP3    H143533   2.385   5.215   4.593
14530TIP3    H243534   2.411   5.070   4.631
14531TIP3   OH243535   6.005   5.104   5.102
14531TIP3    H143536   6.054   5.102   5.184
14531TIP3    H243537   6.015   5.193   5.070
14532TIP3   OH243538   0.886   6.641   3.465
14532TIP3    H143539   0.814   6.580   3.480
14532TIP3    H243540   0.964   6.585   3.461
14533TIP3   OH243541   3.346   5.918   2.902
14533TIP3    H143542   3.332   5.874   2.986
14533TIP3    H243543   3.413   5.984   2.921
14534TIP3   OH243544   3.154   2.597   1.980
14534TIP3    H143545   3.132   2.611   2.072
14534TIP3    H243546   3.139   2.681   1.938
14535TIP3   OH243547   6.726   7.731   2.902
14535TIP3    H143548   6.633   7.722   2.879
14535TIP3    H243549   6.754   7.642   2.924
14536TIP3   OH243550   7.632   1.303   5.954
14536TIP3    H143551   7.654   1.326   6.045
14536TIP3    H243552   7.620   1.387   5.910
14537TIP3   OH243553   2.157   0.434   3.369
14537TIP3    H143554   2.240   0.387   3.378
14537TIP3    H243555   2.098   0.391   3.431
14538TIP3   OH243556   4.785   5.485   1.686
14538TIP3    H143557   4.724   5.545   1.728
14538TIP3    H243558   4.831   5.538   1.621
14539TIP3   OH243559   1.724   2.140   0.975
14539TIP3    H143560   1.675   2.179   0.903
14539TIP3    H243561   1.811   2.123   0.939
14540TIP3   OH243562   5.179   2.925   1.259
14540TIP3    H143563   5.239   2.945   1.331
14540TIP3    H243564   5.183   3.002   1.202
14541TIP3   OH243565   1.330   1.756   4.446
14541TIP3    H143566   1.250   1.740   4.396
14541TIP3    H243567   1.400   1.723   4.390
14542TIP3   OH243568   4.076   3.460   2.571
14542TIP3    H143569   4.127   3.531   2.533
14542TIP3    H243570   4.003   3.504   2.615
14543TIP3   OH243571   3.362   4.877   5.689
14543TIP3    H143572   3.372   4.790   5.650
14543TIP3    H243573   3.401   4.936   5.625
14544TIP3   OH243574   7.024   5.782   5.243
14544TIP3    H143575   7.002   5.696   5.279
14544TIP3    H243576   7.039   5.765   5.150
14545TIP3   OH243577   3.689   5.501   1.655
14545TIP3    H143578   3.684   5.450   1.736
14545TIP3    H243579   3.598   5.524   1.635
14546TIP3   OH243580   2.336   2.138   5.191
14546TIP3    H143581   2.379   2.223   5.197
14546TIP3    H243582   2.243   2.157   5.206
14547TIP3   OH243583   5.782   0.659   0.758
14547TIP3    H143584   5.816   0.574   0.784
14547TIP3    H243585   5.714   0.678   0.823
14548TIP3   OH243586   3.405   5.849   2.387
14548TIP3    H143587   3.422   5.866   2.480
14548TIP3    H243588   3.396   5.754   2.382
14549TIP3   OH243589   6.260   4.149   4.066
14549TIP3    H143590   6.213   4.163   3.985
14549TIP3    H243591   6.288   4.057   4.064
14550TIP3   OH243592   5.382   5.994   3.814
14550TIP3    H143593   5.298   6.006   3.770
14550TIP3    H243594   5.377   6.050   3.891
14551TIP3   OH243595   6.157   3.064   6.534
14551TIP3    H143596   6.238   3.100   6.498
14551TIP3    H243597   6.091   3.130   6.514
14552TIP3   OH243598   2.854   4.365   2.041
14552TIP3    H143599   2.857   4.394   1.949
14552TIP3    H243600   2.878   4.273   2.038
14553TIP3   OH243601   4.125   7.071   6.572
14553TIP3    H143602   4.183   7.057   6.497
14553TIP3    H243603   4.150   7.004   6.635
14554TIP3   OH243604   5.792   4.728   0.765
14554TIP3    H143605   5.802   4.791   0.836
14554TIP3    H243606   5.848   4.654   0.790
14555TIP3   OH243607   2.244   7.233   5.964
14555TIP3    H143608   2.216   7.185   5.886
14555TIP3    H243609   2.250   7.324   5.935
14556TIP3   OH243610   4.446   1.979   5.392
14556TIP3    H143611   4.460   2.053   5.451
14556TIP3    H243612   4.358   1.948   5.412
14557TIP3   OH243613   0.824   2.863   3.977
14557TIP3    H143614   0.729   2.874   3.983
14557TIP3    H243615   0.838   2.768   3.985
14558TIP3   OH243616   0.332   7.014   3.619
14558TIP3    H143617   0.306   7.052   3.703
14558TIP3    H243618   0.352   6.923   3.640
14559TIP3   OH243619   3.334   3.247   2.374
14559TIP3    H143620   3.337   3.252   2.279
14559TIP3    H243621   3.328   3.338   2.403
14560TIP3   OH243622   3.301   6.804   6.205
14560TIP3    H143623   3.220   6.771   6.167
14560TIP3    H243624   3.335   6.866   6.141
14561TIP3   OH243625   3.834   5.664   4.276
14561TIP3    H143626   3.741   5.648   4.268
14561TIP3    H243627   3.876   5.591   4.230
14562TIP3   OH243628   1.638   5.490   2.393
14562TIP3    H143629   1.561   5.546   2.398
14562TIP3    H243630   1.690   5.512   2.471
14563TIP3   OH243631   2.899   2.544   1.528
14563TIP3    H143632   2.984   2.521   1.567
14563TIP3    H243633   2.868   2.618   1.580
14564TIP3   OH243634   8.232   3.842   1.707
14564TIP3    H143635   8.158   3.830   1.647
14564TIP3    H243636   8.226   3.934   1.734
14565TIP3   OH243637   0.064   7.638   6.444
14565TIP3    H143638   0.007   7.668   6.515
14565TIP3    H243639   0.138   7.699   6.445
14566TIP3   OH243640   1.053   1.005   1.112
14566TIP3    H143641   0.994   0.935   1.138
14566TIP3    H243642   1.126   1.001   1.174
14567TIP3   OH243643   7.401   2.944   4.163
14567TIP3    H143644   7.477   2.924   4.217
14567TIP3    H243645   7.437   2.950   4.074
14568TIP3   OH243646   3.787   3.140   3.297
14568TIP3    H143647   3.856   3.098   3.348
14568TIP3    H243648   3.804   3.111   3.207
14569TIP3   OH243649   4.467   6.380   0.805
14569TIP3    H143650   4.459   6.371   0.900
14569TIP3    H243651   4.490   6.472   0.791
14570TIP3   OH243652   0.169   7.475   6.020
14570TIP3    H143653   0.139   7.428   5.943
14570TIP3    H243654   0.172   7.409   6.090
14571TIP3   OH243655   6.022   5.846   6.223
14571TIP3    H143656   6.095   5.840   6.285
14571TIP3    H243657   5.954   5.791   6.261
14572TIP3   OH243658   4.527   3.485   5.778
14572TIP3    H143659   4.455   3.487   5.841
14572TIP3    H243660   4.604   3.511   5.829
14573TIP3   OH243661   4.215   1.394   2.698
14573TIP3    H143662   4.262   1.389   2.782
14573TIP3    H243663   4.245   1.317   2.649
14574TIP3   OH243664   1.180   5.508   4.902
14574TIP3    H143665   1.204   5.514   4.809
14574TIP3    H243666   1.115   5.437   4.905
14575TIP3   OH243667   5.806   7.174   6.612
14575TIP3    H143668   5.852   7.112   6.556
14575TIP3    H243669   5.724   7.130   6.636
14576TIP3   OH243670   4.132   3.479   5.005
14576TIP3    H143671   4.069   3.538   4.964
14576TIP3    H243672   4.131   3.504   5.097
14577TIP3   OH243673   6.603   0.098   6.591
14577TIP3    H143674   6.557   0.060   6.516
14577TIP3    H243675   6.686   0.129   6.554
14578TIP3   OH243676   7.665   6.608   6.688
14578TIP3    H143677   7.698   6.539   6.630
14578TIP3    H243678   7.743   6.644   6.729
14579TIP3   OH243679   1.101   4.848   5.683
14579TIP3    H143680   1.014   4.818   5.707
14579TIP3    H243681   1.097   4.943   5.693
14580TIP3   OH243682   5.089   3.704   1.653
14580TIP3    H143683   5.153   3.690   1.582
14580TIP3    H243684   5.121   3.781   1.699
14581TIP3   OH243685   8.209   0.720   3.597
14581TIP3    H143686   8.192   0.652   3.662
14581TIP3    H243687   8.189   0.802   3.642
14582TIP3   OH243688   6.306   7.073   5.472
14582TIP3    H143689   6.344   6.995   5.432
14582TIP3    H243690   6.314   7.141   5.404
14583TIP3   OH243691   3.350   2.693   3.276
14583TIP3    H143692   3.337   2.742   3.357
14583TIP3    H243693   3.444   2.683   3.268
14584TIP3   OH243694   8.161   2.871   6.434
14584TIP3    H143695   8.117   2.880   6.350
14584TIP3    H243696   8.143   2.953   6.480
14585TIP3   OH243697   5.601   3.294   6.345
14585TIP3    H143698   5.523   3.307   6.292
14585TIP3    H243699   5.616   3.378   6.387
14586TIP3   OH243700   1.471   3.596   5.970
14586TIP3    H143701   1.400   3.549   5.928
14586TIP3    H243702   1.435   3.683   5.988
14587TIP3   OH243703   5.381   7.760   3.771
14587TIP3    H143704   5.443   7.726   3.835
14587TIP3    H243705   5.340   7.682   3.733
14588TIP3   OH243706   6.616   6.804   2.561
14588TIP3    H143707   6.565   6.848   2.629
14588TIP3    H243708   6.596   6.711   2.571
14589TIP3   OH243709   1.459   5.202   4.234
14589TIP3    H143710   1.387   5.257   4.204
14589TIP3    H243711   1.524   5.207   4.164
14590TIP3   OH243712   4.883   0.090   2.655
14590TIP3    H143713   4.916   0.003   2.680
14590TIP3    H243714   4.951   0.126   2.599
14591TIP3   OH243715   3.217   6.474   0.859
14591TIP3    H143716   3.222   6.566   0.832
14591TIP3    H243717   3.300   6.458   0.903
14592TIP3   OH243718   7.036   3.358   5.632
14592TIP3    H143719   6.964   3.308   5.670
14592TIP3    H243720   7.114   3.326   5.678
14593TIP3   OH243721   1.686   7.557   5.455
14593TIP3    H143722   1.618   7.494   5.479
14593TIP3    H243723   1.750   7.506   5.406
14594TIP3   OH243724   5.969   7.156   2.087
14594TIP3    H143725   5.964   7.222   2.156
14594TIP3    H243726   5.893   7.100   2.102
14595TIP3   OH243727   1.728   0.533   6.496
14595TIP3    H143728   1.812   0.507   6.534
14595TIP3    H243729   1.732   0.503   6.405
14596TIP3   OH243730   5.361   0.581   1.186
14596TIP3    H143731   5.407   0.549   1.109
14596TIP3    H243732   5.375   0.514   1.253
14597TIP3   OH243733   5.284   6.414   4.635
14597TIP3    H143734   5.221   6.371   4.577
14597TIP3    H243735   5.231   6.466   4.695
14598TIP3   OH243736   2.779   6.283   0.267
14598TIP3    H143737   2.826   6.365   0.280
14598TIP3    H243738   2.687   6.307   0.273
14599TIP3   OH243739   8.053   6.841   1.796
14599TIP3    H143740   7.960   6.835   1.777
14599TIP3    H243741   8.095   6.847   1.710
14600TIP3   OH243742   6.454   0.709   4.754
14600TIP3    H143743   6.545   0.729   4.773
14600TIP3    H243744   6.450   0.703   4.658
14601TIP3   OH243745   3.867   7.683   3.743
14601TIP3    H143746   3.957   7.650   3.746
14601TIP3    H243747   3.832   7.666   3.831
14602TIP3   OH243748   1.509   6.608   6.467
14602TIP3    H143749   1.433   6.563   6.431
14602TIP3    H243750   1.580   6.588   6.406
14603TIP3   OH243751   0.858   3.032   4.824
14603TIP3    H143752   0.914   2.963   4.860
14603TIP3    H243753   0.780   2.986   4.793
14604TIP3   OH243754   7.785   2.640   5.699
14604TIP3    H143755   7.733   2.702   5.751
14604TIP3    H243756   7.822   2.693   5.629
14605TIP3   OH243757   6.204   5.151   5.349
14605TIP3    H143758   6.269   5.100   5.302
14605TIP3    H243759   6.184   5.099   5.427
14606TIP3   OH243760   3.848   3.230   5.701
14606TIP3    H143761   3.910   3.158   5.704
14606TIP3    H243762   3.797   3.216   5.621
14607TIP3   OH243763   5.718   0.355   4.856
14607TIP3    H143764   5.623   0.345   4.851
14607TIP3    H243765   5.744   0.292   4.923
14608TIP3   OH243766   4.727   3.110   4.101
14608TIP3    H143767   4.768   3.053   4.036
14608TIP3    H243768   4.798   3.132   4.162
14609TIP3   OH243769   5.244   2.075   1.128
14609TIP3    H143770   5.233   2.142   1.061
14609TIP3    H243771   5.331   2.091   1.164
14610TIP3   OH243772   2.007   3.898   0.786
14610TIP3    H143773   1.988   3.851   0.704
14610TIP3    H243774   1.961   3.847   0.853
14611TIP3   OH243775   3.116   4.761   6.640
14611TIP3    H143776   3.179   4.809   6.693
14611TIP3    H243777   3.031   4.785   6.676
14612TIP3   OH243778   5.252   0.152   6.083
14612TIP3    H143779   5.315   0.174   6.152
14612TIP3    H243780   5.276   0.208   6.010
14613TIP3   OH243781   5.104   6.935   5.945
14613TIP3    H143782   5.014   6.910   5.922
14613TIP3    H243783   5.124   7.006   5.884
14614TIP3   OH243784   1.489   2.823   2.526
14614TIP3    H143785   1.524   2.911   2.536
14614TIP3    H243786   1.532   2.789   2.448
14615TIP3   OH243787   3.161   5.101   3.620
14615TIP3    H143788   3.109   5.149   3.555
14615TIP3    H243789   3.251   5.130   3.605
14616TIP3   OH243790   6.342   7.501   3.628
14616TIP3    H143791   6.334   7.464   3.540
14616TIP3    H243792   6.295   7.585   3.622
14617TIP3   OH243793   5.600   1.907   1.138
14617TIP3    H143794   5.565   1.922   1.226
14617TIP3    H243795   5.528   1.863   1.092
14618TIP3   OH243796   3.011   0.212   1.201
14618TIP3    H143797   3.075   0.196   1.131
14618TIP3    H243798   2.967   0.293   1.175
14619TIP3   OH243799   3.711   0.146   2.988
14619TIP3    H143800   3.753   0.231   2.998
14619TIP3    H243801   3.732   0.099   3.068
14620TIP3   OH243802   0.295   1.617   1.402
14620TIP3    H143803   0.334   1.532   1.426
14620TIP3    H243804   0.369   1.678   1.406
14621TIP3   OH243805   2.177   0.930   5.291
14621TIP3    H143806   2.095   0.979   5.300
14621TIP3    H243807   2.225   0.977   5.222
14622TIP3   OH243808   7.325   4.521   5.068
14622TIP3    H143809   7.288   4.490   5.151
14622TIP3    H243810   7.404   4.469   5.056
14623TIP3   OH243811   3.812   2.601   5.549
14623TIP3    H143812   3.799   2.617   5.455
14623TIP3    H243813   3.881   2.535   5.553
14624TIP3   OH243814   1.420   1.169   0.107
14624TIP3    H143815   1.472   1.122   0.042
14624TIP3    H243816   1.485   1.204   0.169
14625TIP3   OH243817   1.245   5.466   3.823
14625TIP3    H143818   1.228   5.470   3.729
14625TIP3    H243819   1.165   5.498   3.865
14626TIP3   OH243820   7.598   6.639   5.734
14626TIP3    H143821   7.586   6.609   5.644
14626TIP3    H243822   7.631   6.562   5.780
14627TIP3   OH243823   1.690   6.822   4.096
14627TIP3    H143824   1.777   6.786   4.111
14627TIP3    H243825   1.706   6.909   4.060
14628TIP3   OH243826   3.425   1.998   1.323
14628TIP3    H143827   3.341   2.037   1.347
14628TIP3    H243828   3.477   2.072   1.291
14629TIP3   OH243829   1.844   4.208   6.625
14629TIP3    H143830   1.910   4.155   6.669
14629TIP3    H243831   1.834   4.169   6.539
14630TIP3   OH243832   0.946   6.715   0.536
14630TIP3    H143833   0.867   6.660   0.538
14630TIP3    H243834   0.913   6.804   0.543
14631TIP3   OH243835   2.059   0.090   0.918
14631TIP3    H143836   2.150   0.080   0.946
14631TIP3    H243837   2.039   0.007   0.874
14632TIP3   OH243838   2.286   7.050   1.240
14632TIP3    H143839   2.277   7.120   1.306
14632TIP3    H243840   2.202   7.049   1.195
14633TIP3   OH243841   0.399   5.953   6.442
14633TIP3    H143842   0.313   5.923   6.472
14633TIP3    H243843   0.383   6.040   6.406
14634TIP3   OH243844   0.216   4.951   1.478
14634TIP3    H143845   0.274   4.911   1.414
14634TIP3    H243846   0.258   5.034   1.500
14635TIP3   OH243847   2.935   3.607   2.917
14635TIP3    H143848   2.999   3.547   2.956
14635TIP3    H243849   2.918   3.570   2.830
14636TIP3   OH243850   7.329   3.531   6.120
14636TIP3    H143851   7.284   3.449   6.097
14636TIP3    H243852   7.274   3.570   6.188
14637TIP3   OH243853   1.515   2.132   4.357
14637TIP3    H143854   1.595   2.100   4.399
14637TIP3    H243855   1.458   2.055   4.351
14638TIP3   OH243856   4.276   5.683   1.940
14638TIP3    H143857   4.287   5.736   2.019
14638TIP3    H243858   4.268   5.747   1.869
14639TIP3   OH243859   7.592   5.398   2.308
14639TIP3    H143860   7.583   5.470   2.370
14639TIP3    H243861   7.502   5.379   2.280
14640TIP3   OH243862   6.722   3.338   3.933
14640TIP3    H143863   6.702   3.250   3.964
14640TIP3    H243864   6.772   3.378   4.004
14641TIP3   OH243865   1.515   7.260   3.367
14641TIP3    H143866   1.523   7.174   3.408
14641TIP3    H243867   1.500   7.241   3.274
14642TIP3   OH243868   1.442   2.004   0.838
14642TIP3    H143869   1.412   2.056   0.913
14642TIP3    H243870   1.362   1.972   0.798
14643TIP3   OH243871   1.941   0.620   1.379
14643TIP3    H143872   2.013   0.642   1.321
14643TIP3    H243873   1.980   0.563   1.446
14644TIP3   OH243874   2.853   2.221   0.360
14644TIP3    H143875   2.769   2.180   0.383
14644TIP3    H243876   2.918   2.153   0.377
14645TIP3   OH243877   1.107   6.403   6.311
14645TIP3    H143878   1.123   6.497   6.302
14645TIP3    H243879   1.181   6.361   6.267
14646TIP3   OH243880   6.635   2.020   3.889
14646TIP3    H143881   6.664   1.947   3.834
14646TIP3    H243882   6.656   2.098   3.838
14647TIP3   OH243883   4.252   1.252   4.889
14647TIP3    H143884   4.266   1.271   4.982
14647TIP3    H243885   4.328   1.200   4.864
14648TIP3   OH243886   6.557   2.467   2.024
14648TIP3    H143887   6.633   2.516   2.055
14648TIP3    H243888   6.593   2.403   1.963
14649TIP3   OH243889   1.427   0.718   6.441
14649TIP3    H143890   1.388   0.633   6.420
14649TIP3    H243891   1.354   0.780   6.436
14650TIP3   OH243892   4.783   0.150   5.631
14650TIP3    H143893   4.723   0.077   5.618
14650TIP3    H243894   4.776   0.202   5.551
14651TIP3   OH243895   4.568   4.074   2.342
14651TIP3    H143896   4.637   4.064   2.277
14651TIP3    H243897   4.500   4.013   2.316
14652TIP3   OH243898   5.910   3.914   3.035
14652TIP3    H143899   5.951   3.998   3.056
14652TIP3    H243900   5.847   3.934   2.966
14653TIP3   OH243901   5.093   0.702   6.332
14653TIP3    H143902   5.182   0.737   6.331
14653TIP3    H243903   5.088   0.653   6.414
14654TIP3   OH243904   6.981   2.141   6.364
14654TIP3    H143905   6.916   2.090   6.412
14654TIP3    H243906   7.005   2.085   6.290
14655TIP3   OH243907   6.124   0.894   1.328
14655TIP3    H143908   6.039   0.907   1.287
14655TIP3    H243909   6.122   0.951   1.405
14656TIP3   OH243910   4.334   1.399   3.235
14656TIP3    H143911   4.318   1.309   3.263
14656TIP3    H243912   4.354   1.445   3.316
14657TIP3   OH243913   0.969   0.898   4.468
14657TIP3    H143914   1.060   0.892   4.437
14657TIP3    H243915   0.936   0.809   4.460
14658TIP3   OH243916   5.558   5.068   5.949
14658TIP3    H143917   5.525   5.048   6.037
14658TIP3    H243918   5.485   5.048   5.891
14659TIP3   OH243919   2.507   5.330   3.510
14659TIP3    H143920   2.494   5.239   3.485
14659TIP3    H243921   2.418   5.365   3.522
14660TIP3   OH243922   6.082   1.414   0.936
14660TIP3    H143923   6.116   1.481   0.876
14660TIP3    H243924   6.142   1.417   1.011
14661TIP3   OH243925   1.456   1.976   2.107
14661TIP3    H143926   1.539   1.997   2.064
14661TIP3    H243927   1.410   2.060   2.112
14662TIP3   OH243928   2.916   4.989   2.643
14662TIP3    H143929   2.992   4.995   2.585
14662TIP3    H243930   2.915   4.898   2.673
14663TIP3   OH243931   8.199   5.208   0.628
14663TIP3    H143932   8.289   5.232   0.649
14663TIP3    H243933   8.201   5.187   0.535
14664TIP3   OH243934   5.331   4.732   4.771
14664TIP3    H143935   5.307   4.670   4.702
14664TIP3    H243936   5.379   4.679   4.835
14665TIP3   OH243937   7.120   7.550   1.776
14665TIP3    H143938   7.097   7.475   1.831
14665TIP3    H243939   7.214   7.563   1.791
14666TIP3   OH243940   0.833   3.808   2.228
14666TIP3    H143941   0.927   3.808   2.212
14666TIP3    H243942   0.819   3.879   2.290
14667TIP3   OH243943   0.593   3.712  -0.057
14667TIP3    H143944   0.679   3.672  -0.051
14667TIP3    H243945   0.561   3.714   0.033
14668TIP3   OH243946   1.222   6.762   3.597
14668TIP3    H143947   1.270   6.763   3.680
14668TIP3    H243948   1.195   6.671   3.586
14669TIP3   OH243949   3.899   6.969   6.045
14669TIP3    H143950   3.944   7.014   5.974
14669TIP3    H243951   3.936   6.880   6.045
14670TIP3   OH243952   4.333   2.096   4.170
14670TIP3    H143953   4.340   2.118   4.263
14670TIP3    H243954   4.401   2.150   4.128
14671TIP3   OH243955   5.339   6.224   5.646
14671TIP3    H143956   5.415   6.240   5.702
14671TIP3    H243957   5.376   6.199   5.562
14672TIP3   OH243958   3.412   0.632   4.885
14672TIP3    H143959   3.358   0.558   4.857
14672TIP3    H243960   3.498   0.594   4.901
14673TIP3   OH243961   7.503   6.801   6.760
14673TIP3    H143962   7.417   6.760   6.769
14673TIP3    H243963   7.561   6.731   6.730
14674TIP3   OH243964   4.673   5.475   2.754
14674TIP3    H143965   4.665   5.557   2.705
14674TIP3    H243966   4.757   5.437   2.725
14675TIP3   OH243967   4.162   4.891   2.733
14675TIP3    H143968   4.238   4.842   2.701
14675TIP3    H243969   4.106   4.902   2.655
14676TIP3   OH243970   4.019   7.250   2.103
14676TIP3    H143971   4.016   7.285   2.192
14676TIP3    H243972   4.026   7.327   2.047
14677TIP3   OH243973   3.085   0.092   0.103
14677TIP3    H143974   3.069   0.028   0.034
14677TIP3    H243975   3.062   0.046   0.184
14678TIP3   OH243976   8.064   2.017   6.622
14678TIP3    H143977   8.144   1.976   6.656
14678TIP3    H243978   8.030   1.955   6.558
14679TIP3   OH243979   6.412   3.129   6.455
14679TIP3    H143980   6.411   3.044   6.498
14679TIP3    H243981   6.500   3.162   6.470
14680TIP3   OH243982   3.117   2.442   6.646
14680TIP3    H143983   3.157   2.528   6.655
14680TIP3    H243984   3.038   2.457   6.594
14681TIP3   OH243985   0.073   5.855   1.118
14681TIP3    H143986   0.097   5.777   1.168
14681TIP3    H243987  -0.021   5.844   1.101
14682TIP3   OH243988   8.060   1.211   4.723
14682TIP3    H143989   8.004   1.281   4.756
14682TIP3    H243990   8.101   1.248   4.644
14683TIP3   OH243991   6.878   7.348   5.102
14683TIP3    H143992   6.949   7.395   5.059
14683TIP3    H243993   6.880   7.260   5.065
14684TIP3   OH243994   4.369   3.318   5.659
14684TIP3    H143995   4.373   3.223   5.673
14684TIP3    H243996   4.418   3.355   5.733
14685TIP3   OH243997   3.283   2.463   3.761
14685TIP3    H143998   3.260   2.396   3.826
14685TIP3    H243999   3.223   2.448   3.688
14686TIP3   OH244000   7.141   3.878   2.260
14686TIP3    H144001   7.065   3.835   2.223
14686TIP3    H244002   7.147   3.846   2.350
14687TIP3   OH244003   0.443   4.920   2.523
14687TIP3    H144004   0.455   5.007   2.562
14687TIP3    H244005   0.349   4.910   2.512
14688TIP3   OH244006   0.912   1.570   5.584
14688TIP3    H144007   0.982   1.633   5.600
14688TIP3    H244008   0.915   1.552   5.490
14689TIP3   OH244009   8.183   2.637   1.495
14689TIP3    H144010   8.090   2.625   1.515
14689TIP3    H244011   8.215   2.549   1.475
14690TIP3   OH244012   0.509   5.967   2.418
14690TIP3    H144013   0.582   5.922   2.461
14690TIP3    H244014   0.457   6.003   2.489
14691TIP3   OH244015   1.967   2.452   3.645
14691TIP3    H144016   1.966   2.547   3.659
14691TIP3    H244017   1.876   2.425   3.651
14692TIP3   OH244018   6.450   1.155   1.112
14692TIP3    H144019   6.357   1.140   1.127
14692TIP3    H244020   6.469   1.113   1.028
14693TIP3   OH244021   4.713   6.480   6.323
14693TIP3    H144022   4.626   6.445   6.301
14693TIP3    H244023   4.753   6.411   6.376
14694TIP3   OH244024   7.122   1.180   1.269
14694TIP3    H144025   7.036   1.181   1.228
14694TIP3    H244026   7.184   1.172   1.196
14695TIP3   OH244027   0.126   3.382   6.067
14695TIP3    H144028   0.060   3.418   6.126
14695TIP3    H244029   0.119   3.436   5.988
14696TIP3   OH244030   3.267   7.361   2.255
14696TIP3    H144031   3.306   7.357   2.168
14696TIP3    H244032   3.314   7.431   2.299
14697TIP3   OH244033   0.533   5.708   5.381
14697TIP3    H144034   0.486   5.783   5.417
14697TIP3    H244035   0.625   5.725   5.404
14698TIP3   OH244036   2.004   2.392   5.488
14698TIP3    H144037   2.008   2.472   5.437
14698TIP3    H244038   2.086   2.347   5.470
14699TIP3   OH244039   0.788   6.015   2.204
14699TIP3    H144040   0.698   6.045   2.190
14699TIP3    H244041   0.785   5.921   2.186
14700TIP3   OH244042   0.819   6.320   2.120
14700TIP3    H144043   0.884   6.354   2.059
14700TIP3    H244044   0.870   6.282   2.192
14701TIP3   OH244045   6.838   3.258   3.382
14701TIP3    H144046   6.755   3.298   3.355
14701TIP3    H244047   6.820   3.221   3.469
14702TIP3   OH244048   0.104   5.247   5.322
14702TIP3    H144049   0.121   5.308   5.393
14702TIP3    H244050   0.009   5.246   5.313
14703TIP3   OH244051   3.043   4.542   1.727
14703TIP3    H144052   2.978   4.600   1.765
14703TIP3    H244053   3.124   4.562   1.775
14704TIP3   OH244054   2.677   0.819   2.917
14704TIP3    H144055   2.733   0.855   2.986
14704TIP3    H244056   2.588   0.827   2.952
14705TIP3   OH244057   5.180   5.916   3.439
14705TIP3    H144058   5.177   5.825   3.467
14705TIP3    H244059   5.152   5.914   3.347
14706TIP3   OH244060   6.989   4.824   5.916
14706TIP3    H144061   6.946   4.877   5.983
14706TIP3    H244062   6.959   4.735   5.933
14707TIP3   OH244063   1.224   3.138   2.661
14707TIP3    H144064   1.319   3.153   2.661
14707TIP3    H244065   1.199   3.143   2.753
14708TIP3   OH244066   7.342   0.704   2.031
14708TIP3    H144067   7.376   0.736   2.115
14708TIP3    H244068   7.263   0.756   2.016
14709TIP3   OH244069   6.219   3.713   1.134
14709TIP3    H144070   6.270   3.685   1.210
14709TIP3    H244071   6.248   3.803   1.118
14710TIP3   OH244072   6.220   5.174   4.066
14710TIP3    H144073   6.263   5.104   4.018
14710TIP3    H244074   6.292   5.227   4.101
14711TIP3   OH244075   3.963   2.398   5.624
14711TIP3    H144076   3.874   2.382   5.655
14711TIP3    H244077   4.007   2.313   5.630
14712TIP3   OH244078   1.608   2.350   0.281
14712TIP3    H144079   1.519   2.369   0.310
14712TIP3    H244080   1.597   2.303   0.198
14713TIP3   OH244081   0.890   1.118   2.495
14713TIP3    H144082   0.816   1.171   2.524
14713TIP3    H244083   0.957   1.132   2.562
14714TIP3   OH244084   2.378   1.539   3.820
14714TIP3    H144085   2.339   1.559   3.735
14714TIP3    H244086   2.370   1.444   3.829
14715TIP3   OH244087   7.052   7.441   6.170
14715TIP3    H144088   7.039   7.435   6.265
14715TIP3    H244089   7.027   7.531   6.148
14716TIP3   OH244090   3.426   6.872   2.910
14716TIP3    H144091   3.385   6.946   2.954
14716TIP3    H244092   3.353   6.818   2.879
14717TIP3   OH244093   4.933   1.837   5.682
14717TIP3    H144094   4.996   1.875   5.621
14717TIP3    H244095   4.899   1.760   5.637
14718TIP3   OH244096   3.164   7.547   0.715
14718TIP3    H144097   3.127   7.515   0.632
14718TIP3    H244098   3.088   7.557   0.772
14719TIP3   OH244099   5.595   3.057   2.768
14719TIP3    H144100   5.628   3.146   2.781
14719TIP3    H244101   5.548   3.038   2.849
14720TIP3   OH244102   2.388   5.527   0.082
14720TIP3    H144103   2.467   5.523   0.136
14720TIP3    H244104   2.351   5.613   0.101
14721TIP3   OH244105   7.317   7.083   1.126
14721TIP3    H144106   7.314   7.113   1.036
14721TIP3    H244107   7.312   6.987   1.120
14722TIP3   OH244108   7.265   0.851   1.313
14722TIP3    H144109   7.244   0.861   1.406
14722TIP3    H244110   7.250   0.758   1.296
14723TIP3   OH244111   4.837   3.826   2.940
14723TIP3    H144112   4.747   3.841   2.970
14723TIP3    H244113   4.830   3.756   2.876
14724TIP3   OH244114   4.925   2.091   3.089
14724TIP3    H144115   5.013   2.095   3.125
14724TIP3    H244116   4.873   2.047   3.157
14725TIP3   OH244117   2.972   0.347   4.427
14725TIP3    H144118   2.879   0.358   4.405
14725TIP3    H244119   2.972   0.282   4.498
14726TIP3   OH244120   2.171   5.271   6.347
14726TIP3    H144121   2.134   5.250   6.261
14726TIP3    H244122   2.163   5.190   6.397
14727TIP3   OH244123   6.277   2.269   0.006
14727TIP3    H144124   6.341   2.234   0.068
14727TIP3    H244125   6.230   2.192  -0.026
14728TIP3   OH244126   3.905   0.834   4.258
14728TIP3    H144127   3.872   0.908   4.309
14728TIP3    H244128   3.976   0.871   4.205
14729TIP3   OH244129   4.572   0.737   1.239
14729TIP3    H144130   4.640   0.674   1.215
14729TIP3    H244131   4.612   0.822   1.224
14730TIP3   OH244132   5.639   2.763   0.064
14730TIP3    H144133   5.602   2.716  -0.011
14730TIP3    H244134   5.720   2.802   0.031
14731TIP3   OH244135   0.550   6.041   4.714
14731TIP3    H144136   0.534   5.995   4.631
14731TIP3    H244137   0.465   6.077   4.738
14732TIP3   OH244138   3.533   7.799   4.650
14732TIP3    H144139   3.446   7.795   4.610
14732TIP3    H244140   3.521   7.762   4.737
14733TIP3   OH244141   4.678   0.054   0.395
14733TIP3    H144142   4.653   0.105   0.318
14733TIP3    H244143   4.683  -0.036   0.363
14734TIP3   OH244144   1.683   3.325   1.750
14734TIP3    H144145   1.676   3.421   1.746
14734TIP3    H244146   1.624   3.300   1.821
14735TIP3   OH244147   5.832   6.373   0.194
14735TIP3    H144148   5.908   6.359   0.250
14735TIP3    H244149   5.867   6.366   0.105
14736TIP3   OH244150   3.750   5.424   5.315
14736TIP3    H144151   3.769   5.517   5.300
14736TIP3    H244152   3.779   5.381   5.234
14737TIP3   OH244153   2.139   6.915   3.060
14737TIP3    H144154   2.073   6.874   3.116
14737TIP3    H244155   2.089   6.975   3.004
14738TIP3   OH244156   2.171   2.595   6.336
14738TIP3    H144157   2.241   2.650   6.371
14738TIP3    H244158   2.215   2.514   6.309
14739TIP3   OH244159   4.145   3.691   2.433
14739TIP3    H144160   4.121   3.755   2.365
14739TIP3    H244161   4.111   3.728   2.514
14740TIP3   OH244162   5.573   2.678   6.272
14740TIP3    H144163   5.580   2.754   6.329
14740TIP3    H244164   5.481   2.676   6.245
14741TIP3   OH244165   0.364   4.848   5.913
14741TIP3    H144166   0.314   4.929   5.916
14741TIP3    H244167   0.301   4.780   5.939
14742TIP3   OH244168   2.579   2.953   1.744
14742TIP3    H144169   2.520   2.901   1.689
14742TIP3    H244170   2.558   2.925   1.834
14743TIP3   OH244171   3.277   2.882   2.228
14743TIP3    H144172   3.365   2.904   2.259
14743TIP3    H244173   3.275   2.787   2.225
14744TIP3   OH244174   3.004   0.539   6.777
14744TIP3    H144175   2.961   0.489   6.847
14744TIP3    H244176   2.931   0.578   6.728
14745TIP3   OH244177   0.927   0.071   1.880
14745TIP3    H144178   0.913   0.033   1.967
14745TIP3    H244179   0.940  -0.004   1.822
14746TIP3   OH244180   2.515   6.249   0.693
14746TIP3    H144181   2.523   6.154   0.702
14746TIP3    H244182   2.489   6.280   0.779
14747TIP3   OH244183   4.229   6.706   1.370
14747TIP3    H144184   4.242   6.621   1.412
14747TIP3    H244185   4.135   6.723   1.379
14748TIP3   OH244186   2.191   6.496   2.374
14748TIP3    H144187   2.286   6.481   2.368
14748TIP3    H244188   2.183   6.588   2.400
14749TIP3   OH244189   7.585   1.070   0.334
14749TIP3    H144190   7.579   0.984   0.291
14749TIP3    H244191   7.496   1.087   0.365
14750TIP3   OH244192   3.342   6.022   6.658
14750TIP3    H144193   3.294   6.088   6.708
14750TIP3    H244194   3.350   6.059   6.571
14751TIP3   OH244195   6.222   2.933   1.419
14751TIP3    H144196   6.150   2.964   1.475
14751TIP3    H244197   6.190   2.945   1.330
14752TIP3   OH244198   7.253   6.247   1.057
14752TIP3    H144199   7.269   6.291   1.140
14752TIP3    H244200   7.301   6.164   1.064
14753TIP3   OH244201   5.262   6.062   1.340
14753TIP3    H144202   5.224   5.994   1.395
14753TIP3    H244203   5.201   6.069   1.265
14754TIP3   OH244204   0.668   7.782   1.716
14754TIP3    H144205   0.579   7.747   1.705
14754TIP3    H244206   0.684   7.779   1.810
14755TIP3   OH244207   4.876   7.213   1.110
14755TIP3    H144208   4.809   7.276   1.137
14755TIP3    H244209   4.883   7.153   1.183
14756TIP3   OH244210   7.577   4.922   6.245
14756TIP3    H144211   7.577   4.952   6.336
14756TIP3    H244212   7.575   4.827   6.251
14757TIP3   OH244213   3.508   6.353   5.801
14757TIP3    H144214   3.593   6.340   5.843
14757TIP3    H244215   3.448   6.297   5.849
14758TIP3   OH244216   5.341   5.033   0.345
14758TIP3    H144217   5.335   5.125   0.320
14758TIP3    H244218   5.328   5.033   0.440
14759TIP3   OH244219   7.432   0.193   3.992
14759TIP3    H144220   7.408   0.213   3.901
14759TIP3    H244221   7.354   0.151   4.028
14760TIP3   OH244222   4.894   2.046   0.939
14760TIP3    H144223   4.848   2.096   0.872
14760TIP3    H244224   4.984   2.078   0.935
14761TIP3   OH244225   2.556   3.545   4.012
14761TIP3    H144226   2.597   3.504   4.088
14761TIP3    H244227   2.627   3.596   3.972
14762TIP3   OH244228   2.333   5.930   0.020
14762TIP3    H144229   2.348   5.917   0.114
14762TIP3    H244230   2.421   5.935  -0.017
14763TIP3   OH244231   4.625   3.875   5.306
14763TIP3    H144232   4.614   3.897   5.214
14763TIP3    H244233   4.579   3.792   5.316
14764TIP3   OH244234   1.062   4.688   2.376
14764TIP3    H144235   1.023   4.619   2.430
14764TIP3    H244236   1.102   4.640   2.303
14765TIP3   OH244237   5.813   1.540   5.435
14765TIP3    H144238   5.866   1.465   5.461
14765TIP3    H244239   5.862   1.581   5.363
14766TIP3   OH244240   3.359   7.077   0.727
14766TIP3    H144241   3.340   7.009   0.663
14766TIP3    H244242   3.299   7.149   0.704
14767TIP3   OH244243   3.129   3.487   0.193
14767TIP3    H144244   3.194   3.418   0.199
14767TIP3    H244245   3.046   3.445   0.219
14768TIP3   OH244246   7.748   1.960   3.668
14768TIP3    H144247   7.793   2.024   3.612
14768TIP3    H244248   7.660   1.995   3.678
14769TIP3   OH244249   6.690   3.196   2.913
14769TIP3    H144250   6.693   3.292   2.916
14769TIP3    H244251   6.773   3.168   2.952
14770TIP3   OH244252   3.222   6.129   2.769
14770TIP3    H144253   3.145   6.175   2.803
14770TIP3    H244254   3.276   6.111   2.845
14771TIP3   OH244255   5.177   6.845   2.192
14771TIP3    H144256   5.257   6.855   2.142
14771TIP3    H244257   5.192   6.895   2.273
14772TIP3   OH244258   5.949   4.191   3.635
14772TIP3    H144259   5.895   4.209   3.558
14772TIP3    H244260   5.996   4.273   3.651
14773TIP3   OH244261   5.478   2.644   4.985
14773TIP3    H144262   5.411   2.597   4.935
14773TIP3    H244263   5.561   2.606   4.956
14774TIP3   OH244264   5.911   0.379   1.825
14774TIP3    H144265   5.934   0.291   1.856
14774TIP3    H244266   5.964   0.438   1.879
14775TIP3   OH244267   3.593   5.606   3.479
14775TIP3    H144268   3.583   5.597   3.384
14775TIP3    H244269   3.686   5.628   3.491
14776TIP3   OH244270   1.015   1.272   1.169
14776TIP3    H144271   1.031   1.186   1.130
14776TIP3    H244272   1.086   1.327   1.135
14777TIP3   OH244273   1.716   4.372   4.569
14777TIP3    H144274   1.738   4.344   4.658
14777TIP3    H244275   1.719   4.467   4.573
14778TIP3   OH244276   4.394   0.030   4.910
14778TIP3    H144277   4.338  -0.004   4.980
14778TIP3    H244278   4.471  -0.028   4.911
14779TIP3   OH244279   3.740   6.345   4.321
14779TIP3    H144280   3.701   6.262   4.349
14779TIP3    H244281   3.676   6.411   4.347
14780TIP3   OH244282   2.818   4.348   1.331
14780TIP3    H144283   2.806   4.325   1.239
14780TIP3    H244284   2.848   4.267   1.372
14781TIP3   OH244285   4.507   4.156   4.172
14781TIP3    H144286   4.412   4.160   4.156
14781TIP3    H244287   4.516   4.101   4.249
14782TIP3   OH244288   6.123   7.332   3.242
14782TIP3    H144289   6.077   7.248   3.242
14782TIP3    H244290   6.146   7.346   3.150
14783TIP3   OH244291   0.625   3.789   4.041
14783TIP3    H144292   0.670   3.797   3.957
14783TIP3    H244293   0.695   3.785   4.106
14784TIP3   OH244294   4.266   0.797   1.248
14784TIP3    H144295   4.290   0.821   1.338
14784TIP3    H244296   4.335   0.836   1.194
14785TIP3   OH244297   4.074   3.634   5.792
14785TIP3    H144298   4.012   3.562   5.801
14785TIP3    H244299   4.144   3.614   5.855
14786TIP3   OH244300   1.991   2.103   0.907
14786TIP3    H144301   2.018   2.074   0.820
14786TIP3    H244302   1.983   2.022   0.958
14787TIP3   OH244303   4.624   5.390   3.018
14787TIP3    H144304   4.651   5.435   2.938
14787TIP3    H244305   4.637   5.454   3.088
14788TIP3   OH244306   0.141   7.104   0.448
14788TIP3    H144307   0.075   7.109   0.518
14788TIP3    H244308   0.225   7.098   0.495
14789TIP3   OH244309   5.369   3.158   1.833
14789TIP3    H144310   5.277   3.142   1.857
14789TIP3    H244311   5.369   3.162   1.738
14790TIP3   OH244312   1.973   0.077   5.429
14790TIP3    H144313   2.027   0.156   5.434
14790TIP3    H244314   1.952   0.056   5.520
14791TIP3   OH244315   7.547   5.072   3.329
14791TIP3    H144316   7.602   5.008   3.374
14791TIP3    H244317   7.608   5.126   3.279
14792TIP3   OH244318   4.428   4.748   4.168
14792TIP3    H144319   4.431   4.787   4.080
14792TIP3    H244320   4.337   4.760   4.196
14793TIP3   OH244321   6.638   3.740   2.241
14793TIP3    H144322   6.629   3.674   2.310
14793TIP3    H244323   6.566   3.721   2.181
14794TIP3   OH244324   4.185   0.399   0.113
14794TIP3    H144325   4.218   0.429   0.028
14794TIP3    H244326   4.148   0.477   0.154
14795TIP3   OH244327   6.699   4.574   4.476
14795TIP3    H144328   6.706   4.536   4.563
14795TIP3    H244329   6.695   4.668   4.491
14796TIP3   OH244330   4.063   3.918   6.655
14796TIP3    H144331   4.054   3.893   6.747
14796TIP3    H244332   4.141   3.871   6.625
14797TIP3   OH244333   3.981   2.545   1.154
14797TIP3    H144334   3.996   2.628   1.108
14797TIP3    H244335   4.065   2.527   1.197
14798TIP3   OH244336   4.235   7.496   2.948
14798TIP3    H144337   4.142   7.492   2.969
14798TIP3    H244338   4.249   7.423   2.887
14799TIP3   OH244339   8.318   1.405   0.728
14799TIP3    H144340   8.265   1.450   0.793
14799TIP3    H244341   8.390   1.465   0.709
14800TIP3   OH244342   4.718   6.706   5.642
14800TIP3    H144343   4.647   6.643   5.633
14800TIP3    H244344   4.785   6.659   5.692
14801TIP3   OH244345   6.504   7.431   1.847
14801TIP3    H144346   6.584   7.385   1.821
14801TIP3    H244347   6.435   7.365   1.842
14802TIP3   OH244348   2.397   6.413   2.606
14802TIP3    H144349   2.340   6.482   2.640
14802TIP3    H244350   2.406   6.433   2.513
14803TIP3   OH244351   4.969   2.002   4.305
14803TIP3    H144352   4.913   2.070   4.341
14803TIP3    H244353   4.915   1.957   4.240
14804TIP3   OH244354   2.038   4.073   6.717
14804TIP3    H144355   2.106   4.103   6.777
14804TIP3    H244356   2.086   4.040   6.641
14805TIP3   OH244357   7.375   2.130   2.753
14805TIP3    H144358   7.408   2.042   2.735
14805TIP3    H244359   7.410   2.184   2.682
14806TIP3   OH244360   5.703   2.826   4.544
14806TIP3    H144361   5.726   2.734   4.559
14806TIP3    H244362   5.786   2.873   4.549
14807TIP3   OH244363   8.179   2.285   5.369
14807TIP3    H144364   8.160   2.292   5.276
14807TIP3    H244365   8.215   2.370   5.393
14808TIP3   OH244366   6.367   2.862   1.653
14808TIP3    H144367   6.319   2.889   1.575
14808TIP3    H244368   6.431   2.931   1.668
14809TIP3   OH244369   7.010   6.268   5.705
14809TIP3    H144370   7.051   6.217   5.635
14809TIP3    H244371   7.055   6.239   5.785
14810TIP3   OH244372   0.945   2.418   1.513
14810TIP3    H144373   0.866   2.365   1.513
14810TIP3    H244374   0.970   2.424   1.421
14811TIP3   OH244375   3.698   2.877   5.570
14811TIP3    H144376   3.723   2.784   5.573
14811TIP3    H244377   3.648   2.885   5.489
14812TIP3   OH244378   7.542   2.480   1.498
14812TIP3    H144379   7.476   2.539   1.535
14812TIP3    H244380   7.624   2.529   1.504
14813TIP3   OH244381   8.152   2.998   0.006
14813TIP3    H144382   8.203   3.078  -0.004
14813TIP3    H244383   8.072   3.026   0.050
14814TIP3   OH244384   4.224   7.154   3.472
14814TIP3    H144385   4.149   7.214   3.461
14814TIP3    H244386   4.294   7.194   3.420
14815TIP3   OH244387   4.061   0.574   0.358
14815TIP3    H144388   4.003   0.525   0.416
14815TIP3    H244389   4.002   0.627   0.304
   8.27881   7.80534   6.75962   0.00000   0.00000  -2.75960   0.00000  -2.75960  -3.90267
